Protein in INSANE! Membrane UpperLeaflet>POPC=1.0 LowerLeaflet>POPC=1.0
248719
    1AU     AUC    1  38.531  24.787   7.525
    1AU     AUC    2  38.779  24.780   7.361
    1AU     AUC    3  38.775  24.784   7.696
    1AU     AUC    4  38.264  24.786   7.368
    1AU     AUC    5  38.287  24.834   7.691
    1AU     AUC    6  38.371  25.046   7.485
    1AU     AUC    7  38.707  25.044   7.487
    1AU     AUC    8  38.358  24.538   7.546
    1AU     AUC    9  38.687  24.516   7.549
    1AU     AUC   10  38.528  24.641   7.796
    1AU     AUC   11  38.541  24.982   7.758
    1AU     AUC   12  38.523  24.601   7.282
    1AU     AUC   13  38.540  24.904   7.254
    1AU     AUC   14  39.093  24.766   7.206
    1AU     AUC   15  39.097  24.757   7.551
    1AU     AUC   16  39.065  24.765   7.899
    1AU     AUC   17  37.964  24.748   7.229
    1AU     AUC   18  37.958  24.830   7.549
    1AU     AUC   19  37.991  24.892   7.868
    1AU     AUC   20  38.213  25.353   7.420
    1AU     AUC   21  38.570  25.338   7.406
    1AU     AUC   22  38.904  25.322   7.446
    1AU     AUC   23  38.161  24.247   7.571
    1AU     AUC   24  38.508  24.223   7.550
    1AU     AUC   25  38.858  24.215   7.562
    1AU     AUC   26  38.494  24.489   8.107
    1AU     AUC   27  38.523  24.837   8.089
    1AU     AUC   28  38.579  25.194   8.038
    1AU     AUC   29  38.559  24.409   7.003
    1AU     AUC   30  38.513  24.735   6.947
    1AU     AUC   31  38.499  25.049   6.933
    1AU     AUC   32  38.770  24.594   8.013
    1AU     AUC   33  38.817  24.951   7.987
    1AU     AUC   34  38.834  24.618   7.063
    1AU     AUC   35  38.791  24.914   7.067
    1AU     AUC   36  38.239  24.721   8.003
    1AU     AUC   37  38.282  25.068   7.944
    1AU     AUC   38  38.247  24.558   7.104
    1AU     AUC   39  38.205  24.876   7.063
    1AU     AUC   40  39.018  25.042   7.348
    1AU     AUC   41  38.974  25.030   7.683
    1AU     AUC   42  38.069  25.058   7.356
    1AU     AUC   43  38.121  25.152   7.677
    1AU     AUC   44  38.992  24.505   7.409
    1AU     AUC   45  38.936  24.462   7.750
    1AU     AUC   46  38.065  24.478   7.392
    1AU     AUC   47  38.092  24.574   7.725
    1AU     AUC   48  38.437  25.300   7.734
    1AU     AUC   49  38.746  25.256   7.756
    1AU     AUC   50  38.335  24.368   7.833
    1AU     AUC   51  38.640  24.308   7.824
    1AU     AUC   52  38.339  25.198   7.171
    1AU     AUC   53  38.703  25.219   7.188
    1AU     AUC   54  38.375  24.311   7.273
    1AU     AUC   55  38.744  24.353   7.277
    1AU    AUSL   56  39.038  24.709   8.303
    1AU    AUSL   57  38.773  24.326   8.230
    1AU     AUL   58  39.073  24.348   8.402
    1AU    AUSL   59  38.620  24.659   8.454
    1AU    AUSL   60  38.383  25.057   8.431
    1AU     AUL   61  38.612  24.956   8.715
    1AU    AUSL   62  38.721  25.005   8.177
    1AU    AUSL   63  39.175  25.077   8.109
    1AU     AUL   64  38.996  25.018   8.438
    1AU    AUSL   65  38.982  24.809   6.816
    1AU    AUSL   66  38.804  25.184   6.963
    1AU     AUL   67  39.085  25.131   6.703
    1AU    AUSL   68  38.776  24.487   6.601
    1AU    AUSL   69  39.284  24.556   6.993
    1AU     AUL   70  39.150  24.612   6.651
    1AU    AUSL   71  38.595  24.941   6.668
    1AU    AUSL   72  38.411  24.556   6.818
    1AU     AUL   73  38.518  24.612   6.478
    1AU    AUSL   74  37.994  25.015   8.215
    1AU    AUSL   75  38.350  25.311   8.082
    1AU     AUL   76  38.180  25.294   8.395
    1AU    AUSL   77  38.293  24.699   8.183
    1AU    AUSL   78  37.859  24.592   8.130
    1AU     AUL   79  37.840  24.786   8.307
    1AU    AUSL   80  37.971  24.539   6.801
    1AU    AUSL   81  38.215  24.209   6.978
    1AU     AUL   82  38.255  24.256   6.660
    1AU    AUSL   83  38.162  24.900   6.651
    1AU    AUSL   84  37.882  24.907   7.029
    1AU     AUL   85  37.754  24.738   6.785
    1AU    AUSL   86  39.325  25.259   7.486
    1AU    AUSL   87  39.165  25.004   7.153
    1AU     AUL   88  39.438  25.136   7.041
    1AU    AUSL   89  39.500  24.844   7.381
    1AU    AUSL   90  39.449  24.547   7.763
    1AU     AUL   91  39.747  24.598   7.549
    1AU    AUSL   92  39.222  24.906   7.726
    1AU    AUSL   93  38.989  25.300   7.764
    1AU     AUL   94  39.321  25.289   7.826
    1AU    AUSL   95  37.965  25.439   7.464
    1AU    AUSL   96  38.000  25.208   7.833
    1AU     AUL   97  37.694  25.455   7.677
    1AU    AUSL   98  37.770  25.044   7.419
    1AU    AUSL   99  37.905  25.339   7.053
    1AU     AUL  100  37.674  25.271   7.210
    1AU    AUSL  101  37.624  25.019   7.857
    1AU    AUSL  102  37.593  24.656   7.367
    1AU     AUL  103  37.450  24.999   7.541
    1AU    AUSL  104  39.206  24.202   7.622
    1AU    AUSL  105  39.051  24.499   7.931
    1AU     AUL  106  39.351  24.385   7.999
    1AU    AUSL  107  39.173  24.573   7.403
    1AU    AUSL  108  39.171  24.165   7.188
    1AU     AUL  109  39.418  24.372   7.278
    1AU    AUSL  110  37.762  24.287   7.588
    1AU    AUSL  111  37.954  24.477   7.220
    1AU     AUL  112  37.592  24.376   7.253
    1AU    AUSL  113  37.859  24.696   7.716
    1AU    AUSL  114  38.087  24.328   7.869
    1AU     AUL  115  37.761  24.329   7.919
    1AU    AUSL  116  38.618  25.598   7.894
    1AU    AUSL  117  38.165  25.615   7.810
    1AU     AUL  118  38.395  25.657   8.151
    1AU    AUSL  119  38.442  25.489   7.513
    1AU    AUSL  120  38.683  25.599   7.160
    1AU     AUL  121  38.441  25.834   7.454
    1AU    AUSL  122  38.880  25.646   7.543
    1AU    AUSL  123  38.872  25.402   8.177
    1AU     AUL  124  38.987  25.641   7.904
    1AU    AUSL  125  38.461  24.134   7.997
    1AU    AUSL  126  38.888  24.091   7.883
    1AU     AUL  127  38.642  24.040   8.259
    1AU    AUSL  128  38.155  23.932   7.727
    1AU    AUSL  129  38.211  24.306   8.302
    1AU     AUL  130  38.133  24.016   8.072
    1AU    AUSL  131  38.596  23.848   7.689
    1AU    AUSL  132  38.381  24.094   7.387
    1AU     AUL  133  38.289  23.732   7.503
    1AU    AUSL  134  38.511  25.428   6.771
    1AU    AUSL  135  39.071  25.433   7.192
    1AU     AUL  136  38.848  25.519   6.853
    1AU    AUSL  137  38.258  25.562   7.128
    1AU    AUSL  138  38.281  25.134   6.979
    1AU     AUL  139  38.177  25.404   6.777
    1AU    AUSL  140  38.608  24.034   7.003
    1AU    AUSL  141  37.969  24.037   7.302
    1AU     AUL  142  38.268  23.891   7.062
    1AU    AUSL  143  38.814  24.077   7.398
    1AU    AUSL  144  38.844  24.396   7.011
    1AU     AUL  145  38.923  24.047   6.981
    1AU       S  146  39.078  23.886   8.280
    1AU     LIG  147  39.256  23.431   8.333
    1AU     LIG  148  39.579  23.117   8.552
    1AU     LIG  149  39.935  23.002   8.852
    1AU       S  150  39.003  24.652   8.748
    1AU     LIG  151  39.286  24.949   8.956
    1AU     LIG  152  39.457  24.881   9.390
    1AU     LIG  153  39.349  24.732   9.834
    1AU       S  154  38.645  24.482   8.659
    1AU     LIG  155  38.624  24.603   9.092
    1AU     LIG  156  39.011  24.598   9.366
    1AU     LIG  157  39.282  24.275   9.573
    1AU       S  158  38.163  24.871   8.658
    1AU     LIG  159  38.114  24.801   9.121
    1AU     LIG  160  37.794  24.794   9.448
    1AU     LIG  161  37.597  24.796   9.880
    1AU       S  162  38.644  25.411   8.568
    1AU     LIG  163  38.899  25.723   8.765
    1AU     LIG  164  39.280  25.680   9.000
    1AU     LIG  165  39.570  25.381   9.195
    1AU       S  166  39.370  25.264   8.295
    1AU     LIG  167  39.535  25.385   8.674
    1AU     LIG  168  39.793  25.728   8.842
    1AU     LIG  169  40.001  26.156   8.969
    1AU       S  170  38.932  24.912   6.328
    1AU     LIG  171  39.131  24.929   5.888
    1AU     LIG  172  39.393  24.586   5.747
    1AU     LIG  173  39.422  24.130   5.768
    1AU       S  174  39.303  25.543   6.808
    1AU     LIG  175  39.098  25.921   6.625
    1AU     LIG  176  39.294  26.162   6.276
    1AU     LIG  177  39.703  26.261   6.061
    1AU       S  178  39.493  24.313   6.802
    1AU     LIG  179  39.511  24.216   6.297
    1AU     LIG  180  39.530  23.775   6.134
    1AU     LIG  181  39.622  23.309   6.229
    1AU       S  182  38.902  24.726   6.269
    1AU     LIG  183  39.028  24.374   6.059
    1AU     LIG  184  38.925  24.207   5.642
    1AU     LIG  185  39.108  24.161   5.210
    1AU       S  186  38.090  24.556   6.329
    1AU     LIG  187  38.126  24.615   5.901
    1AU     LIG  188  38.236  24.456   5.509
    1AU     LIG  189  38.211  24.615   5.093
    1AU       S  190  38.685  25.054   6.447
    1AU     LIG  191  38.464  24.941   6.086
    1AU     LIG  192  38.661  24.670   5.778
    1AU     LIG  193  38.981  24.675   5.435
    1AU       S  194  37.954  25.011   8.691
    1AU     LIG  195  37.670  24.706   8.781
    1AU     LIG  196  37.523  24.470   9.124
    1AU     LIG  197  37.517  24.375   9.579
    1AU       S  198  37.913  25.614   8.186
    1AU     LIG  199  37.839  25.660   8.616
    1AU     LIG  200  37.524  25.528   8.920
    1AU     LIG  201  37.346  25.814   9.234
    1AU       S  202  37.707  24.347   8.400
    1AU     LIG  203  37.291  24.245   8.173
    1AU     LIG  204  36.912  23.954   8.207
    1AU     LIG  205  36.809  23.704   8.602
    1AU       S  206  38.170  24.674   8.610
    1AU     LIG  207  38.180  24.350   8.908
    1AU     LIG  208  37.978  24.314   9.307
    1AU     LIG  209  38.007  24.429   9.754
    1AU       S  210  37.912  24.491   6.431
    1AU     LIG  211  37.697  24.326   6.074
    1AU     LIG  212  37.698  24.484   5.651
    1AU     LIG  213  37.868  24.811   5.424
    1AU       S  214  37.877  24.032   6.826
    1AU     LIG  215  37.774  23.616   6.701
    1AU     LIG  216  37.605  23.477   6.305
    1AU     LIG  217  37.192  23.416   6.127
    1AU       S  218  37.614  25.163   6.713
    1AU     LIG  219  37.303  25.416   6.773
    1AU     LIG  220  37.305  25.841   6.644
    1AU     LIG  221  37.208  25.877   6.188
    1AU       S  222  38.095  24.840   6.441
    1AU     LIG  223  37.861  24.999   6.142
    1AU     LIG  224  38.069  25.126   5.770
    1AU     LIG  225  38.370  24.968   5.456
    1AU       S  226  39.499  25.578   7.079
    1AU     LIG  227  39.775  25.567   6.676
    1AU     LIG  228  39.803  25.762   6.245
    1AU     LIG  229  40.114  25.924   5.936
    1AU       S  230  39.640  25.299   7.483
    1AU     LIG  231  39.900  25.657   7.435
    1AU     LIG  232  40.359  25.728   7.529
    1AU     LIG  233  40.641  25.857   7.899
    1AU       S  234  39.753  25.056   7.438
    1AU     LIG  235  40.159  25.232   7.328
    1AU     LIG  236  40.607  25.240   7.324
    1AU     LIG  237  40.944  25.333   7.067
    1AU       S  238  39.671  24.162   7.752
    1AU     LIG  239  39.860  23.988   8.091
    1AU     LIG  240  40.266  23.843   8.039
    1AU     LIG  241  40.589  24.090   7.760
    1AU       S  242  39.333  25.539   8.206
    1AU     LIG  243  39.731  25.693   8.304
    1AU     LIG  244  39.837  26.101   8.480
    1AU     LIG  245  39.889  26.541   8.614
    1AU       S  246  39.680  25.014   7.783
    1AU     LIG  247  40.056  25.322   7.819
    1AU     LIG  248  40.548  25.351   7.824
    1AU     LIG  249  41.002  25.457   7.966
    1AU       S  250  37.810  25.427   8.117
    1AU     LIG  251  37.528  25.313   8.439
    1AU     LIG  252  37.127  25.516   8.544
    1AU     LIG  253  36.958  25.653   8.939
    1AU       S  254  37.907  25.757   7.375
    1AU     LIG  255  37.810  26.174   7.436
    1AU     LIG  256  37.506  26.053   7.120
    1AU     LIG  257  37.203  25.708   7.162
    1AU       S  258  37.377  24.937   7.070
    1AU     LIG  259  37.107  24.610   6.903
    1AU     LIG  260  36.725  24.842   7.000
    1AU     LIG  261  36.875  25.292   7.055
    1AU       S  262  37.765  25.599   6.878
    1AU     LIG  263  37.870  26.009   6.759
    1AU     LIG  264  37.560  26.302   6.655
    1AU     LIG  265  37.339  26.356   6.252
    1AU       S  266  37.365  24.553   7.645
    1AU     LIG  267  37.022  24.634   7.398
    1AU     LIG  268  36.675  24.391   7.265
    1AU     LIG  269  36.281  24.312   7.026
    1AU       S  270  37.504  25.028   8.036
    1AU     LIG  271  37.100  25.071   8.277
    1AU     LIG  272  36.772  25.367   8.160
    1AU     LIG  273  36.930  25.688   7.870
    1AU       S  274  39.358  24.030   7.631
    1AU     LIG  275  39.506  23.630   7.476
    1AU     LIG  276  39.942  23.561   7.652
    1AU     LIG  277  40.389  23.647   7.595
    1AU       S  278  39.266  23.962   8.126
    1AU     LIG  279  39.537  23.630   7.970
    1AU     LIG  280  39.898  23.462   8.157
    1AU     LIG  281  39.983  23.452   8.585
    1AU       S  282  39.652  24.111   7.560
    1AU     LIG  283  39.865  23.909   7.248
    1AU     LIG  284  40.304  23.929   7.172
    1AU     LIG  285  40.731  23.894   7.293
    1AU       S  286  39.401  24.029   6.951
    1AU     LIG  287  39.458  23.683   6.668
    1AU     LIG  288  39.386  23.240   6.692
    1AU     LIG  289  39.481  22.852   6.478
    1AU       S  290  37.741  24.147   6.890
    1AU     LIG  291  37.473  24.241   6.577
    1AU     LIG  292  37.247  23.898   6.382
    1AU     LIG  293  36.835  23.682   6.436
    1AU       S  294  37.366  24.336   7.676
    1AU     LIG  295  37.162  23.995   7.718
    1AU     LIG  296  36.916  23.811   7.412
    1AU     LIG  297  36.506  23.904   7.246
    1AU       S  298  37.762  24.125   8.326
    1AU     LIG  299  37.599  23.862   7.996
    1AU     LIG  300  37.231  23.597   8.026
    1AU     LIG  301  37.089  23.351   8.353
    1AU       S  302  37.405  24.598   7.816
    1AU     LIG  303  36.977  24.820   7.858
    1AU     LIG  304  36.591  24.590   7.752
    1AU     LIG  305  36.652  24.133   7.720
    1AU       S  306  38.049  25.790   7.846
    1AU     LIG  307  37.728  26.051   7.974
    1AU     LIG  308  37.456  25.835   8.276
    1AU     LIG  309  37.352  25.951   8.704
    1AU       S  310  38.638  25.953   7.868
    1AU     LIG  311  38.663  26.328   8.166
    1AU     LIG  312  38.513  26.629   8.502
    1AU     LIG  313  38.103  26.768   8.672
    1AU       S  314  38.752  26.101   7.718
    1AU     LIG  315  38.311  26.260   7.634
    1AU     LIG  316  38.010  26.497   7.831
    1AU     LIG  317  38.180  26.751   8.139
    1AU       S  318  38.608  25.887   7.015
    1AU     LIG  319  38.707  26.258   7.194
    1AU     LIG  320  38.871  26.653   7.124
    1AU     LIG  321  38.646  27.021   7.115
    1AU       S  322  39.103  25.497   8.361
    1AU     LIG  323  39.321  25.910   8.532
    1AU     LIG  324  39.491  26.138   8.885
    1AU     LIG  325  39.635  25.942   9.290
    1AU       S  326  38.915  25.917   7.517
    1AU     LIG  327  39.069  26.399   7.525
    1AU     LIG  328  38.697  26.617   7.725
    1AU     LIG  329  38.679  26.905   8.091
    1AU       S  330  38.451  23.650   8.097
    1AU     LIG  331  38.772  23.299   8.172
    1AU     LIG  332  38.634  22.860   8.362
    1AU     LIG  333  38.311  22.637   8.676
    1AU       S  334  39.023  23.951   7.990
    1AU     LIG  335  39.067  23.589   7.800
    1AU     LIG  336  39.185  23.197   7.838
    1AU     LIG  337  39.548  23.089   8.049
    1AU       S  338  38.254  23.579   7.943
    1AU     LIG  339  38.319  23.141   8.021
    1AU     LIG  340  38.142  22.785   8.229
    1AU     LIG  341  38.014  22.364   8.306
    1AU       S  342  37.988  24.249   8.467
    1AU     LIG  343  37.767  23.968   8.789
    1AU     LIG  344  37.442  23.618   8.655
    1AU     LIG  345  37.119  23.341   8.866
    1AU       S  346  38.676  23.640   7.274
    1AU     LIG  347  38.400  23.282   7.172
    1AU     LIG  348  38.432  22.865   7.033
    1AU     LIG  349  38.734  22.611   7.147
    1AU       S  350  38.591  23.677   7.873
    1AU     LIG  351  38.661  23.293   7.652
    1AU     LIG  352  38.757  22.885   7.846
    1AU     LIG  353  38.974  22.552   8.122
    1AU       S  354  38.463  25.782   6.731
    1AU     LIG  355  38.448  26.192   6.656
    1AU     LIG  356  38.786  26.487   6.638
    1AU     LIG  357  38.799  26.753   6.284
    1AU       S  358  39.221  25.634   7.152
    1AU     LIG  359  39.397  26.073   7.004
    1AU     LIG  360  39.672  26.222   6.626
    1AU     LIG  361  40.090  26.225   6.395
    1AU       S  362  38.266  25.817   7.005
    1AU     LIG  363  38.207  26.236   7.125
    1AU     LIG  364  38.377  26.607   6.933
    1AU     LIG  365  38.314  26.661   6.495
    1AU       S  366  37.799  25.214   6.620
    1AU     LIG  367  37.658  25.572   6.378
    1AU     LIG  368  37.716  26.009   6.255
    1AU     LIG  369  37.887  26.447   6.293
    1AU       S  370  37.793  23.957   7.132
    1AU     LIG  371  37.379  23.802   6.990
    1AU     LIG  372  37.255  23.465   6.702
    1AU     LIG  373  37.375  23.068   6.508
    1AU       S  374  38.692  23.676   7.116
    1AU     LIG  375  38.970  23.534   6.809
    1AU     LIG  376  38.906  23.121   6.574
    1AU     LIG  377  38.722  22.715   6.642
    1AU       S  378  38.933  23.768   7.364
    1AU     LIG  379  39.089  23.360   7.335
    1AU     LIG  380  38.914  23.085   7.074
    1AU     LIG  381  39.178  22.763   6.896
    1AU       S  382  39.257  24.166   6.705
    1AU     LIG  383  39.076  23.928   6.409
    1AU     LIG  384  39.129  23.492   6.296
    1AU     LIG  385  39.161  23.063   6.126
    2AU     AUC  386  17.680  39.520   7.529
    2AU     AUC  387  17.930  39.519   7.368
    2AU     AUC  388  17.921  39.529   7.703
    2AU     AUC  389  17.416  39.507   7.371
    2AU     AUC  390  17.433  39.561   7.692
    2AU     AUC  391  17.511  39.773   7.484
    2AU     AUC  392  17.847  39.782   7.489
    2AU     AUC  393  17.517  39.264   7.553
    2AU     AUC  394  17.846  39.254   7.560
    2AU     AUC  395  17.681  39.378   7.802
    2AU     AUC  396  17.679  39.719   7.759
    2AU     AUC  397  17.681  39.329   7.292
    2AU     AUC  398  17.688  39.633   7.257
    2AU     AUC  399  18.246  39.516   7.217
    2AU     AUC  400  18.246  39.513   7.561
    2AU     AUC  401  18.209  39.526   7.910
    2AU     AUC  402  17.119  39.455   7.230
    2AU     AUC  403  17.107  39.541   7.549
    2AU     AUC  404  17.134  39.609   7.865
    2AU     AUC  405  17.343  40.072   7.411
    2AU     AUC  406  17.700  40.071   7.400
    2AU     AUC  407  18.034  40.066   7.444
    2AU     AUC  408  17.332  38.966   7.580
    2AU     AUC  409  17.679  38.955   7.562
    2AU     AUC  410  18.030  38.960   7.579
    2AU     AUC  411  17.650  39.230   8.115
    2AU     AUC  412  17.664  39.579   8.092
    2AU     AUC  413  17.706  39.937   8.036
    2AU     AUC  414  17.726  39.133   7.016
    2AU     AUC  415  17.668  39.456   6.955
    2AU     AUC  416  17.645  39.769   6.931
    2AU     AUC  417  17.920  39.345   8.023
    2AU     AUC  418  17.953  39.703   7.991
    2AU     AUC  419  17.992  39.352   7.077
    2AU     AUC  420  17.940  39.648   7.072
    2AU     AUC  421  17.387  39.449   8.006
    2AU     AUC  422  17.416  39.798   7.941
    2AU     AUC  423  17.409  39.273   7.111
    2AU     AUC  424  17.354  39.591   7.065
    2AU     AUC  425  18.160  39.790   7.352
    2AU     AUC  426  18.111  39.782   7.688
    2AU     AUC  427  17.212  39.771   7.352
    2AU     AUC  428  17.256  39.872   7.672
    2AU     AUC  429  18.154  39.254   7.428
    2AU     AUC  430  18.095  39.215   7.765
    2AU     AUC  431  17.229  39.191   7.399
    2AU     AUC  432  17.248  39.292   7.729
    2AU     AUC  433  17.563  40.032   7.729
    2AU     AUC  434  17.873  40.001   7.754
    2AU     AUC  435  17.498  39.098   7.842
    2AU     AUC  436  17.805  39.049   7.836
    2AU     AUC  437  17.478  39.918   7.165
    2AU     AUC  438  17.840  39.951   7.187
    2AU     AUC  439  17.547  39.032   7.283
    2AU     AUC  440  17.913  39.089   7.292
    2AU    AUSL  441  18.179  39.475   8.314
    2AU    AUSL  442  17.930  39.079   8.245
    2AU     AUL  443  18.227  39.125   8.424
    2AU    AUSL  444  17.764  39.412   8.461
    2AU    AUSL  445  17.511  39.797   8.428
    2AU     AUL  446  17.743  39.723   8.715
    2AU    AUSL  447  17.854  39.757   8.179
    2AU    AUSL  448  18.306  39.844   8.116
    2AU     AUL  449  18.128  39.782   8.442
    2AU    AUSL  450  18.132  39.536   6.827
    2AU    AUSL  451  17.946  39.915   6.960
    2AU     AUL  452  18.224  39.851   6.703
    2AU    AUSL  453  17.938  39.198   6.619
    2AU    AUSL  454  18.448  39.308   7.010
    2AU     AUL  455  18.298  39.323   6.673
    2AU    AUSL  456  17.746  39.660   6.668
    2AU    AUSL  457  17.573  39.275   6.830
    2AU     AUL  458  17.682  39.325   6.491
    2AU    AUSL  459  17.128  39.736   8.206
    2AU    AUSL  460  17.470  40.046   8.076
    2AU     AUL  461  17.290  40.021   8.390
    2AU    AUSL  462  17.440  39.433   8.184
    2AU    AUSL  463  17.012  39.306   8.136
    2AU     AUL  464  16.974  39.514   8.301
    2AU    AUSL  465  17.134  39.239   6.804
    2AU    AUSL  466  17.389  38.919   6.985
    2AU     AUL  467  17.430  38.964   6.673
    2AU    AUSL  468  17.314  39.604   6.650
    2AU    AUSL  469  17.034  39.607   7.027
    2AU     AUL  470  16.915  39.440   6.782
    2AU    AUSL  471  18.456  40.018   7.492
    2AU    AUSL  472  18.314  39.754   7.151
    2AU     AUL  473  18.596  39.912   7.063
    2AU    AUSL  474  18.647  39.612   7.396
    2AU    AUSL  475  18.604  39.321   7.783
    2AU     AUL  476  18.900  39.382   7.575
    2AU    AUSL  477  18.362  39.668   7.736
    2AU    AUSL  478  18.115  40.054   7.764
    2AU     AUL  479  18.448  40.048   7.840
    2AU    AUSL  480  17.091  40.149   7.450
    2AU    AUSL  481  17.128  39.927   7.824
    2AU     AUL  482  16.812  40.159   7.660
    2AU    AUSL  483  16.912  39.745   7.414
    2AU    AUSL  484  17.039  40.040   7.041
    2AU     AUL  485  16.811  39.963   7.201
    2AU    AUSL  486  16.761  39.721   7.851
    2AU    AUSL  487  16.754  39.350   7.365
    2AU     AUL  488  16.597  39.689   7.536
    2AU    AUSL  489  18.378  38.963   7.645
    2AU    AUSL  490  18.206  39.259   7.947
    2AU     AUL  491  18.510  39.166   8.024
    2AU    AUSL  492  18.331  39.328   7.418
    2AU    AUSL  493  18.352  38.916   7.212
    2AU     AUL  494  18.585  39.139   7.300
    2AU    AUSL  495  16.933  38.990   7.592
    2AU    AUSL  496  17.122  39.184   7.224
    2AU     AUL  497  16.769  39.076   7.239
    2AU    AUSL  498  17.010  39.404   7.719
    2AU    AUSL  499  17.251  39.048   7.878
    2AU     AUL  500  16.926  39.039   7.929
    2AU    AUSL  501  17.732  40.337   7.886
    2AU    AUSL  502  17.280  40.340   7.795
    2AU     AUL  503  17.491  40.389   8.142
    2AU    AUSL  504  17.565  40.219   7.503
    2AU    AUSL  505  17.807  40.330   7.151
    2AU     AUL  506  17.550  40.567   7.434
    2AU    AUSL  507  17.995  40.392   7.535
    2AU    AUSL  508  17.991  40.159   8.174
    2AU     AUL  509  18.106  40.395   7.889
    2AU    AUSL  510  17.631  38.871   8.009
    2AU    AUSL  511  18.059  38.846   7.902
    2AU     AUL  512  17.810  38.784   8.272
    2AU    AUSL  513  17.336  38.655   7.740
    2AU    AUSL  514  17.377  39.038   8.312
    2AU     AUL  515  17.307  38.743   8.084
    2AU    AUSL  516  17.781  38.586   7.706
    2AU    AUSL  517  17.558  38.818   7.398
    2AU     AUL  518  17.481  38.456   7.525
    2AU    AUSL  519  17.646  40.146   6.763
    2AU    AUSL  520  18.201  40.179   7.192
    2AU     AUL  521  17.976  40.254   6.852
    2AU    AUSL  522  17.384  40.278   7.114
    2AU    AUSL  523  17.424  39.848   6.975
    2AU     AUL  524  17.313  40.110   6.764
    2AU    AUSL  525  17.790  38.764   7.014
    2AU    AUSL  526  17.149  38.743   7.311
    2AU     AUL  527  17.452  38.606   7.080
    2AU    AUSL  528  17.992  38.819   7.412
    2AU    AUSL  529  18.015  39.132   7.033
    2AU     AUL  530  18.112  38.800   6.988
    2AU       S  531  18.255  38.665   8.310
    2AU     LIG  532  18.390  38.210   8.274
    2AU     LIG  533  18.530  37.747   8.274
    2AU     LIG  534  18.677  37.460   8.609
    2AU       S  535  18.132  39.426   8.766
    2AU     LIG  536  18.528  39.620   8.833
    2AU     LIG  537  18.761  39.536   9.237
    2AU     LIG  538  18.728  39.385   9.686
    2AU       S  539  17.791  39.248   8.673
    2AU     LIG  540  17.817  39.239   9.139
    2AU     LIG  541  18.157  39.185   9.498
    2AU     LIG  542  18.412  38.999   9.873
    2AU       S  543  17.310  39.592   8.639
    2AU     LIG  544  17.401  39.574   9.079
    2AU     LIG  545  17.021  39.542   9.299
    2AU     LIG  546  16.794  39.720   9.679
    2AU       S  547  17.741  40.178   8.551
    2AU     LIG  548  18.018  40.457   8.764
    2AU     LIG  549  18.437  40.299   8.843
    2AU     LIG  550  18.713  40.035   9.095
    2AU       S  551  18.480  40.062   8.311
    2AU     LIG  552  18.796  40.045   8.581
    2AU     LIG  553  18.957  40.399   8.806
    2AU     LIG  554  19.160  40.745   9.034
    2AU       S  555  18.089  39.606   6.336
    2AU     LIG  556  18.347  39.636   5.945
    2AU     LIG  557  18.599  39.301   5.801
    2AU     LIG  558  18.520  38.999   5.487
    2AU       S  559  18.421  40.260   6.766
    2AU     LIG  560  18.380  40.577   6.463
    2AU     LIG  561  18.640  40.716   6.113
    2AU     LIG  562  19.045  40.792   5.922
    2AU       S  563  18.683  39.090   6.831
    2AU     LIG  564  18.574  39.142   6.318
    2AU     LIG  565  18.549  38.757   6.103
    2AU     LIG  566  18.660  38.419   6.410
    2AU       S  567  18.069  39.402   6.268
    2AU     LIG  568  18.156  39.086   5.974
    2AU     LIG  569  18.004  38.985   5.554
    2AU     LIG  570  18.070  39.053   5.101
    2AU       S  571  17.261  39.250   6.333
    2AU     LIG  572  17.499  39.152   5.951
    2AU     LIG  573  17.521  39.160   5.482
    2AU     LIG  574  17.257  39.339   5.136
    2AU       S  575  17.841  39.763   6.433
    2AU     LIG  576  17.619  39.631   6.075
    2AU     LIG  577  17.875  39.457   5.744
    2AU     LIG  578  18.236  39.438   5.449
    2AU       S  579  17.097  39.717   8.696
    2AU     LIG  580  16.827  39.401   8.776
    2AU     LIG  581  16.733  39.118   9.072
    2AU     LIG  582  16.634  39.263   9.488
    2AU       S  583  17.012  40.314   8.159
    2AU     LIG  584  16.901  40.573   8.473
    2AU     LIG  585  16.632  40.582   8.832
    2AU     LIG  586  16.231  40.583   9.060
    2AU       S  587  16.895  39.067   8.414
    2AU     LIG  588  16.482  39.039   8.238
    2AU     LIG  589  16.240  38.638   8.272
    2AU     LIG  590  16.112  38.212   8.451
    2AU       S  591  17.309  39.405   8.604
    2AU     LIG  592  17.244  39.114   8.947
    2AU     LIG  593  17.134  39.042   9.385
    2AU     LIG  594  17.074  39.293   9.763
    2AU       S  595  17.067  39.164   6.445
    2AU     LIG  596  16.886  39.100   6.041
    2AU     LIG  597  17.057  39.308   5.686
    2AU     LIG  598  16.934  39.641   5.415
    2AU       S  599  17.061  38.717   6.829
    2AU     LIG  600  16.770  38.409   6.655
    2AU     LIG  601  16.552  38.198   6.329
    2AU     LIG  602  16.272  38.102   5.965
    2AU       S  603  16.743  39.853   6.706
    2AU     LIG  604  16.399  40.079   6.656
    2AU     LIG  605  16.422  40.518   6.578
    2AU     LIG  606  16.549  40.683   6.144
    2AU       S  607  17.249  39.529   6.434
    2AU     LIG  608  16.936  39.621   6.178
    2AU     LIG  609  17.140  39.806   5.850
    2AU     LIG  610  17.441  39.665   5.540
    2AU       S  611  18.518  40.321   6.891
    2AU     LIG  612  18.938  40.242   6.738
    2AU     LIG  613  19.125  40.446   6.358
    2AU     LIG  614  19.385  40.408   5.967
    2AU       S  615  18.755  40.084   7.488
    2AU     LIG  616  19.111  40.271   7.628
    2AU     LIG  617  19.520  40.146   7.607
    2AU     LIG  618  19.839  40.422   7.501
    2AU       S  619  18.903  39.836   7.450
    2AU     LIG  620  19.231  40.035   7.181
    2AU     LIG  621  19.702  40.127   7.107
    2AU     LIG  622  20.096  40.425   7.059
    2AU       S  623  18.845  38.952   7.789
    2AU     LIG  624  19.215  38.759   7.894
    2AU     LIG  625  19.587  38.681   7.671
    2AU     LIG  626  20.048  38.625   7.702
    2AU       S  627  18.443  40.320   8.206
    2AU     LIG  628  18.830  40.486   8.304
    2AU     LIG  629  18.964  40.857   8.530
    2AU     LIG  630  18.953  41.171   8.852
    2AU       S  631  18.826  39.806   7.785
    2AU     LIG  632  19.227  39.690   7.941
    2AU     LIG  633  19.692  39.701   7.941
    2AU     LIG  634  19.940  40.098   7.922
    2AU       S  635  16.922  40.135   8.103
    2AU     LIG  636  16.685  40.077   8.479
    2AU     LIG  637  16.274  40.283   8.606
    2AU     LIG  638  15.985  40.665   8.620
    2AU       S  639  17.025  40.459   7.359
    2AU     LIG  640  16.765  40.772   7.440
    2AU     LIG  641  16.480  40.704   7.136
    2AU     LIG  642  16.419  40.273   7.114
    2AU       S  643  16.530  39.617   7.067
    2AU     LIG  644  16.167  39.548   6.882
    2AU     LIG  645  15.891  39.860   6.950
    2AU     LIG  646  15.909  40.265   7.159
    2AU       S  647  16.890  40.286   6.867
    2AU     LIG  648  16.893  40.701   6.817
    2AU     LIG  649  16.668  40.962   6.554
    2AU     LIG  650  16.433  41.216   6.239
    2AU       S  651  16.521  39.234   7.623
    2AU     LIG  652  16.179  39.424   7.422
    2AU     LIG  653  15.796  39.341   7.203
    2AU     LIG  654  15.587  38.932   7.205
    2AU       S  655  16.634  39.734   8.031
    2AU     LIG  656  16.264  39.931   8.201
    2AU     LIG  657  15.850  40.074   8.055
    2AU     LIG  658  15.684  40.052   7.618
    2AU       S  659  18.539  38.811   7.664
    2AU     LIG  660  18.680  38.419   7.510
    2AU     LIG  661  19.097  38.332   7.613
    2AU     LIG  662  19.457  38.295   7.314
    2AU       S  663  18.433  38.745   8.159
    2AU     LIG  664  18.757  38.484   8.023
    2AU     LIG  665  18.893  38.192   8.365
    2AU     LIG  666  18.639  38.004   8.710
    2AU       S  667  18.829  38.890   7.580
    2AU     LIG  668  19.082  38.698   7.254
    2AU     LIG  669  19.551  38.790   7.161
    2AU     LIG  670  19.966  38.587   7.202
    2AU       S  671  18.597  38.779   6.996
    2AU     LIG  672  18.504  38.344   6.915
    2AU     LIG  673  18.476  37.864   6.907
    2AU     LIG  674  18.362  37.479   6.631
    2AU       S  675  16.925  38.835   6.886
    2AU     LIG  676  16.618  38.893   6.568
    2AU     LIG  677  16.323  38.656   6.285
    2AU     LIG  678  15.948  38.490   6.057
    2AU       S  679  16.554  38.983   7.657
    2AU     LIG  680  16.182  38.924   7.842
    2AU     LIG  681  15.821  38.964   7.659
    2AU     LIG  682  15.539  38.636   7.663
    2AU       S  683  16.933  38.840   8.337
    2AU     LIG  684  16.707  38.597   8.024
    2AU     LIG  685  16.482  38.201   8.078
    2AU     LIG  686  16.417  37.806   8.340
    2AU       S  687  16.565  39.286   7.801
    2AU     LIG  688  16.185  39.443   7.958
    2AU     LIG  689  15.826  39.209   8.106
    2AU     LIG  690  15.730  38.758   8.139
    2AU       S  691  17.129  40.513   7.845
    2AU     LIG  692  16.735  40.720   7.988
    2AU     LIG  693  16.421  40.709   8.351
    2AU     LIG  694  16.354  41.008   8.736
    2AU       S  695  17.729  40.668   7.853
    2AU     LIG  696  17.937  40.702   8.251
    2AU     LIG  697  17.861  41.136   8.348
    2AU     LIG  698  17.457  41.367   8.269
    2AU       S  699  17.845  40.836   7.748
    2AU     LIG  700  17.426  41.021   7.655
    2AU     LIG  701  17.298  41.431   7.770
    2AU     LIG  702  17.413  41.802   7.979
    2AU       S  703  17.716  40.625   6.992
    2AU     LIG  704  17.705  41.028   7.221
    2AU     LIG  705  17.681  41.494   7.312
    2AU     LIG  706  17.864  41.867   7.068
    2AU       S  707  18.207  40.268   8.350
    2AU     LIG  708  18.406  40.697   8.521
    2AU     LIG  709  18.622  40.777   8.919
    2AU     LIG  710  18.757  40.526   9.283
    2AU       S  711  18.005  40.690   7.520
    2AU     LIG  712  18.066  41.206   7.540
    2AU     LIG  713  17.816  41.423   7.877
    2AU     LIG  714  17.870  41.670   8.297
    2AU       S  715  17.631  38.385   8.112
    2AU     LIG  716  17.929  38.011   8.169
    2AU     LIG  717  18.002  37.647   8.465
    2AU     LIG  718  17.740  37.224   8.501
    2AU       S  719  18.202  38.715   8.017
    2AU     LIG  720  18.272  38.376   7.809
    2AU     LIG  721  18.383  37.969   7.816
    2AU     LIG  722  18.821  37.978   7.913
    2AU       S  723  17.445  38.310   7.966
    2AU     LIG  724  17.408  37.930   7.783
    2AU     LIG  725  17.212  37.552   7.940
    2AU     LIG  726  17.277  37.216   8.229
    2AU       S  727  17.161  38.961   8.485
    2AU     LIG  728  16.900  38.680   8.793
    2AU     LIG  729  16.600  38.314   8.640
    2AU     LIG  730  16.363  37.929   8.843
    2AU       S  731  17.861  38.380   7.281
    2AU     LIG  732  17.570  38.020   7.264
    2AU     LIG  733  17.477  37.670   6.983
    2AU     LIG  734  17.602  37.210   7.005
    2AU       S  735  17.784  38.422   7.900
    2AU     LIG  736  17.885  38.090   7.665
    2AU     LIG  737  17.883  37.711   7.735
    2AU     LIG  738  17.699  37.521   8.082
    2AU       S  739  17.582  40.505   6.713
    2AU     LIG  740  17.464  40.959   6.694
    2AU     LIG  741  17.728  41.359   6.788
    2AU     LIG  742  17.990  41.712   6.600
    2AU       S  743  18.373  40.358   7.142
    2AU     LIG  744  18.864  40.495   7.191
    2AU     LIG  745  19.060  40.730   6.829
    2AU     LIG  746  19.016  40.942   6.422
    2AU       S  747  17.380  40.528   6.982
    2AU     LIG  748  17.230  40.877   7.154
    2AU     LIG  749  17.284  41.309   7.021
    2AU     LIG  750  17.380  41.761   6.944
    2AU       S  751  16.940  39.905   6.610
    2AU     LIG  752  16.853  40.281   6.373
    2AU     LIG  753  17.041  40.695   6.320
    2AU     LIG  754  16.904  41.057   6.068
    2AU       S  755  16.968  38.654   7.134
    2AU     LIG  756  16.496  38.665   7.058
    2AU     LIG  757  16.241  38.414   6.744
    2AU     LIG  758  16.050  38.129   6.426
    2AU       S  759  17.891  38.413   7.113
    2AU     LIG  760  18.046  38.123   6.829
    2AU     LIG  761  17.951  37.820   6.502
    2AU     LIG  762  17.648  37.446   6.541
    2AU       S  763  18.108  38.517   7.368
    2AU     LIG  764  18.295  38.132   7.333
    2AU     LIG  765  18.062  37.808   7.262
    2AU     LIG  766  17.968  37.575   6.938
    2AU       S  767  18.483  38.898   6.744
    2AU     LIG  768  18.185  38.749   6.475
    2AU     LIG  769  18.166  38.305   6.347
    2AU     LIG  770  18.459  37.937   6.398
    3AU     AUC  771  10.573  17.644   7.537
    3AU     AUC  772  10.821  17.645   7.372
    3AU     AUC  773  10.812  17.654   7.707
    3AU     AUC  774  10.307  17.636   7.379
    3AU     AUC  775  10.326  17.686   7.703
    3AU     AUC  776  10.403  17.891   7.495
    3AU     AUC  777  10.752  17.905   7.504
    3AU     AUC  778  10.407  17.390   7.558
    3AU     AUC  779  10.734  17.379   7.566
    3AU     AUC  780  10.573  17.503   7.810
    3AU     AUC  781  10.578  17.831   7.778
    3AU     AUC  782  10.570  17.456   7.296
    3AU     AUC  783  10.579  17.759   7.265
    3AU     AUC  784  11.132  17.636   7.214
    3AU     AUC  785  11.138  17.633   7.558
    3AU     AUC  786  11.096  17.644   7.913
    3AU     AUC  787  10.007  17.587   7.236
    3AU     AUC  788   9.996  17.668   7.557
    3AU     AUC  789  10.025  17.733   7.873
    3AU     AUC  790  10.231  18.199   7.434
    3AU     AUC  791  10.595  18.175   7.426
    3AU     AUC  792  10.966  18.176   7.462
    3AU     AUC  793  10.221  17.092   7.580
    3AU     AUC  794  10.563  17.079   7.571
    3AU     AUC  795  10.914  17.084   7.580
    3AU     AUC  796  10.532  17.354   8.119
    3AU     AUC  797  10.577  17.718   8.121
    3AU     AUC  798  10.605  18.042   8.050
    3AU     AUC  799  10.613  17.262   7.017
    3AU     AUC  800  10.554  17.588   6.959
    3AU     AUC  801  10.533  17.908   6.940
    3AU     AUC  802  10.805  17.500   8.041
    3AU     AUC  803  10.861  17.822   8.007
    3AU     AUC  804  10.878  17.476   7.077
    3AU     AUC  805  10.824  17.774   7.071
    3AU     AUC  806  10.279  17.574   8.014
    3AU     AUC  807  10.313  17.921   7.948
    3AU     AUC  808  10.298  17.407   7.114
    3AU     AUC  809  10.243  17.728   7.075
    3AU     AUC  810  11.053  17.914   7.338
    3AU     AUC  811  11.050  17.910   7.676
    3AU     AUC  812  10.099  17.902   7.363
    3AU     AUC  813  10.138  17.993   7.684
    3AU     AUC  814  11.041  17.379   7.429
    3AU     AUC  815  10.979  17.342   7.768
    3AU     AUC  816  10.120  17.319   7.400
    3AU     AUC  817  10.142  17.417   7.733
    3AU     AUC  818  10.449  18.155   7.742
    3AU     AUC  819  10.802  18.095   7.749
    3AU     AUC  820  10.387  17.216   7.850
    3AU     AUC  821  10.683  17.174   7.840
    3AU     AUC  822  10.372  18.052   7.189
    3AU     AUC  823  10.735  18.080   7.203
    3AU     AUC  824  10.436  17.161   7.284
    3AU     AUC  825  10.800  17.215   7.294
    3AU    AUSL  826  11.067  17.564   8.332
    3AU    AUSL  827  10.778  17.221   8.224
    3AU     AUL  828  11.080  17.216   8.417
    3AU    AUSL  829  10.648  17.543   8.478
    3AU    AUSL  830  10.410  17.926   8.413
    3AU     AUL  831  10.616  17.835   8.762
    3AU    AUSL  832  10.835  17.943   8.366
    3AU    AUSL  833  11.223  17.911   8.122
    3AU     AUL  834  11.145  17.860   8.495
    3AU    AUSL  835  11.010  17.659   6.815
    3AU    AUSL  836  10.826  18.043   6.964
    3AU     AUL  837  11.089  17.992   6.698
    3AU    AUSL  838  10.818  17.313   6.620
    3AU    AUSL  839  11.327  17.433   7.009
    3AU     AUL  840  11.186  17.443   6.665
    3AU    AUSL  841  10.629  17.803   6.661
    3AU    AUSL  842  10.460  17.420   6.831
    3AU     AUL  843  10.576  17.468   6.495
    3AU    AUSL  844  10.020  17.860   8.219
    3AU    AUSL  845  10.372  18.176   8.063
    3AU     AUL  846  10.215  18.156   8.388
    3AU    AUSL  847  10.332  17.555   8.190
    3AU    AUSL  848   9.904  17.432   8.138
    3AU     AUL  849   9.867  17.624   8.307
    3AU    AUSL  850  10.020  17.381   6.808
    3AU    AUSL  851  10.283  17.059   6.981
    3AU     AUL  852  10.316  17.109   6.669
    3AU    AUSL  853  10.198  17.751   6.661
    3AU    AUSL  854   9.924  17.747   7.039
    3AU     AUL  855   9.804  17.601   6.783
    3AU    AUSL  856  11.354  18.128   7.454
    3AU    AUSL  857  11.194  17.869   7.139
    3AU     AUL  858  11.461  17.990   7.021
    3AU    AUSL  859  11.535  17.727   7.382
    3AU    AUSL  860  11.482  17.452   7.794
    3AU     AUL  861  11.759  17.558   7.628
    3AU    AUSL  862  11.245  17.799   7.716
    3AU    AUSL  863  11.226  18.257   7.839
    3AU     AUL  864  11.482  17.973   7.849
    3AU    AUSL  865   9.964  18.275   7.470
    3AU    AUSL  866  10.012  18.053   7.839
    3AU     AUL  867   9.687  18.276   7.685
    3AU    AUSL  868   9.792  17.872   7.426
    3AU    AUSL  869   9.938  18.181   7.055
    3AU     AUL  870   9.695  18.094   7.213
    3AU    AUSL  871   9.652  17.835   7.867
    3AU    AUSL  872   9.643  17.474   7.371
    3AU     AUL  873   9.481  17.812   7.550
    3AU    AUSL  874  11.263  17.086   7.654
    3AU    AUSL  875  11.086  17.383   7.948
    3AU     AUL  876  11.390  17.284   8.037
    3AU    AUSL  877  11.219  17.446   7.420
    3AU    AUSL  878  11.239  17.041   7.217
    3AU     AUL  879  11.478  17.263   7.313
    3AU    AUSL  880   9.831  17.114   7.595
    3AU    AUSL  881  10.014  17.317   7.227
    3AU     AUL  882   9.659  17.208   7.241
    3AU    AUSL  883   9.905  17.529   7.721
    3AU    AUSL  884  10.147  17.173   7.883
    3AU     AUL  885   9.816  17.177   7.938
    3AU    AUSL  886  10.632  18.501   7.928
    3AU    AUSL  887  10.154  18.473   7.810
    3AU     AUL  888  10.379  18.533   8.133
    3AU    AUSL  889  10.460  18.325   7.559
    3AU    AUSL  890  10.707  18.456   7.208
    3AU     AUL  891  10.484  18.673   7.494
    3AU    AUSL  892  10.900  18.377   7.586
    3AU    AUSL  893  10.842  18.136   7.996
    3AU     AUL  894  10.981  18.477   7.954
    3AU    AUSL  895  10.504  16.954   8.024
    3AU    AUSL  896  10.931  16.975   7.901
    3AU     AUL  897  10.693  16.912   8.286
    3AU    AUSL  898  10.213  16.780   7.729
    3AU    AUSL  899  10.267  17.162   8.317
    3AU     AUL  900  10.172  16.860   8.079
    3AU    AUSL  901  10.662  16.708   7.698
    3AU    AUSL  902  10.444  16.946   7.396
    3AU     AUL  903  10.353  16.582   7.510
    3AU    AUSL  904  10.533  18.308   6.805
    3AU    AUSL  905  11.103  18.311   7.164
    3AU     AUL  906  10.847  18.392   6.874
    3AU    AUSL  907  10.283  18.404   7.171
    3AU    AUSL  908  10.320  17.985   6.989
    3AU     AUL  909  10.210  18.268   6.798
    3AU    AUSL  910  10.677  16.888   7.016
    3AU    AUSL  911  10.036  16.876   7.298
    3AU     AUL  912  10.346  16.740   7.067
    3AU    AUSL  913  10.877  16.946   7.414
    3AU    AUSL  914  10.900  17.256   7.034
    3AU     AUL  915  10.996  16.919   6.995
    3AU       S  916  11.129  16.765   8.283
    3AU     LIG  917  11.316  16.338   8.283
    3AU     LIG  918  11.472  16.024   8.563
    3AU     LIG  919  11.649  15.634   8.520
    3AU       S  920  11.007  17.505   8.781
    3AU     LIG  921  11.379  17.477   9.015
    3AU     LIG  922  11.586  17.574   9.407
    3AU     LIG  923  11.502  17.638   9.853
    3AU       S  924  10.671  17.360   8.675
    3AU     LIG  925  10.759  17.239   9.133
    3AU     LIG  926  11.129  17.235   9.461
    3AU     LIG  927  11.291  17.162   9.914
    3AU       S  928  10.180  17.738   8.658
    3AU     LIG  929  10.099  17.657   9.118
    3AU     LIG  930   9.818  17.613   9.469
    3AU     LIG  931   9.642  17.565   9.904
    3AU       S  932  10.748  18.255   8.473
    3AU     LIG  933  11.009  18.537   8.734
    3AU     LIG  934  11.418  18.386   8.854
    3AU     LIG  935  11.585  17.968   8.965
    3AU       S  936  11.410  18.179   8.276
    3AU     LIG  937  11.747  18.180   8.508
    3AU     LIG  938  11.927  18.509   8.747
    3AU     LIG  939  12.115  18.896   8.951
    3AU       S  940  10.973  17.728   6.338
    3AU     LIG  941  11.408  17.780   6.303
    3AU     LIG  942  11.543  17.499   5.969
    3AU     LIG  943  11.258  17.117   5.968
    3AU       S  944  11.270  18.415   6.720
    3AU     LIG  945  11.297  18.731   6.427
    3AU     LIG  946  11.517  18.831   6.048
    3AU     LIG  947  11.901  18.921   5.853
    3AU       S  948  11.574  17.226   6.853
    3AU     LIG  949  11.611  17.258   6.402
    3AU     LIG  950  11.568  16.815   6.273
    3AU     LIG  951  11.671  16.385   6.463
    3AU       S  952  10.961  17.527   6.253
    3AU     LIG  953  10.718  17.222   6.037
    3AU     LIG  954  10.810  17.058   5.608
    3AU     LIG  955  10.955  17.110   5.164
    3AU       S  956  10.150  17.404   6.337
    3AU     LIG  957  10.156  17.402   5.902
    3AU     LIG  958  10.376  17.330   5.525
    3AU     LIG  959  10.298  17.168   5.102
    3AU       S  960  10.726  17.900   6.404
    3AU     LIG  961  10.516  17.724   6.058
    3AU     LIG  962  10.773  17.602   5.709
    3AU     LIG  963  11.178  17.430   5.551
    3AU       S  964   9.968  17.879   8.676
    3AU     LIG  965   9.707  17.543   8.785
    3AU     LIG  966   9.722  17.237   9.107
    3AU     LIG  967   9.655  17.134   9.572
    3AU       S  968   9.905  18.431   8.187
    3AU     LIG  969   9.748  18.680   8.508
    3AU     LIG  970   9.520  18.559   8.881
    3AU     LIG  971   9.122  18.563   9.122
    3AU       S  972   9.792  17.185   8.436
    3AU     LIG  973   9.384  17.215   8.244
    3AU     LIG  974   9.123  16.847   8.222
    3AU     LIG  975   9.076  16.457   8.467
    3AU       S  976  10.198  17.546   8.616
    3AU     LIG  977  10.235  17.212   8.930
    3AU     LIG  978  10.152  17.175   9.382
    3AU     LIG  979  10.088  17.320   9.818
    3AU       S  980   9.960  17.326   6.445
    3AU     LIG  981   9.833  17.035   6.129
    3AU     LIG  982   9.738  17.174   5.703
    3AU     LIG  983   9.910  17.465   5.361
    3AU       S  984   9.952  16.860   6.825
    3AU     LIG  985   9.843  16.563   6.524
    3AU     LIG  986   9.643  16.526   6.107
    3AU     LIG  987   9.239  16.333   5.977
    3AU       S  988   9.601  18.009   6.737
    3AU     LIG  989   9.275  18.361   6.760
    3AU     LIG  990   9.249  18.724   6.464
    3AU     LIG  991   9.273  18.756   6.000
    3AU       S  992  10.149  17.684   6.442
    3AU     LIG  993   9.883  17.805   6.139
    3AU     LIG  994   9.965  17.850   5.695
    3AU     LIG  995  10.289  17.825   5.364
    3AU       S  996  11.407  18.374   6.810
    3AU     LIG  997  11.696  18.219   6.496
    3AU     LIG  998  11.927  18.488   6.176
    3AU     LIG  999  12.335  18.692   6.036
    3AU       S 1000  11.562  18.229   7.438
    3AU     LIG 1001  11.786  18.529   7.682
    3AU     LIG 1002  12.243  18.443   7.650
    3AU     LIG 1003  12.682  18.492   7.753
    3AU       S 1004  11.780  17.948   7.364
    3AU     LIG 1005  12.010  18.024   7.028
    3AU     LIG 1006  12.445  18.115   7.102
    3AU     LIG 1007  12.782  18.399   7.258
    3AU       S 1008  11.737  17.098   7.794
    3AU     LIG 1009  12.130  16.882   7.876
    3AU     LIG 1010  12.589  16.890   7.762
    3AU     LIG 1011  12.983  16.626   7.778
    3AU       S 1012  11.439  18.393   8.066
    3AU     LIG 1013  11.851  18.568   8.198
    3AU     LIG 1014  11.960  18.944   8.455
    3AU     LIG 1015  11.894  19.322   8.740
    3AU       S 1016  11.820  18.057   7.560
    3AU     LIG 1017  11.982  18.108   7.961
    3AU     LIG 1018  12.435  18.154   8.057
    3AU     LIG 1019  12.903  18.078   8.015
    3AU       S 1020   9.804  18.254   8.128
    3AU     LIG 1021   9.535  18.201   8.481
    3AU     LIG 1022   9.104  18.332   8.642
    3AU     LIG 1023   8.713  18.591   8.777
    3AU       S 1024   9.889  18.578   7.377
    3AU     LIG 1025   9.860  19.014   7.386
    3AU     LIG 1026   9.514  18.998   7.106
    3AU     LIG 1027   9.378  18.565   7.222
    3AU       S 1028   9.403  17.744   7.085
    3AU     LIG 1029   8.965  17.779   6.938
    3AU     LIG 1030   8.700  18.122   6.943
    3AU     LIG 1031   8.891  18.359   7.284
    3AU       S 1032   9.781  18.430   6.886
    3AU     LIG 1033   9.859  18.826   6.762
    3AU     LIG 1034   9.569  19.125   6.587
    3AU     LIG 1035   9.274  19.209   6.224
    3AU       S 1036   9.419  17.352   7.631
    3AU     LIG 1037   9.068  17.486   7.418
    3AU     LIG 1038   8.719  17.388   7.162
    3AU     LIG 1039   8.335  17.154   7.144
    3AU       S 1040   9.520  17.840   8.047
    3AU     LIG 1041   9.139  17.961   8.261
    3AU     LIG 1042   8.963  18.340   8.125
    3AU     LIG 1043   9.170  18.518   7.729
    3AU       S 1044  11.426  16.942   7.672
    3AU     LIG 1045  11.540  16.593   7.447
    3AU     LIG 1046  11.951  16.500   7.561
    3AU     LIG 1047  12.332  16.421   7.805
    3AU       S 1048  11.312  16.854   8.145
    3AU     LIG 1049  11.657  16.580   7.986
    3AU     LIG 1050  11.845  16.269   8.304
    3AU     LIG 1051  11.884  16.253   8.773
    3AU       S 1052  11.721  17.040   7.613
    3AU     LIG 1053  11.913  16.901   7.246
    3AU     LIG 1054  12.345  16.755   7.319
    3AU     LIG 1055  12.798  16.856   7.286
    3AU       S 1056  11.478  16.924   6.985
    3AU     LIG 1057  11.443  16.496   6.921
    3AU     LIG 1058  11.348  16.080   6.745
    3AU     LIG 1059  11.470  15.647   6.609
    3AU       S 1060   9.808  16.971   6.882
    3AU     LIG 1061   9.523  16.975   6.545
    3AU     LIG 1062   9.194  16.778   6.296
    3AU     LIG 1063   8.879  16.423   6.364
    3AU       S 1064   9.454  17.096   7.659
    3AU     LIG 1065   9.045  17.027   7.750
    3AU     LIG 1066   8.682  17.005   7.506
    3AU     LIG 1067   8.618  16.690   7.158
    3AU       S 1068   9.818  16.984   8.353
    3AU     LIG 1069   9.625  16.746   8.029
    3AU     LIG 1070   9.367  16.421   8.040
    3AU     LIG 1071   9.403  16.096   8.301
    3AU       S 1072   9.448  17.401   7.797
    3AU     LIG 1073   9.074  17.567   7.931
    3AU     LIG 1074   8.704  17.350   7.923
    3AU     LIG 1075   8.424  17.018   8.088
    3AU       S 1076   9.998  18.633   7.860
    3AU     LIG 1077   9.583  18.733   7.956
    3AU     LIG 1078   9.297  18.674   8.288
    3AU     LIG 1079   9.150  18.844   8.676
    3AU       S 1080  10.692  18.827   7.887
    3AU     LIG 1081  10.770  19.174   8.144
    3AU     LIG 1082  10.620  19.553   8.316
    3AU     LIG 1083  10.242  19.796   8.391
    3AU       S 1084  10.840  18.919   7.706
    3AU     LIG 1085  10.387  19.150   7.686
    3AU     LIG 1086  10.271  19.497   7.938
    3AU     LIG 1087  10.304  19.933   7.905
    3AU       S 1088  10.611  18.756   7.052
    3AU     LIG 1089  10.659  19.128   7.259
    3AU     LIG 1090  10.797  19.536   7.169
    3AU     LIG 1091  10.803  19.942   6.984
    3AU       S 1092  11.201  18.332   8.331
    3AU     LIG 1093  11.435  18.712   8.459
    3AU     LIG 1094  11.594  18.887   8.837
    3AU     LIG 1095  11.719  18.659   9.213
    3AU       S 1096  10.971  18.712   7.539
    3AU     LIG 1097  11.109  19.230   7.467
    3AU     LIG 1098  10.789  19.494   7.715
    3AU     LIG 1099  10.801  19.901   7.974
    3AU       S 1100  10.519  16.514   8.108
    3AU     LIG 1101  10.862  16.172   8.128
    3AU     LIG 1102  11.051  15.839   8.340
    3AU     LIG 1103  10.764  15.582   8.591
    3AU       S 1104  11.066  16.833   8.008
    3AU     LIG 1105  11.180  16.492   7.805
    3AU     LIG 1106  11.331  16.106   7.796
    3AU     LIG 1107  11.489  15.817   8.079
    3AU       S 1108  10.329  16.438   7.951
    3AU     LIG 1109  10.375  16.043   7.827
    3AU     LIG 1110  10.140  15.703   7.994
    3AU     LIG 1111  10.276  15.560   8.398
    3AU       S 1112  10.079  17.106   8.476
    3AU     LIG 1113   9.997  16.724   8.720
    3AU     LIG 1114   9.632  16.471   8.571
    3AU     LIG 1115   9.351  16.179   8.803
    3AU       S 1116  10.747  16.503   7.285
    3AU     LIG 1117  10.444  16.146   7.285
    3AU     LIG 1118  10.437  15.792   7.015
    3AU     LIG 1119  10.544  15.380   6.947
    3AU       S 1120  10.676  16.532   7.857
    3AU     LIG 1121  10.828  16.169   7.624
    3AU     LIG 1122  10.922  15.798   7.764
    3AU     LIG 1123  10.668  15.657   8.080
    3AU       S 1124  10.463  18.681   6.787
    3AU     LIG 1125  10.622  19.141   6.726
    3AU     LIG 1126  10.760  19.576   6.631
    3AU     LIG 1127  10.807  20.004   6.463
    3AU       S 1128  11.278  18.473   7.084
    3AU     LIG 1129  11.522  18.846   6.894
    3AU     LIG 1130  11.793  18.879   6.505
    3AU     LIG 1131  12.137  19.100   6.275
    3AU       S 1132  10.272  18.668   7.060
    3AU     LIG 1133  10.211  19.104   7.025
    3AU     LIG 1134  10.322  19.549   6.909
    3AU     LIG 1135  10.354  20.006   6.748
    3AU       S 1136   9.841  18.063   6.621
    3AU     LIG 1137   9.643  18.377   6.386
    3AU     LIG 1138   9.736  18.766   6.258
    3AU     LIG 1139   9.711  19.065   5.961
    3AU       S 1140   9.878  16.801   7.136
    3AU     LIG 1141   9.464  16.706   7.212
    3AU     LIG 1142   9.216  16.544   6.873
    3AU     LIG 1143   9.373  16.364   6.503
    3AU       S 1144  10.772  16.538   7.136
    3AU     LIG 1145  10.946  16.384   6.792
    3AU     LIG 1146  10.892  15.985   6.544
    3AU     LIG 1147  10.653  15.574   6.472
    3AU       S 1148  11.003  16.637   7.376
    3AU     LIG 1149  11.193  16.241   7.285
    3AU     LIG 1150  10.927  15.953   7.098
    3AU     LIG 1151  11.008  15.583   6.842
    3AU       S 1152  11.365  17.022   6.749
    3AU     LIG 1153  11.100  16.800   6.502
    3AU     LIG 1154  11.176  16.385   6.320
    3AU     LIG 1155  11.404  15.990   6.217
    4AU     AUC 1156  44.862  10.917   7.527
    4AU     AUC 1157   0.114  10.921   7.360
    4AU     AUC 1158   0.104  10.921   7.695
    4AU     AUC 1159  44.596  10.911   7.374
    4AU     AUC 1160  44.617  10.958   7.695
    4AU     AUC 1161  44.695  11.174   7.489
    4AU     AUC 1162   0.030  11.179   7.488
    4AU     AUC 1163  44.697  10.664   7.551
    4AU     AUC 1164   0.028  10.651   7.550
    4AU     AUC 1165  44.865  10.770   7.798
    4AU     AUC 1166  44.864  11.112   7.761
    4AU     AUC 1167  44.859  10.731   7.285
    4AU     AUC 1168  44.869  11.036   7.257
    4AU     AUC 1169   0.430  10.924   7.206
    4AU     AUC 1170   0.430  10.913   7.544
    4AU     AUC 1171   0.397  10.913   7.900
    4AU     AUC 1172  44.296  10.864   7.237
    4AU     AUC 1173  44.288  10.946   7.556
    4AU     AUC 1174  44.321  11.008   7.872
    4AU     AUC 1175  44.529  11.477   7.424
    4AU     AUC 1176  44.886  11.470   7.409
    4AU     AUC 1177   0.219  11.463   7.447
    4AU     AUC 1178  44.509  10.367   7.579
    4AU     AUC 1179  44.856  10.352   7.553
    4AU     AUC 1180   0.207  10.357   7.560
    4AU     AUC 1181  44.841  10.615   8.110
    4AU     AUC 1182  44.853  10.964   8.091
    4AU     AUC 1183  44.893  11.323   8.044
    4AU     AUC 1184  44.898  10.537   7.007
    4AU     AUC 1185  44.838  10.863   6.954
    4AU     AUC 1186  44.822  11.178   6.938
    4AU     AUC 1187   0.110  10.728   8.013
    4AU     AUC 1188   0.138  11.084   7.993
    4AU     AUC 1189   0.167  10.753   7.068
    4AU     AUC 1190   0.124  11.057   7.075
    4AU     AUC 1191  44.575  10.843   8.008
    4AU     AUC 1192  44.605  11.191   7.948
    4AU     AUC 1193  44.584  10.679   7.111
    4AU     AUC 1194  44.533  10.997   7.069
    4AU     AUC 1195   0.352  11.195   7.346
    4AU     AUC 1196   0.291  11.171   7.687
    4AU     AUC 1197  44.393  11.177   7.362
    4AU     AUC 1198  44.443  11.273   7.682
    4AU     AUC 1199   0.334  10.649   7.404
    4AU     AUC 1200   0.281  10.608   7.743
    4AU     AUC 1201  44.405  10.597   7.401
    4AU     AUC 1202  44.430  10.692   7.731
    4AU     AUC 1203  44.753  11.428   7.738
    4AU     AUC 1204   0.059  11.391   7.761
    4AU     AUC 1205  44.681  10.493   7.837
    4AU     AUC 1206  44.988  10.441   7.824
    4AU     AUC 1207  44.660  11.324   7.174
    4AU     AUC 1208   0.026  11.357   7.191
    4AU     AUC 1209  44.721  10.435   7.279
    4AU     AUC 1210   0.086  10.489   7.279
    4AU    AUSL 1211   0.373  10.854   8.301
    4AU    AUSL 1212   0.134  10.455   8.233
    4AU     AUL 1213   0.427  10.511   8.413
    4AU    AUSL 1214  44.958  10.784   8.451
    4AU    AUSL 1215  44.707  11.178   8.434
    4AU     AUL 1216  44.936  11.085   8.718
    4AU    AUSL 1217   0.045  11.136   8.178
    4AU    AUSL 1218   0.493  11.232   8.114
    4AU     AUL 1219   0.317  11.157   8.442
    4AU    AUSL 1220   0.293  10.942   6.852
    4AU    AUSL 1221   0.126  11.326   6.970
    4AU     AUL 1222   0.354  11.262   6.682
    4AU    AUSL 1223   0.112  10.631   6.604
    4AU    AUSL 1224   0.620  10.700   6.984
    4AU     AUL 1225   0.482  10.787   6.652
    4AU    AUSL 1226  44.916  11.072   6.677
    4AU    AUSL 1227  44.743  10.680   6.822
    4AU     AUL 1228  44.841  10.733   6.484
    4AU    AUSL 1229  44.320  11.128   8.216
    4AU    AUSL 1230  44.666  11.438   8.088
    4AU     AUL 1231  44.494  11.409   8.400
    4AU    AUSL 1232  44.628  10.821   8.183
    4AU    AUSL 1233  44.199  10.698   8.141
    4AU     AUL 1234  44.167  10.901   8.308
    4AU    AUSL 1235  44.302  10.652   6.811
    4AU    AUSL 1236  44.561  10.329   6.986
    4AU     AUL 1237  44.593  10.371   6.671
    4AU    AUSL 1238  44.485  11.018   6.658
    4AU    AUSL 1239  44.211  11.020   7.038
    4AU     AUL 1240  44.085  10.867   6.791
    4AU    AUSL 1241   0.619  11.421   7.502
    4AU    AUSL 1242   0.542  11.186   7.106
    4AU     AUL 1243   0.858  11.448   7.213
    4AU    AUSL 1244   0.824  11.024   7.393
    4AU    AUSL 1245   0.788  10.710   7.759
    4AU     AUL 1246   1.082  10.779   7.532
    4AU    AUSL 1247   0.540  11.058   7.733
    4AU    AUSL 1248   0.285  11.441   7.777
    4AU     AUL 1249   0.612  11.457   7.826
    4AU    AUSL 1250  44.279  11.555   7.468
    4AU    AUSL 1251  44.319  11.326   7.838
    4AU     AUL 1252  44.005  11.567   7.679
    4AU    AUSL 1253  44.094  11.155   7.427
    4AU    AUSL 1254  44.222  11.453   7.057
    4AU     AUL 1255  43.993  11.378   7.216
    4AU    AUSL 1256  43.949  11.127   7.863
    4AU    AUSL 1257  43.932  10.762   7.375
    4AU     AUL 1258  43.776  11.100   7.550
    4AU    AUSL 1259   0.559  10.359   7.617
    4AU    AUSL 1260   0.392  10.646   7.928
    4AU     AUL 1261   0.688  10.535   8.004
    4AU    AUSL 1262   0.517  10.729   7.395
    4AU    AUSL 1263   0.517  10.312   7.187
    4AU     AUL 1264   0.764  10.537   7.266
    4AU    AUSL 1265  44.109  10.397   7.597
    4AU    AUSL 1266  44.297  10.592   7.230
    4AU     AUL 1267  43.942  10.489   7.245
    4AU    AUSL 1268  44.193  10.808   7.728
    4AU    AUSL 1269  44.435  10.446   7.876
    4AU     AUL 1270  44.113  10.435   7.932
    4AU    AUSL 1271  44.925  11.733   7.897
    4AU    AUSL 1272  44.474  11.737   7.814
    4AU     AUL 1273  44.702  11.782   8.157
    4AU    AUSL 1274  44.754  11.619   7.516
    4AU    AUSL 1275  44.993  11.731   7.163
    4AU     AUL 1276  44.745  11.966   7.454
    4AU    AUSL 1277   0.191  11.783   7.544
    4AU    AUSL 1278   0.171  11.541   8.190
    4AU     AUL 1279   0.277  11.788   7.914
    4AU    AUSL 1280  44.819  10.267   8.000
    4AU    AUSL 1281   0.243  10.234   7.874
    4AU     AUL 1282   0.017  10.158   8.242
    4AU    AUSL 1283  44.512  10.052   7.737
    4AU    AUSL 1284  44.568  10.425   8.310
    4AU     AUL 1285  44.499  10.138   8.083
    4AU    AUSL 1286  44.952   9.977   7.695
    4AU    AUSL 1287  44.733  10.220   7.395
    4AU     AUL 1288  44.644   9.850   7.513
    4AU    AUSL 1289  44.825  11.556   6.773
    4AU    AUSL 1290   0.396  11.596   7.180
    4AU     AUL 1291   0.143  11.663   6.849
    4AU    AUSL 1292  44.569  11.687   7.130
    4AU    AUSL 1293  44.602  11.258   6.984
    4AU     AUL 1294  44.497  11.525   6.777
    4AU    AUSL 1295  44.955  10.157   7.010
    4AU    AUSL 1296  44.322  10.152   7.313
    4AU     AUL 1297  44.626  10.011   7.072
    4AU    AUSL 1298   0.166  10.213   7.404
    4AU    AUSL 1299   0.179  10.525   7.012
    4AU     AUL 1300   0.272  10.161   7.012
    4AU       S 1301   0.473  10.071   8.262
    4AU     LIG 1302   0.324   9.654   8.320
    4AU     LIG 1303   0.516   9.293   8.549
    4AU     LIG 1304   0.947   9.240   8.750
    4AU       S 1305   0.328  10.799   8.760
    4AU     LIG 1306   0.621  11.106   8.905
    4AU     LIG 1307   0.790  11.018   9.330
    4AU     LIG 1308   0.815  10.768   9.732
    4AU       S 1309  44.982  10.614   8.655
    4AU     LIG 1310  44.969  10.669   9.105
    4AU     LIG 1311   0.320  10.643   9.436
    4AU     LIG 1312   0.481  10.368   9.792
    4AU       S 1313  44.495  10.981   8.650
    4AU     LIG 1314  44.536  10.968   9.107
    4AU     LIG 1315  44.187  10.838   9.380
    4AU     LIG 1316  43.907  10.970   9.739
    4AU       S 1317  44.942  11.546   8.579
    4AU     LIG 1318   0.224  11.760   8.831
    4AU     LIG 1319   0.601  11.619   9.020
    4AU     LIG 1320   1.003  11.448   9.128
    4AU       S 1321   0.673  11.420   8.289
    4AU     LIG 1322   0.896  11.488   8.619
    4AU     LIG 1323   1.141  11.806   8.774
    4AU     LIG 1324   1.330  12.190   8.914
    4AU       S 1325   0.225  11.028   6.312
    4AU     LIG 1326   0.445  11.137   5.908
    4AU     LIG 1327   0.754  10.899   5.660
    4AU     LIG 1328   0.664  10.499   5.431
    4AU       S 1329   0.591  11.658   6.760
    4AU     LIG 1330   0.607  12.006   6.484
    4AU     LIG 1331   0.829  12.086   6.081
    4AU     LIG 1332   1.203  12.286   5.892
    4AU       S 1333   0.797  10.453   6.790
    4AU     LIG 1334   0.938  10.127   6.475
    4AU     LIG 1335   0.835   9.690   6.394
    4AU     LIG 1336   0.941   9.252   6.492
    4AU       S 1337   0.222  10.840   6.257
    4AU     LIG 1338   0.357  10.620   5.890
    4AU     LIG 1339   0.143  10.439   5.534
    4AU     LIG 1340   0.210  10.464   5.084
    4AU       S 1341  44.409  10.664   6.341
    4AU     LIG 1342  44.512  10.751   5.921
    4AU     LIG 1343  44.632  10.605   5.509
    4AU     LIG 1344  44.481  10.708   5.093
    4AU       S 1345  44.967  11.179   6.428
    4AU     LIG 1346  44.796  11.140   6.053
    4AU     LIG 1347  44.989  10.931   5.712
    4AU     LIG 1348   0.322  10.898   5.394
    4AU       S 1349  44.285  11.112   8.698
    4AU     LIG 1350  44.001  10.800   8.776
    4AU     LIG 1351  43.874  10.519   9.083
    4AU     LIG 1352  43.759  10.536   9.519
    4AU       S 1353  44.222  11.729   8.194
    4AU     LIG 1354  43.845  11.919   8.342
    4AU     LIG 1355  43.676  11.920   8.759
    4AU     LIG 1356  43.405  12.162   9.021
    4AU       S 1357  44.079  10.455   8.415
    4AU     LIG 1358  43.664  10.391   8.215
    4AU     LIG 1359  43.449   9.977   8.293
    4AU     LIG 1360  43.283   9.769   8.698
    4AU       S 1361  44.502  10.790   8.612
    4AU     LIG 1362  44.391  10.507   8.966
    4AU     LIG 1363  44.253  10.328   9.384
    4AU     LIG 1364  44.217  10.516   9.816
    4AU       S 1365  44.224  10.578   6.461
    4AU     LIG 1366  44.030  10.338   6.142
    4AU     LIG 1367  44.138  10.461   5.705
    4AU     LIG 1368  44.190  10.881   5.517
    4AU       S 1369  44.226  10.131   6.841
    4AU     LIG 1370  44.031   9.863   6.554
    4AU     LIG 1371  43.963   9.822   6.109
    4AU     LIG 1372  43.584   9.934   5.892
    4AU       S 1373  43.911  11.285   6.728
    4AU     LIG 1374  43.639  11.632   6.700
    4AU     LIG 1375  43.675  12.022   6.483
    4AU     LIG 1376  43.687  12.092   6.015
    4AU       S 1377  44.413  10.944   6.435
    4AU     LIG 1378  44.239  11.166   6.131
    4AU     LIG 1379  44.404  11.291   5.736
    4AU     LIG 1380  44.638  11.118   5.387
    4AU       S 1381   0.724  11.511   6.788
    4AU     LIG 1382   0.933  11.631   6.372
    4AU     LIG 1383   1.275  11.815   6.119
    4AU     LIG 1384   1.648  12.077   6.179
    4AU       S 1385   1.030  11.452   7.655
    4AU     LIG 1386   1.110  11.856   7.454
    4AU     LIG 1387   1.531  12.025   7.511
    4AU     LIG 1388   1.845  11.748   7.706
    4AU       S 1389   1.055  11.234   7.600
    4AU     LIG 1390   1.484  11.453   7.465
    4AU     LIG 1391   1.932  11.356   7.394
    4AU     LIG 1392   2.334  11.220   7.234
    4AU       S 1393   1.031  10.353   7.754
    4AU     LIG 1394   1.147  10.012   7.997
    4AU     LIG 1395   1.560   9.888   7.961
    4AU     LIG 1396   1.667  10.199   7.598
    4AU       S 1397   0.628  11.698   8.212
    4AU     LIG 1398   1.066  11.747   8.167
    4AU     LIG 1399   1.216  12.127   8.376
    4AU     LIG 1400   0.946  12.395   8.634
    4AU       S 1401   0.946  11.145   7.867
    4AU     LIG 1402   1.385  11.340   7.980
    4AU     LIG 1403   1.835  11.268   7.897
    4AU     LIG 1404   2.267  11.431   7.831
    4AU       S 1405  44.131  11.534   8.117
    4AU     LIG 1406  43.879  11.422   8.461
    4AU     LIG 1407  43.424  11.589   8.460
    4AU     LIG 1408  43.150  11.801   8.768
    4AU       S 1409  44.215  11.878   7.381
    4AU     LIG 1410  43.969  12.230   7.263
    4AU     LIG 1411  43.645  12.185   6.968
    4AU     LIG 1412  43.253  11.919   6.864
    4AU       S 1413  43.703  11.034   7.083
    4AU     LIG 1414  43.419  10.734   6.915
    4AU     LIG 1415  43.035  10.964   6.977
    4AU     LIG 1416  43.071  11.408   7.150
    4AU       S 1417  44.088  11.716   6.890
    4AU     LIG 1418  44.157  12.155   6.798
    4AU     LIG 1419  43.906  12.482   6.612
    4AU     LIG 1420  43.590  12.503   6.291
    4AU       S 1421  43.699  10.646   7.627
    4AU     LIG 1422  43.313  10.775   7.418
    4AU     LIG 1423  42.908  10.558   7.310
    4AU     LIG 1424  42.582  10.462   6.979
    4AU       S 1425  43.834  11.137   8.041
    4AU     LIG 1426  43.505  11.090   8.339
    4AU     LIG 1427  43.130  11.257   8.136
    4AU     LIG 1428  43.175  11.292   7.660
    4AU       S 1429   0.728  10.216   7.624
    4AU     LIG 1430   0.802   9.812   7.612
    4AU     LIG 1431   1.178   9.605   7.675
    4AU     LIG 1432   1.564   9.719   7.490
    4AU       S 1433   0.631  10.093   8.090
    4AU     LIG 1434   0.820   9.653   8.112
    4AU     LIG 1435   1.255   9.501   8.202
    4AU     LIG 1436   1.444   9.277   8.582
    4AU       S 1437   1.011  10.291   7.552
    4AU     LIG 1438   1.148   9.996   7.264
    4AU     LIG 1439   1.572  10.000   7.072
    4AU     LIG 1440   2.010  10.132   7.156
    4AU       S 1441   0.736  10.195   6.933
    4AU     LIG 1442   0.753   9.747   6.926
    4AU     LIG 1443   0.512   9.388   6.745
    4AU     LIG 1444   0.472   9.036   6.413
    4AU       S 1445  44.094  10.241   6.897
    4AU     LIG 1446  43.767  10.340   6.650
    4AU     LIG 1447  43.463  10.153   6.356
    4AU     LIG 1448  43.096   9.985   6.082
    4AU       S 1449  43.728  10.413   7.673
    4AU     LIG 1450  43.333  10.322   7.807
    4AU     LIG 1451  43.083  10.079   7.534
    4AU     LIG 1452  42.770  10.066   7.234
    4AU       S 1453  44.121  10.221   8.335
    4AU     LIG 1454  43.900   9.992   7.971
    4AU     LIG 1455  43.655   9.592   7.968
    4AU     LIG 1456  43.537   9.450   8.384
    4AU       S 1457  43.754  10.693   7.817
    4AU     LIG 1458  43.362  10.860   7.913
    4AU     LIG 1459  42.965  10.721   7.812
    4AU     LIG 1460  42.702  10.479   8.077
    4AU       S 1461  44.342  11.908   7.863
    4AU     LIG 1462  43.931  12.100   7.788
    4AU     LIG 1463  43.501  12.080   7.991
    4AU     LIG 1464  43.335  12.132   8.428
    4AU       S 1465  44.923  12.087   7.864
    4AU     LIG 1466   0.119  12.111   8.264
    4AU     LIG 1467   0.036  12.548   8.397
    4AU     LIG 1468  44.649  12.818   8.454
    4AU       S 1469   0.062  12.240   7.735
    4AU     LIG 1470  44.729  12.566   7.672
    4AU     LIG 1471  44.549  12.910   7.950
    4AU     LIG 1472  44.529  13.288   8.246
    4AU       S 1473  44.905  12.031   7.014
    4AU     LIG 1474  44.965  12.409   7.236
    4AU     LIG 1475   0.030  12.836   7.322
    4AU     LIG 1476   0.282  13.152   7.112
    4AU       S 1477   0.397  11.642   8.369
    4AU     LIG 1478   0.653  11.962   8.628
    4AU     LIG 1479   0.817  12.087   9.044
    4AU     LIG 1480   1.143  11.916   9.324
    4AU       S 1481   0.213  12.057   7.521
    4AU     LIG 1482   0.393  12.526   7.532
    4AU     LIG 1483   0.171  12.744   7.894
    4AU     LIG 1484   0.017  13.074   8.203
    4AU       S 1485  44.810   9.766   8.101
    4AU     LIG 1486   0.009   9.311   8.101
    4AU     LIG 1487   0.105   8.954   8.419
    4AU     LIG 1488  44.865   8.573   8.632
    4AU       S 1489   0.387  10.048   7.949
    4AU     LIG 1490   0.405   9.604   7.824
    4AU     LIG 1491   0.530   9.232   8.043
    4AU     LIG 1492   0.903   9.129   8.252
    4AU       S 1493  44.613   9.704   7.956
    4AU     LIG 1494  44.547   9.332   7.780
    4AU     LIG 1495  44.787   8.946   7.779
    4AU     LIG 1496  44.783   8.677   8.127
    4AU       S 1497  44.348  10.352   8.488
    4AU     LIG 1498  44.078  10.116   8.818
    4AU     LIG 1499  43.798   9.735   8.753
    4AU     LIG 1500  43.702   9.275   8.857
    4AU       S 1501   0.032   9.777   7.279
    4AU     LIG 1502  44.706   9.420   7.187
    4AU     LIG 1503  44.772   8.987   7.006
    4AU     LIG 1504   0.006   8.601   7.097
    4AU       S 1505  44.951   9.798   7.879
    4AU     LIG 1506  44.998   9.431   7.605
    4AU     LIG 1507   0.261   9.117   7.634
    4AU     LIG 1508   0.259   8.799   7.963
    4AU       S 1509  44.754  11.931   6.735
    4AU     LIG 1510  44.695  12.405   6.754
    4AU     LIG 1511   0.001  12.765   6.809
    4AU     LIG 1512   0.186  13.181   6.619
    4AU       S 1513   0.549  11.773   7.065
    4AU     LIG 1514   0.925  12.002   6.921
    4AU     LIG 1515   1.132  12.128   6.516
    4AU     LIG 1516   1.379  12.471   6.326
    4AU       S 1517  44.569  11.941   7.005
    4AU     LIG 1518  44.469  12.320   7.204
    4AU     LIG 1519  44.562  12.768   7.117
    4AU     LIG 1520  44.796  13.190   6.992
    4AU       S 1521  44.119  11.327   6.625
    4AU     LIG 1522  44.062  11.675   6.373
    4AU     LIG 1523  44.149  12.104   6.290
    4AU     LIG 1524  44.048  12.474   6.085
    4AU       S 1525  44.158  10.071   7.163
    4AU     LIG 1526  43.719  10.028   7.170
    4AU     LIG 1527  43.555   9.854   6.799
    4AU     LIG 1528  43.580   9.664   6.393
    4AU       S 1529   0.047   9.785   7.139
    4AU     LIG 1530   0.025   9.568   6.774
    4AU     LIG 1531   0.008   9.174   6.572
    4AU     LIG 1532   0.030   8.695   6.540
    4AU       S 1533   0.312   9.901   7.404
    4AU     LIG 1534   0.459   9.531   7.293
    4AU     LIG 1535   0.203   9.239   7.139
    4AU     LIG 1536   0.319   8.922   6.884
    4AU       S 1537   0.523  10.326   6.675
    4AU     LIG 1538   0.388   9.893   6.595
    4AU     LIG 1539   0.357   9.533   6.288
    4AU     LIG 1540   0.683   9.300   6.021
    5AU     AUC 1541  27.014   5.023   7.513
    5AU     AUC 1542  27.265   5.022   7.347
    5AU     AUC 1543  27.257   5.019   7.681
    5AU     AUC 1544  26.747   5.020   7.359
    5AU     AUC 1545  26.772   5.068   7.681
    5AU     AUC 1546  26.852   5.282   7.477
    5AU     AUC 1547  27.188   5.281   7.477
    5AU     AUC 1548  26.844   4.773   7.535
    5AU     AUC 1549  27.173   4.752   7.534
    5AU     AUC 1550  27.015   4.875   7.784
    5AU     AUC 1551  27.021   5.217   7.748
    5AU     AUC 1552  27.007   4.837   7.269
    5AU     AUC 1553  27.024   5.143   7.244
    5AU     AUC 1554  27.582   5.019   7.192
    5AU     AUC 1555  27.581   5.001   7.527
    5AU     AUC 1556  27.550   5.003   7.882
    5AU     AUC 1557  26.445   4.979   7.220
    5AU     AUC 1558  26.441   5.059   7.541
    5AU     AUC 1559  26.476   5.121   7.861
    5AU     AUC 1560  26.690   5.587   7.415
    5AU     AUC 1561  27.048   5.576   7.401
    5AU     AUC 1562  27.382   5.561   7.440
    5AU     AUC 1563  26.649   4.480   7.561
    5AU     AUC 1564  26.995   4.458   7.538
    5AU     AUC 1565  27.344   4.452   7.543
    5AU     AUC 1566  26.987   4.723   8.096
    5AU     AUC 1567  27.010   5.069   8.079
    5AU     AUC 1568  27.057   5.427   8.034
    5AU     AUC 1569  27.042   4.643   6.989
    5AU     AUC 1570  26.988   4.973   6.941
    5AU     AUC 1571  26.981   5.290   6.928
    5AU     AUC 1572  27.260   4.828   7.998
    5AU     AUC 1573  27.297   5.182   7.979
    5AU     AUC 1574  27.314   4.853   7.053
    5AU     AUC 1575  27.281   5.163   7.065
    5AU     AUC 1576  26.728   4.954   7.995
    5AU     AUC 1577  26.764   5.300   7.937
    5AU     AUC 1578  26.731   4.792   7.094
    5AU     AUC 1579  26.687   5.111   7.054
    5AU     AUC 1580  27.512   5.288   7.335
    5AU     AUC 1581  27.452   5.266   7.676
    5AU     AUC 1582  26.549   5.290   7.349
    5AU     AUC 1583  26.600   5.382   7.671
    5AU     AUC 1584  27.474   4.743   7.383
    5AU     AUC 1585  27.426   4.700   7.727
    5AU     AUC 1586  26.551   4.709   7.382
    5AU     AUC 1587  26.582   4.806   7.715
    5AU     AUC 1588  26.913   5.534   7.729
    5AU     AUC 1589  27.222   5.493   7.751
    5AU     AUC 1590  26.824   4.603   7.822
    5AU     AUC 1591  27.130   4.544   7.810
    5AU     AUC 1592  26.820   5.436   7.164
    5AU     AUC 1593  27.187   5.463   7.182
    5AU     AUC 1594  26.860   4.544   7.261
    5AU     AUC 1595  27.227   4.587   7.259
    5AU    AUSL 1596  27.529   4.948   8.282
    5AU    AUSL 1597  27.274   4.558   8.217
    5AU     AUL 1598  27.580   4.602   8.385
    5AU    AUSL 1599  27.114   4.890   8.440
    5AU    AUSL 1600  26.872   5.286   8.424
    5AU     AUL 1601  27.105   5.189   8.706
    5AU    AUSL 1602  27.206   5.238   8.165
    5AU    AUSL 1603  27.656   5.325   8.097
    5AU     AUL 1604  27.484   5.252   8.426
    5AU    AUSL 1605  27.442   5.043   6.856
    5AU    AUSL 1606  27.291   5.435   6.962
    5AU     AUL 1607  27.502   5.372   6.668
    5AU    AUSL 1608  27.265   4.750   6.587
    5AU    AUSL 1609  27.766   4.789   6.965
    5AU     AUL 1610  27.635   4.905   6.641
    5AU    AUSL 1611  27.073   5.185   6.671
    5AU    AUSL 1612  26.895   4.791   6.803
    5AU     AUL 1613  27.002   4.845   6.474
    5AU    AUSL 1614  26.481   5.245   8.211
    5AU    AUSL 1615  26.827   5.541   8.075
    5AU     AUL 1616  26.661   5.521   8.391
    5AU    AUSL 1617  26.784   4.931   8.173
    5AU    AUSL 1618  26.348   4.824   8.125
    5AU     AUL 1619  26.335   5.013   8.302
    5AU    AUSL 1620  26.455   4.774   6.791
    5AU    AUSL 1621  26.702   4.445   6.967
    5AU     AUL 1622  26.738   4.489   6.648
    5AU    AUSL 1623  26.643   5.138   6.643
    5AU    AUSL 1624  26.363   5.140   7.022
    5AU     AUL 1625  26.243   4.983   6.769
    5AU    AUSL 1626  27.788   5.499   7.495
    5AU    AUSL 1627  27.709   5.288   7.088
    5AU     AUL 1628  28.037   5.546   7.251
    5AU    AUSL 1629  27.976   5.098   7.373
    5AU    AUSL 1630  27.937   4.782   7.727
    5AU     AUL 1631  28.239   4.827   7.494
    5AU    AUSL 1632  27.698   5.138   7.721
    5AU    AUSL 1633  27.450   5.537   7.762
    5AU     AUL 1634  27.786   5.548   7.802
    5AU    AUSL 1635  26.441   5.666   7.459
    5AU    AUSL 1636  26.477   5.434   7.827
    5AU     AUL 1637  26.168   5.674   7.673
    5AU    AUSL 1638  26.249   5.270   7.413
    5AU    AUSL 1639  26.382   5.573   7.047
    5AU     AUL 1640  26.151   5.496   7.203
    5AU    AUSL 1641  26.104   5.239   7.854
    5AU    AUSL 1642  26.077   4.880   7.366
    5AU     AUL 1643  25.933   5.218   7.539
    5AU    AUSL 1644  27.689   4.443   7.595
    5AU    AUSL 1645  27.543   4.735   7.911
    5AU     AUL 1646  27.849   4.633   7.971
    5AU    AUSL 1647  27.658   4.815   7.374
    5AU    AUSL 1648  27.651   4.401   7.164
    5AU     AUL 1649  27.896   4.612   7.243
    5AU    AUSL 1650  26.256   4.513   7.582
    5AU    AUSL 1651  26.437   4.709   7.210
    5AU     AUL 1652  26.079   4.604   7.246
    5AU    AUSL 1653  26.348   4.925   7.709
    5AU    AUSL 1654  26.578   4.561   7.862
    5AU     AUL 1655  26.254   4.575   7.923
    5AU    AUSL 1656  27.090   5.835   7.893
    5AU    AUSL 1657  26.636   5.844   7.807
    5AU     AUL 1658  26.863   5.889   8.147
    5AU    AUSL 1659  26.918   5.725   7.511
    5AU    AUSL 1660  27.160   5.837   7.160
    5AU     AUL 1661  26.909   6.073   7.454
    5AU    AUSL 1662  27.355   5.887   7.543
    5AU    AUSL 1663  27.344   5.639   8.177
    5AU     AUL 1664  27.455   5.880   7.909
    5AU    AUSL 1665  26.955   4.374   7.987
    5AU    AUSL 1666  27.379   4.329   7.864
    5AU     AUL 1667  27.137   4.270   8.239
    5AU    AUSL 1668  26.643   4.167   7.718
    5AU    AUSL 1669  26.703   4.538   8.295
    5AU     AUL 1670  26.627   4.250   8.062
    5AU    AUSL 1671  27.082   4.084   7.680
    5AU    AUSL 1672  26.867   4.329   7.378
    5AU     AUL 1673  26.782   3.966   7.490
    5AU    AUSL 1674  26.991   5.670   6.768
    5AU    AUSL 1675  27.560   5.692   7.188
    5AU     AUL 1676  27.323   5.778   6.848
    5AU    AUSL 1677  26.734   5.799   7.126
    5AU    AUSL 1678  26.760   5.373   6.973
    5AU     AUL 1679  26.659   5.643   6.770
    5AU    AUSL 1680  27.088   4.253   6.996
    5AU    AUSL 1681  26.456   4.267   7.289
    5AU     AUL 1682  26.748   4.126   7.049
    5AU    AUSL 1683  27.300   4.310   7.386
    5AU    AUSL 1684  27.316   4.619   6.990
    5AU     AUL 1685  27.408   4.247   6.997
    5AU       S 1686  27.579   4.142   8.268
    5AU     LIG 1687  27.737   3.705   8.293
    5AU     LIG 1688  27.892   3.291   8.318
    5AU     LIG 1689  28.207   3.151   8.585
    5AU       S 1690  27.490   4.888   8.739
    5AU     LIG 1691  27.819   5.169   8.868
    5AU     LIG 1692  27.979   5.066   9.301
    5AU     LIG 1693  27.896   4.777   9.684
    5AU       S 1694  27.146   4.716   8.649
    5AU     LIG 1695  27.139   4.742   9.114
    5AU     LIG 1696  27.403   4.616   9.509
    5AU     LIG 1697  27.653   4.287   9.753
    5AU       S 1698  26.661   5.095   8.645
    5AU     LIG 1699  26.705   5.055   9.095
    5AU     LIG 1700  26.348   4.961   9.346
    5AU     LIG 1701  26.064   5.028   9.711
    5AU       S 1702  27.115   5.650   8.566
    5AU     LIG 1703  27.377   5.957   8.753
    5AU     LIG 1704  27.783   5.818   8.908
    5AU     LIG 1705  28.094   5.554   9.112
    5AU       S 1706  27.847   5.503   8.267
    5AU     LIG 1707  28.100   5.577   8.591
    5AU     LIG 1708  28.307   5.924   8.784
    5AU     LIG 1709  28.528   6.294   8.980
    5AU       S 1710  27.371   5.149   6.296
    5AU     LIG 1711  27.684   5.202   5.943
    5AU     LIG 1712  27.837   4.803   5.796
    5AU     LIG 1713  27.782   4.346   5.769
    5AU       S 1714  27.786   5.715   6.786
    5AU     LIG 1715  27.697   5.998   6.464
    5AU     LIG 1716  27.929   6.093   6.070
    5AU     LIG 1717  28.345   6.254   5.940
    5AU       S 1718  27.926   4.551   6.761
    5AU     LIG 1719  27.956   4.492   6.292
    5AU     LIG 1720  27.976   4.071   6.160
    5AU     LIG 1721  27.871   3.753   5.859
    5AU       S 1722  27.376   4.970   6.250
    5AU     LIG 1723  27.393   4.607   6.035
    5AU     LIG 1724  27.300   4.507   5.598
    5AU     LIG 1725  27.319   4.703   5.171
    5AU       S 1726  26.579   4.795   6.314
    5AU     LIG 1727  26.848   4.677   5.923
    5AU     LIG 1728  26.876   4.777   5.448
    5AU     LIG 1729  26.540   4.812   5.120
    5AU       S 1730  27.108   5.297   6.412
    5AU     LIG 1731  26.927   5.160   6.034
    5AU     LIG 1732  27.238   5.009   5.727
    5AU     LIG 1733  27.595   5.078   5.426
    5AU       S 1734  26.452   5.230   8.692
    5AU     LIG 1735  26.137   4.970   8.746
    5AU     LIG 1736  26.118   4.640   8.990
    5AU     LIG 1737  25.988   4.589   9.417
    5AU       S 1738  26.381   5.826   8.183
    5AU     LIG 1739  26.190   6.019   8.530
    5AU     LIG 1740  25.963   5.934   8.915
    5AU     LIG 1741  25.532   6.021   9.084
    5AU       S 1742  26.202   4.577   8.405
    5AU     LIG 1743  25.790   4.477   8.176
    5AU     LIG 1744  25.469   4.145   8.237
    5AU     LIG 1745  25.414   3.812   8.559
    5AU       S 1746  26.666   4.901   8.606
    5AU     LIG 1747  26.654   4.587   8.913
    5AU     LIG 1748  26.492   4.462   9.313
    5AU     LIG 1749  26.393   4.608   9.746
    5AU       S 1750  26.382   4.708   6.424
    5AU     LIG 1751  26.321   4.501   6.009
    5AU     LIG 1752  26.398   4.763   5.643
    5AU     LIG 1753  26.146   5.022   5.371
    5AU       S 1754  26.358   4.278   6.819
    5AU     LIG 1755  26.245   3.946   6.572
    5AU     LIG 1756  26.044   3.968   6.166
    5AU     LIG 1757  25.631   4.036   5.975
    5AU       S 1758  26.067   5.400   6.716
    5AU     LIG 1759  25.783   5.726   6.647
    5AU     LIG 1760  25.767   6.168   6.520
    5AU     LIG 1761  25.714   6.347   6.111
    5AU       S 1762  26.582   5.073   6.425
    5AU     LIG 1763  26.261   5.185   6.173
    5AU     LIG 1764  26.349   5.306   5.755
    5AU     LIG 1765  26.656   5.234   5.426
    5AU       S 1766  27.907   5.524   6.817
    5AU     LIG 1767  28.091   5.672   6.384
    5AU     LIG 1768  28.474   5.808   6.151
    5AU     LIG 1769  28.822   6.028   5.905
    5AU       S 1770  28.209   5.424   7.683
    5AU     LIG 1771  28.368   5.822   7.651
    5AU     LIG 1772  28.779   6.041   7.586
    5AU     LIG 1773  29.244   6.006   7.631
    5AU       S 1774  28.183   5.260   7.618
    5AU     LIG 1775  28.551   5.433   7.332
    5AU     LIG 1776  28.978   5.600   7.398
    5AU     LIG 1777  29.343   5.676   7.119
    5AU       S 1778  28.149   4.398   7.709
    5AU     LIG 1779  28.422   4.321   7.976
    5AU     LIG 1780  28.824   4.411   7.867
    5AU     LIG 1781  29.233   4.468   7.997
    5AU       S 1782  27.815   5.777   8.195
    5AU     LIG 1783  28.213   5.984   8.266
    5AU     LIG 1784  28.317   6.373   8.504
    5AU     LIG 1785  28.259   6.703   8.819
    5AU       S 1786  28.077   5.194   7.887
    5AU     LIG 1787  28.353   5.499   8.136
    5AU     LIG 1788  28.742   5.684   7.977
    5AU     LIG 1789  29.151   5.538   7.879
    5AU       S 1790  26.276   5.647   8.118
    5AU     LIG 1791  26.022   5.535   8.479
    5AU     LIG 1792  25.597   5.695   8.645
    5AU     LIG 1793  25.211   5.994   8.660
    5AU       S 1794  26.365   5.982   7.367
    5AU     LIG 1795  26.120   6.383   7.428
    5AU     LIG 1796  25.765   6.455   7.179
    5AU     LIG 1797  25.668   6.059   7.009
    5AU       S 1798  25.850   5.156   7.072
    5AU     LIG 1799  25.376   5.133   7.017
    5AU     LIG 1800  24.989   5.370   7.135
    5AU     LIG 1801  24.936   5.847   7.158
    5AU       S 1802  26.239   5.827   6.863
    5AU     LIG 1803  26.236   6.275   6.823
    5AU     LIG 1804  25.942   6.618   6.718
    5AU     LIG 1805  25.562   6.684   6.473
    5AU       S 1806  25.859   4.767   7.649
    5AU     LIG 1807  25.546   4.841   7.400
    5AU     LIG 1808  25.122   4.767   7.327
    5AU     LIG 1809  24.935   4.497   7.022
    5AU       S 1810  25.993   5.245   8.037
    5AU     LIG 1811  25.601   5.353   8.231
    5AU     LIG 1812  25.269   5.692   8.233
    5AU     LIG 1813  25.089   6.131   8.150
    5AU       S 1814  27.843   4.275   7.607
    5AU     LIG 1815  27.988   3.867   7.490
    5AU     LIG 1816  28.354   3.703   7.689
    5AU     LIG 1817  28.713   3.904   7.896
    5AU       S 1818  27.749   4.220   8.119
    5AU     LIG 1819  28.052   3.967   7.986
    5AU     LIG 1820  28.280   3.656   8.203
    5AU     LIG 1821  28.314   3.642   8.652
    5AU       S 1822  28.133   4.343   7.511
    5AU     LIG 1823  28.505   4.116   7.450
    5AU     LIG 1824  28.940   4.174   7.416
    5AU     LIG 1825  29.277   3.948   7.217
    5AU       S 1826  27.867   4.299   6.882
    5AU     LIG 1827  27.803   3.884   7.014
    5AU     LIG 1828  27.867   3.442   6.848
    5AU     LIG 1829  27.950   3.200   6.437
    5AU       S 1830  26.219   4.385   6.872
    5AU     LIG 1831  25.928   4.353   6.518
    5AU     LIG 1832  25.478   4.251   6.419
    5AU     LIG 1833  25.255   3.855   6.323
    5AU       S 1834  25.871   4.523   7.668
    5AU     LIG 1835  25.506   4.342   7.741
    5AU     LIG 1836  25.200   4.232   7.456
    5AU     LIG 1837  25.042   3.794   7.419
    5AU       S 1838  26.255   4.348   8.319
    5AU     LIG 1839  26.112   4.125   7.932
    5AU     LIG 1840  25.787   3.866   7.949
    5AU     LIG 1841  25.817   3.603   8.330
    5AU       S 1842  25.882   4.815   7.809
    5AU     LIG 1843  25.416   4.818   7.903
    5AU     LIG 1844  25.012   4.561   7.812
    5AU     LIG 1845  24.881   4.110   7.869
    5AU       S 1846  26.502   6.010   7.851
    5AU     LIG 1847  26.057   6.098   7.901
    5AU     LIG 1848  25.767   5.960   8.234
    5AU     LIG 1849  25.663   6.222   8.608
    5AU       S 1850  27.105   6.179   7.859
    5AU     LIG 1851  27.276   6.245   8.263
    5AU     LIG 1852  27.207   6.684   8.443
    5AU     LIG 1853  27.042   7.142   8.472
    5AU       S 1854  27.263   6.351   7.732
    5AU     LIG 1855  26.960   6.633   7.961
    5AU     LIG 1856  26.787   7.024   8.035
    5AU     LIG 1857  26.975   7.435   8.020
    5AU       S 1858  27.076   6.138   7.020
    5AU     LIG 1859  27.073   6.525   7.256
    5AU     LIG 1860  27.186   6.947   7.124
    5AU     LIG 1861  27.231   7.221   6.763
    5AU       S 1862  27.584   5.735   8.358
    5AU     LIG 1863  27.790   6.155   8.516
    5AU     LIG 1864  27.978   6.290   8.911
    5AU     LIG 1865  28.155   6.064   9.275
    5AU       S 1866  27.381   6.145   7.513
    5AU     LIG 1867  27.551   6.581   7.395
    5AU     LIG 1868  27.300   6.869   7.625
    5AU     LIG 1869  27.299   7.016   8.045
    5AU       S 1870  26.934   3.881   8.085
    5AU     LIG 1871  27.264   3.547   8.166
    5AU     LIG 1872  27.403   3.122   8.302
    5AU     LIG 1873  27.264   2.703   8.485
    5AU       S 1874  27.517   4.180   7.965
    5AU     LIG 1875  27.604   3.792   7.816
    5AU     LIG 1876  27.911   3.452   7.820
    5AU     LIG 1877  28.274   3.196   7.997
    5AU       S 1878  26.740   3.812   7.928
    5AU     LIG 1879  26.727   3.410   7.714
    5AU     LIG 1880  26.859   2.969   7.777
    5AU     LIG 1881  26.844   2.662   8.118
    5AU       S 1882  26.483   4.480   8.460
    5AU     LIG 1883  26.287   4.205   8.791
    5AU     LIG 1884  25.884   3.952   8.761
    5AU     LIG 1885  25.588   3.692   9.033
    5AU       S 1886  27.183   3.865   7.279
    5AU     LIG 1887  26.980   3.435   7.236
    5AU     LIG 1888  26.910   3.093   6.974
    5AU     LIG 1889  26.866   2.631   6.940
    5AU       S 1890  27.089   3.916   7.859
    5AU     LIG 1891  27.201   3.548   7.667
    5AU     LIG 1892  27.340   3.151   7.785
    5AU     LIG 1893  27.358   2.720   7.986
    5AU       S 1894  26.928   6.042   6.740
    5AU     LIG 1895  26.851   6.509   6.767
    5AU     LIG 1896  27.163   6.771   6.572
    5AU     LIG 1897  27.399   7.084   6.297
    5AU       S 1898  27.731   5.843   7.066
    5AU     LIG 1899  27.992   6.161   6.867
    5AU     LIG 1900  28.238   6.168   6.480
    5AU     LIG 1901  28.672   6.262   6.349
    5AU       S 1902  26.732   6.055   7.005
    5AU     LIG 1903  26.584   6.415   7.212
    5AU     LIG 1904  26.671   6.853   7.166
    5AU     LIG 1905  26.756   7.034   6.769
    5AU       S 1906  26.279   5.448   6.615
    5AU     LIG 1907  26.177   5.733   6.312
    5AU     LIG 1908  26.211   6.173   6.269
    5AU     LIG 1909  26.135   6.613   6.232
    5AU       S 1910  26.275   4.189   7.114
    5AU     LIG 1911  25.872   4.022   6.961
    5AU     LIG 1912  25.731   3.842   6.572
    5AU     LIG 1913  25.702   3.572   6.206
    5AU       S 1914  27.152   3.891   7.130
    5AU     LIG 1915  27.387   3.659   6.833
    5AU     LIG 1916  27.418   3.292   6.571
    5AU     LIG 1917  27.205   2.898   6.616
    5AU       S 1918  27.437   3.985   7.386
    5AU     LIG 1919  27.577   3.548   7.329
    5AU     LIG 1920  27.440   3.193   7.073
    5AU     LIG 1921  27.706   2.942   6.801
    5AU       S 1922  27.635   4.438   6.656
    5AU     LIG 1923  27.616   4.029   6.544
    5AU     LIG 1924  27.727   3.657   6.384
    5AU     LIG 1925  27.593   3.347   6.078
    6AU     AUC 1926  23.227  20.501   7.531
    6AU     AUC 1927  23.481  20.504   7.367
    6AU     AUC 1928  23.468  20.502   7.702
    6AU     AUC 1929  22.962  20.495   7.374
    6AU     AUC 1930  22.981  20.543   7.696
    6AU     AUC 1931  23.063  20.758   7.492
    6AU     AUC 1932  23.398  20.762   7.496
    6AU     AUC 1933  23.060  20.249   7.552
    6AU     AUC 1934  23.392  20.234   7.554
    6AU     AUC 1935  23.227  20.354   7.801
    6AU     AUC 1936  23.228  20.695   7.766
    6AU     AUC 1937  23.227  20.316   7.288
    6AU     AUC 1938  23.239  20.621   7.262
    6AU     AUC 1939  23.799  20.506   7.217
    6AU     AUC 1940  23.795  20.492   7.555
    6AU     AUC 1941  23.757  20.491   7.910
    6AU     AUC 1942  22.663  20.450   7.231
    6AU     AUC 1943  22.653  20.530   7.552
    6AU     AUC 1944  22.683  20.594   7.869
    6AU     AUC 1945  22.898  21.062   7.427
    6AU     AUC 1946  23.255  21.055   7.417
    6AU     AUC 1947  23.589  21.045   7.460
    6AU     AUC 1948  22.870  19.955   7.575
    6AU     AUC 1949  23.218  19.938   7.555
    6AU     AUC 1950  23.568  19.938   7.567
    6AU     AUC 1951  23.197  20.200   8.112
    6AU     AUC 1952  23.213  20.547   8.096
    6AU     AUC 1953  23.257  20.904   8.051
    6AU     AUC 1954  23.270  20.122   7.009
    6AU     AUC 1955  23.211  20.451   6.958
    6AU     AUC 1956  23.198  20.766   6.944
    6AU     AUC 1957  23.468  20.309   8.019
    6AU     AUC 1958  23.500  20.664   8.001
    6AU     AUC 1959  23.538  20.337   7.075
    6AU     AUC 1960  23.496  20.643   7.084
    6AU     AUC 1961  22.935  20.429   8.009
    6AU     AUC 1962  22.968  20.777   7.950
    6AU     AUC 1963  22.954  20.268   7.109
    6AU     AUC 1964  22.904  20.586   7.068
    6AU     AUC 1965  23.722  20.776   7.358
    6AU     AUC 1966  23.657  20.753   7.698
    6AU     AUC 1967  22.761  20.762   7.361
    6AU     AUC 1968  22.808  20.857   7.682
    6AU     AUC 1969  23.697  20.231   7.411
    6AU     AUC 1970  23.642  20.188   7.752
    6AU     AUC 1971  22.769  20.183   7.397
    6AU     AUC 1972  22.793  20.277   7.730
    6AU     AUC 1973  23.118  21.011   7.744
    6AU     AUC 1974  23.425  20.973   7.770
    6AU     AUC 1975  23.040  20.079   7.837
    6AU     AUC 1976  23.347  20.024   7.829
    6AU     AUC 1977  23.032  20.911   7.179
    6AU     AUC 1978  23.398  20.942   7.200
    6AU     AUC 1979  23.085  20.022   7.278
    6AU     AUC 1980  23.453  20.071   7.282
    6AU    AUSL 1981  23.729  20.430   8.313
    6AU    AUSL 1982  23.484  20.037   8.238
    6AU     AUL 1983  23.782  20.084   8.415
    6AU    AUSL 1984  23.311  20.366   8.457
    6AU    AUSL 1985  23.067  20.761   8.439
    6AU     AUL 1986  23.294  20.668   8.723
    6AU    AUSL 1987  23.405  20.717   8.185
    6AU    AUSL 1988  23.856  20.807   8.129
    6AU     AUL 1989  23.677  20.735   8.450
    6AU    AUSL 1990  23.665  20.526   6.866
    6AU    AUSL 1991  23.502  20.912   6.981
    6AU     AUL 1992  23.729  20.849   6.692
    6AU    AUSL 1993  23.491  20.220   6.608
    6AU    AUSL 1994  23.991  20.283   6.997
    6AU     AUL 1995  23.855  20.379   6.658
    6AU    AUSL 1996  23.295  20.664   6.682
    6AU    AUSL 1997  23.121  20.272   6.822
    6AU     AUL 1998  23.232  20.326   6.493
    6AU    AUSL 1999  22.680  20.717   8.219
    6AU    AUSL 2000  23.026  21.018   8.092
    6AU     AUL 2001  22.852  20.988   8.408
    6AU    AUSL 2002  22.985  20.407   8.184
    6AU    AUSL 2003  22.556  20.291   8.139
    6AU     AUL 2004  22.517  20.501   8.302
    6AU    AUSL 2005  22.683  20.246   6.801
    6AU    AUSL 2006  22.934  19.921   6.982
    6AU     AUL 2007  22.972  19.964   6.663
    6AU    AUSL 2008  22.865  20.614   6.655
    6AU    AUSL 2009  22.581  20.610   7.030
    6AU     AUL 2010  22.465  20.462   6.773
    6AU    AUSL 2011  23.992  20.999   7.521
    6AU    AUSL 2012  23.916  20.770   7.118
    6AU     AUL 2013  24.228  21.026   7.231
    6AU    AUSL 2014  24.192  20.598   7.406
    6AU    AUSL 2015  24.150  20.285   7.771
    6AU     AUL 2016  24.449  20.334   7.554
    6AU    AUSL 2017  23.906  20.634   7.746
    6AU    AUSL 2018  23.654  21.021   7.789
    6AU     AUL 2019  23.989  21.014   7.860
    6AU    AUSL 2020  22.648  21.139   7.467
    6AU    AUSL 2021  22.682  20.908   7.836
    6AU     AUL 2022  22.373  21.148   7.676
    6AU    AUSL 2023  22.463  20.739   7.420
    6AU    AUSL 2024  22.595  21.042   7.055
    6AU     AUL 2025  22.363  20.964   7.210
    6AU    AUSL 2026  22.310  20.712   7.854
    6AU    AUSL 2027  22.296  20.347   7.371
    6AU     AUL 2028  22.140  20.684   7.534
    6AU    AUSL 2029  23.917  19.937   7.628
    6AU    AUSL 2030  23.752  20.225   7.938
    6AU     AUL 2031  24.057  20.124   8.007
    6AU    AUSL 2032  23.881  20.308   7.406
    6AU    AUSL 2033  23.883  19.894   7.197
    6AU     AUL 2034  24.126  20.109   7.284
    6AU    AUSL 2035  22.475  19.982   7.591
    6AU    AUSL 2036  22.659  20.179   7.220
    6AU     AUL 2037  22.299  20.064   7.260
    6AU    AUSL 2038  22.557  20.394   7.723
    6AU    AUSL 2039  22.791  20.033   7.878
    6AU     AUL 2040  22.459  20.040   7.929
    6AU    AUSL 2041  23.291  21.312   7.909
    6AU    AUSL 2042  22.839  21.319   7.818
    6AU     AUL 2043  23.059  21.358   8.170
    6AU    AUSL 2044  23.124  21.203   7.524
    6AU    AUSL 2045  23.367  21.319   7.174
    6AU     AUL 2046  23.116  21.552   7.463
    6AU    AUSL 2047  23.559  21.365   7.560
    6AU    AUSL 2048  23.538  21.120   8.201
    6AU     AUL 2049  23.658  21.360   7.924
    6AU    AUSL 2050  23.172  19.850   8.000
    6AU    AUSL 2051  23.599  19.814   7.883
    6AU     AUL 2052  23.353  19.746   8.252
    6AU    AUSL 2053  22.867  19.642   7.730
    6AU    AUSL 2054  22.925  20.011   8.311
    6AU     AUL 2055  22.839  19.728   8.075
    6AU    AUSL 2056  23.308  19.562   7.697
    6AU    AUSL 2057  23.096  19.807   7.394
    6AU     AUL 2058  23.013  19.441   7.504
    6AU    AUSL 2059  23.203  21.145   6.782
    6AU    AUSL 2060  23.767  21.176   7.202
    6AU     AUL 2061  23.525  21.250   6.861
    6AU    AUSL 2062  22.942  21.272   7.137
    6AU    AUSL 2063  22.976  20.846   6.988
    6AU     AUL 2064  22.874  21.112   6.780
    6AU    AUSL 2065  23.323  19.735   7.015
    6AU    AUSL 2066  22.687  19.740   7.301
    6AU     AUL 2067  22.992  19.600   7.064
    6AU    AUSL 2068  23.529  19.794   7.410
    6AU    AUSL 2069  23.546  20.104   7.016
    6AU     AUL 2070  23.641  19.732   7.028
    6AU       S 2071  23.796  19.624   8.290
    6AU     LIG 2072  23.960  19.181   8.344
    6AU     LIG 2073  24.095  18.737   8.374
    6AU     LIG 2074  24.397  18.416   8.547
    6AU       S 2075  23.685  20.374   8.763
    6AU     LIG 2076  24.101  20.588   8.693
    6AU     LIG 2077  24.382  20.570   9.067
    6AU     LIG 2078  24.265  20.290   9.460
    6AU       S 2079  23.333  20.196   8.661
    6AU     LIG 2080  23.350  20.196   9.116
    6AU     LIG 2081  23.715  20.136   9.421
    6AU     LIG 2082  23.935  19.896   9.769
    6AU       S 2083  22.855  20.555   8.646
    6AU     LIG 2084  22.948  20.539   9.087
    6AU     LIG 2085  22.615  20.464   9.361
    6AU     LIG 2086  22.426  20.574   9.769
    6AU       S 2087  23.299  21.130   8.584
    6AU     LIG 2088  23.520  21.451   8.774
    6AU     LIG 2089  23.896  21.323   8.977
    6AU     LIG 2090  24.236  21.051   8.892
    6AU       S 2091  24.041  21.008   8.334
    6AU     LIG 2092  24.468  20.975   8.447
    6AU     LIG 2093  24.669  21.291   8.754
    6AU     LIG 2094  24.797  21.686   9.001
    6AU       S 2095  23.601  20.623   6.319
    6AU     LIG 2096  24.061  20.630   6.257
    6AU     LIG 2097  24.237  20.360   5.934
    6AU     LIG 2098  24.116  19.982   5.687
    6AU       S 2099  23.980  21.229   6.794
    6AU     LIG 2100  23.901  21.563   6.543
    6AU     LIG 2101  24.120  21.730   6.170
    6AU     LIG 2102  24.434  22.006   5.964
    6AU       S 2103  24.165  20.052   6.805
    6AU     LIG 2104  24.182  20.067   6.346
    6AU     LIG 2105  24.180  19.685   6.117
    6AU     LIG 2106  24.418  19.271   6.195
    6AU       S 2107  23.599  20.447   6.257
    6AU     LIG 2108  23.743  20.100   6.079
    6AU     LIG 2109  23.602  19.964   5.693
    6AU     LIG 2110  23.555  20.150   5.278
    6AU       S 2111  22.811  20.269   6.330
    6AU     LIG 2112  23.087  20.111   6.002
    6AU     LIG 2113  23.094  20.063   5.538
    6AU     LIG 2114  22.861  20.170   5.151
    6AU       S 2115  23.340  20.776   6.424
    6AU     LIG 2116  23.134  20.618   6.054
    6AU     LIG 2117  23.401  20.437   5.744
    6AU     LIG 2118  23.833  20.425   5.626
    6AU       S 2119  22.649  20.686   8.704
    6AU     LIG 2120  22.330  20.421   8.753
    6AU     LIG 2121  22.345  20.117   9.060
    6AU     LIG 2122  22.290  20.095   9.521
    6AU       S 2123  22.583  21.297   8.193
    6AU     LIG 2124  22.514  21.353   8.615
    6AU     LIG 2125  22.128  21.351   8.862
    6AU     LIG 2126  21.862  21.585   9.171
    6AU       S 2127  22.450  20.056   8.424
    6AU     LIG 2128  22.041  20.091   8.258
    6AU     LIG 2129  21.739  19.747   8.208
    6AU     LIG 2130  21.571  19.342   8.418
    6AU       S 2131  22.850  20.376   8.604
    6AU     LIG 2132  22.856  20.070   8.929
    6AU     LIG 2133  22.768  19.964   9.353
    6AU     LIG 2134  22.746  20.159   9.771
    6AU       S 2135  22.628  20.196   6.433
    6AU     LIG 2136  22.483  20.071   6.009
    6AU     LIG 2137  22.576  20.224   5.577
    6AU     LIG 2138  22.526  20.555   5.227
    6AU       S 2139  22.597  19.743   6.831
    6AU     LIG 2140  22.466  19.460   6.542
    6AU     LIG 2141  22.230  19.480   6.168
    6AU     LIG 2142  21.833  19.297   6.042
    6AU       S 2143  22.283  20.881   6.722
    6AU     LIG 2144  21.991  21.232   6.745
    6AU     LIG 2145  21.949  21.634   6.531
    6AU     LIG 2146  22.013  21.872   6.148
    6AU       S 2147  22.812  20.557   6.444
    6AU     LIG 2148  22.517  20.647   6.149
    6AU     LIG 2149  22.641  20.713   5.723
    6AU     LIG 2150  22.991  20.572   5.457
    6AU       S 2151  24.107  21.085   6.800
    6AU     LIG 2152  24.252  21.223   6.354
    6AU     LIG 2153  24.566  21.491   6.088
    6AU     LIG 2154  24.905  21.797   5.911
    6AU       S 2155  24.400  21.025   7.672
    6AU     LIG 2156  24.547  21.413   7.486
    6AU     LIG 2157  24.991  21.500   7.420
    6AU     LIG 2158  25.341  21.331   7.703
    6AU       S 2159  24.409  20.787   7.605
    6AU     LIG 2160  24.716  20.975   7.293
    6AU     LIG 2161  25.138  21.021   7.297
    6AU     LIG 2162  25.453  21.225   7.019
    6AU       S 2163  24.382  19.898   7.772
    6AU     LIG 2164  24.729  19.755   7.986
    6AU     LIG 2165  25.135  19.938   7.908
    6AU     LIG 2166  25.142  20.055   7.484
    6AU       S 2167  23.996  21.271   8.236
    6AU     LIG 2168  24.384  21.457   8.328
    6AU     LIG 2169  24.604  21.789   8.526
    6AU     LIG 2170  24.532  22.120   8.842
    6AU       S 2171  24.342  20.716   7.872
    6AU     LIG 2172  24.846  20.899   7.813
    6AU     LIG 2173  25.273  20.870   7.903
    6AU     LIG 2174  25.549  21.061   8.201
    6AU       S 2175  22.486  21.122   8.121
    6AU     LIG 2176  22.253  20.944   8.463
    6AU     LIG 2177  21.821  21.047   8.561
    6AU     LIG 2178  21.551  21.336   8.808
    6AU       S 2179  22.575  21.460   7.376
    6AU     LIG 2180  22.309  21.779   7.161
    6AU     LIG 2181  21.882  21.783   7.014
    6AU     LIG 2182  21.654  21.382   7.103
    6AU       S 2183  22.072  20.619   7.068
    6AU     LIG 2184  21.598  20.673   7.057
    6AU     LIG 2185  21.243  20.977   7.044
    6AU     LIG 2186  21.223  21.289   7.364
    6AU       S 2187  22.465  21.303   6.892
    6AU     LIG 2188  22.559  21.706   6.725
    6AU     LIG 2189  22.265  22.040   6.592
    6AU     LIG 2190  21.814  22.180   6.524
    6AU       S 2191  22.070  20.236   7.650
    6AU     LIG 2192  21.794  20.265   7.327
    6AU     LIG 2193  21.362  20.258   7.296
    6AU     LIG 2194  20.968  20.061   7.317
    6AU       S 2195  22.201  20.731   8.016
    6AU     LIG 2196  21.871  20.602   8.249
    6AU     LIG 2197  21.467  20.806   8.177
    6AU     LIG 2198  21.383  21.100   7.829
    6AU       S 2199  24.080  19.763   7.643
    6AU     LIG 2200  24.296  19.354   7.571
    6AU     LIG 2201  24.672  19.233   7.804
    6AU     LIG 2202  25.075  19.462   7.736
    6AU       S 2203  23.962  19.708   8.148
    6AU     LIG 2204  24.294  19.474   8.065
    6AU     LIG 2205  24.490  19.150   8.294
    6AU     LIG 2206  24.511  18.896   8.672
    6AU       S 2207  24.366  19.855   7.567
    6AU     LIG 2208  24.719  19.658   7.425
    6AU     LIG 2209  25.125  19.557   7.229
    6AU     LIG 2210  25.534  19.570   6.990
    6AU       S 2211  24.102  19.798   6.922
    6AU     LIG 2212  24.186  19.516   6.630
    6AU     LIG 2213  23.873  19.278   6.769
    6AU     LIG 2214  23.772  18.932   6.572
    6AU       S 2215  22.457  19.856   6.885
    6AU     LIG 2216  22.205  19.904   6.511
    6AU     LIG 2217  21.820  19.769   6.296
    6AU     LIG 2218  21.479  19.463   6.385
    6AU       S 2219  22.070  19.996   7.680
    6AU     LIG 2220  21.625  19.940   7.705
    6AU     LIG 2221  21.389  19.737   7.384
    6AU     LIG 2222  21.092  19.609   7.055
    6AU       S 2223  22.472  19.834   8.336
    6AU     LIG 2224  22.213  19.627   8.038
    6AU     LIG 2225  21.935  19.264   8.049
    6AU     LIG 2226  21.862  18.888   8.326
    6AU       S 2227  22.088  20.287   7.809
    6AU     LIG 2228  21.619  20.453   7.787
    6AU     LIG 2229  21.178  20.239   7.774
    6AU     LIG 2230  21.054  19.787   7.764
    6AU       S 2231  22.715  21.482   7.857
    6AU     LIG 2232  22.272  21.571   7.928
    6AU     LIG 2233  22.074  21.461   8.338
    6AU     LIG 2234  21.846  21.738   8.655
    6AU       S 2235  23.290  21.644   7.882
    6AU     LIG 2236  23.492  21.685   8.285
    6AU     LIG 2237  23.442  22.140   8.372
    6AU     LIG 2238  23.079  22.436   8.333
    6AU       S 2239  23.438  21.796   7.790
    6AU     LIG 2240  23.167  22.131   7.904
    6AU     LIG 2241  23.080  22.566   7.837
    6AU     LIG 2242  23.026  23.001   7.950
    6AU       S 2243  23.272  21.611   7.019
    6AU     LIG 2244  23.319  21.964   7.228
    6AU     LIG 2245  23.458  22.343   7.109
    6AU     LIG 2246  23.257  22.661   6.910
    6AU       S 2247  23.757  21.223   8.385
    6AU     LIG 2248  23.958  21.630   8.569
    6AU     LIG 2249  24.282  21.643   8.893
    6AU     LIG 2250  24.441  21.383   9.240
    6AU       S 2251  23.573  21.659   7.556
    6AU     LIG 2252  23.616  22.182   7.585
    6AU     LIG 2253  23.562  22.454   7.956
    6AU     LIG 2254  23.516  22.706   8.343
    6AU       S 2255  23.149  19.360   8.097
    6AU     LIG 2256  23.472  19.039   8.210
    6AU     LIG 2257  23.551  18.604   8.409
    6AU     LIG 2258  23.402  18.148   8.527
    6AU       S 2259  23.737  19.662   7.983
    6AU     LIG 2260  23.866  19.276   7.857
    6AU     LIG 2261  24.202  18.954   7.911
    6AU     LIG 2262  24.572  18.676   8.132
    6AU       S 2263  22.963  19.297   7.945
    6AU     LIG 2264  22.993  18.906   7.790
    6AU     LIG 2265  23.202  18.541   7.898
    6AU     LIG 2266  23.072  18.132   8.040
    6AU       S 2267  22.707  19.935   8.483
    6AU     LIG 2268  22.448  19.680   8.798
    6AU     LIG 2269  22.100  19.364   8.669
    6AU     LIG 2270  21.977  18.941   8.857
    6AU       S 2271  23.417  19.347   7.297
    6AU     LIG 2272  23.152  18.950   7.301
    6AU     LIG 2273  23.101  18.485   7.238
    6AU     LIG 2274  23.170  18.163   6.913
    6AU       S 2275  23.320  19.387   7.871
    6AU     LIG 2276  23.483  19.004   7.691
    6AU     LIG 2277  23.695  18.675   7.929
    6AU     LIG 2278  23.575  18.226   8.057
    6AU       S 2279  23.133  21.512   6.743
    6AU     LIG 2280  23.037  21.958   6.735
    6AU     LIG 2281  23.331  22.263   6.610
    6AU     LIG 2282  23.315  22.651   6.382
    6AU       S 2283  23.916  21.349   7.099
    6AU     LIG 2284  24.310  21.529   7.025
    6AU     LIG 2285  24.424  21.641   6.608
    6AU     LIG 2286  24.713  21.898   6.391
    6AU       S 2287  22.940  21.523   7.015
    6AU     LIG 2288  22.817  21.894   7.207
    6AU     LIG 2289  22.912  22.325   7.082
    6AU     LIG 2290  22.860  22.484   6.640
    6AU       S 2291  22.496  20.929   6.617
    6AU     LIG 2292  22.376  21.322   6.395
    6AU     LIG 2293  22.497  21.733   6.216
    6AU     LIG 2294  22.423  22.177   6.068
    6AU       S 2295  22.516  19.660   7.128
    6AU     LIG 2296  22.069  19.592   7.015
    6AU     LIG 2297  21.940  19.401   6.631
    6AU     LIG 2298  21.756  19.013   6.492
    6AU       S 2299  23.404  19.354   7.133
    6AU     LIG 2300  23.371  19.274   6.687
    6AU     LIG 2301  23.309  18.902   6.390
    6AU     LIG 2302  23.304  18.445   6.480
    6AU       S 2303  23.673  19.475   7.419
    6AU     LIG 2304  23.877  19.114   7.368
    6AU     LIG 2305  23.801  18.843   7.063
    6AU     LIG 2306  23.405  18.746   6.886
    6AU       S 2307  23.878  19.918   6.694
    6AU     LIG 2308  23.733  19.647   6.408
    6AU     LIG 2309  23.897  19.267   6.222
    6AU     LIG 2310  23.736  18.895   6.017
    7AU     AUC 2311   0.332  35.066   7.511
    7AU     AUC 2312   0.586  35.063   7.349
    7AU     AUC 2313   0.570  35.061   7.684
    7AU     AUC 2314   0.071  35.069   7.351
    7AU     AUC 2315   0.085  35.112   7.675
    7AU     AUC 2316   0.173  35.327   7.474
    7AU     AUC 2317   0.508  35.323   7.480
    7AU     AUC 2318   0.159  34.818   7.528
    7AU     AUC 2319   0.487  34.793   7.535
    7AU     AUC 2320   0.323  34.918   7.781
    7AU     AUC 2321   0.336  35.259   7.747
    7AU     AUC 2322   0.330  34.882   7.266
    7AU     AUC 2323   0.349  35.188   7.243
    7AU     AUC 2324   0.903  35.054   7.200
    7AU     AUC 2325   0.897  35.037   7.536
    7AU     AUC 2326   0.859  35.040   7.891
    7AU     AUC 2327  44.776  35.032   7.204
    7AU     AUC 2328  44.759  35.108   7.524
    7AU     AUC 2329  44.785  35.167   7.846
    7AU     AUC 2330   0.014  35.634   7.411
    7AU     AUC 2331   0.372  35.622   7.404
    7AU     AUC 2332   0.706  35.601   7.451
    7AU     AUC 2333  44.961  34.526   7.546
    7AU     AUC 2334   0.306  34.501   7.534
    7AU     AUC 2335   0.653  34.492   7.549
    7AU     AUC 2336   0.283  34.764   8.092
    7AU     AUC 2337   0.315  35.111   8.076
    7AU     AUC 2338   0.369  35.469   8.033
    7AU     AUC 2339   0.372  34.690   6.986
    7AU     AUC 2340   0.319  35.022   6.936
    7AU     AUC 2341   0.312  35.340   6.925
    7AU     AUC 2342   0.562  34.868   8.001
    7AU     AUC 2343   0.608  35.225   7.980
    7AU     AUC 2344   0.640  34.896   7.055
    7AU     AUC 2345   0.606  35.206   7.065
    7AU     AUC 2346   0.029  34.997   7.984
    7AU     AUC 2347   0.074  35.342   7.931
    7AU     AUC 2348   0.061  34.843   7.084
    7AU     AUC 2349   0.016  35.164   7.047
    7AU     AUC 2350   0.833  35.324   7.342
    7AU     AUC 2351   0.771  35.304   7.680
    7AU     AUC 2352  44.873  35.339   7.339
    7AU     AUC 2353  44.915  35.428   7.661
    7AU     AUC 2354   0.790  34.780   7.391
    7AU     AUC 2355   0.732  34.739   7.735
    7AU     AUC 2356  44.873  34.757   7.364
    7AU     AUC 2357  44.890  34.853   7.699
    7AU     AUC 2358   0.229  35.576   7.728
    7AU     AUC 2359   0.540  35.535   7.755
    7AU     AUC 2360   0.125  34.647   7.813
    7AU     AUC 2361   0.432  34.586   7.810
    7AU     AUC 2362   0.148  35.484   7.161
    7AU     AUC 2363   0.512  35.503   7.189
    7AU     AUC 2364   0.187  34.589   7.254
    7AU     AUC 2365   0.548  34.629   7.262
    7AU    AUSL 2366   0.829  34.984   8.291
    7AU    AUSL 2367   0.569  34.594   8.221
    7AU     AUL 2368   0.871  34.638   8.397
    7AU    AUSL 2369   0.410  34.930   8.438
    7AU    AUSL 2370   0.172  35.326   8.419
    7AU     AUL 2371   0.400  35.232   8.703
    7AU    AUSL 2372   0.512  35.279   8.167
    7AU    AUSL 2373   0.968  35.355   8.106
    7AU     AUL 2374   0.787  35.287   8.430
    7AU    AUSL 2375   0.773  35.088   6.848
    7AU    AUSL 2376   0.621  35.480   6.965
    7AU     AUL 2377   0.860  35.419   6.682
    7AU    AUSL 2378   0.596  34.789   6.585
    7AU    AUSL 2379   1.087  34.828   6.980
    7AU     AUL 2380   0.966  34.939   6.644
    7AU    AUSL 2381   0.411  35.241   6.661
    7AU    AUSL 2382   0.228  34.851   6.797
    7AU     AUL 2383   0.333  34.910   6.464
    7AU    AUSL 2384  44.787  35.290   8.199
    7AU    AUSL 2385   0.135  35.581   8.071
    7AU     AUL 2386  44.957  35.562   8.387
    7AU    AUSL 2387   0.084  34.971   8.166
    7AU    AUSL 2388  44.644  34.877   8.099
    7AU     AUL 2389  44.637  35.066   8.290
    7AU    AUSL 2390  44.791  34.827   6.774
    7AU    AUSL 2391   0.044  34.499   6.955
    7AU     AUL 2392   0.079  34.545   6.634
    7AU    AUSL 2393  44.977  35.196   6.635
    7AU    AUSL 2394  44.696  35.192   7.007
    7AU     AUL 2395  44.574  35.028   6.759
    7AU    AUSL 2396   1.129  35.533   7.510
    7AU    AUSL 2397   1.024  35.319   7.109
    7AU     AUL 2398   1.346  35.546   7.195
    7AU    AUSL 2399   1.298  35.125   7.384
    7AU    AUSL 2400   1.243  34.816   7.754
    7AU     AUL 2401   1.538  34.865   7.542
    7AU    AUSL 2402   1.013  35.175   7.727
    7AU    AUSL 2403   0.776  35.576   7.763
    7AU     AUL 2404   1.098  35.581   7.828
    7AU    AUSL 2405  44.764  35.716   7.449
    7AU    AUSL 2406  44.788  35.480   7.816
    7AU     AUL 2407  44.480  35.724   7.658
    7AU    AUSL 2408  44.569  35.323   7.395
    7AU    AUSL 2409  44.715  35.624   7.036
    7AU     AUL 2410  44.482  35.554   7.188
    7AU    AUSL 2411  44.414  35.285   7.830
    7AU    AUSL 2412  44.403  34.933   7.325
    7AU     AUL 2413  44.250  35.270   7.505
    7AU    AUSL 2414   1.001  34.477   7.611
    7AU    AUSL 2415   0.843  34.773   7.920
    7AU     AUL 2416   1.144  34.660   7.990
    7AU    AUSL 2417   0.976  34.848   7.389
    7AU    AUSL 2418   0.967  34.440   7.177
    7AU     AUL 2419   1.216  34.643   7.264
    7AU    AUSL 2420  44.565  34.563   7.546
    7AU    AUSL 2421  44.771  34.760   7.191
    7AU     AUL 2422  44.416  34.673   7.177
    7AU    AUSL 2423  44.656  34.972   7.682
    7AU    AUSL 2424  44.874  34.608   7.844
    7AU     AUL 2425  44.550  34.622   7.888
    7AU    AUSL 2426   0.405  35.875   7.900
    7AU    AUSL 2427  44.953  35.889   7.802
    7AU     AUL 2428   0.165  35.929   8.148
    7AU    AUSL 2429   0.241  35.770   7.512
    7AU    AUSL 2430   0.491  35.885   7.166
    7AU     AUL 2431   0.234  36.120   7.458
    7AU    AUSL 2432   0.674  35.933   7.556
    7AU    AUSL 2433   0.663  35.676   8.177
    7AU     AUL 2434   0.775  35.921   7.916
    7AU    AUSL 2435   0.249  34.424   7.980
    7AU    AUSL 2436   0.677  34.369   7.867
    7AU     AUL 2437   0.419  34.307   8.233
    7AU    AUSL 2438  44.943  34.214   7.702
    7AU    AUSL 2439  44.982  34.580   8.280
    7AU     AUL 2440  44.911  34.302   8.051
    7AU    AUSL 2441   0.381  34.124   7.683
    7AU    AUSL 2442   0.185  34.374   7.373
    7AU     AUL 2443   0.091  34.012   7.478
    7AU    AUSL 2444   0.326  35.720   6.769
    7AU    AUSL 2445   0.879  35.720   7.217
    7AU     AUL 2446   0.646  35.815   6.865
    7AU    AUSL 2447   0.066  35.848   7.123
    7AU    AUSL 2448   0.093  35.423   6.970
    7AU     AUL 2449  44.987  35.695   6.767
    7AU    AUSL 2450   0.420  34.292   6.999
    7AU    AUSL 2451  44.779  34.318   7.262
    7AU     AUL 2452   0.083  34.173   7.037
    7AU    AUSL 2453   0.616  34.345   7.396
    7AU    AUSL 2454   0.641  34.663   6.991
    7AU     AUL 2455   0.732  34.289   7.005
    7AU       S 2456   0.862  34.182   8.275
    7AU     LIG 2457   0.958  33.749   8.326
    7AU     LIG 2458   1.078  33.453   8.620
    7AU     LIG 2459   1.401  33.164   8.720
    7AU       S 2460   0.782  34.928   8.747
    7AU     LIG 2461   1.092  35.249   8.851
    7AU     LIG 2462   1.263  35.180   9.277
    7AU     LIG 2463   1.228  34.892   9.653
    7AU       S 2464   0.435  34.759   8.645
    7AU     LIG 2465   0.392  34.858   9.076
    7AU     LIG 2466   0.734  34.826   9.405
    7AU     LIG 2467   0.854  34.540   9.760
    7AU       S 2468  44.956  35.131   8.643
    7AU     LIG 2469  44.915  35.086   9.119
    7AU     LIG 2470  44.570  35.116   9.411
    7AU     LIG 2471  44.431  35.125   9.860
    7AU       S 2472   0.417  35.690   8.556
    7AU     LIG 2473   0.668  35.940   8.827
    7AU     LIG 2474   0.989  35.862   9.126
    7AU     LIG 2475   1.372  35.650   9.084
    7AU       S 2476   1.163  35.535   8.294
    7AU     LIG 2477   1.470  35.617   8.580
    7AU     LIG 2478   1.636  35.987   8.794
    7AU     LIG 2479   1.757  36.390   9.000
    7AU       S 2480   0.725  35.196   6.307
    7AU     LIG 2481   1.172  35.202   6.182
    7AU     LIG 2482   1.329  34.805   6.015
    7AU     LIG 2483   1.092  34.418   5.887
    7AU       S 2484   1.092  35.853   6.823
    7AU     LIG 2485   1.002  36.202   6.575
    7AU     LIG 2486   1.214  36.249   6.184
    7AU     LIG 2487   1.506  36.244   5.850
    7AU       S 2488   1.251  34.585   6.782
    7AU     LIG 2489   1.351  34.413   6.358
    7AU     LIG 2490   1.333  34.008   6.149
    7AU     LIG 2491   1.451  33.562   6.239
    7AU       S 2492   0.718  35.010   6.242
    7AU     LIG 2493   0.643  34.619   6.096
    7AU     LIG 2494   0.606  34.481   5.670
    7AU     LIG 2495   0.938  34.522   5.351
    7AU       S 2496  44.903  34.860   6.310
    7AU     LIG 2497   0.132  34.680   6.023
    7AU     LIG 2498   0.109  34.681   5.598
    7AU     LIG 2499  44.906  34.837   5.244
    7AU       S 2500   0.475  35.353   6.410
    7AU     LIG 2501   0.250  35.197   6.056
    7AU     LIG 2502   0.476  34.993   5.757
    7AU     LIG 2503   0.914  34.901   5.736
    7AU       S 2504  44.758  35.260   8.688
    7AU     LIG 2505  44.453  34.969   8.754
    7AU     LIG 2506  44.192  34.859   9.082
    7AU     LIG 2507  44.204  34.776   9.537
    7AU       S 2508  44.677  35.853   8.158
    7AU     LIG 2509  44.652  36.090   8.507
    7AU     LIG 2510  44.531  35.916   8.900
    7AU     LIG 2511  44.397  36.183   9.252
    7AU       S 2512  44.479  34.638   8.363
    7AU     LIG 2513  44.072  34.661   8.573
    7AU     LIG 2514  43.783  34.318   8.639
    7AU     LIG 2515  43.521  34.027   8.886
    7AU       S 2516  44.962  34.939   8.595
    7AU     LIG 2517  44.918  34.638   8.895
    7AU     LIG 2518  44.647  34.630   9.260
    7AU     LIG 2519  44.684  34.687   9.730
    7AU       S 2520  44.732  34.772   6.411
    7AU     LIG 2521  44.485  34.703   6.068
    7AU     LIG 2522  44.574  34.866   5.674
    7AU     LIG 2523  44.485  35.141   5.322
    7AU       S 2524  44.705  34.307   6.785
    7AU     LIG 2525  44.567  34.087   6.456
    7AU     LIG 2526  44.494  34.187   6.073
    7AU     LIG 2527  44.724  34.374   5.721
    7AU       S 2528  44.424  35.452   6.691
    7AU     LIG 2529  44.108  35.592   6.476
    7AU     LIG 2530  44.212  35.923   6.239
    7AU     LIG 2531  44.158  36.305   6.052
    7AU       S 2532  44.901  35.136   6.411
    7AU     LIG 2533  44.507  35.216   6.209
    7AU     LIG 2534  44.565  35.359   5.808
    7AU     LIG 2535  44.966  35.213   5.601
    7AU       S 2536   1.173  35.719   6.817
    7AU     LIG 2537   1.292  35.755   6.371
    7AU     LIG 2538   1.684  35.905   6.178
    7AU     LIG 2539   2.004  36.171   5.931
    7AU       S 2540   1.501  35.487   7.643
    7AU     LIG 2541   1.539  35.894   7.755
    7AU     LIG 2542   1.975  36.051   7.726
    7AU     LIG 2543   2.215  36.228   7.367
    7AU       S 2544   1.573  35.326   7.559
    7AU     LIG 2545   1.854  35.694   7.372
    7AU     LIG 2546   2.310  35.722   7.359
    7AU     LIG 2547   2.700  35.540   7.173
    7AU       S 2548   1.466  34.430   7.751
    7AU     LIG 2549   1.785  34.260   7.991
    7AU     LIG 2550   2.233  34.237   8.044
    7AU     LIG 2551   2.617  34.150   7.871
    7AU       S 2552   1.125  35.814   8.215
    7AU     LIG 2553   1.504  36.019   8.268
    7AU     LIG 2554   1.542  36.398   8.504
    7AU     LIG 2555   1.416  36.735   8.762
    7AU       S 2556   1.410  35.244   7.858
    7AU     LIG 2557   1.736  35.534   8.066
    7AU     LIG 2558   2.155  35.596   7.857
    7AU     LIG 2559   2.586  35.688   7.973
    7AU       S 2560  44.577  35.689   8.104
    7AU     LIG 2561  44.387  35.485   8.438
    7AU     LIG 2562  44.222  35.478   8.815
    7AU     LIG 2563  43.926  35.800   8.876
    7AU       S 2564  44.692  36.018   7.354
    7AU     LIG 2565  44.774  36.423   7.258
    7AU     LIG 2566  44.519  36.551   6.938
    7AU     LIG 2567  44.153  36.244   6.899
    7AU       S 2568  44.196  35.219   7.035
    7AU     LIG 2569  43.954  34.826   7.026
    7AU     LIG 2570  43.498  34.926   7.014
    7AU     LIG 2571  43.392  35.448   6.934
    7AU       S 2572  44.562  35.882   6.853
    7AU     LIG 2573  44.742  36.181   6.610
    7AU     LIG 2574  44.600  36.569   6.426
    7AU     LIG 2575  44.392  36.747   6.074
    7AU       S 2576  44.150  34.813   7.559
    7AU     LIG 2577  43.735  34.718   7.481
    7AU     LIG 2578  43.324  34.757   7.503
    7AU     LIG 2579  42.977  34.726   7.225
    7AU       S 2580  44.307  35.284   7.991
    7AU     LIG 2581  44.055  35.077   8.256
    7AU     LIG 2582  43.657  35.268   8.267
    7AU     LIG 2583  43.412  35.564   7.989
    7AU       S 2584   1.157  34.302   7.627
    7AU     LIG 2585   1.275  33.856   7.547
    7AU     LIG 2586   1.604  33.616   7.763
    7AU     LIG 2587   1.994  33.811   7.856
    7AU       S 2588   1.039  34.245   8.128
    7AU     LIG 2589   1.357  33.967   8.045
    7AU     LIG 2590   1.731  33.791   8.283
    7AU     LIG 2591   1.846  33.363   8.493
    7AU       S 2592   1.442  34.369   7.539
    7AU     LIG 2593   1.765  34.080   7.500
    7AU     LIG 2594   2.198  34.259   7.505
    7AU     LIG 2595   2.376  34.567   7.156
    7AU       S 2596   1.188  34.330   6.896
    7AU     LIG 2597   1.141  33.932   6.682
    7AU     LIG 2598   1.125  33.460   6.637
    7AU     LIG 2599   1.299  33.086   6.394
    7AU       S 2600  44.587  34.420   6.838
    7AU     LIG 2601  44.304  34.601   6.619
    7AU     LIG 2602  44.077  34.445   6.293
    7AU     LIG 2603  43.678  34.262   6.339
    7AU       S 2604  44.204  34.562   7.589
    7AU     LIG 2605  43.954  34.253   7.659
    7AU     LIG 2606  43.703  34.201   7.301
    7AU     LIG 2607  43.456  33.869   7.063
    7AU       S 2608  44.523  34.411   8.292
    7AU     LIG 2609  44.420  34.153   7.923
    7AU     LIG 2610  44.406  33.727   8.014
    7AU     LIG 2611  44.209  33.700   8.463
    7AU       S 2612  44.187  34.858   7.748
    7AU     LIG 2613  44.073  34.577   8.072
    7AU     LIG 2614  43.715  34.367   8.125
    7AU     LIG 2615  43.472  34.343   7.757
    7AU       S 2616  44.819  36.040   7.836
    7AU     LIG 2617  44.654  36.346   8.051
    7AU     LIG 2618  44.293  36.467   8.279
    7AU     LIG 2619  44.103  36.706   8.595
    7AU       S 2620   0.427  36.221   7.877
    7AU     LIG 2621   0.630  36.512   8.210
    7AU     LIG 2622   0.445  36.798   8.512
    7AU     LIG 2623   0.106  37.129   8.491
    7AU       S 2624   0.543  36.382   7.743
    7AU     LIG 2625   0.151  36.613   7.926
    7AU     LIG 2626   0.076  37.026   7.895
    7AU     LIG 2627  44.849  37.310   8.085
    7AU       S 2628   0.409  36.191   7.023
    7AU     LIG 2629   0.765  36.463   6.974
    7AU     LIG 2630   0.916  36.925   6.964
    7AU     LIG 2631   0.779  37.379   6.909
    7AU       S 2632   0.888  35.765   8.371
    7AU     LIG 2633   1.108  36.114   8.609
    7AU     LIG 2634   1.256  36.277   8.988
    7AU     LIG 2635   1.452  36.091   9.363
    7AU       S 2636   0.706  36.200   7.525
    7AU     LIG 2637   0.778  36.666   7.440
    7AU     LIG 2638   0.559  36.910   7.757
    7AU     LIG 2639   0.506  37.135   8.148
    7AU       S 2640   0.203  33.922   8.076
    7AU     LIG 2641   0.519  33.554   8.121
    7AU     LIG 2642   0.590  33.267   8.447
    7AU     LIG 2643   0.444  32.845   8.597
    7AU       S 2644   0.808  34.219   7.970
    7AU     LIG 2645   0.852  33.828   7.834
    7AU     LIG 2646   1.118  33.494   7.912
    7AU     LIG 2647   1.405  33.420   8.216
    7AU       S 2648  44.991  33.858   7.911
    7AU     LIG 2649   0.036  33.381   8.012
    7AU     LIG 2650   0.309  32.986   8.111
    7AU     LIG 2651   0.182  32.542   8.270
    7AU       S 2652  44.742  34.534   8.443
    7AU     LIG 2653  44.447  34.418   8.814
    7AU     LIG 2654  44.163  34.041   8.887
    7AU     LIG 2655  44.303  33.655   9.105
    7AU       S 2656   0.501  33.899   7.289
    7AU     LIG 2657   0.319  33.471   7.168
    7AU     LIG 2658   0.273  33.169   6.876
    7AU     LIG 2659   0.183  32.779   6.997
    7AU       S 2660   0.366  33.960   7.870
    7AU     LIG 2661   0.324  33.595   7.652
    7AU     LIG 2662   0.335  33.161   7.618
    7AU     LIG 2663   0.410  32.769   7.496
    7AU       S 2664   0.270  36.077   6.731
    7AU     LIG 2665   0.488  36.401   6.546
    7AU     LIG 2666   0.780  36.726   6.519
    7AU     LIG 2667   0.773  37.170   6.437
    7AU       S 2668   1.028  35.904   7.146
    7AU     LIG 2669   1.486  36.026   7.075
    7AU     LIG 2670   1.529  36.149   6.632
    7AU     LIG 2671   1.698  36.421   6.305
    7AU       S 2672   0.072  36.104   7.002
    7AU     LIG 2673   0.064  36.520   6.842
    7AU     LIG 2674   0.378  36.825   6.871
    7AU     LIG 2675   0.322  37.228   6.700
    7AU       S 2676  44.609  35.501   6.608
    7AU     LIG 2677  44.696  35.721   6.266
    7AU     LIG 2678  44.660  36.151   6.095
    7AU     LIG 2679  44.874  36.537   5.982
    7AU       S 2680  44.614  34.257   7.087
    7AU     LIG 2681  44.172  34.227   6.983
    7AU     LIG 2682  44.298  33.819   6.780
    7AU     LIG 2683  44.316  33.461   6.489
    7AU       S 2684   0.480  33.929   7.129
    7AU     LIG 2685   0.649  33.729   6.744
    7AU     LIG 2686   0.626  33.321   6.502
    7AU     LIG 2687   0.473  32.844   6.516
    7AU       S 2688   0.747  34.028   7.396
    7AU     LIG 2689   0.967  33.714   7.143
    7AU     LIG 2690   0.797  33.293   7.010
    7AU     LIG 2691   0.924  32.967   6.710
    7AU       S 2692   0.966  34.472   6.664
    7AU     LIG 2693   0.871  34.200   6.329
    7AU     LIG 2694   0.893  33.746   6.262
    7AU     LIG 2695   0.979  33.340   6.087
    8AU     AUC 2696  18.738   9.676   7.525
    8AU     AUC 2697  18.991   9.676   7.361
    8AU     AUC 2698  18.979   9.675   7.696
    8AU     AUC 2699  18.472   9.673   7.369
    8AU     AUC 2700  18.493   9.720   7.692
    8AU     AUC 2701  18.577   9.936   7.488
    8AU     AUC 2702  18.911   9.935   7.490
    8AU     AUC 2703  18.567   9.427   7.546
    8AU     AUC 2704  18.897   9.407   7.549
    8AU     AUC 2705  18.736   9.529   7.796
    8AU     AUC 2706  18.743   9.871   7.760
    8AU     AUC 2707  18.733   9.491   7.282
    8AU     AUC 2708  18.750   9.795   7.257
    8AU     AUC 2709  19.308   9.671   7.210
    8AU     AUC 2710  19.305   9.658   7.547
    8AU     AUC 2711  19.270   9.660   7.901
    8AU     AUC 2712  18.171   9.633   7.230
    8AU     AUC 2713  18.164   9.713   7.550
    8AU     AUC 2714  18.196   9.774   7.869
    8AU     AUC 2715  18.416  10.240   7.423
    8AU     AUC 2716  18.773  10.230   7.411
    8AU     AUC 2717  19.107  10.216   7.453
    8AU     AUC 2718  18.373   9.133   7.569
    8AU     AUC 2719  18.720   9.113   7.549
    8AU     AUC 2720  19.071   9.108   7.560
    8AU     AUC 2721  18.705   9.374   8.107
    8AU     AUC 2722  18.728   9.722   8.090
    8AU     AUC 2723  18.777  10.080   8.044
    8AU     AUC 2724  18.771   9.297   7.003
    8AU     AUC 2725  18.718   9.625   6.952
    8AU     AUC 2726  18.709   9.941   6.938
    8AU     AUC 2727  18.978   9.483   8.013
    8AU     AUC 2728  19.017   9.839   7.992
    8AU     AUC 2729  19.044   9.507   7.069
    8AU     AUC 2730  19.007   9.813   7.076
    8AU     AUC 2731  18.446   9.606   8.005
    8AU     AUC 2732  18.484   9.952   7.948
    8AU     AUC 2733  18.458   9.446   7.105
    8AU     AUC 2734  18.413   9.765   7.065
    8AU     AUC 2735  19.236   9.941   7.350
    8AU     AUC 2736  19.174   9.922   7.689
    8AU     AUC 2737  18.274   9.943   7.358
    8AU     AUC 2738  18.324  10.036   7.680
    8AU     AUC 2739  19.203   9.399   7.406
    8AU     AUC 2740  19.146   9.356   7.746
    8AU     AUC 2741  18.275   9.363   7.392
    8AU     AUC 2742  18.301   9.458   7.725
    8AU     AUC 2743  18.637  10.187   7.739
    8AU     AUC 2744  18.944  10.147   7.762
    8AU     AUC 2745  18.545   9.255   7.832
    8AU     AUC 2746  18.851   9.197   7.823
    8AU     AUC 2747  18.546  10.088   7.174
    8AU     AUC 2748  18.912  10.113   7.194
    8AU     AUC 2749  18.587   9.198   7.272
    8AU     AUC 2750  18.956   9.243   7.276
    8AU    AUSL 2751  19.245   9.603   8.301
    8AU    AUSL 2752  18.992   9.208   8.233
    8AU     AUL 2753  19.294   9.256   8.406
    8AU    AUSL 2754  18.828   9.542   8.450
    8AU    AUSL 2755  18.585   9.937   8.434
    8AU     AUL 2756  18.814   9.842   8.719
    8AU    AUSL 2757  18.924   9.893   8.179
    8AU    AUSL 2758  19.375   9.978   8.116
    8AU     AUL 2759  19.196   9.907   8.443
    8AU    AUSL 2760  19.174   9.694   6.857
    8AU    AUSL 2761  19.016  10.083   6.974
    8AU     AUL 2762  19.247  10.018   6.689
    8AU    AUSL 2763  18.993   9.387   6.604
    8AU    AUSL 2764  19.497   9.448   6.992
    8AU     AUL 2765  19.364   9.538   6.662
    8AU    AUSL 2766  18.804   9.837   6.676
    8AU    AUSL 2767  18.624   9.448   6.817
    8AU     AUL 2768  18.726   9.501   6.484
    8AU    AUSL 2769  18.197   9.894   8.216
    8AU    AUSL 2770  18.547  10.196   8.088
    8AU     AUL 2771  18.373  10.167   8.404
    8AU    AUSL 2772  18.498   9.581   8.182
    8AU    AUSL 2773  18.065   9.470   8.132
    8AU     AUL 2774  18.039   9.671   8.306
    8AU    AUSL 2775  18.184   9.429   6.800
    8AU    AUSL 2776  18.431   9.100   6.976
    8AU     AUL 2777  18.467   9.143   6.660
    8AU    AUSL 2778  18.372   9.793   6.652
    8AU    AUSL 2779  18.090   9.793   7.031
    8AU     AUL 2780  17.967   9.642   6.779
    8AU    AUSL 2781  19.518  10.158   7.510
    8AU    AUSL 2782  19.426   9.933   7.112
    8AU     AUL 2783  19.748  10.177   7.210
    8AU    AUSL 2784  19.703   9.754   7.394
    8AU    AUSL 2785  19.657   9.445   7.762
    8AU     AUL 2786  19.954   9.497   7.547
    8AU    AUSL 2787  19.420   9.799   7.737
    8AU    AUSL 2788  19.175  10.193   7.774
    8AU     AUL 2789  19.502  10.198   7.834
    8AU    AUSL 2790  18.168  10.320   7.465
    8AU    AUSL 2791  18.201  10.089   7.835
    8AU     AUL 2792  17.895  10.332   7.677
    8AU    AUSL 2793  17.975   9.924   7.421
    8AU    AUSL 2794  18.110  10.225   7.054
    8AU     AUL 2795  17.877  10.150   7.212
    8AU    AUSL 2796  17.827   9.897   7.858
    8AU    AUSL 2797  17.802   9.535   7.369
    8AU     AUL 2798  17.656   9.874   7.543
    8AU    AUSL 2799  19.420   9.099   7.620
    8AU    AUSL 2800  19.258   9.392   7.929
    8AU     AUL 2801  19.562   9.284   7.995
    8AU    AUSL 2802  19.386   9.471   7.401
    8AU    AUSL 2803  19.384   9.058   7.188
    8AU     AUL 2804  19.630   9.267   7.280
    8AU    AUSL 2805  17.977   9.166   7.586
    8AU    AUSL 2806  18.164   9.362   7.218
    8AU     AUL 2807  17.802   9.256   7.257
    8AU    AUSL 2808  18.067   9.577   7.718
    8AU    AUSL 2809  18.299   9.213   7.869
    8AU     AUL 2810  17.975   9.206   7.917
    8AU    AUSL 2811  18.812  10.487   7.902
    8AU    AUSL 2812  18.361  10.498   7.815
    8AU     AUL 2813  18.588  10.536   8.167
    8AU    AUSL 2814  18.642  10.380   7.517
    8AU    AUSL 2815  18.887  10.491   7.168
    8AU     AUL 2816  18.635  10.727   7.455
    8AU    AUSL 2817  19.078  10.543   7.553
    8AU    AUSL 2818  19.064  10.294   8.188
    8AU     AUL 2819  19.176  10.537   7.915
    8AU    AUSL 2820  18.676   9.026   7.996
    8AU    AUSL 2821  19.100   8.984   7.877
    8AU     AUL 2822  18.854   8.920   8.247
    8AU    AUSL 2823  18.368   8.819   7.725
    8AU    AUSL 2824  18.421   9.187   8.303
    8AU     AUL 2825  18.347   8.905   8.074
    8AU    AUSL 2826  18.807   8.738   7.689
    8AU    AUSL 2827  18.594   8.984   7.387
    8AU     AUL 2828  18.516   8.623   7.489
    8AU    AUSL 2829  18.719  10.318   6.775
    8AU    AUSL 2830  19.283  10.340   7.201
    8AU     AUL 2831  19.037  10.424   6.861
    8AU    AUSL 2832  18.462  10.451   7.130
    8AU    AUSL 2833  18.488  10.023   6.984
    8AU     AUL 2834  18.388  10.290   6.774
    8AU    AUSL 2835  18.819   8.912   7.007
    8AU    AUSL 2836  18.184   8.921   7.296
    8AU     AUL 2837  18.478   8.782   7.051
    8AU    AUSL 2838  19.028   8.968   7.400
    8AU    AUSL 2839  19.050   9.277   7.012
    8AU     AUL 2840  19.135   8.917   6.998
    8AU       S 2841  19.297   8.797   8.284
    8AU     LIG 2842  19.468   8.374   8.342
    8AU     LIG 2843  19.622   7.946   8.367
    8AU     LIG 2844  20.006   7.754   8.549
    8AU       S 2845  19.198   9.543   8.757
    8AU     LIG 2846  19.582   9.763   8.789
    8AU     LIG 2847  19.796   9.750   9.214
    8AU     LIG 2848  19.805   9.605   9.671
    8AU       S 2849  18.852   9.369   8.659
    8AU     LIG 2850  18.859   9.408   9.117
    8AU     LIG 2851  19.235   9.397   9.432
    8AU     LIG 2852  19.463   9.224   9.829
    8AU       S 2853  18.375   9.735   8.647
    8AU     LIG 2854  18.424   9.712   9.100
    8AU     LIG 2855  18.047   9.740   9.335
    8AU     LIG 2856  17.863   9.918   9.736
    8AU       S 2857  18.830  10.301   8.574
    8AU     LIG 2858  19.048  10.657   8.733
    8AU     LIG 2859  19.423  10.559   8.950
    8AU     LIG 2860  19.694  10.217   9.011
    8AU       S 2861  19.561  10.164   8.300
    8AU     LIG 2862  19.895  10.208   8.528
    8AU     LIG 2863  19.981  10.563   8.761
    8AU     LIG 2864  20.249  10.848   8.984
    8AU       S 2865  19.118   9.786   6.317
    8AU     LIG 2866  19.326   9.836   5.893
    8AU     LIG 2867  19.525   9.524   5.631
    8AU     LIG 2868  19.511   9.074   5.582
    8AU       S 2869  19.487  10.411   6.789
    8AU     LIG 2870  19.421  10.723   6.497
    8AU     LIG 2871  19.682  10.883   6.154
    8AU     LIG 2872  20.034  11.169   6.118
    8AU       S 2873  19.690   9.215   6.807
    8AU     LIG 2874  19.873   8.942   6.485
    8AU     LIG 2875  19.728   8.569   6.264
    8AU     LIG 2876  19.742   8.123   6.118
    8AU       S 2877  19.112   9.594   6.266
    8AU     LIG 2878  19.131   9.325   5.917
    8AU     LIG 2879  19.065   9.296   5.466
    8AU     LIG 2880  19.388   9.375   5.138
    8AU       S 2881  18.300   9.448   6.328
    8AU     LIG 2882  18.332   9.546   5.898
    8AU     LIG 2883  18.447   9.417   5.487
    8AU     LIG 2884  18.146   9.306   5.161
    8AU       S 2885  18.864   9.943   6.430
    8AU     LIG 2886  18.662   9.865   6.091
    8AU     LIG 2887  18.830   9.698   5.725
    8AU     LIG 2888  19.145   9.797   5.396
    8AU       S 2889  18.165   9.867   8.702
    8AU     LIG 2890  17.912   9.525   8.801
    8AU     LIG 2891  17.763   9.319   9.147
    8AU     LIG 2892  17.673   9.467   9.573
    8AU       S 2893  18.108  10.484   8.193
    8AU     LIG 2894  17.964  10.622   8.584
    8AU     LIG 2895  17.713  10.514   8.950
    8AU     LIG 2896  17.291  10.643   9.105
    8AU       S 2897  17.928   9.227   8.396
    8AU     LIG 2898  17.505   9.205   8.219
    8AU     LIG 2899  17.205   8.849   8.175
    8AU     LIG 2900  17.106   8.429   8.393
    8AU       S 2901  18.376   9.550   8.603
    8AU     LIG 2902  18.337   9.248   8.930
    8AU     LIG 2903  18.222   9.245   9.364
    8AU     LIG 2904  18.172   9.470   9.764
    8AU       S 2905  18.120   9.375   6.437
    8AU     LIG 2906  17.935   9.173   6.079
    8AU     LIG 2907  17.940   9.322   5.648
    8AU     LIG 2908  18.033   9.738   5.484
    8AU       S 2909  18.086   8.923   6.821
    8AU     LIG 2910  18.221   8.571   6.590
    8AU     LIG 2911  18.044   8.319   6.224
    8AU     LIG 2912  17.614   8.343   6.034
    8AU       S 2913  17.790  10.060   6.726
    8AU     LIG 2914  17.503  10.391   6.818
    8AU     LIG 2915  17.593  10.757   6.565
    8AU     LIG 2916  17.509  10.858   6.114
    8AU       S 2917  18.302   9.728   6.432
    8AU     LIG 2918  18.133   9.971   6.131
    8AU     LIG 2919  18.322  10.076   5.740
    8AU     LIG 2920  18.524   9.916   5.366
    8AU       S 2921  19.607  10.280   6.796
    8AU     LIG 2922  19.843  10.441   6.412
    8AU     LIG 2923  20.158  10.667   6.145
    8AU     LIG 2924  20.587  10.803   6.051
    8AU       S 2925  19.909  10.134   7.650
    8AU     LIG 2926  20.002  10.554   7.603
    8AU     LIG 2927  20.420  10.727   7.587
    8AU     LIG 2928  20.823  10.642   7.374
    8AU       S 2929  19.955   9.954   7.588
    8AU     LIG 2930  20.363  10.193   7.466
    8AU     LIG 2931  20.792  10.131   7.341
    8AU     LIG 2932  21.033  10.320   7.003
    8AU       S 2933  19.889   9.058   7.762
    8AU     LIG 2934  20.242   8.873   7.966
    8AU     LIG 2935  20.658   9.030   7.929
    8AU     LIG 2936  20.752   9.087   7.502
    8AU       S 2937  19.525  10.442   8.218
    8AU     LIG 2938  19.922  10.656   8.250
    8AU     LIG 2939  20.067  11.023   8.518
    8AU     LIG 2940  20.137  11.337   8.875
    8AU       S 2941  19.832   9.877   7.870
    8AU     LIG 2942  20.241  10.202   7.990
    8AU     LIG 2943  20.698  10.354   7.830
    8AU     LIG 2944  21.073  10.659   7.832
    8AU       S 2945  18.006  10.304   8.121
    8AU     LIG 2946  17.765  10.164   8.481
    8AU     LIG 2947  17.345  10.324   8.646
    8AU     LIG 2948  16.983  10.626   8.654
    8AU       S 2949  18.104  10.640   7.376
    8AU     LIG 2950  17.877  10.952   7.140
    8AU     LIG 2951  17.463  11.027   6.977
    8AU     LIG 2952  17.105  10.756   6.871
    8AU       S 2953  17.577   9.812   7.077
    8AU     LIG 2954  17.122   9.840   7.035
    8AU     LIG 2955  16.773  10.135   7.098
    8AU     LIG 2956  16.711  10.567   7.286
    8AU       S 2957  17.980  10.481   6.886
    8AU     LIG 2958  18.105  10.825   6.696
    8AU     LIG 2959  17.925  11.201   6.595
    8AU     LIG 2960  17.486  11.256   6.469
    8AU       S 2961  17.580   9.425   7.650
    8AU     LIG 2962  17.239   9.483   7.399
    8AU     LIG 2963  16.796   9.595   7.381
    8AU     LIG 2964  16.480   9.414   7.123
    8AU       S 2965  17.709   9.913   8.035
    8AU     LIG 2966  17.333  10.113   8.177
    8AU     LIG 2967  16.947  10.391   8.178
    8AU     LIG 2968  16.557  10.443   7.898
    8AU       S 2969  19.582   8.919   7.633
    8AU     LIG 2970  19.826   8.519   7.569
    8AU     LIG 2971  20.190   8.370   7.839
    8AU     LIG 2972  20.642   8.542   7.776
    8AU       S 2973  19.462   8.871   8.140
    8AU     LIG 2974  19.793   8.640   8.055
    8AU     LIG 2975  19.983   8.335   8.318
    8AU     LIG 2976  19.852   8.222   8.742
    8AU       S 2977  19.870   9.017   7.568
    8AU     LIG 2978  20.023   8.886   7.189
    8AU     LIG 2979  20.470   8.891   7.085
    8AU     LIG 2980  20.801   8.638   7.229
    8AU       S 2981  19.597   8.952   6.923
    8AU     LIG 2982  19.726   8.568   6.817
    8AU     LIG 2983  19.594   8.202   6.605
    8AU     LIG 2984  19.662   7.745   6.539
    8AU       S 2985  17.955   9.040   6.888
    8AU     LIG 2986  17.691   9.103   6.553
    8AU     LIG 2987  17.481   8.776   6.332
    8AU     LIG 2988  17.236   8.388   6.421
    8AU       S 2989  17.577   9.189   7.680
    8AU     LIG 2990  17.174   9.023   7.668
    8AU     LIG 2991  16.839   9.064   7.345
    8AU     LIG 2992  16.406   8.894   7.250
    8AU       S 2993  17.967   8.997   8.322
    8AU     LIG 2994  17.699   8.787   7.993
    8AU     LIG 2995  17.416   8.406   7.975
    8AU     LIG 2996  17.450   8.037   8.259
    8AU       S 2997  17.617   9.472   7.814
    8AU     LIG 2998  17.162   9.500   7.916
    8AU     LIG 2999  16.760   9.302   7.809
    8AU     LIG 3000  16.627   8.877   7.761
    8AU       S 3001  18.245  10.663   7.856
    8AU     LIG 3002  17.811  10.760   7.901
    8AU     LIG 3003  17.559  10.595   8.245
    8AU     LIG 3004  17.458  10.829   8.629
    8AU       S 3005  18.812  10.824   7.871
    8AU     LIG 3006  19.022  10.853   8.255
    8AU     LIG 3007  18.953  11.200   8.496
    8AU     LIG 3008  18.761  11.613   8.415
    8AU       S 3009  18.906  11.004   7.762
    8AU     LIG 3010  18.623  11.255   8.035
    8AU     LIG 3011  18.459  11.676   8.005
    8AU     LIG 3012  18.746  12.024   8.054
    8AU       S 3013  18.797  10.804   7.014
    8AU     LIG 3014  18.879  11.226   7.231
    8AU     LIG 3015  19.145  11.642   7.233
    8AU     LIG 3016  19.496  11.855   6.997
    8AU       S 3017  19.293  10.396   8.373
    8AU     LIG 3018  19.503  10.828   8.526
    8AU     LIG 3019  19.725  10.972   8.914
    8AU     LIG 3020  19.841  10.672   9.261
    8AU       S 3021  19.091  10.835   7.545
    8AU     LIG 3022  19.253  11.297   7.619
    8AU     LIG 3023  19.102  11.470   8.043
    8AU     LIG 3024  19.280  11.601   8.477
    8AU       S 3025  18.649   8.533   8.089
    8AU     LIG 3026  19.014   8.248   8.168
    8AU     LIG 3027  19.120   7.816   8.164
    8AU     LIG 3028  18.845   7.503   8.367
    8AU       S 3029  19.235   8.827   7.976
    8AU     LIG 3030  19.362   8.447   7.817
    8AU     LIG 3031  19.707   8.143   7.904
    8AU     LIG 3032  20.097   7.906   8.055
    8AU       S 3033  18.454   8.475   7.926
    8AU     LIG 3034  18.452   8.066   7.905
    8AU     LIG 3035  18.643   7.697   7.924
    8AU     LIG 3036  18.465   7.307   8.030
    8AU       S 3037  18.190   9.122   8.476
    8AU     LIG 3038  17.886   8.911   8.802
    8AU     LIG 3039  17.561   8.531   8.701
    8AU     LIG 3040  17.317   8.092   8.762
    8AU       S 3041  18.923   8.519   7.288
    8AU     LIG 3042  18.969   8.064   7.166
    8AU     LIG 3043  18.719   7.753   6.947
    8AU     LIG 3044  18.828   7.355   6.717
    8AU       S 3045  18.809   8.569   7.862
    8AU     LIG 3046  18.923   8.183   7.669
    8AU     LIG 3047  19.074   7.734   7.647
    8AU     LIG 3048  19.038   7.335   7.918
    8AU       S 3049  18.652  10.687   6.732
    8AU     LIG 3050  18.512  11.125   6.697
    8AU     LIG 3051  18.745  11.473   6.783
    8AU     LIG 3052  19.174  11.553   6.725
    8AU       S 3053  19.434  10.513   7.101
    8AU     LIG 3054  19.822  10.726   7.002
    8AU     LIG 3055  19.994  10.903   6.607
    8AU     LIG 3056  20.419  11.018   6.479
    8AU       S 3057  18.468  10.700   7.007
    8AU     LIG 3058  18.375  11.080   7.194
    8AU     LIG 3059  18.255  11.461   7.002
    8AU     LIG 3060  18.283  11.651   6.589
    8AU       S 3061  18.004  10.104   6.623
    8AU     LIG 3062  17.957  10.449   6.356
    8AU     LIG 3063  18.017  10.874   6.189
    8AU     LIG 3064  17.824  11.272   6.039
    8AU       S 3065  18.008   8.844   7.131
    8AU     LIG 3066  17.659   8.641   6.928
    8AU     LIG 3067  17.712   8.389   6.595
    8AU     LIG 3068  17.658   7.992   6.404
    8AU       S 3069  18.885   8.561   7.138
    8AU     LIG 3070  19.153   8.395   6.823
    8AU     LIG 3071  19.090   7.995   6.643
    8AU     LIG 3072  18.742   7.784   6.420
    8AU       S 3073  19.157   8.653   7.390
    8AU     LIG 3074  19.450   8.385   7.233
    8AU     LIG 3075  19.453   7.969   7.023
    8AU     LIG 3076  19.290   7.558   6.846
    8AU       S 3077  19.420   9.080   6.684
    8AU     LIG 3078  19.290   8.738   6.481
    8AU     LIG 3079  19.233   8.333   6.272
    8AU     LIG 3080  19.291   7.878   6.185
    9AU     AUC 3081  27.220  32.846   7.531
    9AU     AUC 3082  27.467  32.842   7.364
    9AU     AUC 3083  27.466  32.841   7.699
    9AU     AUC 3084  26.954  32.846   7.376
    9AU     AUC 3085  26.978  32.889   7.700
    9AU     AUC 3086  27.058  33.105   7.497
    9AU     AUC 3087  27.394  33.104   7.496
    9AU     AUC 3088  27.050  32.596   7.550
    9AU     AUC 3089  27.378  32.574   7.550
    9AU     AUC 3090  27.221  32.696   7.800
    9AU     AUC 3091  27.231  33.037   7.767
    9AU     AUC 3092  27.211  32.662   7.285
    9AU     AUC 3093  27.226  32.967   7.262
    9AU     AUC 3094  27.778  32.831   7.206
    9AU     AUC 3095  27.786  32.817   7.550
    9AU     AUC 3096  27.760  32.822   7.899
    9AU     AUC 3097  26.654  32.808   7.238
    9AU     AUC 3098  26.648  32.885   7.559
    9AU     AUC 3099  26.682  32.941   7.882
    9AU     AUC 3100  26.897  33.411   7.438
    9AU     AUC 3101  27.253  33.400   7.420
    9AU     AUC 3102  27.587  33.384   7.459
    9AU     AUC 3103  26.855  32.302   7.573
    9AU     AUC 3104  27.200  32.281   7.550
    9AU     AUC 3105  27.549  32.275   7.558
    9AU     AUC 3106  27.191  32.539   8.111
    9AU     AUC 3107  27.219  32.886   8.095
    9AU     AUC 3108  27.271  33.244   8.050
    9AU     AUC 3109  27.248  32.473   7.002
    9AU     AUC 3110  27.196  32.802   6.952
    9AU     AUC 3111  27.180  33.116   6.944
    9AU     AUC 3112  27.467  32.646   8.014
    9AU     AUC 3113  27.511  33.005   7.992
    9AU     AUC 3114  27.519  32.684   7.062
    9AU     AUC 3115  27.474  32.982   7.074
    9AU     AUC 3116  26.932  32.772   8.009
    9AU     AUC 3117  26.974  33.117   7.958
    9AU     AUC 3118  26.937  32.619   7.109
    9AU     AUC 3119  26.890  32.939   7.073
    9AU     AUC 3120  27.703  33.106   7.354
    9AU     AUC 3121  27.665  33.089   7.689
    9AU     AUC 3122  26.755  33.116   7.371
    9AU     AUC 3123  26.809  33.205   7.693
    9AU     AUC 3124  27.680  32.565   7.403
    9AU     AUC 3125  27.630  32.520   7.747
    9AU     AUC 3126  26.759  32.535   7.396
    9AU     AUC 3127  26.784  32.629   7.729
    9AU     AUC 3128  27.124  33.354   7.750
    9AU     AUC 3129  27.433  33.313   7.767
    9AU     AUC 3130  27.027  32.423   7.834
    9AU     AUC 3131  27.335  32.365   7.824
    9AU     AUC 3132  27.022  33.261   7.185
    9AU     AUC 3133  27.385  33.284   7.200
    9AU     AUC 3134  27.070  32.369   7.275
    9AU     AUC 3135  27.432  32.416   7.276
    9AU    AUSL 3136  27.739  32.762   8.301
    9AU    AUSL 3137  27.484  32.368   8.234
    9AU     AUL 3138  27.790  32.406   8.399
    9AU    AUSL 3139  27.324  32.703   8.452
    9AU    AUSL 3140  27.081  33.096   8.442
    9AU     AUL 3141  27.320  33.002   8.717
    9AU    AUSL 3142  27.418  33.056   8.183
    9AU    AUSL 3143  27.871  33.135   8.112
    9AU     AUL 3144  27.701  33.066   8.440
    9AU    AUSL 3145  27.662  32.884   6.823
    9AU    AUSL 3146  27.483  33.256   6.974
    9AU     AUL 3147  27.758  33.216   6.712
    9AU    AUSL 3148  27.460  32.570   6.597
    9AU    AUSL 3149  27.964  32.624   6.985
    9AU     AUL 3150  27.842  32.722   6.645
    9AU    AUSL 3151  27.273  33.014   6.678
    9AU    AUSL 3152  27.096  32.623   6.820
    9AU     AUL 3153  27.197  32.685   6.480
    9AU    AUSL 3154  26.690  33.058   8.231
    9AU    AUSL 3155  27.039  33.358   8.099
    9AU     AUL 3156  26.868  33.330   8.415
    9AU    AUSL 3157  26.990  32.742   8.189
    9AU    AUSL 3158  26.548  32.643   8.132
    9AU     AUL 3159  26.558  32.813   8.331
    9AU    AUSL 3160  26.655  32.601   6.809
    9AU    AUSL 3161  26.910  32.271   6.979
    9AU     AUL 3162  26.939  32.323   6.663
    9AU    AUSL 3163  26.840  32.967   6.663
    9AU    AUSL 3164  26.567  32.967   7.044
    9AU     AUL 3165  26.433  32.806   6.800
    9AU    AUSL 3166  28.012  33.321   7.494
    9AU    AUSL 3167  27.849  33.075   7.157
    9AU     AUL 3168  28.120  33.210   7.045
    9AU    AUSL 3169  28.185  32.908   7.376
    9AU    AUSL 3170  28.143  32.608   7.754
    9AU     AUL 3171  28.434  32.662   7.529
    9AU    AUSL 3172  27.912  32.965   7.727
    9AU    AUSL 3173  27.677  33.359   7.773
    9AU     AUL 3174  28.009  33.350   7.841
    9AU    AUSL 3175  26.649  33.494   7.485
    9AU    AUSL 3176  26.688  33.257   7.851
    9AU     AUL 3177  26.378  33.505   7.702
    9AU    AUSL 3178  26.455  33.100   7.436
    9AU    AUSL 3179  26.585  33.399   7.074
    9AU     AUL 3180  26.358  33.327   7.234
    9AU    AUSL 3181  26.315  33.064   7.879
    9AU    AUSL 3182  26.285  32.711   7.367
    9AU     AUL 3183  26.143  33.049   7.566
    9AU    AUSL 3184  27.902  32.261   7.613
    9AU    AUSL 3185  27.747  32.554   7.928
    9AU     AUL 3186  28.050  32.440   7.986
    9AU    AUSL 3187  27.862  32.634   7.398
    9AU    AUSL 3188  27.855  32.230   7.179
    9AU     AUL 3189  28.104  32.431   7.263
    9AU    AUSL 3190  26.452  32.340   7.589
    9AU    AUSL 3191  26.650  32.536   7.227
    9AU     AUL 3192  26.296  32.434   7.246
    9AU    AUSL 3193  26.549  32.749   7.719
    9AU    AUSL 3194  26.778  32.383   7.869
    9AU     AUL 3195  26.457  32.379   7.920
    9AU    AUSL 3196  27.303  33.649   7.914
    9AU    AUSL 3197  26.851  33.665   7.833
    9AU     AUL 3198  27.084  33.701   8.177
    9AU    AUSL 3199  27.125  33.548   7.531
    9AU    AUSL 3200  27.362  33.668   7.177
    9AU     AUL 3201  27.118  33.898   7.473
    9AU    AUSL 3202  27.559  33.708   7.561
    9AU    AUSL 3203  27.565  33.454   8.189
    9AU     AUL 3204  27.671  33.696   7.920
    9AU    AUSL 3205  27.158  32.203   7.998
    9AU    AUSL 3206  27.584  32.149   7.874
    9AU     AUL 3207  27.339  32.087   8.247
    9AU    AUSL 3208  26.848  31.989   7.730
    9AU    AUSL 3209  26.892  32.351   8.303
    9AU     AUL 3210  26.828  32.072   8.075
    9AU    AUSL 3211  27.284  31.906   7.693
    9AU    AUSL 3212  27.075  32.151   7.389
    9AU     AUL 3213  26.978  31.785   7.501
    9AU    AUSL 3214  27.188  33.499   6.786
    9AU    AUSL 3215  27.750  33.500   7.210
    9AU     AUL 3216  27.522  33.599   6.875
    9AU    AUSL 3217  26.937  33.624   7.148
    9AU    AUSL 3218  26.962  33.199   6.992
    9AU     AUL 3219  26.856  33.465   6.790
    9AU    AUSL 3220  27.301  32.092   7.006
    9AU    AUSL 3221  26.664  32.094   7.302
    9AU     AUL 3222  26.968  31.950   7.062
    9AU    AUSL 3223  27.508  32.132   7.402
    9AU    AUSL 3224  27.526  32.460   7.003
    9AU     AUL 3225  27.616  32.090   7.011
    9AU       S 3226  27.779  31.945   8.273
    9AU     LIG 3227  28.012  31.523   8.311
    9AU     LIG 3228  28.274  31.133   8.348
    9AU     LIG 3229  28.688  31.043   8.591
    9AU       S 3230  27.700  32.695   8.750
    9AU     LIG 3231  28.025  32.958   8.854
    9AU     LIG 3232  28.164  33.007   9.294
    9AU     LIG 3233  28.095  32.853   9.746
    9AU       S 3234  27.364  32.528   8.667
    9AU     LIG 3235  27.347  32.614   9.121
    9AU     LIG 3236  27.699  32.591   9.468
    9AU     LIG 3237  27.978  32.342   9.781
    9AU       S 3238  26.873  32.909   8.677
    9AU     LIG 3239  26.840  32.823   9.144
    9AU     LIG 3240  26.514  32.812   9.470
    9AU     LIG 3241  26.368  32.806   9.928
    9AU       S 3242  27.327  33.463   8.574
    9AU     LIG 3243  27.540  33.808   8.749
    9AU     LIG 3244  27.904  33.694   8.965
    9AU     LIG 3245  28.248  33.418   8.931
    9AU       S 3246  28.064  33.336   8.313
    9AU     LIG 3247  28.454  33.497   8.462
    9AU     LIG 3248  28.537  33.828   8.766
    9AU     LIG 3249  28.764  34.034   9.141
    9AU       S 3250  27.603  33.004   6.334
    9AU     LIG 3251  28.052  32.935   6.228
    9AU     LIG 3252  28.208  32.618   5.955
    9AU     LIG 3253  28.050  32.218   5.783
    9AU       S 3254  27.976  33.621   6.824
    9AU     LIG 3255  27.774  33.924   6.556
    9AU     LIG 3256  27.988  34.181   6.220
    9AU     LIG 3257  28.377  34.139   5.959
    9AU       S 3258  28.142  32.384   6.780
    9AU     LIG 3259  28.178  32.256   6.315
    9AU     LIG 3260  28.137  31.826   6.177
    9AU     LIG 3261  28.317  31.418   6.368
    9AU       S 3262  27.574  32.823   6.268
    9AU     LIG 3263  27.708  32.446   6.119
    9AU     LIG 3264  27.533  32.289   5.711
    9AU     LIG 3265  27.449  32.518   5.309
    9AU       S 3266  26.769  32.622   6.337
    9AU     LIG 3267  26.821  32.693   5.919
    9AU     LIG 3268  26.983  32.533   5.540
    9AU     LIG 3269  26.766  32.394   5.180
    9AU       S 3270  27.356  33.132   6.461
    9AU     LIG 3271  27.128  33.042   6.102
    9AU     LIG 3272  27.347  32.773   5.811
    9AU     LIG 3273  27.786  32.736   5.686
    9AU       S 3274  26.662  33.032   8.719
    9AU     LIG 3275  26.438  32.650   8.834
    9AU     LIG 3276  26.236  32.460   9.184
    9AU     LIG 3277  26.259  32.384   9.639
    9AU       S 3278  26.602  33.655   8.212
    9AU     LIG 3279  26.371  33.954   8.426
    9AU     LIG 3280  26.208  33.890   8.828
    9AU     LIG 3281  25.807  33.898   9.034
    9AU       S 3282  26.371  32.390   8.388
    9AU     LIG 3283  25.954  32.333   8.191
    9AU     LIG 3284  25.681  31.955   8.203
    9AU     LIG 3285  25.513  31.605   8.459
    9AU       S 3286  26.891  32.707   8.632
    9AU     LIG 3287  26.893  32.375   8.913
    9AU     LIG 3288  26.713  32.333   9.330
    9AU     LIG 3289  26.756  32.471   9.768
    9AU       S 3290  26.597  32.571   6.441
    9AU     LIG 3291  26.358  32.435   6.090
    9AU     LIG 3292  26.473  32.429   5.654
    9AU     LIG 3293  26.559  32.814   5.454
    9AU       S 3294  26.572  32.079   6.829
    9AU     LIG 3295  26.577  32.070   6.391
    9AU     LIG 3296  26.370  31.926   6.024
    9AU     LIG 3297  25.997  31.710   5.935
    9AU       S 3298  26.281  33.231   6.739
    9AU     LIG 3299  25.972  33.526   6.804
    9AU     LIG 3300  25.825  33.871   6.539
    9AU     LIG 3301  25.943  34.063   6.134
    9AU       S 3302  26.773  32.912   6.454
    9AU     LIG 3303  26.483  33.023   6.178
    9AU     LIG 3304  26.664  33.181   5.812
    9AU     LIG 3305  27.011  33.066   5.541
    9AU       S 3306  28.166  33.656   7.068
    9AU     LIG 3307  28.432  33.566   6.649
    9AU     LIG 3308  28.551  33.663   6.187
    9AU     LIG 3309  28.847  33.907   5.913
    9AU       S 3310  28.304  33.364   7.480
    9AU     LIG 3311  28.472  33.717   7.650
    9AU     LIG 3312  28.893  33.776   7.785
    9AU     LIG 3313  29.300  33.905   7.744
    9AU       S 3314  28.442  33.126   7.448
    9AU     LIG 3315  28.810  33.404   7.405
    9AU     LIG 3316  29.235  33.545   7.328
    9AU     LIG 3317  29.673  33.506   7.119
    9AU       S 3318  28.380  32.230   7.739
    9AU     LIG 3319  28.787  32.052   7.858
    9AU     LIG 3320  29.268  32.063   7.859
    9AU     LIG 3321  29.703  31.891   7.823
    9AU       S 3322  28.021  33.608   8.217
    9AU     LIG 3323  28.369  33.885   8.132
    9AU     LIG 3324  28.628  34.176   8.357
    9AU     LIG 3325  28.609  34.347   8.772
    9AU       S 3326  28.356  33.065   7.785
    9AU     LIG 3327  28.716  33.314   7.914
    9AU     LIG 3328  29.201  33.371   7.876
    9AU     LIG 3329  29.593  33.411   7.650
    9AU       S 3330  26.497  33.466   8.141
    9AU     LIG 3331  26.185  33.454   8.455
    9AU     LIG 3332  25.807  33.702   8.535
    9AU     LIG 3333  25.432  33.970   8.656
    9AU       S 3334  26.589  33.817   7.406
    9AU     LIG 3335  26.336  34.119   7.206
    9AU     LIG 3336  25.967  34.035   6.998
    9AU     LIG 3337  25.590  33.777   7.016
    9AU       S 3338  26.054  33.003   7.096
    9AU     LIG 3339  25.736  32.821   6.877
    9AU     LIG 3340  25.339  32.933   7.021
    9AU     LIG 3341  25.212  33.363   7.106
    9AU       S 3342  26.449  33.656   6.911
    9AU     LIG 3343  26.532  34.007   6.730
    9AU     LIG 3344  26.201  34.249   6.587
    9AU     LIG 3345  25.798  34.426   6.495
    9AU       S 3346  26.032  32.596   7.613
    9AU     LIG 3347  25.815  32.466   7.236
    9AU     LIG 3348  25.442  32.407   6.992
    9AU     LIG 3349  25.017  32.530   6.991
    9AU       S 3350  26.206  33.058   8.071
    9AU     LIG 3351  25.807  33.093   8.293
    9AU     LIG 3352  25.428  33.366   8.344
    9AU     LIG 3353  25.194  33.705   8.094
    9AU       S 3354  28.059  32.090   7.620
    9AU     LIG 3355  28.237  31.682   7.501
    9AU     LIG 3356  28.663  31.593   7.677
    9AU     LIG 3357  29.019  31.593   8.006
    9AU       S 3358  27.953  32.023   8.122
    9AU     LIG 3359  28.312  31.808   7.998
    9AU     LIG 3360  28.544  31.580   8.291
    9AU     LIG 3361  28.406  31.462   8.723
    9AU       S 3362  28.349  32.177   7.541
    9AU     LIG 3363  28.622  31.932   7.286
    9AU     LIG 3364  29.057  31.932   7.178
    9AU     LIG 3365  29.310  32.312   7.071
    9AU       S 3366  28.069  32.131   6.885
    9AU     LIG 3367  27.958  31.710   6.980
    9AU     LIG 3368  28.026  31.261   6.862
    9AU     LIG 3369  28.020  31.015   6.489
    9AU       S 3370  26.441  32.197   6.885
    9AU     LIG 3371  26.163  32.338   6.597
    9AU     LIG 3372  25.938  32.108   6.276
    9AU     LIG 3373  25.578  31.800   6.233
    9AU       S 3374  26.068  32.380   7.674
    9AU     LIG 3375  25.768  32.124   7.693
    9AU     LIG 3376  25.540  32.033   7.326
    9AU     LIG 3377  25.102  32.040   7.168
    9AU       S 3378  26.441  32.159   8.317
    9AU     LIG 3379  26.198  31.953   7.958
    9AU     LIG 3380  25.920  31.582   7.954
    9AU     LIG 3381  25.948  31.360   8.353
    9AU       S 3382  26.098  32.640   7.809
    9AU     LIG 3383  25.666  32.721   7.939
    9AU     LIG 3384  25.435  32.368   8.039
    9AU     LIG 3385  25.267  32.077   7.751
    9AU       S 3386  26.728  33.832   7.884
    9AU     LIG 3387  26.332  34.040   7.885
    9AU     LIG 3388  25.956  34.096   8.158
    9AU     LIG 3389  25.880  34.211   8.605
    9AU       S 3390  27.313  33.998   7.884
    9AU     LIG 3391  27.523  34.016   8.275
    9AU     LIG 3392  27.462  34.348   8.580
    9AU     LIG 3393  27.146  34.715   8.605
    9AU       S 3394  27.444  34.151   7.757
    9AU     LIG 3395  27.018  34.379   7.683
    9AU     LIG 3396  26.949  34.817   7.856
    9AU     LIG 3397  27.202  35.061   8.216
    9AU       S 3398  27.265  33.965   7.023
    9AU     LIG 3399  27.338  34.297   7.267
    9AU     LIG 3400  27.540  34.609   7.145
    9AU     LIG 3401  27.713  34.634   6.746
    9AU       S 3402  27.790  33.555   8.377
    9AU     LIG 3403  28.002  33.979   8.543
    9AU     LIG 3404  28.173  34.131   8.951
    9AU     LIG 3405  28.312  33.828   9.280
    9AU       S 3406  27.594  33.957   7.532
    9AU     LIG 3407  27.798  34.374   7.502
    9AU     LIG 3408  27.453  34.639   7.674
    9AU     LIG 3409  27.306  34.540   8.112
    9AU       S 3410  27.130  31.702   8.095
    9AU     LIG 3411  27.518  31.463   8.182
    9AU     LIG 3412  27.702  31.082   8.280
    9AU     LIG 3413  27.493  30.671   8.351
    9AU       S 3414  27.716  31.990   7.969
    9AU     LIG 3415  27.851  31.610   7.824
    9AU     LIG 3416  28.207  31.315   7.868
    9AU     LIG 3417  28.674  31.187   8.006
    9AU       S 3418  26.939  31.634   7.940
    9AU     LIG 3419  26.998  31.198   7.842
    9AU     LIG 3420  27.269  30.831   7.904
    9AU     LIG 3421  27.065  30.464   8.049
    9AU       S 3422  26.668  32.307   8.470
    9AU     LIG 3423  26.421  32.126   8.817
    9AU     LIG 3424  26.060  31.871   8.644
    9AU     LIG 3425  25.854  31.501   8.840
    9AU       S 3426  27.370  31.699   7.276
    9AU     LIG 3427  27.084  31.346   7.119
    9AU     LIG 3428  27.239  30.988   6.890
    9AU     LIG 3429  27.323  30.532   6.990
    9AU       S 3430  27.282  31.745   7.866
    9AU     LIG 3431  27.410  31.399   7.661
    9AU     LIG 3432  27.685  31.102   7.751
    9AU     LIG 3433  27.814  30.730   7.937
    9AU       S 3434  27.132  33.853   6.745
    9AU     LIG 3435  26.982  34.268   6.711
    9AU     LIG 3436  27.195  34.632   6.764
    9AU     LIG 3437  27.375  34.957   6.529
    9AU       S 3438  27.899  33.680   7.174
    9AU     LIG 3439  27.825  34.111   7.047
    9AU     LIG 3440  28.107  34.268   6.717
    9AU     LIG 3441  28.422  34.062   6.474
    9AU       S 3442  26.934  33.872   7.026
    9AU     LIG 3443  26.834  34.249   7.209
    9AU     LIG 3444  26.994  34.675   7.227
    9AU     LIG 3445  26.994  35.077   6.951
    9AU       S 3446  26.473  33.280   6.641
    9AU     LIG 3447  26.303  33.647   6.417
    9AU     LIG 3448  26.455  34.011   6.204
    9AU     LIG 3449  26.309  34.439   6.113
    9AU       S 3450  26.489  32.012   7.138
    9AU     LIG 3451  26.012  32.006   7.045
    9AU     LIG 3452  25.862  31.764   6.672
    9AU     LIG 3453  25.919  31.400   6.344
    9AU       S 3454  27.393  31.712   7.124
    9AU     LIG 3455  27.532  31.420   6.816
    9AU     LIG 3456  27.500  31.084   6.464
    9AU     LIG 3457  27.406  30.608   6.462
    9AU       S 3458  27.641  31.815   7.396
    9AU     LIG 3459  27.813  31.410   7.352
    9AU     LIG 3460  27.653  31.074   7.170
    9AU     LIG 3461  27.705  30.803   6.829
    9AU       S 3462  27.848  32.263   6.667
    9AU     LIG 3463  27.706  31.874   6.561
    9AU     LIG 3464  27.816  31.484   6.400
    9AU     LIG 3465  27.876  31.211   6.035
   10AU     AUC 3466  16.753  29.240   7.527
   10AU     AUC 3467  17.004  29.248   7.362
   10AU     AUC 3468  16.996  29.247   7.698
   10AU     AUC 3469  16.488  29.229   7.370
   10AU     AUC 3470  16.507  29.274   7.692
   10AU     AUC 3471  16.582  29.493   7.489
   10AU     AUC 3472  16.917  29.506   7.492
   10AU     AUC 3473  16.594  28.983   7.546
   10AU     AUC 3474  16.924  28.977   7.549
   10AU     AUC 3475  16.758  29.091   7.795
   10AU     AUC 3476  16.752  29.433   7.761
   10AU     AUC 3477  16.756  29.057   7.283
   10AU     AUC 3478  16.758  29.360   7.257
   10AU     AUC 3479  17.318  29.254   7.210
   10AU     AUC 3480  17.320  29.242   7.554
   10AU     AUC 3481  17.285  29.242   7.905
   10AU     AUC 3482  16.191  29.177   7.230
   10AU     AUC 3483  16.180  29.256   7.552
   10AU     AUC 3484  16.210  29.317   7.867
   10AU     AUC 3485  16.409  29.793   7.426
   10AU     AUC 3486  16.766  29.793   7.412
   10AU     AUC 3487  17.101  29.793   7.450
   10AU     AUC 3488  16.413  28.683   7.568
   10AU     AUC 3489  16.761  28.676   7.545
   10AU     AUC 3490  17.112  28.685   7.558
   10AU     AUC 3491  16.733  28.933   8.105
   10AU     AUC 3492  16.741  29.282   8.091
   10AU     AUC 3493  16.778  29.642   8.045
   10AU     AUC 3494  16.802  28.870   7.003
   10AU     AUC 3495  16.738  29.193   6.949
   10AU     AUC 3496  16.709  29.505   6.936
   10AU     AUC 3497  17.000  29.052   8.014
   10AU     AUC 3498  17.026  29.410   7.994
   10AU     AUC 3499  17.067  29.090   7.065
   10AU     AUC 3500  17.008  29.385   7.071
   10AU     AUC 3501  16.466  29.155   8.004
   10AU     AUC 3502  16.490  29.506   7.947
   10AU     AUC 3503  16.483  29.002   7.105
   10AU     AUC 3504  16.424  29.319   7.066
   10AU     AUC 3505  17.230  29.525   7.352
   10AU     AUC 3506  17.180  29.503   7.690
   10AU     AUC 3507  16.279  29.491   7.361
   10AU     AUC 3508  16.327  29.586   7.682
   10AU     AUC 3509  17.231  28.985   7.410
   10AU     AUC 3510  17.175  28.935   7.749
   10AU     AUC 3511  16.305  28.912   7.393
   10AU     AUC 3512  16.326  29.004   7.725
   10AU     AUC 3513  16.635  29.746   7.741
   10AU     AUC 3514  16.943  29.715   7.763
   10AU     AUC 3515  16.580  28.809   7.830
   10AU     AUC 3516  16.887  28.763   7.820
   10AU     AUC 3517  16.543  29.646   7.176
   10AU     AUC 3518  16.906  29.682   7.195
   10AU     AUC 3519  16.624  28.760   7.271
   10AU     AUC 3520  16.990  28.821   7.276
   10AU    AUSL 3521  17.258  29.178   8.309
   10AU    AUSL 3522  17.021  28.779   8.232
   10AU     AUL 3523  17.315  28.832   8.413
   10AU    AUSL 3524  16.842  29.103   8.453
   10AU    AUSL 3525  16.588  29.491   8.434
   10AU     AUL 3526  16.811  29.402   8.721
   10AU    AUSL 3527  16.928  29.457   8.181
   10AU    AUSL 3528  17.377  29.554   8.122
   10AU     AUL 3529  17.194  29.478   8.448
   10AU    AUSL 3530  17.200  29.286   6.821
   10AU    AUSL 3531  17.006  29.654   6.969
   10AU     AUL 3532  17.282  29.606   6.708
   10AU    AUSL 3533  17.013  28.956   6.601
   10AU    AUSL 3534  17.518  29.054   6.995
   10AU     AUL 3535  17.380  29.107   6.645
   10AU    AUSL 3536  16.810  29.405   6.669
   10AU    AUSL 3537  16.646  29.011   6.818
   10AU     AUL 3538  16.755  29.073   6.481
   10AU    AUSL 3539  16.203  29.434   8.214
   10AU    AUSL 3540  16.546  29.751   8.089
   10AU     AUL 3541  16.370  29.714   8.400
   10AU    AUSL 3542  16.517  29.134   8.179
   10AU    AUSL 3543  16.093  29.003   8.136
   10AU     AUL 3544  16.049  29.209   8.295
   10AU    AUSL 3545  16.207  28.973   6.801
   10AU    AUSL 3546  16.468  28.653   6.974
   10AU     AUL 3547  16.511  28.701   6.659
   10AU    AUSL 3548  16.380  29.344   6.653
   10AU    AUSL 3549  16.099  29.334   7.032
   10AU     AUL 3550  15.983  29.182   6.778
   10AU    AUSL 3551  17.508  29.757   7.496
   10AU    AUSL 3552  17.385  29.496   7.147
   10AU     AUL 3553  17.674  29.677   7.084
   10AU    AUSL 3554  17.717  29.354   7.394
   10AU    AUSL 3555  17.679  29.050   7.773
   10AU     AUL 3556  17.971  29.121   7.574
   10AU    AUSL 3557  17.434  29.395   7.734
   10AU    AUSL 3558  17.179  29.770   7.781
   10AU     AUL 3559  17.514  29.769   7.847
   10AU    AUSL 3560  16.157  29.867   7.470
   10AU    AUSL 3561  16.202  29.635   7.837
   10AU     AUL 3562  15.884  29.868   7.678
   10AU    AUSL 3563  15.984  29.461   7.424
   10AU    AUSL 3564  16.103  29.766   7.059
   10AU     AUL 3565  15.873  29.680   7.216
   10AU    AUSL 3566  15.835  29.428   7.858
   10AU    AUSL 3567  15.827  29.066   7.367
   10AU     AUL 3568  15.665  29.396   7.545
   10AU    AUSL 3569  17.460  28.693   7.621
   10AU    AUSL 3570  17.283  28.975   7.933
   10AU     AUL 3571  17.585  28.875   8.009
   10AU    AUSL 3572  17.409  29.063   7.406
   10AU    AUSL 3573  17.428  28.657   7.187
   10AU     AUL 3574  17.666  28.878   7.282
   10AU    AUSL 3575  16.012  28.703   7.586
   10AU    AUSL 3576  16.196  28.907   7.220
   10AU     AUL 3577  15.843  28.795   7.243
   10AU    AUSL 3578  16.086  29.114   7.722
   10AU    AUSL 3579  16.334  28.755   7.869
   10AU     AUL 3580  16.015  28.743   7.929
   10AU    AUSL 3581  16.804  30.050   7.901
   10AU    AUSL 3582  16.348  30.049   7.819
   10AU     AUL 3583  16.569  30.094   8.161
   10AU    AUSL 3584  16.631  29.939   7.521
   10AU    AUSL 3585  16.868  30.056   7.168
   10AU     AUL 3586  16.618  30.287   7.463
   10AU    AUSL 3587  17.068  30.105   7.548
   10AU    AUSL 3588  17.054  29.863   8.192
   10AU     AUL 3589  17.172  30.106   7.911
   10AU    AUSL 3590  16.720  28.581   7.989
   10AU    AUSL 3591  17.147  28.560   7.878
   10AU     AUL 3592  16.905  28.483   8.247
   10AU    AUSL 3593  16.423  28.367   7.719
   10AU    AUSL 3594  16.468  28.736   8.301
   10AU     AUL 3595  16.397  28.444   8.066
   10AU    AUSL 3596  16.868  28.304   7.680
   10AU    AUSL 3597  16.641  28.542   7.381
   10AU     AUL 3598  16.568  28.175   7.492
   10AU    AUSL 3599  16.701  29.885   6.776
   10AU    AUSL 3600  17.272  29.924   7.179
   10AU     AUL 3601  17.010  29.987   6.857
   10AU    AUSL 3602  16.444  30.007   7.136
   10AU    AUSL 3603  16.488  29.580   6.985
   10AU     AUL 3604  16.374  29.853   6.785
   10AU    AUSL 3605  16.869  28.499   6.996
   10AU    AUSL 3606  16.231  28.467   7.297
   10AU     AUL 3607  16.537  28.338   7.054
   10AU    AUSL 3608  17.075  28.547   7.392
   10AU    AUSL 3609  17.089  28.871   7.012
   10AU     AUL 3610  17.185  28.527   6.976
   10AU       S 3611  17.360  28.386   8.273
   10AU     LIG 3612  17.466  27.949   8.300
   10AU     LIG 3613  17.566  27.630   8.658
   10AU     LIG 3614  17.774  27.400   9.054
   10AU       S 3615  17.205  29.115   8.763
   10AU     LIG 3616  17.609  29.268   8.775
   10AU     LIG 3617  17.824  29.241   9.192
   10AU     LIG 3618  17.823  29.005   9.612
   10AU       S 3619  16.866  28.930   8.658
   10AU     LIG 3620  16.904  28.920   9.122
   10AU     LIG 3621  17.304  28.840   9.403
   10AU     LIG 3622  17.574  28.542   9.676
   10AU       S 3623  16.374  29.280   8.649
   10AU     LIG 3624  16.389  29.254   9.118
   10AU     LIG 3625  16.043  29.151   9.416
   10AU     LIG 3626  15.781  29.198   9.811
   10AU       S 3627  16.816  29.864   8.576
   10AU     LIG 3628  17.045  30.187   8.767
   10AU     LIG 3629  17.382  30.036   9.017
   10AU     LIG 3630  17.699  29.724   9.003
   10AU       S 3631  17.537  29.764   8.319
   10AU     LIG 3632  17.870  29.663   8.522
   10AU     LIG 3633  18.019  30.022   8.717
   10AU     LIG 3634  18.277  30.356   8.885
   10AU       S 3635  17.139  29.398   6.326
   10AU     LIG 3636  17.515  29.466   6.094
   10AU     LIG 3637  17.584  29.008   6.043
   10AU     LIG 3638  17.530  28.601   5.843
   10AU       S 3639  17.436  30.059   6.747
   10AU     LIG 3640  17.325  29.928   6.316
   10AU     LIG 3641  17.624  30.085   5.995
   10AU     LIG 3642  17.973  30.413   5.955
   10AU       S 3643  17.742  28.835   6.810
   10AU     LIG 3644  17.863  28.721   6.359
   10AU     LIG 3645  17.863  28.319   6.142
   10AU     LIG 3646  17.885  27.872   6.272
   10AU       S 3647  17.128  29.205   6.256
   10AU     LIG 3648  17.088  28.819   6.084
   10AU     LIG 3649  17.008  28.633   5.684
   10AU     LIG 3650  17.036  28.787   5.251
   10AU       S 3651  16.330  28.994   6.331
   10AU     LIG 3652  16.561  28.855   5.972
   10AU     LIG 3653  16.560  28.840   5.508
   10AU     LIG 3654  16.245  28.972   5.197
   10AU       S 3655  16.890  29.525   6.436
   10AU     LIG 3656  16.665  29.355   6.065
   10AU     LIG 3657  16.904  29.160   5.731
   10AU     LIG 3658  17.327  29.037   5.608
   10AU       S 3659  16.172  29.406   8.694
   10AU     LIG 3660  15.841  29.151   8.731
   10AU     LIG 3661  15.789  28.843   9.017
   10AU     LIG 3662  15.630  28.831   9.450
   10AU       S 3663  16.091  30.022   8.196
   10AU     LIG 3664  15.826  30.204   8.512
   10AU     LIG 3665  15.711  30.176   8.960
   10AU     LIG 3666  15.332  30.232   9.227
   10AU       S 3667  15.990  28.765   8.424
   10AU     LIG 3668  15.578  28.758   8.235
   10AU     LIG 3669  15.300  28.400   8.177
   10AU     LIG 3670  15.328  28.032   8.442
   10AU       S 3671  16.383  29.098   8.601
   10AU     LIG 3672  16.364  28.791   8.935
   10AU     LIG 3673  16.151  28.655   9.325
   10AU     LIG 3674  16.025  28.734   9.776
   10AU       S 3675  16.146  28.907   6.446
   10AU     LIG 3676  15.947  28.787   6.079
   10AU     LIG 3677  16.099  28.998   5.715
   10AU     LIG 3678  15.915  29.305   5.439
   10AU       S 3679  16.138  28.459   6.818
   10AU     LIG 3680  15.965  28.367   6.408
   10AU     LIG 3681  15.697  28.313   6.051
   10AU     LIG 3682  15.267  28.166   5.971
   10AU       S 3683  15.792  29.594   6.727
   10AU     LIG 3684  15.471  29.892   6.843
   10AU     LIG 3685  15.474  30.304   6.638
   10AU     LIG 3686  15.539  30.446   6.202
   10AU       S 3687  16.320  29.276   6.439
   10AU     LIG 3688  16.001  29.352   6.179
   10AU     LIG 3689  16.183  29.513   5.818
   10AU     LIG 3690  16.458  29.349   5.497
   10AU       S 3691  17.546  29.982   6.786
   10AU     LIG 3692  17.792  29.775   6.456
   10AU     LIG 3693  18.104  29.941   6.145
   10AU     LIG 3694  18.450  30.194   5.934
   10AU       S 3695  17.832  29.816   7.512
   10AU     LIG 3696  18.034  30.121   7.660
   10AU     LIG 3697  18.449  30.154   7.768
   10AU     LIG 3698  18.762  30.120   7.465
   10AU       S 3699  17.955  29.577   7.469
   10AU     LIG 3700  18.353  29.754   7.404
   10AU     LIG 3701  18.767  29.596   7.263
   10AU     LIG 3702  19.056  29.889   7.059
   10AU       S 3703  17.924  28.675   7.769
   10AU     LIG 3704  18.182  28.434   8.014
   10AU     LIG 3705  18.606  28.439   7.899
   10AU     LIG 3706  18.770  28.277   7.535
   10AU       S 3707  17.511  30.025   8.223
   10AU     LIG 3708  17.957  30.009   8.152
   10AU     LIG 3709  18.173  30.345   8.344
   10AU     LIG 3710  17.958  30.659   8.608
   10AU       S 3711  17.895  29.536   7.794
   10AU     LIG 3712  18.323  29.431   7.807
   10AU     LIG 3713  18.684  29.674   7.793
   10AU     LIG 3714  18.888  30.004   8.006
   10AU       S 3715  15.993  29.832   8.122
   10AU     LIG 3716  15.793  29.692   8.492
   10AU     LIG 3717  15.400  29.906   8.664
   10AU     LIG 3718  15.002  30.092   8.836
   10AU       S 3719  16.092  30.194   7.389
   10AU     LIG 3720  15.814  30.509   7.228
   10AU     LIG 3721  15.430  30.334   7.142
   10AU     LIG 3722  15.267  29.907   7.326
   10AU       S 3723  15.590  29.331   7.076
   10AU     LIG 3724  15.157  29.364   7.162
   10AU     LIG 3725  14.891  29.695   7.019
   10AU     LIG 3726  14.974  30.148   6.970
   10AU       S 3727  15.954  30.020   6.900
   10AU     LIG 3728  16.032  30.397   6.772
   10AU     LIG 3729  15.789  30.732   6.737
   10AU     LIG 3730  15.391  30.805   6.529
   10AU       S 3731  15.586  28.938   7.623
   10AU     LIG 3732  15.253  28.843   7.330
   10AU     LIG 3733  14.812  28.962   7.204
   10AU     LIG 3734  14.422  28.851   7.004
   10AU       S 3735  15.702  29.433   8.040
   10AU     LIG 3736  15.346  29.516   8.317
   10AU     LIG 3737  15.044  29.864   8.286
   10AU     LIG 3738  15.007  30.006   7.865
   10AU       S 3739  17.621  28.545   7.631
   10AU     LIG 3740  17.734  28.214   7.412
   10AU     LIG 3741  18.177  28.191   7.551
   10AU     LIG 3742  18.437  27.953   7.869
   10AU       S 3743  17.541  28.435   8.101
   10AU     LIG 3744  17.825  28.079   7.926
   10AU     LIG 3745  18.050  27.914   8.261
   10AU     LIG 3746  17.829  28.141   8.605
   10AU       S 3747  17.917  28.645   7.576
   10AU     LIG 3748  18.085  28.572   7.201
   10AU     LIG 3749  18.465  28.324   7.120
   10AU     LIG 3750  18.913  28.510   7.102
   10AU       S 3751  17.661  28.553   6.933
   10AU     LIG 3752  17.907  28.178   6.927
   10AU     LIG 3753  17.736  27.780   6.955
   10AU     LIG 3754  17.608  27.561   6.589
   10AU       S 3755  16.002  28.564   6.883
   10AU     LIG 3756  15.699  28.746   6.632
   10AU     LIG 3757  15.384  28.591   6.343
   10AU     LIG 3758  15.041  28.292   6.418
   10AU       S 3759  15.631  28.713   7.672
   10AU     LIG 3760  15.327  28.437   7.659
   10AU     LIG 3761  15.104  28.284   7.293
   10AU     LIG 3762  14.725  28.448   7.111
   10AU       S 3763  16.026  28.534   8.334
   10AU     LIG 3764  15.779  28.335   7.998
   10AU     LIG 3765  15.642  27.941   7.988
   10AU     LIG 3766  15.583  27.610   8.297
   10AU       S 3767  15.653  28.991   7.804
   10AU     LIG 3768  15.279  29.098   7.991
   10AU     LIG 3769  14.999  28.770   7.945
   10AU     LIG 3770  14.848  28.612   7.578
   10AU       S 3771  16.189  30.216   7.882
   10AU     LIG 3772  15.705  30.256   7.959
   10AU     LIG 3773  15.365  30.278   8.291
   10AU     LIG 3774  15.340  30.460   8.719
   10AU       S 3775  16.805  30.385   7.875
   10AU     LIG 3776  16.995  30.432   8.272
   10AU     LIG 3777  16.956  30.891   8.370
   10AU     LIG 3778  16.736  31.305   8.450
   10AU       S 3779  16.959  30.547   7.761
   10AU     LIG 3780  16.604  30.818   7.748
   10AU     LIG 3781  16.529  31.178   7.983
   10AU     LIG 3782  16.793  31.535   7.981
   10AU       S 3783  16.772  30.360   7.021
   10AU     LIG 3784  16.757  30.745   7.248
   10AU     LIG 3785  16.940  31.124   7.075
   10AU     LIG 3786  17.261  31.214   6.729
   10AU       S 3787  17.269  29.969   8.373
   10AU     LIG 3788  17.535  30.313   8.612
   10AU     LIG 3789  17.765  30.371   8.995
   10AU     LIG 3790  17.997  30.076   9.252
   10AU       S 3791  17.082  30.383   7.524
   10AU     LIG 3792  17.179  30.881   7.494
   10AU     LIG 3793  17.039  31.085   7.878
   10AU     LIG 3794  17.202  31.344   8.224
   10AU       S 3795  16.723  28.090   8.081
   10AU     LIG 3796  17.037  27.736   8.134
   10AU     LIG 3797  17.101  27.387   8.428
   10AU     LIG 3798  16.805  27.043   8.578
   10AU       S 3799  17.291  28.419   7.979
   10AU     LIG 3800  17.348  28.058   7.782
   10AU     LIG 3801  17.469  27.661   7.836
   10AU     LIG 3802  17.724  27.536   8.180
   10AU       S 3803  16.535  28.014   7.927
   10AU     LIG 3804  16.580  27.570   7.952
   10AU     LIG 3805  16.437  27.274   8.275
   10AU     LIG 3806  16.288  26.899   8.455
   10AU       S 3807  16.258  28.653   8.473
   10AU     LIG 3808  16.012  28.410   8.815
   10AU     LIG 3809  15.737  28.011   8.753
   10AU     LIG 3810  15.415  27.644   8.789
   10AU       S 3811  16.958  28.108   7.258
   10AU     LIG 3812  16.659  27.763   7.161
   10AU     LIG 3813  16.681  27.409   6.851
   10AU     LIG 3814  16.643  27.005   6.615
   10AU       S 3815  16.869  28.134   7.865
   10AU     LIG 3816  16.935  27.778   7.620
   10AU     LIG 3817  17.030  27.398   7.746
   10AU     LIG 3818  16.872  27.141   8.052
   10AU       S 3819  16.627  30.261   6.742
   10AU     LIG 3820  16.558  30.726   6.691
   10AU     LIG 3821  16.741  31.146   6.569
   10AU     LIG 3822  16.721  31.489   6.234
   10AU       S 3823  17.420  30.096   7.108
   10AU     LIG 3824  17.901  30.128   7.089
   10AU     LIG 3825  18.063  30.193   6.640
   10AU     LIG 3826  18.339  30.469   6.366
   10AU       S 3827  16.445  30.273   7.015
   10AU     LIG 3828  16.281  30.693   7.108
   10AU     LIG 3829  16.428  31.153   7.005
   10AU     LIG 3830  16.433  31.535   6.690
   10AU       S 3831  16.006  29.650   6.622
   10AU     LIG 3832  15.890  30.050   6.401
   10AU     LIG 3833  16.038  30.488   6.278
   10AU     LIG 3834  15.858  30.913   6.259
   10AU       S 3835  16.055  28.384   7.131
   10AU     LIG 3836  15.566  28.430   7.067
   10AU     LIG 3837  15.477  28.225   6.686
   10AU     LIG 3838  15.587  27.921   6.367
   10AU       S 3839  16.974  28.139   7.098
   10AU     LIG 3840  17.262  27.948   6.819
   10AU     LIG 3841  17.130  27.694   6.473
   10AU     LIG 3842  16.899  27.349   6.340
   10AU       S 3843  17.207  28.241   7.352
   10AU     LIG 3844  17.369  27.816   7.330
   10AU     LIG 3845  17.121  27.529   7.117
   10AU     LIG 3846  17.192  27.280   6.755
   10AU       S 3847  17.514  28.669   6.701
   10AU     LIG 3848  17.396  28.492   6.347
   10AU     LIG 3849  17.412  28.061   6.259
   10AU     LIG 3850  17.461  27.648   6.063
   11POPC   NC3 3851   2.470   6.403   9.799
   11POPC   PO4 3852   3.042   6.749   9.583
   11POPC   GL1 3853   2.957   6.596   9.140
   11POPC   GL2 3854   2.800   6.838   9.098
   11POPC   C1A 3855   2.746   6.409   8.737
   11POPC   D2A 3856   2.623   6.545   8.339
   11POPC   C3A 3857   2.973   6.602   8.078
   11POPC   C4A 3858   2.864   6.430   7.697
   11POPC   C1B 3859   2.790   6.927   8.686
   11POPC   C2B 3860   3.057   7.121   8.398
   11POPC   C3B 3861   2.966   7.107   7.988
   11POPC   C4B 3862   2.620   6.883   7.728
   12POPC   NC3 3863   4.484  18.783   9.471
   12POPC   PO4 3864   4.005  19.284   9.626
   12POPC   GL1 3865   4.221  19.220   9.257
   12POPC   GL2 3866   4.002  19.440   9.099
   12POPC   C1A 3867   4.170  18.938   8.868
   12POPC   D2A 3868   4.360  18.747   8.471
   12POPC   C3A 3869   4.388  18.865   8.017
   12POPC   C4A 3870   3.979  18.839   7.833
   12POPC   C1B 3871   4.323  19.428   8.771
   12POPC   C2B 3872   4.393  19.268   8.352
   12POPC   C3B 3873   4.296  19.393   7.930
   12POPC   C4B 3874   3.935  19.362   7.683
   13POPC   NC3 3875   5.700  18.357   9.498
   13POPC   PO4 3876   6.391  18.494   9.647
   13POPC   GL1 3877   6.172  18.392   9.207
   13POPC   GL2 3878   6.022  18.058   9.145
   13POPC   C1A 3879   6.048  18.411   8.732
   13POPC   D2A 3880   6.223  18.471   8.296
   13POPC   C3A 3881   6.040  18.517   7.846
   13POPC   C4A 3882   6.176  18.515   7.354
   13POPC   C1B 3883   5.850  17.925   8.726
   13POPC   C2B 3884   5.743  18.144   8.325
   13POPC   C3B 3885   5.711  18.116   7.873
   13POPC   C4B 3886   5.762  18.236   7.453
   14POPC   NC3 3887   4.593  11.832   9.597
   14POPC   PO4 3888   4.507  11.088   9.629
   14POPC   GL1 3889   4.433  11.293   9.233
   14POPC   GL2 3890   4.628  11.037   9.048
   14POPC   C1A 3891   4.145  11.440   8.876
   14POPC   D2A 3892   3.943  11.511   8.453
   14POPC   C3A 3893   4.093  11.339   8.065
   14POPC   C4A 3894   4.213  11.530   7.675
   14POPC   C1B 3895   4.691  11.387   8.777
   14POPC   C2B 3896   4.477  11.586   8.430
   14POPC   C3B 3897   4.584  11.488   8.019
   14POPC   C4B 3898   4.529  11.111   7.793
   15POPC   NC3 3899  39.490   2.658   9.404
   15POPC   PO4 3900  38.819   2.618   9.634
   15POPC   GL1 3901  39.021   2.734   9.227
   15POPC   GL2 3902  39.151   3.068   9.259
   15POPC   C1A 3903  39.184   2.639   8.807
   15POPC   D2A 3904  39.206   2.391   8.432
   15POPC   C3A 3905  39.261   2.638   8.064
   15POPC   C4A 3906  39.541   2.577   7.736
   15POPC   C1B 3907  39.099   3.176   8.820
   15POPC   C2B 3908  39.208   3.021   8.414
   15POPC   C3B 3909  39.056   3.104   7.992
   15POPC   C4B 3910  39.004   2.923   7.583
   16POPC   NC3 3911  29.962   9.493   9.625
   16POPC   PO4 3912  29.691  10.115   9.453
   16POPC   GL1 3913  29.939   9.821   9.231
   16POPC   GL2 3914  29.774   9.512   9.165
   16POPC   C1A 3915  30.022   9.876   8.823
   16POPC   D2A 3916  29.861  10.043   8.456
   16POPC   C3A 3917  30.055   9.822   8.106
   16POPC   C4A 3918  29.976   9.932   7.691
   16POPC   C1B 3919  30.118   9.378   8.909
   16POPC   C2B 3920  30.210   9.493   8.493
   16POPC   C3B 3921  30.074   9.327   8.104
   16POPC   C4B 3922  30.142   9.443   7.731
   17POPC   NC3 3923  13.193  14.547   9.313
   17POPC   PO4 3924  12.714  14.631   9.806
   17POPC   GL1 3925  12.677  14.464   9.335
   17POPC   GL2 3926  12.703  14.107   9.219
   17POPC   C1A 3927  12.715  14.499   8.858
   17POPC   D2A 3928  12.816  14.579   8.414
   17POPC   C3A 3929  13.004  14.310   8.090
   17POPC   C4A 3930  13.134  14.290   7.662
   17POPC   C1B 3931  12.803  14.015   8.755
   17POPC   C2B 3932  12.597  14.083   8.331
   17POPC   C3B 3933  12.586  14.084   7.856
   17POPC   C4B 3934  12.704  14.150   7.389
   18POPC   NC3 3935   2.992  40.204   9.475
   18POPC   PO4 3936   2.785  39.614   9.385
   18POPC   GL1 3937   2.856  39.924   9.065
   18POPC   GL2 3938   2.595  40.203   9.119
   18POPC   C1A 3939   2.729  40.029   8.639
   18POPC   D2A 3940   2.422  40.026   8.315
   18POPC   C3A 3941   2.575  39.806   7.945
   18POPC   C4A 3942   3.049  39.853   7.877
   18POPC   C1B 3943   2.573  40.509   8.776
   18POPC   C2B 3944   2.728  40.477   8.353
   18POPC   C3B 3945   2.752  40.276   7.973
   18POPC   C4B 3946   2.500  40.182   7.581
   19POPC   NC3 3947  40.082   2.469   9.667
   19POPC   PO4 3948  40.308   3.071   9.636
   19POPC   GL1 3949  40.210   2.914   9.221
   19POPC   GL2 3950  40.315   2.545   9.230
   19POPC   C1A 3951  39.967   2.707   8.887
   19POPC   D2A 3952  39.645   2.648   8.575
   19POPC   C3A 3953  39.778   2.675   8.164
   19POPC   C4A 3954  39.708   3.041   7.882
   19POPC   C1B 3955  40.377   2.389   8.827
   19POPC   C2B 3956  40.557   2.455   8.416
   19POPC   C3B 3957  40.300   2.723   8.153
   19POPC   C4B 3958  40.107   2.685   7.752
   20POPC   NC3 3959  23.844  23.167   9.619
   20POPC   PO4 3960  23.461  22.910   9.179
   20POPC   GL1 3961  23.716  23.257   9.060
   20POPC   GL2 3962  24.024  23.115   9.145
   20POPC   C1A 3963  23.694  23.400   8.606
   20POPC   D2A 3964  23.404  23.225   8.248
   20POPC   C3A 3965  23.567  22.976   7.911
   20POPC   C4A 3966  23.941  23.127   7.776
   20POPC   C1B 3967  24.015  22.989   8.707
   20POPC   C2B 3968  23.966  22.961   8.250
   20POPC   C3B 3969  24.023  22.646   7.877
   20POPC   C4B 3970  23.984  22.489   7.437
   21POPC   NC3 3971  26.582  39.413   9.720
   21POPC   PO4 3972  26.880  38.843   9.714
   21POPC   GL1 3973  26.766  39.004   9.249
   21POPC   GL2 3974  26.776  39.367   9.227
   21POPC   C1A 3975  26.656  38.951   8.812
   21POPC   D2A 3976  26.734  39.149   8.427
   21POPC   C3A 3977  26.690  39.113   7.997
   21POPC   C4A 3978  27.072  39.386   7.936
   21POPC   C1B 3979  26.633  39.506   8.812
   21POPC   C2B 3980  26.447  39.587   8.391
   21POPC   C3B 3981  26.394  39.550   7.944
   21POPC   C4B 3982  26.695  39.469   7.611
   22POPC   NC3 3983   1.732   2.817   9.529
   22POPC   PO4 3984   1.044   2.649   9.540
   22POPC   GL1 3985   1.237   2.764   9.154
   22POPC   GL2 3986   1.495   2.557   9.059
   22POPC   C1A 3987   1.034   2.897   8.758
   22POPC   D2A 3988   1.205   3.037   8.386
   22POPC   C3A 3989   1.082   2.800   8.072
   22POPC   C4A 3990   1.073   3.024   7.712
   22POPC   C1B 3991   1.451   2.597   8.635
   22POPC   C2B 3992   1.711   2.841   8.386
   22POPC   C3B 3993   1.573   2.950   7.997
   22POPC   C4B 3994   1.460   2.676   7.664
   23POPC   NC3 3995   7.811  16.834   9.922
   23POPC   PO4 3996   7.410  16.545   9.482
   23POPC   GL1 3997   7.358  16.667   9.100
   23POPC   GL2 3998   7.382  17.017   9.067
   23POPC   C1A 3999   7.142  16.644   8.735
   23POPC   D2A 4000   7.175  16.421   8.394
   23POPC   C3A 4001   7.120  16.657   8.083
   23POPC   C4A 4002   7.351  16.854   7.805
   23POPC   C1B 4003   7.652  16.853   8.731
   23POPC   C2B 4004   7.538  16.816   8.333
   23POPC   C3B 4005   7.661  16.543   8.035
   23POPC   C4B 4006   7.881  16.533   7.676
   24POPC   NC3 4007  31.873   4.645   9.538
   24POPC   PO4 4008  32.468   4.295   9.655
   24POPC   GL1 4009  32.304   4.417   9.263
   24POPC   GL2 4010  32.377   4.762   9.341
   24POPC   C1A 4011  32.038   4.373   8.864
   24POPC   D2A 4012  32.155   4.346   8.423
   24POPC   C3A 4013  31.962   4.264   8.038
   24POPC   C4A 4014  32.245   4.222   7.688
   24POPC   C1B 4015  32.367   4.792   8.895
   24POPC   C2B 4016  32.440   4.778   8.457
   24POPC   C3B 4017  32.129   4.770   8.115
   24POPC   C4B 4018  32.209   4.747   7.688
   25POPC   NC3 4019   4.775   9.693   9.813
   25POPC   PO4 4020   5.356   9.801   9.599
   25POPC   GL1 4021   5.137   9.664   9.244
   25POPC   GL2 4022   5.424   9.427   9.215
   25POPC   C1A 4023   4.905   9.880   8.871
   25POPC   D2A 4024   4.702   9.969   8.456
   25POPC   C3A 4025   4.954   9.816   8.117
   25POPC   C4A 4026   5.019   9.685   7.712
   25POPC   C1B 4027   5.341   9.323   8.781
   25POPC   C2B 4028   5.257   9.508   8.387
   25POPC   C3B 4029   5.449   9.558   7.966
   25POPC   C4B 4030   5.728   9.603   7.582
   26POPC   NC3 4031  27.017  17.378   9.302
   26POPC   PO4 4032  26.680  17.849   9.624
   26POPC   GL1 4033  26.666  17.711   9.177
   26POPC   GL2 4034  26.502  17.402   9.044
   26POPC   C1A 4035  26.773  17.734   8.746
   26POPC   D2A 4036  26.878  17.738   8.320
   26POPC   C3A 4037  26.701  17.387   8.076
   26POPC   C4A 4038  26.723  17.649   7.759
   26POPC   C1B 4039  26.810  17.195   8.737
   26POPC   C2B 4040  27.105  17.294   8.429
   26POPC   C3B 4041  27.183  17.478   7.986
   26POPC   C4B 4042  27.005  17.260   7.607
   27POPC   NC3 4043  11.381  35.556   9.447
   27POPC   PO4 4044  11.437  34.856   9.573
   27POPC   GL1 4045  11.351  35.041   9.227
   27POPC   GL2 4046  11.680  35.200   9.253
   27POPC   C1A 4047  11.299  35.284   8.849
   27POPC   D2A 4048  11.276  35.453   8.473
   27POPC   C3A 4049  11.231  35.178   8.109
   27POPC   C4A 4050  11.163  35.439   7.746
   27POPC   C1B 4051  11.717  34.985   8.883
   27POPC   C2B 4052  11.590  34.892   8.484
   27POPC   C3B 4053  11.543  34.766   8.085
   27POPC   C4B 4054  11.586  35.034   7.742
   28POPC   NC3 4055  34.549  24.873   9.543
   28POPC   PO4 4056  34.447  24.173   9.476
   28POPC   GL1 4057  34.522  24.415   9.117
   28POPC   GL2 4058  34.681  24.740   9.088
   28POPC   C1A 4059  34.436  24.509   8.696
   28POPC   D2A 4060  34.562  24.508   8.325
   28POPC   C3A 4061  34.233  24.401   8.103
   28POPC   C4A 4062  34.225  24.515   7.732
   28POPC   C1B 4063  34.855  24.934   8.745
   28POPC   C2B 4064  35.016  24.809   8.355
   28POPC   C3B 4065  34.825  24.749   7.960
   28POPC   C4B 4066  34.815  24.607   7.550
   29POPC   NC3 4067  32.783  19.110   9.597
   29POPC   PO4 4068  33.426  18.948   9.444
   29POPC   GL1 4069  32.986  18.884   9.185
   29POPC   GL2 4070  32.585  18.901   9.172
   29POPC   C1A 4071  32.910  18.863   8.745
   29POPC   D2A 4072  33.310  18.875   8.520
   29POPC   C3A 4073  33.248  18.899   8.103
   29POPC   C4A 4074  33.106  18.651   7.788
   29POPC   C1B 4075  32.485  19.176   8.813
   29POPC   C2B 4076  32.734  19.264   8.441
   29POPC   C3B 4077  32.763  19.056   8.037
   29POPC   C4B 4078  32.902  19.094   7.608
   30POPC   NC3 4079  39.468   9.716   9.498
   30POPC   PO4 4080  38.884   9.846   9.666
   30POPC   GL1 4081  39.057   9.820   9.232
   30POPC   GL2 4082  39.276  10.137   9.242
   30POPC   C1A 4083  39.016   9.512   8.835
   30POPC   D2A 4084  39.043   9.657   8.414
   30POPC   C3A 4085  39.349   9.473   8.165
   30POPC   C4A 4086  39.255   9.598   7.796
   30POPC   C1B 4087  39.343   9.918   8.826
   30POPC   C2B 4088  39.550   9.884   8.437
   30POPC   C3B 4089  39.544  10.115   8.077
   30POPC   C4B 4090  39.267  10.106   7.775
   31POPC   NC3 4091  28.251  39.413   9.651
   31POPC   PO4 4092  28.746  38.924   9.744
   31POPC   GL1 4093  28.482  39.156   9.305
   31POPC   GL2 4094  28.489  39.493   9.191
   31POPC   C1A 4095  28.444  39.161   8.812
   31POPC   D2A 4096  28.409  39.501   8.488
   31POPC   C3A 4097  28.485  39.378   8.063
   31POPC   C4A 4098  28.415  39.018   7.809
   31POPC   C1B 4099  28.110  39.539   8.935
   31POPC   C2B 4100  27.931  39.665   8.544
   31POPC   C3B 4101  27.962  39.397   8.208
   31POPC   C4B 4102  27.970  39.337   7.791
   32POPC   NC3 4103  20.044  20.888   9.518
   32POPC   PO4 4104  19.845  20.247   9.581
   32POPC   GL1 4105  19.821  20.530   9.226
   32POPC   GL2 4106  20.154  20.428   9.207
   32POPC   C1A 4107  19.647  20.705   8.824
   32POPC   D2A 4108  19.821  20.898   8.433
   32POPC   C3A 4109  19.653  20.795   8.018
   32POPC   C4A 4110  19.839  20.719   7.596
   32POPC   C1B 4111  20.147  20.687   8.848
   32POPC   C2B 4112  20.186  20.503   8.430
   32POPC   C3B 4113  20.096  20.564   8.010
   32POPC   C4B 4114  20.238  20.394   7.624
   33POPC   NC3 4115  30.179   4.540   9.450
   33POPC   PO4 4116  30.731   4.120   9.443
   33POPC   GL1 4117  30.755   4.419   9.083
   33POPC   GL2 4118  30.440   4.574   9.004
   33POPC   C1A 4119  30.860   4.478   8.640
   33POPC   D2A 4120  31.111   4.562   8.283
   33POPC   C3A 4121  30.973   4.435   7.875
   33POPC   C4A 4122  31.007   4.010   7.900
   33POPC   C1B 4123  30.459   4.187   8.725
   33POPC   C2B 4124  30.562   4.228   8.260
   33POPC   C3B 4125  30.516   4.148   7.816
   33POPC   C4B 4126  30.368   4.095   7.376
   34POPC   NC3 4127  38.112  29.296   9.516
   34POPC   PO4 4128  38.551  28.793   9.498
   34POPC   GL1 4129  38.403  29.030   9.177
   34POPC   GL2 4130  38.573  29.328   9.059
   34POPC   C1A 4131  38.510  28.934   8.765
   34POPC   D2A 4132  38.358  29.012   8.393
   34POPC   C3A 4133  38.635  28.936   8.080
   34POPC   C4A 4134  38.545  29.130   7.723
   34POPC   C1B 4135  38.469  29.529   8.658
   34POPC   C2B 4136  38.505  29.470   8.197
   34POPC   C3B 4137  38.649  29.634   7.768
   34POPC   C4B 4138  38.803  29.404   7.388
   35POPC   NC3 4139  30.319  13.615   9.381
   35POPC   PO4 4140  29.764  13.917   9.445
   35POPC   GL1 4141  30.020  13.940   9.113
   35POPC   GL2 4142  29.918  13.583   9.060
   35POPC   C1A 4143  30.125  13.853   8.690
   35POPC   D2A 4144  29.885  13.562   8.463
   35POPC   C3A 4145  30.031  13.645   8.073
   35POPC   C4A 4146  29.876  13.832   7.715
   35POPC   C1B 4147  29.615  13.291   8.883
   35POPC   C2B 4148  29.500  13.194   8.462
   35POPC   C3B 4149  29.572  13.335   8.071
   35POPC   C4B 4150  29.830  13.304   7.743
   36POPC   NC3 4151  24.265  16.015   9.393
   36POPC   PO4 4152  24.929  16.041   9.633
   36POPC   GL1 4153  24.783  16.049   9.183
   36POPC   GL2 4154  24.564  16.323   9.093
   36POPC   C1A 4155  24.645  15.965   8.732
   36POPC   D2A 4156  24.329  15.757   8.435
   36POPC   C3A 4157  24.534  15.828   8.028
   36POPC   C4A 4158  24.696  15.779   7.612
   36POPC   C1B 4159  24.232  16.264   8.742
   36POPC   C2B 4160  24.347  16.246   8.321
   36POPC   C3B 4161  24.212  16.207   7.922
   36POPC   C4B 4162  24.451  16.205   7.531
   37POPC   NC3 4163  22.096  32.852   9.683
   37POPC   PO4 4164  22.617  32.493   9.511
   37POPC   GL1 4165  22.303  32.824   9.225
   37POPC   GL2 4166  21.960  33.036   9.234
   37POPC   C1A 4167  22.385  32.918   8.772
   37POPC   D2A 4168  22.539  32.880   8.330
   37POPC   C3A 4169  22.359  32.960   7.897
   37POPC   C4A 4170  22.276  32.688   7.506
   37POPC   C1B 4171  21.866  32.805   8.870
   37POPC   C2B 4172  21.933  32.914   8.444
   37POPC   C3B 4173  21.994  32.676   8.089
   37POPC   C4B 4174  21.810  32.787   7.734
   38POPC   NC3 4175   9.592  43.489   9.385
   38POPC   PO4 4176  10.052  43.144   9.691
   38POPC   GL1 4177   9.939  43.182   9.176
   38POPC   GL2 4178   9.911  42.848   8.996
   38POPC   C1A 4179   9.599  43.247   8.782
   38POPC   D2A 4180   9.473  43.279   8.323
   38POPC   C3A 4181   9.396  43.362   7.884
   38POPC   C4A 4182   9.465  43.049   7.542
   38POPC   C1B 4183  10.060  43.115   8.655
   38POPC   C2B 4184   9.987  43.356   8.260
   38POPC   C3B 4185   9.878  43.188   7.846
   38POPC   C4B 4186   9.974  42.955   7.439
   39POPC   NC3 4187  44.573  42.643   9.290
   39POPC   PO4 4188  44.534  43.230   9.580
   39POPC   GL1 4189  44.619  43.233   9.176
   39POPC   GL2 4190  44.901  43.058   9.218
   39POPC   C1A 4191  44.433  43.237   8.779
   39POPC   D2A 4192  44.537  42.952   8.443
   39POPC   C3A 4193  44.514  43.183   8.081
   39POPC   C4A 4194  44.519  42.924   7.743
   39POPC   C1B 4195  44.913  43.056   8.773
   39POPC   C2B 4196   0.066  42.925   8.344
   39POPC   C3B 4197  44.976  43.010   7.916
   39POPC   C4B 4198  44.918  42.982   7.449
   40POPC   NC3 4199  37.760  40.500   9.374
   40POPC   PO4 4200  37.525  41.092   9.559
   40POPC   GL1 4201  37.588  40.922   9.147
   40POPC   GL2 4202  37.856  41.049   8.989
   40POPC   C1A 4203  37.531  40.728   8.729
   40POPC   D2A 4204  37.341  40.857   8.327
   40POPC   C3A 4205  37.518  40.721   7.946
   40POPC   C4A 4206  37.778  40.369   7.879
   40POPC   C1B 4207  38.084  40.800   8.695
   40POPC   C2B 4208  37.956  40.644   8.315
   40POPC   C3B 4209  38.130  40.760   7.957
   40POPC   C4B 4210  38.056  40.946   7.624
   41POPC   NC3 4211  15.740  39.632   9.765
   41POPC   PO4 4212  15.573  40.199   9.676
   41POPC   GL1 4213  15.320  40.110   9.268
   41POPC   GL2 4214  15.066  40.347   9.210
   41POPC   C1A 4215  15.301  39.948   8.818
   41POPC   D2A 4216  15.298  40.132   8.391
   41POPC   C3A 4217  15.346  39.906   7.982
   41POPC   C4A 4218  15.181  39.972   7.556
   41POPC   C1B 4219  15.017  40.360   8.778
   41POPC   C2B 4220  14.784  40.228   8.402
   41POPC   C3B 4221  15.001  40.283   7.996
   41POPC   C4B 4222  14.814  40.346   7.619
   42POPC   NC3 4223   3.305   2.111   9.257
   42POPC   PO4 4224   3.648   1.746   9.698
   42POPC   GL1 4225   3.783   1.776   9.195
   42POPC   GL2 4226   4.002   2.117   9.035
   42POPC   C1A 4227   3.589   1.674   8.744
   42POPC   D2A 4228   3.283   1.768   8.403
   42POPC   C3A 4229   3.467   1.976   8.058
   42POPC   C4A 4230   3.846   2.117   7.843
   42POPC   C1B 4231   3.726   2.152   8.711
   42POPC   C2B 4232   3.758   2.325   8.325
   42POPC   C3B 4233   3.514   2.526   8.059
   42POPC   C4B 4234   3.323   2.337   7.730
   43POPC   NC3 4235  35.104  39.254   9.520
   43POPC   PO4 4236  35.756  39.337   9.368
   43POPC   GL1 4237  35.423  39.054   9.177
   43POPC   GL2 4238  35.300  39.366   9.054
   43POPC   C1A 4239  35.136  39.023   8.763
   43POPC   D2A 4240  35.257  39.429   8.524
   43POPC   C3A 4241  35.277  39.451   8.081
   43POPC   C4A 4242  35.167  39.208   7.733
   43POPC   C1B 4243  35.636  39.178   8.744
   43POPC   C2B 4244  35.574  38.970   8.372
   43POPC   C3B 4245  35.597  39.039   7.955
   43POPC   C4B 4246  35.724  39.353   7.684
   44POPC   NC3 4247  34.764  18.542   9.398
   44POPC   PO4 4248  34.299  17.986   9.448
   44POPC   GL1 4249  34.443  18.200   9.073
   44POPC   GL2 4250  34.738  18.308   8.954
   44POPC   C1A 4251  34.303  18.244   8.657
   44POPC   D2A 4252  34.406  18.139   8.242
   44POPC   C3A 4253  34.278  18.148   7.825
   44POPC   C4A 4254  34.225  18.066   7.379
   44POPC   C1B 4255  34.864  18.109   8.603
   44POPC   C2B 4256  34.916  18.154   8.159
   44POPC   C3B 4257  34.842  18.447   7.847
   44POPC   C4B 4258  34.880  18.772   7.509
   45POPC   NC3 4259  39.520  11.638   9.504
   45POPC   PO4 4260  39.020  12.110   9.626
   45POPC   GL1 4261  39.000  11.933   9.175
   45POPC   GL2 4262  39.154  11.639   9.139
   45POPC   C1A 4263  39.001  12.153   8.756
   45POPC   D2A 4264  39.267  12.233   8.397
   45POPC   C3A 4265  39.049  12.113   8.073
   45POPC   C4A 4266  39.161  11.890   7.751
   45POPC   C1B 4267  39.437  11.950   8.917
   45POPC   C2B 4268  39.633  11.930   8.524
   45POPC   C3B 4269  39.612  12.012   8.072
   45POPC   C4B 4270  39.877  11.816   7.757
   46POPC   NC3 4271  32.787  11.022   9.595
   46POPC   PO4 4272  33.073  11.684   9.561
   46POPC   GL1 4273  32.879  11.408   9.221
   46POPC   GL2 4274  33.023  11.092   9.155
   46POPC   C1A 4275  32.723  11.386   8.797
   46POPC   D2A 4276  32.936  11.561   8.433
   46POPC   C3A 4277  32.692  11.636   8.113
   46POPC   C4A 4278  32.865  11.548   7.729
   46POPC   C1B 4279  33.200  11.239   8.786
   46POPC   C2B 4280  32.983  11.067   8.420
   46POPC   C3B 4281  32.853  11.140   8.047
   46POPC   C4B 4282  32.959  11.041   7.651
   47POPC   NC3 4283  21.661   7.495   9.472
   47POPC   PO4 4284  21.093   7.869   9.491
   47POPC   GL1 4285  21.260   7.636   9.127
   47POPC   GL2 4286  21.326   7.285   9.117
   47POPC   C1A 4287  21.387   7.740   8.710
   47POPC   D2A 4288  21.370   7.549   8.312
   47POPC   C3A 4289  21.038   7.718   8.042
   47POPC   C4A 4290  21.124   7.873   7.605
   47POPC   C1B 4291  21.602   7.288   8.738
   47POPC   C2B 4292  21.775   7.217   8.352
   47POPC   C3B 4293  21.568   7.106   7.993
   47POPC   C4B 4294  21.357   7.428   7.803
   48POPC   NC3 4295  41.809  22.225   9.542
   48POPC   PO4 4296  41.196  22.560   9.403
   48POPC   GL1 4297  41.474  22.317   9.146
   48POPC   GL2 4298  41.627  21.984   9.153
   48POPC   C1A 4299  41.687  22.299   8.766
   48POPC   D2A 4300  41.505  22.214   8.398
   48POPC   C3A 4301  41.308  22.473   8.111
   48POPC   C4A 4302  41.460  22.290   7.727
   48POPC   C1B 4303  41.486  21.812   8.789
   48POPC   C2B 4304  41.396  21.685   8.412
   48POPC   C3B 4305  41.440  21.870   8.035
   48POPC   C4B 4306  41.511  21.767   7.650
   49POPC   NC3 4307  21.760  36.588   9.499
   49POPC   PO4 4308  21.116  36.931   9.414
   49POPC   GL1 4309  21.440  36.800   9.159
   49POPC   GL2 4310  21.332  36.474   9.221
   49POPC   C1A 4311  21.556  36.919   8.743
   49POPC   D2A 4312  21.685  37.147   8.362
   49POPC   C3A 4313  21.514  36.949   7.990
   49POPC   C4A 4314  21.256  37.060   7.630
   49POPC   C1B 4315  21.096  36.615   8.832
   49POPC   C2B 4316  21.127  36.776   8.420
   49POPC   C3B 4317  21.107  36.630   7.989
   49POPC   C4B 4318  21.132  36.601   7.510
   50POPC   NC3 4319  25.935   1.273   9.571
   50POPC   PO4 4320  26.385   0.710   9.449
   50POPC   GL1 4321  26.333   1.022   9.131
   50POPC   GL2 4322  25.971   0.960   9.170
   50POPC   C1A 4323  26.132   1.084   8.721
   50POPC   D2A 4324  25.885   1.011   8.363
   50POPC   C3A 4325  26.116   1.238   8.026
   50POPC   C4A 4326  26.098   1.257   7.596
   50POPC   C1B 4327  25.640   1.163   8.886
   50POPC   C2B 4328  25.513   1.370   8.483
   50POPC   C3B 4329  25.632   1.365   8.017
   50POPC   C4B 4330  25.639   1.613   7.623
   51POPC   NC3 4331  25.538  18.674   9.458
   51POPC   PO4 4332  25.025  18.280   9.594
   51POPC   GL1 4333  25.225  18.194   9.225
   51POPC   GL2 4334  24.960  17.954   9.153
   51POPC   C1A 4335  25.477  18.288   8.868
   51POPC   D2A 4336  25.324  18.267   8.455
   51POPC   C3A 4337  25.564  18.228   8.107
   51POPC   C4A 4338  25.479  18.403   7.724
   51POPC   C1B 4339  24.940  18.268   8.796
   51POPC   C2B 4340  24.824  18.222   8.353
   51POPC   C3B 4341  24.974  18.377   7.943
   51POPC   C4B 4342  25.040  18.346   7.484
   52POPC   NC3 4343   9.078  37.008   9.534
   52POPC   PO4 4344   8.643  36.453   9.381
   52POPC   GL1 4345   8.890  36.719   9.104
   52POPC   GL2 4346   8.791  37.059   9.113
   52POPC   C1A 4347   8.896  36.821   8.659
   52POPC   D2A 4348   8.867  36.538   8.312
   52POPC   C3A 4349   9.170  36.646   8.015
   52POPC   C4A 4350   9.126  36.647   7.590
   52POPC   C1B 4351   8.549  37.197   8.786
   52POPC   C2B 4352   8.691  37.345   8.405
   52POPC   C3B 4353   8.943  37.087   8.164
   52POPC   C4B 4354   8.820  36.981   7.770
   53POPC   NC3 4355  32.542  20.632   9.318
   53POPC   PO4 4356  31.948  20.402   9.346
   53POPC   GL1 4357  32.125  20.601   9.004
   53POPC   GL2 4358  31.953  20.903   8.911
   53POPC   C1A 4359  32.227  20.401   8.585
   53POPC   D2A 4360  32.019  20.253   8.200
   53POPC   C3A 4361  32.260  20.371   7.838
   53POPC   C4A 4362  32.250  20.455   7.404
   53POPC   C1B 4363  32.325  20.894   8.635
   53POPC   C2B 4364  32.398  20.735   8.199
   53POPC   C3B 4365  32.745  20.487   7.982
   53POPC   C4B 4366  32.803  20.362   7.545
   54POPC   NC3 4367   0.597   3.386   9.365
   54POPC   PO4 4368  44.913   3.654   9.508
   54POPC   GL1 4369   0.193   3.698   9.154
   54POPC   GL2 4370   0.096   3.361   9.018
   54POPC   C1A 4371   0.293   3.680   8.687
   54POPC   D2A 4372   0.019   3.549   8.321
   54POPC   C3A 4373   0.263   3.584   7.934
   54POPC   C4A 4374   0.662   3.766   7.814
   54POPC   C1B 4375   0.391   3.101   8.715
   54POPC   C2B 4376   0.650   2.967   8.348
   54POPC   C3B 4377   0.625   3.195   7.962
   54POPC   C4B 4378   0.361   3.171   7.616
   55POPC   NC3 4379  22.238   4.061   9.502
   55POPC   PO4 4380  21.976   4.674   9.618
   55POPC   GL1 4381  22.067   4.473   9.243
   55POPC   GL2 4382  21.896   4.160   9.115
   55POPC   C1A 4383  22.351   4.453   8.908
   55POPC   D2A 4384  22.255   4.318   8.497
   55POPC   C3A 4385  22.302   4.329   8.043
   55POPC   C4A 4386  22.523   4.299   7.648
   55POPC   C1B 4387  21.849   4.487   8.764
   55POPC   C2B 4388  21.795   4.351   8.325
   55POPC   C3B 4389  21.849   4.095   7.944
   55POPC   C4B 4390  22.037   4.208   7.559
   56POPC   NC3 4391   5.643  34.591   9.462
   56POPC   PO4 4392   6.286  34.525   9.383
   56POPC   GL1 4393   6.009  34.689   9.048
   56POPC   GL2 4394   5.715  34.464   8.988
   56POPC   C1A 4395   5.927  34.638   8.581
   56POPC   D2A 4396   5.985  34.297   8.373
   56POPC   C3A 4397   6.034  34.437   7.995
   56POPC   C4A 4398   5.897  34.706   7.701
   56POPC   C1B 4399   5.502  34.332   8.634
   56POPC   C2B 4400   5.494  34.525   8.234
   56POPC   C3B 4401   5.456  34.476   7.806
   56POPC   C4B 4402   5.367  34.153   7.553
   57POPC   NC3 4403   1.490  16.050   9.587
   57POPC   PO4 4404   0.762  16.045   9.595
   57POPC   GL1 4405   1.097  16.123   9.245
   57POPC   GL2 4406   1.359  15.843   9.142
   57POPC   C1A 4407   1.082  16.231   8.780
   57POPC   D2A 4408   0.939  16.007   8.379
   57POPC   C3A 4409   1.086  16.117   7.962
   57POPC   C4A 4410   1.027  15.979   7.535
   57POPC   C1B 4411   1.334  15.788   8.695
   57POPC   C2B 4412   1.456  15.994   8.314
   57POPC   C3B 4413   1.469  15.756   7.947
   57POPC   C4B 4414   1.495  15.737   7.518
   58POPC   NC3 4415  40.645  19.893   9.495
   58POPC   PO4 4416  41.106  19.662   9.835
   58POPC   GL1 4417  41.072  19.589   9.285
   58POPC   GL2 4418  40.775  19.684   9.062
   58POPC   C1A 4419  41.157  19.446   8.833
   58POPC   D2A 4420  41.188  19.608   8.388
   58POPC   C3A 4421  40.844  19.733   8.105
   58POPC   C4A 4422  40.858  19.787   7.653
   58POPC   C1B 4423  40.920  19.942   8.701
   58POPC   C2B 4424  40.860  20.261   8.363
   58POPC   C3B 4425  40.814  20.252   7.910
   58POPC   C4B 4426  40.480  20.216   7.643
   59POPC   NC3 4427  41.413  29.576   9.199
   59POPC   PO4 4428  41.449  30.204   9.428
   59POPC   GL1 4429  41.646  30.023   9.101
   59POPC   GL2 4430  41.989  30.002   9.150
   59POPC   C1A 4431  41.520  29.955   8.682
   59POPC   D2A 4432  41.290  30.086   8.355
   59POPC   C3A 4433  41.506  30.013   8.013
   59POPC   C4A 4434  41.590  29.671   7.740
   59POPC   C1B 4435  41.978  29.730   8.780
   59POPC   C2B 4436  41.878  29.816   8.336
   59POPC   C3B 4437  41.981  29.922   7.922
   59POPC   C4B 4438  41.885  30.346   7.834
   60POPC   NC3 4439  25.843  35.523   9.463
   60POPC   PO4 4440  26.407  35.029   9.391
   60POPC   GL1 4441  26.132  35.258   9.105
   60POPC   GL2 4442  26.176  35.632   9.116
   60POPC   C1A 4443  26.104  35.098   8.690
   60POPC   D2A 4444  26.198  34.947   8.282
   60POPC   C3A 4445  26.054  35.145   7.912
   60POPC   C4A 4446  25.846  35.084   7.506
   60POPC   C1B 4447  26.056  35.602   8.711
   60POPC   C2B 4448  26.081  35.459   8.326
   60POPC   C3B 4449  25.819  35.581   8.027
   60POPC   C4B 4450  25.970  35.614   7.620
   61POPC   NC3 4451  13.957  40.870   9.330
   61POPC   PO4 4452  14.469  40.933   9.666
   61POPC   GL1 4453  14.445  40.686   9.232
   61POPC   GL2 4454  14.390  40.964   9.084
   61POPC   C1A 4455  14.207  40.555   8.812
   61POPC   D2A 4456  14.013  40.427   8.384
   61POPC   C3A 4457  14.130  40.629   7.998
   61POPC   C4A 4458  14.281  40.698   7.575
   61POPC   C1B 4459  14.447  41.186   8.739
   61POPC   C2B 4460  14.441  41.343   8.370
   61POPC   C3B 4461  14.424  41.100   8.016
   61POPC   C4B 4462  14.355  41.194   7.610
   62POPC   NC3 4463  37.226   1.414   9.738
   62POPC   PO4 4464  36.805   0.966   9.547
   62POPC   GL1 4465  37.023   1.074   9.182
   62POPC   GL2 4466  36.946   0.757   9.065
   62POPC   C1A 4467  37.121   1.343   8.804
   62POPC   D2A 4468  37.340   1.245   8.404
   62POPC   C3A 4469  37.204   1.321   7.959
   62POPC   C4A 4470  36.793   1.499   7.773
   62POPC   C1B 4471  36.825   0.918   8.686
   62POPC   C2B 4472  36.757   0.842   8.271
   62POPC   C3B 4473  36.726   0.993   7.854
   62POPC   C4B 4474  36.588   0.975   7.412
   63POPC   NC3 4475  22.749  33.576   9.554
   63POPC   PO4 4476  23.199  34.065   9.650
   63POPC   GL1 4477  23.030  34.072   9.178
   63POPC   GL2 4478  22.772  33.800   9.105
   63POPC   C1A 4479  23.107  33.860   8.747
   63POPC   D2A 4480  23.142  33.596   8.391
   63POPC   C3A 4481  23.007  33.743   7.997
   63POPC   C4A 4482  23.291  33.632   7.674
   63POPC   C1B 4483  22.645  34.109   8.799
   63POPC   C2B 4484  22.749  34.016   8.367
   63POPC   C3B 4485  22.700  34.179   7.934
   63POPC   C4B 4486  22.541  34.046   7.545
   64POPC   NC3 4487   6.762   6.981   9.491
   64POPC   PO4 4488   6.322   6.489   9.547
   64POPC   GL1 4489   6.632   6.546   9.212
   64POPC   GL2 4490   6.529   6.847   9.075
   64POPC   C1A 4491   6.832   6.560   8.801
   64POPC   D2A 4492   6.740   6.376   8.400
   64POPC   C3A 4493   6.763   6.672   8.091
   64POPC   C4A 4494   6.830   6.633   7.664
   64POPC   C1B 4495   6.259   6.945   8.767
   64POPC   C2B 4496   6.351   6.851   8.369
   64POPC   C3B 4497   6.345   7.049   7.989
   64POPC   C4B 4498   6.515   7.026   7.624
   65POPC   NC3 4499  38.173   1.604   9.480
   65POPC   PO4 4500  38.789   1.846   9.558
   65POPC   GL1 4501  38.499   1.853   9.153
   65POPC   GL2 4502  38.397   2.181   9.039
   65POPC   C1A 4503  38.475   1.861   8.678
   65POPC   D2A 4504  38.391   2.248   8.387
   65POPC   C3A 4505  38.456   2.089   7.972
   65POPC   C4A 4506  38.710   1.803   7.744
   65POPC   C1B 4507  38.052   2.126   8.758
   65POPC   C2B 4508  38.027   1.893   8.414
   65POPC   C3B 4509  37.961   1.998   8.000
   65POPC   C4B 4510  38.118   1.900   7.603
   66POPC   NC3 4511  33.171  27.588   9.625
   66POPC   PO4 4512  32.585  27.725   9.400
   66POPC   GL1 4513  32.943  27.674   9.121
   66POPC   GL2 4514  33.245  27.427   9.125
   66POPC   C1A 4515  32.843  27.618   8.682
   66POPC   D2A 4516  32.687  27.332   8.381
   66POPC   C3A 4517  32.832  27.491   7.974
   66POPC   C4A 4518  33.120  27.766   7.754
   66POPC   C1B 4519  33.341  27.723   8.777
   66POPC   C2B 4520  33.225  27.705   8.315
   66POPC   C3B 4521  33.390  27.416   7.991
   66POPC   C4B 4522  33.608  27.514   7.627
   67POPC   NC3 4523  15.881  23.606   9.570
   67POPC   PO4 4524  16.268  24.041   9.327
   67POPC   GL1 4525  16.012  23.798   9.067
   67POPC   GL2 4526  15.668  23.771   9.126
   67POPC   C1A 4527  16.089  23.737   8.638
   67POPC   D2A 4528  16.336  23.461   8.367
   67POPC   C3A 4529  16.191  23.561   7.992
   67POPC   C4A 4530  15.989  23.943   7.884
   67POPC   C1B 4531  15.647  23.511   8.766
   67POPC   C2B 4532  15.732  23.583   8.306
   67POPC   C3B 4533  15.516  23.713   7.941
   67POPC   C4B 4534  15.398  23.416   7.661
   68POPC   NC3 4535  31.696  25.968   9.442
   68POPC   PO4 4536  31.119  25.946   9.679
   68POPC   GL1 4537  31.291  26.109   9.157
   68POPC   GL2 4538  31.383  25.887   8.852
   68POPC   C1A 4539  31.579  26.329   8.821
   68POPC   D2A 4540  31.569  26.063   8.409
   68POPC   C3A 4541  31.502  26.261   8.013
   68POPC   C4A 4542  31.654  26.247   7.611
   68POPC   C1B 4543  31.202  25.544   8.647
   68POPC   C2B 4544  31.248  25.647   8.259
   68POPC   C3B 4545  31.476  25.742   7.926
   68POPC   C4B 4546  31.244  25.972   7.624
   69POPC   NC3 4547  19.026  16.863   9.686
   69POPC   PO4 4548  18.985  16.189   9.518
   69POPC   GL1 4549  19.036  16.565   9.201
   69POPC   GL2 4550  19.198  16.867   9.210
   69POPC   C1A 4551  18.927  16.796   8.782
   69POPC   D2A 4552  18.653  16.858   8.429
   69POPC   C3A 4553  18.919  16.913   8.072
   69POPC   C4A 4554  18.906  16.785   7.638
   69POPC   C1B 4555  19.411  16.662   8.845
   69POPC   C2B 4556  19.343  16.786   8.391
   69POPC   C3B 4557  19.376  16.734   7.918
   69POPC   C4B 4558  19.316  16.446   7.560
   70POPC   NC3 4559   1.987   7.236   9.425
   70POPC   PO4 4560   2.613   7.642   9.500
   70POPC   GL1 4561   2.237   7.625   9.191
   70POPC   GL2 4562   1.870   7.638   9.074
   70POPC   C1A 4563   2.170   7.427   8.748
   70POPC   D2A 4564   2.302   7.355   8.332
   70POPC   C3A 4565   2.068   7.266   7.993
   70POPC   C4A 4566   2.095   7.554   7.700
   70POPC   C1B 4567   1.646   7.482   8.753
   70POPC   C2B 4568   1.785   7.472   8.370
   70POPC   C3B 4569   1.597   7.527   8.014
   70POPC   C4B 4570   1.648   7.303   7.678
   71POPC   NC3 4571  34.886  16.944   9.412
   71POPC   PO4 4572  35.562  16.735   9.463
   71POPC   GL1 4573  35.319  16.692   9.109
   71POPC   GL2 4574  35.294  17.033   9.111
   71POPC   C1A 4575  35.425  16.776   8.682
   71POPC   D2A 4576  35.322  16.948   8.315
   71POPC   C3A 4577  35.226  16.580   8.117
   71POPC   C4A 4578  35.586  16.579   7.852
   71POPC   C1B 4579  35.050  17.125   8.752
   71POPC   C2B 4580  34.953  17.307   8.348
   71POPC   C3B 4581  35.161  17.296   7.965
   71POPC   C4B 4582  35.225  16.928   7.753
   72POPC   NC3 4583  37.898  42.223   9.584
   72POPC   PO4 4584  37.350  42.610   9.563
   72POPC   GL1 4585  37.609  42.487   9.222
   72POPC   GL2 4586  37.994  42.539   9.190
   72POPC   C1A 4587  37.490  42.421   8.813
   72POPC   D2A 4588  37.303  42.433   8.415
   72POPC   C3A 4589  37.612  42.410   8.119
   72POPC   C4A 4590  37.536  42.097   7.797
   72POPC   C1B 4591  37.925  42.160   8.940
   72POPC   C2B 4592  37.864  42.199   8.517
   72POPC   C3B 4593  37.986  42.064   8.139
   72POPC   C4B 4594  38.001  42.282   7.779
   73POPC   NC3 4595   7.902  41.634   9.534
   73POPC   PO4 4596   8.475  41.317   9.538
   73POPC   GL1 4597   8.213  41.398   9.201
   73POPC   GL2 4598   8.290  41.748   9.206
   73POPC   C1A 4599   8.028  41.536   8.815
   73POPC   D2A 4600   8.280  41.553   8.429
   73POPC   C3A 4601   8.069  41.466   8.045
   73POPC   C4A 4602   8.094  41.347   7.618
   73POPC   C1B 4603   8.546  41.876   8.875
   73POPC   C2B 4604   8.542  42.016   8.474
   73POPC   C3B 4605   8.668  41.752   8.143
   73POPC   C4B 4606   8.448  41.684   7.783
   74POPC   NC3 4607  14.178  22.691   9.486
   74POPC   PO4 4608  14.766  23.169   9.492
   74POPC   GL1 4609  14.512  22.961   9.162
   74POPC   GL2 4610  14.607  22.610   9.138
   74POPC   C1A 4611  14.596  23.086   8.733
   74POPC   D2A 4612  14.403  22.976   8.333
   74POPC   C3A 4613  14.616  23.083   7.979
   74POPC   C4A 4614  14.673  22.928   7.576
   74POPC   C1B 4615  14.383  22.633   8.729
   74POPC   C2B 4616  14.234  22.491   8.296
   74POPC   C3B 4617  14.270  22.677   7.894
   74POPC   C4B 4618  14.045  23.030   7.757
   75POPC   NC3 4619  30.310  38.967   9.309
   75POPC   PO4 4620  29.652  39.126   9.670
   75POPC   GL1 4621  29.839  39.240   9.229
   75POPC   GL2 4622  29.899  39.590   9.085
   75POPC   C1A 4623  29.711  39.252   8.784
   75POPC   D2A 4624  29.723  39.116   8.388
   75POPC   C3A 4625  29.664  39.346   8.020
   75POPC   C4A 4626  29.867  39.156   7.640
   75POPC   C1B 4627  30.158  39.444   8.671
   75POPC   C2B 4628  30.195  39.242   8.273
   75POPC   C3B 4629  30.139  39.509   7.914
   75POPC   C4B 4630  30.205  39.511   7.456
   76POPC   NC3 4631  35.354  10.828   9.464
   76POPC   PO4 4632  34.817  10.378   9.453
   76POPC   GL1 4633  35.139  10.441   9.164
   76POPC   GL2 4634  35.489  10.362   9.235
   76POPC   C1A 4635  35.333  10.564   8.797
   76POPC   D2A 4636  35.492  10.462   8.441
   76POPC   C3A 4637  35.339  10.690   8.114
   76POPC   C4A 4638  35.243  10.560   7.709
   76POPC   C1B 4639  35.781  10.274   8.857
   76POPC   C2B 4640  35.931  10.212   8.429
   76POPC   C3B 4641  35.644  10.207   8.026
   76POPC   C4B 4642  35.681  10.317   7.632
   77POPC   NC3 4643  41.849   9.143   9.545
   77POPC   PO4 4644  41.309   8.832   9.813
   77POPC   GL1 4645  41.553   8.761   9.342
   77POPC   GL2 4646  41.525   9.069   9.164
   77POPC   C1A 4647  41.639   8.745   8.818
   77POPC   D2A 4648  41.845   8.626   8.409
   77POPC   C3A 4649  41.830   8.912   8.044
   77POPC   C4A 4650  41.677   9.032   7.676
   77POPC   C1B 4651  41.409   9.287   8.807
   77POPC   C2B 4652  41.334   9.429   8.419
   77POPC   C3B 4653  41.147   9.349   8.065
   77POPC   C4B 4654  41.257   9.378   7.657
   78POPC   NC3 4655  31.258  38.787   9.570
   78POPC   PO4 4656  31.658  38.195   9.614
   78POPC   GL1 4657  31.744  38.405   9.232
   78POPC   GL2 4658  31.409  38.491   9.176
   78POPC   C1A 4659  31.705  38.296   8.795
   78POPC   D2A 4660  31.416  38.355   8.464
   78POPC   C3A 4661  31.411  38.325   8.030
   78POPC   C4A 4662  31.682  38.605   7.762
   78POPC   C1B 4663  31.299  38.718   8.818
   78POPC   C2B 4664  31.154  38.786   8.409
   78POPC   C3B 4665  31.324  38.836   8.032
   78POPC   C4B 4666  31.168  38.891   7.657
   79POPC   NC3 4667  29.175  25.029   9.516
   79POPC   PO4 4668  29.701  25.463   9.565
   79POPC   GL1 4669  29.293  25.497   9.254
   79POPC   GL2 4670  29.129  25.192   9.061
   79POPC   C1A 4671  29.158  25.603   8.800
   79POPC   D2A 4672  29.202  25.301   8.466
   79POPC   C3A 4673  29.108  25.395   8.038
   79POPC   C4A 4674  29.274  25.295   7.644
   79POPC   C1B 4675  29.043  24.897   8.756
   79POPC   C2B 4676  28.830  24.892   8.378
   79POPC   C3B 4677  29.069  24.895   8.019
   79POPC   C4B 4678  28.911  24.950   7.645
   80POPC   NC3 4679   8.725  21.592   9.474
   80POPC   PO4 4680   8.136  21.291   9.575
   80POPC   GL1 4681   8.337  21.254   9.180
   80POPC   GL2 4682   7.989  21.317   9.075
   80POPC   C1A 4683   8.321  21.248   8.724
   80POPC   D2A 4684   8.039  21.235   8.395
   80POPC   C3A 4685   8.224  21.381   8.044
   80POPC   C4A 4686   8.257  21.189   7.636
   80POPC   C1B 4687   7.940  21.627   8.759
   80POPC   C2B 4688   7.696  21.637   8.368
   80POPC   C3B 4689   7.771  21.657   7.929
   80POPC   C4B 4690   7.848  21.445   7.531
   81POPC   NC3 4691   5.375  43.594   9.609
   81POPC   PO4 4692   5.067  44.143   9.654
   81POPC   GL1 4693   5.159  43.906   9.264
   81POPC   GL2 4694   4.977  43.650   9.186
   81POPC   C1A 4695   5.232  43.867   8.800
   81POPC   D2A 4696   5.212  43.585   8.429
   81POPC   C3A 4697   5.057  43.745   8.035
   81POPC   C4A 4698   5.260  44.043   7.773
   81POPC   C1B 4699   4.823  43.521   8.777
   81POPC   C2B 4700   4.666  43.659   8.393
   81POPC   C3B 4701   4.538  43.537   7.980
   81POPC   C4B 4702   4.762  43.496   7.622
   82POPC   NC3 4703  17.017   0.748   9.611
   82POPC   PO4 4704  17.523   0.241   9.531
   82POPC   GL1 4705  17.351   0.501   9.215
   82POPC   GL2 4706  17.084   0.312   9.201
   82POPC   C1A 4707  17.493   0.513   8.775
   82POPC   D2A 4708  17.695   0.334   8.394
   82POPC   C3A 4709  17.452   0.407   8.048
   82POPC   C4A 4710  17.447   0.597   7.682
   82POPC   C1B 4711  17.079   0.039   8.864
   82POPC   C2B 4712  17.133   0.141   8.457
   82POPC   C3B 4713  17.157  44.986   8.065
   82POPC   C4B 4714  17.154   0.157   7.650
   83POPC   NC3 4715  18.265  24.117   9.611
   83POPC   PO4 4716  18.202  23.441   9.613
   83POPC   GL1 4717  18.131  23.716   9.288
   83POPC   GL2 4718  18.465  23.840   9.236
   83POPC   C1A 4719  17.894  23.850   8.928
   83POPC   D2A 4720  18.109  23.896   8.534
   83POPC   C3A 4721  18.046  23.742   8.114
   83POPC   C4A 4722  18.070  23.681   7.687
   83POPC   C1B 4723  18.546  23.842   8.805
   83POPC   C2B 4724  18.592  23.947   8.370
   83POPC   C3B 4725  18.719  23.646   8.080
   83POPC   C4B 4726  18.568  23.675   7.713
   84POPC   NC3 4727   1.542  23.031   9.520
   84POPC   PO4 4728   0.972  22.616   9.482
   84POPC   GL1 4729   1.103  22.820   9.077
   84POPC   GL2 4730   1.320  23.136   9.079
   84POPC   C1A 4731   1.242  22.877   8.633
   84POPC   D2A 4732   1.530  22.998   8.293
   84POPC   C3A 4733   1.457  22.899   7.854
   84POPC   C4A 4734   1.045  22.789   7.702
   84POPC   C1B 4735   0.981  23.304   8.794
   84POPC   C2B 4736   0.835  23.303   8.352
   84POPC   C3B 4737   1.150  23.254   8.025
   84POPC   C4B 4738   1.172  23.256   7.539
   85POPC   NC3 4739  17.738  23.488   9.623
   85POPC   PO4 4740  17.126  23.751   9.532
   85POPC   GL1 4741  17.448  23.628   9.188
   85POPC   GL2 4742  17.763  23.367   9.147
   85POPC   C1A 4743  17.355  23.791   8.760
   85POPC   D2A 4744  17.624  23.832   8.404
   85POPC   C3A 4745  17.569  23.851   7.967
   85POPC   C4A 4746  17.201  23.896   7.717
   85POPC   C1B 4747  17.692  23.413   8.752
   85POPC   C2B 4748  17.853  23.374   8.405
   85POPC   C3B 4749  17.698  23.328   8.033
   85POPC   C4B 4750  17.627  23.462   7.662
   86POPC   NC3 4751  35.557  37.429   9.602
   86POPC   PO4 4752  35.075  37.836   9.283
   86POPC   GL1 4753  35.352  37.534   9.135
   86POPC   GL2 4754  35.595  37.768   9.210
   86POPC   C1A 4755  35.713  37.470   8.822
   86POPC   D2A 4756  35.905  37.750   8.539
   86POPC   C3A 4757  35.709  37.894   8.165
   86POPC   C4A 4758  35.470  37.685   7.861
   86POPC   C1B 4759  35.447  37.895   8.760
   86POPC   C2B 4760  35.242  37.730   8.390
   86POPC   C3B 4761  34.980  37.707   8.030
   86POPC   C4B 4762  35.061  37.867   7.601
   87POPC   NC3 4763  11.931   3.519   9.669
   87POPC   PO4 4764  12.019   2.870   9.764
   87POPC   GL1 4765  12.191   3.137   9.352
   87POPC   GL2 4766  12.146   3.511   9.232
   87POPC   C1A 4767  12.282   3.187   8.883
   87POPC   D2A 4768  12.363   3.125   8.450
   87POPC   C3A 4769  12.063   3.209   8.140
   87POPC   C4A 4770  12.235   3.331   7.751
   87POPC   C1B 4771  11.958   3.624   8.845
   87POPC   C2B 4772  12.189   3.612   8.477
   87POPC   C3B 4773  12.152   3.716   8.073
   87POPC   C4B 4774  11.880   3.717   7.723
   88POPC   NC3 4775  21.704  29.436   9.554
   88POPC   PO4 4776  22.256  29.070   9.568
   88POPC   GL1 4777  22.055  29.101   9.168
   88POPC   GL2 4778  21.870  28.794   9.187
   88POPC   C1A 4779  22.144  29.328   8.742
   88POPC   D2A 4780  22.225  29.503   8.301
   88POPC   C3A 4781  22.160  29.388   7.870
   88POPC   C4A 4782  22.381  29.032   7.701
   88POPC   C1B 4783  21.766  28.970   8.756
   88POPC   C2B 4784  21.872  29.103   8.315
   88POPC   C3B 4785  21.876  28.964   7.873
   88POPC   C4B 4786  21.976  29.087   7.397
   89POPC   NC3 4787  42.060  24.981   9.528
   89POPC   PO4 4788  42.473  25.524   9.402
   89POPC   GL1 4789  42.420  25.361   9.066
   89POPC   GL2 4790  42.429  25.040   9.155
   89POPC   C1A 4791  42.303  25.278   8.672
   89POPC   D2A 4792  42.498  25.442   8.312
   89POPC   C3A 4793  42.248  25.301   7.989
   89POPC   C4A 4794  42.175  25.387   7.552
   89POPC   C1B 4795  42.682  24.937   8.795
   89POPC   C2B 4796  42.520  24.910   8.385
   89POPC   C3B 4797  42.582  24.831   7.967
   89POPC   C4B 4798  42.259  24.899   7.669
   90POPC   NC3 4799  18.814  43.597   9.481
   90POPC   PO4 4800  19.051  44.203   9.528
   90POPC   GL1 4801  19.064  43.956   9.198
   90POPC   GL2 4802  18.748  44.028   9.155
   90POPC   C1A 4803  19.177  43.905   8.790
   90POPC   D2A 4804  19.271  44.161   8.441
   90POPC   C3A 4805  19.269  43.878   8.134
   90POPC   C4A 4806  19.196  43.865   7.725
   90POPC   C1B 4807  18.677  43.756   8.813
   90POPC   C2B 4808  18.839  43.756   8.405
   90POPC   C3B 4809  18.787  43.682   7.982
   90POPC   C4B 4810  18.646  44.018   7.700
   91POPC   NC3 4811  18.721  35.715   9.622
   91POPC   PO4 4812  19.213  35.299   9.577
   91POPC   GL1 4813  19.180  35.492   9.197
   91POPC   GL2 4814  18.818  35.412   9.216
   91POPC   C1A 4815  19.366  35.539   8.775
   91POPC   D2A 4816  19.382  35.647   8.329
   91POPC   C3A 4817  19.325  35.266   8.072
   91POPC   C4A 4818  19.104  35.096   7.699
   91POPC   C1B 4819  18.918  35.259   8.805
   91POPC   C2B 4820  18.936  35.433   8.379
   91POPC   C3B 4821  18.742  35.535   7.977
   91POPC   C4B 4822  18.609  35.226   7.701
   92POPC   NC3 4823  11.921   0.096   9.542
   92POPC   PO4 4824  12.064  44.422   9.521
   92POPC   GL1 4825  12.129  44.560   9.100
   92POPC   GL2 4826  12.189  44.901   9.151
   92POPC   C1A 4827  12.172  44.324   8.718
   92POPC   D2A 4828  12.110  44.262   8.288
   92POPC   C3A 4829  12.350  44.510   8.021
   92POPC   C4A 4830  12.213  44.525   7.622
   92POPC   C1B 4831  11.935  44.886   8.758
   92POPC   C2B 4832  12.007  44.760   8.347
   92POPC   C3B 4833  11.894  44.800   7.922
   92POPC   C4B 4834  11.723  44.839   7.502
   93POPC   NC3 4835  34.850  43.794   9.607
   93POPC   PO4 4836  34.995  44.415   9.537
   93POPC   GL1 4837  34.853  44.126   9.168
   93POPC   GL2 4838  34.801  43.741   9.122
   93POPC   C1A 4839  34.510  44.054   8.849
   93POPC   D2A 4840  34.332  43.818   8.495
   93POPC   C3A 4841  34.524  44.005   8.135
   93POPC   C4A 4842  34.382  44.004   7.735
   93POPC   C1B 4843  34.695  43.535   8.774
   93POPC   C2B 4844  34.846  43.695   8.429
   93POPC   C3B 4845  34.730  43.525   8.057
   93POPC   C4B 4846  34.819  43.730   7.705
   94POPC   NC3 4847  13.757  43.431   9.405
   94POPC   PO4 4848  13.177  43.130   9.562
   94POPC   GL1 4849  13.484  43.044   9.197
   94POPC   GL2 4850  13.656  42.730   9.126
   94POPC   C1A 4851  13.606  43.069   8.738
   94POPC   D2A 4852  13.548  42.829   8.328
   94POPC   C3A 4853  13.522  42.978   7.877
   94POPC   C4A 4854  13.877  43.262   7.748
   94POPC   C1B 4855  14.009  42.702   8.793
   94POPC   C2B 4856  14.046  42.595   8.357
   94POPC   C3B 4857  13.992  42.842   8.018
   94POPC   C4B 4858  13.909  42.796   7.551
   95POPC   NC3 4859  12.544  12.713   9.437
   95POPC   PO4 4860  13.021  13.133   9.625
   95POPC   GL1 4861  12.946  13.002   9.208
   95POPC   GL2 4862  12.634  13.169   9.199
   95POPC   C1A 4863  12.978  12.796   8.789
   95POPC   D2A 4864  13.192  12.857   8.393
   95POPC   C3A 4865  12.907  12.780   8.031
   95POPC   C4A 4866  12.716  12.616   7.658
   95POPC   C1B 4867  12.540  13.074   8.784
   95POPC   C2B 4868  12.707  13.104   8.374
   95POPC   C3B 4869  12.583  13.165   7.950
   95POPC   C4B 4870  12.850  13.101   7.595
   96POPC   NC3 4871  25.819  37.843   9.877
   96POPC   PO4 4872  25.354  37.386   9.504
   96POPC   GL1 4873  25.309  37.501   9.098
   96POPC   GL2 4874  25.633  37.368   9.074
   96POPC   C1A 4875  25.426  37.727   8.735
   96POPC   D2A 4876  25.251  38.015   8.446
   96POPC   C3A 4877  25.349  37.855   8.065
   96POPC   C4A 4878  25.123  37.664   7.763
   96POPC   C1B 4879  25.667  37.215   8.681
   96POPC   C2B 4880  25.610  37.463   8.315
   96POPC   C3B 4881  25.558  37.406   7.881
   96POPC   C4B 4882  25.724  37.581   7.491
   97POPC   NC3 4883  12.362   5.174   9.686
   97POPC   PO4 4884  12.999   5.319   9.605
   97POPC   GL1 4885  12.971   5.191   9.200
   97POPC   GL2 4886  12.619   5.182   9.234
   97POPC   C1A 4887  13.073   5.043   8.790
   97POPC   D2A 4888  13.202   4.833   8.405
   97POPC   C3A 4889  13.114   5.125   8.079
   97POPC   C4A 4890  12.964   5.145   7.678
   97POPC   C1B 4891  12.634   5.309   8.800
   97POPC   C2B 4892  12.684   5.047   8.429
   97POPC   C3B 4893  12.600   5.143   8.038
   97POPC   C4B 4894  12.519   4.937   7.665
   98POPC   NC3 4895   0.173  41.764   9.459
   98POPC   PO4 4896   0.546  41.290   9.546
   98POPC   GL1 4897   0.405  41.424   9.139
   98POPC   GL2 4898   0.694  41.489   8.922
   98POPC   C1A 4899   0.202  41.494   8.738
   98POPC   D2A 4900   0.469  41.494   8.354
   98POPC   C3A 4901   0.383  41.320   7.943
   98POPC   C4A 4902   0.184  41.621   7.680
   98POPC   C1B 4903   0.622  41.873   8.685
   98POPC   C2B 4904   0.654  41.980   8.238
   98POPC   C3B 4905   0.652  41.838   7.812
   98POPC   C4B 4906   0.786  41.472   7.625
   99POPC   NC3 4907  17.998  14.243   9.874
   99POPC   PO4 4908  18.292  14.642   9.340
   99POPC   GL1 4909  18.194  14.408   9.044
   99POPC   GL2 4910  18.469  14.150   9.213
   99POPC   C1A 4911  18.134  14.689   8.675
   99POPC   D2A 4912  18.084  14.947   8.303
   99POPC   C3A 4913  18.040  14.627   8.013
   99POPC   C4A 4914  18.072  14.514   7.567
   99POPC   C1B 4915  18.523  14.168   8.772
   99POPC   C2B 4916  18.330  14.317   8.369
   99POPC   C3B 4917  18.509  14.465   7.990
   99POPC   C4B 4918  18.561  14.301   7.589
  100POPC   NC3 4919  29.257   5.244   9.914
  100POPC   PO4 4920  29.102   4.731   9.593
  100POPC   GL1 4921  29.350   4.900   9.191
  100POPC   GL2 4922  29.611   5.184   9.205
  100POPC   C1A 4923  29.208   4.939   8.733
  100POPC   D2A 4924  29.429   4.904   8.309
  100POPC   C3A 4925  29.108   4.984   7.969
  100POPC   C4A 4926  28.769   5.203   7.728
  100POPC   C1B 4927  29.581   5.280   8.752
  100POPC   C2B 4928  29.680   5.409   8.328
  100POPC   C3B 4929  29.556   5.235   7.935
  100POPC   C4B 4930  29.552   4.798   7.770
  101POPC   NC3 4931  23.545  39.702   9.446
  101POPC   PO4 4932  24.002  40.176   9.376
  101POPC   GL1 4933  23.786  39.953   9.074
  101POPC   GL2 4934  23.427  40.069   9.106
  101POPC   C1A 4935  23.894  39.764   8.694
  101POPC   D2A 4936  23.879  40.003   8.334
  101POPC   C3A 4937  23.943  39.784   7.976
  101POPC   C4A 4938  23.834  40.073   7.598
  101POPC   C1B 4939  23.375  39.783   8.755
  101POPC   C2B 4940  23.472  39.681   8.316
  101POPC   C3B 4941  23.473  39.978   7.958
  101POPC   C4B 4942  23.355  39.900   7.509
  102POPC   NC3 4943  14.791  32.854   9.571
  102POPC   PO4 4944  14.162  33.081   9.710
  102POPC   GL1 4945  14.328  33.099   9.271
  102POPC   GL2 4946  14.529  32.814   9.155
  102POPC   C1A 4947  14.215  32.991   8.806
  102POPC   D2A 4948  14.417  32.785   8.441
  102POPC   C3A 4949  14.557  33.008   8.074
  102POPC   C4A 4950  14.366  33.128   7.688
  102POPC   C1B 4951  14.794  32.752   8.809
  102POPC   C2B 4952  14.797  32.469   8.470
  102POPC   C3B 4953  14.667  32.477   8.066
  102POPC   C4B 4954  14.419  32.622   7.737
  103POPC   NC3 4955   4.131  22.907   9.434
  103POPC   PO4 4956   4.611  23.288   9.633
  103POPC   GL1 4957   4.540  22.924   9.161
  103POPC   GL2 4958   4.269  22.630   9.061
  103POPC   C1A 4959   4.384  22.917   8.680
  103POPC   D2A 4960   4.581  22.756   8.304
  103POPC   C3A 4961   4.379  22.835   7.920
  103POPC   C4A 4962   4.285  23.219   7.666
  103POPC   C1B 4963   3.976  22.600   8.726
  103POPC   C2B 4964   4.053  22.635   8.310
  103POPC   C3B 4965   4.073  22.408   7.957
  103POPC   C4B 4966   3.998  22.600   7.610
  104POPC   NC3 4967   6.538  18.768   9.317
  104POPC   PO4 4968   6.522  19.474   9.493
  104POPC   GL1 4969   6.681  19.241   9.136
  104POPC   GL2 4970   6.972  19.430   9.145
  104POPC   C1A 4971   6.610  19.013   8.721
  104POPC   D2A 4972   6.668  19.104   8.314
  104POPC   C3A 4973   6.579  18.810   8.002
  104POPC   C4A 4974   6.358  18.867   7.661
  104POPC   C1B 4975   7.044  19.282   8.755
  104POPC   C2B 4976   6.991  19.479   8.374
  104POPC   C3B 4977   6.854  19.424   7.967
  104POPC   C4B 4978   6.829  19.113   7.672
  105POPC   NC3 4979  44.854  26.962   9.834
  105POPC   PO4 4980   0.455  26.711   9.537
  105POPC   GL1 4981   0.466  26.854   9.143
  105POPC   GL2 4982   0.777  26.803   9.042
  105POPC   C1A 4983   0.325  26.769   8.744
  105POPC   D2A 4984   0.108  26.938   8.406
  105POPC   C3A 4985   0.350  26.803   8.069
  105POPC   C4A 4986   0.291  26.720   7.625
  105POPC   C1B 4987   0.742  27.050   8.676
  105POPC   C2B 4988   0.556  27.242   8.326
  105POPC   C3B 4989   0.849  27.194   8.038
  105POPC   C4B 4990   0.895  27.404   7.671
  106POPC   NC3 4991  42.815   0.333   9.680
  106POPC   PO4 4992  42.298   0.594   9.503
  106POPC   GL1 4993  42.562   0.359   9.209
  106POPC   GL2 4994  42.282   0.335   8.998
  106POPC   C1A 4995  42.646   0.034   8.874
  106POPC   D2A 4996  42.441   0.141   8.487
  106POPC   C3A 4997  42.601   0.051   8.079
  106POPC   C4A 4998  42.568   0.260   7.698
  106POPC   C1B 4999  42.107   0.650   8.699
  106POPC   C2B 5000  42.239   0.578   8.329
  106POPC   C3B 5001  42.193   0.365   8.006
  106POPC   C4B 5002  42.153   0.621   7.666
  107POPC   NC3 5003  21.815   0.424   9.794
  107POPC   PO4 5004  22.384   0.431   9.514
  107POPC   GL1 5005  22.390   0.589   9.067
  107POPC   GL2 5006  22.116   0.429   9.039
  107POPC   C1A 5007  22.316   0.470   8.584
  107POPC   D2A 5008  22.149   0.404   8.165
  107POPC   C3A 5009  22.343   0.405   7.747
  107POPC   C4A 5010  22.472   0.246   7.303
  107POPC   C1B 5011  21.949   0.123   8.755
  107POPC   C2B 5012  21.950  44.965   8.348
  107POPC   C3B 5013  21.885   0.064   7.914
  107POPC   C4B 5014  21.980   0.162   7.471
  108POPC   NC3 5015  22.264  31.286   9.556
  108POPC   PO4 5016  21.837  31.739   9.354
  108POPC   GL1 5017  22.257  31.665   9.158
  108POPC   GL2 5018  22.275  31.308   9.056
  108POPC   C1A 5019  22.489  31.655   8.751
  108POPC   D2A 5020  22.463  31.318   8.425
  108POPC   C3A 5021  22.309  31.478   8.023
  108POPC   C4A 5022  22.329  31.790   7.701
  108POPC   C1B 5023  22.017  31.433   8.742
  108POPC   C2B 5024  21.848  31.270   8.423
  108POPC   C3B 5025  21.732  31.285   8.044
  108POPC   C4B 5026  21.904  31.448   7.666
  109POPC   NC3 5027  28.635  13.544   9.499
  109POPC   PO4 5028  28.022  13.736   9.580
  109POPC   GL1 5029  28.252  13.743   9.209
  109POPC   GL2 5030  27.990  13.687   9.026
  109POPC   C1A 5031  28.471  13.540   8.844
  109POPC   D2A 5032  28.476  13.236   8.493
  109POPC   C3A 5033  28.658  13.396   8.094
  109POPC   C4A 5034  28.697  13.633   7.688
  109POPC   C1B 5035  28.078  13.759   8.596
  109POPC   C2B 5036  28.326  13.779   8.228
  109POPC   C3B 5037  28.218  13.749   7.785
  109POPC   C4B 5038  28.130  13.960   7.364
  110POPC   NC3 5039  36.017  16.630   9.541
  110POPC   PO4 5040  36.476  17.069   9.233
  110POPC   GL1 5041  36.147  16.846   9.113
  110POPC   GL2 5042  36.217  16.473   9.116
  110POPC   C1A 5043  35.912  16.856   8.774
  110POPC   D2A 5044  35.900  16.615   8.411
  110POPC   C3A 5045  36.051  16.759   8.025
  110POPC   C4A 5046  35.948  16.855   7.593
  110POPC   C1B 5047  36.366  16.585   8.734
  110POPC   C2B 5048  36.440  16.595   8.337
  110POPC   C3B 5049  36.471  16.453   7.944
  110POPC   C4B 5050  36.437  16.754   7.657
  111POPC   NC3 5051  36.935  42.699   9.761
  111POPC   PO4 5052  37.021  43.380   9.566
  111POPC   GL1 5053  36.960  43.182   9.196
  111POPC   GL2 5054  37.002  42.825   9.256
  111POPC   C1A 5055  37.062  43.314   8.797
  111POPC   D2A 5056  36.884  43.406   8.428
  111POPC   C3A 5057  36.997  43.218   8.053
  111POPC   C4A 5058  36.875  43.103   7.638
  111POPC   C1B 5059  37.218  42.843   8.880
  111POPC   C2B 5060  37.115  42.915   8.461
  111POPC   C3B 5061  37.374  42.887   8.100
  111POPC   C4B 5062  37.316  42.874   7.694
  112POPC   NC3 5063  22.678  18.124   9.649
  112POPC   PO4 5064  22.097  18.537   9.596
  112POPC   GL1 5065  22.094  18.184   9.279
  112POPC   GL2 5066  21.779  18.148   9.067
  112POPC   C1A 5067  22.302  17.972   8.908
  112POPC   D2A 5068  22.165  17.950   8.469
  112POPC   C3A 5069  22.439  18.016   8.076
  112POPC   C4A 5070  22.326  18.199   7.654
  112POPC   C1B 5071  21.597  18.387   8.676
  112POPC   C2B 5072  21.653  18.410   8.201
  112POPC   C3B 5073  21.998  18.544   7.908
  112POPC   C4B 5074  22.020  18.754   7.495
  113POPC   NC3 5075  16.345  24.485   9.460
  113POPC   PO4 5076  15.636  24.491   9.577
  113POPC   GL1 5077  15.861  24.369   9.213
  113POPC   GL2 5078  15.983  24.690   9.178
  113POPC   C1A 5079  15.800  24.202   8.796
  113POPC   D2A 5080  15.755  24.094   8.364
  113POPC   C3A 5081  15.893  24.410   8.060
  113POPC   C4A 5082  15.702  24.349   7.678
  113POPC   C1B 5083  16.213  24.526   8.805
  113POPC   C2B 5084  16.290  24.297   8.378
  113POPC   C3B 5085  16.362  24.341   7.893
  113POPC   C4B 5086  16.157  24.619   7.587
  114POPC   NC3 5087  19.433  21.673   9.411
  114POPC   PO4 5088  19.590  20.996   9.469
  114POPC   GL1 5089  19.853  21.152   9.118
  114POPC   GL2 5090  19.779  21.528   9.074
  114POPC   C1A 5091  20.039  21.293   8.726
  114POPC   D2A 5092  19.830  21.565   8.431
  114POPC   C3A 5093  19.844  21.312   8.105
  114POPC   C4A 5094  20.086  21.074   7.844
  114POPC   C1B 5095  19.479  21.680   8.770
  114POPC   C2B 5096  19.377  21.884   8.386
  114POPC   C3B 5097  19.386  21.924   7.949
  114POPC   C4B 5098  19.721  21.694   7.769
  115POPC   NC3 5099   4.670  40.461   9.831
  115POPC   PO4 5100   4.190  40.857   9.711
  115POPC   GL1 5101   4.356  40.753   9.262
  115POPC   GL2 5102   4.220  40.424   9.206
  115POPC   C1A 5103   4.552  40.892   8.835
  115POPC   D2A 5104   4.572  41.213   8.494
  115POPC   C3A 5105   4.512  41.063   8.070
  115POPC   C4A 5106   4.381  40.977   7.656
  115POPC   C1B 5107   4.295  40.446   8.768
  115POPC   C2B 5108   4.424  40.461   8.351
  115POPC   C3B 5109   4.229  40.591   7.964
  115POPC   C4B 5110   4.221  40.509   7.527
  116POPC   NC3 5111  34.264  29.764   9.321
  116POPC   PO4 5112  33.672  29.919   9.744
  116POPC   GL1 5113  33.697  29.834   9.315
  116POPC   GL2 5114  33.877  30.112   9.181
  116POPC   C1A 5115  33.557  29.803   8.872
  116POPC   D2A 5116  33.565  30.150   8.521
  116POPC   C3A 5117  33.758  30.106   8.102
  116POPC   C4A 5118  33.780  30.342   7.707
  116POPC   C1B 5119  34.000  30.000   8.759
  116POPC   C2B 5120  34.006  29.741   8.408
  116POPC   C3B 5121  34.262  29.796   8.056
  116POPC   C4B 5122  34.175  30.040   7.718
  117POPC   NC3 5123  18.073  21.226   9.511
  117POPC   PO4 5124  18.660  21.248   9.379
  117POPC   GL1 5125  18.441  21.250   8.981
  117POPC   GL2 5126  18.083  21.272   9.003
  117POPC   C1A 5127  18.402  21.557   8.612
  117POPC   D2A 5128  18.133  21.787   8.284
  117POPC   C3A 5129  18.339  21.691   7.885
  117POPC   C4A 5130  18.362  21.247   7.786
  117POPC   C1B 5131  17.722  21.076   8.795
  117POPC   C2B 5132  17.623  21.064   8.347
  117POPC   C3B 5133  17.957  21.003   7.993
  117POPC   C4B 5134  17.956  21.066   7.505
  118POPC   NC3 5135  44.345  42.885   9.811
  118POPC   PO4 5136  43.731  43.246   9.533
  118POPC   GL1 5137  43.835  43.103   9.155
  118POPC   GL2 5138  44.167  42.978   9.225
  118POPC   C1A 5139  43.909  43.238   8.756
  118POPC   D2A 5140  44.075  43.171   8.389
  118POPC   C3A 5141  43.881  43.289   8.024
  118POPC   C4A 5142  43.967  43.140   7.640
  118POPC   C1B 5143  44.168  42.793   8.798
  118POPC   C2B 5144  44.099  42.665   8.392
  118POPC   C3B 5145  44.106  42.819   8.005
  118POPC   C4B 5146  44.128  42.676   7.568
  119POPC   NC3 5147  31.930  39.348   9.348
  119POPC   PO4 5148  31.310  39.253   9.608
  119POPC   GL1 5149  31.277  39.123   9.192
  119POPC   GL2 5150  31.574  38.975   9.183
  119POPC   C1A 5151  31.393  39.262   8.783
  119POPC   D2A 5152  31.138  39.291   8.441
  119POPC   C3A 5153  31.351  39.329   8.094
  119POPC   C4A 5154  31.410  39.322   7.711
  119POPC   C1B 5155  31.783  38.915   8.812
  119POPC   C2B 5156  31.651  38.965   8.407
  119POPC   C3B 5157  31.816  39.066   8.011
  119POPC   C4B 5158  31.804  39.079   7.574
  120POPC   NC3 5159  27.481  10.504   9.618
  120POPC   PO4 5160  28.071  10.894   9.689
  120POPC   GL1 5161  27.811  10.773   9.271
  120POPC   GL2 5162  27.763  10.443   9.208
  120POPC   C1A 5163  27.506  10.848   8.823
  120POPC   D2A 5164  27.410  10.958   8.342
  120POPC   C3A 5165  27.412  10.541   8.077
  120POPC   C4A 5166  27.318  10.478   7.618
  120POPC   C1B 5167  27.956  10.580   8.817
  120POPC   C2B 5168  27.872  10.805   8.462
  120POPC   C3B 5169  27.906  10.737   8.053
  120POPC   C4B 5170  27.826  10.494   7.712
  121POPC   NC3 5171  42.422  33.252   9.591
  121POPC   PO4 5172  42.371  33.910   9.568
  121POPC   GL1 5173  42.495  33.819   9.157
  121POPC   GL2 5174  42.263  33.568   9.187
  121POPC   C1A 5175  42.487  34.018   8.753
  121POPC   D2A 5176  42.614  34.214   8.371
  121POPC   C3A 5177  42.613  33.919   8.052
  121POPC   C4A 5178  42.282  33.806   7.763
  121POPC   C1B 5179  42.335  33.451   8.784
  121POPC   C2B 5180  42.295  33.632   8.367
  121POPC   C3B 5181  42.142  33.372   8.021
  121POPC   C4B 5182  42.303  33.312   7.584
  122POPC   NC3 5183   3.040  20.218   9.406
  122POPC   PO4 5184   2.467  19.795   9.447
  122POPC   GL1 5185   2.740  19.893   9.083
  122POPC   GL2 5186   3.065  19.743   9.025
  122POPC   C1A 5187   2.879  20.049   8.682
  122POPC   D2A 5188   2.993  19.981   8.265
  122POPC   C3A 5189   2.627  20.005   8.062
  122POPC   C4A 5190   2.627  19.651   7.863
  122POPC   C1B 5191   3.090  19.427   8.711
  122POPC   C2B 5192   3.123  19.278   8.279
  122POPC   C3B 5193   3.138  19.581   7.944
  122POPC   C4B 5194   3.151  19.575   7.496
  123POPC   NC3 5195  32.531  12.401   9.659
  123POPC   PO4 5196  32.196  13.003   9.464
  123POPC   GL1 5197  32.373  12.899   9.127
  123POPC   GL2 5198  32.075  12.994   8.947
  123POPC   C1A 5199  32.361  12.624   8.784
  123POPC   D2A 5200  32.186  12.613   8.367
  123POPC   C3A 5201  32.433  12.685   7.996
  123POPC   C4A 5202  32.215  12.456   7.693
  123POPC   C1B 5203  31.954  13.342   8.687
  123POPC   C2B 5204  31.917  13.288   8.230
  123POPC   C3B 5205  31.959  12.921   7.951
  123POPC   C4B 5206  32.119  13.070   7.570
  124POPC   NC3 5207  33.582  37.534   9.646
  124POPC   PO4 5208  34.244  37.470   9.510
  124POPC   GL1 5209  34.002  37.695   9.194
  124POPC   GL2 5210  33.633  37.607   9.148
  124POPC   C1A 5211  33.929  37.650   8.732
  124POPC   D2A 5212  34.159  37.737   8.364
  124POPC   C3A 5213  34.039  37.593   7.943
  124POPC   C4A 5214  33.695  37.786   7.755
  124POPC   C1B 5215  33.295  37.462   8.838
  124POPC   C2B 5216  33.204  37.329   8.388
  124POPC   C3B 5217  33.506  37.219   8.036
  124POPC   C4B 5218  33.700  37.311   7.614
  125POPC   NC3 5219  43.408  12.678   9.474
  125POPC   PO4 5220  43.995  13.000   9.512
  125POPC   GL1 5221  43.804  13.167   9.089
  125POPC   GL2 5222  43.467  13.017   9.090
  125POPC   C1A 5223  43.900  13.190   8.630
  125POPC   D2A 5224  44.145  12.960   8.310
  125POPC   C3A 5225  44.039  12.852   7.882
  125POPC   C4A 5226  44.226  12.631   7.522
  125POPC   C1B 5227  43.398  13.080   8.651
  125POPC   C2B 5228  43.583  13.009   8.259
  125POPC   C3B 5229  43.595  13.089   7.847
  125POPC   C4B 5230  43.383  12.940   7.540
  126POPC   NC3 5231  12.366  22.774   9.426
  126POPC   PO4 5232  12.053  23.270   9.755
  126POPC   GL1 5233  12.098  23.202   9.246
  126POPC   GL2 5234  11.956  22.867   9.129
  126POPC   C1A 5235  11.885  23.189   8.765
  126POPC   D2A 5236  11.862  22.843   8.500
  126POPC   C3A 5237  12.022  22.994   8.118
  126POPC   C4A 5238  11.838  22.938   7.735
  126POPC   C1B 5239  12.294  22.878   8.811
  126POPC   C2B 5240  12.431  22.854   8.429
  126POPC   C3B 5241  12.394  22.638   8.073
  126POPC   C4B 5242  12.321  22.786   7.713
  127POPC   NC3 5243  43.784  29.303   9.555
  127POPC   PO4 5244  43.519  28.695   9.320
  127POPC   GL1 5245  43.825  29.010   9.131
  127POPC   GL2 5246  43.772  29.383   9.068
  127POPC   C1A 5247  43.973  29.107   8.695
  127POPC   D2A 5248  43.785  29.104   8.278
  127POPC   C3A 5249  43.972  29.097   7.861
  127POPC   C4A 5250  44.065  28.878   7.477
  127POPC   C1B 5251  43.635  29.571   8.704
  127POPC   C2B 5252  43.694  29.631   8.251
  127POPC   C3B 5253  43.545  29.361   7.895
  127POPC   C4B 5254  43.608  29.126   7.499
  128POPC   NC3 5255  24.228   7.285   9.603
  128POPC   PO4 5256  23.580   7.122   9.577
  128POPC   GL1 5257  23.715   7.255   9.181
  128POPC   GL2 5258  24.052   7.153   9.127
  128POPC   C1A 5259  23.548   7.460   8.830
  128POPC   D2A 5260  23.670   7.562   8.441
  128POPC   C3A 5261  23.520   7.419   8.057
  128POPC   C4A 5262  23.570   7.691   7.722
  128POPC   C1B 5263  24.056   7.528   8.824
  128POPC   C2B 5264  24.152   7.699   8.407
  128POPC   C3B 5265  24.046   7.390   8.111
  128POPC   C4B 5266  23.896   7.303   7.715
  129POPC   NC3 5267  26.437  10.730   9.707
  129POPC   PO4 5268  26.080  10.181   9.634
  129POPC   GL1 5269  26.010  10.351   9.230
  129POPC   GL2 5270  26.069  10.729   9.261
  129POPC   C1A 5271  26.219  10.311   8.826
  129POPC   D2A 5272  26.113  10.401   8.404
  129POPC   C3A 5273  26.202  10.193   8.020
  129POPC   C4A 5274  26.062  10.385   7.626
  129POPC   C1B 5275  25.885  10.711   8.830
  129POPC   C2B 5276  25.699  10.703   8.401
  129POPC   C3B 5277  25.941  10.697   8.001
  129POPC   C4B 5278  25.810  10.853   7.564
  130POPC   NC3 5279  16.195   0.230   9.375
  130POPC   PO4 5280  16.796   0.329   9.637
  130POPC   GL1 5281  16.607   0.504   9.272
  130POPC   GL2 5282  16.807   0.734   9.163
  130POPC   C1A 5283  16.486   0.522   8.817
  130POPC   D2A 5284  16.640   0.486   8.381
  130POPC   C3A 5285  16.405   0.384   7.992
  130POPC   C4A 5286  16.499   0.308   7.561
  130POPC   C1B 5287  16.986   0.557   8.771
  130POPC   C2B 5288  17.125   0.658   8.346
  130POPC   C3B 5289  16.954   0.563   7.903
  130POPC   C4B 5290  16.940   0.536   7.391
  131POPC   NC3 5291  44.999  38.641   9.480
  131POPC   PO4 5292  44.439  38.254   9.536
  131POPC   GL1 5293  44.604  38.389   9.146
  131POPC   GL2 5294  44.960  38.310   9.110
  131POPC   C1A 5295  44.406  38.431   8.713
  131POPC   D2A 5296  44.603  38.477   8.285
  131POPC   C3A 5297  44.354  38.682   8.001
  131POPC   C4A 5298  44.401  38.779   7.585
  131POPC   C1B 5299  44.905  38.418   8.703
  131POPC   C2B 5300   0.003  38.166   8.370
  131POPC   C3B 5301  44.989  38.273   7.971
  131POPC   C4B 5302  44.867  38.666   7.792
  132POPC   NC3 5303   4.752  40.396   9.300
  132POPC   PO4 5304   4.734  41.029   9.460
  132POPC   GL1 5305   5.048  40.881   9.166
  132POPC   GL2 5306   5.310  40.638   9.249
  132POPC   C1A 5307   5.043  40.666   8.756
  132POPC   D2A 5308   4.821  40.768   8.380
  132POPC   C3A 5309   4.789  40.608   7.954
  132POPC   C4A 5310   4.894  40.965   7.694
  132POPC   C1B 5311   5.539  40.632   8.855
  132POPC   C2B 5312   5.664  40.766   8.466
  132POPC   C3B 5313   5.618  40.650   8.056
  132POPC   C4B 5314   5.302  40.634   7.772
  133POPC   NC3 5315  33.455  29.188   9.443
  133POPC   PO4 5316  34.121  29.338   9.496
  133POPC   GL1 5317  33.848  29.372   9.131
  133POPC   GL2 5318  33.782  29.003   9.073
  133POPC   C1A 5319  33.761  29.375   8.677
  133POPC   D2A 5320  33.898  29.077   8.365
  133POPC   C3A 5321  33.966  29.131   7.893
  133POPC   C4A 5322  33.923  28.791   7.561
  133POPC   C1B 5323  33.414  29.038   8.814
  133POPC   C2B 5324  33.305  29.246   8.427
  133POPC   C3B 5325  33.477  29.125   8.069
  133POPC   C4B 5326  33.409  28.904   7.728
  134POPC   NC3 5327  38.598  10.191   9.626
  134POPC   PO4 5328  38.152   9.798   9.464
  134POPC   GL1 5329  38.231   9.962   9.107
  134POPC   GL2 5330  38.571   9.854   9.151
  134POPC   C1A 5331  38.320   9.775   8.709
  134POPC   D2A 5332  38.525   9.521   8.381
  134POPC   C3A 5333  38.311   9.673   8.018
  134POPC   C4A 5334  38.165  10.005   7.764
  134POPC   C1B 5335  38.786   9.946   8.766
  134POPC   C2B 5336  38.635  10.009   8.341
  134POPC   C3B 5337  38.803   9.826   7.966
  134POPC   C4B 5338  38.764   9.414   7.875
  135POPC   NC3 5339  29.453   8.474   9.475
  135POPC   PO4 5340  28.914   8.095   9.479
  135POPC   GL1 5341  29.083   8.353   9.135
  135POPC   GL2 5342  29.398   8.153   9.106
  135POPC   C1A 5343  29.249   8.390   8.698
  135POPC   D2A 5344  29.020   8.321   8.351
  135POPC   C3A 5345  29.077   8.417   7.928
  135POPC   C4A 5346  28.861   8.381   7.536
  135POPC   C1B 5347  29.259   7.831   8.850
  135POPC   C2B 5348  29.378   7.715   8.440
  135POPC   C3B 5349  29.214   7.926   8.076
  135POPC   C4B 5350  29.020   7.937   7.686
  136POPC   NC3 5351  13.454  18.415   9.747
  136POPC   PO4 5352  13.866  18.000   9.551
  136POPC   GL1 5353  13.738  17.996   9.118
  136POPC   GL2 5354  13.656  18.346   9.016
  136POPC   C1A 5355  13.731  17.999   8.649
  136POPC   D2A 5356  13.720  18.363   8.352
  136POPC   C3A 5357  13.360  18.303   8.151
  136POPC   C4A 5358  13.472  17.980   7.902
  136POPC   C1B 5359  14.011  18.481   8.745
  136POPC   C2B 5360  14.207  18.605   8.343
  136POPC   C3B 5361  13.966  18.625   7.961
  136POPC   C4B 5362  13.597  18.483   7.736
  137POPC   NC3 5363  16.643  36.395   9.455
  137POPC   PO4 5364  16.844  36.918   9.612
  137POPC   GL1 5365  16.678  36.929   9.205
  137POPC   GL2 5366  16.933  37.119   9.077
  137POPC   C1A 5367  16.720  36.687   8.805
  137POPC   D2A 5368  16.863  36.511   8.399
  137POPC   C3A 5369  16.736  36.709   8.001
  137POPC   C4A 5370  16.603  36.867   7.605
  137POPC   C1B 5371  17.079  37.046   8.698
  137POPC   C2B 5372  16.798  37.030   8.373
  137POPC   C3B 5373  16.800  37.202   7.945
  137POPC   C4B 5374  17.097  37.143   7.646
  138POPC   NC3 5375  11.371  25.727   9.431
  138POPC   PO4 5376  11.215  26.437   9.411
  138POPC   GL1 5377  11.254  26.116   9.083
  138POPC   GL2 5378  11.199  25.755   8.968
  138POPC   C1A 5379  11.292  26.138   8.655
  138POPC   D2A 5380  11.144  25.927   8.303
  138POPC   C3A 5381  11.292  26.228   8.009
  138POPC   C4A 5382  11.145  26.305   7.619
  138POPC   C1B 5383  11.500  25.677   8.587
  138POPC   C2B 5384  11.671  25.782   8.178
  138POPC   C3B 5385  11.513  25.826   7.759
  138POPC   C4B 5386  11.741  25.823   7.356
  139POPC   NC3 5387   2.066  10.043   9.720
  139POPC   PO4 5388   2.025   9.484   9.478
  139POPC   GL1 5389   2.195   9.747   9.156
  139POPC   GL2 5390   2.275  10.107   9.224
  139POPC   C1A 5391   2.060   9.624   8.745
  139POPC   D2A 5392   1.785   9.586   8.383
  139POPC   C3A 5393   2.005   9.605   8.034
  139POPC   C4A 5394   1.902   9.397   7.673
  139POPC   C1B 5395   2.038  10.130   8.841
  139POPC   C2B 5396   2.012  10.038   8.408
  139POPC   C3B 5397   2.015  10.117   7.981
  139POPC   C4B 5398   2.066   9.880   7.597
  140POPC   NC3 5399   8.480  30.438   9.510
  140POPC   PO4 5400   8.257  31.036   9.706
  140POPC   GL1 5401   8.275  30.892   9.270
  140POPC   GL2 5402   8.030  30.660   9.189
  140POPC   C1A 5403   8.431  30.714   8.851
  140POPC   D2A 5404   8.370  30.608   8.423
  140POPC   C3A 5405   8.524  30.819   8.050
  140POPC   C4A 5406   8.463  30.664   7.647
  140POPC   C1B 5407   8.035  31.035   8.870
  140POPC   C2B 5408   8.039  31.017   8.452
  140POPC   C3B 5409   7.941  30.704   8.151
  140POPC   C4B 5410   7.988  30.781   7.743
  141POPC   NC3 5411  28.090  42.267   9.306
  141POPC   PO4 5412  28.599  42.698   9.452
  141POPC   GL1 5413  28.541  42.477   9.063
  141POPC   GL2 5414  28.554  42.100   9.115
  141POPC   C1A 5415  28.264  42.436   8.680
  141POPC   D2A 5416  27.978  42.176   8.403
  141POPC   C3A 5417  28.181  42.135   8.010
  141POPC   C4A 5418  28.324  42.488   7.778
  141POPC   C1B 5419  28.775  42.158   8.723
  141POPC   C2B 5420  28.978  42.188   8.304
  141POPC   C3B 5421  28.796  42.361   7.936
  141POPC   C4B 5422  28.647  42.063   7.643
  142POPC   NC3 5423  25.519  32.817   9.870
  142POPC   PO4 5424  24.928  32.880   9.529
  142POPC   GL1 5425  24.967  32.827   9.086
  142POPC   GL2 5426  24.988  32.475   9.082
  142POPC   C1A 5427  24.915  33.027   8.658
  142POPC   D2A 5428  24.902  33.276   8.250
  142POPC   C3A 5429  25.222  33.191   7.909
  142POPC   C4A 5430  25.459  33.039   7.531
  142POPC   C1B 5431  25.140  32.553   8.649
  142POPC   C2B 5432  25.201  32.804   8.261
  142POPC   C3B 5433  25.127  32.695   7.832
  142POPC   C4B 5434  25.393  32.522   7.505
  143POPC   NC3 5435  26.215  36.687   9.549
  143POPC   PO4 5436  26.210  35.976   9.512
  143POPC   GL1 5437  25.888  36.054   9.203
  143POPC   GL2 5438  25.782  36.404   9.156
  143POPC   C1A 5439  25.833  36.089   8.749
  143POPC   D2A 5440  26.026  35.977   8.364
  143POPC   C3A 5441  25.913  36.082   7.967
  143POPC   C4A 5442  25.894  36.132   7.548
  143POPC   C1B 5443  26.141  36.467   8.931
  143POPC   C2B 5444  26.231  36.435   8.519
  143POPC   C3B 5445  26.420  36.263   8.168
  143POPC   C4B 5446  26.307  36.369   7.769
  144POPC   NC3 5447  23.742  35.863   9.534
  144POPC   PO4 5448  23.989  36.535   9.415
  144POPC   GL1 5449  23.851  36.227   9.103
  144POPC   GL2 5450  23.499  36.263   9.060
  144POPC   C1A 5451  23.758  36.270   8.637
  144POPC   D2A 5452  23.746  36.511   8.273
  144POPC   C3A 5453  23.703  36.338   7.842
  144POPC   C4A 5454  23.696  35.902   7.766
  144POPC   C1B 5455  23.571  35.846   8.857
  144POPC   C2B 5456  23.567  35.783   8.433
  144POPC   C3B 5457  23.380  36.103   8.170
  144POPC   C4B 5458  23.205  36.229   7.770
  145POPC   NC3 5459  44.586  16.185   9.943
  145POPC   PO4 5460  44.618  16.826   9.759
  145POPC   GL1 5461  44.544  16.762   9.286
  145POPC   GL2 5462  44.877  16.658   9.166
  145POPC   C1A 5463  44.626  16.973   8.851
  145POPC   D2A 5464  44.914  16.956   8.499
  145POPC   C3A 5465  44.811  16.842   8.083
  145POPC   C4A 5466  44.964  16.907   7.670
  145POPC   C1B 5467  44.689  16.462   8.801
  145POPC   C2B 5468  44.575  16.476   8.385
  145POPC   C3B 5469  44.760  16.320   8.003
  145POPC   C4B 5470  44.613  16.536   7.662
  146POPC   NC3 5471   6.218  38.522   9.453
  146POPC   PO4 5472   5.583  38.388   9.526
  146POPC   GL1 5473   5.742  38.612   9.152
  146POPC   GL2 5474   6.067  38.799   9.061
  146POPC   C1A 5475   5.787  38.500   8.725
  146POPC   D2A 5476   5.634  38.458   8.329
  146POPC   C3A 5477   5.773  38.276   7.936
  146POPC   C4A 5478   5.710  38.496   7.515
  146POPC   C1B 5479   6.271  38.624   8.686
  146POPC   C2B 5480   6.158  38.544   8.236
  146POPC   C3B 5481   6.062  38.682   7.827
  146POPC   C4B 5482   6.170  38.632   7.364
  147POPC   NC3 5483  30.305  35.892   9.650
  147POPC   PO4 5484  30.946  35.516   9.549
  147POPC   GL1 5485  30.642  35.494   9.236
  147POPC   GL2 5486  30.636  35.185   9.016
  147POPC   C1A 5487  30.566  35.639   8.823
  147POPC   D2A 5488  30.712  35.355   8.510
  147POPC   C3A 5489  30.542  35.082   8.208
  147POPC   C4A 5490  30.539  35.156   7.765
  147POPC   C1B 5491  31.069  35.140   8.825
  147POPC   C2B 5492  31.093  35.061   8.370
  147POPC   C3B 5493  30.980  35.332   8.016
  147POPC   C4B 5494  31.033  35.279   7.570
  148POPC   NC3 5495  41.420   6.910   9.414
  148POPC   PO4 5496  41.687   6.160   9.529
  148POPC   GL1 5497  41.592   6.374   9.162
  148POPC   GL2 5498  41.768   6.667   9.128
  148POPC   C1A 5499  41.480   6.494   8.739
  148POPC   D2A 5500  41.235   6.435   8.401
  148POPC   C3A 5501  41.225   6.171   8.068
  148POPC   C4A 5502  41.315   6.460   7.777
  148POPC   C1B 5503  41.882   6.820   8.737
  148POPC   C2B 5504  41.692   6.782   8.330
  148POPC   C3B 5505  41.774   6.785   7.886
  148POPC   C4B 5506  41.623   6.744   7.455
  149POPC   NC3 5507  31.884  23.545   9.589
  149POPC   PO4 5508  31.552  24.079   9.431
  149POPC   GL1 5509  31.568  23.850   9.097
  149POPC   GL2 5510  31.570  23.502   9.179
  149POPC   C1A 5511  31.502  23.971   8.704
  149POPC   D2A 5512  31.706  23.877   8.357
  149POPC   C3A 5513  31.395  23.936   8.083
  149POPC   C4A 5514  31.486  23.883   7.680
  149POPC   C1B 5515  31.693  23.479   8.781
  149POPC   C2B 5516  31.479  23.405   8.426
  149POPC   C3B 5517  31.632  23.480   8.047
  149POPC   C4B 5518  31.479  23.385   7.700
  150POPC   NC3 5519  30.307  41.054   9.501
  150POPC   PO4 5520  29.851  41.560   9.653
  150POPC   GL1 5521  29.842  41.341   9.276
  150POPC   GL2 5522  30.158  41.478   9.207
  150POPC   C1A 5523  29.767  41.353   8.829
  150POPC   D2A 5524  29.688  41.626   8.477
  150POPC   C3A 5525  29.819  41.488   8.076
  150POPC   C4A 5526  29.873  41.229   7.704
  150POPC   C1B 5527  30.116  41.773   8.844
  150POPC   C2B 5528  30.116  41.932   8.413
  150POPC   C3B 5529  30.228  41.798   7.993
  150POPC   C4B 5530  30.030  41.700   7.630
  151POPC   NC3 5531  22.022  14.618   9.579
  151POPC   PO4 5532  22.610  14.690   9.232
  151POPC   GL1 5533  22.217  14.526   9.100
  151POPC   GL2 5534  21.925  14.776   9.123
  151POPC   C1A 5535  22.156  14.194   8.785
  151POPC   D2A 5536  21.930  14.045   8.418
  151POPC   C3A 5537  22.134  14.184   8.077
  151POPC   C4A 5538  22.123  14.336   7.670
  151POPC   C1B 5539  21.814  14.563   8.753
  151POPC   C2B 5540  21.979  14.582   8.364
  151POPC   C3B 5541  21.878  14.714   7.960
  151POPC   C4B 5542  21.479  14.737   7.734
  152POPC   NC3 5543  33.008  20.918   9.746
  152POPC   PO4 5544  32.791  20.248   9.655
  152POPC   GL1 5545  33.088  20.414   9.345
  152POPC   GL2 5546  33.065  20.738   9.258
  152POPC   C1A 5547  33.176  20.350   8.908
  152POPC   D2A 5548  33.064  20.298   8.476
  152POPC   C3A 5549  33.387  20.395   8.186
  152POPC   C4A 5550  33.263  20.498   7.772
  152POPC   C1B 5551  33.047  20.862   8.837
  152POPC   C2B 5552  32.833  20.807   8.471
  152POPC   C3B 5553  33.087  20.822   8.128
  152POPC   C4B 5554  33.065  20.951   7.721
  153POPC   NC3 5555  35.298   6.772   9.469
  153POPC   PO4 5556  35.768   6.229   9.339
  153POPC   GL1 5557  35.556   6.503   9.119
  153POPC   GL2 5558  35.201   6.429   9.073
  153POPC   C1A 5559  35.494   6.676   8.719
  153POPC   D2A 5560  35.487   6.369   8.380
  153POPC   C3A 5561  35.481   6.521   7.951
  153POPC   C4A 5562  35.322   6.414   7.543
  153POPC   C1B 5563  34.998   6.600   8.684
  153POPC   C2B 5564  35.122   6.721   8.250
  153POPC   C3B 5565  35.111   6.847   7.794
  153POPC   C4B 5566  34.933   7.164   7.513
  154POPC   NC3 5567  20.415  34.159   9.539
  154POPC   PO4 5568  20.833  33.575   9.574
  154POPC   GL1 5569  20.696  33.652   9.161
  154POPC   GL2 5570  20.454  33.918   9.088
  154POPC   C1A 5571  20.784  33.741   8.716
  154POPC   D2A 5572  20.844  33.950   8.307
  154POPC   C3A 5573  20.709  33.635   7.973
  154POPC   C4A 5574  20.671  33.613   7.497
  154POPC   C1B 5575  20.231  33.918   8.699
  154POPC   C2B 5576  20.347  33.946   8.278
  154POPC   C3B 5577  20.488  34.070   7.857
  154POPC   C4B 5578  20.313  34.046   7.453
  155POPC   NC3 5579  19.681   5.006   9.581
  155POPC   PO4 5580  20.240   4.994   9.224
  155POPC   GL1 5581  19.855   4.922   9.087
  155POPC   GL2 5582  19.733   5.242   9.142
  155POPC   C1A 5583  19.748   4.924   8.675
  155POPC   D2A 5584  20.045   5.084   8.378
  155POPC   C3A 5585  19.952   4.950   8.010
  155POPC   C4A 5586  19.669   4.849   7.695
  155POPC   C1B 5587  19.927   5.402   8.779
  155POPC   C2B 5588  19.745   5.552   8.428
  155POPC   C3B 5589  19.588   5.303   8.105
  155POPC   C4B 5590  19.805   5.349   7.738
  156POPC   NC3 5591  20.433  31.259   9.399
  156POPC   PO4 5592  20.689  30.618   9.643
  156POPC   GL1 5593  20.570  30.479   9.231
  156POPC   GL2 5594  20.461  30.788   9.198
  156POPC   C1A 5595  20.696  30.572   8.774
  156POPC   D2A 5596  20.735  30.420   8.387
  156POPC   C3A 5597  20.776  30.718   8.084
  156POPC   C4A 5598  20.891  30.485   7.763
  156POPC   C1B 5599  20.295  30.887   8.816
  156POPC   C2B 5600  20.477  30.950   8.441
  156POPC   C3B 5601  20.309  30.955   8.048
  156POPC   C4B 5602  20.466  30.835   7.687
  157POPC   NC3 5603  13.466  11.268   9.680
  157POPC   PO4 5604  13.544  11.858   9.553
  157POPC   GL1 5605  13.374  11.581   9.201
  157POPC   GL2 5606  13.493  11.237   9.180
  157POPC   C1A 5607  13.524  11.532   8.776
  157POPC   D2A 5608  13.870  11.292   8.598
  157POPC   C3A 5609  13.773  11.240   8.185
  157POPC   C4A 5610  13.662  11.557   7.880
  157POPC   C1B 5611  13.471  10.990   8.808
  157POPC   C2B 5612  13.328  10.924   8.390
  157POPC   C3B 5613  13.335  11.069   7.971
  157POPC   C4B 5614  13.696  11.093   7.695
  158POPC   NC3 5615  31.288  28.153   9.656
  158POPC   PO4 5616  31.170  28.715   9.355
  158POPC   GL1 5617  31.517  28.487   9.153
  158POPC   GL2 5618  31.834  28.685   9.111
  158POPC   C1A 5619  31.442  28.226   8.782
  158POPC   D2A 5620  31.129  28.152   8.418
  158POPC   C3A 5621  31.222  28.381   8.023
  158POPC   C4A 5622  31.325  28.313   7.621
  158POPC   C1B 5623  31.935  28.393   8.771
  158POPC   C2B 5624  31.805  28.175   8.399
  158POPC   C3B 5625  31.736  28.279   7.995
  158POPC   C4B 5626  31.760  28.576   7.673
  159POPC   NC3 5627  43.387  33.025   9.563
  159POPC   PO4 5628  42.701  32.847   9.544
  159POPC   GL1 5629  42.987  33.013   9.224
  159POPC   GL2 5630  43.327  33.159   9.097
  159POPC   C1A 5631  42.901  33.153   8.822
  159POPC   D2A 5632  42.983  33.234   8.400
  159POPC   C3A 5633  42.843  32.860   8.129
  159POPC   C4A 5634  43.092  32.590   7.830
  159POPC   C1B 5635  43.383  32.998   8.690
  159POPC   C2B 5636  43.322  32.867   8.289
  159POPC   C3B 5637  43.290  33.059   7.905
  159POPC   C4B 5638  43.544  33.002   7.530
  160POPC   NC3 5639  28.831   1.591   9.386
  160POPC   PO4 5640  29.446   1.372   9.561
  160POPC   GL1 5641  29.251   1.127   9.256
  160POPC   GL2 5642  29.150   1.384   9.049
  160POPC   C1A 5643  29.254   0.919   8.848
  160POPC   D2A 5644  29.046   1.100   8.510
  160POPC   C3A 5645  29.137   1.103   8.061
  160POPC   C4A 5646  29.307   0.861   7.728
  160POPC   C1B 5647  28.928   1.563   8.709
  160POPC   C2B 5648  29.057   1.565   8.284
  160POPC   C3B 5649  28.822   1.511   7.933
  160POPC   C4B 5650  28.980   1.262   7.593
  161POPC   NC3 5651   5.959  41.288   9.506
  161POPC   PO4 5652   5.623  41.870   9.522
  161POPC   GL1 5653   5.793  41.644   9.174
  161POPC   GL2 5654   6.149  41.666   9.210
  161POPC   C1A 5655   5.659  41.594   8.758
  161POPC   D2A 5656   5.870  41.548   8.370
  161POPC   C3A 5657   5.621  41.581   7.996
  161POPC   C4A 5658   5.606  41.878   7.677
  161POPC   C1B 5659   6.226  41.483   8.807
  161POPC   C2B 5660   6.398  41.465   8.391
  161POPC   C3B 5661   6.323  41.271   7.996
  161POPC   C4B 5662   6.000  41.390   7.709
  162POPC   NC3 5663  26.556  41.834   9.484
  162POPC   PO4 5664  27.006  41.269   9.453
  162POPC   GL1 5665  26.715  41.466   9.177
  162POPC   GL2 5666  26.869  41.780   9.085
  162POPC   C1A 5667  26.559  41.507   8.766
  162POPC   D2A 5668  26.703  41.285   8.420
  162POPC   C3A 5669  26.757  41.423   8.014
  162POPC   C4A 5670  26.525  41.575   7.648
  162POPC   C1B 5671  27.035  41.642   8.697
  162POPC   C2B 5672  27.325  41.482   8.395
  162POPC   C3B 5673  27.235  41.615   7.973
  162POPC   C4B 5674  27.047  41.470   7.608
  163POPC   NC3 5675  32.792  37.643   9.414
  163POPC   PO4 5676  33.379  37.966   9.588
  163POPC   GL1 5677  33.063  38.023   9.186
  163POPC   GL2 5678  32.677  37.947   9.026
  163POPC   C1A 5679  33.048  38.032   8.719
  163POPC   D2A 5680  32.871  37.882   8.328
  163POPC   C3A 5681  33.213  37.787   8.061
  163POPC   C4A 5682  33.222  37.521   7.737
  163POPC   C1B 5683  32.771  37.574   8.752
  163POPC   C2B 5684  32.634  37.316   8.414
  163POPC   C3B 5685  32.819  37.443   8.044
  163POPC   C4B 5686  32.693  37.602   7.685
  164POPC   NC3 5687  24.850  33.290   9.316
  164POPC   PO4 5688  24.211  32.959   9.444
  164POPC   GL1 5689  24.470  32.987   9.103
  164POPC   GL2 5690  24.492  32.631   9.027
  164POPC   C1A 5691  24.416  33.160   8.692
  164POPC   D2A 5692  24.244  33.451   8.374
  164POPC   C3A 5693  24.349  33.293   7.943
  164POPC   C4A 5694  24.708  33.011   7.837
  164POPC   C1B 5695  24.114  32.744   8.777
  164POPC   C2B 5696  24.099  32.938   8.362
  164POPC   C3B 5697  24.185  32.799   7.957
  164POPC   C4B 5698  24.239  32.714   7.558
  165POPC   NC3 5699  33.695  19.324   9.538
  165POPC   PO4 5700  34.272  18.887   9.637
  165POPC   GL1 5701  33.996  19.001   9.213
  165POPC   GL2 5702  33.658  19.184   9.056
  165POPC   C1A 5703  33.946  18.923   8.735
  165POPC   D2A 5704  33.818  18.716   8.351
  165POPC   C3A 5705  34.027  18.873   7.982
  165POPC   C4A 5706  34.152  19.322   7.962
  165POPC   C1B 5707  33.232  19.316   8.882
  165POPC   C2B 5708  33.254  19.386   8.446
  165POPC   C3B 5709  33.636  19.216   8.207
  165POPC   C4B 5710  33.618  19.071   7.780
  166POPC   NC3 5711  18.612  44.343   9.653
  166POPC   PO4 5712  18.355  43.605   9.555
  166POPC   GL1 5713  18.289  43.811   9.179
  166POPC   GL2 5714  18.260  44.160   9.278
  166POPC   C1A 5715  18.161  43.665   8.779
  166POPC   D2A 5716  18.384  43.479   8.446
  166POPC   C3A 5717  18.270  43.683   8.075
  166POPC   C4A 5718  18.389  43.559   7.678
  166POPC   C1B 5719  18.431  44.270   8.859
  166POPC   C2B 5720  18.392  44.053   8.469
  166POPC   C3B 5721  18.384  44.215   8.064
  166POPC   C4B 5722  18.226  44.337   7.623
  167POPC   NC3 5723  32.637  17.674   9.427
  167POPC   PO4 5724  32.121  17.201   9.604
  167POPC   GL1 5725  32.109  17.257   9.163
  167POPC   GL2 5726  32.249  17.592   9.109
  167POPC   C1A 5727  32.319  17.275   8.732
  167POPC   D2A 5728  32.596  17.445   8.412
  167POPC   C3A 5729  32.330  17.390   8.052
  167POPC   C4A 5730  32.472  17.438   7.612
  167POPC   C1B 5731  32.530  17.794   8.779
  167POPC   C2B 5732  32.607  17.984   8.393
  167POPC   C3B 5733  32.615  17.794   8.001
  167POPC   C4B 5734  32.567  17.931   7.586
  168POPC   NC3 5735  17.928  37.108   9.489
  168POPC   PO4 5736  18.569  37.131   9.416
  168POPC   GL1 5737  18.251  36.917   9.134
  168POPC   GL2 5738  17.958  37.096   8.983
  168POPC   C1A 5739  18.256  36.710   8.765
  168POPC   D2A 5740  18.496  36.850   8.353
  168POPC   C3A 5741  18.362  36.867   7.920
  168POPC   C4A 5742  18.374  37.047   7.491
  168POPC   C1B 5743  18.236  37.202   8.646
  168POPC   C2B 5744  18.244  37.285   8.211
  168POPC   C3B 5745  18.068  37.262   7.826
  168POPC   C4B 5746  17.931  37.314   7.397
  169POPC   NC3 5747  31.527  40.103   9.689
  169POPC   PO4 5748  30.959  40.180   9.475
  169POPC   GL1 5749  31.220  40.136   9.111
  169POPC   GL2 5750  31.573  40.088   9.167
  169POPC   C1A 5751  31.252  40.125   8.623
  169POPC   D2A 5752  31.228  39.772   8.319
  169POPC   C3A 5753  31.411  39.830   7.906
  169POPC   C4A 5754  31.297  40.249   7.831
  169POPC   C1B 5755  31.675  39.867   8.756
  169POPC   C2B 5756  31.715  39.990   8.307
  169POPC   C3B 5757  31.859  40.095   7.888
  169POPC   C4B 5758  32.087  39.951   7.506
  170POPC   NC3 5759  31.214  10.758   9.824
  170POPC   PO4 5760  30.592  10.588   9.494
  170POPC   GL1 5761  30.643  10.409   9.131
  170POPC   GL2 5762  30.969  10.221   9.213
  170POPC   C1A 5763  30.659  10.636   8.749
  170POPC   D2A 5764  30.977  10.711   8.452
  170POPC   C3A 5765  30.848  10.721   8.034
  170POPC   C4A 5766  30.499  10.517   7.829
  170POPC   C1B 5767  30.943  10.221   8.759
  170POPC   C2B 5768  30.725  10.268   8.373
  170POPC   C3B 5769  30.846  10.151   7.983
  170POPC   C4B 5770  30.816  10.196   7.554
  171POPC   NC3 5771  19.947  18.622   9.536
  171POPC   PO4 5772  19.457  18.200   9.588
  171POPC   GL1 5773  19.616  18.279   9.178
  171POPC   GL2 5774  19.968  18.318   9.118
  171POPC   C1A 5775  19.556  18.368   8.744
  171POPC   D2A 5776  19.457  18.425   8.298
  171POPC   C3A 5777  19.622  18.168   7.945
  171POPC   C4A 5778  19.662  18.439   7.572
  171POPC   C1B 5779  20.002  18.096   8.737
  171POPC   C2B 5780  20.007  18.039   8.280
  171POPC   C3B 5781  20.120  18.020   7.832
  171POPC   C4B 5782  20.117  18.261   7.447
  172POPC   NC3 5783  23.042  27.249   9.457
  172POPC   PO4 5784  22.928  27.944   9.511
  172POPC   GL1 5785  22.867  27.677   9.152
  172POPC   GL2 5786  22.548  27.816   9.027
  172POPC   C1A 5787  23.058  27.442   8.777
  172POPC   D2A 5788  23.215  27.241   8.400
  172POPC   C3A 5789  23.002  27.187   8.043
  172POPC   C4A 5790  22.973  27.535   7.787
  172POPC   C1B 5791  22.792  27.872   8.688
  172POPC   C2B 5792  22.840  28.103   8.368
  172POPC   C3B 5793  22.717  27.865   8.053
  172POPC   C4B 5794  22.827  28.025   7.670
  173POPC   NC3 5795  30.435   8.299   9.469
  173POPC   PO4 5796  31.045   8.025   9.534
  173POPC   GL1 5797  30.853   7.859   9.169
  173POPC   GL2 5798  31.217   7.815   9.086
  173POPC   C1A 5799  30.584   7.890   8.794
  173POPC   D2A 5800  30.597   8.200   8.471
  173POPC   C3A 5801  30.565   8.080   8.070
  173POPC   C4A 5802  30.742   8.074   7.689
  173POPC   C1B 5803  31.071   8.048   8.742
  173POPC   C2B 5804  31.022   7.955   8.303
  173POPC   C3B 5805  31.182   7.991   7.898
  173POPC   C4B 5806  31.206   7.969   7.441
  174POPC   NC3 5807  31.408  31.977   9.703
  174POPC   PO4 5808  31.662  32.531   9.516
  174POPC   GL1 5809  31.578  32.160   9.231
  174POPC   GL2 5810  31.231  31.985   9.213
  174POPC   C1A 5811  31.650  32.235   8.792
  174POPC   D2A 5812  31.539  32.595   8.520
  174POPC   C3A 5813  31.437  32.446   8.130
  174POPC   C4A 5814  31.533  32.589   7.753
  174POPC   C1B 5815  31.109  31.930   8.787
  174POPC   C2B 5816  31.320  31.945   8.386
  174POPC   C3B 5817  31.206  32.040   7.944
  174POPC   C4B 5818  31.355  32.152   7.553
  175POPC   NC3 5819  11.065   1.852   9.540
  175POPC   PO4 5820  11.253   2.479   9.581
  175POPC   GL1 5821  11.133   2.284   9.185
  175POPC   GL2 5822  11.442   2.122   9.107
  175POPC   C1A 5823  11.110   2.054   8.751
  175POPC   D2A 5824  11.263   1.762   8.419
  175POPC   C3A 5825  11.051   1.765   8.034
  175POPC   C4A 5826  11.052   1.997   7.645
  175POPC   C1B 5827  11.610   1.830   8.803
  175POPC   C2B 5828  11.793   1.897   8.407
  175POPC   C3B 5829  11.611   1.750   8.038
  175POPC   C4B 5830  11.540   1.902   7.661
  176POPC   NC3 5831  11.744   0.646   9.438
  176POPC   PO4 5832  12.326   0.314   9.483
  176POPC   GL1 5833  12.183   0.603   9.168
  176POPC   GL2 5834  11.964   0.354   9.075
  176POPC   C1A 5835  12.162   0.837   8.759
  176POPC   D2A 5836  11.907   0.886   8.385
  176POPC   C3A 5837  12.080   0.795   8.003
  176POPC   C4A 5838  11.942   0.778   7.573
  176POPC   C1B 5839  11.897   0.422   8.659
  176POPC   C2B 5840  11.837   0.256   8.265
  176POPC   C3B 5841  12.114   0.279   7.918
  176POPC   C4B 5842  12.337   0.032   7.658
  177POPC   NC3 5843  24.823  30.715   9.466
  177POPC   PO4 5844  25.466  30.915   9.544
  177POPC   GL1 5845  25.275  30.662   9.211
  177POPC   GL2 5846  25.382  30.300   9.258
  177POPC   C1A 5847  25.285  30.714   8.767
  177POPC   D2A 5848  25.040  30.860   8.418
  177POPC   C3A 5849  25.225  30.820   8.030
  177POPC   C4A 5850  25.128  31.174   7.760
  177POPC   C1B 5851  25.596  30.289   8.839
  177POPC   C2B 5852  25.592  30.473   8.388
  177POPC   C3B 5853  25.538  30.392   7.917
  177POPC   C4B 5854  25.542  30.396   7.413
  178POPC   NC3 5855  36.613  13.281   9.558
  178POPC   PO4 5856  37.075  13.902   9.569
  178POPC   GL1 5857  36.825  13.679   9.268
  178POPC   GL2 5858  37.028  13.397   9.201
  178POPC   C1A 5859  36.642  13.591   8.853
  178POPC   D2A 5860  36.491  13.762   8.464
  178POPC   C3A 5861  36.742  13.740   8.104
  178POPC   C4A 5862  36.651  13.580   7.719
  178POPC   C1B 5863  36.931  13.182   8.833
  178POPC   C2B 5864  36.799  13.319   8.431
  178POPC   C3B 5865  37.002  13.298   8.040
  178POPC   C4B 5866  36.817  13.091   7.745
  179POPC   NC3 5867  30.793  29.031   9.386
  179POPC   PO4 5868  30.397  29.590   9.580
  179POPC   GL1 5869  30.662  29.481   9.165
  179POPC   GL2 5870  30.623  29.128   8.919
  179POPC   C1A 5871  30.887  29.518   8.779
  179POPC   D2A 5872  30.761  29.267   8.414
  179POPC   C3A 5873  30.839  29.391   7.996
  179POPC   C4A 5874  30.797  29.587   7.610
  179POPC   C1B 5875  30.604  28.803   8.589
  179POPC   C2B 5876  30.320  28.665   8.217
  179POPC   C3B 5877  30.337  28.718   7.777
  179POPC   C4B 5878  30.461  29.118   7.517
  180POPC   NC3 5879  41.775   3.588   9.758
  180POPC   PO4 5880  41.254   3.300   9.409
  180POPC   GL1 5881  41.528   3.596   9.133
  180POPC   GL2 5882  41.882   3.699   9.159
  180POPC   C1A 5883  41.665   3.616   8.712
  180POPC   D2A 5884  41.431   3.655   8.360
  180POPC   C3A 5885  41.625   3.402   8.087
  180POPC   C4A 5886  41.377   3.503   7.778
  180POPC   C1B 5887  41.907   4.049   8.815
  180POPC   C2B 5888  41.826   4.012   8.406
  180POPC   C3B 5889  41.903   3.836   8.063
  180POPC   C4B 5890  41.781   3.800   7.690
  181POPC   NC3 5891  10.679  31.494   9.841
  181POPC   PO4 5892  10.132  31.210   9.772
  181POPC   GL1 5893  10.303  31.590   9.392
  181POPC   GL2 5894  10.660  31.533   9.205
  181POPC   C1A 5895  10.308  31.639   8.880
  181POPC   D2A 5896  10.471  31.303   8.594
  181POPC   C3A 5897  10.462  31.341   8.146
  181POPC   C4A 5898  10.411  31.249   7.718
  181POPC   C1B 5899  10.798  31.761   8.788
  181POPC   C2B 5900  10.695  31.798   8.281
  181POPC   C3B 5901  10.650  31.709   7.789
  181POPC   C4B 5902  10.582  31.532   7.297
  182POPC   NC3 5903   7.385   8.572   9.375
  182POPC   PO4 5904   7.338   9.232   9.490
  182POPC   GL1 5905   7.179   9.038   9.149
  182POPC   GL2 5906   7.534   8.972   9.047
  182POPC   C1A 5907   7.156   8.821   8.755
  182POPC   D2A 5908   7.534   8.918   8.505
  182POPC   C3A 5909   7.435   8.979   8.074
  182POPC   C4A 5910   7.280   8.757   7.767
  182POPC   C1B 5911   7.879   8.754   8.869
  182POPC   C2B 5912   8.026   8.696   8.507
  182POPC   C3B 5913   7.850   8.730   8.136
  182POPC   C4B 5914   7.795   8.786   7.724
  183POPC   NC3 5915  40.612  14.777   9.490
  183POPC   PO4 5916  40.872  15.402   9.536
  183POPC   GL1 5917  40.942  15.308   9.132
  183POPC   GL2 5918  40.615  15.378   9.019
  183POPC   C1A 5919  40.966  15.219   8.685
  183POPC   D2A 5920  41.142  15.333   8.302
  183POPC   C3A 5921  40.878  15.334   7.940
  183POPC   C4A 5922  41.211  15.421   7.666
  183POPC   C1B 5923  40.465  15.052   8.713
  183POPC   C2B 5924  40.583  14.828   8.305
  183POPC   C3B 5925  40.590  14.876   7.836
  183POPC   C4B 5926  40.383  14.900   7.405
  184POPC   NC3 5927  40.842  43.498   9.922
  184POPC   PO4 5928  40.369  43.060   9.652
  184POPC   GL1 5929  40.617  43.252   9.317
  184POPC   GL2 5930  40.349  43.290   9.097
  184POPC   C1A 5931  40.888  43.107   8.951
  184POPC   D2A 5932  40.813  42.885   8.531
  184POPC   C3A 5933  40.874  43.074   8.083
  184POPC   C4A 5934  40.966  43.197   7.627
  184POPC   C1B 5935  40.564  43.443   8.720
  184POPC   C2B 5936  40.671  43.509   8.281
  184POPC   C3B 5937  40.553  43.414   7.837
  184POPC   C4B 5938  40.588  43.409   7.377
  185POPC   NC3 5939   6.694   1.423   9.474
  185POPC   PO4 5940   6.902   0.710   9.466
  185POPC   GL1 5941   6.790   0.939   9.135
  185POPC   GL2 5942   7.020   1.185   9.157
  185POPC   C1A 5943   6.579   1.129   8.791
  185POPC   D2A 5944   6.378   0.985   8.374
  185POPC   C3A 5945   6.464   1.231   8.048
  185POPC   C4A 5946   6.603   1.165   7.660
  185POPC   C1B 5947   7.149   1.142   8.766
  185POPC   C2B 5948   6.908   1.094   8.399
  185POPC   C3B 5949   6.963   1.015   7.994
  185POPC   C4B 5950   7.127   1.192   7.611
  186POPC   NC3 5951  26.855  13.402   9.491
  186POPC   PO4 5952  27.152  13.981   9.534
  186POPC   GL1 5953  26.960  13.869   9.146
  186POPC   GL2 5954  26.614  13.824   9.229
  186POPC   C1A 5955  26.968  13.671   8.746
  186POPC   D2A 5956  26.704  13.416   8.442
  186POPC   C3A 5957  26.794  13.608   8.018
  186POPC   C4A 5958  27.206  13.532   7.820
  186POPC   C1B 5959  26.467  13.721   8.812
  186POPC   C2B 5960  26.523  13.888   8.393
  186POPC   C3B 5961  26.394  13.928   8.027
  186POPC   C4B 5962  26.372  13.712   7.667
  187POPC   NC3 5963  24.546  13.021   9.438
  187POPC   PO4 5964  24.431  13.695   9.651
  187POPC   GL1 5965  24.405  13.676   9.212
  187POPC   GL2 5966  24.248  13.352   9.178
  187POPC   C1A 5967  24.693  13.680   8.860
  187POPC   D2A 5968  24.762  13.474   8.452
  187POPC   C3A 5969  24.640  13.725   8.090
  187POPC   C4A 5970  24.256  13.694   7.862
  187POPC   C1B 5971  24.378  13.218   8.766
  187POPC   C2B 5972  24.384  13.101   8.322
  187POPC   C3B 5973  24.202  13.171   7.915
  187POPC   C4B 5974  24.283  13.339   7.477
  188POPC   NC3 5975  36.254  44.263   9.505
  188POPC   PO4 5976  35.857  44.882   9.461
  188POPC   GL1 5977  36.100  44.875   9.109
  188POPC   GL2 5978  36.154  44.531   9.078
  188POPC   C1A 5979  35.972  44.856   8.689
  188POPC   D2A 5980  35.986  44.514   8.415
  188POPC   C3A 5981  36.187  44.728   8.078
  188POPC   C4A 5982  35.900   0.006   7.903
  188POPC   C1B 5983  36.324  44.263   8.746
  188POPC   C2B 5984  36.314  44.127   8.305
  188POPC   C3B 5985  36.040  44.267   7.966
  188POPC   C4B 5986  36.320  44.407   7.650
  189POPC   NC3 5987  28.420  44.858   9.610
  189POPC   PO4 5988  28.215  44.306   9.347
  189POPC   GL1 5989  28.461  44.565   9.086
  189POPC   GL2 5990  28.449  44.939   9.114
  189POPC   C1A 5991  28.380  44.714   8.656
  189POPC   D2A 5992  28.071  44.746   8.348
  189POPC   C3A 5993  28.237  44.622   7.939
  189POPC   C4A 5994  28.696  44.554   7.855
  189POPC   C1B 5995  28.138   0.129   8.824
  189POPC   C2B 5996  28.248   0.251   8.408
  189POPC   C3B 5997  28.055   0.132   8.028
  189POPC   C4B 5998  28.397   0.073   7.775
  190POPC   NC3 5999  11.909  31.175   9.322
  190POPC   PO4 6000  11.634  31.752   9.510
  190POPC   GL1 6001  11.898  31.670   9.146
  190POPC   GL2 6002  12.228  31.478   9.083
  190POPC   C1A 6003  11.993  31.664   8.684
  190POPC   D2A 6004  11.997  31.407   8.323
  190POPC   C3A 6005  12.014  31.566   7.913
  190POPC   C4A 6006  11.752  31.418   7.614
  190POPC   C1B 6007  12.359  31.260   8.735
  190POPC   C2B 6008  12.508  31.301   8.330
  190POPC   C3B 6009  12.323  31.170   7.942
  190POPC   C4B 6010  12.165  31.138   7.523
  191POPC   NC3 6011  44.273  41.967   9.843
  191POPC   PO4 6012  44.799  42.274   9.452
  191POPC   GL1 6013  44.805  42.277   9.054
  191POPC   GL2 6014   0.047  42.564   9.075
  191POPC   C1A 6015  44.454  42.339   8.749
  191POPC   D2A 6016  44.363  42.232   8.379
  191POPC   C3A 6017  44.504  42.508   8.064
  191POPC   C4A 6018  44.461  42.327   7.667
  191POPC   C1B 6019  44.903  42.568   8.668
  191POPC   C2B 6020  44.883  42.325   8.354
  191POPC   C3B 6021   0.012  42.500   7.986
  191POPC   C4B 6022  44.952  42.493   7.568
  192POPC   NC3 6023  28.018  18.825   9.343
  192POPC   PO4 6024  28.557  19.165   9.581
  192POPC   GL1 6025  28.449  19.198   9.144
  192POPC   GL2 6026  28.406  18.868   9.014
  192POPC   C1A 6027  28.361  19.319   8.715
  192POPC   D2A 6028  28.606  19.434   8.367
  192POPC   C3A 6029  28.391  19.439   7.998
  192POPC   C4A 6030  28.554  19.051   7.848
  192POPC   C1B 6031  28.097  18.896   8.666
  192POPC   C2B 6032  28.189  19.036   8.245
  192POPC   C3B 6033  28.072  18.898   7.821
  192POPC   C4B 6034  28.028  18.818   7.373
  193POPC   NC3 6035  34.020   7.630   9.688
  193POPC   PO4 6036  33.484   7.388   9.494
  193POPC   GL1 6037  33.751   7.590   9.160
  193POPC   GL2 6038  34.109   7.718   9.188
  193POPC   C1A 6039  33.653   7.507   8.709
  193POPC   D2A 6040  33.490   7.193   8.404
  193POPC   C3A 6041  33.689   7.157   8.002
  193POPC   C4A 6042  33.694   7.461   7.676
  193POPC   C1B 6043  34.241   7.572   8.773
  193POPC   C2B 6044  34.047   7.406   8.390
  193POPC   C3B 6045  33.897   7.659   8.099
  193POPC   C4B 6046  34.276   7.782   7.898
  194POPC   NC3 6047  30.153   1.655   9.390
  194POPC   PO4 6048  29.775   2.217   9.485
  194POPC   GL1 6049  29.847   1.975   9.138
  194POPC   GL2 6050  30.214   2.037   9.073
  194POPC   C1A 6051  29.878   1.952   8.714
  194POPC   D2A 6052  30.170   2.115   8.448
  194POPC   C3A 6053  29.986   2.347   8.095
  194POPC   C4A 6054  29.883   2.216   7.672
  194POPC   C1B 6055  30.308   1.683   8.759
  194POPC   C2B 6056  30.193   1.617   8.326
  194POPC   C3B 6057  30.127   1.864   7.951
  194POPC   C4B 6058  30.172   1.803   7.487
  195POPC   NC3 6059  27.954  29.644   9.351
  195POPC   PO4 6060  28.601  29.304   9.481
  195POPC   GL1 6061  28.458  29.133   9.090
  195POPC   GL2 6062  28.209  28.859   9.095
  195POPC   C1A 6063  28.292  29.191   8.689
  195POPC   D2A 6064  28.131  29.357   8.323
  195POPC   C3A 6065  28.456  29.365   7.983
  195POPC   C4A 6066  28.448  29.561   7.563
  195POPC   C1B 6067  28.007  28.751   8.722
  195POPC   C2B 6068  27.915  28.869   8.330
  195POPC   C3B 6069  28.019  29.024   7.960
  195POPC   C4B 6070  28.216  29.119   7.606
  196POPC   NC3 6071  31.134  11.563   9.480
  196POPC   PO4 6072  31.526  10.943   9.525
  196POPC   GL1 6073  31.348  11.176   9.151
  196POPC   GL2 6074  31.520  11.484   9.124
  196POPC   C1A 6075  31.314  11.368   8.690
  196POPC   D2A 6076  31.183  11.176   8.303
  196POPC   C3A 6077  31.364  11.413   7.982
  196POPC   C4A 6078  31.559  11.220   7.592
  196POPC   C1B 6079  31.769  11.678   8.819
  196POPC   C2B 6080  31.664  11.625   8.408
  196POPC   C3B 6081  31.677  11.842   8.064
  196POPC   C4B 6082  31.643  11.729   7.691
  197POPC   NC3 6083  24.620   6.349   9.717
  197POPC   PO4 6084  24.416   5.680   9.634
  197POPC   GL1 6085  24.269   5.740   9.205
  197POPC   GL2 6086  24.059   5.479   9.175
  197POPC   C1A 6087  24.275   5.919   8.770
  197POPC   D2A 6088  24.396   6.085   8.341
  197POPC   C3A 6089  24.677   5.796   8.088
  197POPC   C4A 6090  24.923   5.863   7.692
  197POPC   C1B 6091  23.976   5.503   8.735
  197POPC   C2B 6092  24.155   5.622   8.350
  197POPC   C3B 6093  24.189   5.812   7.935
  197POPC   C4B 6094  24.066   5.931   7.536
  198POPC   NC3 6095  22.758  30.733   9.663
  198POPC   PO4 6096  23.309  30.429   9.624
  198POPC   GL1 6097  23.056  30.619   9.256
  198POPC   GL2 6098  22.726  30.479   9.209
  198POPC   C1A 6099  23.188  30.566   8.817
  198POPC   D2A 6100  23.375  30.719   8.437
  198POPC   C3A 6101  23.086  30.653   8.143
  198POPC   C4A 6102  23.037  30.829   7.788
  198POPC   C1B 6103  22.681  30.714   8.842
  198POPC   C2B 6104  22.575  30.627   8.416
  198POPC   C3B 6105  22.579  30.794   7.997
  198POPC   C4B 6106  22.631  30.624   7.585
  199POPC   NC3 6107   7.161  27.972   9.445
  199POPC   PO4 6108   7.475  28.588   9.358
  199POPC   GL1 6109   7.495  28.206   9.135
  199POPC   GL2 6110   7.807  28.112   9.047
  199POPC   C1A 6111   7.390  28.125   8.710
  199POPC   D2A 6112   7.506  28.234   8.294
  199POPC   C3A 6113   7.231  28.480   8.010
  199POPC   C4A 6114   7.169  28.341   7.577
  199POPC   C1B 6115   7.746  28.516   8.756
  199POPC   C2B 6116   7.888  28.591   8.304
  199POPC   C3B 6117   7.744  28.445   7.856
  199POPC   C4B 6118   7.785  28.591   7.411
  200POPC   NC3 6119   6.409   3.746   9.312
  200POPC   PO4 6120   5.850   3.510   9.663
  200POPC   GL1 6121   5.783   3.401   9.200
  200POPC   GL2 6122   6.155   3.318   9.152
  200POPC   C1A 6123   5.619   3.626   8.768
  200POPC   D2A 6124   5.490   3.887   8.397
  200POPC   C3A 6125   5.607   3.727   7.993
  200POPC   C4A 6126   5.739   3.487   7.648
  200POPC   C1B 6127   6.013   3.285   8.711
  200POPC   C2B 6128   5.924   3.565   8.356
  200POPC   C3B 6129   6.136   3.677   7.979
  200POPC   C4B 6130   6.215   3.621   7.555
  201POPC   NC3 6131  44.380   3.845   9.516
  201POPC   PO4 6132  44.676   4.505   9.577
  201POPC   GL1 6133  44.593   4.326   9.165
  201POPC   GL2 6134  44.705   3.960   9.130
  201POPC   C1A 6135  44.470   4.517   8.738
  201POPC   D2A 6136  44.619   4.657   8.303
  201POPC   C3A 6137  44.876   4.362   8.057
  201POPC   C4A 6138  44.894   4.436   7.614
  201POPC   C1B 6139  44.358   3.995   8.834
  201POPC   C2B 6140  44.264   4.124   8.434
  201POPC   C3B 6141  44.383   4.246   8.031
  201POPC   C4B 6142  44.464   4.142   7.609
  202POPC   NC3 6143  11.039  24.972   9.208
  202POPC   PO4 6144  11.249  24.677   9.798
  202POPC   GL1 6145  11.283  24.423   9.289
  202POPC   GL2 6146  11.614  24.396   9.098
  202POPC   C1A 6147  11.183  24.445   8.790
  202POPC   D2A 6148  11.262  24.654   8.340
  202POPC   C3A 6149  11.231  24.444   7.917
  202POPC   C4A 6150  11.308  24.266   7.506
  202POPC   C1B 6151  11.672  24.622   8.677
  202POPC   C2B 6152  11.786  24.747   8.263
  202POPC   C3B 6153  11.570  24.850   7.913
  202POPC   C4B 6154  11.501  24.733   7.530
  203POPC   NC3 6155  42.462  36.516   9.373
  203POPC   PO4 6156  41.980  37.054   9.527
  203POPC   GL1 6157  42.219  37.033   9.157
  203POPC   GL2 6158  42.597  37.044   9.247
  203POPC   C1A 6159  42.135  36.992   8.707
  203POPC   D2A 6160  42.405  37.114   8.355
  203POPC   C3A 6161  42.170  37.044   7.983
  203POPC   C4A 6162  41.996  36.609   7.878
  203POPC   C1B 6163  42.616  36.831   8.829
  203POPC   C2B 6164  42.441  36.578   8.499
  203POPC   C3B 6165  42.472  36.669   8.067
  203POPC   C4B 6166  42.585  36.933   7.666
  204POPC   NC3 6167   8.464  44.809   9.562
  204POPC   PO4 6168   7.950  44.389   9.513
  204POPC   GL1 6169   8.200  44.570   9.179
  204POPC   GL2 6170   8.175  44.949   9.146
  204POPC   C1A 6171   8.421  44.652   8.802
  204POPC   D2A 6172   8.501  44.454   8.402
  204POPC   C3A 6173   8.518  44.659   7.971
  204POPC   C4A 6174   8.540  44.726   7.504
  204POPC   C1B 6175   7.915  44.756   8.787
  204POPC   C2B 6176   8.006  44.577   8.380
  204POPC   C3B 6177   8.015  44.708   7.961
  204POPC   C4B 6178   7.784   0.040   7.809
  205POPC   NC3 6179  44.159  24.401   9.558
  205POPC   PO4 6180  43.539  24.204   9.391
  205POPC   GL1 6181  43.858  24.358   9.152
  205POPC   GL2 6182  43.969  24.696   9.160
  205POPC   C1A 6183  43.993  24.222   8.810
  205POPC   D2A 6184  43.934  24.140   8.430
  205POPC   C3A 6185  44.247  24.316   8.196
  205POPC   C4A 6186  44.103  24.097   7.815
  205POPC   C1B 6187  43.761  24.703   8.745
  205POPC   C2B 6188  43.532  24.503   8.392
  205POPC   C3B 6189  43.754  24.397   8.012
  205POPC   C4B 6190  44.126  24.597   7.796
  206POPC   NC3 6191  27.212  36.766   9.514
  206POPC   PO4 6192  27.732  37.308   9.441
  206POPC   GL1 6193  27.647  37.006   9.121
  206POPC   GL2 6194  27.321  36.861   9.026
  206POPC   C1A 6195  27.771  36.900   8.723
  206POPC   D2A 6196  27.546  36.811   8.373
  206POPC   C3A 6197  27.805  36.794   8.049
  206POPC   C4A 6198  27.984  37.149   7.847
  206POPC   C1B 6199  27.373  37.242   8.768
  206POPC   C2B 6200  27.331  37.337   8.348
  206POPC   C3B 6201  27.459  37.153   7.962
  206POPC   C4B 6202  27.298  36.763   7.911
  207POPC   NC3 6203  44.835  32.476   9.236
  207POPC   PO4 6204   0.219  31.970   9.440
  207POPC   GL1 6205   0.412  32.226   9.077
  207POPC   GL2 6206   0.780  32.355   9.177
  207POPC   C1A 6207   0.498  32.008   8.679
  207POPC   D2A 6208   0.435  31.769   8.295
  207POPC   C3A 6209   0.423  32.060   7.930
  207POPC   C4A 6210   0.149  32.426   7.785
  207POPC   C1B 6211   0.778  32.477   8.747
  207POPC   C2B 6212   0.658  32.365   8.332
  207POPC   C3B 6213   0.629  32.573   7.943
  207POPC   C4B 6214   0.969  32.528   7.667
  208POPC   NC3 6215  32.026  33.202   9.739
  208POPC   PO4 6216  32.489  32.784   9.498
  208POPC   GL1 6217  32.299  32.866   9.160
  208POPC   GL2 6218  31.987  33.024   9.244
  208POPC   C1A 6219  32.347  32.991   8.767
  208POPC   D2A 6220  32.540  33.244   8.456
  208POPC   C3A 6221  32.403  33.118   8.086
  208POPC   C4A 6222  32.247  33.081   7.708
  208POPC   C1B 6223  31.889  32.721   8.897
  208POPC   C2B 6224  32.076  32.616   8.503
  208POPC   C3B 6225  31.915  32.755   8.098
  208POPC   C4B 6226  32.014  32.651   7.689
  209POPC   NC3 6227  21.657  40.057   9.743
  209POPC   PO4 6228  22.299  39.757   9.583
  209POPC   GL1 6229  22.153  39.971   9.233
  209POPC   GL2 6230  22.473  39.878   9.071
  209POPC   C1A 6231  22.079  40.009   8.770
  209POPC   D2A 6232  22.351  40.044   8.380
  209POPC   C3A 6233  22.205  40.268   8.015
  209POPC   C4A 6234  22.013  40.023   7.725
  209POPC   C1B 6235  22.456  39.636   8.691
  209POPC   C2B 6236  22.211  39.510   8.368
  209POPC   C3B 6237  22.295  39.678   7.985
  209POPC   C4B 6238  22.565  39.975   7.835
  210POPC   NC3 6239  25.085  24.020   9.494
  210POPC   PO4 6240  24.943  24.718   9.633
  210POPC   GL1 6241  24.976  24.499   9.229
  210POPC   GL2 6242  25.279  24.621   9.079
  210POPC   C1A 6243  25.013  24.288   8.803
  210POPC   D2A 6244  25.256  24.036   8.502
  210POPC   C3A 6245  25.270  24.151   8.076
  210POPC   C4A 6246  25.205  24.468   7.778
  210POPC   C1B 6247  25.477  24.518   8.670
  210POPC   C2B 6248  25.533  24.625   8.216
  210POPC   C3B 6249  25.663  24.633   7.751
  210POPC   C4B 6250  25.646  24.205   7.481
  211POPC   NC3 6251   8.666  43.173   9.336
  211POPC   PO4 6252   9.337  43.003   9.356
  211POPC   GL1 6253   9.131  43.197   9.040
  211POPC   GL2 6254   9.052  43.515   9.188
  211POPC   C1A 6255   9.089  43.103   8.610
  211POPC   D2A 6256   8.863  42.923   8.241
  211POPC   C3A 6257   9.045  42.961   7.841
  211POPC   C4A 6258   8.811  43.028   7.470
  211POPC   C1B 6259   8.841  43.578   8.764
  211POPC   C2B 6260   8.868  43.452   8.309
  211POPC   C3B 6261   8.880  43.461   7.873
  211POPC   C4B 6262   8.578  43.472   7.550
  212POPC   NC3 6263  13.169  25.858   9.591
  212POPC   PO4 6264  12.547  25.985   9.525
  212POPC   GL1 6265  12.853  26.106   9.218
  212POPC   GL2 6266  13.089  25.870   9.107
  212POPC   C1A 6267  12.978  26.230   8.777
  212POPC   D2A 6268  13.125  26.015   8.424
  212POPC   C3A 6269  12.901  26.153   8.078
  212POPC   C4A 6270  13.000  26.280   7.674
  212POPC   C1B 6271  12.730  25.759   8.860
  212POPC   C2B 6272  12.815  25.600   8.483
  212POPC   C3B 6273  12.851  25.637   8.076
  212POPC   C4B 6274  12.800  25.794   7.691
  213POPC   NC3 6275  14.658   0.209   9.428
  213POPC   PO4 6276  14.152   0.647   9.577
  213POPC   GL1 6277  14.308   0.492   9.169
  213POPC   GL2 6278  14.666   0.608   9.085
  213POPC   C1A 6279  14.321   0.379   8.740
  213POPC   D2A 6280  14.526   0.612   8.427
  213POPC   C3A 6281  14.303   0.553   8.070
  213POPC   C4A 6282  14.482   0.581   7.692
  213POPC   C1B 6283  14.812   0.287   8.795
  213POPC   C2B 6284  14.663   0.111   8.415
  213POPC   C3B 6285  14.737   0.255   8.011
  213POPC   C4B 6286  14.600   0.097   7.636
  214POPC   NC3 6287  30.979   4.543   9.523
  214POPC   PO4 6288  31.620   4.247   9.452
  214POPC   GL1 6289  31.275   4.292   9.177
  214POPC   GL2 6290  31.249   4.656   9.101
  214POPC   C1A 6291  31.321   4.296   8.740
  214POPC   D2A 6292  31.627   4.304   8.439
  214POPC   C3A 6293  31.502   4.011   8.133
  214POPC   C4A 6294  31.478   3.975   7.702
  214POPC   C1B 6295  31.567   4.769   8.763
  214POPC   C2B 6296  31.558   4.806   8.290
  214POPC   C3B 6297  31.506   4.497   7.946
  214POPC   C4B 6298  31.794   4.437   7.600
  215POPC   NC3 6299  41.162   0.541   9.504
  215POPC   PO4 6300  40.685  44.973   9.527
  215POPC   GL1 6301  40.776   0.128   9.124
  215POPC   GL2 6302  40.799   0.503   9.114
  215POPC   C1A 6303  41.115   0.179   8.832
  215POPC   D2A 6304  41.166   0.359   8.433
  215POPC   C3A 6305  40.869   0.243   8.087
  215POPC   C4A 6306  40.736   0.156   7.646
  215POPC   C1B 6307  40.635   0.363   8.674
  215POPC   C2B 6308  40.393   0.511   8.288
  215POPC   C3B 6309  40.500   0.543   7.863
  215POPC   C4B 6310  40.925   0.628   7.741
  216POPC   NC3 6311   6.654  26.733   9.714
  216POPC   PO4 6312   6.665  26.137   9.462
  216POPC   GL1 6313   6.716  26.529   9.235
  216POPC   GL2 6314   6.392  26.744   9.280
  216POPC   C1A 6315   6.717  26.822   8.894
  216POPC   D2A 6316   6.724  26.799   8.469
  216POPC   C3A 6317   6.482  26.644   8.109
  216POPC   C4A 6318   6.772  26.818   7.843
  216POPC   C1B 6319   6.207  26.723   8.867
  216POPC   C2B 6320   6.192  26.887   8.446
  216POPC   C3B 6321   6.269  27.106   8.048
  216POPC   C4B 6322   6.351  26.971   7.609
  217POPC   NC3 6323  32.165  39.128   9.820
  217POPC   PO4 6324  32.370  39.555   9.394
  217POPC   GL1 6325  32.404  39.145   9.214
  217POPC   GL2 6326  32.338  39.346   8.928
  217POPC   C1A 6327  32.524  38.908   8.811
  217POPC   D2A 6328  32.211  39.009   8.472
  217POPC   C3A 6329  32.411  39.085   8.086
  217POPC   C4A 6330  32.291  38.998   7.683
  217POPC   C1B 6331  31.953  39.406   8.717
  217POPC   C2B 6332  31.733  39.481   8.370
  217POPC   C3B 6333  31.900  39.580   7.962
  217POPC   C4B 6334  32.326  39.551   7.752
  218POPC   NC3 6335  12.469  44.283   9.343
  218POPC   PO4 6336  13.002  44.687   9.387
  218POPC   GL1 6337  12.670  44.700   9.106
  218POPC   GL2 6338  12.790  44.400   8.959
  218POPC   C1A 6339  12.467  44.740   8.730
  218POPC   D2A 6340  12.665  44.472   8.445
  218POPC   C3A 6341  12.892  44.755   8.193
  218POPC   C4A 6342  12.751  44.783   7.793
  218POPC   C1B 6343  13.142  44.560   8.690
  218POPC   C2B 6344  13.234  44.378   8.278
  218POPC   C3B 6345  13.142  44.467   7.833
  218POPC   C4B 6346  13.210  44.858   7.559
  219POPC   NC3 6347   5.517  27.771   9.311
  219POPC   PO4 6348   4.919  27.588   9.546
  219POPC   GL1 6349   4.775  27.411   9.162
  219POPC   GL2 6350   5.120  27.501   9.087
  219POPC   C1A 6351   4.859  27.269   8.737
  219POPC   D2A 6352   5.041  27.547   8.440
  219POPC   C3A 6353   4.936  27.345   8.039
  219POPC   C4A 6354   5.198  27.484   7.722
  219POPC   C1B 6355   5.077  27.888   8.875
  219POPC   C2B 6356   5.376  27.979   8.587
  219POPC   C3B 6357   5.516  27.730   8.244
  219POPC   C4B 6358   5.630  27.776   7.813
  220POPC   NC3 6359  17.307  25.434   9.768
  220POPC   PO4 6360  17.859  25.638   9.292
  220POPC   GL1 6361  17.729  25.344   8.994
  220POPC   GL2 6362  17.430  25.176   9.091
  220POPC   C1A 6363  17.597  25.266   8.592
  220POPC   D2A 6364  17.330  25.318   8.262
  220POPC   C3A 6365  17.609  25.147   8.024
  220POPC   C4A 6366  17.923  25.345   7.830
  220POPC   C1B 6367  17.209  24.948   8.749
  220POPC   C2B 6368  17.374  24.802   8.333
  220POPC   C3B 6369  17.324  24.692   7.875
  220POPC   C4B 6370  17.342  24.758   7.410
  221POPC   NC3 6371  17.849  36.113   9.446
  221POPC   PO4 6372  17.126  36.234   9.506
  221POPC   GL1 6373  17.367  36.153   9.159
  221POPC   GL2 6374  17.508  35.808   9.157
  221POPC   C1A 6375  17.594  36.177   8.785
  221POPC   D2A 6376  17.787  36.326   8.436
  221POPC   C3A 6377  17.578  36.384   8.098
  221POPC   C4A 6378  17.531  36.421   7.723
  221POPC   C1B 6379  17.658  35.670   8.726
  221POPC   C2B 6380  17.644  35.853   8.315
  221POPC   C3B 6381  17.735  35.930   7.887
  221POPC   C4B 6382  17.565  35.940   7.465
  222POPC   NC3 6383  36.323  44.999   9.561
  222POPC   PO4 6384  36.036   0.622   9.597
  222POPC   GL1 6385  36.147   0.396   9.227
  222POPC   GL2 6386  35.826   0.310   9.157
  222POPC   C1A 6387  36.127   0.369   8.761
  222POPC   D2A 6388  36.321   0.540   8.385
  222POPC   C3A 6389  36.309   0.273   8.039
  222POPC   C4A 6390  36.405  44.997   7.698
  222POPC   C1B 6391  35.799   0.730   8.964
  222POPC   C2B 6392  35.836   0.781   8.537
  222POPC   C3B 6393  35.944   0.806   8.127
  222POPC   C4B 6394  36.021   0.581   7.756
  223POPC   NC3 6395  40.825  31.882   9.366
  223POPC   PO4 6396  41.093  31.303   9.327
  223POPC   GL1 6397  40.915  31.525   9.018
  223POPC   GL2 6398  40.570  31.483   9.171
  223POPC   C1A 6399  40.935  31.391   8.614
  223POPC   D2A 6400  40.638  31.351   8.291
  223POPC   C3A 6401  40.855  31.328   7.933
  223POPC   C4A 6402  40.870  31.453   7.517
  223POPC   C1B 6403  40.448  31.536   8.758
  223POPC   C2B 6404  40.436  31.813   8.417
  223POPC   C3B 6405  40.436  31.715   7.985
  223POPC   C4B 6406  40.521  31.849   7.584
  224POPC   NC3 6407  34.996  12.304   9.375
  224POPC   PO4 6408  35.638  12.221   9.635
  224POPC   GL1 6409  35.456  12.093   9.217
  224POPC   GL2 6410  35.240  11.838   9.214
  224POPC   C1A 6411  35.568  11.985   8.772
  224POPC   D2A 6412  35.313  12.149   8.407
  224POPC   C3A 6413  35.474  12.160   8.001
  224POPC   C4A 6414  35.815  12.283   7.794
  224POPC   C1B 6415  35.063  11.962   8.830
  224POPC   C2B 6416  35.075  11.702   8.487
  224POPC   C3B 6417  35.194  11.730   8.102
  224POPC   C4B 6418  35.154  11.906   7.693
  225POPC   NC3 6419  19.909   7.677   9.764
  225POPC   PO4 6420  19.789   7.066   9.816
  225POPC   GL1 6421  19.829   7.166   9.313
  225POPC   GL2 6422  19.977   6.875   9.150
  225POPC   C1A 6423  19.998   7.328   8.886
  225POPC   D2A 6424  20.097   7.255   8.410
  225POPC   C3A 6425  19.790   7.510   8.144
  225POPC   C4A 6426  19.771   7.672   7.711
  225POPC   C1B 6427  19.914   6.853   8.722
  225POPC   C2B 6428  19.643   7.008   8.423
  225POPC   C3B 6429  19.746   7.038   8.008
  225POPC   C4B 6430  19.501   7.229   7.705
  226POPC   NC3 6431  42.350  22.638   9.637
  226POPC   PO4 6432  42.233  21.993   9.524
  226POPC   GL1 6433  42.148  22.117   9.140
  226POPC   GL2 6434  42.112  22.452   9.205
  226POPC   C1A 6435  42.495  22.266   8.906
  226POPC   D2A 6436  42.682  22.206   8.517
  226POPC   C3A 6437  42.412  22.032   8.228
  226POPC   C4A 6438  42.429  22.220   7.846
  226POPC   C1B 6439  42.103  22.590   8.784
  226POPC   C2B 6440  42.049  22.352   8.387
  226POPC   C3B 6441  41.923  22.183   7.960
  226POPC   C4B 6442  41.916  22.043   7.528
  227POPC   NC3 6443  14.491  12.558   9.685
  227POPC   PO4 6444  14.301  11.905   9.458
  227POPC   GL1 6445  14.553  12.053   9.152
  227POPC   GL2 6446  14.368  12.365   9.184
  227POPC   C1A 6447  14.634  11.809   8.760
  227POPC   D2A 6448  14.660  12.038   8.390
  227POPC   C3A 6449  14.430  11.872   8.085
  227POPC   C4A 6450  14.432  11.877   7.677
  227POPC   C1B 6451  14.309  12.212   8.749
  227POPC   C2B 6452  14.119  12.199   8.354
  227POPC   C3B 6453  14.300  12.342   7.957
  227POPC   C4B 6454  14.693  12.364   7.725
  228POPC   NC3 6455   6.790  24.055   9.359
  228POPC   PO4 6456   6.885  23.380   9.446
  228POPC   GL1 6457   6.717  23.609   9.122
  228POPC   GL2 6458   6.581  23.904   8.928
  228POPC   C1A 6459   6.940  23.571   8.767
  228POPC   D2A 6460   7.012  23.364   8.403
  228POPC   C3A 6461   6.895  23.745   8.163
  228POPC   C4A 6462   6.744  23.734   7.763
  228POPC   C1B 6463   6.838  24.048   8.590
  228POPC   C2B 6464   7.008  24.294   8.259
  228POPC   C3B 6465   7.003  24.205   7.825
  228POPC   C4B 6466   6.819  24.083   7.407
  229POPC   NC3 6467  41.084  30.862   9.440
  229POPC   PO4 6468  40.426  30.885   9.458
  229POPC   GL1 6469  40.676  30.550   9.226
  229POPC   GL2 6470  41.053  30.485   9.103
  229POPC   C1A 6471  40.654  30.411   8.797
  229POPC   D2A 6472  40.800  30.230   8.428
  229POPC   C3A 6473  40.679  30.480   8.082
  229POPC   C4A 6474  40.598  30.529   7.670
  229POPC   C1B 6475  40.975  30.826   8.759
  229POPC   C2B 6476  40.847  30.906   8.312
  229POPC   C3B 6477  40.988  30.830   7.865
  229POPC   C4B 6478  41.042  30.645   7.437
  230POPC   NC3 6479  22.950  17.370   9.581
  230POPC   PO4 6480  23.151  18.038   9.607
  230POPC   GL1 6481  22.927  17.786   9.270
  230POPC   GL2 6482  23.131  17.496   9.133
  230POPC   C1A 6483  22.811  17.720   8.818
  230POPC   D2A 6484  23.060  17.760   8.418
  230POPC   C3A 6485  22.937  17.656   8.002
  230POPC   C4A 6486  22.661  17.793   7.665
  230POPC   C1B 6487  23.318  17.441   8.730
  230POPC   C2B 6488  23.401  17.385   8.295
  230POPC   C3B 6489  23.210  17.241   7.884
  230POPC   C4B 6490  23.062  17.475   7.532
  231POPC   NC3 6491  27.179  39.118   9.498
  231POPC   PO4 6492  27.789  39.258   9.687
  231POPC   GL1 6493  27.589  39.318   9.238
  231POPC   GL2 6494  27.292  39.547   9.189
  231POPC   C1A 6495  27.619  39.331   8.769
  231POPC   D2A 6496  27.461  39.510   8.353
  231POPC   C3A 6497  27.527  39.193   8.017
  231POPC   C4A 6498  27.786  38.862   7.867
  231POPC   C1B 6499  27.113  39.335   8.816
  231POPC   C2B 6500  27.240  39.054   8.469
  231POPC   C3B 6501  27.137  38.869   8.066
  231POPC   C4B 6502  27.156  38.996   7.628
  232POPC   NC3 6503  42.048   0.208   9.449
  232POPC   PO4 6504  41.570   0.796   9.517
  232POPC   GL1 6505  41.583   0.545   9.193
  232POPC   GL2 6506  41.896   0.616   9.148
  232POPC   C1A 6507  41.443   0.594   8.786
  232POPC   D2A 6508  41.407   0.830   8.397
  232POPC   C3A 6509  41.328   0.584   8.020
  232POPC   C4A 6510  41.420   0.679   7.582
  232POPC   C1B 6511  41.811   0.252   8.820
  232POPC   C2B 6512  41.726   0.402   8.399
  232POPC   C3B 6513  41.806   0.672   8.064
  232POPC   C4B 6514  41.733   0.341   7.768
  233POPC   NC3 6515  44.538  18.802   9.540
  233POPC   PO4 6516  44.416  19.446   9.528
  233POPC   GL1 6517  44.308  19.172   9.189
  233POPC   GL2 6518  44.656  19.149   9.134
  233POPC   C1A 6519  44.394  19.173   8.723
  233POPC   D2A 6520  44.671  19.173   8.360
  233POPC   C3A 6521  44.538  18.887   8.048
  233POPC   C4A 6522  44.392  19.165   7.761
  233POPC   C1B 6523  44.908  19.013   8.786
  233POPC   C2B 6524   0.170  19.281   8.530
  233POPC   C3B 6525   0.122  19.321   8.099
  233POPC   C4B 6526  44.905  19.105   7.745
  234POPC   NC3 6527  38.129   7.620   9.418
  234POPC   PO4 6528  38.589   7.178   9.587
  234POPC   GL1 6529  38.339   7.167   9.125
  234POPC   GL2 6530  38.034   7.176   9.082
  234POPC   C1A 6531  38.467   7.106   8.644
  234POPC   D2A 6532  38.600   7.158   8.200
  234POPC   C3A 6533  38.579   7.577   8.014
  234POPC   C4A 6534  38.665   7.630   7.575
  234POPC   C1B 6535  38.148   7.490   8.739
  234POPC   C2B 6536  38.166   7.416   8.283
  234POPC   C3B 6537  38.210   7.262   7.847
  234POPC   C4B 6538  37.950   7.181   7.479
  235POPC   NC3 6539   3.668  11.948   9.960
  235POPC   PO4 6540   3.221  11.961   9.468
  235POPC   GL1 6541   3.481  12.060   9.171
  235POPC   GL2 6542   3.685  11.764   9.274
  235POPC   C1A 6543   3.329  12.117   8.754
  235POPC   D2A 6544   3.088  12.189   8.399
  235POPC   C3A 6545   3.287  12.349   8.074
  235POPC   C4A 6546   3.552  12.132   7.832
  235POPC   C1B 6547   3.722  11.788   8.814
  235POPC   C2B 6548   3.609  11.902   8.359
  235POPC   C3B 6549   3.883  11.799   7.985
  235POPC   C4B 6550   4.014  11.977   7.573
  236POPC   NC3 6551  15.476   3.997   9.597
  236POPC   PO4 6552  16.136   4.396   9.546
  236POPC   GL1 6553  16.051   4.387   9.128
  236POPC   GL2 6554  15.867   4.053   9.184
  236POPC   C1A 6555  16.076   4.655   8.712
  236POPC   D2A 6556  16.216   4.685   8.272
  236POPC   C3A 6557  16.093   4.326   7.991
  236POPC   C4A 6558  15.677   4.272   7.799
  236POPC   C1B 6559  15.945   4.095   8.733
  236POPC   C2B 6560  15.782   3.936   8.349
  236POPC   C3B 6561  15.913   3.829   7.940
  236POPC   C4B 6562  16.046   3.988   7.574
  237POPC   NC3 6563  20.847  26.682   9.705
  237POPC   PO4 6564  20.420  27.019   9.378
  237POPC   GL1 6565  20.462  27.028   8.972
  237POPC   GL2 6566  20.765  27.193   8.974
  237POPC   C1A 6567  20.686  26.693   8.768
  237POPC   D2A 6568  20.985  26.556   8.446
  237POPC   C3A 6569  20.760  26.559   8.055
  237POPC   C4A 6570  20.515  26.747   7.728
  237POPC   C1B 6571  20.983  27.360   8.629
  237POPC   C2B 6572  20.939  27.072   8.333
  237POPC   C3B 6573  20.608  27.105   8.055
  237POPC   C4B 6574  20.706  27.210   7.598
  238POPC   NC3 6575   5.846  20.907   9.495
  238POPC   PO4 6576   5.955  20.200   9.502
  238POPC   GL1 6577   5.831  20.479   9.179
  238POPC   GL2 6578   5.507  20.459   9.062
  238POPC   C1A 6579   6.004  20.487   8.761
  238POPC   D2A 6580   6.159  20.622   8.342
  238POPC   C3A 6581   5.927  20.602   7.941
  238POPC   C4A 6582   6.225  20.658   7.602
  238POPC   C1B 6583   5.606  20.799   8.806
  238POPC   C2B 6584   5.641  20.635   8.395
  238POPC   C3B 6585   5.526  20.288   8.139
  238POPC   C4B 6586   5.507  20.341   7.709
  239POPC   NC3 6587  31.758  11.374   9.559
  239POPC   PO4 6588  32.403  11.266   9.526
  239POPC   GL1 6589  32.384  11.181   9.124
  239POPC   GL2 6590  32.039  11.330   9.106
  239POPC   C1A 6591  32.283  11.140   8.697
  239POPC   D2A 6592  32.141  11.401   8.412
  239POPC   C3A 6593  32.349  11.234   8.060
  239POPC   C4A 6594  32.480  11.183   7.649
  239POPC   C1B 6595  31.785  11.171   8.764
  239POPC   C2B 6596  31.695  11.122   8.328
  239POPC   C3B 6597  31.862  11.338   7.976
  239POPC   C4B 6598  32.056  11.462   7.588
  240POPC   NC3 6599   4.483  31.953   9.933
  240POPC   PO4 6600   4.052  32.237   9.466
  240POPC   GL1 6601   4.375  32.357   9.151
  240POPC   GL2 6602   4.178  32.374   8.925
  240POPC   C1A 6603   4.616  32.142   8.788
  240POPC   D2A 6604   4.770  32.351   8.412
  240POPC   C3A 6605   4.638  32.194   8.038
  240POPC   C4A 6606   4.553  32.148   7.578
  240POPC   C1B 6607   4.377  32.588   8.657
  240POPC   C2B 6608   4.329  32.603   8.237
  240POPC   C3B 6609   4.267  32.490   7.834
  240POPC   C4B 6610   3.839  32.451   7.670
  241POPC   NC3 6611   7.910   8.006   9.446
  241POPC   PO4 6612   7.260   8.155   9.548
  241POPC   GL1 6613   7.441   7.943   9.220
  241POPC   GL2 6614   7.666   8.155   9.025
  241POPC   C1A 6615   7.291   7.898   8.810
  241POPC   D2A 6616   7.315   8.032   8.407
  241POPC   C3A 6617   7.621   7.824   8.163
  241POPC   C4A 6618   7.395   7.872   7.811
  241POPC   C1B 6619   7.482   8.433   8.715
  241POPC   C2B 6620   7.355   8.517   8.267
  241POPC   C3B 6621   7.541   8.351   7.886
  241POPC   C4B 6622   7.603   8.420   7.425
  242POPC   NC3 6623  33.303  13.011   9.841
  242POPC   PO4 6624  32.947  12.475   9.860
  242POPC   GL1 6625  32.946  12.682   9.413
  242POPC   GL2 6626  33.211  12.954   9.323
  242POPC   C1A 6627  32.841  12.740   8.941
  242POPC   D2A 6628  32.757  12.657   8.474
  242POPC   C3A 6629  32.860  12.981   8.178
  242POPC   C4A 6630  32.843  12.909   7.749
  242POPC   C1B 6631  33.351  12.702   8.950
  242POPC   C2B 6632  33.293  12.794   8.499
  242POPC   C3B 6633  33.381  12.829   8.039
  242POPC   C4B 6634  33.228  12.553   7.720
  243POPC   NC3 6635   3.325   2.722   9.527
  243POPC   PO4 6636   3.730   2.238   9.417
  243POPC   GL1 6637   3.547   2.534   9.098
  243POPC   GL2 6638   3.820   2.732   9.180
  243POPC   C1A 6639   3.484   2.951   8.840
  243POPC   D2A 6640   3.521   3.194   8.417
  243POPC   C3A 6641   3.286   3.027   8.084
  243POPC   C4A 6642   3.302   2.825   7.689
  243POPC   C1B 6643   3.899   2.620   8.743
  243POPC   C2B 6644   3.898   2.820   8.321
  243POPC   C3B 6645   3.785   2.932   7.890
  243POPC   C4B 6646   3.746   2.589   7.592
  244POPC   NC3 6647  29.525   0.924   9.657
  244POPC   PO4 6648  30.056   1.264   9.590
  244POPC   GL1 6649  29.900   1.187   9.199
  244POPC   GL2 6650  29.701   1.473   9.127
  244POPC   C1A 6651  29.988   0.994   8.797
  244POPC   D2A 6652  29.792   0.977   8.387
  244POPC   C3A 6653  30.079   1.160   8.105
  244POPC   C4A 6654  30.317   0.963   7.779
  244POPC   C1B 6655  29.825   1.450   8.687
  244POPC   C2B 6656  29.557   1.430   8.320
  244POPC   C3B 6657  29.600   1.265   7.925
  244POPC   C4B 6658  29.912   1.409   7.675
  245POPC   NC3 6659   0.242  18.600   9.386
  245POPC   PO4 6660   0.004  18.022   9.251
  245POPC   GL1 6661   0.498  17.988   9.184
  245POPC   GL2 6662   0.601  18.310   9.083
  245POPC   C1A 6663   0.819  17.940   8.801
  245POPC   D2A 6664   0.910  18.076   8.327
  245POPC   C3A 6665   0.535  18.119   8.010
  245POPC   C4A 6666   0.252  18.461   7.790
  245POPC   C1B 6667   0.866  18.471   8.746
  245POPC   C2B 6668   0.827  18.668   8.337
  245POPC   C3B 6669   0.714  18.631   7.908
  245POPC   C4B 6670   0.662  18.590   7.437
  246POPC   NC3 6671   4.169  24.873   9.630
  246POPC   PO4 6672   4.135  24.167   9.633
  246POPC   GL1 6673   4.268  24.333   9.198
  246POPC   GL2 6674   4.430  24.618   9.229
  246POPC   C1A 6675   4.096  24.431   8.778
  246POPC   D2A 6676   3.941  24.624   8.385
  246POPC   C3A 6677   4.013  24.351   8.057
  246POPC   C4A 6678   4.191  24.280   7.669
  246POPC   C1B 6679   4.594  24.547   8.843
  246POPC   C2B 6680   4.442  24.605   8.447
  246POPC   C3B 6681   4.431  24.664   8.032
  246POPC   C4B 6682   4.655  24.577   7.687
  247POPC   NC3 6683  35.340  27.653   9.536
  247POPC   PO4 6684  35.847  27.402   9.269
  247POPC   GL1 6685  35.560  27.654   9.035
  247POPC   GL2 6686  35.169  27.615   9.075
  247POPC   C1A 6687  35.383  27.692   8.619
  247POPC   D2A 6688  35.294  27.621   8.194
  247POPC   C3A 6689  35.606  27.515   7.881
  247POPC   C4A 6690  35.432  27.638   7.464
  247POPC   C1B 6691  35.271  27.249   8.848
  247POPC   C2B 6692  35.357  27.125   8.423
  247POPC   C3B 6693  35.109  27.152   8.092
  247POPC   C4B 6694  35.181  27.316   7.758
  248POPC   NC3 6695  25.856  30.591   9.575
  248POPC   PO4 6696  26.464  30.853   9.534
  248POPC   GL1 6697  26.144  30.683   9.159
  248POPC   GL2 6698  25.764  30.768   9.106
  248POPC   C1A 6699  26.039  30.503   8.726
  248POPC   D2A 6700  26.212  30.360   8.324
  248POPC   C3A 6701  26.045  30.537   7.933
  248POPC   C4A 6702  25.718  30.802   7.697
  248POPC   C1B 6703  25.908  30.987   8.746
  248POPC   C2B 6704  25.969  30.853   8.311
  248POPC   C3B 6705  26.089  31.072   7.912
  248POPC   C4B 6706  26.073  31.260   7.481
  249POPC   NC3 6707  39.020  11.737   9.949
  249POPC   PO4 6708  39.344  11.164   9.641
  249POPC   GL1 6709  39.111  11.132   9.294
  249POPC   GL2 6710  39.435  11.196   9.138
  249POPC   C1A 6711  38.956  11.224   8.896
  249POPC   D2A 6712  39.148  11.237   8.511
  249POPC   C3A 6713  39.093  11.102   8.107
  249POPC   C4A 6714  39.156  11.237   7.697
  249POPC   C1B 6715  39.499  11.460   8.789
  249POPC   C2B 6716  39.594  11.449   8.351
  249POPC   C3B 6717  39.472  11.531   7.951
  249POPC   C4B 6718  39.613  11.398   7.535
  250POPC   NC3 6719   2.811  36.303   9.611
  250POPC   PO4 6720   2.788  35.714   9.616
  250POPC   GL1 6721   2.688  35.975   9.232
  250POPC   GL2 6722   3.017  36.015   9.173
  250POPC   C1A 6723   2.599  36.127   8.773
  250POPC   D2A 6724   2.499  36.349   8.340
  250POPC   C3A 6725   2.423  36.205   7.901
  250POPC   C4A 6726   2.668  36.005   7.572
  250POPC   C1B 6727   3.114  36.221   8.772
  250POPC   C2B 6728   3.031  36.454   8.376
  250POPC   C3B 6729   2.884  36.399   7.946
  250POPC   C4B 6730   3.125  36.253   7.582
  251POPC   NC3 6731  10.630   7.272   9.573
  251POPC   PO4 6732  10.568   7.917   9.512
  251POPC   GL1 6733  10.523   7.526   9.145
  251POPC   GL2 6734  10.665   7.111   9.118
  251POPC   C1A 6735  10.487   7.317   8.710
  251POPC   D2A 6736  10.338   7.133   8.311
  251POPC   C3A 6737  10.350   7.328   7.922
  251POPC   C4A 6738  10.696   7.482   7.681
  251POPC   C1B 6739  10.643   6.815   8.787
  251POPC   C2B 6740  10.831   6.882   8.377
  251POPC   C3B 6741  10.761   6.996   7.953
  251POPC   C4B 6742  10.525   6.988   7.559
  252POPC   NC3 6743  13.795   3.965   9.484
  252POPC   PO4 6744  13.626   4.618   9.264
  252POPC   GL1 6745  13.459   4.314   9.068
  252POPC   GL2 6746  13.208   4.536   8.917
  252POPC   C1A 6747  13.620   4.322   8.662
  252POPC   D2A 6748  13.748   4.552   8.315
  252POPC   C3A 6749  13.749   4.248   7.992
  252POPC   C4A 6750  13.836   4.037   7.633
  252POPC   C1B 6751  13.109   4.125   8.746
  252POPC   C2B 6752  13.298   4.071   8.359
  252POPC   C3B 6753  13.278   4.413   8.068
  252POPC   C4B 6754  13.293   4.230   7.704
  253POPC   NC3 6755   0.963  23.889   9.458
  253POPC   PO4 6756   1.458  23.481   9.507
  253POPC   GL1 6757   1.296  23.653   9.155
  253POPC   GL2 6758   1.412  23.996   9.212
  253POPC   C1A 6759   1.071  23.841   8.829
  253POPC   D2A 6760   1.198  24.079   8.508
  253POPC   C3A 6761   1.158  23.761   8.224
  253POPC   C4A 6762   1.257  23.718   7.824
  253POPC   C1B 6763   1.677  23.936   8.854
  253POPC   C2B 6764   1.698  24.013   8.409
  253POPC   C3B 6765   1.470  24.159   8.032
  253POPC   C4B 6766   1.574  24.096   7.611
  254POPC   NC3 6767  13.743   8.428   9.310
  254POPC   PO4 6768  13.497   7.781   9.539
  254POPC   GL1 6769  13.695   7.956   9.123
  254POPC   GL2 6770  13.555   8.254   8.883
  254POPC   C1A 6771  13.825   7.890   8.706
  254POPC   D2A 6772  13.584   8.125   8.394
  254POPC   C3A 6773  13.582   8.126   7.988
  254POPC   C4A 6774  13.250   8.022   7.734
  254POPC   C1B 6775  13.883   8.478   8.644
  254POPC   C2B 6776  13.926   8.699   8.262
  254POPC   C3B 6777  13.750   8.608   7.862
  254POPC   C4B 6778  13.476   8.436   7.573
  255POPC   NC3 6779  40.936  35.656   9.333
  255POPC   PO4 6780  40.638  35.114   9.567
  255POPC   GL1 6781  40.704  35.167   9.154
  255POPC   GL2 6782  41.061  35.146   9.194
  255POPC   C1A 6783  40.502  35.281   8.761
  255POPC   D2A 6784  40.551  35.500   8.356
  255POPC   C3A 6785  40.624  35.294   7.953
  255POPC   C4A 6786  40.721  35.570   7.631
  255POPC   C1B 6787  41.045  35.148   8.730
  255POPC   C2B 6788  41.028  35.164   8.252
  255POPC   C3B 6789  41.136  35.522   7.935
  255POPC   C4B 6790  41.181  35.628   7.444
  256POPC   NC3 6791  37.814  38.128   9.481
  256POPC   PO4 6792  37.692  38.772   9.546
  256POPC   GL1 6793  37.440  38.611   9.186
  256POPC   GL2 6794  37.367  38.233   9.220
  256POPC   C1A 6795  37.582  38.719   8.755
  256POPC   D2A 6796  37.763  38.935   8.397
  256POPC   C3A 6797  37.668  38.762   7.981
  256POPC   C4A 6798  38.029  38.705   7.670
  256POPC   C1B 6799  37.646  38.220   8.844
  256POPC   C2B 6800  37.592  38.343   8.409
  256POPC   C3B 6801  37.758  38.273   8.039
  256POPC   C4B 6802  37.893  38.169   7.687
  257POPC   NC3 6803   1.809  28.732   9.524
  257POPC   PO4 6804   2.225  29.206   9.469
  257POPC   GL1 6805   2.072  28.970   9.145
  257POPC   GL2 6806   1.699  29.083   9.166
  257POPC   C1A 6807   2.221  29.074   8.746
  257POPC   D2A 6808   2.154  29.432   8.498
  257POPC   C3A 6809   2.195  29.237   8.106
  257POPC   C4A 6810   1.982  29.373   7.767
  257POPC   C1B 6811   1.725  29.048   8.747
  257POPC   C2B 6812   1.707  29.206   8.368
  257POPC   C3B 6813   1.717  29.019   8.018
  257POPC   C4B 6814   1.632  29.000   7.620
  258POPC   NC3 6815  12.883  36.357   9.528
  258POPC   PO4 6816  12.755  37.025   9.533
  258POPC   GL1 6817  12.975  36.798   9.248
  258POPC   GL2 6818  12.702  36.604   9.090
  258POPC   C1A 6819  13.181  36.887   8.868
  258POPC   D2A 6820  13.058  37.108   8.485
  258POPC   C3A 6821  13.285  36.984   8.135
  258POPC   C4A 6822  13.080  36.916   7.781
  258POPC   C1B 6823  12.781  36.683   8.631
  258POPC   C2B 6824  12.886  36.611   8.189
  258POPC   C3B 6825  12.590  36.690   7.861
  258POPC   C4B 6826  12.406  37.098   7.816
  259POPC   NC3 6827  41.177   3.824   9.405
  259POPC   PO4 6828  40.530   3.611   9.417
  259POPC   GL1 6829  40.834   3.531   9.109
  259POPC   GL2 6830  41.059   3.774   8.913
  259POPC   C1A 6831  40.702   3.394   8.724
  259POPC   D2A 6832  40.773   3.635   8.370
  259POPC   C3A 6833  40.576   3.550   7.979
  259POPC   C4A 6834  40.894   3.726   7.761
  259POPC   C1B 6835  41.221   3.377   8.764
  259POPC   C2B 6836  41.051   3.117   8.479
  259POPC   C3B 6837  41.041   3.289   8.097
  259POPC   C4B 6838  40.985   3.199   7.688
  260POPC   NC3 6839  34.225  29.695   9.831
  260POPC   PO4 6840  34.559  30.180   9.438
  260POPC   GL1 6841  34.774  30.053   9.112
  260POPC   GL2 6842  34.469  30.038   8.930
  260POPC   C1A 6843  34.914  29.998   8.686
  260POPC   D2A 6844  34.649  30.176   8.367
  260POPC   C3A 6845  34.644  30.119   7.941
  260POPC   C4A 6846  34.608  30.130   7.483
  260POPC   C1B 6847  34.484  29.740   8.595
  260POPC   C2B 6848  34.744  29.655   8.233
  260POPC   C3B 6849  34.751  29.648   7.786
  260POPC   C4B 6850  34.372  29.592   7.571
  261POPC   NC3 6851  32.719  13.901   9.839
  261POPC   PO4 6852  33.110  13.377   9.616
  261POPC   GL1 6853  32.871  13.701   9.329
  261POPC   GL2 6854  33.046  13.474   9.097
  261POPC   C1A 6855  32.706  13.782   8.866
  261POPC   D2A 6856  32.827  13.480   8.527
  261POPC   C3A 6857  32.782  13.559   8.096
  261POPC   C4A 6858  33.037  13.380   7.781
  261POPC   C1B 6859  33.199  13.874   8.884
  261POPC   C2B 6860  33.067  13.933   8.440
  261POPC   C3B 6861  33.252  13.800   8.053
  261POPC   C4B 6862  33.274  13.900   7.615
  262POPC   NC3 6863  10.121  26.303   9.989
  262POPC   PO4 6864   9.707  26.083   9.451
  262POPC   GL1 6865   9.902  26.136   9.055
  262POPC   GL2 6866  10.131  26.398   9.000
  262POPC   C1A 6867   9.882  26.155   8.608
  262POPC   D2A 6868  10.082  26.067   8.227
  262POPC   C3A 6869   9.740  26.050   7.995
  262POPC   C4A 6870   9.652  26.028   7.569
  262POPC   C1B 6871  10.102  26.661   8.677
  262POPC   C2B 6872   9.959  26.567   8.292
  262POPC   C3B 6873   9.766  26.557   7.962
  262POPC   C4B 6874   9.754  26.550   7.553
  263POPC   NC3 6875  22.815  34.571   9.478
  263POPC   PO4 6876  23.465  34.408   9.298
  263POPC   GL1 6877  23.116  34.569   9.051
  263POPC   GL2 6878  22.814  34.814   9.021
  263POPC   C1A 6879  22.925  34.502   8.653
  263POPC   D2A 6880  22.929  34.501   8.250
  263POPC   C3A 6881  22.774  34.730   7.966
  263POPC   C4A 6882  23.036  34.533   7.672
  263POPC   C1B 6883  23.169  34.982   8.770
  263POPC   C2B 6884  23.330  34.760   8.417
  263POPC   C3B 6885  23.280  34.842   7.994
  263POPC   C4B 6886  23.386  34.888   7.547
  264POPC   NC3 6887  12.283  27.281   9.384
  264POPC   PO4 6888  11.723  27.719   9.569
  264POPC   GL1 6889  12.004  27.723   9.217
  264POPC   GL2 6890  11.767  27.551   9.058
  264POPC   C1A 6891  12.129  27.732   8.772
  264POPC   D2A 6892  11.884  27.617   8.390
  264POPC   C3A 6893  12.098  27.386   8.040
  264POPC   C4A 6894  12.277  27.526   7.629
  264POPC   C1B 6895  11.662  27.937   8.765
  264POPC   C2B 6896  11.559  28.112   8.351
  264POPC   C3B 6897  11.786  27.953   7.988
  264POPC   C4B 6898  11.774  27.607   7.707
  265POPC   NC3 6899  24.729   7.837   9.453
  265POPC   PO4 6900  24.672   7.203   9.656
  265POPC   GL1 6901  24.577   7.198   9.241
  265POPC   GL2 6902  24.422   7.535   9.172
  265POPC   C1A 6903  24.750   7.162   8.864
  265POPC   D2A 6904  24.531   7.319   8.526
  265POPC   C3A 6905  24.684   7.103   8.138
  265POPC   C4A 6906  24.381   7.130   7.803
  265POPC   C1B 6907  24.455   7.855   8.817
  265POPC   C2B 6908  24.654   7.794   8.423
  265POPC   C3B 6909  24.540   7.587   8.062
  265POPC   C4B 6910  24.237   7.707   7.763
  266POPC   NC3 6911  26.482  43.276   9.414
  266POPC   PO4 6912  26.925  42.869   9.642
  266POPC   GL1 6913  26.909  42.977   9.198
  266POPC   GL2 6914  26.574  42.877   9.111
  266POPC   C1A 6915  27.092  42.980   8.751
  266POPC   D2A 6916  26.957  42.777   8.335
  266POPC   C3A 6917  26.734  42.993   7.985
  266POPC   C4A 6918  26.964  43.272   7.725
  266POPC   C1B 6919  26.629  43.191   8.759
  266POPC   C2B 6920  26.836  43.344   8.354
  266POPC   C3B 6921  26.619  43.529   7.986
  266POPC   C4B 6922  26.464  43.269   7.607
  267POPC   NC3 6923  44.057  19.713   9.515
  267POPC   PO4 6924  44.713  20.010   9.449
  267POPC   GL1 6925  44.694  19.900   9.077
  267POPC   GL2 6926  44.477  19.639   9.066
  267POPC   C1A 6927  44.682  20.041   8.688
  267POPC   D2A 6928  44.408  20.165   8.396
  267POPC   C3A 6929  44.612  20.082   8.060
  267POPC   C4A 6930  44.443  19.962   7.692
  267POPC   C1B 6931  44.784  19.516   8.766
  267POPC   C2B 6932  44.851  19.681   8.347
  267POPC   C3B 6933  44.688  19.554   7.939
  267POPC   C4B 6934  44.767  19.564   7.486
  268POPC   NC3 6935   5.364  38.856   9.457
  268POPC   PO4 6936   4.866  39.307   9.548
  268POPC   GL1 6937   5.171  39.272   9.254
  268POPC   GL2 6938   5.246  39.551   9.198
  268POPC   C1A 6939   5.158  39.097   8.846
  268POPC   D2A 6940   4.956  38.949   8.474
  268POPC   C3A 6941   5.136  38.985   8.080
  268POPC   C4A 6942   5.151  39.213   7.701
  268POPC   C1B 6943   5.384  39.570   8.813
  268POPC   C2B 6944   5.339  39.344   8.432
  268POPC   C3B 6945   5.514  39.378   8.041
  268POPC   C4B 6946   5.440  39.666   7.748
  269POPC   NC3 6947  38.066  22.208   9.549
  269POPC   PO4 6948  38.722  21.963   9.414
  269POPC   GL1 6949  38.402  22.064   9.142
  269POPC   GL2 6950  38.368  22.397   9.135
  269POPC   C1A 6951  38.268  22.048   8.702
  269POPC   D2A 6952  38.499  21.798   8.403
  269POPC   C3A 6953  38.397  21.790   7.985
  269POPC   C4A 6954  38.421  22.046   7.654
  269POPC   C1B 6955  38.695  22.317   8.789
  269POPC   C2B 6956  38.552  22.318   8.354
  269POPC   C3B 6957  38.472  22.464   7.950
  269POPC   C4B 6958  38.792  22.423   7.629
  270POPC   NC3 6959  16.283  13.695   9.472
  270POPC   PO4 6960  15.627  13.937   9.465
  270POPC   GL1 6961  15.838  13.784   9.086
  270POPC   GL2 6962  16.092  13.512   8.974
  270POPC   C1A 6963  15.655  13.550   8.736
  270POPC   D2A 6964  15.927  13.556   8.416
  270POPC   C3A 6965  15.734  13.436   8.048
  270POPC   C4A 6966  15.947  13.464   7.647
  270POPC   C1B 6967  16.288  13.868   8.810
  270POPC   C2B 6968  16.468  13.993   8.455
  270POPC   C3B 6969  16.416  13.793   8.104
  270POPC   C4B 6970  16.366  13.949   7.723
  271POPC   NC3 6971  36.358   3.502   9.529
  271POPC   PO4 6972  35.788   3.890   9.693
  271POPC   GL1 6973  36.020   3.803   9.239
  271POPC   GL2 6974  36.353   3.708   9.070
  271POPC   C1A 6975  35.914   3.626   8.777
  271POPC   D2A 6976  35.761   3.240   8.547
  271POPC   C3A 6977  35.908   3.247   8.129
  271POPC   C4A 6978  35.717   3.329   7.749
  271POPC   C1B 6979  36.443   3.309   8.851
  271POPC   C2B 6980  36.432   3.372   8.441
  271POPC   C3B 6981  36.419   3.253   8.067
  271POPC   C4B 6982  36.235   3.493   7.769
  272POPC   NC3 6983  40.989  28.089   9.492
  272POPC   PO4 6984  41.087  28.779   9.306
  272POPC   GL1 6985  40.850  28.442   9.098
  272POPC   GL2 6986  40.560  28.223   9.229
  272POPC   C1A 6987  40.761  28.422   8.657
  272POPC   D2A 6988  40.566  28.709   8.328
  272POPC   C3A 6989  40.640  28.636   7.889
  272POPC   C4A 6990  40.978  28.407   7.757
  272POPC   C1B 6991  40.294  28.125   8.860
  272POPC   C2B 6992  40.347  28.230   8.450
  272POPC   C3B 6993  40.657  28.206   8.148
  272POPC   C4B 6994  40.565  28.023   7.737
  273POPC   NC3 6995  32.161   3.053   9.441
  273POPC   PO4 6996  32.319   2.359   9.345
  273POPC   GL1 6997  32.227   2.672   9.101
  273POPC   GL2 6998  32.572   2.803   9.106
  273POPC   C1A 6999  32.260   2.818   8.689
  273POPC   D2A 7000  32.029   2.990   8.370
  273POPC   C3A 7001  32.209   2.815   8.039
  273POPC   C4A 7002  32.040   2.948   7.634
  273POPC   C1B 7003  32.609   2.451   8.759
  273POPC   C2B 7004  32.421   2.387   8.366
  273POPC   C3B 7005  32.547   2.410   7.973
  273POPC   C4B 7006  32.393   2.614   7.619
  274POPC   NC3 7007  23.777  37.587   9.470
  274POPC   PO4 7008  23.239  38.038   9.442
  274POPC   GL1 7009  23.387  37.950   9.048
  274POPC   GL2 7010  23.687  37.732   8.970
  274POPC   C1A 7011  23.533  38.161   8.691
  274POPC   D2A 7012  23.832  37.997   8.411
  274POPC   C3A 7013  23.594  37.698   8.217
  274POPC   C4A 7014  23.476  37.546   7.852
  274POPC   C1B 7015  23.840  37.440   8.621
  274POPC   C2B 7016  24.190  37.399   8.305
  274POPC   C3B 7017  24.178  37.496   7.865
  274POPC   C4B 7018  23.870  37.457   7.514
  275POPC   NC3 7019  26.819  19.476   9.372
  275POPC   PO4 7020  26.949  18.726   9.533
  275POPC   GL1 7021  26.768  18.686   9.158
  275POPC   GL2 7022  26.680  19.031   9.104
  275POPC   C1A 7023  26.947  18.656   8.770
  275POPC   D2A 7024  27.119  18.895   8.433
  275POPC   C3A 7025  26.894  18.840   8.056
  275POPC   C4A 7026  26.736  18.637   7.696
  275POPC   C1B 7027  26.820  19.206   8.712
  275POPC   C2B 7028  26.888  19.395   8.296
  275POPC   C3B 7029  26.774  19.295   7.887
  275POPC   C4B 7030  27.068  19.060   7.632
  276POPC   NC3 7031  32.222  23.114   9.732
  276POPC   PO4 7032  32.061  22.521   9.531
  276POPC   GL1 7033  32.196  22.820   9.195
  276POPC   GL2 7034  31.956  23.141   9.228
  276POPC   C1A 7035  32.329  22.680   8.750
  276POPC   D2A 7036  32.340  22.930   8.406
  276POPC   C3A 7037  32.396  22.810   8.033
  276POPC   C4A 7038  32.386  23.075   7.685
  276POPC   C1B 7039  31.990  23.064   8.788
  276POPC   C2B 7040  31.996  23.306   8.396
  276POPC   C3B 7041  31.959  23.075   8.015
  276POPC   C4B 7042  31.838  23.050   7.594
  277POPC   NC3 7043  16.264  22.984   9.496
  277POPC   PO4 7044  15.699  22.661   9.504
  277POPC   GL1 7045  15.855  22.889   9.156
  277POPC   GL2 7046  15.888  23.272   9.181
  277POPC   C1A 7047  15.888  22.714   8.755
  277POPC   D2A 7048  15.936  22.495   8.390
  277POPC   C3A 7049  15.906  22.720   8.008
  277POPC   C4A 7050  15.889  23.166   7.985
  277POPC   C1B 7051  16.125  23.216   8.802
  277POPC   C2B 7052  16.175  22.981   8.418
  277POPC   C3B 7053  16.382  23.010   8.062
  277POPC   C4B 7054  16.383  22.716   7.739
  278POPC   NC3 7055   0.433  29.084   9.543
  278POPC   PO4 7056  44.780  29.011   9.424
  278POPC   GL1 7057   0.155  29.162   9.114
  278POPC   GL2 7058   0.525  29.351   9.122
  278POPC   C1A 7059   0.321  29.034   8.716
  278POPC   D2A 7060   0.404  28.685   8.418
  278POPC   C3A 7061   0.372  28.798   7.982
  278POPC   C4A 7062   0.333  29.228   7.862
  278POPC   C1B 7063   0.773  29.248   8.732
  278POPC   C2B 7064   0.660  29.220   8.307
  278POPC   C3B 7065   0.822  29.387   7.934
  278POPC   C4B 7066   0.759  29.047   7.659
  279POPC   NC3 7067  33.227  44.012   9.581
  279POPC   PO4 7068  32.689  43.629   9.437
  279POPC   GL1 7069  32.919  43.771   9.105
  279POPC   GL2 7070  32.878  44.105   9.077
  279POPC   C1A 7071  32.818  43.812   8.667
  279POPC   D2A 7072  32.668  44.048   8.321
  279POPC   C3A 7073  32.663  43.821   7.979
  279POPC   C4A 7074  33.003  43.542   7.906
  279POPC   C1B 7075  33.097  44.257   8.700
  279POPC   C2B 7076  33.492  44.285   8.474
  279POPC   C3B 7077  33.470  44.210   8.019
  279POPC   C4B 7078  33.121  44.019   7.800
  280POPC   NC3 7079   9.586  39.458   9.575
  280POPC   PO4 7080   9.994  38.980   9.786
  280POPC   GL1 7081   9.799  39.092   9.315
  280POPC   GL2 7082   9.502  38.928   9.218
  280POPC   C1A 7083   9.840  39.308   8.860
  280POPC   D2A 7084   9.672  39.247   8.423
  280POPC   C3A 7085   9.816  39.393   8.015
  280POPC   C4A 7086   9.541  39.490   7.721
  280POPC   C1B 7087   9.646  38.839   8.793
  280POPC   C2B 7088   9.750  38.741   8.353
  280POPC   C3B 7089   9.974  38.908   8.039
  280POPC   C4B 7090   9.801  38.881   7.648
  281POPC   NC3 7091  27.278  18.415   9.679
  281POPC   PO4 7092  27.242  17.796   9.394
  281POPC   GL1 7093  27.036  18.102   9.099
  281POPC   GL2 7094  26.686  18.187   9.004
  281POPC   C1A 7095  27.047  18.159   8.635
  281POPC   D2A 7096  26.882  18.407   8.319
  281POPC   C3A 7097  27.072  18.342   7.953
  281POPC   C4A 7098  27.099  17.980   7.723
  281POPC   C1B 7099  26.495  18.256   8.630
  281POPC   C2B 7100  26.486  18.064   8.233
  281POPC   C3B 7101  26.577  18.144   7.806
  281POPC   C4B 7102  26.283  18.168   7.482
  282POPC   NC3 7103  23.655  34.178   9.645
  282POPC   PO4 7104  24.074  34.702   9.550
  282POPC   GL1 7105  23.921  34.692   9.161
  282POPC   GL2 7106  23.948  34.381   9.090
  282POPC   C1A 7107  23.705  34.730   8.769
  282POPC   D2A 7108  23.808  34.933   8.430
  282POPC   C3A 7109  23.795  34.733   8.063
  282POPC   C4A 7110  23.881  34.847   7.654
  282POPC   C1B 7111  23.877  34.257   8.685
  282POPC   C2B 7112  23.724  34.278   8.257
  282POPC   C3B 7113  23.943  34.185   7.862
  282POPC   C4B 7114  24.063  34.020   7.440
  283POPC   NC3 7115  20.239  12.000   9.657
  283POPC   PO4 7116  19.618  12.200   9.618
  283POPC   GL1 7117  19.745  12.323   9.165
  283POPC   GL2 7118  19.572  12.613   8.999
  283POPC   C1A 7119  19.941  12.352   8.726
  283POPC   D2A 7120  20.190  12.167   8.402
  283POPC   C3A 7121  20.033  11.974   8.048
  283POPC   C4A 7122  20.126  12.117   7.649
  283POPC   C1B 7123  19.423  12.267   8.777
  283POPC   C2B 7124  19.601  12.040   8.483
  283POPC   C3B 7125  19.643  12.291   8.163
  283POPC   C4B 7126  19.637  12.196   7.772
  284POPC   NC3 7127  10.360   0.996   9.660
  284POPC   PO4 7128  10.856   1.419   9.482
  284POPC   GL1 7129  10.669   1.070   9.198
  284POPC   GL2 7130  10.293   1.040   9.153
  284POPC   C1A 7131  10.625   1.208   8.752
  284POPC   D2A 7132  10.901   1.374   8.410
  284POPC   C3A 7133  10.795   1.162   8.037
  284POPC   C4A 7134  10.694   1.343   7.626
  284POPC   C1B 7135  10.138   0.994   8.745
  284POPC   C2B 7136  10.054   1.152   8.356
  284POPC   C3B 7137  10.292   1.197   7.988
  284POPC   C4B 7138  10.189   1.130   7.602
  285POPC   NC3 7139  11.728  12.588   9.726
  285POPC   PO4 7140  12.162  12.959   9.473
  285POPC   GL1 7141  11.962  12.700   9.166
  285POPC   GL2 7142  12.161  12.410   9.204
  285POPC   C1A 7143  11.945  12.777   8.706
  285POPC   D2A 7144  12.225  12.959   8.384
  285POPC   C3A 7145  12.111  12.942   7.958
  285POPC   C4A 7146  11.800  12.586   7.905
  285POPC   C1B 7147  12.391  12.496   8.821
  285POPC   C2B 7148  12.620  12.603   8.447
  285POPC   C3B 7149  12.415  12.548   8.058
  285POPC   C4B 7150  12.217  12.608   7.602
  286POPC   NC3 7151  40.353  44.282   9.325
  286POPC   PO4 7152  40.036  44.863   9.604
  286POPC   GL1 7153  39.938  44.837   9.162
  286POPC   GL2 7154  40.212  44.706   9.089
  286POPC   C1A 7155  39.810  44.634   8.786
  286POPC   D2A 7156  39.749  44.595   8.392
  286POPC   C3A 7157  40.088  44.638   8.124
  286POPC   C4A 7158  39.965  44.551   7.706
  286POPC   C1B 7159  40.244  44.955   8.721
  286POPC   C2B 7160  40.449   0.005   8.319
  286POPC   C3B 7161  40.564  44.804   7.960
  286POPC   C4B 7162  40.386  44.771   7.527
  287POPC   NC3 7163  27.434  35.581  10.095
  287POPC   PO4 7164  27.873  35.383   9.630
  287POPC   GL1 7165  27.765  35.529   9.189
  287POPC   GL2 7166  27.383  35.525   9.159
  287POPC   C1A 7167  27.690  35.594   8.758
  287POPC   D2A 7168  27.623  35.335   8.408
  287POPC   C3A 7169  27.589  35.424   8.012
  287POPC   C4A 7170  28.003  35.408   7.859
  287POPC   C1B 7171  27.433  35.154   8.851
  287POPC   C2B 7172  27.632  34.851   8.535
  287POPC   C3B 7173  27.685  34.899   8.084
  287POPC   C4B 7174  27.710  35.053   7.670
  288POPC   NC3 7175  28.671  26.396   9.446
  288POPC   PO4 7176  28.230  25.982   9.567
  288POPC   GL1 7177  28.346  26.122   9.139
  288POPC   GL2 7178  28.709  26.122   9.013
  288POPC   C1A 7179  28.328  26.301   8.718
  288POPC   D2A 7180  28.552  26.149   8.368
  288POPC   C3A 7181  28.263  26.166   8.043
  288POPC   C4A 7182  28.307  26.144   7.586
  288POPC   C1B 7183  28.511  25.808   8.745
  288POPC   C2B 7184  28.283  25.720   8.344
  288POPC   C3B 7185  28.478  25.729   7.919
  288POPC   C4B 7186  28.349  25.604   7.497
  289POPC   NC3 7187  40.278  40.351   9.844
  289POPC   PO4 7188  39.821  39.861   9.473
  289POPC   GL1 7189  39.886  40.033   9.089
  289POPC   GL2 7190  40.236  39.856   8.951
  289POPC   C1A 7191  39.898  40.197   8.692
  289POPC   D2A 7192  40.242  40.105   8.436
  289POPC   C3A 7193  40.125  40.041   8.024
  289POPC   C4A 7194  40.309  40.154   7.630
  289POPC   C1B 7195  39.927  39.648   8.756
  289POPC   C2B 7196  39.744  39.608   8.373
  289POPC   C3B 7197  39.832  39.622   7.935
  289POPC   C4B 7198  39.899  39.846   7.579
  290POPC   NC3 7199  26.370  17.518   9.549
  290POPC   PO4 7200  25.724  17.567   9.541
  290POPC   GL1 7201  25.983  17.562   9.184
  290POPC   GL2 7202  26.184  17.877   9.175
  290POPC   C1A 7203  25.783  17.466   8.803
  290POPC   D2A 7204  25.885  17.282   8.432
  290POPC   C3A 7205  25.789  17.569   8.120
  290POPC   C4A 7206  25.715  17.503   7.722
  290POPC   C1B 7207  26.250  17.727   8.744
  290POPC   C2B 7208  26.298  17.583   8.314
  290POPC   C3B 7209  26.233  17.730   7.880
  290POPC   C4B 7210  26.136  17.669   7.449
  291POPC   NC3 7211  38.662  41.948   9.406
  291POPC   PO4 7212  38.491  41.333   9.466
  291POPC   GL1 7213  38.356  41.612   9.141
  291POPC   GL2 7214  38.002  41.612   9.089
  291POPC   C1A 7215  38.533  41.716   8.722
  291POPC   D2A 7216  38.698  41.414   8.391
  291POPC   C3A 7217  38.696  41.533   7.947
  291POPC   C4A 7218  38.561  41.668   7.523
  291POPC   C1B 7219  38.189  41.325   8.743
  291POPC   C2B 7220  38.217  41.223   8.301
  291POPC   C3B 7221  38.193  41.406   7.877
  291POPC   C4B 7222  38.120  41.396   7.422
  292POPC   NC3 7223  39.608   4.245   9.576
  292POPC   PO4 7224  40.190   4.520   9.700
  292POPC   GL1 7225  40.161   4.265   9.295
  292POPC   GL2 7226  39.823   4.227   9.115
  292POPC   C1A 7227  40.245   4.258   8.843
  292POPC   D2A 7228  39.949   4.295   8.507
  292POPC   C3A 7229  40.029   4.447   8.108
  292POPC   C4A 7230  40.109   4.281   7.726
  292POPC   C1B 7231  39.587   4.027   8.764
  292POPC   C2B 7232  39.631   3.899   8.361
  292POPC   C3B 7233  39.692   4.059   7.982
  292POPC   C4B 7234  39.684   3.964   7.545
  293POPC   NC3 7235  20.118   4.547   9.347
  293POPC   PO4 7236  19.550   4.274   9.296
  293POPC   GL1 7237  19.765   4.411   8.963
  293POPC   GL2 7238  20.006   4.163   9.052
  293POPC   C1A 7239  20.100   4.524   8.673
  293POPC   D2A 7240  20.183   4.542   8.239
  293POPC   C3A 7241  19.787   4.445   7.994
  293POPC   C4A 7242  19.496   4.343   7.624
  293POPC   C1B 7243  20.062   3.995   8.712
  293POPC   C2B 7244  19.928   4.087   8.339
  293POPC   C3B 7245  20.125   4.054   7.963
  293POPC   C4B 7246  19.991   4.192   7.583
  294POPC   NC3 7247   3.075  44.851   9.381
  294POPC   PO4 7248   2.464  44.643   9.447
  294POPC   GL1 7249   2.690  44.587   9.144
  294POPC   GL2 7250   2.930  44.356   9.293
  294POPC   C1A 7251   2.696  44.832   8.808
  294POPC   D2A 7252   2.856  44.963   8.468
  294POPC   C3A 7253   2.664  44.776   8.143
  294POPC   C4A 7254   2.497  44.987   7.817
  294POPC   C1B 7255   2.866  44.210   8.871
  294POPC   C2B 7256   2.712  44.381   8.501
  294POPC   C3B 7257   2.747  44.264   8.057
  294POPC   C4B 7258   2.520  44.462   7.759
  295POPC   NC3 7259   9.752   9.640   9.572
  295POPC   PO4 7260   9.397  10.312   9.556
  295POPC   GL1 7261   9.461   9.900   9.224
  295POPC   GL2 7262   9.842   9.775   9.120
  295POPC   C1A 7263   9.516   9.749   8.763
  295POPC   D2A 7264   9.583  10.040   8.424
  295POPC   C3A 7265   9.477   9.922   7.982
  295POPC   C4A 7266   9.609   9.524   7.816
  295POPC   C1B 7267   9.997   9.975   8.790
  295POPC   C2B 7268  10.140   9.996   8.409
  295POPC   C3B 7269   9.946   9.810   8.102
  295POPC   C4B 7270  10.021  10.009   7.732
  296POPC   NC3 7271  14.092  13.214   9.332
  296POPC   PO4 7272  14.578  13.019   9.728
  296POPC   GL1 7273  14.580  12.845   9.257
  296POPC   GL2 7274  14.313  12.864   9.018
  296POPC   C1A 7275  14.704  12.557   8.864
  296POPC   D2A 7276  14.799  12.550   8.409
  296POPC   C3A 7277  14.499  12.765   8.133
  296POPC   C4A 7278  14.409  12.805   7.687
  296POPC   C1B 7279  14.069  12.650   8.694
  296POPC   C2B 7280  14.002  12.681   8.243
  296POPC   C3B 7281  13.903  12.671   7.805
  296POPC   C4B 7282  13.920  12.960   7.448
  297POPC   NC3 7283  39.564  34.978   9.432
  297POPC   PO4 7284  39.010  35.178   9.752
  297POPC   GL1 7285  39.099  35.323   9.280
  297POPC   GL2 7286  39.412  35.451   9.265
  297POPC   C1A 7287  38.987  35.555   8.882
  297POPC   D2A 7288  39.141  35.645   8.468
  297POPC   C3A 7289  38.959  35.602   8.064
  297POPC   C4A 7290  39.036  35.425   7.669
  297POPC   C1B 7291  39.537  35.480   8.850
  297POPC   C2B 7292  39.646  35.622   8.455
  297POPC   C3B 7293  39.496  35.456   8.077
  297POPC   C4B 7294  39.693  35.692   7.791
  298POPC   NC3 7295  11.919  28.139   9.510
  298POPC   PO4 7296  12.527  28.306   9.666
  298POPC   GL1 7297  12.338  28.357   9.222
  298POPC   GL2 7298  12.028  28.544   9.119
  298POPC   C1A 7299  12.258  28.253   8.779
  298POPC   D2A 7300  12.059  28.123   8.414
  298POPC   C3A 7301  12.185  28.312   8.019
  298POPC   C4A 7302  12.310  28.065   7.699
  298POPC   C1B 7303  11.770  28.478   8.727
  298POPC   C2B 7304  11.823  28.579   8.283
  298POPC   C3B 7305  11.710  28.444   7.866
  298POPC   C4B 7306  11.904  28.356   7.506
  299POPC   NC3 7307   8.099  24.877   9.576
  299POPC   PO4 7308   8.096  25.496   9.661
  299POPC   GL1 7309   8.115  25.329   9.264
  299POPC   GL2 7310   8.381  25.077   9.196
  299POPC   C1A 7311   8.126  25.346   8.822
  299POPC   D2A 7312   7.924  25.142   8.474
  299POPC   C3A 7313   7.961  25.422   8.107
  299POPC   C4A 7314   8.241  25.268   7.737
  299POPC   C1B 7315   8.333  24.856   8.820
  299POPC   C2B 7316   8.443  24.646   8.450
  299POPC   C3B 7317   8.534  24.771   8.041
  299POPC   C4B 7318   8.445  24.597   7.646
  300POPC   NC3 7319  37.533  34.024   9.463
  300POPC   PO4 7320  38.052  33.638   9.690
  300POPC   GL1 7321  37.957  33.646   9.217
  300POPC   GL2 7322  37.613  33.671   9.134
  300POPC   C1A 7323  37.924  33.884   8.780
  300POPC   D2A 7324  38.105  34.042   8.376
  300POPC   C3A 7325  37.857  33.808   8.066
  300POPC   C4A 7326  37.965  33.542   7.747
  300POPC   C1B 7327  37.467  33.562   8.772
  300POPC   C2B 7328  37.279  33.641   8.411
  300POPC   C3B 7329  37.326  33.849   8.035
  300POPC   C4B 7330  37.500  33.777   7.624
  301POPC   NC3 7331  16.226   9.651   9.472
  301POPC   PO4 7332  15.813   9.973   9.673
  301POPC   GL1 7333  15.802   9.825   9.208
  301POPC   GL2 7334  16.063   9.959   9.041
  301POPC   C1A 7335  15.653   9.682   8.802
  301POPC   D2A 7336  15.670   9.613   8.355
  301POPC   C3A 7337  15.700   9.894   8.015
  301POPC   C4A 7338  15.895   9.568   7.811
  301POPC   C1B 7339  16.083   9.844   8.584
  301POPC   C2B 7340  16.194   9.591   8.217
  301POPC   C3B 7341  16.400   9.678   7.807
  301POPC   C4B 7342  16.517  10.035   7.529
  302POPC   NC3 7343  13.251   7.412   9.435
  302POPC   PO4 7344  13.801   7.041   9.474
  302POPC   GL1 7345  13.641   7.295   9.118
  302POPC   GL2 7346  13.386   7.590   8.996
  302POPC   C1A 7347  13.789   7.391   8.721
  302POPC   D2A 7348  13.582   7.573   8.369
  302POPC   C3A 7349  13.777   7.649   7.970
  302POPC   C4A 7350  13.926   7.492   7.586
  302POPC   C1B 7351  13.285   7.258   8.738
  302POPC   C2B 7352  13.207   7.142   8.348
  302POPC   C3B 7353  13.395   7.296   7.954
  302POPC   C4B 7354  13.372   7.564   7.602
  303POPC   NC3 7355   6.526  36.975   9.467
  303POPC   PO4 7356   7.136  36.623   9.468
  303POPC   GL1 7357   6.859  36.781   9.126
  303POPC   GL2 7358   6.719  37.157   9.035
  303POPC   C1A 7359   6.946  36.834   8.723
  303POPC   D2A 7360   6.769  36.801   8.355
  303POPC   C3A 7361   6.949  36.907   7.974
  303POPC   C4A 7362   6.785  36.717   7.584
  303POPC   C1B 7363   6.403  36.844   8.808
  303POPC   C2B 7364   6.264  36.757   8.347
  303POPC   C3B 7365   6.432  36.858   7.927
  303POPC   C4B 7366   6.496  37.163   7.591
  304POPC   NC3 7367  29.094  29.138   9.586
  304POPC   PO4 7368  29.769  29.162   9.554
  304POPC   GL1 7369  29.387  29.258   9.183
  304POPC   GL2 7370  28.998  29.118   9.110
  304POPC   C1A 7371  29.311  29.133   8.722
  304POPC   D2A 7372  29.201  28.858   8.373
  304POPC   C3A 7373  29.378  28.933   7.974
  304POPC   C4A 7374  29.196  29.307   7.829
  304POPC   C1B 7375  28.818  29.280   8.749
  304POPC   C2B 7376  28.748  29.144   8.352
  304POPC   C3B 7377  28.825  28.970   7.956
  304POPC   C4B 7378  28.752  29.167   7.566
  305POPC   NC3 7379  21.285   3.786   9.624
  305POPC   PO4 7380  21.506   3.095   9.734
  305POPC   GL1 7381  21.458   3.365   9.294
  305POPC   GL2 7382  21.716   3.497   9.045
  305POPC   C1A 7383  21.214   3.469   8.864
  305POPC   D2A 7384  21.307   3.517   8.420
  305POPC   C3A 7385  21.461   3.851   8.187
  305POPC   C4A 7386  21.377   3.593   7.848
  305POPC   C1B 7387  21.616   3.200   8.689
  305POPC   C2B 7388  21.551   3.010   8.280
  305POPC   C3B 7389  21.610   3.135   7.855
  305POPC   C4B 7390  21.502   3.315   7.445
  306POPC   NC3 7391   8.755  27.758   9.434
  306POPC   PO4 7392   9.442  27.513   9.561
  306POPC   GL1 7393   9.148  27.527   9.147
  306POPC   GL2 7394   8.877  27.296   9.067
  306POPC   C1A 7395   8.908  27.692   8.756
  306POPC   D2A 7396   8.700  27.621   8.379
  306POPC   C3A 7397   8.903  27.516   8.034
  306POPC   C4A 7398   8.805  27.605   7.622
  306POPC   C1B 7399   8.623  27.218   8.697
  306POPC   C2B 7400   8.578  27.138   8.244
  306POPC   C3B 7401   8.620  27.115   7.794
  306POPC   C4B 7402   8.688  27.193   7.338
  307POPC   NC3 7403  20.234  36.306   9.692
  307POPC   PO4 7404  20.802  35.950   9.478
  307POPC   GL1 7405  20.633  36.030   9.136
  307POPC   GL2 7406  20.445  36.322   9.228
  307POPC   C1A 7407  20.480  36.067   8.743
  307POPC   D2A 7408  20.302  35.988   8.358
  307POPC   C3A 7409  20.438  36.024   7.955
  307POPC   C4A 7410  20.780  35.872   7.710
  307POPC   C1B 7411  20.503  36.553   8.870
  307POPC   C2B 7412  20.722  36.456   8.489
  307POPC   C3B 7413  20.581  36.516   8.101
  307POPC   C4B 7414  20.678  36.402   7.713
  308POPC   NC3 7415  36.177  10.218   9.483
  308POPC   PO4 7416  35.766  10.665   9.584
  308POPC   GL1 7417  35.857  10.707   9.147
  308POPC   GL2 7418  36.184  10.534   9.073
  308POPC   C1A 7419  35.880  10.765   8.712
  308POPC   D2A 7420  36.203  10.666   8.412
  308POPC   C3A 7421  36.014  10.545   8.019
  308POPC   C4A 7422  35.691  10.819   7.760
  308POPC   C1B 7423  36.482  10.374   8.760
  308POPC   C2B 7424  36.461  10.196   8.339
  308POPC   C3B 7425  36.537  10.174   7.913
  308POPC   C4B 7426  36.365  10.425   7.637
  309POPC   NC3 7427  37.217  43.849   9.663
  309POPC   PO4 7428  36.651  44.029   9.378
  309POPC   GL1 7429  36.813  43.939   9.030
  309POPC   GL2 7430  37.079  43.740   9.172
  309POPC   C1A 7431  36.646  43.840   8.632
  309POPC   D2A 7432  36.456  43.618   8.273
  309POPC   C3A 7433  36.784  43.660   7.951
  309POPC   C4A 7434  36.913  44.104   7.862
  309POPC   C1B 7435  37.215  43.790   8.763
  309POPC   C2B 7436  37.100  43.855   8.356
  309POPC   C3B 7437  37.282  43.769   8.002
  309POPC   C4B 7438  37.229  43.474   7.676
  310POPC   NC3 7439  19.328  26.152   9.549
  310POPC   PO4 7440  18.815  25.681   9.501
  310POPC   GL1 7441  19.099  25.851   9.193
  310POPC   GL2 7442  18.988  26.226   9.140
  310POPC   C1A 7443  19.115  25.855   8.759
  310POPC   D2A 7444  19.087  26.197   8.465
  310POPC   C3A 7445  19.114  26.053   8.044
  310POPC   C4A 7446  18.781  26.219   7.794
  310POPC   C1B 7447  19.384  26.258   8.890
  310POPC   C2B 7448  19.569  26.382   8.481
  310POPC   C3B 7449  19.608  26.239   8.052
  310POPC   C4B 7450  19.379  26.296   7.664
  311POPC   NC3 7451  16.460   2.341   9.485
  311POPC   PO4 7452  16.995   1.920   9.439
  311POPC   GL1 7453  16.730   2.047   9.066
  311POPC   GL2 7454  16.573   2.364   9.004
  311POPC   C1A 7455  16.655   1.863   8.665
  311POPC   D2A 7456  17.053   1.850   8.411
  311POPC   C3A 7457  16.982   1.901   7.981
  311POPC   C4A 7458  17.237   1.818   7.658
  311POPC   C1B 7459  16.838   2.351   8.660
  311POPC   C2B 7460  16.686   2.198   8.272
  311POPC   C3B 7461  16.516   2.230   7.871
  311POPC   C4B 7462  16.756   2.460   7.602
  312POPC   NC3 7463  18.525   3.045   9.592
  312POPC   PO4 7464  17.944   2.692   9.504
  312POPC   GL1 7465  18.156   2.861   9.134
  312POPC   GL2 7466  18.494   2.938   9.091
  312POPC   C1A 7467  18.121   3.029   8.721
  312POPC   D2A 7468  18.151   2.834   8.320
  312POPC   C3A 7469  18.010   3.048   7.943
  312POPC   C4A 7470  18.202   3.038   7.515
  312POPC   C1B 7471  18.630   3.042   8.665
  312POPC   C2B 7472  18.659   2.901   8.254
  312POPC   C3B 7473  18.448   2.766   7.890
  312POPC   C4B 7474  18.689   2.954   7.574
  313POPC   NC3 7475  28.420  10.674   9.915
  313POPC   PO4 7476  28.282  10.408   9.359
  313POPC   GL1 7477  28.426  10.459   9.028
  313POPC   GL2 7478  28.751  10.457   9.140
  313POPC   C1A 7479  28.455  10.406   8.648
  313POPC   D2A 7480  28.317  10.604   8.336
  313POPC   C3A 7481  28.294  10.422   7.967
  313POPC   C4A 7482  28.330  10.536   7.532
  313POPC   C1B 7483  28.783  10.798   8.828
  313POPC   C2B 7484  28.731  10.906   8.425
  313POPC   C3B 7485  28.781  10.631   8.095
  313POPC   C4B 7486  28.790  10.664   7.675
  314POPC   NC3 7487  10.619  42.138   9.520
  314POPC   PO4 7488  10.171  42.621   9.383
  314POPC   GL1 7489  10.309  42.312   9.120
  314POPC   GL2 7490  10.119  42.029   9.224
  314POPC   C1A 7491  10.616  42.277   8.791
  314POPC   D2A 7492  10.688  42.498   8.435
  314POPC   C3A 7493  10.416  42.416   8.121
  314POPC   C4A 7494  10.595  42.463   7.749
  314POPC   C1B 7495  10.307  41.876   8.824
  314POPC   C2B 7496  10.510  41.951   8.394
  314POPC   C3B 7497  10.442  41.936   7.939
  314POPC   C4B 7498  10.435  42.037   7.493
  315POPC   NC3 7499  44.043  14.833   9.496
  315POPC   PO4 7500  44.107  15.496   9.633
  315POPC   GL1 7501  43.957  15.321   9.212
  315POPC   GL2 7502  43.747  14.979   9.119
  315POPC   C1A 7503  43.890  15.292   8.768
  315POPC   D2A 7504  43.814  15.046   8.416
  315POPC   C3A 7505  43.630  15.338   8.139
  315POPC   C4A 7506  43.657  15.411   7.697
  315POPC   C1B 7507  44.167  14.881   8.879
  315POPC   C2B 7508  44.408  15.027   8.508
  315POPC   C3B 7509  44.216  15.233   8.167
  315POPC   C4B 7510  43.941  15.009   7.878
  316POPC   NC3 7511  11.795  21.827   9.531
  316POPC   PO4 7512  12.017  22.473   9.445
  316POPC   GL1 7513  12.137  22.088   9.230
  316POPC   GL2 7514  12.490  21.979   9.124
  316POPC   C1A 7515  12.036  21.926   8.831
  316POPC   D2A 7516  11.947  21.751   8.441
  316POPC   C3A 7517  11.997  21.990   8.065
  316POPC   C4A 7518  12.084  21.855   7.647
  316POPC   C1B 7519  12.383  22.340   8.839
  316POPC   C2B 7520  12.145  22.397   8.458
  316POPC   C3B 7521  11.881  22.503   8.104
  316POPC   C4B 7522  11.991  22.413   7.704
  317POPC   NC3 7523  39.610  22.907   9.550
  317POPC   PO4 7524  40.202  22.666   9.393
  317POPC   GL1 7525  40.354  22.706   8.977
  317POPC   GL2 7526  40.595  22.993   9.000
  317POPC   C1A 7527  40.247  22.658   8.542
  317POPC   D2A 7528  40.023  22.976   8.296
  317POPC   C3A 7529  40.006  23.074   7.833
  317POPC   C4A 7530  39.615  23.121   7.548
  317POPC   C1B 7531  40.381  23.153   8.666
  317POPC   C2B 7532  40.411  23.376   8.285
  317POPC   C3B 7533  40.511  23.244   7.893
  317POPC   C4B 7534  40.384  23.165   7.466
  318POPC   NC3 7535  13.294  19.165   9.448
  318POPC   PO4 7536  12.660  19.323   9.440
  318POPC   GL1 7537  12.999  19.385   9.073
  318POPC   GL2 7538  13.262  19.149   8.941
  318POPC   C1A 7539  12.939  19.418   8.614
  318POPC   D2A 7540  12.655  19.168   8.343
  318POPC   C3A 7541  12.714  19.047   7.911
  318POPC   C4A 7542  13.061  19.124   7.652
  318POPC   C1B 7543  12.958  18.907   8.683
  318POPC   C2B 7544  12.901  18.695   8.264
  318POPC   C3B 7545  13.127  18.666   7.879
  318POPC   C4B 7546  13.183  18.676   7.449
  319POPC   NC3 7547   2.957  14.423   9.733
  319POPC   PO4 7548   2.348  14.399   9.357
  319POPC   GL1 7549   2.660  14.358   9.082
  319POPC   GL2 7550   2.468  14.479   8.830
  319POPC   C1A 7551   2.913  14.229   8.700
  319POPC   D2A 7552   2.731  14.403   8.339
  319POPC   C3A 7553   2.555  14.228   7.979
  319POPC   C4A 7554   2.683  14.161   7.570
  319POPC   C1B 7555   2.830  14.726   8.734
  319POPC   C2B 7556   3.151  14.651   8.442
  319POPC   C3B 7557   3.145  14.762   8.034
  319POPC   C4B 7558   2.934  14.570   7.745
  320POPC   NC3 7559  35.290  34.155   9.419
  320POPC   PO4 7560  35.644  33.634   9.590
  320POPC   GL1 7561  35.503  33.621   9.137
  320POPC   GL2 7562  35.170  33.783   9.085
  320POPC   C1A 7563  35.535  33.715   8.673
  320POPC   D2A 7564  35.442  34.060   8.369
  320POPC   C3A 7565  35.441  33.914   7.922
  320POPC   C4A 7566  35.099  33.810   7.684
  320POPC   C1B 7567  35.042  33.933   8.665
  320POPC   C2B 7568  35.069  33.747   8.234
  320POPC   C3B 7569  34.905  33.436   7.944
  320POPC   C4B 7570  34.860  33.356   7.488
  321POPC   NC3 7571  43.471  28.225   9.341
  321POPC   PO4 7572  42.861  28.476   9.589
  321POPC   GL1 7573  43.025  28.508   9.192
  321POPC   GL2 7574  43.075  28.836   9.073
  321POPC   C1A 7575  42.874  28.327   8.821
  321POPC   D2A 7576  43.015  28.261   8.406
  321POPC   C3A 7577  43.040  28.559   8.088
  321POPC   C4A 7578  43.071  28.366   7.742
  321POPC   C1B 7579  43.243  28.640   8.706
  321POPC   C2B 7580  43.406  28.785   8.338
  321POPC   C3B 7581  43.490  28.782   7.875
  321POPC   C4B 7582  43.342  28.688   7.445
  322POPC   NC3 7583  12.841  13.541   9.494
  322POPC   PO4 7584  13.257  14.129   9.528
  322POPC   GL1 7585  13.125  13.804   9.165
  322POPC   GL2 7586  13.230  13.440   9.201
  322POPC   C1A 7587  12.865  13.523   8.842
  322POPC   D2A 7588  12.576  13.583   8.493
  322POPC   C3A 7589  12.768  13.630   8.084
  322POPC   C4A 7590  12.802  13.676   7.626
  322POPC   C1B 7591  13.269  13.228   8.815
  322POPC   C2B 7592  13.112  13.386   8.420
  322POPC   C3B 7593  13.137  13.242   8.029
  322POPC   C4B 7594  13.238  13.402   7.661
  323POPC   NC3 7595  30.468  37.446   9.540
  323POPC   PO4 7596  30.878  37.989   9.486
  323POPC   GL1 7597  30.630  37.753   9.170
  323POPC   GL2 7598  30.827  37.449   9.142
  323POPC   C1A 7599  30.386  37.630   8.778
  323POPC   D2A 7600  30.569  37.775   8.351
  323POPC   C3A 7601  30.697  37.665   7.917
  323POPC   C4A 7602  30.508  37.869   7.539
  323POPC   C1B 7603  30.885  37.584   8.727
  323POPC   C2B 7604  30.999  37.440   8.318
  323POPC   C3B 7605  31.289  37.284   8.036
  323POPC   C4B 7606  31.205  37.338   7.571
  324POPC   NC3 7607  36.128  20.650   9.716
  324POPC   PO4 7608  36.887  20.585   9.693
  324POPC   GL1 7609  36.982  20.567   9.264
  324POPC   GL2 7610  36.659  20.634   9.159
  324POPC   C1A 7611  37.065  20.556   8.820
  324POPC   D2A 7612  36.938  20.665   8.392
  324POPC   C3A 7613  37.075  20.479   7.984
  324POPC   C4A 7614  37.167  20.634   7.562
  324POPC   C1B 7615  36.556  20.780   8.747
  324POPC   C2B 7616  36.444  20.584   8.369
  324POPC   C3B 7617  36.599  20.758   8.007
  324POPC   C4B 7618  36.688  20.768   7.610
  325POPC   NC3 7619  42.876  42.325   9.591
  325POPC   PO4 7620  43.415  42.586   9.404
  325POPC   GL1 7621  43.055  42.463   9.118
  325POPC   GL2 7622  42.836  42.143   9.098
  325POPC   C1A 7623  43.060  42.636   8.703
  325POPC   D2A 7624  43.319  42.521   8.372
  325POPC   C3A 7625  43.170  42.619   7.988
  325POPC   C4A 7626  43.268  42.418   7.590
  325POPC   C1B 7627  42.729  42.232   8.695
  325POPC   C2B 7628  42.832  42.349   8.280
  325POPC   C3B 7629  43.097  42.116   7.987
  325POPC   C4B 7630  42.912  41.775   7.788
  326POPC   NC3 7631  36.999  38.697   9.589
  326POPC   PO4 7632  36.750  38.054   9.682
  326POPC   GL1 7633  36.841  38.268   9.244
  326POPC   GL2 7634  36.889  38.631   9.105
  326POPC   C1A 7635  36.731  38.279   8.779
  326POPC   D2A 7636  36.680  38.101   8.347
  326POPC   C3A 7637  36.797  38.348   7.988
  326POPC   C4A 7638  37.250  38.453   7.864
  326POPC   C1B 7639  36.654  38.877   8.772
  326POPC   C2B 7640  36.604  38.995   8.319
  326POPC   C3B 7641  36.664  38.843   7.907
  326POPC   C4B 7642  36.891  38.666   7.572
  327POPC   NC3 7643  31.581   9.003   9.728
  327POPC   PO4 7644  31.115   9.371   9.475
  327POPC   GL1 7645  31.267   9.142   9.136
  327POPC   GL2 7646  31.552   8.945   9.188
  327POPC   C1A 7647  31.361   9.072   8.720
  327POPC   D2A 7648  31.082   8.967   8.440
  327POPC   C3A 7649  31.294   8.839   8.108
  327POPC   C4A 7650  31.406   9.026   7.718
  327POPC   C1B 7651  31.758   8.744   8.813
  327POPC   C2B 7652  31.761   8.816   8.356
  327POPC   C3B 7653  31.748   8.684   7.915
  327POPC   C4B 7654  31.725   8.655   7.497
  328POPC   NC3 7655  19.739  32.677   9.899
  328POPC   PO4 7656  19.961  33.301   9.657
  328POPC   GL1 7657  19.865  33.127   9.259
  328POPC   GL2 7658  19.801  32.802   9.345
  328POPC   C1A 7659  20.003  33.118   8.846
  328POPC   D2A 7660  19.795  33.079   8.470
  328POPC   C3A 7661  19.908  33.149   8.076
  328POPC   C4A 7662  19.761  33.387   7.701
  328POPC   C1B 7663  19.727  32.711   8.903
  328POPC   C2B 7664  19.796  32.576   8.467
  328POPC   C3B 7665  19.666  32.690   8.057
  328POPC   C4B 7666  19.688  32.846   7.652
  329POPC   NC3 7667  38.778   6.979   9.208
  329POPC   PO4 7668  39.269   6.725   9.597
  329POPC   GL1 7669  39.249   6.803   9.159
  329POPC   GL2 7670  39.298   7.146   9.185
  329POPC   C1A 7671  39.199   6.653   8.725
  329POPC   D2A 7672  39.296   6.434   8.333
  329POPC   C3A 7673  39.139   6.532   7.913
  329POPC   C4A 7674  39.380   6.563   7.511
  329POPC   C1B 7675  39.441   7.118   8.735
  329POPC   C2B 7676  39.381   6.937   8.296
  329POPC   C3B 7677  39.373   7.005   7.837
  329POPC   C4B 7678  39.386   7.055   7.377
  330POPC   NC3 7679  36.827  33.171   9.510
  330POPC   PO4 7680  36.862  32.568   9.239
  330POPC   GL1 7681  37.013  32.950   9.068
  330POPC   GL2 7682  37.173  33.286   9.142
  330POPC   C1A 7683  36.930  33.091   8.673
  330POPC   D2A 7684  37.165  33.147   8.316
  330POPC   C3A 7685  37.013  33.068   7.921
  330POPC   C4A 7686  37.100  33.038   7.468
  330POPC   C1B 7687  36.960  33.574   8.858
  330POPC   C2B 7688  36.734  33.532   8.489
  330POPC   C3B 7689  36.903  33.528   8.084
  330POPC   C4B 7690  37.096  33.503   7.693
  331POPC   NC3 7691   5.099  41.309   9.516
  331POPC   PO4 7692   4.632  41.723   9.479
  331POPC   GL1 7693   4.896  41.522   9.097
  331POPC   GL2 7694   5.294  41.524   9.121
  331POPC   C1A 7695   5.101  41.589   8.658
  331POPC   D2A 7696   5.386  41.825   8.387
  331POPC   C3A 7697   5.195  41.884   7.998
  331POPC   C4A 7698   5.085  41.830   7.551
  331POPC   C1B 7699   5.353  41.160   8.857
  331POPC   C2B 7700   5.454  41.223   8.443
  331POPC   C3B 7701   5.230  41.068   8.106
  331POPC   C4B 7702   5.142  41.399   7.815
  332POPC   NC3 7703   5.731  43.104   9.792
  332POPC   PO4 7704   6.172  42.648   9.802
  332POPC   GL1 7705   6.092  43.073   9.432
  332POPC   GL2 7706   5.740  43.073   9.290
  332POPC   C1A 7707   6.062  43.251   8.942
  332POPC   D2A 7708   6.129  42.908   8.594
  332POPC   C3A 7709   5.989  42.941   8.145
  332POPC   C4A 7710   5.927  42.844   7.703
  332POPC   C1B 7711   5.658  42.973   8.860
  332POPC   C2B 7712   5.673  43.221   8.501
  332POPC   C3B 7713   5.460  43.207   8.122
  332POPC   C4B 7714   5.650  43.267   7.776
  333POPC   NC3 7715  43.027   7.822   9.463
  333POPC   PO4 7716  42.887   8.518   9.408
  333POPC   GL1 7717  43.186   8.375   9.087
  333POPC   GL2 7718  43.361   8.058   9.134
  333POPC   C1A 7719  43.113   8.167   8.683
  333POPC   D2A 7720  42.767   7.985   8.495
  333POPC   C3A 7721  42.847   7.987   8.036
  333POPC   C4A 7722  43.097   8.308   7.804
  333POPC   C1B 7723  43.519   7.856   8.769
  333POPC   C2B 7724  43.665   7.985   8.377
  333POPC   C3B 7725  43.518   8.119   8.010
  333POPC   C4B 7726  43.269   7.813   7.806
  334POPC   NC3 7727  12.102  16.105   9.425
  334POPC   PO4 7728  11.812  15.616   9.375
  334POPC   GL1 7729  11.957  15.802   9.007
  334POPC   GL2 7730  12.275  15.723   9.054
  334POPC   C1A 7731  12.106  15.841   8.553
  334POPC   D2A 7732  12.012  15.727   8.115
  334POPC   C3A 7733  11.851  16.083   7.841
  334POPC   C4A 7734  11.688  16.069   7.424
  334POPC   C1B 7735  12.433  15.501   8.727
  334POPC   C2B 7736  12.568  15.637   8.309
  334POPC   C3B 7737  12.474  15.649   7.856
  334POPC   C4B 7738  12.145  15.802   7.563
  335POPC   NC3 7739  33.669  39.107   9.598
  335POPC   PO4 7740  33.944  39.686   9.717
  335POPC   GL1 7741  33.861  39.418   9.258
  335POPC   GL2 7742  33.979  39.091   9.195
  335POPC   C1A 7743  33.528  39.273   8.908
  335POPC   D2A 7744  33.407  39.403   8.475
  335POPC   C3A 7745  33.363  39.119   8.121
  335POPC   C4A 7746  33.575  39.098   7.701
  335POPC   C1B 7747  33.994  39.155   8.766
  335POPC   C2B 7748  33.784  39.043   8.425
  335POPC   C3B 7749  33.941  39.142   8.039
  335POPC   C4B 7750  34.082  39.202   7.613
  336POPC   NC3 7751  25.183  31.270   9.454
  336POPC   PO4 7752  24.947  31.883   9.470
  336POPC   GL1 7753  25.037  31.597   9.058
  336POPC   GL2 7754  25.058  31.211   8.935
  336POPC   C1A 7755  24.985  31.583   8.602
  336POPC   D2A 7756  25.131  31.340   8.255
  336POPC   C3A 7757  25.331  31.609   7.970
  336POPC   C4A 7758  24.957  31.690   7.780
  336POPC   C1B 7759  25.435  31.208   8.799
  336POPC   C2B 7760  25.519  31.048   8.425
  336POPC   C3B 7761  25.595  31.170   8.041
  336POPC   C4B 7762  25.602  31.303   7.642
  337POPC   NC3 7763  17.898  33.343   9.617
  337POPC   PO4 7764  18.434  33.025   9.425
  337POPC   GL1 7765  18.200  33.168   9.076
  337POPC   GL2 7766  17.909  33.408   9.113
  337POPC   C1A 7767  18.391  33.069   8.674
  337POPC   D2A 7768  18.355  32.740   8.380
  337POPC   C3A 7769  18.460  32.930   8.000
  337POPC   C4A 7770  18.374  32.861   7.602
  337POPC   C1B 7771  17.993  33.410   8.670
  337POPC   C2B 7772  18.082  33.222   8.254
  337POPC   C3B 7773  18.237  33.409   7.871
  337POPC   C4B 7774  18.441  33.344   7.436
  338POPC   NC3 7775  26.269  23.787   9.748
  338POPC   PO4 7776  26.791  23.357   9.585
  338POPC   GL1 7777  26.715  23.685   9.243
  338POPC   GL2 7778  26.380  23.830   9.253
  338POPC   C1A 7779  26.885  23.657   8.816
  338POPC   D2A 7780  27.098  23.486   8.448
  338POPC   C3A 7781  26.813  23.486   8.097
  338POPC   C4A 7782  26.676  23.709   7.755
  338POPC   C1B 7783  26.377  23.863   8.807
  338POPC   C2B 7784  26.568  23.835   8.390
  338POPC   C3B 7785  26.355  24.013   8.005
  338POPC   C4B 7786  26.493  24.133   7.582
  339POPC   NC3 7787   2.546   4.867   9.366
  339POPC   PO4 7788   2.952   5.324   9.588
  339POPC   GL1 7789   2.895   5.180   9.153
  339POPC   GL2 7790   2.557   5.339   9.158
  339POPC   C1A 7791   3.003   4.898   8.760
  339POPC   D2A 7792   3.191   4.912   8.319
  339POPC   C3A 7793   2.955   5.046   7.962
  339POPC   C4A 7794   2.918   5.494   7.854
  339POPC   C1B 7795   2.549   5.175   8.740
  339POPC   C2B 7796   2.662   5.319   8.313
  339POPC   C3B 7797   2.454   5.259   7.897
  339POPC   C4B 7798   2.347   5.579   7.555
  340POPC   NC3 7799  32.747  20.002  10.049
  340POPC   PO4 7800  32.942  19.577   9.606
  340POPC   GL1 7801  33.002  19.679   9.202
  340POPC   GL2 7802  32.825  19.977   9.175
  340POPC   C1A 7803  33.130  19.843   8.782
  340POPC   D2A 7804  32.915  19.785   8.376
  340POPC   C3A 7805  33.057  20.036   8.028
  340POPC   C4A 7806  33.357  20.010   7.723
  340POPC   C1B 7807  32.675  19.644   8.826
  340POPC   C2B 7808  32.404  19.673   8.497
  340POPC   C3B 7809  32.517  19.569   8.088
  340POPC   C4B 7810  32.914  19.541   7.905
  341POPC   NC3 7811  30.919  31.425   9.578
  341POPC   PO4 7812  30.357  30.993   9.438
  341POPC   GL1 7813  30.668  31.309   9.106
  341POPC   GL2 7814  31.032  31.502   9.102
  341POPC   C1A 7815  30.771  31.472   8.651
  341POPC   D2A 7816  30.518  31.497   8.235
  341POPC   C3A 7817  30.527  31.333   7.808
  341POPC   C4A 7818  30.466  31.361   7.356
  341POPC   C1B 7819  31.236  31.285   8.799
  341POPC   C2B 7820  31.134  31.183   8.409
  341POPC   C3B 7821  30.878  31.099   8.090
  341POPC   C4B 7822  31.019  31.338   7.729
  342POPC   NC3 7823  42.539  39.257   9.733
  342POPC   PO4 7824  43.138  39.155   9.338
  342POPC   GL1 7825  43.070  39.441   9.033
  342POPC   GL2 7826  42.756  39.340   8.876
  342POPC   C1A 7827  43.198  39.433   8.613
  342POPC   D2A 7828  43.043  39.288   8.239
  342POPC   C3A 7829  43.091  39.486   7.862
  342POPC   C4A 7830  43.019  39.291   7.482
  342POPC   C1B 7831  42.975  38.970   8.690
  342POPC   C2B 7832  43.175  38.804   8.319
  342POPC   C3B 7833  42.993  38.848   7.900
  342POPC   C4B 7834  43.070  38.788   7.461
  343POPC   NC3 7835  41.439  25.754   9.660
  343POPC   PO4 7836  41.047  26.189   9.465
  343POPC   GL1 7837  41.451  26.199   9.227
  343POPC   GL2 7838  41.644  25.897   9.173
  343POPC   C1A 7839  41.601  26.250   8.784
  343POPC   D2A 7840  41.691  26.041   8.374
  343POPC   C3A 7841  41.530  26.315   8.010
  343POPC   C4A 7842  41.298  26.160   7.614
  343POPC   C1B 7843  41.426  25.764   8.796
  343POPC   C2B 7844  41.433  25.600   8.369
  343POPC   C3B 7845  41.372  25.823   8.007
  343POPC   C4B 7846  41.357  25.646   7.628
  344POPC   NC3 7847  18.521  42.173   9.567
  344POPC   PO4 7848  17.993  41.982   9.391
  344POPC   GL1 7849  18.199  42.365   9.149
  344POPC   GL2 7850  18.553  42.463   9.121
  344POPC   C1A 7851  18.241  42.567   8.735
  344POPC   D2A 7852  18.338  42.419   8.307
  344POPC   C3A 7853  18.247  42.018   8.129
  344POPC   C4A 7854  17.898  41.928   7.870
  344POPC   C1B 7855  18.758  42.645   8.748
  344POPC   C2B 7856  18.814  42.579   8.295
  344POPC   C3B 7857  18.564  42.667   7.910
  344POPC   C4B 7858  18.201  42.407   7.795
  345POPC   NC3 7859  33.560  10.396   9.487
  345POPC   PO4 7860  34.080  10.827   9.706
  345POPC   GL1 7861  33.986  10.839   9.263
  345POPC   GL2 7862  33.811  10.565   9.087
  345POPC   C1A 7863  34.104  10.869   8.831
  345POPC   D2A 7864  33.948  10.610   8.516
  345POPC   C3A 7865  33.988  10.693   8.083
  345POPC   C4A 7866  34.032  10.311   7.828
  345POPC   C1B 7867  33.540  10.365   8.787
  345POPC   C2B 7868  33.467  10.447   8.359
  345POPC   C3B 7869  33.550  10.447   7.938
  345POPC   C4B 7870  33.290  10.229   7.692
  346POPC   NC3 7871  42.674  24.198   9.417
  346POPC   PO4 7872  42.964  23.548   9.478
  346POPC   GL1 7873  42.893  23.771   9.133
  346POPC   GL2 7874  42.840  23.447   8.991
  346POPC   C1A 7875  43.030  23.946   8.742
  346POPC   D2A 7876  42.964  24.117   8.342
  346POPC   C3A 7877  43.028  23.872   7.988
  346POPC   C4A 7878  43.138  23.860   7.571
  346POPC   C1B 7879  43.252  23.493   8.830
  346POPC   C2B 7880  43.340  23.664   8.404
  346POPC   C3B 7881  43.367  23.454   8.013
  346POPC   C4B 7882  42.959  23.355   7.912
  347POPC   NC3 7883  27.763  13.058   9.549
  347POPC   PO4 7884  27.422  12.461   9.548
  347POPC   GL1 7885  27.551  12.556   9.090
  347POPC   GL2 7886  27.777  12.842   9.087
  347POPC   C1A 7887  27.726  12.567   8.625
  347POPC   D2A 7888  27.930  12.799   8.256
  347POPC   C3A 7889  27.553  13.026   8.097
  347POPC   C4A 7890  27.228  12.912   7.810
  347POPC   C1B 7891  27.995  13.192   8.886
  347POPC   C2B 7892  27.965  13.287   8.461
  347POPC   C3B 7893  28.126  13.322   8.083
  347POPC   C4B 7894  27.916  13.119   7.771
  348POPC   NC3 7895   5.756   0.144   9.185
  348POPC   PO4 7896   5.937  44.636   9.664
  348POPC   GL1 7897   5.992  44.578   9.204
  348POPC   GL2 7898   5.683  44.618   9.115
  348POPC   C1A 7899   6.094  44.658   8.766
  348POPC   D2A 7900   6.311  44.504   8.420
  348POPC   C3A 7901   6.117  44.590   8.058
  348POPC   C4A 7902   5.991  44.507   7.669
  348POPC   C1B 7903   5.558  44.748   8.694
  348POPC   C2B 7904   5.833  44.926   8.392
  348POPC   C3B 7905   5.802   0.078   7.998
  348POPC   C4B 7906   5.798  44.954   7.588
  349POPC   NC3 7907  28.972   0.670   9.424
  349POPC   PO4 7908  29.535   0.279   9.296
  349POPC   GL1 7909  29.206   0.400   9.043
  349POPC   GL2 7910  28.887   0.252   9.110
  349POPC   C1A 7911  29.189   0.464   8.621
  349POPC   D2A 7912  29.345   0.712   8.320
  349POPC   C3A 7913  29.264   0.450   8.017
  349POPC   C4A 7914  29.210   0.322   7.615
  349POPC   C1B 7915  28.705   0.129   8.702
  349POPC   C2B 7916  28.693  44.900   8.287
  349POPC   C3B 7917  28.899   0.024   7.893
  349POPC   C4B 7918  28.779   0.095   7.453
  350POPC   NC3 7919  35.719  26.341   9.613
  350POPC   PO4 7920  35.387  25.773   9.392
  350POPC   GL1 7921  35.368  26.180   9.203
  350POPC   GL2 7922  35.037  26.302   9.226
  350POPC   C1A 7923  35.456  26.260   8.775
  350POPC   D2A 7924  35.677  26.082   8.410
  350POPC   C3A 7925  35.516  26.085   8.038
  350POPC   C4A 7926  35.422  25.949   7.676
  350POPC   C1B 7927  34.978  26.074   8.800
  350POPC   C2B 7928  35.178  25.877   8.431
  350POPC   C3B 7929  35.036  25.874   7.999
  350POPC   C4B 7930  35.033  26.269   7.742
  351POPC   NC3 7931  43.715   1.214   9.430
  351POPC   PO4 7932  44.278   1.577   9.173
  351POPC   GL1 7933  44.104   1.206   9.025
  351POPC   GL2 7934  43.756   1.331   8.937
  351POPC   C1A 7935  44.077   1.037   8.609
  351POPC   D2A 7936  44.049   1.321   8.294
  351POPC   C3A 7937  44.083   1.226   7.883
  351POPC   C4A 7938  43.787   1.539   7.735
  351POPC   C1B 7939  43.586   0.963   8.748
  351POPC   C2B 7940  43.650   0.686   8.430
  351POPC   C3B 7941  43.713   0.984   8.137
  351POPC   C4B 7942  43.645   1.046   7.724
  352POPC   NC3 7943  30.702  42.616   9.485
  352POPC   PO4 7944  30.463  41.981   9.420
  352POPC   GL1 7945  30.648  42.231   9.127
  352POPC   GL2 7946  30.306  42.249   9.006
  352POPC   C1A 7947  30.642  42.531   8.758
  352POPC   D2A 7948  30.543  42.477   8.316
  352POPC   C3A 7949  30.787  42.612   7.929
  352POPC   C4A 7950  30.630  42.545   7.507
  352POPC   C1B 7951  30.547  42.027   8.675
  352POPC   C2B 7952  30.625  41.975   8.256
  352POPC   C3B 7953  30.606  42.151   7.873
  352POPC   C4B 7954  30.340  42.115   7.527
  353POPC   NC3 7955  18.110   3.954   9.543
  353POPC   PO4 7956  18.117   3.262   9.662
  353POPC   GL1 7957  18.240   3.390   9.221
  353POPC   GL2 7958  18.585   3.507   9.294
  353POPC   C1A 7959  18.041   3.530   8.790
  353POPC   D2A 7960  17.942   3.368   8.372
  353POPC   C3A 7961  18.114   3.579   8.068
  353POPC   C4A 7962  18.436   3.331   7.881
  353POPC   C1B 7963  18.510   3.690   8.873
  353POPC   C2B 7964  18.462   3.508   8.445
  353POPC   C3B 7965  18.582   3.785   8.093
  353POPC   C4B 7966  18.784   3.697   7.707
  354POPC   NC3 7967  18.461  19.905   9.712
  354POPC   PO4 7968  17.915  20.013   9.377
  354POPC   GL1 7969  18.240  19.752   9.236
  354POPC   GL2 7970  18.550  19.933   9.144
  354POPC   C1A 7971  18.243  19.666   8.799
  354POPC   D2A 7972  18.422  19.814   8.451
  354POPC   C3A 7973  18.236  19.890   8.097
  354POPC   C4A 7974  18.369  19.777   7.730
  354POPC   C1B 7975  18.301  20.188   8.840
  354POPC   C2B 7976  17.983  20.117   8.537
  354POPC   C3B 7977  17.835  20.183   8.115
  354POPC   C4B 7978  17.888  20.019   7.704
  355POPC   NC3 7979  31.923  40.954   9.460
  355POPC   PO4 7980  31.440  40.615   9.899
  355POPC   GL1 7981  31.452  40.589   9.402
  355POPC   GL2 7982  31.406  40.929   9.228
  355POPC   C1A 7983  31.438  40.543   8.909
  355POPC   D2A 7984  31.644  40.475   8.490
  355POPC   C3A 7985  31.583  40.696   8.088
  355POPC   C4A 7986  31.682  40.512   7.669
  355POPC   C1B 7987  31.090  40.939   8.918
  355POPC   C2B 7988  31.116  40.813   8.510
  355POPC   C3B 7989  31.073  40.628   8.118
  355POPC   C4B 7990  31.231  40.763   7.731
  356POPC   NC3 7991  31.390  35.293   9.598
  356POPC   PO4 7992  31.624  35.912   9.492
  356POPC   GL1 7993  31.621  35.547   9.205
  356POPC   GL2 7994  31.522  35.174   9.142
  356POPC   C1A 7995  31.442  35.512   8.789
  356POPC   D2A 7996  31.189  35.562   8.450
  356POPC   C3A 7997  31.445  35.613   8.084
  356POPC   C4A 7998  31.389  35.615   7.662
  356POPC   C1B 7999  31.586  35.018   8.735
  356POPC   C2B 8000  31.562  35.193   8.349
  356POPC   C3B 8001  31.415  35.064   7.941
  356POPC   C4B 8002  31.524  35.136   7.523
  357POPC   NC3 8003  37.389  10.781   9.501
  357POPC   PO4 8004  38.052  10.880   9.420
  357POPC   GL1 8005  37.867  10.702   9.001
  357POPC   GL2 8006  37.571  10.494   8.987
  357POPC   C1A 8007  37.578  10.881   8.685
  357POPC   D2A 8008  37.245  10.697   8.421
  357POPC   C3A 8009  37.250  10.823   7.996
  357POPC   C4A 8010  37.656  10.840   7.805
  357POPC   C1B 8011  37.906  10.232   8.779
  357POPC   C2B 8012  38.089  10.132   8.378
  357POPC   C3B 8013  37.880  10.341   8.034
  357POPC   C4B 8014  37.750  10.291   7.614
  358POPC   NC3 8015  36.407  15.006   9.357
  358POPC   PO4 8016  36.231  14.393   9.597
  358POPC   GL1 8017  36.092  14.569   9.219
  358POPC   GL2 8018  36.403  14.552   9.085
  358POPC   C1A 8019  35.913  14.542   8.800
  358POPC   D2A 8020  36.077  14.473   8.386
  358POPC   C3A 8021  35.896  14.641   8.025
  358POPC   C4A 8022  35.849  14.308   7.738
  358POPC   C1B 8023  36.391  14.758   8.688
  358POPC   C2B 8024  36.527  14.699   8.246
  358POPC   C3B 8025  36.378  14.462   7.891
  358POPC   C4B 8026  36.434  14.570   7.432
  359POPC   NC3 8027  43.040  15.893   9.403
  359POPC   PO4 8028  43.440  15.303   9.363
  359POPC   GL1 8029  43.362  15.629   9.062
  359POPC   GL2 8030  43.292  15.992   8.944
  359POPC   C1A 8031  43.479  15.619   8.633
  359POPC   D2A 8032  43.399  15.909   8.317
  359POPC   C3A 8033  43.309  15.769   7.915
  359POPC   C4A 8034  43.155  16.034   7.590
  359POPC   C1B 8035  42.988  15.872   8.638
  359POPC   C2B 8036  42.875  15.939   8.202
  359POPC   C3B 8037  42.713  16.135   7.842
  359POPC   C4B 8038  42.664  16.046   7.418
  360POPC   NC3 8039  26.624   1.814   9.567
  360POPC   PO4 8040  27.320   1.830   9.513
  360POPC   GL1 8041  26.958   1.735   9.162
  360POPC   GL2 8042  26.566   1.631   9.116
  360POPC   C1A 8043  26.823   1.856   8.743
  360POPC   D2A 8044  26.948   1.887   8.321
  360POPC   C3A 8045  26.791   2.156   8.021
  360POPC   C4A 8046  26.981   1.963   7.685
  360POPC   C1B 8047  26.439   1.505   8.722
  360POPC   C2B 8048  26.454   1.714   8.339
  360POPC   C3B 8049  26.530   1.735   7.916
  360POPC   C4B 8050  26.509   2.067   7.570
  361POPC   NC3 8051  15.018  43.963   9.337
  361POPC   PO4 8052  15.455  43.514   9.331
  361POPC   GL1 8053  15.389  43.762   8.979
  361POPC   GL2 8054  15.223  44.068   8.907
  361POPC   C1A 8055  15.410  43.674   8.564
  361POPC   D2A 8056  15.145  43.561   8.268
  361POPC   C3A 8057  15.126  43.811   7.939
  361POPC   C4A 8058  15.293  44.108   7.748
  361POPC   C1B 8059  14.908  43.835   8.677
  361POPC   C2B 8060  14.747  43.935   8.268
  361POPC   C3B 8061  14.810  44.211   7.932
  361POPC   C4B 8062  14.706  43.881   7.606
  362POPC   NC3 8063  23.682  31.972   9.493
  362POPC   PO4 8064  23.387  32.568   9.539
  362POPC   GL1 8065  23.595  32.375   9.173
  362POPC   GL2 8066  23.482  32.037   9.035
  362POPC   C1A 8067  23.723  32.376   8.735
  362POPC   D2A 8068  23.979  32.431   8.381
  362POPC   C3A 8069  23.774  32.355   8.014
  362POPC   C4A 8070  23.935  32.288   7.633
  362POPC   C1B 8071  23.412  31.692   8.756
  362POPC   C2B 8072  23.438  32.010   8.474
  362POPC   C3B 8073  23.465  31.904   8.089
  362POPC   C4B 8074  23.561  31.916   7.714
  363POPC   NC3 8075  13.270  35.733   9.784
  363POPC   PO4 8076  12.645  35.972   9.593
  363POPC   GL1 8077  12.710  36.074   9.158
  363POPC   GL2 8078  13.024  35.901   9.228
  363POPC   C1A 8079  12.666  36.203   8.729
  363POPC   D2A 8080  12.895  36.119   8.356
  363POPC   C3A 8081  12.776  36.172   7.927
  363POPC   C4A 8082  12.940  36.431   7.611
  363POPC   C1B 8083  12.936  35.781   8.808
  363POPC   C2B 8084  13.077  35.651   8.384
  363POPC   C3B 8085  13.117  35.786   7.966
  363POPC   C4B 8086  12.861  35.695   7.635
  364POPC   NC3 8087  38.475  11.064   9.450
  364POPC   PO4 8088  38.652  11.646   9.670
  364POPC   GL1 8089  38.642  11.525   9.233
  364POPC   GL2 8090  38.301  11.546   9.238
  364POPC   C1A 8091  38.463  11.312   8.831
  364POPC   D2A 8092  38.654  11.299   8.431
  364POPC   C3A 8093  38.615  10.948   8.179
  364POPC   C4A 8094  38.666  11.124   7.788
  364POPC   C1B 8095  38.073  11.660   8.836
  364POPC   C2B 8096  38.242  11.604   8.429
  364POPC   C3B 8097  38.353  11.571   7.993
  364POPC   C4B 8098  38.018  11.725   7.705
  365POPC   NC3 8099   4.227   4.096   9.467
  365POPC   PO4 8100   4.626   4.612   9.432
  365POPC   GL1 8101   4.323   4.478   9.160
  365POPC   GL2 8102   3.969   4.545   9.285
  365POPC   C1A 8103   4.383   4.236   8.783
  365POPC   D2A 8104   4.659   4.211   8.422
  365POPC   C3A 8105   4.393   4.270   8.084
  365POPC   C4A 8106   4.333   4.189   7.694
  365POPC   C1B 8107   3.934   4.483   8.820
  365POPC   C2B 8108   3.979   4.214   8.430
  365POPC   C3B 8109   3.891   4.296   7.985
  365POPC   C4B 8110   3.796   4.608   7.653
  366POPC   NC3 8111   4.418  31.013   9.597
  366POPC   PO4 8112   4.606  30.332   9.427
  366POPC   GL1 8113   4.429  30.628   9.132
  366POPC   GL2 8114   4.410  31.000   9.100
  366POPC   C1A 8115   4.329  30.552   8.710
  366POPC   D2A 8116   4.026  30.365   8.406
  366POPC   C3A 8117   4.197  30.442   8.018
  366POPC   C4A 8118   4.627  30.468   7.821
  366POPC   C1B 8119   4.304  31.085   8.697
  366POPC   C2B 8120   4.368  30.869   8.308
  366POPC   C3B 8121   4.367  30.896   7.880
  366POPC   C4B 8122   4.521  30.887   7.490
  367POPC   NC3 8123  16.081   1.206   9.560
  367POPC   PO4 8124  16.146   1.722   9.194
  367POPC   GL1 8125  16.123   1.367   8.993
  367POPC   GL2 8126  15.852   1.124   9.089
  367POPC   C1A 8127  16.400   1.375   8.642
  367POPC   D2A 8128  16.258   1.235   8.259
  367POPC   C3A 8129  15.940   1.477   8.046
  367POPC   C4A 8130  15.951   1.303   7.662
  367POPC   C1B 8131  15.715   0.772   8.785
  367POPC   C2B 8132  15.598   0.741   8.364
  367POPC   C3B 8133  15.711   0.978   8.046
  367POPC   C4B 8134  15.636   0.851   7.617
  368POPC   NC3 8135  27.422  43.446   9.702
  368POPC   PO4 8136  26.877  43.500   9.378
  368POPC   GL1 8137  27.294  43.383   9.199
  368POPC   GL2 8138  27.446  43.043   9.254
  368POPC   C1A 8139  27.631  43.461   8.900
  368POPC   D2A 8140  27.698  43.337   8.482
  368POPC   C3A 8141  27.345  43.151   8.248
  368POPC   C4A 8142  27.392  43.021   7.825
  368POPC   C1B 8143  27.619  42.941   8.830
  368POPC   C2B 8144  27.859  42.789   8.478
  368POPC   C3B 8145  27.836  43.008   8.125
  368POPC   C4B 8146  27.957  42.991   7.763
  369POPC   NC3 8147  31.807   7.148   9.625
  369POPC   PO4 8148  31.147   7.204   9.450
  369POPC   GL1 8149  31.527   7.448   9.288
  369POPC   GL2 8150  31.629   7.147   9.135
  369POPC   C1A 8151  31.705   7.726   8.927
  369POPC   D2A 8152  31.499   7.842   8.510
  369POPC   C3A 8153  31.623   7.775   8.081
  369POPC   C4A 8154  31.415   7.581   7.727
  369POPC   C1B 8155  31.426   7.349   8.774
  369POPC   C2B 8156  31.640   7.344   8.364
  369POPC   C3B 8157  31.476   7.156   7.998
  369POPC   C4B 8158  31.140   7.122   7.676
  370POPC   NC3 8159  17.151  17.873   9.481
  370POPC   PO4 8160  17.551  17.269   9.660
  370POPC   GL1 8161  17.769  17.308   9.228
  370POPC   GL2 8162  17.825  17.672   9.151
  370POPC   C1A 8163  17.794  17.299   8.757
  370POPC   D2A 8164  17.505  17.173   8.404
  370POPC   C3A 8165  17.661  17.227   8.004
  370POPC   C4A 8166  17.659  17.497   7.639
  370POPC   C1B 8167  17.519  17.748   8.860
  370POPC   C2B 8168  17.602  17.690   8.443
  370POPC   C3B 8169  17.413  17.694   8.061
  370POPC   C4B 8170  17.455  17.980   7.730
  371POPC   NC3 8171   3.409   5.299   9.626
  371POPC   PO4 8172   3.749   4.753   9.783
  371POPC   GL1 8173   3.736   5.008   9.342
  371POPC   GL2 8174   3.858   5.349   9.238
  371POPC   C1A 8175   3.418   5.129   8.982
  371POPC   D2A 8176   3.537   5.251   8.538
  371POPC   C3A 8177   3.317   5.378   8.150
  371POPC   C4A 8178   3.448   5.538   7.738
  371POPC   C1B 8179   3.896   5.043   8.861
  371POPC   C2B 8180   3.982   5.006   8.454
  371POPC   C3B 8181   3.787   5.130   8.082
  371POPC   C4B 8182   3.468   5.018   7.800
  372POPC   NC3 8183   4.727   7.286   9.545
  372POPC   PO4 8184   4.245   7.780   9.554
  372POPC   GL1 8185   4.384   7.491   9.227
  372POPC   GL2 8186   4.286   7.178   9.097
  372POPC   C1A 8187   4.603   7.463   8.816
  372POPC   D2A 8188   4.695   7.445   8.380
  372POPC   C3A 8189   4.298   7.540   8.176
  372POPC   C4A 8190   4.160   7.646   7.760
  372POPC   C1B 8191   4.448   6.978   8.684
  372POPC   C2B 8192   4.475   6.994   8.222
  372POPC   C3B 8193   4.434   7.200   7.822
  372POPC   C4B 8194   4.387   7.184   7.388
  373POPC   NC3 8195  42.542  43.269   9.919
  373POPC   PO4 8196  42.018  43.048   9.501
  373POPC   GL1 8197  42.155  42.941   9.057
  373POPC   GL2 8198  41.905  43.236   9.012
  373POPC   C1A 8199  42.325  43.150   8.678
  373POPC   D2A 8200  42.241  43.274   8.279
  373POPC   C3A 8201  42.475  43.172   7.940
  373POPC   C4A 8202  42.666  43.217   7.558
  373POPC   C1B 8203  41.725  42.843   8.850
  373POPC   C2B 8204  42.017  42.717   8.548
  373POPC   C3B 8205  41.969  42.817   8.131
  373POPC   C4B 8206  42.177  42.784   7.769
  374POPC   NC3 8207  10.989  36.150   9.520
  374POPC   PO4 8208  10.303  36.336   9.611
  374POPC   GL1 8209  10.530  36.177   9.251
  374POPC   GL2 8210  10.717  36.467   9.225
  374POPC   C1A 8211  10.527  35.913   8.865
  374POPC   D2A 8212  10.673  35.844   8.440
  374POPC   C3A 8213  10.379  35.998   8.141
  374POPC   C4A 8214  10.427  36.080   7.734
  374POPC   C1B 8215  10.948  36.233   8.872
  374POPC   C2B 8216  11.103  36.156   8.466
  374POPC   C3B 8217  10.845  36.189   8.082
  374POPC   C4B 8218  10.808  36.385   7.683
  375POPC   NC3 8219   8.077  29.923   9.461
  375POPC   PO4 8220   8.613  29.713   9.684
  375POPC   GL1 8221   8.442  29.767   9.164
  375POPC   GL2 8222   8.324  30.176   9.089
  375POPC   C1A 8223   8.106  29.833   8.798
  375POPC   D2A 8224   8.051  30.197   8.492
  375POPC   C3A 8225   7.987  30.080   8.042
  375POPC   C4A 8226   8.193  29.796   7.724
  375POPC   C1B 8227   8.571  30.045   8.728
  375POPC   C2B 8228   8.667  30.200   8.350
  375POPC   C3B 8229   8.466  30.280   7.968
  375POPC   C4B 8230   8.576  30.125   7.548
  376POPC   NC3 8231  35.079  40.235   9.622
  376POPC   PO4 8232  34.876  40.866   9.561
  376POPC   GL1 8233  34.543  40.812   9.277
  376POPC   GL2 8234  34.552  40.454   9.290
  376POPC   C1A 8235  34.403  40.963   8.870
  376POPC   D2A 8236  34.349  41.011   8.444
  376POPC   C3A 8237  34.510  40.776   8.135
  376POPC   C4A 8238  34.576  40.928   7.763
  376POPC   C1B 8239  34.271  40.466   8.929
  376POPC   C2B 8240  34.304  40.454   8.479
  376POPC   C3B 8241  34.195  40.389   8.035
  376POPC   C4B 8242  34.456  40.445   7.674
  377POPC   NC3 8243   4.297  23.702   9.654
  377POPC   PO4 8244   4.529  23.418   9.101
  377POPC   GL1 8245   4.283  23.796   9.158
  377POPC   GL2 8246   4.598  23.970   9.310
  377POPC   C1A 8247   4.102  23.840   8.743
  377POPC   D2A 8248   4.297  23.583   8.419
  377POPC   C3A 8249   4.267  23.681   7.978
  377POPC   C4A 8250   4.284  23.749   7.519
  377POPC   C1B 8251   4.559  24.058   8.845
  377POPC   C2B 8252   4.352  24.113   8.430
  377POPC   C3B 8253   4.481  24.162   8.072
  377POPC   C4B 8254   4.636  23.997   7.763
  378POPC   NC3 8255  28.007  14.231   9.532
  378POPC   PO4 8256  28.712  14.052   9.481
  378POPC   GL1 8257  28.446  14.202   9.108
  378POPC   GL2 8258  28.070  14.222   9.027
  378POPC   C1A 8259  28.435  14.114   8.675
  378POPC   D2A 8260  28.367  14.303   8.289
  378POPC   C3A 8261  28.640  14.130   7.979
  378POPC   C4A 8262  28.859  14.200   7.604
  378POPC   C1B 8263  28.168  14.583   8.736
  378POPC   C2B 8264  28.230  14.799   8.329
  378POPC   C3B 8265  28.254  14.656   7.913
  378POPC   C4B 8266  28.199  14.255   7.792
  379POPC   NC3 8267  29.004  19.288   9.586
  379POPC   PO4 8268  29.179  18.758   9.448
  379POPC   GL1 8269  28.919  18.957   9.134
  379POPC   GL2 8270  29.175  19.168   9.091
  379POPC   C1A 8271  28.838  19.066   8.688
  379POPC   D2A 8272  29.155  18.955   8.343
  379POPC   C3A 8273  29.066  18.996   7.908
  379POPC   C4A 8274  29.155  19.234   7.509
  379POPC   C1B 8275  29.405  18.873   8.820
  379POPC   C2B 8276  29.516  18.607   8.450
  379POPC   C3B 8277  29.656  18.752   8.033
  379POPC   C4B 8278  29.518  18.880   7.612
  380POPC   NC3 8279   5.547  11.222   9.328
  380POPC   PO4 8280   6.172  11.317   9.537
  380POPC   GL1 8281   5.985  11.438   9.169
  380POPC   GL2 8282   5.778  11.733   9.200
  380POPC   C1A 8283   5.999  11.274   8.771
  380POPC   D2A 8284   6.257  11.299   8.410
  380POPC   C3A 8285   6.074  11.236   7.995
  380POPC   C4A 8286   5.662  11.175   7.801
  380POPC   C1B 8287   5.684  11.677   8.764
  380POPC   C2B 8288   5.685  11.386   8.376
  380POPC   C3B 8289   5.441  11.544   8.049
  380POPC   C4B 8290   5.422  11.674   7.615
  381POPC   NC3 8291  39.635  18.220   9.530
  381POPC   PO4 8292  39.073  18.554   9.477
  381POPC   GL1 8293  39.197  18.662   9.066
  381POPC   GL2 8294  39.482  18.477   9.109
  381POPC   C1A 8295  39.340  18.647   8.643
  381POPC   D2A 8296  38.973  18.493   8.476
  381POPC   C3A 8297  38.987  18.455   8.074
  381POPC   C4A 8298  39.013  18.360   7.668
  381POPC   C1B 8299  39.251  18.185   8.805
  381POPC   C2B 8300  39.397  18.160   8.388
  381POPC   C3B 8301  39.294  18.045   7.952
  381POPC   C4B 8302  39.301  17.985   7.483
  382POPC   NC3 8303  10.772  37.856   9.564
  382POPC   PO4 8304  11.427  37.782   9.613
  382POPC   GL1 8305  11.514  37.608   9.205
  382POPC   GL2 8306  11.693  37.876   9.137
  382POPC   C1A 8307  11.392  37.547   8.771
  382POPC   D2A 8308  11.167  37.561   8.375
  382POPC   C3A 8309  11.417  37.745   8.052
  382POPC   C4A 8310  11.559  37.454   7.785
  382POPC   C1B 8311  11.286  38.000   8.985
  382POPC   C2B 8312  11.299  38.032   8.552
  382POPC   C3B 8313  11.058  38.054   8.229
  382POPC   C4B 8314  11.000  38.034   7.798
  383POPC   NC3 8315  18.090   5.599   9.287
  383POPC   PO4 8316  18.434   5.124   9.647
  383POPC   GL1 8317  18.302   5.100   9.220
  383POPC   GL2 8318  17.945   5.039   9.206
  383POPC   C1A 8319  18.346   5.243   8.785
  383POPC   D2A 8320  18.301   5.508   8.418
  383POPC   C3A 8321  18.398   5.231   8.085
  383POPC   C4A 8322  18.234   5.090   7.705
  383POPC   C1B 8323  18.045   4.807   8.840
  383POPC   C2B 8324  18.238   4.860   8.439
  383POPC   C3B 8325  17.997   4.869   8.090
  383POPC   C4B 8326  17.967   4.650   7.714
  384POPC   NC3 8327  37.340  15.361   9.298
  384POPC   PO4 8328  37.565  14.773   9.576
  384POPC   GL1 8329  37.674  14.984   9.198
  384POPC   GL2 8330  37.837  15.336   9.152
  384POPC   C1A 8331  37.783  14.922   8.790
  384POPC   D2A 8332  37.805  15.113   8.418
  384POPC   C3A 8333  37.776  14.913   8.045
  384POPC   C4A 8334  37.683  15.026   7.654
  384POPC   C1B 8335  37.905  15.524   8.732
  384POPC   C2B 8336  38.090  15.520   8.324
  384POPC   C3B 8337  37.819  15.428   7.980
  384POPC   C4B 8338  37.786  15.522   7.541
  385POPC   NC3 8339   3.875   3.177   9.419
  385POPC   PO4 8340   4.241   3.657   9.377
  385POPC   GL1 8341   4.387   3.421   9.090
  385POPC   GL2 8342   4.737   3.551   9.135
  385POPC   C1A 8343   4.173   3.468   8.685
  385POPC   D2A 8344   4.072   3.289   8.298
  385POPC   C3A 8345   4.267   3.455   7.962
  385POPC   C4A 8346   4.067   3.820   7.894
  385POPC   C1B 8347   4.579   3.768   8.753
  385POPC   C2B 8348   4.340   3.817   8.353
  385POPC   C3B 8349   4.623   3.837   8.015
  385POPC   C4B 8350   4.822   3.948   7.627
  386POPC   NC3 8351  29.954  31.219   9.481
  386POPC   PO4 8352  30.085  31.844   9.556
  386POPC   GL1 8353  30.217  31.577   9.159
  386POPC   GL2 8354  30.171  31.210   9.015
  386POPC   C1A 8355  30.280  31.582   8.696
  386POPC   D2A 8356  30.040  31.665   8.308
  386POPC   C3A 8357  30.074  31.277   8.065
  386POPC   C4A 8358  30.065  31.168   7.655
  386POPC   C1B 8359  29.823  31.348   8.754
  386POPC   C2B 8360  29.652  31.275   8.337
  386POPC   C3B 8361  29.602  31.379   7.895
  386POPC   C4B 8362  29.541  31.143   7.535
  387POPC   NC3 8363   7.752  26.559   9.531
  387POPC   PO4 8364   7.067  26.831   9.510
  387POPC   GL1 8365   7.368  26.644   9.203
  387POPC   GL2 8366   7.216  26.365   9.085
  387POPC   C1A 8367   7.677  26.807   8.871
  387POPC   D2A 8368   7.614  27.205   8.639
  387POPC   C3A 8369   7.711  27.188   8.201
  387POPC   C4A 8370   7.674  26.827   7.909
  387POPC   C1B 8371   7.190  26.689   8.725
  387POPC   C2B 8372   7.290  26.757   8.285
  387POPC   C3B 8373   7.225  26.604   7.863
  387POPC   C4B 8374   7.323  26.582   7.403
  388POPC   NC3 8375  16.881   8.049   9.463
  388POPC   PO4 8376  16.269   8.235   9.471
  388POPC   GL1 8377  16.464   7.904   9.186
  388POPC   GL2 8378  16.523   8.213   9.001
  388POPC   C1A 8379  16.814   7.840   8.835
  388POPC   D2A 8380  16.733   8.050   8.428
  388POPC   C3A 8381  16.987   8.036   8.051
  388POPC   C4A 8382  17.293   7.961   7.718
  388POPC   C1B 8383  16.272   8.506   8.730
  388POPC   C2B 8384  16.397   8.590   8.285
  388POPC   C3B 8385  16.611   8.391   7.929
  388POPC   C4B 8386  16.483   8.432   7.485
  389POPC   NC3 8387  12.281   1.488   9.504
  389POPC   PO4 8388  11.798   1.088   9.522
  389POPC   GL1 8389  11.932   1.065   9.140
  389POPC   GL2 8390  12.251   1.136   9.148
  389POPC   C1A 8391  11.862   1.271   8.758
  389POPC   D2A 8392  11.853   1.401   8.344
  389POPC   C3A 8393  11.762   1.193   7.971
  389POPC   C4A 8394  11.832   1.477   7.648
  389POPC   C1B 8395  12.376   1.356   8.782
  389POPC   C2B 8396  12.326   1.175   8.388
  389POPC   C3B 8397  12.251   1.321   7.986
  389POPC   C4B 8398  12.333   1.109   7.630
  390POPC   NC3 8399   9.210  38.955   9.772
  390POPC   PO4 8400   8.953  38.407   9.533
  390POPC   GL1 8401   8.949  38.458   9.118
  390POPC   GL2 8402   8.647  38.661   9.032
  390POPC   C1A 8403   9.145  38.716   8.828
  390POPC   D2A 8404   9.262  38.932   8.456
  390POPC   C3A 8405   9.174  38.665   8.122
  390POPC   C4A 8406   9.042  38.587   7.710
  390POPC   C1B 8407   8.606  38.331   8.772
  390POPC   C2B 8408   8.865  38.400   8.432
  390POPC   C3B 8409   8.655  38.521   8.043
  390POPC   C4B 8410   8.646  38.271   7.687
  391POPC   NC3 8411  41.686  43.697   9.627
  391POPC   PO4 8412  41.189  44.125   9.665
  391POPC   GL1 8413  41.418  43.944   9.243
  391POPC   GL2 8414  41.812  43.920   9.169
  391POPC   C1A 8415  41.474  43.761   8.797
  391POPC   D2A 8416  41.412  43.534   8.381
  391POPC   C3A 8417  41.477  43.728   7.986
  391POPC   C4A 8418  41.497  43.790   7.552
  391POPC   C1B 8419  41.986  43.718   8.778
  391POPC   C2B 8420  41.912  43.711   8.293
  391POPC   C3B 8421  41.946  43.876   7.836
  391POPC   C4B 8422  41.798  44.207   7.537
  392POPC   NC3 8423  34.001  42.316   9.633
  392POPC   PO4 8424  33.481  41.946   9.413
  392POPC   GL1 8425  33.782  42.165   9.158
  392POPC   GL2 8426  33.802  42.568   9.196
  392POPC   C1A 8427  33.716  42.341   8.751
  392POPC   D2A 8428  33.941  42.303   8.398
  392POPC   C3A 8429  33.712  42.276   8.045
  392POPC   C4A 8430  33.686  42.036   7.702
  392POPC   C1B 8431  33.979  42.786   8.821
  392POPC   C2B 8432  34.105  42.803   8.386
  392POPC   C3B 8433  33.962  42.761   7.962
  392POPC   C4B 8434  33.915  42.482   7.608
  393POPC   NC3 8435  44.901  43.553   9.510
  393POPC   PO4 8436  44.444  44.033   9.406
  393POPC   GL1 8437  44.600  43.745   9.143
  393POPC   GL2 8438  44.963  43.867   9.123
  393POPC   C1A 8439  44.660  43.706   8.733
  393POPC   D2A 8440  44.653  44.010   8.440
  393POPC   C3A 8441  44.683  43.805   8.051
  393POPC   C4A 8442  44.462  44.066   7.818
  393POPC   C1B 8443   0.148  44.004   8.746
  393POPC   C2B 8444   0.128  43.896   8.331
  393POPC   C3B 8445   0.124  43.996   7.915
  393POPC   C4B 8446   0.125  43.777   7.558
  394POPC   NC3 8447  34.580  15.832   9.556
  394POPC   PO4 8448  34.626  16.531   9.413
  394POPC   GL1 8449  34.513  16.164   9.130
  394POPC   GL2 8450  34.358  15.801   9.102
  394POPC   C1A 8451  34.582  16.150   8.704
  394POPC   D2A 8452  34.594  16.352   8.332
  394POPC   C3A 8453  34.513  16.106   8.034
  394POPC   C4A 8454  34.699  16.213   7.696
  394POPC   C1B 8455  34.681  15.650   8.847
  394POPC   C2B 8456  34.799  15.751   8.416
  394POPC   C3B 8457  34.650  15.615   8.020
  394POPC   C4B 8458  34.464  15.745   7.624
  395POPC   NC3 8459   2.930  37.288   9.449
  395POPC   PO4 8460   2.567  36.689   9.608
  395POPC   GL1 8461   2.749  36.839   9.213
  395POPC   GL2 8462   2.842  36.507   9.113
  395POPC   C1A 8463   2.770  37.125   8.801
  395POPC   D2A 8464   2.715  37.359   8.377
  395POPC   C3A 8465   2.465  37.154   8.043
  395POPC   C4A 8466   2.512  36.776   7.800
  395POPC   C1B 8467   2.588  36.645   8.759
  395POPC   C2B 8468   2.674  36.831   8.361
  395POPC   C3B 8469   2.965  36.948   8.019
  395POPC   C4B 8470   3.002  36.779   7.603
  396POPC   NC3 8471  35.998  11.045   9.505
  396POPC   PO4 8472  36.515  11.423   9.529
  396POPC   GL1 8473  36.301  11.341   9.149
  396POPC   GL2 8474  35.980  11.474   9.200
  396POPC   C1A 8475  36.341  11.038   8.780
  396POPC   D2A 8476  36.531  11.126   8.355
  396POPC   C3A 8477  36.306  11.203   7.980
  396POPC   C4A 8478  36.183  10.892   7.710
  396POPC   C1B 8479  35.905  11.305   8.789
  396POPC   C2B 8480  36.068  11.454   8.395
  396POPC   C3B 8481  35.870  11.617   8.026
  396POPC   C4B 8482  35.883  11.327   7.692
  397POPC   NC3 8483  17.822  42.412   9.482
  397POPC   PO4 8484  17.201  42.226   9.637
  397POPC   GL1 8485  17.197  42.341   9.175
  397POPC   GL2 8486  17.458  42.568   9.143
  397POPC   C1A 8487  17.367  42.368   8.678
  397POPC   D2A 8488  17.649  42.231   8.271
  397POPC   C3A 8489  17.507  42.267   7.806
  397POPC   C4A 8490  17.438  41.952   7.439
  397POPC   C1B 8491  17.752  42.708   8.792
  397POPC   C2B 8492  17.914  42.702   8.351
  397POPC   C3B 8493  17.912  42.813   7.907
  397POPC   C4B 8494  17.729  42.635   7.537
  398POPC   NC3 8495  29.501  20.129   9.797
  398POPC   PO4 8496  28.966  19.734   9.491
  398POPC   GL1 8497  28.893  19.596   9.116
  398POPC   GL2 8498  28.998  19.922   9.019
  398POPC   C1A 8499  29.074  19.503   8.747
  398POPC   D2A 8500  29.277  19.436   8.430
  398POPC   C3A 8501  29.037  19.485   8.071
  398POPC   C4A 8502  29.188  19.731   7.758
  398POPC   C1B 8503  29.067  19.984   8.641
  398POPC   C2B 8504  29.255  19.921   8.278
  398POPC   C3B 8505  29.356  20.209   7.979
  398POPC   C4B 8506  29.061  20.232   7.674
  399POPC   NC3 8507  43.609   4.700   9.492
  399POPC   PO4 8508  44.151   4.229   9.410
  399POPC   GL1 8509  43.865   4.381   9.145
  399POPC   GL2 8510  43.722   4.063   9.115
  399POPC   C1A 8511  43.950   4.408   8.731
  399POPC   D2A 8512  44.114   4.609   8.347
  399POPC   C3A 8513  43.945   4.531   7.964
  399POPC   C4A 8514  43.949   4.169   7.782
  399POPC   C1B 8515  43.630   4.010   8.720
  399POPC   C2B 8516  43.761   4.181   8.323
  399POPC   C3B 8517  43.606   3.942   8.046
  399POPC   C4B 8518  43.444   4.014   7.657
  400POPC   NC3 8519  43.843  28.588   9.623
  400POPC   PO4 8520  44.265  28.166   9.279
  400POPC   GL1 8521  43.945  28.332   9.087
  400POPC   GL2 8522  44.111  28.611   8.992
  400POPC   C1A 8523  44.025  28.176   8.651
  400POPC   D2A 8524  44.076  27.848   8.323
  400POPC   C3A 8525  43.976  28.061   7.949
  400POPC   C4A 8526  43.540  28.244   7.881
  400POPC   C1B 8527  43.771  28.640   8.693
  400POPC   C2B 8528  43.813  28.490   8.270
  400POPC   C3B 8529  43.948  28.570   7.873
  400POPC   C4B 8530  43.802  28.435   7.483
  401POPC   NC3 8531  12.190  11.919   9.703
  401POPC   PO4 8532  11.572  12.162   9.617
  401POPC   GL1 8533  11.847  12.001   9.269
  401POPC   GL2 8534  12.211  11.897   9.207
  401POPC   C1A 8535  11.925  12.076   8.820
  401POPC   D2A 8536  12.077  11.858   8.439
  401POPC   C3A 8537  12.037  12.123   8.076
  401POPC   C4A 8538  12.029  11.894   7.713
  401POPC   C1B 8539  12.430  11.942   8.811
  401POPC   C2B 8540  12.555  12.092   8.424
  401POPC   C3B 8541  12.514  11.960   8.042
  401POPC   C4B 8542  12.438  12.180   7.721
  402POPC   NC3 8543  24.109  12.428   9.441
  402POPC   PO4 8544  24.713  12.660   9.664
  402POPC   GL1 8545  24.661  12.595   9.182
  402POPC   GL2 8546  24.387  12.627   9.060
  402POPC   C1A 8547  24.795  12.729   8.747
  402POPC   D2A 8548  24.932  12.599   8.316
  402POPC   C3A 8549  24.688  12.829   7.987
  402POPC   C4A 8550  24.718  13.259   7.930
  402POPC   C1B 8551  24.275  12.718   8.672
  402POPC   C2B 8552  24.047  12.704   8.307
  402POPC   C3B 8553  24.214  12.646   7.901
  402POPC   C4B 8554  24.279  12.835   7.516
  403POPC   NC3 8555   7.910  10.666   9.733
  403POPC   PO4 8556   8.466  10.323   9.540
  403POPC   GL1 8557   8.366  10.492   9.167
  403POPC   GL2 8558   8.087  10.702   9.232
  403POPC   C1A 8559   8.520  10.599   8.774
  403POPC   D2A 8560   8.321  10.730   8.402
  403POPC   C3A 8561   8.462  10.895   8.042
  403POPC   C4A 8562   8.401  10.697   7.691
  403POPC   C1B 8563   8.007  10.590   8.798
  403POPC   C2B 8564   7.926  10.394   8.387
  403POPC   C3B 8565   7.957  10.651   8.029
  403POPC   C4B 8566   7.680  10.718   7.706
  404POPC   NC3 8567   8.421   6.543   9.576
  404POPC   PO4 8568   7.770   6.557   9.479
  404POPC   GL1 8569   7.947   6.849   9.155
  404POPC   GL2 8570   8.244   6.683   9.136
  404POPC   C1A 8571   8.179   6.922   8.724
  404POPC   D2A 8572   8.069   7.000   8.350
  404POPC   C3A 8573   8.222   6.861   8.027
  404POPC   C4A 8574   8.073   6.766   7.639
  404POPC   C1B 8575   8.114   6.385   8.795
  404POPC   C2B 8576   8.177   6.476   8.371
  404POPC   C3B 8577   8.122   6.344   7.951
  404POPC   C4B 8578   8.204   6.282   7.542
  405POPC   NC3 8579  11.267  33.720   9.461
  405POPC   PO4 8580  11.915  34.109   9.505
  405POPC   GL1 8581  11.592  34.032   9.163
  405POPC   GL2 8582  11.201  33.962   9.007
  405POPC   C1A 8583  11.610  33.790   8.790
  405POPC   D2A 8584  11.308  33.835   8.464
  405POPC   C3A 8585  11.452  33.831   8.096
  405POPC   C4A 8586  11.270  33.948   7.736
  405POPC   C1B 8587  11.186  33.514   8.830
  405POPC   C2B 8588  11.118  33.360   8.422
  405POPC   C3B 8589  10.995  33.609   8.057
  405POPC   C4B 8590  11.142  33.428   7.702
  406POPC   NC3 8591  20.074  15.093   9.538
  406POPC   PO4 8592  19.595  15.503   9.915
  406POPC   GL1 8593  19.699  15.337   9.332
  406POPC   GL2 8594  19.696  14.969   9.197
  406POPC   C1A 8595  19.901  15.335   8.858
  406POPC   D2A 8596  20.077  15.332   8.398
  406POPC   C3A 8597  19.997  15.167   7.979
  406POPC   C4A 8598  20.101  15.393   7.599
  406POPC   C1B 8599  19.526  15.012   8.755
  406POPC   C2B 8600  19.567  15.088   8.304
  406POPC   C3B 8601  19.639  14.809   7.936
  406POPC   C4B 8602  19.628  14.681   7.485
  407POPC   NC3 8603  13.886   2.134   9.536
  407POPC   PO4 8604  13.224   1.982   9.500
  407POPC   GL1 8605  13.583   1.822   9.222
  407POPC   GL2 8606  13.707   2.116   9.060
  407POPC   C1A 8607  13.734   1.683   8.808
  407POPC   D2A 8608  13.741   1.923   8.444
  407POPC   C3A 8609  13.606   1.763   8.062
  407POPC   C4A 8610  13.538   1.587   7.698
  407POPC   C1B 8611  13.856   2.403   8.753
  407POPC   C2B 8612  13.987   2.346   8.352
  407POPC   C3B 8613  13.753   2.249   7.989
  407POPC   C4B 8614  13.902   2.185   7.591
  408POPC   NC3 8615   2.249   2.193   9.916
  408POPC   PO4 8616   1.814   2.346   9.397
  408POPC   GL1 8617   1.972   1.932   9.197
  408POPC   GL2 8618   1.798   1.587   9.107
  408POPC   C1A 8619   2.122   1.945   8.791
  408POPC   D2A 8620   2.257   1.894   8.359
  408POPC   C3A 8621   2.027   1.997   8.024
  408POPC   C4A 8622   2.099   2.238   7.675
  408POPC   C1B 8623   1.724   1.649   8.692
  408POPC   C2B 8624   1.844   1.583   8.291
  408POPC   C3B 8625   1.678   1.645   7.875
  408POPC   C4B 8626   1.383   1.768   7.556
  409POPC   NC3 8627   1.107  42.715   9.575
  409POPC   PO4 8628   1.231  43.449   9.529
  409POPC   GL1 8629   1.175  43.232   9.157
  409POPC   GL2 8630   0.892  42.992   9.181
  409POPC   C1A 8631   1.141  43.297   8.728
  409POPC   D2A 8632   0.942  43.181   8.345
  409POPC   C3A 8633   1.108  43.351   8.006
  409POPC   C4A 8634   1.288  43.248   7.589
  409POPC   C1B 8635   0.941  42.785   8.809
  409POPC   C2B 8636   1.223  42.742   8.484
  409POPC   C3B 8637   1.103  42.792   8.055
  409POPC   C4B 8638   1.289  42.724   7.699
  410POPC   NC3 8639  33.823  28.265   9.555
  410POPC   PO4 8640  33.305  28.719   9.433
  410POPC   GL1 8641  33.573  28.519   9.131
  410POPC   GL2 8642  33.625  28.160   9.087
  410POPC   C1A 8643  33.744  28.599   8.728
  410POPC   D2A 8644  33.969  28.580   8.355
  410POPC   C3A 8645  33.733  28.663   8.049
  410POPC   C4A 8646  33.699  28.365   7.778
  410POPC   C1B 8647  33.361  28.252   8.717
  410POPC   C2B 8648  33.454  28.223   8.271
  410POPC   C3B 8649  33.545  27.922   7.951
  410POPC   C4B 8650  33.503  27.994   7.461
  411POPC   NC3 8651  40.613   4.517   9.513
  411POPC   PO4 8652  41.247   4.294   9.518
  411POPC   GL1 8653  40.988   4.243   9.141
  411POPC   GL2 8654  40.683   4.048   9.183
  411POPC   C1A 8655  40.896   4.227   8.676
  411POPC   D2A 8656  40.959   4.154   8.224
  411POPC   C3A 8657  40.791   4.520   7.963
  411POPC   C4A 8658  40.406   4.759   7.903
  411POPC   C1B 8659  40.555   3.872   8.777
  411POPC   C2B 8660  40.425   4.042   8.367
  411POPC   C3B 8661  40.535   4.077   7.931
  411POPC   C4B 8662  40.505   3.951   7.507
  412POPC   NC3 8663   1.818  27.880   9.488
  412POPC   PO4 8664   2.196  28.447   9.503
  412POPC   GL1 8665   2.000  28.456   9.119
  412POPC   GL2 8666   1.791  28.162   9.060
  412POPC   C1A 8667   2.130  28.557   8.714
  412POPC   D2A 8668   2.014  28.314   8.350
  412POPC   C3A 8669   2.016  28.602   8.049
  412POPC   C4A 8670   2.114  28.843   7.717
  412POPC   C1B 8671   2.128  28.049   8.782
  412POPC   C2B 8672   2.216  27.748   8.441
  412POPC   C3B 8673   2.173  27.901   8.033
  412POPC   C4B 8674   1.820  28.145   7.847
  413POPC   NC3 8675  39.126   6.284   9.557
  413POPC   PO4 8676  39.180   5.672   9.479
  413POPC   GL1 8677  39.245   5.802   9.098
  413POPC   GL2 8678  39.123   6.151   9.066
  413POPC   C1A 8679  39.021   5.768   8.737
  413POPC   D2A 8680  39.139   5.967   8.419
  413POPC   C3A 8681  39.314   5.685   8.172
  413POPC   C4A 8682  39.206   5.609   7.777
  413POPC   C1B 8683  39.476   6.164   8.775
  413POPC   C2B 8684  39.653   6.050   8.380
  413POPC   C3B 8685  39.483   6.120   7.973
  413POPC   C4B 8686  39.344   6.058   7.583
  414POPC   NC3 8687   4.327   0.614   9.487
  414POPC   PO4 8688   4.193   1.351   9.526
  414POPC   GL1 8689   4.264   1.185   9.168
  414POPC   GL2 8690   3.993   0.946   9.191
  414POPC   C1A 8691   4.390   1.341   8.766
  414POPC   D2A 8692   4.574   1.458   8.372
  414POPC   C3A 8693   4.517   1.277   7.984
  414POPC   C4A 8694   4.640   1.266   7.575
  414POPC   C1B 8695   3.884   1.259   8.833
  414POPC   C2B 8696   4.038   1.353   8.410
  414POPC   C3B 8697   4.014   1.177   8.006
  414POPC   C4B 8698   4.125   1.336   7.632
  415POPC   NC3 8699  44.178   4.680   9.454
  415POPC   PO4 8700  43.627   5.141   9.329
  415POPC   GL1 8701  43.918   4.985   9.105
  415POPC   GL2 8702  43.980   5.317   9.003
  415POPC   C1A 8703  43.851   4.896   8.678
  415POPC   D2A 8704  43.606   4.731   8.328
  415POPC   C3A 8705  43.644   4.936   7.892
  415POPC   C4A 8706  43.920   5.211   7.648
  415POPC   C1B 8707  43.739   5.388   8.713
  415POPC   C2B 8708  43.703   5.635   8.409
  415POPC   C3B 8709  43.702   5.456   8.023
  415POPC   C4B 8710  43.636   5.631   7.625
  416POPC   NC3 8711  24.306   3.447   9.568
  416POPC   PO4 8712  24.858   3.150   9.780
  416POPC   GL1 8713  24.744   3.521   9.361
  416POPC   GL2 8714  24.549   3.284   9.131
  416POPC   C1A 8715  24.659   3.708   8.889
  416POPC   D2A 8716  24.543   3.546   8.460
  416POPC   C3A 8717  24.610   3.697   8.010
  416POPC   C4A 8718  24.669   3.500   7.612
  416POPC   C1B 8719  24.311   3.160   8.782
  416POPC   C2B 8720  24.127   3.260   8.409
  416POPC   C3B 8721  24.384   3.248   8.052
  416POPC   C4B 8722  24.197   3.298   7.700
  417POPC   NC3 8723   9.725  33.979   9.606
  417POPC   PO4 8724  10.315  33.670   9.619
  417POPC   GL1 8725  10.040  33.724   9.223
  417POPC   GL2 8726   9.682  33.644   9.164
  417POPC   C1A 8727   9.969  33.736   8.758
  417POPC   D2A 8728   9.686  33.662   8.407
  417POPC   C3A 8729   9.979  33.729   8.105
  417POPC   C4A 8730  10.060  34.004   7.796
  417POPC   C1B 8731   9.495  33.936   8.831
  417POPC   C2B 8732   9.392  34.107   8.394
  417POPC   C3B 8733   9.560  34.001   7.988
  417POPC   C4B 8734   9.560  33.560   7.872
  418POPC   NC3 8735  41.220   6.063   9.464
  418POPC   PO4 8736  40.572   5.963   9.594
  418POPC   GL1 8737  40.691   6.028   9.190
  418POPC   GL2 8738  40.904   5.778   9.122
  418POPC   C1A 8739  40.510   5.941   8.777
  418POPC   D2A 8740  40.491   5.598   8.468
  418POPC   C3A 8741  40.696   5.716   8.101
  418POPC   C4A 8742  40.771   5.931   7.709
  418POPC   C1B 8743  40.936   5.663   8.706
  418POPC   C2B 8744  41.013   5.336   8.396
  418POPC   C3B 8745  41.106   5.424   7.956
  418POPC   C4B 8746  41.122   5.529   7.538
  419POPC   NC3 8747  26.045  14.237   9.586
  419POPC   PO4 8748  25.762  13.614   9.567
  419POPC   GL1 8749  26.073  13.674   9.214
  419POPC   GL2 8750  26.127  13.997   9.136
  419POPC   C1A 8751  25.991  13.547   8.789
  419POPC   D2A 8752  26.057  13.683   8.373
  419POPC   C3A 8753  26.293  13.415   8.099
  419POPC   C4A 8754  26.058  13.316   7.728
  419POPC   C1B 8755  26.187  14.137   8.728
  419POPC   C2B 8756  26.030  14.186   8.344
  419POPC   C3B 8757  25.925  14.015   7.937
  419POPC   C4B 8758  26.161  14.180   7.575
  420POPC   NC3 8759  32.627  31.673   9.816
  420POPC   PO4 8760  33.050  31.292   9.447
  420POPC   GL1 8761  33.149  31.588   9.140
  420POPC   GL2 8762  32.929  31.351   8.943
  420POPC   C1A 8763  33.219  31.717   8.746
  420POPC   D2A 8764  33.009  31.512   8.427
  420POPC   C3A 8765  33.156  31.562   8.024
  420POPC   C4A 8766  32.892  31.778   7.788
  420POPC   C1B 8767  33.285  31.176   8.728
  420POPC   C2B 8768  33.417  31.209   8.311
  420POPC   C3B 8769  33.376  31.073   7.873
  420POPC   C4B 8770  33.320  30.987   7.424
  421POPC   NC3 8771   4.456  27.534   9.578
  421POPC   PO4 8772   3.823  27.457   9.396
  421POPC   GL1 8773   4.202  27.406   9.119
  421POPC   GL2 8774   4.369  27.736   9.113
  421POPC   C1A 8775   4.145  27.540   8.675
  421POPC   D2A 8776   3.943  27.736   8.312
  421POPC   C3A 8777   4.213  27.777   8.003
  421POPC   C4A 8778   4.375  27.417   7.853
  421POPC   C1B 8779   4.617  27.721   8.751
  421POPC   C2B 8780   4.569  27.630   8.317
  421POPC   C3B 8781   4.732  27.800   7.919
  421POPC   C4B 8782   4.619  27.802   7.464
  422POPC   NC3 8783  10.243  12.251   9.472
  422POPC   PO4 8784   9.577  11.981   9.641
  422POPC   GL1 8785   9.735  11.978   9.223
  422POPC   GL2 8786   9.799  11.610   9.184
  422POPC   C1A 8787   9.744  12.298   8.856
  422POPC   D2A 8788   9.893  12.424   8.455
  422POPC   C3A 8789   9.740  12.204   8.056
  422POPC   C4A 8790   9.863  12.290   7.636
  422POPC   C1B 8791   9.846  11.798   8.770
  422POPC   C2B 8792   9.559  11.958   8.485
  422POPC   C3B 8793   9.535  11.697   8.146
  422POPC   C4B 8794   9.540  11.783   7.723
  423POPC   NC3 8795  11.391   4.951   9.597
  423POPC   PO4 8796  10.884   5.470   9.390
  423POPC   GL1 8797  11.165   5.244   9.091
  423POPC   GL2 8798  11.528   5.156   9.149
  423POPC   C1A 8799  11.360   5.256   8.688
  423POPC   D2A 8800  11.516   5.148   8.288
  423POPC   C3A 8801  11.144   4.996   8.050
  423POPC   C4A 8802  10.771   5.109   7.804
  423POPC   C1B 8803  11.710   4.895   8.828
  423POPC   C2B 8804  11.833   4.724   8.426
  423POPC   C3B 8805  11.654   4.717   8.003
  423POPC   C4B 8806  11.538   5.083   7.754
  424POPC   NC3 8807   6.955   0.232   9.557
  424POPC   PO4 8808   7.598   0.505   9.518
  424POPC   GL1 8809   7.278   0.441   9.171
  424POPC   GL2 8810   7.162   0.104   9.070
  424POPC   C1A 8811   7.124   0.639   8.798
  424POPC   D2A 8812   7.055   0.610   8.355
  424POPC   C3A 8813   7.326   0.349   8.132
  424POPC   C4A 8814   7.397   0.369   7.727
  424POPC   C1B 8815   7.358   0.174   8.633
  424POPC   C2B 8816   7.747   0.163   8.339
  424POPC   C3B 8817   7.830   0.504   8.012
  424POPC   C4B 8818   7.860   0.467   7.557
  425POPC   NC3 8819  29.671  24.162   9.472
  425POPC   PO4 8820  30.291  24.485   9.524
  425POPC   GL1 8821  30.037  24.386   9.181
  425POPC   GL2 8822  30.032  24.746   9.130
  425POPC   C1A 8823  29.772  24.261   8.804
  425POPC   D2A 8824  29.643  24.371   8.380
  425POPC   C3A 8825  29.959  24.422   8.041
  425POPC   C4A 8826  29.836  24.326   7.636
  425POPC   C1B 8827  30.147  24.583   8.716
  425POPC   C2B 8828  29.959  24.791   8.400
  425POPC   C3B 8829  30.036  24.967   8.055
  425POPC   C4B 8830  30.072  24.779   7.666
  426POPC   NC3 8831  31.018  13.512   9.493
  426POPC   PO4 8832  30.516  14.033   9.468
  426POPC   GL1 8833  30.744  13.780   9.150
  426POPC   GL2 8834  31.093  13.846   9.109
  426POPC   C1A 8835  30.648  13.596   8.767
  426POPC   D2A 8836  30.554  13.770   8.365
  426POPC   C3A 8837  30.701  13.563   7.996
  426POPC   C4A 8838  30.407  13.606   7.661
  426POPC   C1B 8839  31.091  13.856   8.664
  426POPC   C2B 8840  30.994  14.012   8.259
  426POPC   C3B 8841  30.925  14.003   7.810
  426POPC   C4B 8842  31.141  13.948   7.432
  427POPC   NC3 8843  15.728  17.174   9.441
  427POPC   PO4 8844  15.773  17.866   9.507
  427POPC   GL1 8845  15.993  17.583   9.218
  427POPC   GL2 8846  16.144  17.825   9.009
  427POPC   C1A 8847  15.976  17.367   8.796
  427POPC   D2A 8848  16.076  17.634   8.449
  427POPC   C3A 8849  16.125  17.405   8.103
  427POPC   C4A 8850  16.001  17.340   7.679
  427POPC   C1B 8851  15.716  17.797   8.789
  427POPC   C2B 8852  15.558  17.788   8.375
  427POPC   C3B 8853  15.717  17.684   7.966
  427POPC   C4B 8854  15.734  17.746   7.509
  428POPC   NC3 8855  44.794  24.232   9.426
  428POPC   PO4 8856  44.468  24.750   9.524
  428POPC   GL1 8857  44.434  24.493   9.132
  428POPC   GL2 8858  44.341  24.132   9.158
  428POPC   C1A 8859  44.308  24.632   8.727
  428POPC   D2A 8860  44.597  24.843   8.471
  428POPC   C3A 8861  44.574  24.686   8.050
  428POPC   C4A 8862  44.546  24.889   7.665
  428POPC   C1B 8863  44.497  24.134   8.730
  428POPC   C2B 8864  44.749  24.354   8.448
  428POPC   C3B 8865  44.807  24.243   8.054
  428POPC   C4B 8866  44.597  24.163   7.736
  429POPC   NC3 8867  28.285   2.984   9.735
  429POPC   PO4 8868  28.026   2.479   9.555
  429POPC   GL1 8869  28.343   2.700   9.282
  429POPC   GL2 8870  28.089   2.805   9.059
  429POPC   C1A 8871  28.563   2.863   8.886
  429POPC   D2A 8872  28.519   2.803   8.435
  429POPC   C3A 8873  28.673   2.885   8.036
  429POPC   C4A 8874  28.453   2.526   7.874
  429POPC   C1B 8875  28.043   2.666   8.618
  429POPC   C2B 8876  28.077   2.745   8.181
  429POPC   C3B 8877  27.797   2.953   7.914
  429POPC   C4B 8878  27.724   3.065   7.472
  430POPC   NC3 8879  38.750  21.482   9.475
  430POPC   PO4 8880  38.203  21.109   9.423
  430POPC   GL1 8881  38.483  21.232   9.107
  430POPC   GL2 8882  38.590  21.606   9.007
  430POPC   C1A 8883  38.728  21.161   8.773
  430POPC   D2A 8884  38.859  21.467   8.564
  430POPC   C3A 8885  38.794  21.456   8.122
  430POPC   C4A 8886  38.481  21.291   7.806
  430POPC   C1B 8887  38.244  21.509   8.743
  430POPC   C2B 8888  37.972  21.415   8.401
  430POPC   C3B 8889  38.014  21.448   7.969
  430POPC   C4B 8890  38.120  21.603   7.573
  431POPC   NC3 8891   3.795  40.171   9.483
  431POPC   PO4 8892   3.592  39.560   9.595
  431POPC   GL1 8893   3.368  39.830   9.261
  431POPC   GL2 8894   3.531  40.141   9.053
  431POPC   C1A 8895   3.372  39.735   8.810
  431POPC   D2A 8896   3.672  39.957   8.520
  431POPC   C3A 8897   3.540  40.006   8.083
  431POPC   C4A 8898   3.467  40.047   7.640
  431POPC   C1B 8899   3.780  40.426   8.771
  431POPC   C2B 8900   3.901  40.400   8.322
  431POPC   C3B 8901   3.670  40.488   7.915
  431POPC   C4B 8902   3.742  40.385   7.407
  432POPC   NC3 8903  28.501  28.836   9.507
  432POPC   PO4 8904  28.181  28.312   9.400
  432POPC   GL1 8905  28.523  28.439   9.160
  432POPC   GL2 8906  28.497  28.157   8.964
  432POPC   C1A 8907  28.643  28.725   8.821
  432POPC   D2A 8908  28.421  28.779   8.431
  432POPC   C3A 8909  28.391  28.686   8.007
  432POPC   C4A 8910  28.357  28.291   7.841
  432POPC   C1B 8911  28.731  28.263   8.599
  432POPC   C2B 8912  28.834  28.514   8.219
  432POPC   C3B 8913  28.824  28.483   7.755
  432POPC   C4B 8914  28.765  28.337   7.317
  433POPC   NC3 8915  10.741  14.666   9.403
  433POPC   PO4 8916  10.457  15.271   9.564
  433POPC   GL1 8917  10.411  15.058   9.176
  433POPC   GL2 8918  10.123  14.892   9.263
  433POPC   C1A 8919  10.392  15.218   8.751
  433POPC   D2A 8920  10.593  15.158   8.312
  433POPC   C3A 8921  10.430  15.281   7.877
  433POPC   C4A 8922  10.468  15.638   7.533
  433POPC   C1B 8923  10.036  14.783   8.828
  433POPC   C2B 8924  10.122  14.937   8.417
  433POPC   C3B 8925  10.347  14.788   8.063
  433POPC   C4B 8926  10.237  14.877   7.648
  434POPC   NC3 8927  21.645  27.732   9.553
  434POPC   PO4 8928  21.193  27.363   9.235
  434POPC   GL1 8929  21.357  27.761   9.077
  434POPC   GL2 8930  21.719  27.903   9.062
  434POPC   C1A 8931  21.432  27.692   8.631
  434POPC   D2A 8932  21.163  27.731   8.278
  434POPC   C3A 8933  21.009  27.445   7.973
  434POPC   C4A 8934  21.196  27.347   7.601
  434POPC   C1B 8935  21.874  27.973   8.609
  434POPC   C2B 8936  21.690  27.835   8.183
  434POPC   C3B 8937  21.588  27.664   7.751
  434POPC   C4B 8938  21.822  27.797   7.346
  435POPC   NC3 8939  42.899  31.381   9.296
  435POPC   PO4 8940  43.425  31.697   9.389
  435POPC   GL1 8941  43.310  31.527   9.023
  435POPC   GL2 8942  43.393  31.241   9.049
  435POPC   C1A 8943  43.164  31.439   8.590
  435POPC   D2A 8944  42.948  31.619   8.217
  435POPC   C3A 8945  42.851  31.332   7.862
  435POPC   C4A 8946  42.768  31.457   7.420
  435POPC   C1B 8947  43.620  31.142   8.705
  435POPC   C2B 8948  43.652  31.434   8.372
  435POPC   C3B 8949  43.390  31.473   7.981
  435POPC   C4B 8950  43.075  31.738   7.735
  436POPC   NC3 8951   2.564  32.147   9.656
  436POPC   PO4 8952   3.110  32.474   9.847
  436POPC   GL1 8953   2.991  32.224   9.399
  436POPC   GL2 8954   2.649  32.365   9.206
  436POPC   C1A 8955   2.979  32.064   8.964
  436POPC   D2A 8956   3.088  32.257   8.574
  436POPC   C3A 8957   2.958  32.130   8.155
  436POPC   C4A 8958   2.809  32.395   7.833
  436POPC   C1B 8959   2.482  32.071   8.893
  436POPC   C2B 8960   2.550  32.143   8.462
  436POPC   C3B 8961   2.497  32.014   8.007
  436POPC   C4B 8962   2.601  32.034   7.565
  437POPC   NC3 8963   5.150   2.255   9.594
  437POPC   PO4 8964   4.597   1.816   9.705
  437POPC   GL1 8965   4.954   1.808   9.286
  437POPC   GL2 8966   5.143   2.118   9.138
  437POPC   C1A 8967   5.144   1.781   8.806
  437POPC   D2A 8968   4.939   1.867   8.418
  437POPC   C3A 8969   4.914   1.769   8.007
  437POPC   C4A 8970   5.230   1.922   7.721
  437POPC   C1B 8971   4.944   2.263   8.794
  437POPC   C2B 8972   5.189   2.314   8.426
  437POPC   C3B 8973   5.086   2.310   8.017
  437POPC   C4B 8974   5.435   2.411   7.777
  438POPC   NC3 8975  37.816   4.413   9.593
  438POPC   PO4 8976  37.194   4.354   9.550
  438POPC   GL1 8977  37.394   4.242   9.140
  438POPC   GL2 8978  37.753   4.218   9.111
  438POPC   C1A 8979  37.478   4.251   8.664
  438POPC   D2A 8980  37.363   4.465   8.278
  438POPC   C3A 8981  37.583   4.353   7.882
  438POPC   C4A 8982  37.439   4.096   7.504
  438POPC   C1B 8983  37.986   4.240   8.728
  438POPC   C2B 8984  37.878   4.200   8.285
  438POPC   C3B 8985  38.086   4.281   7.875
  438POPC   C4B 8986  37.858   4.382   7.436
  439POPC   NC3 8987  31.317  37.873   9.573
  439POPC   PO4 8988  31.607  37.315   9.366
  439POPC   GL1 8989  31.359  37.602   9.101
  439POPC   GL2 8990  31.415  37.983   9.100
  439POPC   C1A 8991  31.371  37.476   8.677
  439POPC   D2A 8992  31.656  37.412   8.367
  439POPC   C3A 8993  31.771  37.636   8.040
  439POPC   C4A 8994  31.672  37.539   7.664
  439POPC   C1B 8995  31.209  37.980   8.729
  439POPC   C2B 8996  31.334  37.852   8.327
  439POPC   C3B 8997  31.267  37.766   7.922
  439POPC   C4B 8998  31.454  37.981   7.624
  440POPC   NC3 8999  12.542  26.633   9.512
  440POPC   PO4 9000  13.187  26.754   9.527
  440POPC   GL1 9001  12.948  26.917   9.192
  440POPC   GL2 9002  12.866  26.601   9.132
  440POPC   C1A 9003  13.026  27.084   8.773
  440POPC   D2A 9004  12.851  27.284   8.439
  440POPC   C3A 9005  12.984  27.105   8.069
  440POPC   C4A 9006  12.696  27.070   7.722
  440POPC   C1B 9007  12.736  26.681   8.777
  440POPC   C2B 9008  12.844  26.735   8.385
  440POPC   C3B 9009  12.710  26.622   7.965
  440POPC   C4B 9010  12.592  26.613   7.503
  441POPC   NC3 9011   7.397   9.706   9.561
  441POPC   PO4 9012   7.085  10.200   9.306
  441POPC   GL1 9013   7.394   9.936   9.095
  441POPC   GL2 9014   7.434   9.541   9.095
  441POPC   C1A 9015   7.518   9.822   8.671
  441POPC   D2A 9016   7.552   9.906   8.248
  441POPC   C3A 9017   7.308   9.922   7.900
  441POPC   C4A 9018   7.609   9.975   7.567
  441POPC   C1B 9019   7.355   9.336   8.745
  441POPC   C2B 9020   7.516   9.407   8.343
  441POPC   C3B 9021   7.294   9.439   7.983
  441POPC   C4B 9022   7.367   9.246   7.615
  442POPC   NC3 9023  26.037  38.733   9.475
  442POPC   PO4 9024  25.942  38.039   9.474
  442POPC   GL1 9025  25.935  38.336   9.121
  442POPC   GL2 9026  25.701  38.643   9.097
  442POPC   C1A 9027  26.063  38.341   8.680
  442POPC   D2A 9028  26.224  38.130   8.298
  442POPC   C3A 9029  26.037  38.326   7.954
  442POPC   C4A 9030  26.288  38.698   7.887
  442POPC   C1B 9031  25.903  38.842   8.746
  442POPC   C2B 9032  25.989  38.709   8.325
  442POPC   C3B 9033  25.743  38.758   7.992
  442POPC   C4B 9034  25.902  38.856   7.617
  443POPC   NC3 9035  27.635   2.196   9.489
  443POPC   PO4 9036  27.894   1.586   9.295
  443POPC   GL1 9037  27.727   1.907   9.045
  443POPC   GL2 9038  27.407   1.880   8.990
  443POPC   C1A 9039  27.871   2.164   8.676
  443POPC   D2A 9040  27.678   2.420   8.319
  443POPC   C3A 9041  27.574   2.168   7.957
  443POPC   C4A 9042  27.897   1.922   7.755
  443POPC   C1B 9043  27.419   1.929   8.543
  443POPC   C2B 9044  27.393   1.638   8.203
  443POPC   C3B 9045  27.413   1.707   7.749
  443POPC   C4B 9046  27.383   1.936   7.371
  444POPC   NC3 9047  34.765  21.781   9.541
  444POPC   PO4 9048  34.487  22.458   9.555
  444POPC   GL1 9049  34.543  22.170   9.254
  444POPC   GL2 9050  34.237  22.066   9.143
  444POPC   C1A 9051  34.634  22.393   8.895
  444POPC   D2A 9052  34.566  22.564   8.508
  444POPC   C3A 9053  34.664  22.397   8.115
  444POPC   C4A 9054  34.588  22.040   7.863
  444POPC   C1B 9055  34.419  21.941   8.762
  444POPC   C2B 9056  34.643  21.948   8.374
  444POPC   C3B 9057  34.758  21.626   8.082
  444POPC   C4B 9058  34.917  21.516   7.714
  445POPC   NC3 9059   1.578  31.990   9.585
  445POPC   PO4 9060   2.178  32.368   9.501
  445POPC   GL1 9061   2.083  32.342   9.092
  445POPC   GL2 9062   1.747  32.228   9.157
  445POPC   C1A 9063   2.197  32.468   8.669
  445POPC   D2A 9064   2.274  32.488   8.227
  445POPC   C3A 9065   2.036  32.220   7.998
  445POPC   C4A 9066   2.217  32.339   7.625
  445POPC   C1B 9067   1.706  32.344   8.743
  445POPC   C2B 9068   1.759  32.494   8.328
  445POPC   C3B 9069   1.547  32.471   7.936
  445POPC   C4B 9070   1.733  32.226   7.605
  446POPC   NC3 9071   7.264  23.585   9.633
  446POPC   PO4 9072   7.723  23.946   9.360
  446POPC   GL1 9073   7.353  23.797   9.178
  446POPC   GL2 9074   7.278  23.461   9.149
  446POPC   C1A 9075   7.278  23.957   8.810
  446POPC   D2A 9076   7.316  23.759   8.451
  446POPC   C3A 9077   7.366  23.926   8.078
  446POPC   C4A 9078   7.260  23.775   7.681
  446POPC   C1B 9079   7.409  23.387   8.791
  446POPC   C2B 9080   7.659  23.310   8.486
  446POPC   C3B 9081   7.518  23.431   8.106
  446POPC   C4B 9082   7.499  23.328   7.692
  447POPC   NC3 9083  12.438   7.516   9.475
  447POPC   PO4 9084  11.814   7.274   9.476
  447POPC   GL1 9085  11.838   7.465   9.122
  447POPC   GL2 9086  12.157   7.647   9.088
  447POPC   C1A 9087  11.946   7.311   8.755
  447POPC   D2A 9088  12.202   7.517   8.499
  447POPC   C3A 9089  12.080   7.326   8.135
  447POPC   C4A 9090  12.324   7.099   7.903
  447POPC   C1B 9091  11.943   7.864   8.801
  447POPC   C2B 9092  12.129   8.025   8.440
  447POPC   C3B 9093  12.149   7.814   8.050
  447POPC   C4B 9094  11.803   7.710   7.813
  448POPC   NC3 9095  35.949  12.571   9.520
  448POPC   PO4 9096  36.469  12.898   9.781
  448POPC   GL1 9097  36.268  12.984   9.317
  448POPC   GL2 9098  36.033  12.824   9.086
  448POPC   C1A 9099  36.403  13.078   8.856
  448POPC   D2A 9100  36.250  12.853   8.458
  448POPC   C3A 9101  36.390  13.078   8.051
  448POPC   C4A 9102  36.348  12.931   7.615
  448POPC   C1B 9103  35.872  13.111   8.772
  448POPC   C2B 9104  35.775  13.024   8.338
  448POPC   C3B 9105  35.967  12.772   8.004
  448POPC   C4B 9106  35.866  13.058   7.705
  449POPC   NC3 9107   9.657  16.105   9.865
  449POPC   PO4 9108  10.133  15.801   9.710
  449POPC   GL1 9109   9.885  15.836   9.275
  449POPC   GL2 9110   9.540  15.960   9.237
  449POPC   C1A 9111   9.879  16.083   8.845
  449POPC   D2A 9112   9.861  15.915   8.404
  449POPC   C3A 9113   9.841  16.159   7.997
  449POPC   C4A 9114   9.932  16.006   7.570
  449POPC   C1B 9115   9.564  15.693   8.823
  449POPC   C2B 9116   9.357  15.616   8.418
  449POPC   C3B 9117   9.575  15.703   7.973
  449POPC   C4B 9118   9.556  15.671   7.495
  450POPC   NC3 9119  29.081  39.737   9.419
  450POPC   PO4 9120  29.060  40.424   9.445
  450POPC   GL1 9121  29.237  40.151   9.129
  450POPC   GL2 9122  28.966  40.049   9.025
  450POPC   C1A 9123  29.339  39.867   8.755
  450POPC   D2A 9124  29.342  39.759   8.286
  450POPC   C3A 9125  29.364  40.097   7.990
  450POPC   C4A 9126  29.490  40.056   7.583
  450POPC   C1B 9127  28.726  39.841   8.723
  450POPC   C2B 9128  28.653  39.900   8.276
  450POPC   C3B 9129  28.933  39.808   7.913
  450POPC   C4B 9130  29.034  39.942   7.463
  451POPC   NC3 9131  43.297  22.952   9.644
  451POPC   PO4 9132  42.639  23.012   9.745
  451POPC   GL1 9133  42.930  22.987   9.277
  451POPC   GL2 9134  43.216  22.795   9.158
  451POPC   C1A 9135  43.000  23.024   8.784
  451POPC   D2A 9136  43.272  23.148   8.441
  451POPC   C3A 9137  43.220  22.932   8.077
  451POPC   C4A 9138  43.079  22.918   7.695
  451POPC   C1B 9139  43.067  22.513   8.803
  451POPC   C2B 9140  43.071  22.525   8.371
  451POPC   C3B 9141  43.317  22.420   8.026
  451POPC   C4B 9142  43.360  22.514   7.591
  452POPC   NC3 9143  33.544  13.497   9.445
  452POPC   PO4 9144  34.090  13.868   9.349
  452POPC   GL1 9145  33.930  13.514   9.075
  452POPC   GL2 9146  33.570  13.503   8.944
  452POPC   C1A 9147  33.995  13.470   8.636
  452POPC   D2A 9148  34.279  13.384   8.320
  452POPC   C3A 9149  34.081  13.501   7.967
  452POPC   C4A 9150  34.004  13.477   7.563
  452POPC   C1B 9151  33.714  13.891   8.717
  452POPC   C2B 9152  33.826  13.933   8.256
  452POPC   C3B 9153  33.717  13.830   7.843
  452POPC   C4B 9154  33.537  13.432   7.742
  453POPC   NC3 9155  36.195  24.765   9.393
  453POPC   PO4 9156  36.151  24.101   9.413
  453POPC   GL1 9157  35.838  24.263   9.118
  453POPC   GL2 9158  35.756  24.630   9.149
  453POPC   C1A 9159  35.848  24.195   8.666
  453POPC   D2A 9160  36.080  24.388   8.333
  453POPC   C3A 9161  36.198  24.172   7.963
  453POPC   C4A 9162  36.203  24.289   7.526
  453POPC   C1B 9163  35.887  24.734   8.734
  453POPC   C2B 9164  35.911  24.861   8.284
  453POPC   C3B 9165  36.063  24.681   7.871
  453POPC   C4B 9166  35.803  24.648   7.502
  454POPC   NC3 9167  42.060  18.287   9.450
  454POPC   PO4 9168  42.350  17.734   9.416
  454POPC   GL1 9169  42.314  18.044   9.089
  454POPC   GL2 9170  41.944  18.147   8.984
  454POPC   C1A 9171  42.552  18.296   8.809
  454POPC   D2A 9172  42.475  18.292   8.377
  454POPC   C3A 9173  42.672  18.425   8.001
  454POPC   C4A 9174  42.542  18.441   7.551
  454POPC   C1B 9175  42.074  18.456   8.729
  454POPC   C2B 9176  42.055  18.601   8.321
  454POPC   C3B 9177  42.160  18.372   7.974
  454POPC   C4B 9178  41.988  18.407   7.608
  455POPC   NC3 9179   9.166  28.686   9.375
  455POPC   PO4 9180   9.129  28.006   9.289
  455POPC   GL1 9181   8.922  28.251   9.006
  455POPC   GL2 9182   9.236  28.451   8.925
  455POPC   C1A 9183   8.655  28.120   8.635
  455POPC   D2A 9184   8.738  28.083   8.199
  455POPC   C3A 9185   8.930  28.431   8.102
  455POPC   C4A 9186   8.733  28.699   7.842
  455POPC   C1B 9187   9.172  28.162   8.581
  455POPC   C2B 9188   9.196  27.862   8.292
  455POPC   C3B 9189   9.138  27.952   7.877
  455POPC   C4B 9190   9.214  28.333   7.685
  456POPC   NC3 9191   1.074  28.582   9.491
  456POPC   PO4 9192   1.374  28.008   9.493
  456POPC   GL1 9193   1.294  28.280   9.126
  456POPC   GL2 9194   1.476  28.596   9.149
  456POPC   C1A 9195   1.175  28.343   8.690
  456POPC   D2A 9196   1.502  28.200   8.384
  456POPC   C3A 9197   1.320  28.095   8.029
  456POPC   C4A 9198   1.190  28.244   7.671
  456POPC   C1B 9199   1.624  28.556   8.750
  456POPC   C2B 9200   1.464  28.715   8.358
  456POPC   C3B 9201   1.518  28.558   7.934
  456POPC   C4B 9202   1.579  28.506   7.462
  457POPC   NC3 9203  21.240   8.400   9.534
  457POPC   PO4 9204  21.817   8.462   9.844
  457POPC   GL1 9205  21.767   8.315   9.360
  457POPC   GL2 9206  21.525   8.058   9.264
  457POPC   C1A 9207  21.786   8.187   8.868
  457POPC   D2A 9208  21.605   8.312   8.473
  457POPC   C3A 9209  21.491   8.054   8.121
  457POPC   C4A 9210  21.539   8.262   7.766
  457POPC   C1B 9211  21.263   8.202   8.870
  457POPC   C2B 9212  21.097   8.104   8.426
  457POPC   C3B 9213  21.019   8.225   7.951
  457POPC   C4B 9214  21.116   8.393   7.530
  458POPC   NC3 9215  12.040  43.998   9.679
  458POPC   PO4 9216  11.739  43.480   9.401
  458POPC   GL1 9217  11.770  43.823   9.144
  458POPC   GL2 9218  12.087  44.013   9.152
  458POPC   C1A 9219  11.891  43.823   8.725
  458POPC   D2A 9220  11.738  43.941   8.382
  458POPC   C3A 9221  11.904  43.789   8.049
  458POPC   C4A 9222  11.896  44.076   7.716
  458POPC   C1B 9223  12.389  43.869   8.806
  458POPC   C2B 9224  12.518  43.974   8.377
  458POPC   C3B 9225  12.350  43.988   7.925
  458POPC   C4B 9226  12.170  43.659   7.618
  459POPC   NC3 9227  16.003  12.563   9.465
  459POPC   PO4 9228  16.019  13.292   9.419
  459POPC   GL1 9229  15.820  13.066   9.079
  459POPC   GL2 9230  15.772  12.684   9.011
  459POPC   C1A 9231  15.890  13.072   8.643
  459POPC   D2A 9232  16.186  13.124   8.325
  459POPC   C3A 9233  16.013  13.025   7.937
  459POPC   C4A 9234  16.199  13.004   7.555
  459POPC   C1B 9235  16.043  12.574   8.676
  459POPC   C2B 9236  16.044  12.611   8.253
  459POPC   C3B 9237  16.047  12.378   7.917
  459POPC   C4B 9238  15.850  12.649   7.627
  460POPC   NC3 9239  10.073  24.725   9.291
  460POPC   PO4 9240  10.747  24.782   9.514
  460POPC   GL1 9241  10.533  24.582   9.132
  460POPC   GL2 9242  10.250  24.336   9.044
  460POPC   C1A 9243  10.384  24.698   8.703
  460POPC   D2A 9244  10.768  24.657   8.512
  460POPC   C3A 9245  10.786  24.664   8.080
  460POPC   C4A 9246  10.671  24.370   7.781
  460POPC   C1B 9247  10.489  24.210   8.714
  460POPC   C2B 9248  10.455  24.313   8.281
  460POPC   C3B 9249  10.189  24.290   7.912
  460POPC   C4B 9250  10.245  24.181   7.450
  461POPC   NC3 9251  29.575   1.812   9.609
  461POPC   PO4 9252  28.927   2.063   9.430
  461POPC   GL1 9253  29.042   1.942   9.076
  461POPC   GL2 9254  29.348   1.856   9.157
  461POPC   C1A 9255  29.173   2.160   8.757
  461POPC   D2A 9256  28.992   2.032   8.433
  461POPC   C3A 9257  29.132   2.009   8.024
  461POPC   C4A 9258  28.903   1.928   7.639
  461POPC   C1B 9259  29.409   1.725   8.738
  461POPC   C2B 9260  29.519   1.955   8.362
  461POPC   C3B 9261  29.614   1.835   7.950
  461POPC   C4B 9262  29.302   1.625   7.732
  462POPC   NC3 9263  27.449   1.442   9.299
  462POPC   PO4 9264  27.885   0.970   9.573
  462POPC   GL1 9265  27.701   1.010   9.151
  462POPC   GL2 9266  27.950   1.207   8.960
  462POPC   C1A 9267  27.542   1.105   8.710
  462POPC   D2A 9268  27.742   1.166   8.345
  462POPC   C3A 9269  27.420   1.120   8.062
  462POPC   C4A 9270  27.429   1.212   7.661
  462POPC   C1B 9271  27.765   1.570   8.668
  462POPC   C2B 9272  27.880   1.766   8.284
  462POPC   C3B 9273  27.811   1.475   7.947
  462POPC   C4B 9274  27.831   1.479   7.505
  463POPC   NC3 9275  21.987  35.837   9.556
  463POPC   PO4 9276  22.233  36.473   9.531
  463POPC   GL1 9277  22.065  36.239   9.219
  463POPC   GL2 9278  22.395  36.062   9.119
  463POPC   C1A 9279  21.987  36.031   8.836
  463POPC   D2A 9280  22.328  36.011   8.549
  463POPC   C3A 9281  22.312  36.247   8.188
  463POPC   C4A 9282  22.136  36.135   7.784
  463POPC   C1B 9283  22.681  35.794   8.856
  463POPC   C2B 9284  22.606  35.608   8.424
  463POPC   C3B 9285  22.408  35.755   8.046
  463POPC   C4B 9286  22.466  35.753   7.593
  464POPC   NC3 9287   7.051  28.769   9.273
  464POPC   PO4 9288   6.416  28.757   9.503
  464POPC   GL1 9289   6.581  28.601   9.133
  464POPC   GL2 9290   6.471  28.313   9.012
  464POPC   C1A 9291   6.651  28.776   8.737
  464POPC   D2A 9292   6.942  28.703   8.426
  464POPC   C3A 9293   6.674  28.656   8.093
  464POPC   C4A 9294   6.785  28.693   7.666
  464POPC   C1B 9295   6.861  28.295   8.775
  464POPC   C2B 9296   6.927  28.182   8.336
  464POPC   C3B 9297   6.797  28.212   7.903
  464POPC   C4B 9298   6.703  28.237   7.445
  465POPC   NC3 9299  41.105  22.158   9.591
  465POPC   PO4 9300  40.450  21.965   9.495
  465POPC   GL1 9301  40.754  22.104   9.156
  465POPC   GL2 9302  41.100  21.942   9.138
  465POPC   C1A 9303  40.658  21.941   8.731
  465POPC   D2A 9304  40.447  22.111   8.343
  465POPC   C3A 9305  40.537  21.972   7.923
  465POPC   C4A 9306  40.636  22.209   7.533
  465POPC   C1B 9307  41.128  22.169   8.759
  465POPC   C2B 9308  41.010  21.998   8.352
  465POPC   C3B 9309  41.008  22.113   7.929
  465POPC   C4B 9310  41.058  21.942   7.534
  466POPC   NC3 9311  30.682   3.229   9.594
  466POPC   PO4 9312  30.725   2.578   9.496
  466POPC   GL1 9313  30.626   2.893   9.204
  466POPC   GL2 9314  30.956   3.051   9.162
  466POPC   C1A 9315  30.371   2.907   8.827
  466POPC   D2A 9316  30.258   2.618   8.472
  466POPC   C3A 9317  30.375   2.692   8.035
  466POPC   C4A 9318  30.769   2.528   7.852
  466POPC   C1B 9319  30.844   3.149   8.743
  466POPC   C2B 9320  30.593   3.027   8.384
  466POPC   C3B 9321  30.765   3.023   8.006
  466POPC   C4B 9322  30.788   3.279   7.707
  467POPC   NC3 9323  20.866  18.229   9.506
  467POPC   PO4 9324  20.370  18.578   9.745
  467POPC   GL1 9325  20.456  18.340   9.255
  467POPC   GL2 9326  20.439  17.997   9.047
  467POPC   C1A 9327  20.478  18.403   8.775
  467POPC   D2A 9328  20.472  18.060   8.493
  467POPC   C3A 9329  20.525  18.211   8.106
  467POPC   C4A 9330  20.510  18.446   7.746
  467POPC   C1B 9331  20.884  18.088   8.780
  467POPC   C2B 9332  20.973  18.037   8.315
  467POPC   C3B 9333  20.934  18.083   7.830
  467POPC   C4B 9334  21.064  17.984   7.409
  468POPC   NC3 9335  11.697  31.362   9.772
  468POPC   PO4 9336  10.987  31.179   9.645
  468POPC   GL1 9337  11.383  31.305   9.350
  468POPC   GL2 9338  11.156  31.453   9.176
  468POPC   C1A 9339  11.541  31.457   8.872
  468POPC   D2A 9340  11.536  31.646   8.469
  468POPC   C3A 9341  11.515  31.463   8.088
  468POPC   C4A 9342  11.319  31.638   7.735
  468POPC   C1B 9343  10.974  31.301   8.818
  468POPC   C2B 9344  11.063  31.446   8.422
  468POPC   C3B 9345  10.975  31.389   8.013
  468POPC   C4B 9346  10.923  31.318   7.571
  469POPC   NC3 9347  13.100  43.600   9.563
  469POPC   PO4 9348  12.459  43.856   9.509
  469POPC   GL1 9349  12.744  43.766   9.167
  469POPC   GL2 9350  13.053  43.943   9.098
  469POPC   C1A 9351  12.820  43.599   8.755
  469POPC   D2A 9352  12.797  43.523   8.327
  469POPC   C3A 9353  12.821  43.842   7.990
  469POPC   C4A 9354  12.642  43.805   7.556
  469POPC   C1B 9355  12.976  44.054   8.634
  469POPC   C2B 9356  13.227  43.834   8.312
  469POPC   C3B 9357  13.290  43.674   7.888
  469POPC   C4B 9358  13.120  44.014   7.608
  470POPC   NC3 9359  32.967  23.263   9.341
  470POPC   PO4 9360  33.091  23.727   9.865
  470POPC   GL1 9361  32.905  23.831   9.372
  470POPC   GL2 9362  32.685  23.621   9.096
  470POPC   C1A 9363  32.982  23.954   8.901
  470POPC   D2A 9364  32.783  23.837   8.491
  470POPC   C3A 9365  32.885  23.632   8.103
  470POPC   C4A 9366  32.973  23.919   7.795
  470POPC   C1B 9367  33.036  23.483   8.740
  470POPC   C2B 9368  33.218  23.297   8.360
  470POPC   C3B 9369  33.354  23.284   7.942
  470POPC   C4B 9370  33.080  23.419   7.654
  471POPC   NC3 9371  16.346  14.679   9.639
  471POPC   PO4 9372  16.901  14.281   9.613
  471POPC   GL1 9373  16.677  14.380   9.245
  471POPC   GL2 9374  16.995  14.404   9.047
  471POPC   C1A 9375  16.519  14.350   8.820
  471POPC   D2A 9376  16.810  14.375   8.445
  471POPC   C3A 9377  16.605  14.290   8.040
  471POPC   C4A 9378  16.468  14.494   7.661
  471POPC   C1B 9379  17.216  14.630   8.672
  471POPC   C2B 9380  17.187  14.677   8.187
  471POPC   C3B 9381  17.050  14.436   7.826
  471POPC   C4B 9382  16.914  14.596   7.423
  472POPC   NC3 9383  12.368  40.723   9.462
  472POPC   PO4 9384  11.738  40.500   9.456
  472POPC   GL1 9385  12.015  40.565   9.115
  472POPC   GL2 9386  11.955  40.934   9.219
  472POPC   C1A 9387  12.271  40.466   8.697
  472POPC   D2A 9388  12.479  40.743   8.387
  472POPC   C3A 9389  12.484  40.629   7.937
  472POPC   C4A 9390  12.148  40.460   7.647
  472POPC   C1B 9391  12.132  40.951   8.816
  472POPC   C2B 9392  12.028  41.035   8.401
  472POPC   C3B 9393  11.998  40.746   8.077
  472POPC   C4B 9394  12.149  40.958   7.744
  473POPC   NC3 9395  29.991  34.557   9.568
  473POPC   PO4 9396  30.261  35.119   9.388
  473POPC   GL1 9397  30.014  34.845   9.100
  473POPC   GL2 9398  29.784  34.531   9.117
  473POPC   C1A 9399  29.686  34.900   8.785
  473POPC   D2A 9400  29.601  34.743   8.388
  473POPC   C3A 9401  29.947  34.880   8.171
  473POPC   C4A 9402  30.037  34.799   7.778
  473POPC   C1B 9403  29.969  34.485   8.682
  473POPC   C2B 9404  30.008  34.291   8.238
  473POPC   C3B 9405  30.067  34.301   7.795
  473POPC   C4B 9406  29.757  34.379   7.484
  474POPC   NC3 9407   8.347  19.316   9.478
  474POPC   PO4 9408   7.952  18.806   9.511
  474POPC   GL1 9409   7.942  18.958   9.112
  474POPC   GL2 9410   8.313  18.943   9.073
  474POPC   C1A 9411   7.984  18.856   8.679
  474POPC   D2A 9412   8.235  19.012   8.345
  474POPC   C3A 9413   8.309  18.762   8.000
  474POPC   C4A 9414   7.927  18.806   7.792
  474POPC   C1B 9415   8.252  19.314   8.787
  474POPC   C2B 9416   8.464  19.452   8.398
  474POPC   C3B 9417   8.555  19.240   8.004
  474POPC   C4B 9418   8.323  19.119   7.627
  475POPC   NC3 9419   9.771   0.205   9.824
  475POPC   PO4 9420  10.032   0.736   9.481
  475POPC   GL1 9421  10.027   0.594   9.078
  475POPC   GL2 9422   9.697   0.504   9.147
  475POPC   C1A 9423  10.088   0.465   8.655
  475POPC   D2A 9424   9.919   0.232   8.308
  475POPC   C3A 9425   9.999   0.476   7.918
  475POPC   C4A 9426  10.156   0.622   7.530
  475POPC   C1B 9427   9.587   0.290   8.775
  475POPC   C2B 9428   9.408   0.398   8.377
  475POPC   C3B 9429   9.529   0.275   7.983
  475POPC   C4B 9430   9.613   0.410   7.571
  476POPC   NC3 9431  40.125  20.742   9.590
  476POPC   PO4 9432  40.292  20.172   9.453
  476POPC   GL1 9433  40.096  20.528   9.146
  476POPC   GL2 9434  40.309  20.848   9.131
  476POPC   C1A 9435  39.855  20.629   8.794
  476POPC   D2A 9436  39.548  20.606   8.471
  476POPC   C3A 9437  39.824  20.556   8.127
  476POPC   C4A 9438  40.067  20.545   7.756
  476POPC   C1B 9439  40.241  20.953   8.741
  476POPC   C2B 9440  40.133  20.872   8.373
  476POPC   C3B 9441  40.116  21.028   7.990
  476POPC   C4B 9442  40.213  21.041   7.599
  477POPC   NC3 9443  14.816  15.998   9.581
  477POPC   PO4 9444  14.166  15.642   9.554
  477POPC   GL1 9445  14.217  15.892   9.203
  477POPC   GL2 9446  14.513  16.076   9.192
  477POPC   C1A 9447  14.179  15.816   8.803
  477POPC   D2A 9448  14.033  15.838   8.400
  477POPC   C3A 9449  14.276  15.610   8.108
  477POPC   C4A 9450  14.477  15.740   7.708
  477POPC   C1B 9451  14.405  16.285   8.843
  477POPC   C2B 9452  14.477  16.072   8.481
  477POPC   C3B 9453  14.541  16.079   8.080
  477POPC   C4B 9454  14.746  16.188   7.721
  478POPC   NC3 9455   6.328   3.449   9.698
  478POPC   PO4 9456   6.897   3.793   9.430
  478POPC   GL1 9457   7.056   3.673   9.063
  478POPC   GL2 9458   6.938   3.354   8.979
  478POPC   C1A 9459   6.910   3.832   8.684
  478POPC   D2A 9460   6.535   3.879   8.436
  478POPC   C3A 9461   6.644   3.763   8.007
  478POPC   C4A 9462   6.595   3.359   7.842
  478POPC   C1B 9463   6.551   3.437   8.756
  478POPC   C2B 9464   6.399   3.398   8.338
  478POPC   C3B 9465   6.131   3.170   8.057
  478POPC   C4B 9466   6.341   2.927   7.779
  479POPC   NC3 9467  36.253  11.830   9.510
  479POPC   PO4 9468  36.362  12.487   9.340
  479POPC   GL1 9469  36.017  12.309   9.096
  479POPC   GL2 9470  35.936  11.987   9.148
  479POPC   C1A 9471  36.006  12.256   8.684
  479POPC   D2A 9472  35.872  12.021   8.342
  479POPC   C3A 9473  36.199  12.122   8.058
  479POPC   C4A 9474  36.312  12.398   7.760
  479POPC   C1B 9475  36.126  11.775   8.809
  479POPC   C2B 9476  36.368  11.874   8.468
  479POPC   C3B 9477  36.431  11.687   8.099
  479POPC   C4B 9478  36.244  11.707   7.717
  480POPC   NC3 9479  28.013  27.147   9.486
  480POPC   PO4 9480  28.666  26.871   9.432
  480POPC   GL1 9481  28.579  26.657   9.031
  480POPC   GL2 9482  28.213  26.648   9.080
  480POPC   C1A 9483  28.771  26.546   8.625
  480POPC   D2A 9484  28.600  26.616   8.194
  480POPC   C3A 9485  28.359  26.977   8.079
  480POPC   C4A 9486  28.503  26.884   7.687
  480POPC   C1B 9487  28.287  26.823   8.637
  480POPC   C2B 9488  28.097  26.585   8.292
  480POPC   C3B 9489  28.109  26.600   7.825
  480POPC   C4B 9490  28.003  26.960   7.582
  481POPC   NC3 9491   8.421   4.832   9.643
  481POPC   PO4 9492   8.745   5.380   9.493
  481POPC   GL1 9493   8.860   5.054   9.183
  481POPC   GL2 9494   9.212   5.064   9.049
  481POPC   C1A 9495   8.781   5.001   8.741
  481POPC   D2A 9496   8.967   5.002   8.320
  481POPC   C3A 9497   8.714   5.120   7.965
  481POPC   C4A 9498   8.796   5.086   7.520
  481POPC   C1B 9499   9.307   4.820   8.675
  481POPC   C2B 9500   9.390   4.681   8.244
  481POPC   C3B 9501   9.167   4.830   7.873
  481POPC   C4B 9502   9.212   5.244   7.737
  482POPC   NC3 9503  33.391  39.990   9.283
  482POPC   PO4 9504  32.818  40.127   9.535
  482POPC   GL1 9505  32.846  40.268   9.090
  482POPC   GL2 9506  33.166  40.229   8.912
  482POPC   C1A 9507  32.740  40.097   8.678
  482POPC   D2A 9508  32.733  39.877   8.309
  482POPC   C3A 9509  32.910  40.125   7.966
  482POPC   C4A 9510  33.077  40.258   7.567
  482POPC   C1B 9511  33.210  39.856   8.649
  482POPC   C2B 9512  33.243  39.805   8.197
  482POPC   C3B 9513  33.354  39.873   7.770
  482POPC   C4B 9514  33.404  39.653   7.358
  483POPC   NC3 9515  18.210   5.756   9.835
  483POPC   PO4 9516  18.663   5.587   9.390
  483POPC   GL1 9517  18.526   5.976   9.165
  483POPC   GL2 9518  18.156   6.102   9.139
  483POPC   C1A 9519  18.449   5.919   8.729
  483POPC   D2A 9520  18.735   5.789   8.394
  483POPC   C3A 9521  18.505   5.774   8.031
  483POPC   C4A 9522  18.251   5.590   7.710
  483POPC   C1B 9523  17.926   6.019   8.758
  483POPC   C2B 9524  18.099   6.003   8.359
  483POPC   C3B 9525  17.977   5.902   7.993
  483POPC   C4B 9526  17.859   6.117   7.652
  484POPC   NC3 9527  21.951  18.964   9.622
  484POPC   PO4 9528  21.292  18.772   9.504
  484POPC   GL1 9529  21.445  18.841   9.131
  484POPC   GL2 9530  21.138  19.021   9.047
  484POPC   C1A 9531  21.500  18.899   8.705
  484POPC   D2A 9532  21.348  18.805   8.334
  484POPC   C3A 9533  21.476  19.046   8.015
  484POPC   C4A 9534  21.454  19.475   7.884
  484POPC   C1B 9535  21.082  19.186   8.626
  484POPC   C2B 9536  20.899  19.062   8.244
  484POPC   C3B 9537  21.013  19.021   7.844
  484POPC   C4B 9538  21.107  19.334   7.536
  485POPC   NC3 9539   0.518  40.864   9.677
  485POPC   PO4 9540   0.324  40.294   9.566
  485POPC   GL1 9541   0.288  40.603   9.199
  485POPC   GL2 9542   0.183  40.964   9.280
  485POPC   C1A 9543   0.465  40.840   8.808
  485POPC   D2A 9544   0.660  41.014   8.388
  485POPC   C3A 9545   0.648  40.826   7.945
  485POPC   C4A 9546   0.699  41.005   7.448
  485POPC   C1B 9547  44.990  41.014   8.868
  485POPC   C2B 9548   0.132  41.070   8.429
  485POPC   C3B 9549   0.003  40.955   8.006
  485POPC   C4B 9550   0.244  40.875   7.645
  486POPC   NC3 9551  34.769  33.046   9.412
  486POPC   PO4 9552  34.144  32.781   9.503
  486POPC   GL1 9553  34.406  32.918   9.089
  486POPC   GL2 9554  34.492  33.319   9.095
  486POPC   C1A 9555  34.766  32.988   8.755
  486POPC   D2A 9556  34.884  33.116   8.327
  486POPC   C3A 9557  34.721  32.952   7.915
  486POPC   C4A 9558  34.288  32.951   7.705
  486POPC   C1B 9559  34.324  33.241   8.697
  486POPC   C2B 9560  34.379  33.107   8.269
  486POPC   C3B 9561  34.403  33.374   7.943
  486POPC   C4B 9562  34.176  33.468   7.592
  487POPC   NC3 9563  38.261  35.712   9.501
  487POPC   PO4 9564  38.786  36.139   9.593
  487POPC   GL1 9565  38.632  36.027   9.190
  487POPC   GL2 9566  38.599  36.397   9.151
  487POPC   C1A 9567  38.367  36.108   8.792
  487POPC   D2A 9568  38.123  36.041   8.378
  487POPC   C3A 9569  38.292  36.197   7.979
  487POPC   C4A 9570  38.564  36.005   7.679
  487POPC   C1B 9571  38.632  36.572   8.745
  487POPC   C2B 9572  38.588  36.470   8.327
  487POPC   C3B 9573  38.520  36.648   7.935
  487POPC   C4B 9574  38.511  36.493   7.536
  488POPC   NC3 9575   4.554  25.451   9.625
  488POPC   PO4 9576   4.425  26.171   9.522
  488POPC   GL1 9577   4.416  26.024   9.161
  488POPC   GL2 9578   4.701  25.790   9.171
  488POPC   C1A 9579   4.152  26.081   8.808
  488POPC   D2A 9580   4.028  26.264   8.420
  488POPC   C3A 9581   4.076  26.038   8.050
  488POPC   C4A 9582   3.945  26.027   7.624
  488POPC   C1B 9583   4.670  25.922   8.754
  488POPC   C2B 9584   4.492  26.061   8.396
  488POPC   C3B 9585   4.580  26.130   7.995
  488POPC   C4B 9586   4.427  25.888   7.684
  489POPC   NC3 9587  34.171  20.160   9.427
  489POPC   PO4 9588  34.732  19.765   9.505
  489POPC   GL1 9589  34.897  19.972   9.163
  489POPC   GL2 9590  34.793  20.305   9.201
  489POPC   C1A 9591  34.954  19.841   8.750
  489POPC   D2A 9592  34.637  19.686   8.486
  489POPC   C3A 9593  34.701  19.827   8.073
  489POPC   C4A 9594  34.531  19.629   7.731
  489POPC   C1B 9595  34.508  20.104   8.858
  489POPC   C2B 9596  34.422  20.228   8.434
  489POPC   C3B 9597  34.273  20.196   8.031
  489POPC   C4B 9598  34.497  20.158   7.695
  490POPC   NC3 9599  41.007   2.128   9.500
  490POPC   PO4 9600  40.339   2.080   9.632
  490POPC   GL1 9601  40.598   2.101   9.224
  490POPC   GL2 9602  40.845   1.776   9.180
  490POPC   C1A 9603  40.778   2.104   8.791
  490POPC   D2A 9604  41.056   2.149   8.460
  490POPC   C3A 9605  40.845   2.106   8.048
  490POPC   C4A 9606  40.590   1.890   7.730
  490POPC   C1B 9607  41.135   1.754   8.824
  490POPC   C2B 9608  40.977   1.655   8.431
  490POPC   C3B 9609  41.136   1.669   8.023
  490POPC   C4B 9610  41.079   1.853   7.599
  491POPC   NC3 9611  36.885  16.882   9.376
  491POPC   PO4 9612  36.650  16.195   9.513
  491POPC   GL1 9613  36.733  16.442   9.141
  491POPC   GL2 9614  37.075  16.397   9.144
  491POPC   C1A 9615  36.869  16.654   8.748
  491POPC   D2A 9616  36.953  16.590   8.329
  491POPC   C3A 9617  36.793  16.866   8.022
  491POPC   C4A 9618  37.125  16.930   7.754
  491POPC   C1B 9619  37.139  16.185   8.732
  491POPC   C2B 9620  37.308  16.211   8.297
  491POPC   C3B 9621  37.203  16.442   7.895
  491POPC   C4B 9622  37.168  16.455   7.437
  492POPC   NC3 9623  13.524  28.327   9.477
  492POPC   PO4 9624  13.683  28.953   9.458
  492POPC   GL1 9625  13.723  28.651   9.121
  492POPC   GL2 9626  13.353  28.598   9.094
  492POPC   C1A 9627  13.680  28.368   8.729
  492POPC   D2A 9628  13.842  28.168   8.303
  492POPC   C3A 9629  13.761  28.268   7.844
  492POPC   C4A 9630  13.638  28.090   7.413
  492POPC   C1B 9631  13.216  28.656   8.702
  492POPC   C2B 9632  13.449  28.606   8.319
  492POPC   C3B 9633  13.454  28.675   7.906
  492POPC   C4B 9634  13.327  28.467   7.541
  493POPC   NC3 9635  39.613   6.506   9.363
  493POPC   PO4 9636  40.152   6.863   9.474
  493POPC   GL1 9637  40.078   6.700   9.098
  493POPC   GL2 9638  39.751   6.887   9.073
  493POPC   C1A 9639  40.352   6.618   8.734
  493POPC   D2A 9640  40.353   6.492   8.309
  493POPC   C3A 9641  39.953   6.383   8.128
  493POPC   C4A 9642  39.652   6.599   7.936
  493POPC   C1B 9643  39.920   6.946   8.681
  493POPC   C2B 9644  39.899   6.875   8.281
  493POPC   C3B 9645  39.880   7.103   7.922
  493POPC   C4B 9646  39.745   7.341   7.632
  494POPC   NC3 9647  20.331   3.585   9.519
  494POPC   PO4 9648  20.931   3.327   9.440
  494POPC   GL1 9649  20.704   3.669   9.141
  494POPC   GL2 9650  20.340   3.748   9.060
  494POPC   C1A 9651  20.644   3.712   8.668
  494POPC   D2A 9652  20.796   3.505   8.340
  494POPC   C3A 9653  20.874   3.640   7.939
  494POPC   C4A 9654  20.945   3.369   7.597
  494POPC   C1B 9655  20.198   3.501   8.749
  494POPC   C2B 9656  20.227   3.668   8.360
  494POPC   C3B 9657  20.367   3.616   8.009
  494POPC   C4B 9658  20.451   3.529   7.622
  495POPC   NC3 9659  31.548  20.149   9.392
  495POPC   PO4 9660  31.393  19.509   9.707
  495POPC   GL1 9661  31.338  19.507   9.234
  495POPC   GL2 9662  31.161  19.815   9.160
  495POPC   C1A 9663  31.454  19.665   8.762
  495POPC   D2A 9664  31.319  19.831   8.344
  495POPC   C3A 9665  31.594  19.973   8.012
  495POPC   C4A 9666  31.670  19.638   7.733
  495POPC   C1B 9667  31.130  20.104   8.790
  495POPC   C2B 9668  30.927  20.175   8.368
  495POPC   C3B 9669  31.104  20.134   7.941
  495POPC   C4B 9670  31.330  20.007   7.575
  496POPC   NC3 9671  37.745   9.605   9.477
  496POPC   PO4 9672  37.457  10.322   9.436
  496POPC   GL1 9673  37.670  10.017   9.189
  496POPC   GL2 9674  37.368   9.794   9.202
  496POPC   C1A 9675  37.802   9.743   8.828
  496POPC   D2A 9676  37.954   9.606   8.412
  496POPC   C3A 9677  37.805   9.818   8.084
  496POPC   C4A 9678  37.687   9.797   7.676
  496POPC   C1B 9679  37.271   9.581   8.825
  496POPC   C2B 9680  37.431   9.662   8.421
  496POPC   C3B 9681  37.353   9.492   8.031
  496POPC   C4B 9682  37.218   9.622   7.640
  497POPC   NC3 9683  44.665   4.966   9.562
  497POPC   PO4 9684  44.059   5.098   9.612
  497POPC   GL1 9685  44.382   5.249   9.258
  497POPC   GL2 9686  44.691   5.127   9.086
  497POPC   C1A 9687  44.423   5.397   8.772
  497POPC   D2A 9688  44.287   5.082   8.448
  497POPC   C3A 9689  44.288   5.124   7.993
  497POPC   C4A 9690  44.326   5.509   7.692
  497POPC   C1B 9691  44.748   5.008   8.665
  497POPC   C2B 9692  44.778   5.195   8.252
  497POPC   C3B 9693  44.733   5.221   7.771
  497POPC   C4B 9694  44.774   4.908   7.422
  498POPC   NC3 9695  29.515  11.196   9.390
  498POPC   PO4 9696  30.124  11.471   9.465
  498POPC   GL1 9697  29.990  11.201   9.161
  498POPC   GL2 9698  29.789  11.472   9.049
  498POPC   C1A 9699  29.819  11.044   8.780
  498POPC   D2A 9700  30.033  11.003   8.434
  498POPC   C3A 9701  29.839  11.039   8.054
  498POPC   C4A 9702  30.054  11.073   7.668
  498POPC   C1B 9703  30.099  11.484   8.703
  498POPC   C2B 9704  30.169  11.491   8.241
  498POPC   C3B 9705  29.884  11.511   7.877
  498POPC   C4B 9706  29.436  11.397   7.856
  499POPC   NC3 9707  44.197   0.293   9.415
  499POPC   PO4 9708  43.873   0.819   9.267
  499POPC   GL1 9709  43.809   0.404   9.044
  499POPC   GL2 9710  44.055   0.163   8.929
  499POPC   C1A 9711  43.538   0.197   8.746
  499POPC   D2A 9712  43.440   0.195   8.319
  499POPC   C3A 9713  43.807   0.286   8.089
  499POPC   C4A 9714  43.796   0.577   7.813
  499POPC   C1B 9715  44.076   0.436   8.553
  499POPC   C2B 9716  44.144   0.734   8.188
  499POPC   C3B 9717  44.267   0.760   7.744
  499POPC   C4B 9718  44.186   0.404   7.474
  500POPC   NC3 9719  17.326  24.327   9.573
  500POPC   PO4 9720  17.325  25.019   9.574
  500POPC   GL1 9721  17.196  24.734   9.254
  500POPC   GL2 9722  17.555  24.647   9.223
  500POPC   C1A 9723  17.197  24.458   8.888
  500POPC   D2A 9724  17.504  24.310   8.589
  500POPC   C3A 9725  17.387  24.286   8.155
  500POPC   C4A 9726  17.631  24.311   7.748
  500POPC   C1B 9727  17.682  24.781   8.820
  500POPC   C2B 9728  17.855  24.655   8.431
  500POPC   C3B 9729  17.806  24.676   8.049
  500POPC   C4B 9730  17.768  24.845   7.654
  501POPC   NC3 9731  20.913  25.853   9.697
  501POPC   PO4 9732  21.452  26.259   9.469
  501POPC   GL1 9733  21.511  26.072   9.100
  501POPC   GL2 9734  21.749  25.762   9.156
  501POPC   C1A 9735  21.262  26.120   8.702
  501POPC   D2A 9736  21.070  26.075   8.300
  501POPC   C3A 9737  21.353  26.154   7.962
  501POPC   C4A 9738  21.166  26.448   7.717
  501POPC   C1B 9739  21.513  25.657   8.811
  501POPC   C2B 9740  21.169  25.642   8.560
  501POPC   C3B 9741  21.201  25.640   8.090
  501POPC   C4B 9742  21.424  25.671   7.709
  502POPC   NC3 9743  43.464  27.476   9.557
  502POPC   PO4 9744  43.806  28.101   9.638
  502POPC   GL1 9745  43.870  27.826   9.219
  502POPC   GL2 9746  43.669  27.520   9.103
  502POPC   C1A 9747  44.086  27.629   8.804
  502POPC   D2A 9748  44.093  27.323   8.405
  502POPC   C3A 9749  44.116  27.488   7.949
  502POPC   C4A 9750  44.244  27.784   7.589
  502POPC   C1B 9751  43.702  27.220   8.765
  502POPC   C2B 9752  43.568  27.285   8.348
  502POPC   C3B 9753  43.664  27.209   7.932
  502POPC   C4B 9754  43.412  27.543   7.730
  503POPC   NC3 9755  10.818   3.367  10.002
  503POPC   PO4 9756  11.417   3.535   9.710
  503POPC   GL1 9757  11.532   3.512   9.254
  503POPC   GL2 9758  11.707   3.236   9.276
  503POPC   C1A 9759  11.323   3.537   8.817
  503POPC   D2A 9760  11.004   3.749   8.496
  503POPC   C3A 9761  10.995   3.665   8.027
  503POPC   C4A 9762  11.241   3.454   7.718
  503POPC   C1B 9763  11.696   3.179   8.861
  503POPC   C2B 9764  11.680   3.344   8.470
  503POPC   C3B 9765  11.518   3.223   8.087
  503POPC   C4B 9766  11.724   3.225   7.703
  504POPC   NC3 9767  38.735   9.465   9.464
  504POPC   PO4 9768  38.338   8.913   9.548
  504POPC   GL1 9769  38.482   9.132   9.163
  504POPC   GL2 9770  38.310   9.429   9.130
  504POPC   C1A 9771  38.641   9.139   8.730
  504POPC   D2A 9772  38.612   8.761   8.453
  504POPC   C3A 9773  38.443   8.676   8.030
  504POPC   C4A 9774  38.634   8.854   7.670
  504POPC   C1B 9775  38.155   9.287   8.748
  504POPC   C2B 9776  38.215   9.123   8.349
  504POPC   C3B 9777  38.324   9.170   7.937
  504POPC   C4B 9778  38.049   8.976   7.673
  505POPC   NC3 9779  39.430  16.645   9.535
  505POPC   PO4 9780  38.778  16.788   9.556
  505POPC   GL1 9781  38.908  16.923   9.135
  505POPC   GL2 9782  39.266  17.017   9.203
  505POPC   C1A 9783  39.072  16.808   8.691
  505POPC   D2A 9784  39.287  16.850   8.286
  505POPC   C3A 9785  39.233  16.549   7.944
  505POPC   C4A 9786  38.860  16.701   7.796
  505POPC   C1B 9787  39.286  17.245   8.822
  505POPC   C2B 9788  39.589  17.211   8.508
  505POPC   C3B 9789  39.603  17.211   8.085
  505POPC   C4B 9790  39.342  17.017   7.781
  506POPC   NC3 9791  40.237  27.825   9.448
  506POPC   PO4 9792  39.778  27.315   9.487
  506POPC   GL1 9793  39.832  27.618   9.169
  506POPC   GL2 9794  39.801  27.987   9.244
  506POPC   C1A 9795  40.095  27.606   8.803
  506POPC   D2A 9796  40.333  27.711   8.458
  506POPC   C3A 9797  40.181  27.852   8.101
  506POPC   C4A 9798  39.970  27.567   7.813
  506POPC   C1B 9799  39.710  27.959   8.813
  506POPC   C2B 9800  39.742  27.729   8.427
  506POPC   C3B 9801  39.643  27.881   8.045
  506POPC   C4B 9802  39.898  28.081   7.756
  507POPC   NC3 9803  36.739  12.556   9.608
  507POPC   PO4 9804  37.095  13.114   9.603
  507POPC   GL1 9805  37.100  12.860   9.264
  507POPC   GL2 9806  36.758  12.904   9.235
  507POPC   C1A 9807  37.264  12.801   8.857
  507POPC   D2A 9808  37.213  13.007   8.433
  507POPC   C3A 9809  37.080  12.788   8.079
  507POPC   C4A 9810  37.231  12.736   7.698
  507POPC   C1B 9811  36.768  12.696   8.870
  507POPC   C2B 9812  36.749  12.794   8.473
  507POPC   C3B 9813  36.599  12.626   8.105
  507POPC   C4B 9814  36.749  12.606   7.672
  508POPC   NC3 9815   3.614  32.024   9.514
  508POPC   PO4 9816   3.346  32.608   9.395
  508POPC   GL1 9817   3.389  32.355   9.076
  508POPC   GL2 9818   3.713  32.335   9.103
  508POPC   C1A 9819   3.456  31.953   8.857
  508POPC   D2A 9820   3.291  31.812   8.487
  508POPC   C3A 9821   3.444  32.120   8.203
  508POPC   C4A 9822   3.317  32.257   7.783
  508POPC   C1B 9823   3.710  32.349   8.666
  508POPC   C2B 9824   3.792  32.558   8.332
  508POPC   C3B 9825   3.917  32.262   8.115
  508POPC   C4B 9826   3.750  31.975   7.822
  509POPC   NC3 9827   1.196  37.076   9.788
  509POPC   PO4 9828   1.741  36.982   9.333
  509POPC   GL1 9829   1.452  37.199   9.002
  509POPC   GL2 9830   1.139  37.179   9.196
  509POPC   C1A 9831   1.427  37.187   8.507
  509POPC   D2A 9832   1.505  36.821   8.206
  509POPC   C3A 9833   1.575  36.840   7.746
  509POPC   C4A 9834   1.744  36.775   7.336
  509POPC   C1B 9835   0.986  37.042   8.760
  509POPC   C2B 9836   0.983  36.940   8.292
  509POPC   C3B 9837   1.064  36.965   7.820
  509POPC   C4B 9838   0.852  37.166   7.416
  510POPC   NC3 9839   2.415   6.513   9.274
  510POPC   PO4 9840   1.720   6.811   9.493
  510POPC   GL1 9841   1.913   6.686   9.125
  510POPC   GL2 9842   1.895   7.022   8.965
  510POPC   C1A 9843   2.040   6.619   8.696
  510POPC   D2A 9844   2.136   6.825   8.296
  510POPC   C3A 9845   2.265   6.567   7.943
  510POPC   C4A 9846   2.382   6.448   7.528
  510POPC   C1B 9847   1.668   6.976   8.577
  510POPC   C2B 9848   1.675   6.976   8.136
  510POPC   C3B 9849   1.881   6.857   7.731
  510POPC   C4B 9850   1.677   6.904   7.325
  511POPC   NC3 9851  33.359  17.074   9.490
  511POPC   PO4 9852  33.091  17.746   9.498
  511POPC   GL1 9853  33.058  17.476   9.170
  511POPC   GL2 9854  32.776  17.254   9.125
  511POPC   C1A 9855  32.986  17.563   8.757
  511POPC   D2A 9856  33.232  17.482   8.435
  511POPC   C3A 9857  33.002  17.488   8.079
  511POPC   C4A 9858  33.014  17.726   7.703
  511POPC   C1B 9859  33.109  17.076   8.819
  511POPC   C2B 9860  33.015  17.016   8.368
  511POPC   C3B 9861  33.332  17.110   8.068
  511POPC   C4B 9862  33.241  17.280   7.676
  512POPC   NC3 9863  15.783   5.532   9.438
  512POPC   PO4 9864  16.271   5.930   9.535
  512POPC   GL1 9865  15.969   6.005   9.256
  512POPC   GL2 9866  16.072   6.318   9.139
  512POPC   C1A 9867  15.931   5.923   8.825
  512POPC   D2A 9868  15.911   6.164   8.458
  512POPC   C3A 9869  15.828   5.877   8.138
  512POPC   C4A 9870  15.716   5.540   7.850
  512POPC   C1B 9871  16.359   6.217   8.783
  512POPC   C2B 9872  16.515   6.213   8.345
  512POPC   C3B 9873  16.206   6.216   8.012
  512POPC   C4B 9874  16.095   5.907   7.698
  513POPC   NC3 9875  10.373  14.355   9.994
  513POPC   PO4 9876  10.496  14.224   9.393
  513POPC   GL1 9877  10.202  14.368   9.156
  513POPC   GL2 9878  10.448  14.549   8.996
  513POPC   C1A 9879  10.123  14.243   8.756
  513POPC   D2A 9880  10.391  14.373   8.424
  513POPC   C3A 9881  10.240  14.278   8.025
  513POPC   C4A 9882  10.468  14.440   7.685
  513POPC   C1B 9883  10.605  14.774   8.676
  513POPC   C2B 9884  10.935  14.725   8.393
  513POPC   C3B 9885  10.864  14.586   8.016
  513POPC   C4B 9886  10.839  14.803   7.664
  514POPC   NC3 9887  34.921  25.786   9.376
  514POPC   PO4 9888  34.434  26.243   9.558
  514POPC   GL1 9889  34.470  26.030   9.192
  514POPC   GL2 9890  34.164  26.155   9.088
  514POPC   C1A 9891  34.473  25.877   8.758
  514POPC   D2A 9892  34.673  25.983   8.369
  514POPC   C3A 9893  34.495  25.851   7.955
  514POPC   C4A 9894  34.739  25.895   7.566
  514POPC   C1B 9895  34.018  26.127   8.699
  514POPC   C2B 9896  34.180  26.145   8.313
  514POPC   C3B 9897  34.064  26.179   7.920
  514POPC   C4B 9898  34.348  26.198   7.586
  515POPC   NC3 9899   6.937  37.861   9.488
  515POPC   PO4 9900   6.358  37.402   9.522
  515POPC   GL1 9901   6.552  37.640   9.249
  515POPC   GL2 9902   6.267  37.756   9.092
  515POPC   C1A 9903   6.706  37.651   8.837
  515POPC   D2A 9904   6.431  37.744   8.506
  515POPC   C3A 9905   6.693  37.815   8.170
  515POPC   C4A 9906   6.870  37.906   7.783
  515POPC   C1B 9907   6.254  37.374   8.854
  515POPC   C2B 9908   6.485  37.232   8.510
  515POPC   C3B 9909   6.467  37.337   8.110
  515POPC   C4B 9910   6.822  37.402   7.892
  516POPC   NC3 9911  15.360  25.793   9.581
  516POPC   PO4 9912  15.183  25.103   9.642
  516POPC   GL1 9913  15.344  25.347   9.268
  516POPC   GL2 9914  15.037  25.397   9.121
  516POPC   C1A 9915  15.435  25.349   8.810
  516POPC   D2A 9916  15.324  25.004   8.532
  516POPC   C3A 9917  15.225  25.097   8.128
  516POPC   C4A 9918  15.510  25.273   7.837
  516POPC   C1B 9919  14.945  25.035   8.854
  516POPC   C2B 9920  14.850  24.813   8.418
  516POPC   C3B 9921  14.759  24.922   7.959
  516POPC   C4B 9922  15.024  25.136   7.632
  517POPC   NC3 9923  12.774   1.912   9.648
  517POPC   PO4 9924  12.734   2.583   9.711
  517POPC   GL1 9925  12.669   2.241   9.282
  517POPC   GL2 9926  12.855   1.886   9.154
  517POPC   C1A 9927  12.708   2.201   8.800
  517POPC   D2A 9928  12.726   1.939   8.429
  517POPC   C3A 9929  12.813   2.109   8.006
  517POPC   C4A 9930  12.707   1.953   7.618
  517POPC   C1B 9931  13.188   1.952   8.795
  517POPC   C2B 9932  13.221   1.978   8.313
  517POPC   C3B 9933  13.108   1.711   7.919
  517POPC   C4B 9934  13.106   1.686   7.417
  518POPC   NC3 9935  30.112   2.782   9.439
  518POPC   PO4 9936  29.456   2.911   9.423
  518POPC   GL1 9937  29.699   2.760   9.101
  518POPC   GL2 9938  29.939   2.483   9.059
  518POPC   C1A 9939  29.861   2.859   8.711
  518POPC   D2A 9940  30.046   3.070   8.365
  518POPC   C3A 9941  29.861   2.883   8.028
  518POPC   C4A 9942  30.029   2.869   7.643
  518POPC   C1B 9943  29.616   2.391   8.747
  518POPC   C2B 9944  29.357   2.454   8.349
  518POPC   C3B 9945  29.497   2.476   7.900
  518POPC   C4B 9946  29.638   2.606   7.452
  519POPC   NC3 9947  33.950   6.022   9.530
  519POPC   PO4 9948  33.430   5.585   9.622
  519POPC   GL1 9949  33.552   5.758   9.227
  519POPC   GL2 9950  33.527   6.117   9.231
  519POPC   C1A 9951  33.631   5.678   8.786
  519POPC   D2A 9952  33.429   5.668   8.393
  519POPC   C3A 9953  33.635   5.578   8.012
  519POPC   C4A 9954  33.608   5.823   7.631
  519POPC   C1B 9955  33.689   6.256   8.838
  519POPC   C2B 9956  33.613   6.173   8.414
  519POPC   C3B 9957  33.857   6.051   8.074
  519POPC   C4B 9958  33.910   6.218   7.677
  520POPC   NC3 9959  34.294  27.497   9.487
  520POPC   PO4 9960  34.891  27.714   9.549
  520POPC   GL1 9961  34.672  27.690   9.190
  520POPC   GL2 9962  34.541  27.982   9.163
  520POPC   C1A 9963  34.709  27.412   8.859
  520POPC   D2A 9964  34.932  27.436   8.492
  520POPC   C3A 9965  34.735  27.492   8.082
  520POPC   C4A 9966  34.809  27.615   7.638
  520POPC   C1B 9967  34.386  27.882   8.762
  520POPC   C2B 9968  34.291  27.785   8.340
  520POPC   C3B 9969  34.423  27.861   7.914
  520POPC   C4B 9970  34.336  27.455   7.736
  521POPC   NC3 9971  27.000  22.176   9.499
  521POPC   PO4 9972  26.404  21.778   9.470
  521POPC   GL1 9973  26.712  21.979   9.134
  521POPC   GL2 9974  26.693  22.372   9.106
  521POPC   C1A 9975  26.986  22.186   8.763
  521POPC   D2A 9976  26.956  22.476   8.388
  521POPC   C3A 9977  26.991  22.216   8.010
  521POPC   C4A 9978  26.896  22.221   7.564
  521POPC   C1B 9979  26.573  22.656   8.727
  521POPC   C2B 9980  26.436  22.588   8.275
  521POPC   C3B 9981  26.557  22.548   7.804
  521POPC   C4B 9982  26.506  22.464   7.340
  522POPC   NC3 9983   6.515  42.678   9.470
  522POPC   PO4 9984   6.786  43.335   9.413
  522POPC   GL1 9985   6.536  43.229   9.088
  522POPC   GL2 9986   6.411  42.898   9.035
  522POPC   C1A 9987   6.575  43.235   8.667
  522POPC   D2A 9988   6.970  43.201   8.387
  522POPC   C3A 9989   6.884  43.181   7.924
  522POPC   C4A 9990   6.827  43.042   7.482
  522POPC   C1B 9991   6.665  42.744   8.711
  522POPC   C2B 9992   6.576  42.875   8.285
  522POPC   C3B 9993   6.582  42.773   7.869
  522POPC   C4B 9994   6.363  43.083   7.692
  523POPC   NC3 9995  10.849  41.196   9.762
  523POPC   PO4 9996  11.507  41.405   9.535
  523POPC   GL1 9997  11.218  41.335   9.188
  523POPC   GL2 9998  11.250  41.680   9.087
  523POPC   C1A 9999  11.207  41.325   8.716
  523POPC   D2A10000  11.504  41.397   8.374
  523POPC   C3A10001  11.316  41.445   7.975
  523POPC   C4A10002  11.163  41.319   7.571
  523POPC   C1B10003  11.481  41.788   8.712
  523POPC   C2B10004  11.339  41.881   8.281
  523POPC   C3B10005  11.347  41.970   7.848
  523POPC   C4B10006  11.275  41.797   7.443
  524POPC   NC310007  35.983  14.067   9.382
  524POPC   PO410008  36.185  13.466   9.435
  524POPC   GL110009  36.259  13.734   9.125
  524POPC   GL210010  36.457  14.043   9.170
  524POPC   C1A10011  36.091  13.611   8.763
  524POPC   D2A10012  36.192  13.352   8.444
  524POPC   C3A10013  36.000  13.407   8.065
  524POPC   C4A10014  36.179  13.439   7.674
  524POPC   C1B10015  36.233  14.121   8.758
  524POPC   C2B10016  36.016  13.943   8.375
  524POPC   C3B10017  36.091  13.897   7.931
  524POPC   C4B10018  35.906  13.856   7.510
  525POPC   NC310019  30.028  28.778   9.444
  525POPC   PO410020  29.736  28.114   9.574
  525POPC   GL110021  29.909  28.204   9.170
  525POPC   GL210022  29.839  28.519   9.029
  525POPC   C1A10023  30.036  28.139   8.751
  525POPC   D2A10024  29.928  28.371   8.395
  525POPC   C3A10025  29.925  28.121   8.029
  525POPC   C4A10026  30.309  28.144   7.800
  525POPC   C1B10027  29.620  28.704   8.655
  525POPC   C2B10028  29.806  28.856   8.255
  525POPC   C3B10029  29.845  28.605   7.890
  525POPC   C4B10030  29.640  28.648   7.513
  526POPC   NC310031   1.135  12.437   9.789
  526POPC   PO410032   1.448  12.997   9.615
  526POPC   GL110033   1.447  13.001   9.200
  526POPC   GL210034   1.436  12.677   9.059
  526POPC   C1A10035   1.382  13.102   8.767
  526POPC   D2A10036   1.490  13.053   8.347
  526POPC   C3A10037   1.275  13.107   7.973
  526POPC   C4A10038   1.366  12.819   7.667
  526POPC   C1B10039   1.413  12.599   8.591
  526POPC   C2B10040   1.264  12.591   8.136
  526POPC   C3B10041   1.185  12.359   7.718
  526POPC   C4B10042   1.158  12.549   7.273
  527POPC   NC310043  36.950   2.388   9.527
  527POPC   PO410044  37.323   1.821   9.540
  527POPC   GL110045  37.194   2.064   9.171
  527POPC   GL210046  36.812   2.128   9.118
  527POPC   C1A10047  37.070   1.890   8.776
  527POPC   D2A10048  37.102   2.083   8.423
  527POPC   C3A10049  37.118   1.796   8.135
  527POPC   C4A10050  37.032   1.963   7.780
  527POPC   C1B10051  36.604   2.093   8.655
  527POPC   C2B10052  36.639   2.014   8.187
  527POPC   C3B10053  36.589   2.178   7.763
  527POPC   C4B10054  36.549   2.355   7.282
  528POPC   NC310055   1.518  44.051   9.481
  528POPC   PO410056   0.991  44.427   9.352
  528POPC   GL110057   1.119  44.011   9.143
  528POPC   GL210058   1.406  43.715   9.123
  528POPC   C1A10059   1.144  43.868   8.714
  528POPC   D2A10060   0.923  43.686   8.398
  528POPC   C3A10061   1.054  43.878   8.032
  528POPC   C4A10062   1.128  44.099   7.683
  528POPC   C1B10063   1.574  43.607   8.725
  528POPC   C2B10064   1.430  43.675   8.312
  528POPC   C3B10065   1.530  43.604   7.897
  528POPC   C4B10066   1.622  43.926   7.645
  529POPC   NC310067  16.432  34.365   9.436
  529POPC   PO410068  16.834  34.800   9.706
  529POPC   GL110069  16.832  34.630   9.265
  529POPC   GL210070  16.535  34.707   9.063
  529POPC   C1A10071  16.903  34.520   8.800
  529POPC   D2A10072  16.640  34.760   8.536
  529POPC   C3A10073  16.611  34.623   8.149
  529POPC   C4A10074  16.980  34.600   7.889
  529POPC   C1B10075  16.404  35.085   8.880
  529POPC   C2B10076  16.397  35.216   8.480
  529POPC   C3B10077  16.397  35.112   8.055
  529POPC   C4B10078  16.589  34.902   7.715
  530POPC   NC310079  25.985  40.273   9.593
  530POPC   PO410080  26.077  40.996   9.705
  530POPC   GL110081  25.989  40.889   9.240
  530POPC   GL210082  26.274  40.728   9.157
  530POPC   C1A10083  26.046  40.845   8.731
  530POPC   D2A10084  25.875  40.916   8.313
  530POPC   C3A10085  25.937  40.924   7.865
  530POPC   C4A10086  25.950  40.988   7.416
  530POPC   C1B10087  26.391  40.463   8.814
  530POPC   C2B10088  26.146  40.375   8.458
  530POPC   C3B10089  26.193  40.515   8.040
  530POPC   C4B10090  26.515  40.621   7.748
  531POPC   NC310091  32.079  35.656   9.477
  531POPC   PO410092  32.307  36.244   9.419
  531POPC   GL110093  32.244  36.071   9.038
  531POPC   GL210094  31.914  35.994   9.094
  531POPC   C1A10095  32.037  36.103   8.622
  531POPC   D2A10096  31.999  36.382   8.312
  531POPC   C3A10097  32.324  36.194   8.093
  531POPC   C4A10098  32.436  36.245   7.686
  531POPC   C1B10099  31.948  35.639   8.828
  531POPC   C2B10100  31.828  35.629   8.443
  531POPC   C3B10101  31.908  35.871   8.130
  531POPC   C4B10102  31.888  35.680   7.752
  532POPC   NC310103  17.736  44.822   9.599
  532POPC   PO410104  17.226  44.371   9.481
  532POPC   GL110105  17.539  44.546   9.201
  532POPC   GL210106  17.464  44.895   9.169
  532POPC   C1A10107  17.544  44.476   8.776
  532POPC   D2A10108  17.323  44.631   8.429
  532POPC   C3A10109  17.477  44.470   8.052
  532POPC   C4A10110  17.297  44.649   7.714
  532POPC   C1B10111  17.586  44.986   8.768
  532POPC   C2B10112  17.777  44.814   8.408
  532POPC   C3B10113  17.668  44.935   8.017
  532POPC   C4B10114  17.637   0.031   7.605
  533POPC   NC310115  16.256  15.490   9.487
  533POPC   PO410116  15.783  14.919   9.541
  533POPC   GL110117  16.039  15.079   9.275
  533POPC   GL210118  15.825  15.373   9.223
  533POPC   C1A10119  16.230  15.171   8.896
  533POPC   D2A10120  16.364  15.003   8.510
  533POPC   C3A10121  16.111  14.948   8.143
  533POPC   C4A10122  16.262  15.151   7.770
  533POPC   C1B10123  15.731  15.127   8.827
  533POPC   C2B10124  15.638  15.107   8.366
  533POPC   C3B10125  15.551  15.263   7.917
  533POPC   C4B10126  15.467  15.415   7.463
  534POPC   NC310127  10.471  41.389  10.165
  534POPC   PO410128  10.308  41.814   9.667
  534POPC   GL110129  10.399  41.593   9.276
  534POPC   GL210130  10.744  41.651   9.216
  534POPC   C1A10131  10.472  41.394   8.864
  534POPC   D2A10132  10.310  41.205   8.476
  534POPC   C3A10133  10.517  41.317   8.119
  534POPC   C4A10134  10.451  41.468   7.718
  534POPC   C1B10135  10.843  41.740   8.758
  534POPC   C2B10136  10.907  41.605   8.319
  534POPC   C3B10137  10.889  41.677   7.857
  534POPC   C4B10138  10.787  41.686   7.402
  535POPC   NC310139  42.481  14.298   9.269
  535POPC   PO410140  42.471  13.763   9.731
  535POPC   GL110141  42.417  13.749   9.260
  535POPC   GL210142  42.714  13.592   9.141
  535POPC   C1A10143  42.140  13.666   8.866
  535POPC   D2A10144  42.032  13.383   8.472
  535POPC   C3A10145  42.259  13.464   8.079
  535POPC   C4A10146  42.414  13.769   7.774
  535POPC   C1B10147  42.780  13.388   8.775
  535POPC   C2B10148  42.700  13.541   8.356
  535POPC   C3B10149  42.744  13.355   7.969
  535POPC   C4B10150  42.700  13.424   7.544
  536POPC   NC310151  10.351  44.689   9.828
  536POPC   PO410152  10.335  44.100   9.731
  536POPC   GL110153  10.369  44.440   9.350
  536POPC   GL210154  10.719  44.590   9.252
  536POPC   C1A10155  10.334  44.650   8.907
  536POPC   D2A10156  10.230  44.884   8.511
  536POPC   C3A10157  10.277  44.721   8.100
  536POPC   C4A10158  10.484  44.831   7.713
  536POPC   C1B10159  10.858  44.832   8.840
  536POPC   C2B10160  10.748  44.858   8.360
  536POPC   C3B10161  10.890   0.049   7.923
  536POPC   C4B10162  10.849   0.045   7.407
  537POPC   NC310163  30.262  11.914   9.420
  537POPC   PO410164  30.910  12.104   9.478
  537POPC   GL110165  30.641  12.112   9.086
  537POPC   GL210166  30.321  11.907   8.929
  537POPC   C1A10167  30.772  11.968   8.679
  537POPC   D2A10168  30.636  11.825   8.274
  537POPC   C3A10169  30.399  11.992   7.968
  537POPC   C4A10170  30.708  12.285   7.838
  537POPC   C1B10171  30.336  12.281   8.690
  537POPC   C2B10172  30.432  12.410   8.283
  537POPC   C3B10173  30.204  12.473   7.894
  537POPC   C4B10174  30.328  12.309   7.502
  538POPC   NC310175   1.968  38.486   9.466
  538POPC   PO410176   1.355  38.475   9.501
  538POPC   GL110177   1.614  38.700   9.143
  538POPC   GL210178   2.010  38.614   9.003
  538POPC   C1A10179   1.721  38.930   8.762
  538POPC   D2A10180   1.984  38.683   8.488
  538POPC   C3A10181   1.841  38.450   8.159
  538POPC   C4A10182   1.717  38.543   7.775
  538POPC   C1B10183   2.306  38.357   8.738
  538POPC   C2B10184   2.226  38.156   8.352
  538POPC   C3B10185   2.313  38.401   7.984
  538POPC   C4B10186   2.175  38.445   7.571
  539POPC   NC310187  29.801  17.507   9.517
  539POPC   PO410188  30.479  17.627   9.411
  539POPC   GL110189  30.104  17.495   9.096
  539POPC   GL210190  29.742  17.282   9.075
  539POPC   C1A10191  30.044  17.311   8.683
  539POPC   D2A10192  29.812  17.161   8.359
  539POPC   C3A10193  30.035  17.282   8.005
  539POPC   C4A10194  29.946  17.297   7.590
  539POPC   C1B10195  29.571  17.555   8.756
  539POPC   C2B10196  29.621  17.652   8.315
  539POPC   C3B10197  29.540  17.411   7.945
  539POPC   C4B10198  29.449  17.495   7.518
  540POPC   NC310199  24.307   4.446   9.613
  540POPC   PO410200  24.763   4.081   9.429
  540POPC   GL110201  24.425   4.320   9.135
  540POPC   GL210202  24.182   4.643   9.169
  540POPC   C1A10203  24.399   4.158   8.734
  540POPC   D2A10204  24.627   4.052   8.392
  540POPC   C3A10205  24.377   4.156   8.077
  540POPC   C4A10206  24.466   4.397   7.765
  540POPC   C1B10207  24.048   4.707   8.774
  540POPC   C2B10208  24.135   4.512   8.403
  540POPC   C3B10209  24.121   4.730   8.013
  540POPC   C4B10210  24.110   4.744   7.568
  541POPC   NC310211  17.107  21.220   9.655
  541POPC   PO410212  17.737  21.354   9.795
  541POPC   GL110213  17.639  21.306   9.288
  541POPC   GL210214  17.334  21.255   9.202
  541POPC   C1A10215  17.624  21.572   8.880
  541POPC   D2A10216  17.387  21.695   8.482
  541POPC   C3A10217  17.477  21.501   8.069
  541POPC   C4A10218  17.871  21.481   7.860
  541POPC   C1B10219  17.210  21.283   8.795
  541POPC   C2B10220  17.101  21.289   8.379
  541POPC   C3B10221  17.119  21.148   7.946
  541POPC   C4B10222  17.504  21.043   7.758
  542POPC   NC310223  29.605  33.728   9.412
  542POPC   PO410224  30.094  34.133   9.411
  542POPC   GL110225  29.894  34.008   9.065
  542POPC   GL210226  29.878  33.633   9.014
  542POPC   C1A10227  29.908  33.986   8.646
  542POPC   D2A10228  29.958  33.691   8.368
  542POPC   C3A10229  29.632  33.705   8.098
  542POPC   C4A10230  29.793  33.880   7.750
  542POPC   C1B10231  29.812  33.326   8.697
  542POPC   C2B10232  29.838  33.206   8.249
  542POPC   C3B10233  30.019  33.428   7.905
  542POPC   C4B10234  30.067  33.504   7.464
  543POPC   NC310235   9.381  19.335   9.550
  543POPC   PO410236   8.795  19.469   9.548
  543POPC   GL110237   8.790  19.173   9.234
  543POPC   GL210238   9.124  19.083   9.171
  543POPC   C1A10239   8.745  19.154   8.805
  543POPC   D2A10240   8.909  19.213   8.421
  543POPC   C3A10241   8.808  18.844   8.232
  543POPC   C4A10242   8.795  18.836   7.810
  543POPC   C1B10243   9.281  19.322   8.818
  543POPC   C2B10244   9.420  19.198   8.395
  543POPC   C3B10245   9.210  19.098   8.006
  543POPC   C4B10246   9.354  19.013   7.595
  544POPC   NC310247   2.082  18.011   9.548
  544POPC   PO410248   2.428  18.654   9.473
  544POPC   GL110249   2.310  18.388   9.132
  544POPC   GL210250   1.975  18.215   9.114
  544POPC   C1A10251   2.308  18.223   8.728
  544POPC   D2A10252   2.021  18.046   8.413
  544POPC   C3A10253   2.162  18.139   8.028
  544POPC   C4A10254   1.994  18.271   7.642
  544POPC   C1B10255   1.775  18.313   8.773
  544POPC   C2B10256   1.781  18.503   8.384
  544POPC   C3B10257   1.664  18.279   8.039
  544POPC   C4B10258   1.492  18.232   7.649
  545POPC   NC310259  22.193  17.142   9.445
  545POPC   PO410260  22.593  17.671   9.659
  545POPC   GL110261  22.443  17.566   9.246
  545POPC   GL210262  22.086  17.659   9.250
  545POPC   C1A10263  22.366  17.449   8.803
  545POPC   D2A10264  22.543  17.601   8.395
  545POPC   C3A10265  22.528  17.384   8.010
  545POPC   C4A10266  22.293  17.413   7.651
  545POPC   C1B10267  21.885  17.663   8.841
  545POPC   C2B10268  21.952  17.436   8.460
  545POPC   C3B10269  22.095  17.626   8.091
  545POPC   C4B10270  21.927  18.036   7.949
  546POPC   NC310271   6.970  44.239   9.470
  546POPC   PO410272   7.542  43.944   9.653
  546POPC   GL110273   7.511  43.843   9.222
  546POPC   GL210274   7.160  43.841   9.161
  546POPC   C1A10275   7.564  43.790   8.783
  546POPC   D2A10276   7.286  43.770   8.448
  546POPC   C3A10277   7.437  43.883   8.029
  546POPC   C4A10278   7.431  43.751   7.568
  546POPC   C1B10279   7.089  44.130   8.820
  546POPC   C2B10280   7.188  44.276   8.415
  546POPC   C3B10281   7.104  44.404   8.018
  546POPC   C4B10282   7.300  44.236   7.689
  547POPC   NC310283  38.063   5.985   9.504
  547POPC   PO410284  37.376   5.760   9.606
  547POPC   GL110285  37.556   5.964   9.258
  547POPC   GL210286  37.828   5.770   9.109
  547POPC   C1A10287  37.465   6.007   8.836
  547POPC   D2A10288  37.491   5.874   8.428
  547POPC   C3A10289  37.169   5.968   8.157
  547POPC   C4A10290  37.330   5.950   7.772
  547POPC   C1B10291  37.949   5.861   8.661
  547POPC   C2B10292  38.023   5.681   8.242
  547POPC   C3B10293  37.918   5.695   7.795
  547POPC   C4B10294  37.947   5.533   7.312
  548POPC   NC310295  44.987  40.134   9.846
  548POPC   PO410296  44.501  39.835   9.516
  548POPC   GL110297  44.535  39.936   9.102
  548POPC   GL210298  44.472  40.237   9.123
  548POPC   C1A10299  44.713  40.038   8.662
  548POPC   D2A10300  44.712  39.974   8.208
  548POPC   C3A10301   0.073  39.973   7.928
  548POPC   C4A10302   0.037  40.198   7.541
  548POPC   C1B10303  44.304  40.323   8.767
  548POPC   C2B10304  44.318  40.393   8.357
  548POPC   C3B10305  44.297  40.219   7.964
  548POPC   C4B10306  44.304  40.520   7.672
  549POPC   NC310307  10.651   9.784   9.497
  549POPC   PO410308  10.111   9.350   9.497
  549POPC   GL110309  10.311   9.573   9.147
  549POPC   GL210310  10.356   9.953   9.126
  549POPC   C1A10311  10.341   9.609   8.700
  549POPC   D2A10312  10.532   9.532   8.308
  549POPC   C3A10313  10.387   9.695   7.925
  549POPC   C4A10314  10.080   9.517   7.632
  549POPC   C1B10315  10.681   9.980   8.806
  549POPC   C2B10316  10.650  10.049   8.379
  549POPC   C3B10317  10.793   9.997   7.969
  549POPC   C4B10318  10.573  10.039   7.599
  550POPC   NC310319  32.694   5.090   9.591
  550POPC   PO410320  32.042   5.133   9.641
  550POPC   GL110321  32.131   5.228   9.203
  550POPC   GL210322  32.472   5.240   9.152
  550POPC   C1A10323  32.164   5.463   8.804
  550POPC   D2A10324  32.237   5.272   8.423
  550POPC   C3A10325  32.056   5.493   8.114
  550POPC   C4A10326  32.137   5.231   7.793
  550POPC   C1B10327  32.638   5.209   8.760
  550POPC   C2B10328  32.740   5.244   8.349
  550POPC   C3B10329  32.560   5.033   8.008
  550POPC   C4B10330  32.741   4.893   7.648
  551POPC   NC310331  39.869  32.314   9.539
  551POPC   PO410332  40.367  31.873   9.495
  551POPC   GL110333  40.141  32.155   9.161
  551POPC   GL210334  40.290  32.469   9.096
  551POPC   C1A10335  39.847  32.354   8.852
  551POPC   D2A10336  39.801  32.207   8.413
  551POPC   C3A10337  40.151  32.145   8.134
  551POPC   C4A10338  40.112  32.108   7.719
  551POPC   C1B10339  40.292  32.364   8.613
  551POPC   C2B10340  40.109  32.637   8.236
  551POPC   C3B10341  40.055  32.607   7.764
  551POPC   C4B10342  39.796  32.557   7.353
  552POPC   NC310343   0.922   5.128   9.859
  552POPC   PO410344   1.451   4.858   9.716
  552POPC   GL110345   1.282   5.058   9.304
  552POPC   GL210346   1.569   5.241   9.176
  552POPC   C1A10347   1.002   5.176   8.903
  552POPC   D2A10348   1.151   5.095   8.452
  552POPC   C3A10349   1.011   5.178   7.992
  552POPC   C4A10350   1.042   5.094   7.482
  552POPC   C1B10351   1.589   5.143   8.731
  552POPC   C2B10352   1.576   5.379   8.312
  552POPC   C3B10353   1.528   5.351   7.841
  552POPC   C4B10354   1.565   5.144   7.436
  553POPC   NC310355  31.846  36.386   9.435
  553POPC   PO410356  31.219  36.465   9.389
  553POPC   GL110357  31.484  36.296   9.096
  553POPC   GL210358  31.388  35.975   9.033
  553POPC   C1A10359  31.713  36.470   8.764
  553POPC   D2A10360  31.453  36.457   8.417
  553POPC   C3A10361  31.589  36.260   8.038
  553POPC   C4A10362  31.928  36.227   7.758
  553POPC   C1B10363  31.505  35.994   8.612
  553POPC   C2B10364  31.203  36.039   8.280
  553POPC   C3B10365  31.027  35.875   7.916
  553POPC   C4B10366  31.044  36.006   7.484
  554POPC   NC310367   5.012  33.685   9.556
  554POPC   PO410368   4.417  33.895   9.301
  554POPC   GL110369   4.885  33.859   9.080
  554POPC   GL210370   5.095  33.554   9.076
  554POPC   C1A10371   5.242  33.857   8.732
  554POPC   D2A10372   5.181  34.047   8.365
  554POPC   C3A10373   5.201  33.892   7.983
  554POPC   C4A10374   4.912  33.988   7.695
  554POPC   C1B10375   4.922  33.370   8.710
  554POPC   C2B10376   4.905  33.577   8.342
  554POPC   C3B10377   5.063  33.414   8.036
  554POPC   C4B10378   5.067  33.504   7.675
  555POPC   NC310379  43.222   5.355   9.399
  555POPC   PO410380  43.142   4.706   9.548
  555POPC   GL110381  43.229   4.890   9.164
  555POPC   GL210382  42.899   5.004   9.148
  555POPC   C1A10383  43.332   4.985   8.747
  555POPC   D2A10384  43.103   4.760   8.445
  555POPC   C3A10385  43.154   4.889   8.049
  555POPC   C4A10386  42.940   4.889   7.680
  555POPC   C1B10387  42.889   5.261   8.772
  555POPC   C2B10388  42.781   5.178   8.335
  555POPC   C3B10389  42.932   5.349   7.938
  555POPC   C4B10390  43.290   5.275   7.686
  556POPC   NC310391  32.430  19.693   9.395
  556POPC   PO410392  31.768  19.731   9.331
  556POPC   GL110393  32.048  19.877   9.025
  556POPC   GL210394  32.326  20.120   9.072
  556POPC   C1A10395  31.960  19.932   8.605
  556POPC   D2A10396  31.934  19.674   8.244
  556POPC   C3A10397  32.109  19.865   7.887
  556POPC   C4A10398  31.885  20.123   7.583
  556POPC   C1B10399  32.633  20.132   8.715
  556POPC   C2B10400  32.535  20.118   8.265
  556POPC   C3B10401  32.599  19.994   7.849
  556POPC   C4B10402  32.440  20.002   7.469
  557POPC   NC310403  39.674  34.790   9.925
  557POPC   PO410404  39.123  34.587   9.498
  557POPC   GL110405  39.208  34.535   9.089
  557POPC   GL210406  39.557  34.651   9.045
  557POPC   C1A10407  39.350  34.375   8.694
  557POPC   D2A10408  39.633  34.596   8.509
  557POPC   C3A10409  39.434  34.656   8.162
  557POPC   C4A10410  39.469  34.525   7.764
  557POPC   C1B10411  39.321  34.956   8.761
  557POPC   C2B10412  39.200  35.099   8.320
  557POPC   C3B10413  39.313  35.032   7.845
  557POPC   C4B10414  39.113  34.986   7.413
  558POPC   NC310415  44.034  30.142   9.453
  558POPC   PO410416  43.565  29.711   9.432
  558POPC   GL110417  43.741  29.909   9.089
  558POPC   GL210418  44.084  29.828   9.058
  558POPC   C1A10419  43.778  30.057   8.672
  558POPC   D2A10420  43.646  30.234   8.322
  558POPC   C3A10421  43.834  30.071   7.957
  558POPC   C4A10422  43.955  29.640   7.799
  558POPC   C1B10423  44.238  30.197   8.824
  558POPC   C2B10424  44.208  30.183   8.394
  558POPC   C3B10425  44.302  29.918   8.065
  558POPC   C4B10426  44.451  30.199   7.756
  559POPC   NC310427   0.007   7.411   9.419
  559POPC   PO410428  44.416   7.099   9.476
  559POPC   GL110429  44.464   7.326   9.088
  559POPC   GL210430  44.743   7.546   8.980
  559POPC   C1A10431  44.276   7.185   8.703
  559POPC   D2A10432  44.321   7.371   8.292
  559POPC   C3A10433  44.709   7.268   8.108
  559POPC   C4A10434  44.516   7.046   7.779
  559POPC   C1B10435  44.361   7.695   8.734
  559POPC   C2B10436  44.173   7.846   8.355
  559POPC   C3B10437  44.415   7.829   7.998
  559POPC   C4B10438  44.607   7.559   7.708
  560POPC   NC310439  40.684  28.938   9.449
  560POPC   PO410440  41.149  29.415   9.532
  560POPC   GL110441  40.896  29.309   9.135
  560POPC   GL210442  40.827  28.963   8.930
  560POPC   C1A10443  40.703  29.401   8.725
  560POPC   D2A10444  40.826  29.141   8.390
  560POPC   C3A10445  40.788  29.352   8.045
  560POPC   C4A10446  40.673  29.214   7.696
  560POPC   C1B10447  41.124  28.769   8.641
  560POPC   C2B10448  41.062  28.627   8.241
  560POPC   C3B10449  41.053  28.916   7.925
  560POPC   C4B10450  40.979  28.865   7.509
  561POPC   NC310451   4.288  34.212   9.600
  561POPC   PO410452   4.270  34.857   9.590
  561POPC   GL110453   4.490  34.562   9.248
  561POPC   GL210454   4.218  34.346   9.102
  561POPC   C1A10455   4.655  34.652   8.791
  561POPC   D2A10456   4.401  34.671   8.451
  561POPC   C3A10457   4.617  34.724   8.085
  561POPC   C4A10458   4.303  34.680   7.766
  561POPC   C1B10459   4.456  34.206   8.732
  561POPC   C2B10460   4.602  34.201   8.300
  561POPC   C3B10461   4.436  34.129   7.864
  561POPC   C4B10462   4.500  34.070   7.391
  562POPC   NC310463  37.121   0.601   9.519
  562POPC   PO410464  36.817  44.999   9.554
  562POPC   GL110465  36.690   0.306   9.254
  562POPC   GL210466  37.019   0.255   9.147
  562POPC   C1A10467  36.649   0.438   8.795
  562POPC   D2A10468  36.839   0.323   8.376
  562POPC   C3A10469  36.771   0.470   7.930
  562POPC   C4A10470  36.957   0.639   7.560
  562POPC   C1B10471  37.195   0.368   8.787
  562POPC   C2B10472  37.406   0.190   8.453
  562POPC   C3B10473  37.239   0.263   8.068
  562POPC   C4B10474  37.293   0.285   7.646
  563POPC   NC310475  13.627   6.185   9.408
  563POPC   PO410476  13.843   5.579   9.515
  563POPC   GL110477  13.768   5.791   9.086
  563POPC   GL210478  13.473   5.925   9.001
  563POPC   C1A10479  13.660   5.732   8.586
  563POPC   D2A10480  13.454   5.536   8.210
  563POPC   C3A10481  13.543   5.817   7.858
  563POPC   C4A10482  13.829   6.090   7.561
  563POPC   C1B10483  13.292   6.115   8.615
  563POPC   C2B10484  13.135   5.965   8.228
  563POPC   C3B10485  13.026   6.034   7.817
  563POPC   C4B10486  13.335   6.009   7.438
  564POPC   NC310487  14.389  26.024   9.525
  564POPC   PO410488  14.098  25.561   9.126
  564POPC   GL110489  14.364  25.908   8.994
  564POPC   GL210490  14.711  26.045   9.107
  564POPC   C1A10491  14.582  25.982   8.605
  564POPC   D2A10492  14.776  25.793   8.295
  564POPC   C3A10493  14.729  25.910   7.886
  564POPC   C4A10494  14.409  25.964   7.582
  564POPC   C1B10495  14.456  26.394   8.865
  564POPC   C2B10496  14.323  26.388   8.429
  564POPC   C3B10497  14.352  26.338   7.978
  564POPC   C4B10498  14.722  26.394   7.764
  565POPC   NC310499  19.636  35.511   9.589
  565POPC   PO410500  20.202  35.226   9.446
  565POPC   GL110501  19.827  35.162   9.240
  565POPC   GL210502  19.804  35.490   9.098
  565POPC   C1A10503  19.626  35.084   8.842
  565POPC   D2A10504  19.735  35.302   8.468
  565POPC   C3A10505  19.849  35.151   8.070
  565POPC   C4A10506  19.602  35.053   7.687
  565POPC   C1B10507  19.977  35.687   8.734
  565POPC   C2B10508  19.862  35.777   8.324
  565POPC   C3B10509  20.006  35.658   7.926
  565POPC   C4B10510  19.915  35.692   7.481
  566POPC   NC310511  10.436   1.505   9.308
  566POPC   PO410512  10.564   2.063   9.579
  566POPC   GL110513  10.483   2.181   9.178
  566POPC   GL210514  10.304   1.953   9.126
  566POPC   C1A10515  10.605   2.140   8.771
  566POPC   D2A10516  10.733   1.927   8.409
  566POPC   C3A10517  10.709   2.151   8.019
  566POPC   C4A10518  10.410   2.188   7.692
  566POPC   C1B10519  10.273   1.742   8.731
  566POPC   C2B10520  10.399   1.524   8.391
  566POPC   C3B10521  10.566   1.629   8.028
  566POPC   C4B10522  10.321   1.675   7.719
  567POPC   NC310523  23.710  30.645   9.716
  567POPC   PO410524  24.179  30.245   9.486
  567POPC   GL110525  23.841  30.540   9.222
  567POPC   GL210526  23.536  30.762   9.210
  567POPC   C1A10527  23.752  30.637   8.782
  567POPC   D2A10528  23.882  30.386   8.461
  567POPC   C3A10529  24.091  30.568   8.128
  567POPC   C4A10530  24.076  30.573   7.704
  567POPC   C1B10531  23.394  31.049   8.825
  567POPC   C2B10532  23.363  31.278   8.421
  567POPC   C3B10533  23.423  31.063   8.031
  567POPC   C4B10534  23.568  30.671   7.855
  568POPC   NC310535   3.623  20.771   9.452
  568POPC   PO410536   3.061  20.547   9.733
  568POPC   GL110537   3.121  20.665   9.199
  568POPC   GL210538   3.426  20.785   9.001
  568POPC   C1A10539   3.073  20.516   8.769
  568POPC   D2A10540   3.265  20.384   8.397
  568POPC   C3A10541   3.546  20.565   8.120
  568POPC   C4A10542   3.431  20.767   7.731
  568POPC   C1B10543   3.861  20.817   8.822
  568POPC   C2B10544   3.952  20.786   8.390
  568POPC   C3B10545   3.829  20.964   7.990
  568POPC   C4B10546   3.906  20.776   7.592
  569POPC   NC310547  40.906  19.297   9.649
  569POPC   PO410548  40.707  18.667   9.536
  569POPC   GL110549  40.579  19.034   9.303
  569POPC   GL210550  40.883  19.127   9.163
  569POPC   C1A10551  40.441  19.295   8.945
  569POPC   D2A10552  40.567  19.446   8.524
  569POPC   C3A10553  40.751  19.216   8.172
  569POPC   C4A10554  40.640  19.318   7.713
  569POPC   C1B10555  40.833  19.038   8.733
  569POPC   C2B10556  41.067  18.841   8.424
  569POPC   C3B10557  41.115  18.602   8.059
  569POPC   C4B10558  40.898  18.887   7.810
  570POPC   NC310559   2.376  39.398   9.500
  570POPC   PO410560   1.741  39.091   9.461
  570POPC   GL110561   1.957  39.288   9.131
  570POPC   GL210562   2.228  39.053   9.151
  570POPC   C1A10563   2.106  39.270   8.689
  570POPC   D2A10564   1.857  39.189   8.317
  570POPC   C3A10565   1.969  39.430   7.960
  570POPC   C4A10566   2.310  39.346   7.685
  570POPC   C1B10567   2.388  38.856   8.787
  570POPC   C2B10568   2.410  38.908   8.352
  570POPC   C3B10569   2.183  38.906   7.965
  570POPC   C4B10570   2.441  38.860   7.603
  571POPC   NC310571   6.791  11.377   9.567
  571POPC   PO410572   6.707  10.718   9.702
  571POPC   GL110573   6.607  11.000   9.288
  571POPC   GL210574   6.860  11.007   8.970
  571POPC   C1A10575   6.482  11.331   8.940
  571POPC   D2A10576   6.733  11.510   8.582
  571POPC   C3A10577   6.668  11.404   8.135
  571POPC   C4A10578   6.721  11.662   7.782
  571POPC   C1B10579   6.647  10.978   8.587
  571POPC   C2B10580   6.717  10.861   8.175
  571POPC   C3B10581   6.440  10.912   7.824
  571POPC   C4B10582   6.581  10.902   7.374
  572POPC   NC310583   0.357  13.842   9.560
  572POPC   PO410584   0.836  13.507   9.269
  572POPC   GL110585   0.524  13.761   9.069
  572POPC   GL210586   0.162  13.680   9.086
  572POPC   C1A10587   0.539  13.667   8.646
  572POPC   D2A10588   0.765  13.542   8.258
  572POPC   C3A10589   0.644  13.753   7.877
  572POPC   C4A10590   0.205  13.858   7.848
  572POPC   C1B10591   0.080  13.467   8.674
  572POPC   C2B10592   0.237  13.548   8.255
  572POPC   C3B10593   0.364  13.331   7.906
  572POPC   C4B10594   0.426  13.054   7.577
  573POPC   NC310595  44.094  43.718   9.442
  573POPC   PO410596  43.564  44.161   9.565
  573POPC   GL110597  43.740  44.002   9.182
  573POPC   GL210598  43.729  43.628   9.071
  573POPC   C1A10599  43.902  44.184   8.798
  573POPC   D2A10600  44.131  44.100   8.392
  573POPC   C3A10601  43.874  43.798   8.142
  573POPC   C4A10602  43.621  43.849   7.773
  573POPC   C1B10603  44.121  43.701   8.760
  573POPC   C2B10604  44.314  43.607   8.329
  573POPC   C3B10605  44.254  43.581   7.825
  573POPC   C4B10606  44.106  43.530   7.359
  574POPC   NC310607  25.056   9.413   9.823
  574POPC   PO410608  25.548   9.117   9.456
  574POPC   GL110609  25.413   8.973   9.090
  574POPC   GL210610  25.144   8.779   9.120
  574POPC   C1A10611  25.485   8.948   8.665
  574POPC   D2A10612  25.177   8.950   8.345
  574POPC   C3A10613  25.333   9.071   7.942
  574POPC   C4A10614  25.103   9.350   7.671
  574POPC   C1B10615  25.161   8.568   8.731
  574POPC   C2B10616  25.236   8.431   8.319
  574POPC   C3B10617  24.978   8.619   8.001
  574POPC   C4B10618  24.985   8.838   7.643
  575POPC   NC310619   3.873  32.683   9.471
  575POPC   PO410620   4.363  33.143   9.754
  575POPC   GL110621   4.383  33.054   9.269
  575POPC   GL210622   4.200  32.834   9.137
  575POPC   C1A10623   4.341  33.136   8.772
  575POPC   D2A10624   4.453  33.320   8.378
  575POPC   C3A10625   4.400  33.100   7.980
  575POPC   C4A10626   4.455  33.182   7.534
  575POPC   C1B10627   3.936  32.806   8.776
  575POPC   C2B10628   4.032  32.999   8.381
  575POPC   C3B10629   3.941  32.883   7.953
  575POPC   C4B10630   4.092  32.860   7.539
  576POPC   NC310631  26.657  18.294   9.491
  576POPC   PO410632  25.967  18.537   9.562
  576POPC   GL110633  25.890  18.315   9.197
  576POPC   GL210634  26.236  18.407   9.114
  576POPC   C1A10635  25.966  18.168   8.754
  576POPC   D2A10636  26.064  18.399   8.382
  576POPC   C3A10637  26.059  18.217   7.958
  576POPC   C4A10638  25.800  17.995   7.661
  576POPC   C1B10639  26.373  18.720   8.832
  576POPC   C2B10640  26.570  18.805   8.451
  576POPC   C3B10641  26.442  18.561   8.092
  576POPC   C4B10642  26.200  18.645   7.707
  577POPC   NC310643  37.972  41.225   9.448
  577POPC   PO410644  37.569  41.864   9.504
  577POPC   GL110645  37.438  41.763   9.118
  577POPC   GL210646  37.519  41.432   9.136
  577POPC   C1A10647  37.476  41.925   8.705
  577POPC   D2A10648  37.454  41.901   8.270
  577POPC   C3A10649  37.736  41.647   8.022
  577POPC   C4A10650  37.929  41.799   7.648
  577POPC   C1B10651  37.679  41.456   8.732
  577POPC   C2B10652  37.743  41.135   8.460
  577POPC   C3B10653  37.777  41.135   8.029
  577POPC   C4B10654  37.575  41.123   7.630
  578POPC   NC310655   2.226  31.293   9.507
  578POPC   PO410656   1.562  31.523   9.594
  578POPC   GL110657   1.746  31.691   9.213
  578POPC   GL210658   2.111  31.832   9.237
  578POPC   C1A10659   1.914  31.433   8.934
  578POPC   D2A10660   1.921  31.419   8.527
  578POPC   C3A10661   1.649  31.567   8.235
  578POPC   C4A10662   1.753  31.347   7.869
  578POPC   C1B10663   2.005  31.916   8.783
  578POPC   C2B10664   2.133  31.848   8.348
  578POPC   C3B10665   2.122  31.694   7.901
  578POPC   C4B10666   2.139  31.860   7.464
  579POPC   NC310667  34.743  44.782   9.623
  579POPC   PO410668  34.350  44.227   9.637
  579POPC   GL110669  34.500  44.510   9.241
  579POPC   GL210670  34.846  44.660   9.128
  579POPC   C1A10671  34.407  44.560   8.787
  579POPC   D2A10672  34.189  44.326   8.436
  579POPC   C3A10673  34.294  44.481   8.028
  579POPC   C4A10674  34.542  44.857   7.864
  579POPC   C1B10675  34.916  44.542   8.700
  579POPC   C2B10676  34.712  44.650   8.311
  579POPC   C3B10677  34.799  44.423   7.900
  579POPC   C4B10678  34.863  44.519   7.457
  580POPC   NC310679  16.954  41.899   9.437
  580POPC   PO410680  16.903  41.286   9.471
  580POPC   GL110681  16.641  41.398   9.099
  580POPC   GL210682  16.602  41.734   9.040
  580POPC   C1A10683  16.685  41.400   8.652
  580POPC   D2A10684  16.634  41.154   8.291
  580POPC   C3A10685  16.789  41.257   7.885
  580POPC   C4A10686  16.522  41.210   7.533
  580POPC   C1B10687  16.816  41.888   8.721
  580POPC   C2B10688  16.668  41.965   8.324
  580POPC   C3B10689  16.683  41.784   7.898
  580POPC   C4B10690  16.547  42.018   7.514
  581POPC   NC310691  33.821   3.047   9.543
  581POPC   PO410692  34.211   2.499   9.542
  581POPC   GL110693  34.136   2.792   9.203
  581POPC   GL210694  33.790   2.805   9.108
  581POPC   C1A10695  34.123   2.693   8.732
  581POPC   D2A10696  33.794   2.778   8.400
  581POPC   C3A10697  33.870   2.689   7.965
  581POPC   C4A10698  33.928   2.820   7.558
  581POPC   C1B10699  33.648   2.495   8.827
  581POPC   C2B10700  33.330   2.511   8.550
  581POPC   C3B10701  33.410   2.533   8.136
  581POPC   C4B10702  33.584   2.310   7.792
  582POPC   NC310703  32.884   4.380   9.481
  582POPC   PO410704  33.396   4.785   9.595
  582POPC   GL110705  33.201   4.472   9.119
  582POPC   GL210706  32.769   4.492   9.019
  582POPC   C1A10707  33.082   4.275   8.712
  582POPC   D2A10708  33.216   4.323   8.321
  582POPC   C3A10709  33.058   3.986   8.095
  582POPC   C4A10710  32.742   4.030   7.790
  582POPC   C1B10711  32.559   4.253   8.724
  582POPC   C2B10712  32.658   4.273   8.282
  582POPC   C3B10713  32.600   4.499   7.903
  582POPC   C4B10714  32.555   4.498   7.384
  583POPC   NC310715  16.160  38.020   9.687
  583POPC   PO410716  15.618  37.643   9.579
  583POPC   GL110717  15.787  37.676   9.147
  583POPC   GL210718  15.446  37.637   9.080
  583POPC   C1A10719  16.077  37.495   8.785
  583POPC   D2A10720  16.204  37.274   8.365
  583POPC   C3A10721  16.167  37.525   7.982
  583POPC   C4A10722  16.205  37.927   7.756
  583POPC   C1B10723  15.565  37.572   8.694
  583POPC   C2B10724  15.817  37.631   8.353
  583POPC   C3B10725  15.702  37.815   7.984
  583POPC   C4B10726  15.778  37.731   7.562
  584POPC   NC310727  43.849   5.503   9.517
  584POPC   PO410728  44.126   6.143   9.519
  584POPC   GL110729  44.061   5.833   9.186
  584POPC   GL210730  43.696   5.730   9.105
  584POPC   C1A10731  44.095   5.800   8.757
  584POPC   D2A10732  44.234   6.035   8.407
  584POPC   C3A10733  44.053   5.832   8.064
  584POPC   C4A10734  44.016   5.947   7.655
  584POPC   C1B10735  43.635   6.023   8.798
  584POPC   C2B10736  43.714   6.133   8.368
  584POPC   C3B10737  43.587   6.053   7.937
  584POPC   C4B10738  43.526   6.112   7.487
  585POPC   NC310739  26.525  42.620   9.577
  585POPC   PO410740  27.021  42.111   9.449
  585POPC   GL110741  26.805  42.402   9.175
  585POPC   GL210742  26.473  42.317   9.125
  585POPC   C1A10743  26.736  42.562   8.756
  585POPC   D2A10744  26.490  42.454   8.391
  585POPC   C3A10745  26.732  42.456   7.989
  585POPC   C4A10746  27.036  42.672   7.724
  585POPC   C1B10747  26.581  42.046   8.758
  585POPC   C2B10748  26.671  41.820   8.374
  585POPC   C3B10749  26.638  41.946   7.975
  585POPC   C4B10750  26.907  41.985   7.620
  586POPC   NC310751  44.532  17.287   9.735
  586POPC   PO410752  44.099  17.048   9.316
  586POPC   GL110753  44.487  17.295   9.230
  586POPC   GL210754  44.841  17.174   9.290
  586POPC   C1A10755  44.467  17.514   8.859
  586POPC   D2A10756  44.624  17.390   8.478
  586POPC   C3A10757  44.459  17.503   8.111
  586POPC   C4A10758  44.537  17.207   7.780
  586POPC   C1B10759  44.955  17.360   8.877
  586POPC   C2B10760   0.136  17.401   8.444
  586POPC   C3B10761  44.979  17.352   8.029
  586POPC   C4B10762  44.798  17.660   7.764
  587POPC   NC310763  18.075  16.851   9.425
  587POPC   PO410764  18.625  17.091   9.756
  587POPC   GL110765  18.604  16.838   9.325
  587POPC   GL210766  18.614  17.051   9.061
  587POPC   C1A10767  18.425  16.623   8.890
  587POPC   D2A10768  18.179  16.334   8.620
  587POPC   C3A10769  18.179  16.481   8.170
  587POPC   C4A10770  18.426  16.730   7.862
  587POPC   C1B10771  18.256  17.060   8.715
  587POPC   C2B10772  18.133  17.020   8.258
  587POPC   C3B10773  18.125  17.170   7.814
  587POPC   C4B10774  18.302  17.039   7.418
  588POPC   NC310775  23.995   5.905   9.622
  588POPC   PO410776  23.547   5.493   9.334
  588POPC   GL110777  23.612   5.686   9.025
  588POPC   GL210778  23.796   5.943   9.111
  588POPC   C1A10779  23.461   5.561   8.666
  588POPC   D2A10780  23.432   5.539   8.273
  588POPC   C3A10781  23.738   5.607   8.064
  588POPC   C4A10782  23.671   5.593   7.668
  588POPC   C1B10783  23.766   5.991   8.658
  588POPC   C2B10784  23.881   6.079   8.249
  588POPC   C3B10785  23.683   6.075   7.846
  588POPC   C4B10786  23.368   6.194   7.557
  589POPC   NC310787   5.541  32.923   9.576
  589POPC   PO410788   6.189  33.036   9.563
  589POPC   GL110789   5.959  32.851   9.240
  589POPC   GL210790   5.823  33.176   9.203
  589POPC   C1A10791   5.714  32.745   8.862
  589POPC   D2A10792   5.661  32.884   8.432
  589POPC   C3A10793   5.945  32.959   8.125
  589POPC   C4A10794   5.873  33.116   7.734
  589POPC   C1B10795   6.014  33.156   8.803
  589POPC   C2B10796   5.941  33.369   8.444
  589POPC   C3B10797   6.095  33.449   8.038
  589POPC   C4B10798   6.221  33.481   7.587
  590POPC   NC310799  13.814  25.576   9.492
  590POPC   PO410800  13.519  26.128   9.712
  590POPC   GL110801  13.576  25.995   9.280
  590POPC   GL210802  13.927  26.079   9.260
  590POPC   C1A10803  13.479  26.056   8.832
  590POPC   D2A10804  13.552  26.338   8.472
  590POPC   C3A10805  13.495  26.170   8.044
  590POPC   C4A10806  13.298  25.842   7.824
  590POPC   C1B10807  13.968  26.224   8.832
  590POPC   C2B10808  14.059  25.928   8.499
  590POPC   C3B10809  14.237  25.862   8.096
  590POPC   C4B10810  13.934  26.043   7.756
  591POPC   NC310811   5.625  37.093   9.416
  591POPC   PO410812   6.139  36.693   9.424
  591POPC   GL110813   5.920  36.512   9.088
  591POPC   GL210814   5.562  36.521   9.087
  591POPC   C1A10815   5.938  36.518   8.664
  591POPC   D2A10816   5.751  36.557   8.259
  591POPC   C3A10817   5.983  36.629   7.866
  591POPC   C4A10818   6.005  37.104   7.779
  591POPC   C1B10819   5.599  36.888   8.781
  591POPC   C2B10820   5.542  37.283   8.517
  591POPC   C3B10821   5.567  37.258   8.045
  591POPC   C4B10822   5.502  36.823   7.886
  592POPC   NC310823   8.024   0.670   9.574
  592POPC   PO410824   8.610   0.259   9.543
  592POPC   GL110825   8.328   0.455   9.211
  592POPC   GL210826   7.944   0.451   9.129
  592POPC   C1A10827   8.335   0.716   8.840
  592POPC   D2A10828   8.642   0.787   8.504
  592POPC   C3A10829   8.457   0.750   8.101
  592POPC   C4A10830   8.582   0.497   7.773
  592POPC   C1B10831   8.051   0.276   8.757
  592POPC   C2B10832   8.188   0.444   8.396
  592POPC   C3B10833   8.227   0.201   8.029
  592POPC   C4B10834   8.267   0.121   7.622
  593POPC   NC310835  14.165  10.828   9.533
  593POPC   PO410836  14.324  10.169   9.549
  593POPC   GL110837  14.351  10.290   9.145
  593POPC   GL210838  14.506  10.605   9.191
  593POPC   C1A10839  14.313  10.442   8.721
  593POPC   D2A10840  14.418  10.495   8.289
  593POPC   C3A10841  14.152  10.244   8.011
  593POPC   C4A10842  13.959  10.095   7.672
  593POPC   C1B10843  14.646  10.829   8.841
  593POPC   C2B10844  14.519  10.986   8.452
  593POPC   C3B10845  14.489  10.959   8.037
  593POPC   C4B10846  14.388  10.633   7.796
  594POPC   NC310847   1.727   4.746   9.369
  594POPC   PO410848   2.146   4.292   9.744
  594POPC   GL110849   2.067   4.339   9.292
  594POPC   GL210850   2.145   4.624   9.096
  594POPC   C1A10851   2.138   4.103   8.914
  594POPC   D2A10852   2.282   4.274   8.555
  594POPC   C3A10853   2.142   4.041   8.215
  594POPC   C4A10854   1.917   4.182   7.846
  594POPC   C1B10855   1.853   4.492   8.746
  594POPC   C2B10856   1.918   4.516   8.278
  594POPC   C3B10857   2.107   4.645   7.880
  594POPC   C4B10858   1.717   4.733   7.693
  595POPC   NC310859  26.963  12.776   9.561
  595POPC   PO410860  26.476  13.272   9.289
  595POPC   GL110861  26.839  12.993   9.112
  595POPC   GL210862  26.886  12.582   9.114
  595POPC   C1A10863  26.904  12.862   8.689
  595POPC   D2A10864  27.067  12.851   8.300
  595POPC   C3A10865  26.849  13.115   8.049
  595POPC   C4A10866  26.650  12.928   7.779
  595POPC   C1B10867  27.078  12.369   8.755
  595POPC   C2B10868  27.281  12.379   8.349
  595POPC   C3B10869  27.069  12.447   7.948
  595POPC   C4B10870  27.117  12.539   7.487
  596POPC   NC310871  42.662  12.586   9.482
  596POPC   PO410872  43.185  13.096   9.519
  596POPC   GL110873  42.934  12.991   9.164
  596POPC   GL210874  43.043  12.664   9.125
  596POPC   C1A10875  42.903  12.888   8.708
  596POPC   D2A10876  42.984  13.114   8.357
  596POPC   C3A10877  43.110  12.982   7.998
  596POPC   C4A10878  42.865  12.932   7.667
  596POPC   C1B10879  43.333  12.605   8.788
  596POPC   C2B10880  43.217  12.631   8.366
  596POPC   C3B10881  43.413  12.585   7.969
  596POPC   C4B10882  43.160  12.490   7.628
  597POPC   NC310883   6.989  16.418   9.368
  597POPC   PO410884   6.339  16.605   9.540
  597POPC   GL110885   6.569  16.685   9.171
  597POPC   GL210886   6.864  16.928   9.138
  597POPC   C1A10887   6.562  16.775   8.758
  597POPC   D2A10888   6.709  16.648   8.387
  597POPC   C3A10889   6.440  16.821   8.095
  597POPC   C4A10890   6.256  16.728   7.714
  597POPC   C1B10891   6.948  17.116   8.690
  597POPC   C2B10892   6.897  17.117   8.206
  597POPC   C3B10893   6.836  16.931   7.762
  597POPC   C4B10894   7.101  16.907   7.362
  598POPC   NC310895   4.875  16.496   9.649
  598POPC   PO410896   5.223  17.064   9.676
  598POPC   GL110897   5.225  16.949   9.232
  598POPC   GL210898   4.865  16.882   9.154
  598POPC   C1A10899   5.262  16.755   8.811
  598POPC   D2A10900   5.148  16.480   8.463
  598POPC   C3A10901   5.370  16.679   8.130
  598POPC   C4A10902   5.229  16.949   7.818
  598POPC   C1B10903   4.652  16.830   8.741
  598POPC   C2B10904   4.562  16.704   8.311
  598POPC   C3B10905   4.888  16.583   8.008
  598POPC   C4B10906   4.831  16.429   7.590
  599POPC   NC310907   8.604  25.334   9.564
  599POPC   PO410908   9.172  25.649   9.565
  599POPC   GL110909   8.984  25.408   9.229
  599POPC   GL210910   8.974  25.039   9.320
  599POPC   C1A10911   9.104  25.428   8.799
  599POPC   D2A10912   9.328  25.310   8.441
  599POPC   C3A10913   9.062  25.496   8.140
  599POPC   C4A10914   9.099  25.386   7.731
  599POPC   C1B10915   8.820  25.007   8.906
  599POPC   C2B10916   8.877  25.043   8.455
  599POPC   C3B10917   9.041  24.963   8.036
  599POPC   C4B10918   8.825  24.941   7.646
  600POPC   NC310919  13.122  30.576   9.516
  600POPC   PO410920  13.178  31.190   9.434
  600POPC   GL110921  12.888  30.923   9.162
  600POPC   GL210922  12.760  30.536   9.164
  600POPC   C1A10923  12.708  30.865   8.749
  600POPC   D2A10924  12.580  30.609   8.388
  600POPC   C3A10925  12.706  30.860   8.054
  600POPC   C4A10926  12.613  30.885   7.621
  600POPC   C1B10927  13.084  30.520   8.848
  600POPC   C2B10928  13.082  30.682   8.433
  600POPC   C3B10929  13.011  30.469   8.067
  600POPC   C4B10930  13.018  30.568   7.632
  601POPC   NC310931  35.331  40.819   9.558
  601POPC   PO410932  35.798  40.499   9.240
  601POPC   GL110933  35.399  40.602   9.072
  601POPC   GL210934  35.074  40.508   9.198
  601POPC   C1A10935  35.288  40.580   8.651
  601POPC   D2A10936  35.436  40.866   8.356
  601POPC   C3A10937  35.420  40.737   7.943
  601POPC   C4A10938  35.587  41.046   7.695
  601POPC   C1B10939  34.902  40.809   8.904
  601POPC   C2B10940  34.860  40.980   8.506
  601POPC   C3B10941  34.988  40.948   8.095
  601POPC   C4B10942  34.949  40.571   7.853
  602POPC   NC310943  24.940   1.222   9.647
  602POPC   PO410944  25.450   1.653   9.471
  602POPC   GL110945  25.134   1.337   9.183
  602POPC   GL210946  24.979   0.935   9.225
  602POPC   C1A10947  25.144   1.114   8.774
  602POPC   D2A10948  25.374   0.881   8.473
  602POPC   C3A10949  25.246   1.084   8.138
  602POPC   C4A10950  25.264   1.041   7.722
  602POPC   C1B10951  24.729   0.810   8.843
  602POPC   C2B10952  24.805   0.948   8.385
  602POPC   C3B10953  24.844   0.838   7.933
  602POPC   C4B10954  24.865   0.868   7.444
  603POPC   NC310955   4.741  18.087   9.423
  603POPC   PO410956   5.262  18.549   9.524
  603POPC   GL110957   5.246  18.292   9.147
  603POPC   GL210958   5.584  18.297   9.002
  603POPC   C1A10959   5.124  18.493   8.735
  603POPC   D2A10960   5.242  18.701   8.348
  603POPC   C3A10961   4.966  18.730   8.000
  603POPC   C4A10962   4.823  18.382   7.747
  603POPC   C1B10963   5.368  18.051   8.691
  603POPC   C2B10964   5.126  18.109   8.361
  603POPC   C3B10965   5.257  18.296   7.997
  603POPC   C4B10966   5.280  18.115   7.565
  604POPC   NC310967  28.908  37.011   9.514
  604POPC   PO410968  29.339  36.523   9.292
  604POPC   GL110969  29.083  36.839   9.039
  604POPC   GL210970  28.729  37.023   9.040
  604POPC   C1A10971  29.048  36.792   8.596
  604POPC   D2A10972  29.264  36.631   8.233
  604POPC   C3A10973  29.405  36.975   7.971
  604POPC   C4A10974  29.401  37.071   7.517
  604POPC   C1B10975  28.615  36.636   8.832
  604POPC   C2B10976  28.677  36.490   8.409
  604POPC   C3B10977  28.800  36.764   8.093
  604POPC   C4B10978  28.989  36.833   7.721
  605POPC   NC310979  38.752   0.117   9.339
  605POPC   PO410980  38.445   0.762   9.518
  605POPC   GL110981  38.477   0.584   9.081
  605POPC   GL210982  38.215   0.798   8.888
  605POPC   C1A10983  38.537   0.332   8.695
  605POPC   D2A10984  38.400   0.007   8.388
  605POPC   C3A10985  38.598   0.048   7.968
  605POPC   C4A10986  38.608   0.502   7.863
  605POPC   C1B10987  38.422   0.910   8.535
  605POPC   C2B10988  38.212   0.946   8.166
  605POPC   C3B10989  38.096   0.704   7.866
  605POPC   C4B10990  38.141   0.261   7.816
  606POPC   NC310991   5.605   3.876   9.514
  606POPC   PO410992   5.159   3.349   9.525
  606POPC   GL110993   5.224   3.278   9.143
  606POPC   GL210994   4.974   3.104   9.018
  606POPC   C1A10995   5.120   3.533   8.778
  606POPC   D2A10996   4.977   3.777   8.436
  606POPC   C3A10997   5.103   3.616   8.038
  606POPC   C4A10998   5.231   3.316   7.724
  606POPC   C1B10999   4.677   3.252   8.722
  606POPC   C2B11000   4.637   3.391   8.333
  606POPC   C3B11001   4.763   3.164   7.985
  606POPC   C4B11002   4.737   3.459   7.710
  607POPC   NC311003   3.608  27.071   9.318
  607POPC   PO411004   3.759  26.464   9.504
  607POPC   GL111005   3.794  26.637   9.138
  607POPC   GL211006   4.094  26.877   9.157
  607POPC   C1A11007   3.564  26.707   8.728
  607POPC   D2A11008   3.316  26.720   8.342
  607POPC   C3A11009   3.474  26.890   7.963
  607POPC   C4A11010   3.340  26.802   7.555
  607POPC   C1B11011   4.099  26.630   8.761
  607POPC   C2B11012   3.941  26.787   8.367
  607POPC   C3B11013   3.983  27.004   7.981
  607POPC   C4B11014   3.863  26.765   7.636
  608POPC   NC311015  28.765  20.806   9.801
  608POPC   PO411016  29.313  20.558   9.517
  608POPC   GL111017  29.324  20.586   9.053
  608POPC   GL211018  28.987  20.436   9.041
  608POPC   C1A11019  29.319  20.410   8.639
  608POPC   D2A11020  28.992  20.372   8.319
  608POPC   C3A11021  29.070  20.629   8.013
  608POPC   C4A11022  29.328  20.727   7.683
  608POPC   C1B11023  28.895  20.713   8.686
  608POPC   C2B11024  28.686  20.881   8.312
  608POPC   C3B11025  28.673  20.912   7.870
  608POPC   C4B11026  28.853  20.669   7.555
  609POPC   NC311027  41.185  42.033   9.478
  609POPC   PO411028  41.733  42.345   9.664
  609POPC   GL111029  41.584  42.463   9.183
  609POPC   GL211030  41.339  42.251   9.068
  609POPC   C1A11031  41.664  42.365   8.711
  609POPC   D2A11032  41.773  42.351   8.273
  609POPC   C3A11033  41.553  42.552   7.921
  609POPC   C4A11034  41.558  42.443   7.449
  609POPC   C1B11035  41.330  41.970   8.783
  609POPC   C2B11036  41.268  42.132   8.421
  609POPC   C3B11037  41.420  42.018   8.067
  609POPC   C4B11038  41.576  41.997   7.706
  610POPC   NC311039  10.660  30.145   9.368
  610POPC   PO411040  10.231  29.671   9.514
  610POPC   GL111041  10.427  29.672   9.134
  610POPC   GL211042  10.791  29.688   9.208
  610POPC   C1A11043  10.343  29.912   8.750
  610POPC   D2A11044  10.525  29.884   8.351
  610POPC   C3A11045  10.477  30.146   8.039
  610POPC   C4A11046  10.887  30.161   7.812
  610POPC   C1B11047  10.802  29.604   8.777
  610POPC   C2B11048  10.821  29.461   8.368
  610POPC   C3B11049  10.853  29.653   7.990
  610POPC   C4B11050  10.495  29.695   7.799
  611POPC   NC311051  25.654  41.151   9.552
  611POPC   PO411052  25.235  40.624   9.498
  611POPC   GL111053  25.462  40.820   9.171
  611POPC   GL211054  25.359  41.150   9.106
  611POPC   C1A11055  25.519  40.857   8.727
  611POPC   D2A11056  25.236  40.928   8.416
  611POPC   C3A11057  25.436  40.994   8.052
  611POPC   C4A11058  25.535  41.204   7.686
  611POPC   C1B11059  24.975  41.093   8.841
  611POPC   C2B11060  24.712  41.026   8.445
  611POPC   C3B11061  24.870  40.906   8.056
  611POPC   C4B11062  25.032  41.133   7.739
  612POPC   NC311063  10.629  36.878   9.617
  612POPC   PO411064  10.145  37.361   9.584
  612POPC   GL111065  10.378  37.108   9.233
  612POPC   GL211066  10.781  37.039   9.181
  612POPC   C1A11067  10.483  37.086   8.780
  612POPC   D2A11068  10.352  36.808   8.489
  612POPC   C3A11069  10.479  36.764   8.091
  612POPC   C4A11070  10.333  36.603   7.736
  612POPC   C1B11071  10.818  36.733   8.835
  612POPC   C2B11072  10.804  36.558   8.451
  612POPC   C3B11073  10.976  36.687   8.070
  612POPC   C4B11074  10.809  36.879   7.693
  613POPC   NC311075  42.670  40.909   9.833
  613POPC   PO411076  42.386  41.226   9.315
  613POPC   GL111077  42.166  40.892   9.155
  613POPC   GL211078  42.205  40.532   9.282
  613POPC   C1A11079  42.251  40.945   8.718
  613POPC   D2A11080  42.292  41.066   8.325
  613POPC   C3A11081  42.650  40.886   8.118
  613POPC   C4A11082  42.499  40.822   7.718
  613POPC   C1B11083  42.086  40.475   8.850
  613POPC   C2B11084  42.325  40.501   8.469
  613POPC   C3B11085  42.206  40.593   8.088
  613POPC   C4B11086  42.206  40.411   7.712
  614POPC   NC311087  42.391  44.272   9.522
  614POPC   PO411088  42.544  44.967   9.538
  614POPC   GL111089  42.285  44.834   9.194
  614POPC   GL211090  42.517  44.603   9.160
  614POPC   C1A11091  42.202  44.767   8.743
  614POPC   D2A11092  42.032  44.631   8.319
  614POPC   C3A11093  42.150  44.866   7.951
  614POPC   C4A11094  42.448  44.781   7.614
  614POPC   C1B11095  42.696  44.509   8.819
  614POPC   C2B11096  42.527  44.422   8.443
  614POPC   C3B11097  42.642  44.521   8.018
  614POPC   C4B11098  42.780  44.420   7.569
  615POPC   NC311099  29.995  19.369   9.573
  615POPC   PO411100  29.961  18.750   9.436
  615POPC   GL111101  29.990  19.058   9.160
  615POPC   GL211102  29.664  19.195   9.231
  615POPC   C1A11103  30.150  19.327   8.863
  615POPC   D2A11104  30.190  19.377   8.434
  615POPC   C3A11105  30.140  19.045   8.153
  615POPC   C4A11106  29.948  19.128   7.787
  615POPC   C1B11107  29.640  19.322   8.812
  615POPC   C2B11108  29.679  19.121   8.408
  615POPC   C3B11109  29.500  19.243   8.010
  615POPC   C4B11110  29.587  19.438   7.623
  616POPC   NC311111  10.287  21.530   9.654
  616POPC   PO411112  10.838  21.225   9.784
  616POPC   GL111113  10.716  21.522   9.350
  616POPC   GL211114  10.377  21.424   9.146
  616POPC   C1A11115  10.809  21.545   8.877
  616POPC   D2A11116  10.822  21.774   8.462
  616POPC   C3A11117  10.866  21.599   8.051
  616POPC   C4A11118  10.835  21.220   7.794
  616POPC   C1B11119  10.391  21.128   8.749
  616POPC   C2B11120  10.514  21.053   8.315
  616POPC   C3B11121  10.416  21.391   8.056
  616POPC   C4B11122  10.323  21.602   7.701
  617POPC   NC311123  34.564  17.566   9.482
  617POPC   PO411124  34.831  18.090   9.412
  617POPC   GL111125  34.776  17.791   9.087
  617POPC   GL211126  34.717  17.380   9.045
  617POPC   C1A11127  34.516  17.755   8.753
  617POPC   D2A11128  34.661  17.716   8.358
  617POPC   C3A11129  34.631  17.786   7.935
  617POPC   C4A11130  34.702  17.413   7.803
  617POPC   C1B11131  34.540  17.198   8.657
  617POPC   C2B11132  34.386  17.303   8.234
  617POPC   C3B11133  34.297  17.106   7.822
  617POPC   C4B11134  34.045  17.170   7.430
  618POPC   NC311135  22.456  27.920   9.524
  618POPC   PO411136  22.014  27.442   9.717
  618POPC   GL111137  22.125  27.591   9.329
  618POPC   GL211138  22.457  27.428   9.342
  618POPC   C1A11139  22.106  27.605   8.902
  618POPC   D2A11140  22.141  27.506   8.484
  618POPC   C3A11141  22.206  27.766   8.136
  618POPC   C4A11142  22.097  27.583   7.736
  618POPC   C1B11143  22.569  27.339   8.873
  618POPC   C2B11144  22.657  27.466   8.417
  618POPC   C3B11145  22.514  27.362   8.010
  618POPC   C4B11146  22.549  27.368   7.570
  619POPC   NC311147   3.296   6.354   9.496
  619POPC   PO411148   3.538   5.715   9.510
  619POPC   GL111149   3.548   5.984   9.163
  619POPC   GL211150   3.179   5.950   9.198
  619POPC   C1A11151   3.486   5.882   8.703
  619POPC   D2A11152   3.643   5.722   8.316
  619POPC   C3A11153   3.852   5.958   8.039
  619POPC   C4A11154   3.629   6.017   7.688
  619POPC   C1B11155   3.187   6.239   8.881
  619POPC   C2B11156   3.212   6.305   8.475
  619POPC   C3B11157   3.377   6.157   8.123
  619POPC   C4B11158   3.367   6.438   7.784
  620POPC   NC311159   9.092   1.766   9.732
  620POPC   PO411160   9.117   1.120   9.573
  620POPC   GL111161   9.266   1.380   9.240
  620POPC   GL211162   8.931   1.534   9.295
  620POPC   C1A11163   9.354   1.252   8.801
  620POPC   D2A11164   9.482   1.173   8.364
  620POPC   C3A11165   9.079   1.064   8.170
  620POPC   C4A11166   8.797   0.987   7.820
  620POPC   C1B11167   8.933   1.603   8.866
  620POPC   C2B11168   8.855   1.412   8.489
  620POPC   C3B11169   8.812   1.502   8.064
  620POPC   C4B11170   9.094   1.427   7.777
  621POPC   NC311171  38.129  28.557   9.494
  621POPC   PO411172  37.504  28.193   9.355
  621POPC   GL111173  37.668  28.493   9.099
  621POPC   GL211174  37.980  28.336   9.057
  621POPC   C1A11175  37.437  28.698   8.764
  621POPC   D2A11176  37.523  28.749   8.322
  621POPC   C3A11177  37.599  28.351   8.133
  621POPC   C4A11178  37.472  28.393   7.747
  621POPC   C1B11179  37.852  28.398   8.612
  621POPC   C2B11180  38.034  28.620   8.239
  621POPC   C3B11181  37.961  28.524   7.809
  621POPC   C4B11182  37.849  28.161   7.511
  622POPC   NC311183   4.704   3.141   9.463
  622POPC   PO411184   5.238   2.727   9.548
  622POPC   GL111185   5.119   2.625   9.164
  622POPC   GL211186   4.785   2.680   9.225
  622POPC   C1A11187   5.187   2.731   8.748
  622POPC   D2A11188   5.040   3.016   8.438
  622POPC   C3A11189   5.176   2.832   8.061
  622POPC   C4A11190   5.195   2.815   7.625
  622POPC   C1B11191   4.688   2.740   8.797
  622POPC   C2B11192   4.767   2.566   8.422
  622POPC   C3B11193   4.686   2.640   8.023
  622POPC   C4B11194   4.719   2.689   7.623
  623POPC   NC311195  33.450  32.113   9.456
  623POPC   PO411196  33.814  32.430   9.855
  623POPC   GL111197  33.802  32.323   9.188
  623POPC   GL211198  33.508  32.324   8.998
  623POPC   C1A11199  33.977  32.245   8.761
  623POPC   D2A11200  33.900  32.088   8.334
  623POPC   C3A11201  33.979  32.267   7.920
  623POPC   C4A11202  33.858  32.221   7.474
  623POPC   C1B11203  33.457  32.266   8.589
  623POPC   C2B11204  33.554  32.474   8.217
  623POPC   C3B11205  33.495  32.424   7.786
  623POPC   C4B11206  33.435  32.438   7.315
  624POPC   NC311207  32.728  36.014   9.471
  624POPC   PO411208  33.360  36.152   9.245
  624POPC   GL111209  32.986  36.078   9.027
  624POPC   GL211210  32.701  36.357   9.106
  624POPC   C1A11211  33.124  36.065   8.595
  624POPC   D2A11212  33.209  36.330   8.264
  624POPC   C3A11213  33.144  36.148   7.858
  624POPC   C4A11214  33.236  36.105   7.364
  624POPC   C1B11215  32.911  36.496   8.764
  624POPC   C2B11216  32.730  36.338   8.396
  624POPC   C3B11217  32.759  36.458   7.992
  624POPC   C4B11218  32.896  36.461   7.557
  625POPC   NC311219   5.424  19.026   9.501
  625POPC   PO411220   4.700  19.204   9.545
  625POPC   GL111221   5.054  19.074   9.165
  625POPC   GL211222   5.351  18.789   9.078
  625POPC   C1A11223   5.160  19.062   8.714
  625POPC   D2A11224   4.868  19.073   8.382
  625POPC   C3A11225   5.010  19.271   8.025
  625POPC   C4A11226   5.155  19.085   7.660
  625POPC   C1B11227   5.617  18.722   8.724
  625POPC   C2B11228   5.752  18.680   8.302
  625POPC   C3B11229   5.525  18.733   7.909
  625POPC   C4B11230   5.257  18.613   7.579
  626POPC   NC311231  21.862   1.367   9.463
  626POPC   PO411232  22.467   1.246   9.463
  626POPC   GL111233  22.241   1.197   9.128
  626POPC   GL211234  21.970   0.927   9.189
  626POPC   C1A11235  22.370   1.376   8.752
  626POPC   D2A11236  22.242   1.271   8.375
  626POPC   C3A11237  22.392   1.314   7.975
  626POPC   C4A11238  22.026   1.385   7.694
  626POPC   C1B11239  22.042   0.927   8.749
  626POPC   C2B11240  21.884   0.774   8.384
  626POPC   C3B11241  21.952   0.988   8.017
  626POPC   C4B11242  22.232   0.924   7.701
  627POPC   NC311243   7.097  26.006   9.447
  627POPC   PO411244   7.679  26.042   9.548
  627POPC   GL111245   7.625  26.016   9.160
  627POPC   GL211246   7.432  25.737   9.148
  627POPC   C1A11247   7.644  26.278   8.825
  627POPC   D2A11248   7.389  26.272   8.492
  627POPC   C3A11249   7.595  26.345   8.115
  627POPC   C4A11250   7.469  26.180   7.723
  627POPC   C1B11251   7.330  25.793   8.735
  627POPC   C2B11252   7.021  25.895   8.460
  627POPC   C3B11253   7.187  25.954   8.071
  627POPC   C4B11254   7.497  25.647   7.893
  628POPC   NC311255  35.385  44.648   9.400
  628POPC   PO411256  35.792  44.103   9.189
  628POPC   GL111257  35.651  44.517   8.949
  628POPC   GL211258  35.588  44.880   9.011
  628POPC   C1A11259  35.490  44.670   8.542
  628POPC   D2A11260  35.210  44.522   8.242
  628POPC   C3A11261  35.476  44.353   7.942
  628POPC   C4A11262  35.374  44.531   7.567
  628POPC   C1B11263  35.187  44.955   8.822
  628POPC   C2B11264  35.126   0.063   8.446
  628POPC   C3B11265  35.303  44.998   8.054
  628POPC   C4B11266  35.041  44.914   7.720
  629POPC   NC311267  36.667  30.166  10.007
  629POPC   PO411268  37.064  29.774   9.523
  629POPC   GL111269  36.911  29.861   9.104
  629POPC   GL211270  37.196  29.983   9.049
  629POPC   C1A11271  36.825  29.763   8.651
  629POPC   D2A11272  36.848  29.946   8.208
  629POPC   C3A11273  36.907  29.898   7.751
  629POPC   C4A11274  36.810  29.575   7.483
  629POPC   C1B11275  37.255  29.593   8.834
  629POPC   C2B11276  37.267  29.709   8.409
  629POPC   C3B11277  37.214  29.590   7.987
  629POPC   C4B11278  37.364  29.611   7.569
  630POPC   NC311279  11.697   2.300   9.502
  630POPC   PO411280  12.321   1.939   9.560
  630POPC   GL111281  12.299   1.904   9.134
  630POPC   GL211282  11.954   2.004   9.139
  630POPC   C1A11283  12.247   1.989   8.687
  630POPC   D2A11284  12.278   1.688   8.384
  630POPC   C3A11285  12.386   1.824   8.007
  630POPC   C4A11286  12.053   1.904   7.785
  630POPC   C1B11287  11.840   2.288   8.787
  630POPC   C2B11288  11.937   2.393   8.376
  630POPC   C3B11289  11.770   2.271   7.990
  630POPC   C4B11290  11.845   2.287   7.546
  631POPC   NC311291  30.370  21.531   9.376
  631POPC   PO411292  29.683  21.349   9.453
  631POPC   GL111293  29.875  21.611   9.142
  631POPC   GL211294  30.169  21.493   8.925
  631POPC   C1A11295  29.699  21.588   8.747
  631POPC   D2A11296  29.562  21.321   8.426
  631POPC   C3A11297  29.584  21.465   8.033
  631POPC   C4A11298  29.902  21.455   7.762
  631POPC   C1B11299  30.017  21.172   8.645
  631POPC   C2B11300  30.056  21.210   8.190
  631POPC   C3B11301  30.372  21.245   7.856
  631POPC   C4B11302  30.443  21.103   7.405
  632POPC   NC311303  10.342  39.301   9.774
  632POPC   PO411304  10.255  38.934   9.244
  632POPC   GL111305  10.406  38.917   8.915
  632POPC   GL211306  10.722  38.953   8.991
  632POPC   C1A11307  10.165  38.949   8.572
  632POPC   D2A11308  10.199  39.301   8.350
  632POPC   C3A11309  10.384  39.220   7.969
  632POPC   C4A11310  10.276  39.496   7.725
  632POPC   C1B11311  10.798  39.254   8.720
  632POPC   C2B11312  10.720  39.163   8.344
  632POPC   C3B11313  10.870  39.003   7.980
  632POPC   C4B11314  10.834  39.242   7.648
  633POPC   NC311315  20.713   4.495   9.680
  633POPC   PO411316  20.226   4.034   9.488
  633POPC   GL111317  20.509   4.208   9.188
  633POPC   GL211318  20.853   4.209   9.266
  633POPC   C1A11319  20.537   4.216   8.744
  633POPC   D2A11320  20.521   4.076   8.294
  633POPC   C3A11321  20.514   4.357   7.896
  633POPC   C4A11322  20.183   4.631   7.716
  633POPC   C1B11323  20.981   4.472   8.890
  633POPC   C2B11324  20.843   4.480   8.432
  633POPC   C3B11325  20.902   4.638   8.044
  633POPC   C4B11326  21.056   4.499   7.655
  634POPC   NC311327  37.243  22.767   9.452
  634POPC   PO411328  36.708  23.284   9.459
  634POPC   GL111329  36.866  22.979   9.168
  634POPC   GL211330  36.562  22.857   9.033
  634POPC   C1A11331  36.990  22.823   8.755
  634POPC   D2A11332  36.835  22.904   8.361
  634POPC   C3A11333  37.219  22.920   8.120
  634POPC   C4A11334  37.196  23.148   7.788
  634POPC   C1B11335  36.638  23.220   8.746
  634POPC   C2B11336  36.588  23.356   8.297
  634POPC   C3B11337  36.656  23.176   7.873
  634POPC   C4B11338  36.839  23.310   7.455
  635POPC   NC311339  10.887   8.209   9.334
  635POPC   PO411340  11.543   8.132   9.458
  635POPC   GL111341  11.342   8.272   9.101
  635POPC   GL211342  11.248   7.922   9.062
  635POPC   C1A11343  11.109   8.375   8.716
  635POPC   D2A11344  11.320   8.415   8.322
  635POPC   C3A11345  11.173   8.333   7.912
  635POPC   C4A11346  11.466   8.075   7.692
  635POPC   C1B11347  10.939   7.657   8.871
  635POPC   C2B11348  10.833   7.614   8.447
  635POPC   C3B11349  10.728   7.876   8.085
  635POPC   C4B11350  10.985   7.888   7.731
  636POPC   NC311351  23.034  35.662   9.522
  636POPC   PO411352  23.026  34.982   9.440
  636POPC   GL111353  22.898  35.303   9.173
  636POPC   GL211354  23.216  35.397   9.103
  636POPC   C1A11355  22.723  35.266   8.777
  636POPC   D2A11356  22.747  34.960   8.464
  636POPC   C3A11357  22.910  35.201   8.165
  636POPC   C4A11358  22.683  35.361   7.826
  636POPC   C1B11359  23.133  35.576   8.734
  636POPC   C2B11360  23.087  35.687   8.327
  636POPC   C3B11361  23.326  35.612   7.999
  636POPC   C4B11362  23.187  35.300   7.756
  637POPC   NC311363  13.105  11.933   9.439
  637POPC   PO411364  12.488  12.261   9.587
  637POPC   GL111365  12.689  12.119   9.200
  637POPC   GL211366  12.723  11.713   9.161
  637POPC   C1A11367  12.857  12.277   8.797
  637POPC   D2A11368  13.090  12.347   8.412
  637POPC   C3A11369  12.902  12.272   8.004
  637POPC   C4A11370  12.908  12.114   7.565
  637POPC   C1B11371  13.027  11.792   8.808
  637POPC   C2B11372  13.002  11.827   8.358
  637POPC   C3B11373  13.170  11.568   7.997
  637POPC   C4B11374  13.291  11.752   7.597
  638POPC   NC311375  23.616  39.013   9.586
  638POPC   PO411376  24.021  39.429   9.430
  638POPC   GL111377  23.834  39.215   9.123
  638POPC   GL211378  23.473  39.319   9.096
  638POPC   C1A11379  23.848  39.014   8.714
  638POPC   D2A11380  23.863  39.334   8.350
  638POPC   C3A11381  24.037  39.238   7.935
  638POPC   C4A11382  23.915  39.071   7.507
  638POPC   C1B11383  23.422  39.257   8.638
  638POPC   C2B11384  23.533  38.949   8.284
  638POPC   C3B11385  23.559  39.086   7.886
  638POPC   C4B11386  23.485  39.502   7.819
  639POPC   NC311387  23.431  43.539   9.473
  639POPC   PO411388  23.219  42.886   9.668
  639POPC   GL111389  23.064  43.114   9.263
  639POPC   GL211390  23.339  43.208   9.104
  639POPC   C1A11391  22.785  43.015   8.842
  639POPC   D2A11392  22.842  42.726   8.495
  639POPC   C3A11393  22.652  42.894   8.125
  639POPC   C4A11394  22.741  43.084   7.733
  639POPC   C1B11395  23.265  42.908   8.799
  639POPC   C2B11396  23.302  42.987   8.394
  639POPC   C3B11397  23.150  43.050   8.025
  639POPC   C4B11398  23.198  42.849   7.655
  640POPC   NC311399  10.392  33.348   9.290
  640POPC   PO411400  10.240  32.750   9.614
  640POPC   GL111401  10.257  32.867   9.164
  640POPC   GL211402  10.597  32.857   9.194
  640POPC   C1A11403  10.460  33.057   8.745
  640POPC   D2A11404  10.358  33.044   8.345
  640POPC   C3A11405  10.503  32.742   8.088
  640POPC   C4A11406  10.361  32.962   7.739
  640POPC   C1B11407  10.821  32.696   8.825
  640POPC   C2B11408  10.891  32.884   8.425
  640POPC   C3B11409  10.810  33.139   8.057
  640POPC   C4B11410  10.860  32.998   7.640
  641POPC   NC311411   2.965  17.758   9.503
  641POPC   PO411412   2.763  17.122   9.494
  641POPC   GL111413   2.619  17.344   9.149
  641POPC   GL211414   2.405  17.589   9.272
  641POPC   C1A11415   2.706  17.448   8.739
  641POPC   D2A11416   2.933  17.594   8.393
  641POPC   C3A11417   2.790  17.527   7.962
  641POPC   C4A11418   2.502  17.250   7.723
  641POPC   C1B11419   2.303  17.747   8.856
  641POPC   C2B11420   2.420  17.737   8.401
  641POPC   C3B11421   2.311  17.664   7.963
  641POPC   C4B11422   2.544  17.819   7.594
  642POPC   NC311423  23.373   5.901   9.446
  642POPC   PO411424  22.725   5.640   9.528
  642POPC   GL111425  22.825   5.832   9.151
  642POPC   GL211426  23.116   5.662   9.071
  642POPC   C1A11427  22.751   5.716   8.722
  642POPC   D2A11428  22.794   5.953   8.341
  642POPC   C3A11429  22.622   5.733   8.027
  642POPC   C4A11430  22.840   5.538   7.765
  642POPC   C1B11431  23.211   5.997   8.759
  642POPC   C2B11432  23.356   6.036   8.313
  642POPC   C3B11433  23.236   5.837   7.916
  642POPC   C4B11434  22.919   6.026   7.700
  643POPC   NC311435  37.742   2.482   9.487
  643POPC   PO411436  38.023   3.141   9.329
  643POPC   GL111437  37.865   2.933   9.002
  643POPC   GL211438  37.581   2.801   9.108
  643POPC   C1A11439  37.616   2.912   8.614
  643POPC   D2A11440  37.355   3.039   8.249
  643POPC   C3A11441  37.656   3.057   7.897
  643POPC   C4A11442  38.098   2.982   7.824
  643POPC   C1B11443  37.409   2.484   8.859
  643POPC   C2B11444  37.301   2.548   8.441
  643POPC   C3B11445  37.568   2.594   8.105
  643POPC   C4B11446  37.428   2.640   7.728
  644POPC   NC311447  38.857  14.188   9.496
  644POPC   PO411448  39.328  14.655   9.454
  644POPC   GL111449  39.431  14.422   9.082
  644POPC   GL211450  39.104  14.320   9.076
  644POPC   C1A11451  39.318  14.393   8.633
  644POPC   D2A11452  39.034  14.419   8.338
  644POPC   C3A11453  39.138  14.198   8.026
  644POPC   C4A11454  39.387  14.265   7.722
  644POPC   C1B11455  38.931  14.042   8.782
  644POPC   C2B11456  38.831  13.933   8.372
  644POPC   C3B11457  38.711  13.918   7.957
  644POPC   C4B11458  38.940  14.018   7.575
  645POPC   NC311459  41.378  16.383   9.456
  645POPC   PO411460  41.835  16.951   9.437
  645POPC   GL111461  41.654  16.726   9.107
  645POPC   GL211462  41.302  16.716   9.090
  645POPC   C1A11463  41.595  16.731   8.661
  645POPC   D2A11464  41.537  16.847   8.262
  645POPC   C3A11465  41.716  16.577   7.976
  645POPC   C4A11466  41.511  16.667   7.607
  645POPC   C1B11467  41.066  16.740   8.764
  645POPC   C2B11468  41.084  16.567   8.380
  645POPC   C3B11469  41.115  16.720   7.978
  645POPC   C4B11470  41.010  16.539   7.583
  646POPC   NC311471  11.881  34.900   9.756
  646POPC   PO411472  12.145  35.438   9.565
  646POPC   GL111473  12.163  35.247   9.137
  646POPC   GL211474  12.058  35.559   9.076
  646POPC   C1A11475  12.137  35.185   8.703
  646POPC   D2A11476  12.269  35.357   8.311
  646POPC   C3A11477  12.035  35.258   7.979
  646POPC   C4A11478  12.108  34.973   7.707
  646POPC   C1B11479  11.747  35.504   8.814
  646POPC   C2B11480  11.763  35.377   8.404
  646POPC   C3B11481  11.602  35.498   8.033
  646POPC   C4B11482  11.584  35.700   7.688
  647POPC   NC311483  22.036  34.187   9.376
  647POPC   PO411484  22.391  34.760   9.514
  647POPC   GL111485  22.371  34.550   9.139
  647POPC   GL211486  22.016  34.566   9.050
  647POPC   C1A11487  22.428  34.624   8.711
  647POPC   D2A11488  22.424  34.398   8.332
  647POPC   C3A11489  22.276  34.554   7.937
  647POPC   C4A11490  22.372  34.946   7.743
  647POPC   C1B11491  22.004  34.303   8.668
  647POPC   C2B11492  21.933  34.276   8.219
  647POPC   C3B11493  21.854  34.260   7.780
  647POPC   C4B11494  22.146  34.326   7.437
  648POPC   NC311495   4.401   4.986   9.592
  648POPC   PO411496   4.281   5.572   9.568
  648POPC   GL111497   4.376   5.345   9.175
  648POPC   GL211498   4.303   4.994   9.121
  648POPC   C1A11499   4.334   5.294   8.720
  648POPC   D2A11500   4.496   5.093   8.364
  648POPC   C3A11501   4.366   5.182   7.960
  648POPC   C4A11502   4.387   5.204   7.522
  648POPC   C1B11503   4.390   4.773   8.769
  648POPC   C2B11504   4.293   4.611   8.431
  648POPC   C3B11505   4.134   4.730   8.050
  648POPC   C4B11506   4.326   4.719   7.674
  649POPC   NC311507  33.364  42.385   9.336
  649POPC   PO411508  32.863  41.937   9.564
  649POPC   GL111509  32.883  42.258   9.220
  649POPC   GL211510  32.867  42.628   9.272
  649POPC   C1A11511  32.811  42.258   8.804
  649POPC   D2A11512  32.672  42.321   8.379
  649POPC   C3A11513  32.856  42.055   8.052
  649POPC   C4A11514  33.158  42.126   7.705
  649POPC   C1B11515  32.868  42.819   8.866
  649POPC   C2B11516  32.753  42.888   8.423
  649POPC   C3B11517  32.864  42.637   8.033
  649POPC   C4B11518  32.604  42.393   7.759
  650POPC   NC311519  38.769   5.836   9.342
  650POPC   PO411520  38.405   6.228   9.699
  650POPC   GL111521  38.436   6.201   9.205
  650POPC   GL211522  38.279   5.995   9.008
  650POPC   C1A11523  38.688   6.161   8.751
  650POPC   D2A11524  38.759   6.309   8.308
  650POPC   C3A11525  38.945   6.047   7.951
  650POPC   C4A11526  38.760   5.900   7.562
  650POPC   C1B11527  38.478   5.688   8.714
  650POPC   C2B11528  38.672   5.773   8.333
  650POPC   C3B11529  38.460   5.804   7.964
  650POPC   C4B11530  38.365   5.468   7.736
  651POPC   NC311531  28.038  43.933   9.615
  651POPC   PO411532  28.659  43.695   9.514
  651POPC   GL111533  28.347  43.786   9.224
  651POPC   GL211534  28.518  44.025   9.052
  651POPC   C1A11535  28.159  43.770   8.809
  651POPC   D2A11536  28.419  43.782   8.453
  651POPC   C3A11537  28.126  43.884   8.175
  651POPC   C4A11538  28.072  43.782   7.766
  651POPC   C1B11539  28.520  44.231   8.693
  651POPC   C2B11540  28.463  44.312   8.277
  651POPC   C3B11541  28.474  44.100   7.879
  651POPC   C4B11542  28.199  44.236   7.561
  652POPC   NC311543  20.400  17.347   9.557
  652POPC   PO411544  20.796  17.807   9.344
  652POPC   GL111545  20.640  17.504   9.127
  652POPC   GL211546  20.293  17.485   9.087
  652POPC   C1A11547  20.624  17.349   8.734
  652POPC   D2A11548  20.668  17.579   8.384
  652POPC   C3A11549  20.716  17.230   8.139
  652POPC   C4A11550  20.907  17.195   7.758
  652POPC   C1B11551  20.217  17.640   8.678
  652POPC   C2B11552  20.187  17.404   8.308
  652POPC   C3B11553  20.319  17.447   7.871
  652POPC   C4B11554  20.394  17.251   7.456
  653POPC   NC311555  21.605   4.739   9.878
  653POPC   PO411556  21.178   4.267   9.677
  653POPC   GL111557  21.377   4.203   9.245
  653POPC   GL211558  21.364   3.872   9.136
  653POPC   C1A11559  21.426   4.229   8.764
  653POPC   D2A11560  21.339   4.539   8.444
  653POPC   C3A11561  21.408   4.407   8.013
  653POPC   C4A11562  21.339   4.085   7.732
  653POPC   C1B11563  21.024   3.957   8.868
  653POPC   C2B11564  21.025   3.987   8.437
  653POPC   C3B11565  20.956   4.133   8.036
  653POPC   C4B11566  20.824   4.044   7.591
  654POPC   NC311567  34.172  18.482   9.394
  654POPC   PO411568  33.649  18.107   9.438
  654POPC   GL111569  33.916  18.150   9.078
  654POPC   GL211570  34.078  17.858   8.996
  654POPC   C1A11571  33.787  18.282   8.649
  654POPC   D2A11572  33.418  18.385   8.334
  654POPC   C3A11573  33.592  18.543   7.933
  654POPC   C4A11574  33.921  18.470   7.627
  654POPC   C1B11575  33.675  17.767   8.818
  654POPC   C2B11576  33.568  17.889   8.430
  654POPC   C3B11577  33.807  18.101   8.118
  654POPC   C4B11578  33.817  17.977   7.690
  655POPC   NC311579  15.882   7.100   9.536
  655POPC   PO411580  15.444   7.671   9.522
  655POPC   GL111581  15.678   7.622   9.101
  655POPC   GL211582  15.896   7.349   9.082
  655POPC   C1A11583  15.696   7.746   8.638
  655POPC   D2A11584  15.835   7.832   8.186
  655POPC   C3A11585  15.764   7.493   7.908
  655POPC   C4A11586  15.761   7.070   7.996
  655POPC   C1B11587  16.045   7.250   8.684
  655POPC   C2B11588  16.260   7.098   8.331
  655POPC   C3B11589  16.236   7.225   7.900
  655POPC   C4B11590  16.203   7.518   7.605
  656POPC   NC311591   7.134  40.178   9.470
  656POPC   PO411592   7.613  39.778   9.490
  656POPC   GL111593   7.451  39.996   9.138
  656POPC   GL211594   7.603  40.239   9.212
  656POPC   C1A11595   7.294  40.184   8.748
  656POPC   D2A11596   7.123  40.084   8.329
  656POPC   C3A11597   7.332  39.989   7.912
  656POPC   C4A11598   7.153  40.007   7.444
  656POPC   C1B11599   7.812  40.270   8.817
  656POPC   C2B11600   7.680  40.138   8.379
  656POPC   C3B11601   7.795  40.235   7.932
  656POPC   C4B11602   7.631  40.174   7.491
  657POPC   NC311603  21.465   9.367   9.647
  657POPC   PO411604  21.522   8.771   9.464
  657POPC   GL111605  21.570   8.945   9.068
  657POPC   GL211606  21.552   8.604   8.982
  657POPC   C1A11607  21.550   9.201   8.671
  657POPC   D2A11608  21.371   9.075   8.258
  657POPC   C3A11609  21.601   8.760   8.017
  657POPC   C4A11610  21.581   9.054   7.703
  657POPC   C1B11611  21.330   8.713   8.642
  657POPC   C2B11612  21.183   8.590   8.254
  657POPC   C3B11613  21.109   8.788   7.856
  657POPC   C4B11614  21.199   8.881   7.439
  658POPC   NC311615   0.432   6.509   9.503
  658POPC   PO411616   0.413   7.157   9.432
  658POPC   GL111617   0.564   6.863   9.105
  658POPC   GL211618   0.626   6.481   9.029
  658POPC   C1A11619   0.446   6.823   8.679
  658POPC   D2A11620   0.304   6.994   8.303
  658POPC   C3A11621   0.426   6.786   7.943
  658POPC   C4A11622   0.207   6.911   7.602
  658POPC   C1B11623   0.514   6.320   8.594
  658POPC   C2B11624   0.184   6.459   8.283
  658POPC   C3B11625   0.117   6.355   7.864
  658POPC   C4B11626   0.519   6.330   7.697
  659POPC   NC311627  20.081  29.559   9.538
  659POPC   PO411628  19.777  30.209   9.607
  659POPC   GL111629  19.741  30.056   9.201
  659POPC   GL211630  19.675  29.716   9.088
  659POPC   C1A11631  19.752  30.146   8.783
  659POPC   D2A11632  19.620  30.020   8.404
  659POPC   C3A11633  19.955  30.127   8.178
  659POPC   C4A11634  19.884  30.211   7.785
  659POPC   C1B11635  19.822  29.619   8.652
  659POPC   C2B11636  19.942  29.587   8.232
  659POPC   C3B11637  19.674  29.771   7.958
  659POPC   C4B11638  19.383  30.071   7.895
  660POPC   NC311639   0.994  15.188   9.691
  660POPC   PO411640   1.444  15.599   9.626
  660POPC   GL111641   1.299  15.312   9.263
  660POPC   GL211642   0.967  15.102   9.204
  660POPC   C1A11643   1.394  15.265   8.808
  660POPC   D2A11644   1.262  15.385   8.379
  660POPC   C3A11645   1.517  15.242   8.024
  660POPC   C4A11646   1.281  15.311   7.654
  660POPC   C1B11647   0.890  15.089   8.797
  660POPC   C2B11648   1.012  14.866   8.437
  660POPC   C3B11649   1.020  15.061   8.049
  660POPC   C4B11650   0.807  15.085   7.698
  661POPC   NC311651  21.256  38.114   9.627
  661POPC   PO411652  21.543  38.793   9.508
  661POPC   GL111653  21.570  38.413   9.260
  661POPC   GL211654  21.204  38.435   9.241
  661POPC   C1A11655  21.441  38.253   8.830
  661POPC   D2A11656  21.320  38.472   8.437
  661POPC   C3A11657  21.427  38.395   7.996
  661POPC   C4A11658  21.152  38.373   7.612
  661POPC   C1B11659  20.972  38.421   8.857
  661POPC   C2B11660  20.816  38.563   8.482
  661POPC   C3B11661  20.976  38.633   8.060
  661POPC   C4B11662  20.970  39.044   7.860
  662POPC   NC311663  11.573  26.489   9.714
  662POPC   PO411664  12.127  26.846   9.442
  662POPC   GL111665  12.335  26.819   9.051
  662POPC   GL211666  12.515  27.132   8.944
  662POPC   C1A11667  12.293  26.809   8.579
  662POPC   D2A11668  12.456  27.033   8.217
  662POPC   C3A11669  12.258  26.873   7.871
  662POPC   C4A11670  12.061  26.558   7.646
  662POPC   C1B11671  12.050  27.213   8.783
  662POPC   C2B11672  11.733  27.117   8.469
  662POPC   C3B11673  11.758  26.980   8.040
  662POPC   C4B11674  11.863  27.043   7.602
  663POPC   NC311675  31.197  16.750   9.467
  663POPC   PO411676  30.638  16.641   9.468
  663POPC   GL111677  30.679  16.526   9.083
  663POPC   GL211678  30.933  16.795   9.028
  663POPC   C1A11679  30.534  16.624   8.658
  663POPC   D2A11680  30.229  16.838   8.377
  663POPC   C3A11681  30.436  16.970   8.004
  663POPC   C4A11682  30.829  16.844   7.882
  663POPC   C1B11683  31.023  16.471   8.734
  663POPC   C2B11684  30.969  16.589   8.313
  663POPC   C3B11685  31.023  16.353   7.935
  663POPC   C4B11686  30.964  16.319   7.483
  664POPC   NC311687  41.669  12.690   9.415
  664POPC   PO411688  41.557  13.370   9.626
  664POPC   GL111689  41.635  13.168   9.209
  664POPC   GL211690  41.393  12.946   9.053
  664POPC   C1A11691  41.826  13.062   8.815
  664POPC   D2A11692  42.050  12.800   8.582
  664POPC   C3A11693  41.783  12.667   8.277
  664POPC   C4A11694  41.607  12.831   7.900
  664POPC   C1B11695  41.338  13.103   8.671
  664POPC   C2B11696  41.569  13.153   8.315
  664POPC   C3B11697  41.377  13.274   7.937
  664POPC   C4B11698  41.238  13.039   7.546
  665POPC   NC311699  37.460  30.064   9.521
  665POPC   PO411700  37.766  29.594   9.546
  665POPC   GL111701  37.614  29.731   9.175
  665POPC   GL211702  37.765  30.066   9.106
  665POPC   C1A11703  37.737  29.668   8.763
  665POPC   D2A11704  37.701  29.971   8.464
  665POPC   C3A11705  37.702  29.727   8.124
  665POPC   C4A11706  37.751  29.868   7.746
  665POPC   C1B11707  37.496  30.296   8.822
  665POPC   C2B11708  37.193  30.195   8.504
  665POPC   C3B11709  37.323  30.106   8.060
  665POPC   C4B11710  37.358  30.120   7.607
  666POPC   NC311711  22.586  11.553   9.507
  666POPC   PO411712  22.845  10.892   9.537
  666POPC   GL111713  22.709  11.130   9.160
  666POPC   GL211714  22.868  11.453   9.103
  666POPC   C1A11715  22.779  11.179   8.702
  666POPC   D2A11716  23.002  11.187   8.332
  666POPC   C3A11717  22.777  11.194   7.958
  666POPC   C4A11718  22.743  11.225   7.462
  666POPC   C1B11719  23.029  11.670   8.748
  666POPC   C2B11720  23.097  11.700   8.340
  666POPC   C3B11721  23.186  11.550   7.943
  666POPC   C4B11722  23.134  11.698   7.497
  667POPC   NC311723  25.173  15.743   9.388
  667POPC   PO411724  25.186  15.077   9.567
  667POPC   GL111725  25.374  15.075   9.149
  667POPC   GL211726  25.617  14.848   9.092
  667POPC   C1A11727  25.453  15.325   8.790
  667POPC   D2A11728  25.161  15.476   8.480
  667POPC   C3A11729  25.258  15.416   8.050
  667POPC   C4A11730  25.220  15.151   7.701
  667POPC   C1B11731  25.434  14.825   8.682
  667POPC   C2B11732  25.514  15.057   8.335
  667POPC   C3B11733  25.577  14.874   7.959
  667POPC   C4B11734  25.560  14.819   7.510
  668POPC   NC311735  14.883  23.623   9.509
  668POPC   PO411736  14.191  23.861   9.582
  668POPC   GL111737  14.376  23.712   9.250
  668POPC   GL211738  14.322  23.391   9.346
  668POPC   C1A11739  14.402  23.849   8.829
  668POPC   D2A11740  14.692  23.824   8.474
  668POPC   C3A11741  14.546  23.700   8.071
  668POPC   C4A11742  14.638  23.862   7.669
  668POPC   C1B11743  14.206  23.351   8.917
  668POPC   C2B11744  14.305  23.449   8.486
  668POPC   C3B11745  14.144  23.410   8.064
  668POPC   C4B11746  14.398  23.381   7.639
  669POPC   NC311747  26.298  27.644   9.545
  669POPC   PO411748  25.791  27.225   9.501
  669POPC   GL111749  26.018  27.403   9.161
  669POPC   GL211750  25.980  27.772   9.177
  669POPC   C1A11751  25.941  27.507   8.734
  669POPC   D2A11752  26.059  27.437   8.354
  669POPC   C3A11753  25.779  27.533   8.035
  669POPC   C4A11754  26.048  27.596   7.722
  669POPC   C1B11755  26.281  27.860   8.845
  669POPC   C2B11756  26.244  28.048   8.470
  669POPC   C3B11757  26.147  27.940   8.067
  669POPC   C4B11758  26.106  28.129   7.639
  670POPC   NC311759  23.582  14.545   9.469
  670POPC   PO411760  24.016  14.063   9.363
  670POPC   GL111761  23.838  14.340   9.062
  670POPC   GL211762  23.846  14.727   9.046
  670POPC   C1A11763  23.795  14.377   8.641
  670POPC   D2A11764  23.865  14.729   8.403
  670POPC   C3A11765  23.944  14.488   8.071
  670POPC   C4A11766  23.601  14.277   7.810
  670POPC   C1B11767  23.456  14.728   8.773
  670POPC   C2B11768  23.353  14.684   8.370
  670POPC   C3B11769  23.529  14.761   7.997
  670POPC   C4B11770  23.317  14.695   7.642
  671POPC   NC311771  44.395  31.048   9.675
  671POPC   PO411772  44.874  31.533   9.712
  671POPC   GL111773  44.744  31.458   9.228
  671POPC   GL211774  44.423  31.298   9.226
  671POPC   C1A11775  44.567  31.540   8.750
  671POPC   D2A11776  44.517  31.881   8.439
  671POPC   C3A11777  44.557  31.696   8.022
  671POPC   C4A11778  44.472  31.887   7.642
  671POPC   C1B11779  44.544  31.061   8.878
  671POPC   C2B11780  44.507  31.106   8.440
  671POPC   C3B11781  44.392  31.108   8.014
  671POPC   C4B11782  44.495  31.338   7.624
  672POPC   NC311783  35.429  16.284   9.438
  672POPC   PO411784  35.096  15.663   9.571
  672POPC   GL111785  35.117  15.885   9.200
  672POPC   GL211786  35.478  15.922   9.074
  672POPC   C1A11787  35.058  16.019   8.799
  672POPC   D2A11788  35.265  15.933   8.429
  672POPC   C3A11789  35.044  16.083   8.080
  672POPC   C4A11790  35.018  15.814   7.740
  672POPC   C1B11791  35.518  16.264   8.732
  672POPC   C2B11792  35.624  16.232   8.254
  672POPC   C3B11793  35.513  16.069   7.839
  672POPC   C4B11794  35.671  16.246   7.431
  673POPC   NC311795  23.933   5.041   9.388
  673POPC   PO411796  23.509   5.303   9.822
  673POPC   GL111797  23.438   5.007   9.324
  673POPC   GL211798  23.583   4.684   9.151
  673POPC   C1A11799  23.656   5.077   8.835
  673POPC   D2A11800  23.853   5.138   8.400
  673POPC   C3A11801  23.621   5.107   8.014
  673POPC   C4A11802  23.698   5.072   7.584
  673POPC   C1B11803  23.569   4.562   8.700
  673POPC   C2B11804  23.656   4.664   8.270
  673POPC   C3B11805  23.656   4.621   7.800
  673POPC   C4B11806  23.648   4.637   7.312
  674POPC   NC311807  29.976  41.983   9.508
  674POPC   PO411808  29.994  42.551   9.642
  674POPC   GL111809  29.860  42.453   9.230
  674POPC   GL211810  29.739  42.783   9.210
  674POPC   C1A11811  29.833  42.223   8.814
  674POPC   D2A11812  29.960  42.426   8.435
  674POPC   C3A11813  30.123  42.299   8.039
  674POPC   C4A11814  29.875  42.167   7.699
  674POPC   C1B11815  29.660  42.702   8.798
  674POPC   C2B11816  29.680  42.868   8.404
  674POPC   C3B11817  29.766  42.685   8.015
  674POPC   C4B11818  29.590  42.569   7.654
  675POPC   NC311819   4.861  24.510   9.481
  675POPC   PO411820   5.553  24.774   9.420
  675POPC   GL111821   5.272  24.580   9.148
  675POPC   GL211822   4.980  24.810   9.111
  675POPC   C1A11823   5.106  24.461   8.748
  675POPC   D2A11824   4.842  24.244   8.446
  675POPC   C3A11825   4.950  24.346   8.026
  675POPC   C4A11826   5.255  24.596   7.854
  675POPC   C1B11827   4.851  24.939   8.709
  675POPC   C2B11828   4.899  24.758   8.350
  675POPC   C3B11829   4.881  24.921   7.990
  675POPC   C4B11830   4.983  24.981   7.592
  676POPC   NC311831  40.112   7.344   9.583
  676POPC   PO411832  39.411   7.531   9.543
  676POPC   GL111833  39.772   7.405   9.199
  676POPC   GL211834  40.123   7.225   9.101
  676POPC   C1A11835  39.848   7.472   8.749
  676POPC   D2A11836  39.895   7.795   8.432
  676POPC   C3A11837  40.051   7.590   8.085
  676POPC   C4A11838  40.053   7.738   7.719
  676POPC   C1B11839  40.385   7.132   8.724
  676POPC   C2B11840  40.301   7.181   8.274
  676POPC   C3B11841  40.374   7.272   7.825
  676POPC   C4B11842  40.206   7.096   7.471
  677POPC   NC311843  35.336  28.605   9.228
  677POPC   PO411844  35.647  28.064   9.503
  677POPC   GL111845  35.358  28.088   9.183
  677POPC   GL211846  35.033  28.174   9.096
  677POPC   C1A11847  35.407  28.174   8.750
  677POPC   D2A11848  35.250  28.153   8.357
  677POPC   C3A11849  35.371  28.544   8.175
  677POPC   C4A11850  35.559  28.491   7.770
  677POPC   C1B11851  34.917  27.911   8.767
  677POPC   C2B11852  34.778  27.921   8.367
  677POPC   C3B11853  34.961  27.949   7.983
  677POPC   C4B11854  35.086  28.322   7.842
  678POPC   NC311855   5.054  27.121   9.474
  678POPC   PO411856   5.344  26.395   9.437
  678POPC   GL111857   5.088  26.657   9.127
  678POPC   GL211858   5.223  27.003   9.023
  678POPC   C1A11859   4.972  26.747   8.680
  678POPC   D2A11860   5.281  26.707   8.328
  678POPC   C3A11861   5.037  26.781   7.988
  678POPC   C4A11862   4.716  26.575   7.796
  678POPC   C1B11863   5.397  27.295   8.705
  678POPC   C2B11864   5.388  27.219   8.243
  678POPC   C3B11865   5.430  27.038   7.821
  678POPC   C4B11866   5.376  27.134   7.394
  679POPC   NC311867  29.969  15.774   9.740
  679POPC   PO411868  29.753  16.380   9.471
  679POPC   GL111869  29.939  16.070   9.190
  679POPC   GL211870  29.932  15.706   9.242
  679POPC   C1A11871  29.819  15.913   8.792
  679POPC   D2A11872  29.787  16.091   8.408
  679POPC   C3A11873  29.624  15.903   8.056
  679POPC   C4A11874  29.708  15.962   7.650
  679POPC   C1B11875  30.200  15.613   8.911
  679POPC   C2B11876  30.238  15.812   8.505
  679POPC   C3B11877  30.135  15.898   8.064
  679POPC   C4B11878  30.361  15.654   7.761
  680POPC   NC311879  43.756  42.798   9.639
  680POPC   PO411880  44.274  42.409   9.593
  680POPC   GL111881  44.125  42.419   9.159
  680POPC   GL211882  43.828  42.592   9.135
  680POPC   C1A11883  43.936  42.326   8.732
  680POPC   D2A11884  43.773  42.267   8.330
  680POPC   C3A11885  44.043  42.299   7.993
  680POPC   C4A11886  43.882  42.226   7.619
  680POPC   C1B11887  43.645  42.786   8.734
  680POPC   C2B11888  43.648  42.894   8.276
  680POPC   C3B11889  43.661  42.616   7.904
  680POPC   C4B11890  43.655  42.700   7.459
  681POPC   NC311891  17.198  43.192   9.529
  681POPC   PO411892  17.795  42.893   9.441
  681POPC   GL111893  17.536  43.060   9.134
  681POPC   GL211894  17.565  43.365   9.231
  681POPC   C1A11895  17.298  42.938   8.748
  681POPC   D2A11896  17.506  43.002   8.365
  681POPC   C3A11897  17.392  42.901   7.940
  681POPC   C4A11898  17.579  43.100   7.557
  681POPC   C1B11899  17.426  43.454   8.818
  681POPC   C2B11900  17.492  43.520   8.398
  681POPC   C3B11901  17.424  43.411   7.973
  681POPC   C4B11902  17.575  43.604   7.615
  682POPC   NC311903   5.959  12.703   9.473
  682POPC   PO411904   5.464  13.133   9.437
  682POPC   GL111905   5.815  13.225   9.153
  682POPC   GL211906   6.131  13.013   9.117
  682POPC   C1A11907   5.844  13.117   8.719
  682POPC   D2A11908   6.033  13.129   8.368
  682POPC   C3A11909   5.707  13.131   8.111
  682POPC   C4A11910   5.836  13.059   7.719
  682POPC   C1B11911   6.019  12.641   8.835
  682POPC   C2B11912   5.832  12.645   8.458
  682POPC   C3B11913   5.898  12.662   8.038
  682POPC   C4B11914   6.120  12.564   7.670
  683POPC   NC311915  28.364  15.189   9.628
  683POPC   PO411916  27.960  14.681   9.401
  683POPC   GL111917  28.320  14.917   9.138
  683POPC   GL211918  28.548  15.256   9.173
  683POPC   C1A11919  28.469  15.060   8.717
  683POPC   D2A11920  28.433  15.438   8.483
  683POPC   C3A11921  28.415  15.245   8.148
  683POPC   C4A11922  28.189  15.154   7.870
  683POPC   C1B11923  28.795  15.450   8.842
  683POPC   C2B11924  28.913  15.277   8.432
  683POPC   C3B11925  28.862  15.393   8.020
  683POPC   C4B11926  28.692  15.106   7.699
  684POPC   NC311927  34.303  31.731   9.523
  684POPC   PO411928  34.600  31.176   9.517
  684POPC   GL111929  34.507  31.392   9.157
  684POPC   GL211930  34.653  31.683   9.153
  684POPC   C1A11931  34.549  31.368   8.710
  684POPC   D2A11932  34.557  31.238   8.287
  684POPC   C3A11933  34.372  31.513   7.991
  684POPC   C4A11934  34.534  31.388   7.599
  684POPC   C1B11935  34.980  31.617   8.876
  684POPC   C2B11936  35.027  31.752   8.464
  684POPC   C3B11937  34.854  31.641   8.102
  684POPC   C4B11938  34.862  31.745   7.706
  685POPC   NC311939  36.438  15.770   9.434
  685POPC   PO411940  35.873  16.180   9.431
  685POPC   GL111941  36.043  15.992   9.099
  685POPC   GL211942  35.929  15.673   9.030
  685POPC   C1A11943  36.027  16.204   8.710
  685POPC   D2A11944  36.220  16.123   8.336
  685POPC   C3A11945  35.990  15.920   8.020
  685POPC   C4A11946  35.990  16.290   7.824
  685POPC   C1B11947  36.192  15.731   8.677
  685POPC   C2B11948  36.531  15.690   8.410
  685POPC   C3B11949  36.432  15.428   8.084
  685POPC   C4B11950  36.220  15.496   7.723
  686POPC   NC311951  12.439  29.765   9.432
  686POPC   PO411952  12.978  30.153   9.505
  686POPC   GL111953  12.990  29.883   9.187
  686POPC   GL211954  12.663  30.014   9.026
  686POPC   C1A11955  13.159  29.997   8.811
  686POPC   D2A11956  12.901  30.165   8.499
  686POPC   C3A11957  13.050  29.969   8.141
  686POPC   C4A11958  12.961  30.062   7.727
  686POPC   C1B11959  12.766  29.632   8.787
  686POPC   C2B11960  12.859  29.534   8.363
  686POPC   C3B11961  12.680  29.637   7.944
  686POPC   C4B11962  12.736  29.622   7.499
  687POPC   NC311963   0.768  43.390   9.476
  687POPC   PO411964   0.644  42.733   9.607
  687POPC   GL111965   0.388  42.924   9.276
  687POPC   GL211966   0.382  43.258   9.140
  687POPC   C1A11967   0.375  42.859   8.828
  687POPC   D2A11968   0.568  42.878   8.463
  687POPC   C3A11969   0.484  43.111   8.071
  687POPC   C4A11970   0.785  43.113   7.703
  687POPC   C1B11971   0.140  43.495   8.802
  687POPC   C2B11972  44.916  43.426   8.386
  687POPC   C3B11973   0.105  43.487   7.980
  687POPC   C4B11974   0.302  43.298   7.594
  688POPC   NC311975  15.863  42.133   9.517
  688POPC   PO411976  16.383  42.484   9.548
  688POPC   GL111977  16.066  42.469   9.207
  688POPC   GL211978  16.167  42.112   9.125
  688POPC   C1A11979  15.901  42.401   8.749
  688POPC   D2A11980  15.692  42.212   8.344
  688POPC   C3A11981  15.878  42.353   7.968
  688POPC   C4A11982  15.804  42.481   7.531
  688POPC   C1B11983  16.321  42.049   8.747
  688POPC   C2B11984  16.154  42.044   8.359
  688POPC   C3B11985  16.248  42.013   7.949
  688POPC   C4B11986  16.024  42.036   7.544
  689POPC   NC311987   7.632  25.569   9.610
  689POPC   PO411988   7.601  24.882   9.545
  689POPC   GL111989   7.490  25.215   9.242
  689POPC   GL211990   7.162  25.296   9.061
  689POPC   C1A11991   7.609  25.364   8.832
  689POPC   D2A11992   7.442  25.402   8.403
  689POPC   C3A11993   7.569  25.080   8.104
  689POPC   C4A11994   7.728  25.206   7.715
  689POPC   C1B11995   6.915  25.473   8.783
  689POPC   C2B11996   6.893  25.402   8.409
  689POPC   C3B11997   7.034  25.457   8.046
  689POPC   C4B11998   7.231  25.237   7.759
  690POPC   NC311999   3.492  27.788   9.480
  690POPC   PO412000   3.152  27.129   9.437
  690POPC   GL112001   3.330  27.453   9.136
  690POPC   GL212002   3.183  27.784   9.085
  690POPC   C1A12003   3.586  27.614   8.787
  690POPC   D2A12004   3.437  27.683   8.381
  690POPC   C3A12005   3.636  27.352   8.172
  690POPC   C4A12006   3.840  27.492   7.839
  690POPC   C1B12007   3.065  27.560   8.703
  690POPC   C2B12008   3.064  27.215   8.390
  690POPC   C3B12009   3.176  27.329   7.984
  690POPC   C4B12010   3.368  27.716   7.865
  691POPC   NC312011  32.471   9.863   9.802
  691POPC   PO412012  32.116   9.524   9.304
  691POPC   GL112013  32.368   9.890   9.209
  691POPC   GL212014  32.519   9.702   8.924
  691POPC   C1A12015  32.236  10.127   8.836
  691POPC   D2A12016  32.152   9.886   8.455
  691POPC   C3A12017  32.299   9.902   8.055
  691POPC   C4A12018  32.029  10.011   7.750
  691POPC   C1B12019  32.269   9.418   8.665
  691POPC   C2B12020  32.162   9.396   8.247
  691POPC   C3B12021  32.296   9.419   7.830
  691POPC   C4B12022  32.499   9.254   7.491
  692POPC   NC312023  13.962  29.184   9.750
  692POPC   PO412024  13.428  29.452   9.443
  692POPC   GL112025  13.402  29.432   9.005
  692POPC   GL212026  13.453  29.089   9.004
  692POPC   C1A12027  13.592  29.409   8.605
  692POPC   D2A12028  13.421  29.618   8.271
  692POPC   C3A12029  13.671  29.488   7.955
  692POPC   C4A12030  13.751  29.489   7.537
  692POPC   C1B12031  13.687  28.895   8.674
  692POPC   C2B12032  13.952  28.655   8.382
  692POPC   C3B12033  13.993  28.725   7.934
  692POPC   C4B12034  13.745  29.015   7.711
  693POPC   NC312035  34.145  26.562   9.374
  693POPC   PO412036  33.571  26.310   9.590
  693POPC   GL112037  33.553  26.687   9.288
  693POPC   GL212038  33.833  26.854   9.107
  693POPC   C1A12039  33.366  26.897   8.903
  693POPC   D2A12040  33.338  26.718   8.475
  693POPC   C3A12041  33.581  26.950   8.164
  693POPC   C4A12042  33.485  26.954   7.720
  693POPC   C1B12043  34.104  26.679   8.764
  693POPC   C2B12044  34.199  26.863   8.405
  693POPC   C3B12045  34.190  26.667   8.047
  693POPC   C4B12046  34.076  26.615   7.669
  694POPC   NC312047  37.704  31.876   9.433
  694POPC   PO412048  38.008  31.317   9.560
  694POPC   GL112049  37.738  31.396   9.190
  694POPC   GL212050  37.904  31.118   9.086
  694POPC   C1A12051  37.564  31.290   8.749
  694POPC   D2A12052  37.520  31.120   8.327
  694POPC   C3A12053  37.580  31.395   7.961
  694POPC   C4A12054  37.550  31.658   7.539
  694POPC   C1B12055  38.073  31.346   8.747
  694POPC   C2B12056  38.026  31.263   8.343
  694POPC   C3B12057  38.111  31.507   8.016
  694POPC   C4B12058  37.972  31.429   7.625
  695POPC   NC312059   7.947  23.150   9.501
  695POPC   PO412060   8.269  22.546   9.579
  695POPC   GL112061   8.111  22.780   9.207
  695POPC   GL212062   8.082  22.509   9.101
  695POPC   C1A12063   8.156  23.067   8.844
  695POPC   D2A12064   8.252  23.216   8.432
  695POPC   C3A12065   8.495  23.062   8.099
  695POPC   C4A12066   8.358  23.113   7.684
  695POPC   C1B12067   8.276  22.573   8.737
  695POPC   C2B12068   8.144  22.449   8.336
  695POPC   C3B12069   8.167  22.674   7.928
  695POPC   C4B12070   8.219  22.668   7.442
  696POPC   NC312071  39.413  41.369   9.720
  696POPC   PO412072  39.244  41.953   9.786
  696POPC   GL112073  39.278  41.612   9.303
  696POPC   GL212074  39.461  41.258   9.216
  696POPC   C1A12075  39.444  41.663   8.843
  696POPC   D2A12076  39.241  41.888   8.490
  696POPC   C3A12077  39.319  41.763   8.065
  696POPC   C4A12078  39.068  41.811   7.727
  696POPC   C1B12079  39.227  41.207   8.831
  696POPC   C2B12080  39.353  41.331   8.405
  696POPC   C3B12081  39.327  41.255   7.946
  696POPC   C4B12082  39.027  41.311   7.583
  697POPC   NC312083   8.377   7.412   9.305
  697POPC   PO412084   7.746   7.557   9.499
  697POPC   GL112085   7.865   7.641   9.092
  697POPC   GL212086   8.190   7.833   9.056
  697POPC   C1A12087   7.778   7.697   8.684
  697POPC   D2A12088   8.112   7.480   8.504
  697POPC   C3A12089   8.083   7.418   8.077
  697POPC   C4A12090   7.787   7.520   7.777
  697POPC   C1B12091   8.459   7.806   8.703
  697POPC   C2B12092   8.518   7.718   8.284
  697POPC   C3B12093   8.532   7.530   7.885
  697POPC   C4B12094   8.356   7.209   7.700
  698POPC   NC312095  39.976   1.841   9.748
  698POPC   PO412096  39.627   2.351   9.767
  698POPC   GL112097  39.900   2.184   9.309
  698POPC   GL212098  39.953   1.829   9.240
  698POPC   C1A12099  39.894   2.179   8.809
  698POPC   D2A12100  39.674   2.174   8.362
  698POPC   C3A12101  39.854   2.202   7.930
  698POPC   C4A12102  40.061   1.898   7.683
  698POPC   C1B12103  40.303   1.834   8.943
  698POPC   C2B12104  40.474   1.758   8.530
  698POPC   C3B12105  40.298   1.905   8.161
  698POPC   C4B12106  40.355   2.271   7.962
  699POPC   NC312107  42.676  40.879   9.233
  699POPC   PO412108  43.297  40.946   9.522
  699POPC   GL112109  43.224  40.824   9.095
  699POPC   GL212110  42.995  41.016   8.864
  699POPC   C1A12111  43.380  40.697   8.701
  699POPC   D2A12112  43.306  40.882   8.330
  699POPC   C3A12113  43.209  40.587   8.036
  699POPC   C4A12114  42.983  40.715   7.705
  699POPC   C1B12115  42.826  40.692   8.605
  699POPC   C2B12116  42.818  40.365   8.315
  699POPC   C3B12117  42.649  40.334   7.922
  699POPC   C4B12118  42.636  40.366   7.434
  700POPC   NC312119  43.646  33.610   9.771
  700POPC   PO412120  43.948  34.155   9.584
  700POPC   GL112121  43.845  33.748   9.294
  700POPC   GL212122  43.512  33.625   9.194
  700POPC   C1A12123  43.859  33.596   8.838
  700POPC   D2A12124  43.696  33.810   8.458
  700POPC   C3A12125  43.915  33.897   8.073
  700POPC   C4A12126  44.003  33.732   7.684
  700POPC   C1B12127  43.341  33.532   8.745
  700POPC   C2B12128  43.478  33.369   8.311
  700POPC   C3B12129  43.584  33.494   7.883
  700POPC   C4B12130  43.495  33.841   7.590
  701POPC   NC312131   6.845  20.754   9.406
  701POPC   PO412132   6.302  21.138   9.498
  701POPC   GL112133   6.274  20.769   9.175
  701POPC   GL212134   6.346  20.384   9.198
  701POPC   C1A12135   6.484  20.686   8.761
  701POPC   D2A12136   6.657  20.788   8.331
  701POPC   C3A12137   6.466  20.955   7.972
  701POPC   C4A12138   6.754  20.727   7.700
  701POPC   C1B12139   6.397  20.154   8.799
  701POPC   C2B12140   6.557  20.288   8.408
  701POPC   C3B12141   6.731  20.309   7.995
  701POPC   C4B12142   6.538  20.274   7.583
  702POPC   NC312143  36.208   9.548   9.460
  702POPC   PO412144  35.743   9.999   9.474
  702POPC   GL112145  36.001   9.908   9.132
  702POPC   GL212146  35.962   9.591   9.025
  702POPC   C1A12147  36.235   9.915   8.748
  702POPC   D2A12148  36.106   9.659   8.419
  702POPC   C3A12149  36.083   9.871   8.076
  702POPC   C4A12150  36.390   9.685   7.874
  702POPC   C1B12151  35.726   9.755   8.727
  702POPC   C2B12152  35.596   9.837   8.346
  702POPC   C3B12153  35.615   9.686   7.936
  702POPC   C4B12154  35.910   9.520   7.678
  703POPC   NC312155  10.264  20.994   9.452
  703POPC   PO412156  10.354  20.341   9.585
  703POPC   GL112157  10.029  20.527   9.236
  703POPC   GL212158  10.028  20.879   9.013
  703POPC   C1A12159   9.727  20.515   8.868
  703POPC   D2A12160   9.981  20.640   8.476
  703POPC   C3A12161   9.890  20.817   8.069
  703POPC   C4A12162   9.804  20.586   7.679
  703POPC   C1B12163   9.676  21.003   8.678
  703POPC   C2B12164   9.544  21.180   8.229
  703POPC   C3B12165   9.509  21.001   7.768
  703POPC   C4B12166   9.447  20.740   7.344
  704POPC   NC312167  43.398   2.153   9.558
  704POPC   PO412168  42.745   1.970   9.479
  704POPC   GL112169  42.977   1.942   9.116
  704POPC   GL212170  43.172   2.210   9.100
  704POPC   C1A12171  42.890   1.741   8.731
  704POPC   D2A12172  42.669   1.818   8.345
  704POPC   C3A12173  42.955   1.673   8.028
  704POPC   C4A12174  43.379   1.793   7.922
  704POPC   C1B12175  43.028   2.252   8.670
  704POPC   C2B12176  43.081   2.123   8.240
  704POPC   C3B12177  43.006   2.166   7.802
  704POPC   C4B12178  43.217   2.235   7.378
  705POPC   NC312179  13.401  34.095   9.558
  705POPC   PO412180  14.032  33.832   9.543
  705POPC   GL112181  13.709  33.855   9.209
  705POPC   GL212182  13.765  34.120   8.992
  705POPC   C1A12183  13.545  33.671   8.804
  705POPC   D2A12184  13.735  33.529   8.410
  705POPC   C3A12185  13.587  33.637   8.018
  705POPC   C4A12186  13.762  33.752   7.598
  705POPC   C1B12187  13.849  34.053   8.582
  705POPC   C2B12188  13.697  34.100   8.191
  705POPC   C3B12189  13.462  34.081   7.800
  705POPC   C4B12190  13.548  34.150   7.330
  706POPC   NC312191  29.972  26.820   9.591
  706POPC   PO412192  30.650  26.865   9.568
  706POPC   GL112193  30.307  26.848   9.195
  706POPC   GL212194  29.901  26.864   9.097
  706POPC   C1A12195  30.269  26.917   8.755
  706POPC   D2A12196  29.977  26.648   8.513
  706POPC   C3A12197  30.094  26.679   8.088
  706POPC   C4A12198  29.977  26.843   7.683
  706POPC   C1B12199  29.802  27.116   8.711
  706POPC   C2B12200  29.926  27.146   8.302
  706POPC   C3B12201  29.642  26.905   8.072
  706POPC   C4B12202  29.346  26.943   7.772
  707POPC   NC312203  25.352  44.809   9.542
  707POPC   PO412204  24.822  44.454   9.356
  707POPC   GL112205  25.118  44.688   9.103
  707POPC   GL212206  25.508  44.625   9.098
  707POPC   C1A12207  25.202  44.628   8.686
  707POPC   D2A12208  25.272  44.404   8.309
  707POPC   C3A12209  25.126  44.607   7.970
  707POPC   C4A12210  24.973  44.339   7.680
  707POPC   C1B12211  25.674  44.798   8.755
  707POPC   C2B12212  25.505  44.852   8.323
  707POPC   C3B12213  25.622  44.649   7.952
  707POPC   C4B12214  25.825  44.828   7.562
  708POPC   NC312215  43.903   8.282   9.609
  708POPC   PO412216  44.227   7.766   9.426
  708POPC   GL112217  43.888   7.968   9.179
  708POPC   GL212218  43.792   8.356   9.128
  708POPC   C1A12219  43.988   8.060   8.771
  708POPC   D2A12220  44.014   8.347   8.409
  708POPC   C3A12221  44.026   8.169   7.986
  708POPC   C4A12222  44.070   8.264   7.555
  708POPC   C1B12223  43.569   8.368   8.739
  708POPC   C2B12224  43.559   8.565   8.340
  708POPC   C3B12225  43.785   8.614   7.951
  708POPC   C4B12226  43.607   8.450   7.574
  709POPC   NC312227  39.528   8.154   9.612
  709POPC   PO412228  40.152   7.861   9.530
  709POPC   GL112229  40.019   7.913   9.126
  709POPC   GL212230  39.890   8.215   9.187
  709POPC   C1A12231  40.209   8.076   8.734
  709POPC   D2A12232  40.501   8.133   8.399
  709POPC   C3A12233  40.257   8.058   8.072
  709POPC   C4A12234  40.208   8.444   7.856
  709POPC   C1B12235  39.823   8.384   8.823
  709POPC   C2B12236  39.947   8.381   8.395
  709POPC   C3B12237  39.771   8.194   8.029
  709POPC   C4B12238  39.801   8.260   7.616
  710POPC   NC312239   7.701  21.209   9.496
  710POPC   PO412240   7.095  21.244   9.295
  710POPC   GL112241   7.464  21.383   9.069
  710POPC   GL212242   7.653  21.686   9.211
  710POPC   C1A12243   7.633  21.199   8.703
  710POPC   D2A12244   7.497  21.157   8.282
  710POPC   C3A12245   7.718  21.130   7.916
  710POPC   C4A12246   7.375  21.390   7.744
  710POPC   C1B12247   7.468  21.832   8.798
  710POPC   C2B12248   7.188  21.629   8.499
  710POPC   C3B12249   7.083  21.671   8.063
  710POPC   C4B12250   7.295  21.901   7.730
  711POPC   NC312251  42.324  16.695   9.546
  711POPC   PO412252  42.782  16.249   9.218
  711POPC   GL112253  42.578  16.681   9.107
  711POPC   GL212254  42.241  16.889   9.093
  711POPC   C1A12255  42.524  16.699   8.681
  711POPC   D2A12256  42.534  16.371   8.361
  711POPC   C3A12257  42.526  16.606   8.014
  711POPC   C4A12258  42.406  16.974   7.813
  711POPC   C1B12259  42.080  16.950   8.682
  711POPC   C2B12260  42.059  16.905   8.236
  711POPC   C3B12261  41.860  17.053   7.871
  711POPC   C4B12262  42.067  17.148   7.481
  712POPC   NC312263  19.477  22.413   9.522
  712POPC   PO412264  19.963  21.924   9.432
  712POPC   GL112265  19.694  22.095   9.149
  712POPC   GL212266  19.761  22.461   9.098
  712POPC   C1A12267  19.700  22.138   8.712
  712POPC   D2A12268  20.025  22.282   8.453
  712POPC   C3A12269  20.070  22.055   8.076
  712POPC   C4A12270  19.940  22.152   7.682
  712POPC   C1B12271  19.506  22.633   8.794
  712POPC   C2B12272  19.414  22.454   8.420
  712POPC   C3B12273  19.624  22.357   8.074
  712POPC   C4B12274  19.488  22.402   7.668
  713POPC   NC312275  40.385  34.795   9.811
  713POPC   PO412276  40.951  34.581   9.478
  713POPC   GL112277  40.916  34.681   9.047
  713POPC   GL212278  40.757  34.371   8.944
  713POPC   C1A12279  40.680  34.789   8.686
  713POPC   D2A12280  40.646  34.495   8.379
  713POPC   C3A12281  40.692  34.725   8.024
  713POPC   C4A12282  40.744  34.718   7.610
  713POPC   C1B12283  40.373  34.198   8.716
  713POPC   C2B12284  40.198  34.056   8.351
  713POPC   C3B12285  40.331  34.293   8.014
  713POPC   C4B12286  40.489  34.257   7.625
  714POPC   NC312287  43.642  25.538   9.328
  714POPC   PO412288  43.753  26.137   9.592
  714POPC   GL112289  43.801  26.246   9.150
  714POPC   GL212290  43.549  26.092   8.953
  714POPC   C1A12291  44.034  26.112   8.775
  714POPC   D2A12292  43.906  26.086   8.340
  714POPC   C3A12293  44.109  26.158   7.944
  714POPC   C4A12294  44.012  26.119   7.483
  714POPC   C1B12295  43.699  25.718   8.683
  714POPC   C2B12296  43.724  25.626   8.244
  714POPC   C3B12297  43.670  25.863   7.823
  714POPC   C4B12298  43.417  25.907   7.412
  715POPC   NC312299  34.061  12.641   9.411
  715POPC   PO412300  33.689  13.097   9.614
  715POPC   GL112301  33.719  13.017   9.154
  715POPC   GL212302  33.863  12.687   8.964
  715POPC   C1A12303  33.680  13.063   8.712
  715POPC   D2A12304  33.826  12.795   8.403
  715POPC   C3A12305  33.861  13.052   8.083
  715POPC   C4A12306  33.855  13.006   7.672
  715POPC   C1B12307  34.179  12.521   8.691
  715POPC   C2B12308  34.124  12.355   8.270
  715POPC   C3B12309  34.052  12.585   7.935
  715POPC   C4B12310  34.231  12.656   7.585
  716POPC   NC312311  29.083   3.164   9.504
  716POPC   PO412312  29.276   3.751   9.515
  716POPC   GL112313  29.294   3.516   9.115
  716POPC   GL212314  29.410   3.185   9.008
  716POPC   C1A12315  29.335   3.550   8.661
  716POPC   D2A12316  29.405   3.257   8.319
  716POPC   C3A12317  29.322   3.521   7.964
  716POPC   C4A12318  29.225   3.947   7.775
  716POPC   C1B12319  28.972   3.194   8.822
  716POPC   C2B12320  28.696   3.292   8.438
  716POPC   C3B12321  28.751   3.402   7.996
  716POPC   C4B12322  28.995   3.209   7.679
  717POPC   NC312323  43.748  35.879   9.491
  717POPC   PO412324  43.680  36.500   9.662
  717POPC   GL112325  43.545  36.328   9.268
  717POPC   GL212326  43.892  36.267   9.154
  717POPC   C1A12327  43.527  36.148   8.830
  717POPC   D2A12328  43.758  36.254   8.476
  717POPC   C3A12329  43.625  36.122   8.080
  717POPC   C4A12330  43.820  36.246   7.715
  717POPC   C1B12331  44.163  36.231   8.772
  717POPC   C2B12332  44.176  35.959   8.390
  717POPC   C3B12333  44.236  36.056   7.952
  717POPC   C4B12334  44.378  36.303   7.606
  718POPC   NC312335  37.068  37.051   9.465
  718POPC   PO412336  37.079  36.381   9.472
  718POPC   GL112337  36.832  36.683   9.190
  718POPC   GL212338  36.616  36.998   9.210
  718POPC   C1A12339  36.656  36.676   8.802
  718POPC   D2A12340  36.881  36.572   8.467
  718POPC   C3A12341  36.753  36.738   8.098
  718POPC   C4A12342  36.814  36.548   7.755
  718POPC   C1B12343  36.713  37.205   8.829
  718POPC   C2B12344  36.639  37.113   8.430
  718POPC   C3B12345  36.739  37.231   8.031
  718POPC   C4B12346  36.557  37.399   7.666
  719POPC   NC312347  29.333  17.003   9.729
  719POPC   PO412348  28.856  16.597   9.437
  719POPC   GL112349  29.021  16.773   9.105
  719POPC   GL212350  29.307  16.938   9.227
  719POPC   C1A12351  29.064  16.583   8.716
  719POPC   D2A12352  28.926  16.412   8.345
  719POPC   C3A12353  29.054  16.737   8.045
  719POPC   C4A12354  29.053  16.764   7.616
  719POPC   C1B12355  29.325  17.087   8.817
  719POPC   C2B12356  29.362  16.897   8.412
  719POPC   C3B12357  29.553  16.859   8.013
  719POPC   C4B12358  29.516  17.000   7.626
  720POPC   NC312359  41.418  19.839   9.551
  720POPC   PO412360  41.950  20.221   9.361
  720POPC   GL112361  41.725  19.855   9.149
  720POPC   GL212362  41.651  19.484   9.248
  720POPC   C1A12363  41.446  19.876   8.795
  720POPC   D2A12364  41.367  20.128   8.421
  720POPC   C3A12365  41.489  19.966   8.011
  720POPC   C4A12366  41.315  20.002   7.589
  720POPC   C1B12367  41.713  19.427   8.800
  720POPC   C2B12368  41.705  19.642   8.397
  720POPC   C3B12369  41.678  19.473   7.972
  720POPC   C4B12370  41.589  19.597   7.530
  721POPC   NC312371  23.798  44.764   9.458
  721POPC   PO412372  23.171  44.815   9.532
  721POPC   GL112373  23.429  44.830   9.118
  721POPC   GL212374  23.676  44.551   9.020
  721POPC   C1A12375  23.378  44.770   8.679
  721POPC   D2A12376  23.548   0.025   8.393
  721POPC   C3A12377  23.747  44.830   8.086
  721POPC   C4A12378  23.535  44.757   7.722
  721POPC   C1B12379  23.891  44.752   8.630
  721POPC   C2B12380  24.186  44.685   8.319
  721POPC   C3B12381  24.140  44.554   7.908
  721POPC   C4B12382  24.039  44.751   7.566
  722POPC   NC312383   1.362  38.889   9.695
  722POPC   PO412384   0.932  38.234   9.712
  722POPC   GL112385   0.950  38.402   9.233
  722POPC   GL212386   1.060  38.783   9.224
  722POPC   C1A12387   1.195  38.335   8.845
  722POPC   D2A12388   1.462  38.539   8.536
  722POPC   C3A12389   1.333  38.420   8.153
  722POPC   C4A12390   1.463  38.107   7.905
  722POPC   C1B12391   1.223  38.863   8.839
  722POPC   C2B12392   1.067  38.833   8.421
  722POPC   C3B12393   1.171  38.877   7.986
  722POPC   C4B12394   1.253  38.941   7.570
  723POPC   NC312395   4.383  38.109   9.565
  723POPC   PO412396   4.199  38.770   9.675
  723POPC   GL112397   4.304  38.604   9.257
  723POPC   GL212398   4.609  38.404   9.210
  723POPC   C1A12399   4.206  38.631   8.809
  723POPC   D2A12400   4.058  38.854   8.419
  723POPC   C3A12401   4.143  38.632   8.035
  723POPC   C4A12402   4.303  38.494   7.652
  723POPC   C1B12403   4.732  38.639   8.847
  723POPC   C2B12404   4.565  38.601   8.432
  723POPC   C3B12405   4.670  38.680   8.026
  723POPC   C4B12406   4.868  38.774   7.647
  724POPC   NC312407  30.471  22.523   9.309
  724POPC   PO412408  30.468  21.893   9.678
  724POPC   GL112409  30.198  22.036   9.257
  724POPC   GL212410  29.804  22.136   9.209
  724POPC   C1A12411  30.067  21.984   8.786
  724POPC   D2A12412  30.087  21.667   8.432
  724POPC   C3A12413  30.245  21.734   8.016
  724POPC   C4A12414  30.001  21.938   7.683
  724POPC   C1B12415  29.723  22.396   8.814
  724POPC   C2B12416  29.856  22.466   8.400
  724POPC   C3B12417  29.871  22.361   7.972
  724POPC   C4B12418  30.166  22.580   7.739
  725POPC   NC312419   5.341   8.266   9.542
  725POPC   PO412420   6.024   8.235   9.560
  725POPC   GL112421   5.967   8.138   9.158
  725POPC   GL212422   5.611   8.116   9.112
  725POPC   C1A12423   5.992   8.062   8.747
  725POPC   D2A12424   5.755   8.167   8.425
  725POPC   C3A12425   5.981   8.045   8.120
  725POPC   C4A12426   5.833   8.160   7.770
  725POPC   C1B12427   5.573   8.448   8.812
  725POPC   C2B12428   5.439   8.589   8.428
  725POPC   C3B12429   5.603   8.617   8.017
  725POPC   C4B12430   5.408   8.501   7.638
  726POPC   NC312431  14.327  37.008   9.388
  726POPC   PO412432  14.952  36.790   9.509
  726POPC   GL112433  14.631  36.802   9.073
  726POPC   GL212434  14.509  37.136   8.919
  726POPC   C1A12435  14.608  36.771   8.592
  726POPC   D2A12436  14.541  37.071   8.307
  726POPC   C3A12437  14.636  36.924   7.923
  726POPC   C4A12438  14.523  37.232   7.620
  726POPC   C1B12439  14.150  36.948   8.698
  726POPC   C2B12440  14.139  36.742   8.276
  726POPC   C3B12441  14.129  36.998   7.884
  726POPC   C4B12442  14.061  37.023   7.418
  727POPC   NC312443   5.504  13.593   9.455
  727POPC   PO412444   4.850  13.674   9.466
  727POPC   GL112445   5.116  13.767   9.102
  727POPC   GL212446   5.499  13.850   9.020
  727POPC   C1A12447   5.091  13.792   8.668
  727POPC   D2A12448   5.303  13.916   8.322
  727POPC   C3A12449   5.039  13.824   7.944
  727POPC   C4A12450   5.076  13.397   7.859
  727POPC   C1B12451   5.441  13.440   8.778
  727POPC   C2B12452   5.321  13.400   8.334
  727POPC   C3B12453   5.518  13.602   7.967
  727POPC   C4B12454   5.532  13.468   7.559
  728POPC   NC312455  31.308  15.107   9.434
  728POPC   PO412456  31.918  15.570   9.562
  728POPC   GL112457  31.710  15.363   9.225
  728POPC   GL212458  31.810  15.011   9.135
  728POPC   C1A12459  31.464  15.393   8.854
  728POPC   D2A12460  31.271  15.266   8.472
  728POPC   C3A12461  31.360  15.348   8.041
  728POPC   C4A12462  31.688  15.149   7.842
  728POPC   C1B12463  31.705  14.972   8.691
  728POPC   C2B12464  31.585  14.803   8.309
  728POPC   C3B12465  31.513  14.679   7.903
  728POPC   C4B12466  31.284  14.849   7.552
  729POPC   NC312467  23.924   8.259   9.423
  729POPC   PO412468  23.914   7.589   9.493
  729POPC   GL112469  23.768   7.859   9.121
  729POPC   GL212470  23.608   8.252   9.030
  729POPC   C1A12471  23.968   8.049   8.755
  729POPC   D2A12472  23.797   8.259   8.391
  729POPC   C3A12473  23.939   8.046   8.017
  729POPC   C4A12474  23.808   8.119   7.573
  729POPC   C1B12475  23.460   7.970   8.717
  729POPC   C2B12476  23.392   7.959   8.301
  729POPC   C3B12477  23.450   8.160   7.956
  729POPC   C4B12478  23.280   8.114   7.603
  730POPC   NC312479  36.987  18.517   9.720
  730POPC   PO412480  36.657  18.027   9.456
  730POPC   GL112481  36.762  18.292   9.116
  730POPC   GL212482  37.022  18.545   9.203
  730POPC   C1A12483  36.682  18.099   8.727
  730POPC   D2A12484  36.495  18.169   8.336
  730POPC   C3A12485  36.824  18.090   8.049
  730POPC   C4A12486  36.960  18.208   7.662
  730POPC   C1B12487  37.190  18.403   8.816
  730POPC   C2B12488  37.022  18.363   8.422
  730POPC   C3B12489  37.196  18.456   8.034
  730POPC   C4B12490  37.147  18.677   7.668
  731POPC   NC312491  40.953  36.402   9.669
  731POPC   PO412492  40.438  36.856   9.545
  731POPC   GL112493  40.593  36.890   9.142
  731POPC   GL212494  40.853  37.122   9.027
  731POPC   C1A12495  40.598  36.765   8.753
  731POPC   D2A12496  40.762  37.062   8.449
  731POPC   C3A12497  40.884  36.914   8.047
  731POPC   C4A12498  40.625  36.837   7.717
  731POPC   C1B12499  41.172  37.201   8.735
  731POPC   C2B12500  41.266  37.046   8.383
  731POPC   C3B12501  41.290  37.201   7.971
  731POPC   C4B12502  41.205  36.981   7.603
  732POPC   NC312503  24.810  22.731   9.634
  732POPC   PO412504  24.283  23.118   9.709
  732POPC   GL112505  24.500  22.985   9.308
  732POPC   GL212506  24.492  23.297   9.232
  732POPC   C1A12507  24.512  22.865   8.827
  732POPC   D2A12508  24.473  23.016   8.343
  732POPC   C3A12509  24.418  22.973   7.865
  732POPC   C4A12510  24.201  22.940   7.401
  732POPC   C1B12511  24.677  23.340   8.844
  732POPC   C2B12512  24.704  23.489   8.434
  732POPC   C3B12513  24.714  23.380   8.019
  732POPC   C4B12514  24.912  23.328   7.640
  733POPC   NC312515   7.750  14.536   9.572
  733POPC   PO412516   8.314  14.113   9.473
  733POPC   GL112517   8.209  14.338   9.100
  733POPC   GL212518   7.935  14.590   9.084
  733POPC   C1A12519   8.370  14.475   8.728
  733POPC   D2A12520   8.160  14.369   8.357
  733POPC   C3A12521   8.424  14.437   8.021
  733POPC   C4A12522   8.401  14.206   7.646
  733POPC   C1B12523   7.722  14.556   8.675
  733POPC   C2B12524   7.767  14.650   8.209
  733POPC   C3B12525   7.943  14.447   7.861
  733POPC   C4B12526   7.930  14.027   7.787
  734POPC   NC312527  23.885   6.789   9.558
  734POPC   PO412528  23.865   6.231   9.930
  734POPC   GL112529  23.972   6.347   9.353
  734POPC   GL212530  23.793   6.664   9.103
  734POPC   C1A12531  24.085   6.387   8.840
  734POPC   D2A12532  23.851   6.743   8.573
  734POPC   C3A12533  23.790   6.880   8.104
  734POPC   C4A12534  23.599   6.587   7.819
  734POPC   C1B12535  23.467   6.926   8.898
  734POPC   C2B12536  23.375   7.101   8.487
  734POPC   C3B12537  23.278   6.957   8.079
  734POPC   C4B12538  23.455   7.054   7.676
  735POPC   NC312539  32.685  31.642   9.325
  735POPC   PO412540  32.549  31.187   9.903
  735POPC   GL112541  32.420  31.175   9.384
  735POPC   GL212542  32.146  31.406   9.211
  735POPC   C1A12543  32.461  31.183   8.884
  735POPC   D2A12544  32.507  31.573   8.594
  735POPC   C3A12545  32.565  31.548   8.134
  735POPC   C4A12546  32.397  31.227   7.880
  735POPC   C1B12547  32.016  31.421   8.741
  735POPC   C2B12548  32.056  31.456   8.260
  735POPC   C3B12549  32.091  31.666   7.839
  735POPC   C4B12550  32.083  31.897   7.403
  736POPC   NC312551  19.448   3.128   9.620
  736POPC   PO412552  19.334   3.808   9.682
  736POPC   GL112553  19.132   3.494   9.345
  736POPC   GL212554  19.385   3.347   9.157
  736POPC   C1A12555  18.910   3.381   8.926
  736POPC   D2A12556  18.915   3.708   8.541
  736POPC   C3A12557  19.047   3.604   8.161
  736POPC   C4A12558  18.926   3.245   7.955
  736POPC   C1B12559  19.328   3.564   8.760
  736POPC   C2B12560  19.336   3.270   8.411
  736POPC   C3B12561  19.443   3.321   7.977
  736POPC   C4B12562  19.293   3.659   7.719
  737POPC   NC312563  37.111  17.994   9.350
  737POPC   PO412564  37.043  17.325   9.464
  737POPC   GL112565  36.909  17.569   9.123
  737POPC   GL212566  37.231  17.540   9.007
  737POPC   C1A12567  36.625  17.564   8.773
  737POPC   D2A12568  36.744  17.695   8.383
  737POPC   C3A12569  36.595  17.558   8.012
  737POPC   C4A12570  36.843  17.715   7.706
  737POPC   C1B12571  37.006  17.196   8.784
  737POPC   C2B12572  37.083  17.100   8.375
  737POPC   C3B12573  37.056  17.356   8.019
  737POPC   C4B12574  37.232  17.432   7.601
  738POPC   NC312575  43.542  41.349   9.553
  738POPC   PO412576  43.090  41.922   9.456
  738POPC   GL112577  43.211  41.712   9.090
  738POPC   GL212578  43.303  41.356   9.102
  738POPC   C1A12579  43.261  41.802   8.659
  738POPC   D2A12580  43.011  41.700   8.302
  738POPC   C3A12581  43.087  41.302   8.073
  738POPC   C4A12582  42.837  41.202   7.703
  738POPC   C1B12583  43.347  41.295   8.647
  738POPC   C2B12584  43.553  41.490   8.306
  738POPC   C3B12585  43.406  41.690   7.964
  738POPC   C4B12586  43.259  41.497   7.577
  739POPC   NC312587  42.963   4.284   9.577
  739POPC   PO412588  43.632   4.246   9.598
  739POPC   GL112589  43.333   4.370   9.210
  739POPC   GL212590  42.955   4.466   9.102
  739POPC   C1A12591  43.389   4.461   8.778
  739POPC   D2A12592  43.249   4.206   8.421
  739POPC   C3A12593  43.359   4.388   8.051
  739POPC   C4A12594  43.108   4.406   7.751
  739POPC   C1B12595  42.882   4.132   8.787
  739POPC   C2B12596  42.789   3.938   8.362
  739POPC   C3B12597  42.745   4.072   7.913
  739POPC   C4B12598  42.655   4.361   7.540
  740POPC   NC312599  35.357  31.024   9.593
  740POPC   PO412600  35.560  30.416   9.445
  740POPC   GL112601  35.355  30.686   9.192
  740POPC   GL212602  35.606  30.936   9.161
  740POPC   C1A12603  35.161  30.622   8.839
  740POPC   D2A12604  35.077  30.419   8.472
  740POPC   C3A12605  35.246  30.429   8.104
  740POPC   C4A12606  35.011  30.394   7.752
  740POPC   C1B12607  35.444  31.027   8.777
  740POPC   C2B12608  35.325  30.851   8.416
  740POPC   C3B12609  35.173  30.908   8.050
  740POPC   C4B12610  35.540  31.085   7.870
  741POPC   NC312611  42.427   4.909   9.474
  741POPC   PO412612  42.711   5.516   9.474
  741POPC   GL112613  42.486   5.301   9.108
  741POPC   GL212614  42.163   5.305   9.256
  741POPC   C1A12615  42.483   4.975   8.727
  741POPC   D2A12616  42.348   4.856   8.293
  741POPC   C3A12617  42.502   5.078   7.919
  741POPC   C4A12618  42.305   5.118   7.525
  741POPC   C1B12619  42.057   5.231   8.827
  741POPC   C2B12620  42.238   5.369   8.446
  741POPC   C3B12621  42.082   5.347   8.021
  741POPC   C4B12622  41.964   4.985   7.884
  742POPC   NC312623   4.384  19.358   9.873
  742POPC   PO412624   4.342  19.921   9.574
  742POPC   GL112625   4.235  19.904   9.159
  742POPC   GL212626   4.557  20.060   9.095
  742POPC   C1A12627   4.003  19.839   8.757
  742POPC   D2A12628   4.041  19.652   8.364
  742POPC   C3A12629   4.030  19.908   7.990
  742POPC   C4A12630   4.337  19.875   7.702
  742POPC   C1B12631   4.309  20.241   8.769
  742POPC   C2B12632   4.413  20.050   8.377
  742POPC   C3B12633   4.523  20.237   7.992
  742POPC   C4B12634   4.667  20.236   7.565
  743POPC   NC312635  11.611  22.762   9.518
  743POPC   PO412636  11.368  22.071   9.731
  743POPC   GL112637  11.261  22.329   9.373
  743POPC   GL212638  11.580  22.313   9.222
  743POPC   C1A12639  11.050  22.239   8.963
  743POPC   D2A12640  11.137  22.194   8.501
  743POPC   C3A12641  10.974  22.118   8.090
  743POPC   C4A12642  11.134  22.183   7.679
  743POPC   C1B12643  11.781  22.412   8.829
  743POPC   C2B12644  11.664  22.174   8.473
  743POPC   C3B12645  11.494  22.171   8.070
  743POPC   C4B12646  11.630  22.076   7.672
  744POPC   NC312647  20.338  39.791   9.566
  744POPC   PO412648  20.685  39.195   9.570
  744POPC   GL112649  20.709  39.359   9.127
  744POPC   GL212650  20.987  39.626   9.101
  744POPC   C1A12651  20.587  39.117   8.712
  744POPC   D2A12652  20.648  38.996   8.270
  744POPC   C3A12653  20.483  39.208   7.881
  744POPC   C4A12654  20.683  39.253   7.436
  744POPC   C1B12655  20.869  39.550   8.656
  744POPC   C2B12656  20.925  39.411   8.228
  744POPC   C3B12657  20.852  39.544   7.802
  744POPC   C4B12658  20.991  39.670   7.348
  745POPC   NC312659  17.261  14.533   9.481
  745POPC   PO412660  17.911  14.674   9.705
  745POPC   GL112661  17.724  14.452   9.282
  745POPC   GL212662  17.469  14.185   9.168
  745POPC   C1A12663  17.707  14.428   8.795
  745POPC   D2A12664  17.666  14.635   8.373
  745POPC   C3A12665  17.578  14.446   7.925
  745POPC   C4A12666  17.439  14.505   7.486
  745POPC   C1B12667  17.280  14.133   8.737
  745POPC   C2B12668  17.290  14.177   8.272
  745POPC   C3B12669  17.422  13.955   7.871
  745POPC   C4B12670  17.260  14.007   7.432
  746POPC   NC312671  38.923  28.465   9.489
  746POPC   PO412672  38.321  28.141   9.623
  746POPC   GL112673  38.496  28.286   9.239
  746POPC   GL212674  38.424  27.973   9.116
  746POPC   C1A12675  38.727  28.452   8.856
  746POPC   D2A12676  38.542  28.530   8.443
  746POPC   C3A12677  38.723  28.405   8.075
  746POPC   C4A12678  38.621  28.592   7.678
  746POPC   C1B12679  38.311  28.152   8.726
  746POPC   C2B12680  38.194  28.134   8.304
  746POPC   C3B12681  38.315  28.188   7.869
  746POPC   C4B12682  38.338  28.046   7.469
  747POPC   NC312683  15.957  19.965   9.525
  747POPC   PO412684  16.133  19.341   9.451
  747POPC   GL112685  15.896  19.595   9.104
  747POPC   GL212686  15.912  19.957   9.031
  747POPC   C1A12687  15.868  19.665   8.627
  747POPC   D2A12688  15.938  19.896   8.246
  747POPC   C3A12689  15.884  19.575   7.919
  747POPC   C4A12690  15.708  19.412   7.529
  747POPC   C1B12691  15.687  20.157   8.712
  747POPC   C2B12692  15.496  20.252   8.354
  747POPC   C3B12693  15.651  20.211   7.972
  747POPC   C4B12694  15.983  20.084   7.725
  748POPC   NC312695   4.203  12.715   9.947
  748POPC   PO412696   4.630  12.701   9.390
  748POPC   GL112697   4.235  12.685   9.157
  748POPC   GL212698   4.234  13.025   9.124
  748POPC   C1A12699   4.264  12.471   8.763
  748POPC   D2A12700   4.191  12.656   8.382
  748POPC   C3A12701   4.464  12.631   8.083
  748POPC   C4A12702   4.327  12.677   7.671
  748POPC   C1B12703   4.478  12.949   8.753
  748POPC   C2B12704   4.452  13.137   8.365
  748POPC   C3B12705   4.286  13.092   7.980
  748POPC   C4B12706   4.377  13.150   7.535
  749POPC   NC312707  24.159  11.442   9.318
  749POPC   PO412708  24.737  11.177   9.488
  749POPC   GL112709  24.517  11.174   9.118
  749POPC   GL212710  24.260  10.919   9.224
  749POPC   C1A12711  24.519  11.281   8.694
  749POPC   D2A12712  24.791  11.271   8.340
  749POPC   C3A12713  24.706  11.605   8.045
  749POPC   C4A12714  24.356  11.558   7.743
  749POPC   C1B12715  24.414  10.775   8.821
  749POPC   C2B12716  24.358  10.880   8.410
  749POPC   C3B12717  24.381  11.111   8.022
  749POPC   C4B12718  24.375  11.066   7.577
  750POPC   NC312719  42.015  35.101   9.707
  750POPC   PO412720  42.564  35.349   9.396
  750POPC   GL112721  42.369  35.329   9.062
  750POPC   GL212722  42.060  35.313   9.232
  750POPC   C1A12723  42.348  35.278   8.634
  750POPC   D2A12724  42.249  35.097   8.298
  750POPC   C3A12725  42.411  35.376   8.050
  750POPC   C4A12726  42.522  35.304   7.691
  750POPC   C1B12727  41.910  35.420   8.848
  750POPC   C2B12728  41.959  35.597   8.451
  750POPC   C3B12729  41.914  35.411   8.084
  750POPC   C4B12730  42.055  35.546   7.693
  751POPC   NC312731   4.437  39.454   9.416
  751POPC   PO412732   4.475  40.122   9.556
  751POPC   GL112733   4.281  39.914   9.241
  751POPC   GL212734   4.515  40.042   9.007
  751POPC   C1A12735   4.037  39.972   8.879
  751POPC   D2A12736   4.249  40.003   8.498
  751POPC   C3A12737   4.037  39.906   8.143
  751POPC   C4A12738   3.989  40.136   7.792
  751POPC   C1B12739   4.762  40.197   8.669
  751POPC   C2B12740   4.731  40.016   8.294
  751POPC   C3B12741   4.492  40.156   7.962
  751POPC   C4B12742   4.598  40.174   7.544
  752POPC   NC312743   9.987   6.195   9.360
  752POPC   PO412744   9.526   5.711   9.416
  752POPC   GL112745   9.726   5.838   9.097
  752POPC   GL212746   9.520   6.173   9.143
  752POPC   C1A12747   9.836   5.631   8.689
  752POPC   D2A12748   9.587   5.701   8.297
  752POPC   C3A12749   9.723   5.966   7.963
  752POPC   C4A12750   9.785   5.681   7.651
  752POPC   C1B12751   9.482   6.018   8.716
  752POPC   C2B12752   9.490   6.207   8.356
  752POPC   C3B12753   9.430   6.390   7.996
  752POPC   C4B12754   9.302   6.215   7.641
  753POPC   NC312755  38.235  20.653   9.541
  753POPC   PO412756  38.956  20.992   9.373
  753POPC   GL112757  38.619  20.730   9.089
  753POPC   GL212758  38.249  20.605   9.067
  753POPC   C1A12759  38.386  20.830   8.661
  753POPC   D2A12760  38.408  21.151   8.364
  753POPC   C3A12761  38.441  20.859   8.074
  753POPC   C4A12762  38.393  20.778   7.654
  753POPC   C1B12763  38.317  20.325   8.730
  753POPC   C2B12764  38.539  20.427   8.362
  753POPC   C3B12765  38.339  20.365   7.971
  753POPC   C4B12766  38.218  19.943   7.824
  754POPC   NC312767  17.842  20.746   9.964
  754POPC   PO412768  17.368  20.829   9.583
  754POPC   GL112769  17.563  20.798   9.191
  754POPC   GL212770  17.227  20.742   9.096
  754POPC   C1A12771  17.720  20.543   8.821
  754POPC   D2A12772  17.509  20.424   8.431
  754POPC   C3A12773  17.625  20.637   8.073
  754POPC   C4A12774  17.903  20.560   7.736
  754POPC   C1B12775  17.297  20.800   8.686
  754POPC   C2B12776  17.166  20.790   8.275
  754POPC   C3B12777  17.177  20.626   7.854
  754POPC   C4B12778  17.450  20.299   7.723
  755POPC   NC312779  37.935  36.554   9.446
  755POPC   PO412780  37.509  37.068   9.599
  755POPC   GL112781  37.520  37.054   9.170
  755POPC   GL212782  37.368  36.728   9.181
  755POPC   C1A12783  37.659  36.941   8.752
  755POPC   D2A12784  37.882  36.763   8.392
  755POPC   C3A12785  37.710  36.925   8.029
  755POPC   C4A12786  37.638  36.781   7.607
  755POPC   C1B12787  37.147  36.846   8.799
  755POPC   C2B12788  37.138  37.006   8.348
  755POPC   C3B12789  37.222  36.819   7.918
  755POPC   C4B12790  37.171  36.722   7.441
  756POPC   NC312791  43.444  25.859   9.800
  756POPC   PO412792  43.028  26.343   9.536
  756POPC   GL112793  43.050  26.161   9.150
  756POPC   GL212794  43.226  25.887   9.275
  756POPC   C1A12795  42.837  26.084   8.751
  756POPC   D2A12796  43.006  26.035   8.365
  756POPC   C3A12797  42.774  26.080   8.015
  756POPC   C4A12798  42.955  26.047   7.606
  756POPC   C1B12799  43.206  25.743   8.839
  756POPC   C2B12800  43.239  25.600   8.413
  756POPC   C3B12801  43.174  25.692   7.933
  756POPC   C4B12802  43.029  25.564   7.484
  757POPC   NC312803  32.069  37.327   9.394
  757POPC   PO412804  32.462  37.976   9.496
  757POPC   GL112805  32.237  37.763   9.208
  757POPC   GL212806  31.900  37.877   9.231
  757POPC   C1A12807  32.264  37.559   8.807
  757POPC   D2A12808  32.131  37.544   8.429
  757POPC   C3A12809  32.353  37.646   8.105
  757POPC   C4A12810  32.191  37.546   7.720
  757POPC   C1B12811  31.774  37.768   8.783
  757POPC   C2B12812  31.849  38.001   8.381
  757POPC   C3B12813  31.869  38.129   7.909
  757POPC   C4B12814  31.950  37.925   7.483
  758POPC   NC312815  13.927   7.554   9.476
  758POPC   PO412816  14.555   7.219   9.480
  758POPC   GL112817  14.409   7.498   9.149
  758POPC   GL212818  14.162   7.272   9.086
  758POPC   C1A12819  14.278   7.604   8.705
  758POPC   D2A12820  14.117   7.429   8.310
  758POPC   C3A12821  14.300   7.602   7.936
  758POPC   C4A12822  14.445   7.663   7.520
  758POPC   C1B12823  14.567   7.062   8.869
  758POPC   C2B12824  14.693   7.017   8.436
  758POPC   C3B12825  14.606   7.167   8.010
  758POPC   C4B12826  14.832   7.091   7.633
  759POPC   NC312827  26.613   9.952   9.535
  759POPC   PO412828  26.875  10.615   9.746
  759POPC   GL112829  26.781  10.645   9.314
  759POPC   GL212830  26.508  10.437   9.270
  759POPC   C1A12831  26.924  10.533   8.918
  759POPC   D2A12832  27.130  10.570   8.524
  759POPC   C3A12833  26.931  10.366   8.173
  759POPC   C4A12834  27.081  10.091   7.858
  759POPC   C1B12835  26.454  10.763   8.919
  759POPC   C2B12836  26.588  10.617   8.514
  759POPC   C3B12837  26.497  10.611   8.067
  759POPC   C4B12838  26.630  10.349   7.726
  760POPC   NC312839  31.810  26.947   9.608
  760POPC   PO412840  31.527  26.393   9.480
  760POPC   GL112841  31.507  26.750   9.190
  760POPC   GL212842  31.745  27.022   9.125
  760POPC   C1A12843  31.367  26.810   8.766
  760POPC   D2A12844  31.484  26.588   8.405
  760POPC   C3A12845  31.431  26.786   8.020
  760POPC   C4A12846  31.262  26.597   7.650
  760POPC   C1B12847  31.880  26.785   8.767
  760POPC   C2B12848  31.852  26.913   8.344
  760POPC   C3B12849  31.993  27.049   7.952
  760POPC   C4B12850  31.671  27.010   7.618
  761POPC   NC312851  37.014  10.137   9.407
  761POPC   PO412852  36.657   9.629   9.510
  761POPC   GL112853  36.878   9.613   9.135
  761POPC   GL212854  36.931   9.938   8.940
  761POPC   C1A12855  36.761   9.462   8.721
  761POPC   D2A12856  36.618   9.703   8.361
  761POPC   C3A12857  36.890   9.798   8.005
  761POPC   C4A12858  36.762   9.827   7.559
  761POPC   C1B12859  37.380  10.068   8.773
  761POPC   C2B12860  37.532  10.178   8.380
  761POPC   C3B12861  37.363  10.034   7.980
  761POPC   C4B12862  37.190  10.115   7.565
  762POPC   NC312863   4.946  37.295   9.426
  762POPC   PO412864   5.351  36.734   9.529
  762POPC   GL112865   5.148  36.854   9.139
  762POPC   GL212866   4.782  36.876   9.168
  762POPC   C1A12867   5.084  36.919   8.697
  762POPC   D2A12868   5.159  37.027   8.268
  762POPC   C3A12869   4.982  36.840   7.900
  762POPC   C4A12870   5.147  36.650   7.500
  762POPC   C1B12871   4.672  37.171   8.847
  762POPC   C2B12872   4.664  37.123   8.412
  762POPC   C3B12873   4.611  37.225   8.002
  762POPC   C4B12874   4.762  37.219   7.596
  763POPC   NC312875  18.561  21.676   9.242
  763POPC   PO412876  19.030  22.249   9.453
  763POPC   GL112877  19.213  22.309   9.078
  763POPC   GL212878  19.204  21.984   9.040
  763POPC   C1A12879  19.006  22.327   8.687
  763POPC   D2A12880  18.999  22.189   8.261
  763POPC   C3A12881  19.107  22.525   8.012
  763POPC   C4A12882  19.040  22.646   7.611
  763POPC   C1B12883  18.981  21.805   8.716
  763POPC   C2B12884  18.860  21.668   8.315
  763POPC   C3B12885  18.864  21.825   7.890
  763POPC   C4B12886  19.015  22.146   7.667
  764POPC   NC312887   4.206  16.366   9.534
  764POPC   PO412888   4.230  17.023   9.563
  764POPC   GL112889   4.334  16.854   9.158
  764POPC   GL212890   4.122  16.592   9.084
  764POPC   C1A12891   4.136  16.963   8.738
  764POPC   D2A12892   3.896  16.710   8.442
  764POPC   C3A12893   4.103  16.723   8.043
  764POPC   C4A12894   4.532  16.847   7.782
  764POPC   C1B12895   4.283  16.459   8.692
  764POPC   C2B12896   4.208  16.277   8.289
  764POPC   C3B12897   4.430  16.370   7.930
  764POPC   C4B12898   4.255  16.523   7.537
  765POPC   NC312899   2.099  44.857   9.600
  765POPC   PO412900   1.931  44.220   9.626
  765POPC   GL112901   2.019  44.500   9.225
  765POPC   GL212902   1.852  44.847   9.163
  765POPC   C1A12903   2.261  44.543   8.822
  765POPC   D2A12904   2.212  44.331   8.412
  765POPC   C3A12905   2.155  44.583   8.083
  765POPC   C4A12906   2.082  44.713   7.677
  765POPC   C1B12907   1.765  44.707   8.781
  765POPC   C2B12908   1.738  44.550   8.409
  765POPC   C3B12909   1.654  44.688   8.007
  765POPC   C4B12910   1.641  44.460   7.626
  766POPC   NC312911  42.542   7.213   9.170
  766POPC   PO412912  42.329   7.806   9.281
  766POPC   GL112913  42.078   7.714   8.961
  766POPC   GL212914  42.122   7.364   8.956
  766POPC   C1A12915  42.322   7.700   8.589
  766POPC   D2A12916  42.578   7.607   8.232
  766POPC   C3A12917  42.507   7.297   7.973
  766POPC   C4A12918  42.398   7.348   7.587
  766POPC   C1B12919  42.106   7.243   8.535
  766POPC   C2B12920  42.069   7.507   8.186
  766POPC   C3B12921  41.995   7.237   7.882
  766POPC   C4B12922  41.996   7.066   7.485
  767POPC   NC312923  23.303  23.755   9.300
  767POPC   PO412924  23.911  23.655   9.608
  767POPC   GL112925  23.810  23.757   9.170
  767POPC   GL212926  23.860  24.094   9.154
  767POPC   C1A12927  23.610  23.925   8.751
  767POPC   D2A12928  23.535  23.963   8.324
  767POPC   C3A12929  23.711  23.615   8.122
  767POPC   C4A12930  23.557  23.462   7.760
  767POPC   C1B12931  24.117  24.023   8.806
  767POPC   C2B12932  24.043  23.873   8.415
  767POPC   C3B12933  23.951  24.069   8.034
  767POPC   C4B12934  24.017  24.101   7.615
  768POPC   NC312935   3.723  44.091   9.341
  768POPC   PO412936   3.455  44.673   9.580
  768POPC   GL112937   3.683  44.597   9.208
  768POPC   GL212938   3.371  44.582   9.064
  768POPC   C1A12939   3.755  44.773   8.759
  768POPC   D2A12940   3.823  44.887   8.288
  768POPC   C3A12941   3.528  44.724   7.932
  768POPC   C4A12942   3.516  44.702   7.430
  768POPC   C1B12943   3.157  44.606   8.692
  768POPC   C2B12944   3.129  44.555   8.256
  768POPC   C3B12945   3.281  44.245   8.008
  768POPC   C4B12946   3.266  44.304   7.582
  769POPC   NC312947  13.432  31.931   9.282
  769POPC   PO412948  13.830  32.455   9.326
  769POPC   GL112949  13.826  32.163   8.957
  769POPC   GL212950  13.606  31.884   8.820
  769POPC   C1A12951  13.834  32.206   8.492
  769POPC   D2A12952  13.653  32.465   8.158
  769POPC   C3A12953  13.693  32.229   7.765
  769POPC   C4A12954  13.845  31.995   7.373
  769POPC   C1B12955  13.354  32.254   8.703
  769POPC   C2B12956  13.209  32.194   8.293
  769POPC   C3B12957  13.197  32.402   7.905
  769POPC   C4B12958  13.275  32.333   7.480
  770POPC   NC312959   1.568  24.689   9.539
  770POPC   PO412960   0.974  24.356   9.437
  770POPC   GL112961   1.249  24.533   9.162
  770POPC   GL212962   0.997  24.766   9.073
  770POPC   C1A12963   1.481  24.718   8.825
  770POPC   D2A12964   1.510  24.512   8.403
  770POPC   C3A12965   1.516  24.696   7.998
  770POPC   C4A12966   1.192  24.570   7.741
  770POPC   C1B12967   1.038  24.557   8.653
  770POPC   C2B12968   1.019  24.611   8.221
  770POPC   C3B12969   0.708  24.487   7.891
  770POPC   C4B12970   0.784  24.563   7.448
  771POPC   NC312971   1.520   3.699   9.589
  771POPC   PO412972   0.911   3.713   9.466
  771POPC   GL112973   1.231   3.621   9.168
  771POPC   GL212974   1.256   3.958   9.178
  771POPC   C1A12975   1.191   3.413   8.757
  771POPC   D2A12976   0.849   3.436   8.432
  771POPC   C3A12977   1.044   3.466   8.021
  771POPC   C4A12978   1.417   3.400   7.818
  771POPC   C1B12979   1.045   3.899   8.775
  771POPC   C2B12980   1.193   3.817   8.390
  771POPC   C3B12981   1.077   3.992   8.027
  771POPC   C4B12982   1.163   3.817   7.631
  772POPC   NC312983  19.564  23.408   9.473
  772POPC   PO412984  19.889  22.696   9.537
  772POPC   GL112985  19.922  22.956   9.205
  772POPC   GL212986  19.555  22.960   9.182
  772POPC   C1A12987  20.024  22.806   8.791
  772POPC   D2A12988  19.817  22.765   8.391
  772POPC   C3A12989  19.976  22.713   7.982
  772POPC   C4A12990  19.918  22.653   7.529
  772POPC   C1B12991  19.661  23.202   8.821
  772POPC   C2B12992  19.718  23.400   8.442
  772POPC   C3B12993  19.777  23.200   8.087
  772POPC   C4B12994  19.913  23.129   7.702
  773POPC   NC312995   2.243  29.657   9.442
  773POPC   PO412996   1.582  29.966   9.565
  773POPC   GL112997   1.879  29.980   9.247
  773POPC   GL212998   2.142  30.228   9.162
  773POPC   C1A12999   1.832  29.858   8.843
  773POPC   D2A13000   1.883  30.008   8.462
  773POPC   C3A13001   1.944  29.746   8.131
  773POPC   C4A13002   1.817  29.907   7.762
  773POPC   C1B13003   2.331  30.110   8.720
  773POPC   C2B13004   2.316  30.115   8.225
  773POPC   C3B13005   2.292  30.105   7.765
  773POPC   C4B13006   2.553  30.106   7.386
  774POPC   NC313007  32.127  24.539   9.460
  774POPC   PO413008  32.743  24.301   9.679
  774POPC   GL113009  32.580  24.377   9.253
  774POPC   GL213010  32.363  24.078   9.261
  774POPC   C1A13011  32.443  24.597   8.821
  774POPC   D2A13012  32.211  24.752   8.427
  774POPC   C3A13013  32.377  24.624   8.034
  774POPC   C4A13014  32.059  24.586   7.736
  774POPC   C1B13015  32.485  24.086   8.834
  774POPC   C2B13016  32.559  24.288   8.436
  774POPC   C3B13017  32.550  24.059   8.073
  774POPC   C4B13018  32.366  24.155   7.710
  775POPC   NC313019  13.865  27.734   9.506
  775POPC   PO413020  14.459  27.476   9.726
  775POPC   GL113021  14.279  27.580   9.259
  775POPC   GL213022  14.433  27.860   9.147
  775POPC   C1A13023  14.093  27.755   8.804
  775POPC   D2A13024  13.900  27.667   8.389
  775POPC   C3A13025  14.193  27.599   8.060
  775POPC   C4A13026  14.501  27.283   7.875
  775POPC   C1B13027  14.518  27.480   8.833
  775POPC   C2B13028  14.565  27.479   8.389
  775POPC   C3B13029  14.670  27.742   8.029
  775POPC   C4B13030  14.836  27.689   7.655
  776POPC   NC313031  36.859  11.093   9.410
  776POPC   PO413032  36.641  10.436   9.425
  776POPC   GL113033  37.010  10.581   9.175
  776POPC   GL213034  37.183  10.845   9.033
  776POPC   C1A13035  37.022  10.417   8.777
  776POPC   D2A13036  36.977  10.112   8.443
  776POPC   C3A13037  36.992  10.347   8.091
  776POPC   C4A13038  36.912  10.522   7.730
  776POPC   C1B13039  36.845  10.904   8.747
  776POPC   C2B13040  36.725  10.649   8.407
  776POPC   C3B13041  36.547  10.706   8.029
  776POPC   C4B13042  36.691  10.965   7.691
  777POPC   NC313043  25.830  11.511   9.557
  777POPC   PO413044  26.415  11.181   9.583
  777POPC   GL113045  26.159  11.256   9.181
  777POPC   GL213046  25.932  11.535   9.061
  777POPC   C1A13047  26.107  11.198   8.725
  777POPC   D2A13048  26.188  10.909   8.423
  777POPC   C3A13049  26.317  11.081   8.059
  777POPC   C4A13050  26.004  11.208   7.842
  777POPC   C1B13051  25.752  11.627   8.658
  777POPC   C2B13052  26.087  11.590   8.345
  777POPC   C3B13053  26.295  11.595   7.955
  777POPC   C4B13054  26.051  11.645   7.577
  778POPC   NC313055  35.995   4.913   9.309
  778POPC   PO413056  36.465   5.385   9.438
  778POPC   GL113057  36.325   5.196   9.043
  778POPC   GL213058  35.974   5.277   8.932
  778POPC   C1A13059  36.308   5.128   8.577
  778POPC   D2A13060  36.129   4.881   8.248
  778POPC   C3A13061  36.328   5.003   7.896
  778POPC   C4A13062  36.296   5.449   7.897
  778POPC   C1B13063  35.761   5.118   8.583
  778POPC   C2B13064  35.872   5.327   8.195
  778POPC   C3B13065  35.856   5.130   7.798
  778POPC   C4B13066  35.745   5.150   7.374
  779POPC   NC313067  15.273  24.664   9.794
  779POPC   PO413068  14.942  24.153   9.447
  779POPC   GL113069  15.126  24.513   9.186
  779POPC   GL213070  15.342  24.800   9.259
  779POPC   C1A13071  15.144  24.540   8.745
  779POPC   D2A13072  15.222  24.302   8.379
  779POPC   C3A13073  15.011  24.487   8.054
  779POPC   C4A13074  15.058  24.617   7.628
  779POPC   C1B13075  15.588  24.721   8.890
  779POPC   C2B13076  15.635  24.600   8.456
  779POPC   C3B13077  15.478  24.684   8.010
  779POPC   C4B13078  15.506  24.816   7.564
  780POPC   NC313079   8.265  15.393   9.565
  780POPC   PO413080   7.786  14.960   9.412
  780POPC   GL113081   8.129  15.133   9.156
  780POPC   GL213082   8.370  14.889   9.055
  780POPC   C1A13083   8.247  15.382   8.788
  780POPC   D2A13084   8.053  15.355   8.371
  780POPC   C3A13085   8.192  15.461   7.962
  780POPC   C4A13086   8.285  15.251   7.549
  780POPC   C1B13087   8.088  14.910   8.698
  780POPC   C2B13088   8.232  14.879   8.299
  780POPC   C3B13089   8.089  14.935   7.900
  780POPC   C4B13090   8.322  14.709   7.591
  781POPC   NC313091  29.357  14.143   9.373
  781POPC   PO413092  29.059  13.538   9.685
  781POPC   GL113093  29.087  13.671   9.268
  781POPC   GL213094  29.416  13.624   9.212
  781POPC   C1A13095  29.037  13.573   8.824
  781POPC   D2A13096  28.785  13.742   8.471
  781POPC   C3A13097  28.990  13.790   8.081
  781POPC   C4A13098  29.166  13.496   7.784
  781POPC   C1B13099  29.520  13.800   8.805
  781POPC   C2B13100  29.372  13.695   8.418
  781POPC   C3B13101  29.481  13.816   8.021
  781POPC   C4B13102  29.309  13.971   7.679
  782POPC   NC313103  26.273  12.564   9.600
  782POPC   PO413104  26.040  11.912   9.588
  782POPC   GL113105  26.048  12.003   9.188
  782POPC   GL213106  25.934  12.310   9.155
  782POPC   C1A13107  26.148  11.970   8.745
  782POPC   D2A13108  26.266  12.238   8.396
  782POPC   C3A13109  26.267  12.084   7.965
  782POPC   C4A13110  26.459  11.947   7.539
  782POPC   C1B13111  26.062  12.516   8.813
  782POPC   C2B13112  26.024  12.686   8.438
  782POPC   C3B13113  25.883  12.503   8.084
  782POPC   C4B13114  26.070  12.460   7.709
  783POPC   NC313115   5.616  29.574   9.460
  783POPC   PO413116   6.122  30.068   9.644
  783POPC   GL113117   6.049  29.824   9.276
  783POPC   GL213118   5.740  29.941   9.100
  783POPC   C1A13119   6.177  29.697   8.872
  783POPC   D2A13120   6.037  29.940   8.530
  783POPC   C3A13121   6.111  29.794   8.106
  783POPC   C4A13122   6.008  29.918   7.711
  783POPC   C1B13123   5.615  30.193   8.719
  783POPC   C2B13124   5.599  30.337   8.270
  783POPC   C3B13125   5.591  30.204   7.826
  783POPC   C4B13126   5.522  29.853   7.523
  784POPC   NC313127  30.934  21.946   9.682
  784POPC   PO413128  31.569  22.058   9.651
  784POPC   GL113129  31.317  22.111   9.253
  784POPC   GL213130  31.257  22.469   9.105
  784POPC   C1A13131  31.479  22.084   8.820
  784POPC   D2A13132  31.605  22.263   8.432
  784POPC   C3A13133  31.413  22.093   8.082
  784POPC   C4A13134  31.538  21.909   7.710
  784POPC   C1B13135  31.070  22.380   8.738
  784POPC   C2B13136  31.000  22.332   8.332
  784POPC   C3B13137  31.167  22.525   7.982
  784POPC   C4B13138  31.425  22.397   7.624
  785POPC   NC313139   9.154   6.509   9.582
  785POPC   PO413140   8.638   7.052   9.500
  785POPC   GL113141   8.920   6.860   9.254
  785POPC   GL213142   8.751   6.579   9.174
  785POPC   C1A13143   9.087   6.817   8.842
  785POPC   D2A13144   8.892   6.834   8.441
  785POPC   C3A13145   9.099   6.745   8.088
  785POPC   C4A13146   9.029   6.623   7.698
  785POPC   C1B13147   8.596   6.577   8.762
  785POPC   C2B13148   8.696   6.362   8.361
  785POPC   C3B13149   8.607   6.549   7.976
  785POPC   C4B13150   8.560   6.658   7.524
  786POPC   NC313151  25.781  37.211   9.574
  786POPC   PO413152  26.428  37.113   9.460
  786POPC   GL113153  26.289  36.956   9.097
  786POPC   GL213154  25.936  36.933   9.089
  786POPC   C1A13155  26.204  36.949   8.653
  786POPC   D2A13156  25.934  36.917   8.308
  786POPC   C3A13157  26.222  36.828   7.993
  786POPC   C4A13158  26.509  37.076   7.763
  786POPC   C1B13159  25.749  36.677   8.718
  786POPC   C2B13160  25.744  36.448   8.289
  786POPC   C3B13161  25.801  36.575   7.820
  786POPC   C4B13162  25.772  36.585   7.348
  787POPC   NC313163  34.441  11.608   9.530
  787POPC   PO413164  34.873  11.113   9.571
  787POPC   GL113165  34.683  11.252   9.219
  787POPC   GL213166  34.819  11.547   9.170
  787POPC   C1A13167  34.496  11.183   8.835
  787POPC   D2A13168  34.476  10.931   8.482
  787POPC   C3A13169  34.498  11.070   8.060
  787POPC   C4A13170  34.316  11.218   7.684
  787POPC   C1B13171  34.685  11.643   8.797
  787POPC   C2B13172  34.656  11.428   8.399
  787POPC   C3B13173  34.711  11.570   7.970
  787POPC   C4B13174  34.661  11.714   7.545
  788POPC   NC313175   1.976  14.551   9.585
  788POPC   PO413176   1.687  13.964   9.526
  788POPC   GL113177   1.808  14.244   9.177
  788POPC   GL213178   1.868  14.621   9.118
  788POPC   C1A13179   2.018  14.181   8.794
  788POPC   D2A13180   2.213  14.223   8.406
  788POPC   C3A13181   1.852  14.150   8.141
  788POPC   C4A13182   1.930  14.144   7.703
  788POPC   C1B13183   2.029  14.700   8.746
  788POPC   C2B13184   1.918  14.653   8.335
  788POPC   C3B13185   2.125  14.549   7.964
  788POPC   C4B13186   1.973  14.657   7.552
  789POPC   NC313187  28.192  41.364   9.612
  789POPC   PO413188  28.381  40.688   9.598
  789POPC   GL113189  28.274  40.734   9.178
  789POPC   GL213190  28.596  40.809   9.021
  789POPC   C1A13191  28.213  40.664   8.742
  789POPC   D2A13192  28.387  40.884   8.422
  789POPC   C3A13193  28.251  40.729   8.051
  789POPC   C4A13194  28.096  40.801   7.638
  789POPC   C1B13195  28.784  41.150   8.795
  789POPC   C2B13196  28.817  41.181   8.365
  789POPC   C3B13197  28.802  40.789   8.159
  789POPC   C4B13198  28.665  40.656   7.772
  790POPC   NC313199   9.246  37.981   9.557
  790POPC   PO413200   8.851  37.415   9.468
  790POPC   GL113201   8.770  37.612   9.113
  790POPC   GL213202   8.691  37.978   9.187
  790POPC   C1A13203   8.991  37.452   8.791
  790POPC   D2A13204   9.213  37.445   8.442
  790POPC   C3A13205   9.047  37.595   8.119
  790POPC   C4A13206   9.118  37.401   7.761
  790POPC   C1B13207   8.984  37.977   8.827
  790POPC   C2B13208   9.196  37.972   8.429
  790POPC   C3B13209   9.075  38.137   8.014
  790POPC   C4B13210   8.885  37.842   7.719
  791POPC   NC313211  17.255   4.846   9.525
  791POPC   PO413212  17.677   5.424   9.415
  791POPC   GL113213  17.318   5.211   9.173
  791POPC   GL213214  17.457   4.871   9.060
  791POPC   C1A13215  17.143   5.092   8.757
  791POPC   D2A13216  17.363   5.249   8.422
  791POPC   C3A13217  17.446   4.996   8.087
  791POPC   C4A13218  17.216   5.130   7.730
  791POPC   C1B13219  17.672   5.150   8.807
  791POPC   C2B13220  17.886   5.230   8.460
  791POPC   C3B13221  17.904   5.361   8.046
  791POPC   C4B13222  17.735   5.123   7.692
  792POPC   NC313223  20.393  34.815   9.549
  792POPC   PO413224  20.931  34.368   9.562
  792POPC   GL113225  20.809  34.271   9.167
  792POPC   GL213226  20.573  34.517   9.164
  792POPC   C1A13227  20.646  34.222   8.719
  792POPC   D2A13228  20.430  34.440   8.356
  792POPC   C3A13229  20.585  34.558   7.960
  792POPC   C4A13230  20.630  34.442   7.498
  792POPC   C1B13231  20.646  34.721   8.763
  792POPC   C2B13232  20.559  34.954   8.358
  792POPC   C3B13233  20.424  35.034   7.919
  792POPC   C4B13234  20.423  34.900   7.477
  793POPC   NC313235   2.406   8.046   9.607
  793POPC   PO413236   1.851   7.802   9.529
  793POPC   GL113237   2.069   8.121   9.193
  793POPC   GL213238   2.353   8.421   9.276
  793POPC   C1A13239   2.009   8.045   8.732
  793POPC   D2A13240   1.843   8.208   8.339
  793POPC   C3A13241   1.886   7.935   8.013
  793POPC   C4A13242   1.710   7.850   7.598
  793POPC   C1B13243   2.398   8.370   8.834
  793POPC   C2B13244   2.273   8.474   8.402
  793POPC   C3B13245   2.344   8.291   7.987
  793POPC   C4B13246   2.155   8.129   7.619
  794POPC   NC313247   6.184  42.243   9.560
  794POPC   PO413248   6.861  42.343   9.508
  794POPC   GL113249   6.776  42.137   9.118
  794POPC   GL213250   6.417  42.098   9.120
  794POPC   C1A13251   6.844  42.250   8.673
  794POPC   D2A13252   6.946  42.539   8.336
  794POPC   C3A13253   6.847  42.358   7.988
  794POPC   C4A13254   6.578  42.108   7.769
  794POPC   C1B13255   6.347  42.343   8.749
  794POPC   C2B13256   6.441  42.387   8.316
  794POPC   C3B13257   6.195  42.447   7.950
  794POPC   C4B13258   6.211  42.481   7.497
  795POPC   NC313259  18.896  31.190   9.890
  795POPC   PO413260  19.030  31.830   9.669
  795POPC   GL113261  19.093  31.673   9.199
  795POPC   GL213262  19.153  31.309   9.012
  795POPC   C1A13263  18.952  31.677   8.744
  795POPC   D2A13264  19.025  31.489   8.336
  795POPC   C3A13265  18.901  31.623   7.944
  795POPC   C4A13266  19.137  31.749   7.624
  795POPC   C1B13267  19.418  31.462   8.687
  795POPC   C2B13268  19.522  31.400   8.275
  795POPC   C3B13269  19.319  31.331   7.880
  795POPC   C4B13270  19.220  31.308   7.420
  796POPC   NC313271  14.805  40.609   9.577
  796POPC   PO413272  15.418  40.901   9.484
  796POPC   GL113273  15.274  41.019   9.108
  796POPC   GL213274  14.962  40.842   9.127
  796POPC   C1A13275  15.258  40.860   8.692
  796POPC   D2A13276  15.059  40.638   8.364
  796POPC   C3A13277  15.170  40.774   7.977
  796POPC   C4A13278  15.328  41.120   7.777
  796POPC   C1B13279  14.720  40.757   8.769
  796POPC   C2B13280  14.468  40.755   8.417
  796POPC   C3B13281  14.634  40.625   8.054
  796POPC   C4B13282  14.742  40.835   7.717
  797POPC   NC313283  18.990   5.694   9.712
  797POPC   PO413284  19.413   6.210   9.468
  797POPC   GL113285  19.091   5.896   9.251
  797POPC   GL213286  19.122   5.547   9.199
  797POPC   C1A13287  19.030   5.820   8.804
  797POPC   D2A13288  19.166   6.088   8.444
  797POPC   C3A13289  18.956   6.085   8.032
  797POPC   C4A13290  18.899   5.806   7.694
  797POPC   C1B13291  19.382   5.437   8.832
  797POPC   C2B13292  19.229   5.521   8.444
  797POPC   C3B13293  19.310   5.733   8.103
  797POPC   C4B13294  19.343   5.565   7.720
  798POPC   NC313295  42.271  19.905   9.414
  798POPC   PO413296  42.291  20.506   9.751
  798POPC   GL113297  42.388  20.507   9.258
  798POPC   GL213298  42.634  20.228   9.225
  798POPC   C1A13299  42.443  20.791   8.846
  798POPC   D2A13300  42.302  20.619   8.424
  798POPC   C3A13301  42.386  20.783   8.005
  798POPC   C4A13302  42.130  20.685   7.653
  798POPC   C1B13303  42.490  20.277   8.795
  798POPC   C2B13304  42.675  20.245   8.392
  798POPC   C3B13305  42.527  20.285   7.993
  798POPC   C4B13306  42.751  20.105   7.637
  799POPC   NC313307   7.532  18.679   9.369
  799POPC   PO413308   7.723  18.036   9.528
  799POPC   GL113309   7.349  18.155   9.252
  799POPC   GL213310   7.581  18.203   9.022
  799POPC   C1A13311   7.112  18.193   8.818
  799POPC   D2A13312   7.184  18.375   8.389
  799POPC   C3A13313   7.162  18.212   7.989
  799POPC   C4A13314   7.509  18.184   7.734
  799POPC   C1B13315   7.499  18.547   8.747
  799POPC   C2B13316   7.594  18.722   8.363
  799POPC   C3B13317   7.475  18.640   7.958
  799POPC   C4B13318   7.516  18.645   7.486
  800POPC   NC313319  38.683  34.918   9.939
  800POPC   PO413320  38.596  35.390   9.433
  800POPC   GL113321  38.468  35.117   9.078
  800POPC   GL213322  38.158  35.216   8.887
  800POPC   C1A13323  38.709  35.118   8.702
  800POPC   D2A13324  38.621  35.291   8.314
  800POPC   C3A13325  38.804  35.092   7.979
  800POPC   C4A13326  38.632  34.962   7.615
  800POPC   C1B13327  38.464  35.566   8.822
  800POPC   C2B13328  38.600  35.768   8.490
  800POPC   C3B13329  38.462  35.733   8.092
  800POPC   C4B13330  38.533  35.475   7.737
  801POPC   NC313331  31.973  30.364   9.235
  801POPC   PO413332  32.219  29.920   9.622
  801POPC   GL113333  32.260  29.865   9.173
  801POPC   GL213334  32.014  29.609   9.057
  801POPC   C1A13335  32.278  29.981   8.749
  801POPC   D2A13336  32.253  30.280   8.430
  801POPC   C3A13337  32.352  30.177   8.027
  801POPC   C4A13338  32.058  30.083   7.750
  801POPC   C1B13339  31.854  29.404   8.652
  801POPC   C2B13340  31.780  29.395   8.201
  801POPC   C3B13341  31.856  29.596   7.792
  801POPC   C4B13342  32.156  29.698   7.430
  802POPC   NC313343  37.732  18.715   9.570
  802POPC   PO413344  37.579  19.347   9.462
  802POPC   GL113345  37.820  19.228   9.169
  802POPC   GL213346  37.745  18.909   9.114
  802POPC   C1A13347  37.620  19.252   8.762
  802POPC   D2A13348  37.355  19.280   8.430
  802POPC   C3A13349  37.628  19.302   8.075
  802POPC   C4A13350  37.806  19.083   7.695
  802POPC   C1B13351  37.617  18.716   8.778
  802POPC   C2B13352  37.485  18.624   8.418
  802POPC   C3B13353  37.596  18.782   8.065
  802POPC   C4B13354  37.642  18.588   7.736
  803POPC   NC313355  40.685  10.675   9.398
  803POPC   PO413356  41.329  10.611   9.496
  803POPC   GL113357  41.144  10.751   9.160
  803POPC   GL213358  41.029  10.414   9.146
  803POPC   C1A13359  40.879  10.792   8.796
  803POPC   D2A13360  40.783  10.928   8.384
  803POPC   C3A13361  40.750  10.663   8.027
  803POPC   C4A13362  40.526  10.760   7.701
  803POPC   C1B13363  41.137  10.321   8.781
  803POPC   C2B13364  40.958  10.410   8.408
  803POPC   C3B13365  41.158  10.358   8.013
  803POPC   C4B13366  41.013  10.406   7.628
  804POPC   NC313367   9.752   2.867   9.562
  804POPC   PO413368  10.050   2.348   9.407
  804POPC   GL113369   9.747   2.581   9.117
  804POPC   GL213370   9.586   2.924   9.082
  804POPC   C1A13371   9.848   2.699   8.710
  804POPC   D2A13372   9.807   2.549   8.312
  804POPC   C3A13373   9.962   2.761   7.961
  804POPC   C4A13374   9.939   2.455   7.626
  804POPC   C1B13375   9.375   2.965   8.749
  804POPC   C2B13376   9.530   2.985   8.356
  804POPC   C3B13377   9.415   2.784   7.989
  804POPC   C4B13378   9.607   2.947   7.637
  805POPC   NC313379  11.202  44.508   9.490
  805POPC   PO413380  11.469   0.145   9.460
  805POPC   GL113381  11.615  44.927   9.142
  805POPC   GL213382  11.664  44.646   9.307
  805POPC   C1A13383  11.359  44.685   8.843
  805POPC   D2A13384  11.177  44.403   8.507
  805POPC   C3A13385  11.128  44.606   8.095
  805POPC   C4A13386  11.185  44.748   7.657
  805POPC   C1B13387  11.683  44.319   8.997
  805POPC   C2B13388  11.693  44.406   8.580
  805POPC   C3B13389  11.619  44.406   8.163
  805POPC   C4B13390  11.554  44.430   7.750
  806POPC   NC313391  19.227  12.798  10.013
  806POPC   PO413392  19.019  13.316   9.665
  806POPC   GL113393  19.004  13.146   9.242
  806POPC   GL213394  19.101  12.798   9.169
  806POPC   C1A13395  18.768  13.141   8.883
  806POPC   D2A13396  18.797  12.986   8.509
  806POPC   C3A13397  19.189  13.065   8.326
  806POPC   C4A13398  19.194  12.862   7.983
  806POPC   C1B13399  19.136  12.679   8.720
  806POPC   C2B13400  19.146  12.474   8.305
  806POPC   C3B13401  19.157  12.381   7.852
  806POPC   C4B13402  19.424  12.623   7.587
  807POPC   NC313403  11.843  37.604   9.593
  807POPC   PO413404  12.405  37.963   9.514
  807POPC   GL113405  12.177  37.688   9.192
  807POPC   GL213406  12.344  37.707   8.879
  807POPC   C1A13407  11.889  37.484   8.854
  807POPC   D2A13408  11.755  37.555   8.405
  807POPC   C3A13409  12.080  37.575   8.076
  807POPC   C4A13410  12.044  37.412   7.649
  807POPC   C1B13411  12.050  37.967   8.613
  807POPC   C2B13412  11.952  38.041   8.167
  807POPC   C3B13413  11.825  37.928   7.748
  807POPC   C4B13414  11.821  38.134   7.337
  808POPC   NC313415  26.644  36.094   9.644
  808POPC   PO413416  27.142  36.383   9.265
  808POPC   GL113417  26.807  36.227   9.036
  808POPC   GL213418  26.490  36.214   9.168
  808POPC   C1A13419  26.750  36.233   8.592
  808POPC   D2A13420  26.968  36.003   8.298
  808POPC   C3A13421  26.820  36.054   7.876
  808POPC   C4A13422  27.130  36.275   7.641
  808POPC   C1B13423  26.361  35.997   8.805
  808POPC   C2B13424  26.501  35.798   8.412
  808POPC   C3B13425  26.359  35.755   7.977
  808POPC   C4B13426  26.397  35.925   7.547
  809POPC   NC313427  22.504  26.301   9.393
  809POPC   PO413428  23.118  26.160   9.660
  809POPC   GL113429  22.912  25.981   9.238
  809POPC   GL213430  22.738  25.641   9.122
  809POPC   C1A13431  22.945  25.939   8.756
  809POPC   D2A13432  23.182  25.984   8.356
  809POPC   C3A13433  23.012  26.257   8.045
  809POPC   C4A13434  22.881  26.230   7.615
  809POPC   C1B13435  22.555  25.589   8.686
  809POPC   C2B13436  22.634  25.847   8.300
  809POPC   C3B13437  22.828  25.795   7.888
  809POPC   C4B13438  22.886  25.752   7.417
  810POPC   NC313439   3.764  19.719   9.501
  810POPC   PO413440   3.485  20.343   9.330
  810POPC   GL113441   3.366  20.156   9.001
  810POPC   GL213442   3.605  19.906   9.067
  810POPC   C1A13443   3.368  19.934   8.624
  810POPC   D2A13444   3.559  19.978   8.256
  810POPC   C3A13445   3.344  20.143   7.914
  810POPC   C4A13446   3.664  20.299   7.653
  810POPC   C1B13447   3.581  19.536   8.848
  810POPC   C2B13448   3.552  19.471   8.450
  810POPC   C3B13449   3.656  19.534   8.061
  810POPC   C4B13450   3.594  19.750   7.731
  811POPC   NC313451  29.265  23.516   9.532
  811POPC   PO413452  29.236  24.170   9.323
  811POPC   GL113453  29.310  23.766   9.086
  811POPC   GL213454  28.996  23.526   9.103
  811POPC   C1A13455  29.304  23.527   8.689
  811POPC   D2A13456  29.002  23.456   8.353
  811POPC   C3A13457  29.160  23.512   7.938
  811POPC   C4A13458  29.338  23.847   7.680
  811POPC   C1B13459  28.834  23.792   8.800
  811POPC   C2B13460  28.982  23.983   8.429
  811POPC   C3B13461  28.913  24.004   7.990
  811POPC   C4B13462  28.810  23.765   7.636
  812POPC   NC313463   3.217  10.992   9.825
  812POPC   PO413464   2.638  11.302   9.455
  812POPC   GL113465   2.923  11.290   9.197
  812POPC   GL213466   3.023  10.965   9.335
  812POPC   C1A13467   2.897  11.329   8.736
  812POPC   D2A13468   2.768  11.201   8.338
  812POPC   C3A13469   2.782  11.350   7.909
  812POPC   C4A13470   2.536  11.024   7.660
  812POPC   C1B13471   3.213  10.994   8.910
  812POPC   C2B13472   3.203  10.942   8.455
  812POPC   C3B13473   3.020  10.915   8.007
  812POPC   C4B13474   3.323  10.991   7.727
  813POPC   NC313475  22.187  10.379   9.493
  813POPC   PO413476  21.907  10.853   9.881
  813POPC   GL113477  21.996  10.776   9.305
  813POPC   GL213478  21.873  10.458   9.099
  813POPC   C1A13479  22.349  10.615   8.913
  813POPC   D2A13480  22.564  10.500   8.479
  813POPC   C3A13481  22.401  10.515   8.017
  813POPC   C4A13482  22.187  10.558   7.615
  813POPC   C1B13483  21.981  10.282   8.676
  813POPC   C2B13484  21.788  10.131   8.280
  813POPC   C3B13485  21.921  10.201   7.861
  813POPC   C4B13486  22.122  10.106   7.436
  814POPC   NC313487   2.777  23.470   9.758
  814POPC   PO413488   3.196  23.916   9.590
  814POPC   GL113489   3.046  23.658   9.191
  814POPC   GL213490   2.703  23.632   9.011
  814POPC   C1A13491   3.115  23.510   8.751
  814POPC   D2A13492   2.807  23.575   8.406
  814POPC   C3A13493   2.996  23.514   8.019
  814POPC   C4A13494   2.910  23.542   7.605
  814POPC   C1B13495   2.812  23.957   8.763
  814POPC   C2B13496   2.662  24.096   8.408
  814POPC   C3B13497   2.539  23.901   8.050
  814POPC   C4B13498   2.764  24.026   7.718
  815POPC   NC313499  15.679  16.387   9.261
  815POPC   PO413500  16.058  15.928   9.585
  815POPC   GL113501  15.942  15.976   9.137
  815POPC   GL213502  15.599  15.874   9.089
  815POPC   C1A13503  15.770  16.097   8.665
  815POPC   D2A13504  15.631  16.116   8.207
  815POPC   C3A13505  15.903  15.981   7.902
  815POPC   C4A13506  15.826  16.012   7.470
  815POPC   C1B13507  15.913  15.618   8.799
  815POPC   C2B13508  16.029  15.385   8.471
  815POPC   C3B13509  15.997  15.456   8.073
  815POPC   C4B13510  15.939  15.543   7.657
  816POPC   NC313511  32.515  25.543   9.443
  816POPC   PO413512  32.416  24.883   9.389
  816POPC   GL113513  32.199  25.129   9.096
  816POPC   GL213514  31.993  25.444   9.180
  816POPC   C1A13515  32.438  25.108   8.723
  816POPC   D2A13516  32.652  24.981   8.359
  816POPC   C3A13517  32.400  25.160   8.068
  816POPC   C4A13518  32.272  25.052   7.689
  816POPC   C1B13519  32.236  25.563   8.820
  816POPC   C2B13520  32.104  25.374   8.431
  816POPC   C3B13521  31.960  25.514   8.048
  816POPC   C4B13522  32.257  25.565   7.764
  817POPC   NC313523  44.131  23.489   9.517
  817POPC   PO413524  44.701  23.810   9.323
  817POPC   GL113525  44.511  23.631   9.055
  817POPC   GL213526  44.490  23.327   9.201
  817POPC   C1A13527  44.688  23.637   8.656
  817POPC   D2A13528  44.885  23.855   8.369
  817POPC   C3A13529  44.732  23.734   7.992
  817POPC   C4A13530  44.954  23.571   7.738
  817POPC   C1B13531  44.397  23.220   8.760
  817POPC   C2B13532  44.420  23.344   8.316
  817POPC   C3B13533  44.544  23.228   7.900
  817POPC   C4B13534  44.674  23.277   7.471
  818POPC   NC313535  30.576  40.405   9.619
  818POPC   PO413536  30.460  39.710   9.752
  818POPC   GL113537  30.603  39.874   9.278
  818POPC   GL213538  30.529  40.249   9.133
  818POPC   C1A13539  30.822  39.946   8.845
  818POPC   D2A13540  30.666  40.011   8.417
  818POPC   C3A13541  30.877  40.028   8.021
  818POPC   C4A13542  30.933  40.000   7.559
  818POPC   C1B13543  30.321  39.963   8.817
  818POPC   C2B13544  30.185  39.852   8.373
  818POPC   C3B13545  30.333  40.010   7.971
  818POPC   C4B13546  30.420  40.047   7.495
  819POPC   NC313547  18.860  33.885   9.599
  819POPC   PO413548  19.360  33.882   9.224
  819POPC   GL113549  19.015  33.801   9.023
  819POPC   GL213550  19.089  33.477   9.006
  819POPC   C1A13551  19.132  33.770   8.566
  819POPC   D2A13552  19.076  33.506   8.216
  819POPC   C3A13553  19.298  33.602   7.897
  819POPC   C4A13554  19.279  33.926   7.722
  819POPC   C1B13555  18.865  33.338   8.653
  819POPC   C2B13556  18.596  33.362   8.283
  819POPC   C3B13557  18.734  33.377   7.863
  819POPC   C4B13558  18.941  33.540   7.514
  820POPC   NC313559  20.315  32.188   9.525
  820POPC   PO413560  20.954  32.206   9.401
  820POPC   GL113561  20.640  32.217   9.120
  820POPC   GL213562  20.548  32.566   9.245
  820POPC   C1A13563  20.611  32.072   8.693
  820POPC   D2A13564  20.714  32.226   8.271
  820POPC   C3A13565  20.416  32.087   7.960
  820POPC   C4A13566  20.614  31.890   7.616
  820POPC   C1B13567  20.231  32.490   8.923
  820POPC   C2B13568  20.303  32.494   8.486
  820POPC   C3B13569  20.178  32.645   8.082
  820POPC   C4B13570  20.414  32.562   7.722
  821POPC   NC313571  17.752  25.228   9.498
  821POPC   PO413572  18.447  25.153   9.494
  821POPC   GL113573  18.204  25.243   9.148
  821POPC   GL213574  18.485  25.115   8.987
  821POPC   C1A13575  18.192  25.429   8.726
  821POPC   D2A13576  18.499  25.306   8.435
  821POPC   C3A13577  18.372  25.491   8.078
  821POPC   C4A13578  18.415  25.347   7.681
  821POPC   C1B13579  18.164  24.933   8.720
  821POPC   C2B13580  18.038  25.113   8.313
  821POPC   C3B13581  18.213  24.966   7.930
  821POPC   C4B13582  18.489  24.848   7.573
  822POPC   NC313583  10.446  40.526   9.430
  822POPC   PO413584  10.409  41.064   9.847
  822POPC   GL113585  10.463  41.046   9.323
  822POPC   GL213586  10.651  40.794   9.053
  822POPC   C1A13587  10.214  40.960   8.910
  822POPC   D2A13588  10.387  40.710   8.539
  822POPC   C3A13589  10.310  40.760   8.079
  822POPC   C4A13590  10.352  40.974   7.698
  822POPC   C1B13591  10.780  41.038   8.668
  822POPC   C2B13592  11.021  41.099   8.262
  822POPC   C3B13593  10.837  41.019   7.853
  822POPC   C4B13594  10.719  40.591   7.755
  823POPC   NC313595  22.252  27.051   9.769
  823POPC   PO413596  22.052  26.490   9.447
  823POPC   GL113597  22.283  26.651   9.114
  823POPC   GL213598  22.330  26.958   9.232
  823POPC   C1A13599  22.299  26.600   8.680
  823POPC   D2A13600  21.943  26.673   8.397
  823POPC   C3A13601  22.082  26.675   7.969
  823POPC   C4A13602  22.340  26.937   7.746
  823POPC   C1B13603  22.156  27.064   8.813
  823POPC   C2B13604  22.299  27.041   8.374
  823POPC   C3B13605  22.014  27.190   8.065
  823POPC   C4B13606  21.794  27.057   7.696
  824POPC   NC313607   8.211  36.511   9.567
  824POPC   PO413608   7.963  37.184   9.446
  824POPC   GL113609   8.111  37.069   9.050
  824POPC   GL213610   8.330  36.806   9.102
  824POPC   C1A13611   8.137  36.975   8.594
  824POPC   D2A13612   8.484  36.888   8.351
  824POPC   C3A13613   8.353  36.879   7.959
  824POPC   C4A13614   7.949  36.955   7.796
  824POPC   C1B13615   7.969  36.593   8.844
  824POPC   C2B13616   7.858  36.500   8.395
  824POPC   C3B13617   7.884  36.454   7.917
  824POPC   C4B13618   7.739  36.577   7.467
  825POPC   NC313619  43.084  19.486   9.542
  825POPC   PO413620  43.133  18.867   9.651
  825POPC   GL113621  43.182  19.039   9.243
  825POPC   GL213622  42.822  19.072   9.214
  825POPC   C1A13623  43.333  19.197   8.824
  825POPC   D2A13624  43.642  19.142   8.483
  825POPC   C3A13625  43.500  18.959   8.060
  825POPC   C4A13626  43.313  18.946   7.627
  825POPC   C1B13627  42.896  18.731   8.892
  825POPC   C2B13628  42.892  18.599   8.449
  825POPC   C3B13629  42.944  18.881   8.091
  825POPC   C4B13630  42.757  18.895   7.695
  826POPC   NC313631  20.821  20.830   9.697
  826POPC   PO413632  20.625  20.274   9.410
  826POPC   GL113633  20.573  20.717   9.207
  826POPC   GL213634  20.835  20.982   9.182
  826POPC   C1A13635  20.631  20.754   8.737
  826POPC   D2A13636  20.731  20.421   8.414
  826POPC   C3A13637  20.598  20.466   8.003
  826POPC   C4A13638  20.533  20.853   7.798
  826POPC   C1B13639  21.001  21.104   8.734
  826POPC   C2B13640  20.908  20.960   8.277
  826POPC   C3B13641  21.029  20.724   7.895
  826POPC   C4B13642  21.242  20.720   7.494
  827POPC   NC313643  11.931   8.378   9.530
  827POPC   PO413644  12.530   7.975   9.506
  827POPC   GL113645  12.240   8.161   9.189
  827POPC   GL213646  12.314   8.518   9.220
  827POPC   C1A13647  11.966   8.364   8.864
  827POPC   D2A13648  11.857   8.454   8.440
  827POPC   C3A13649  11.743   8.133   8.137
  827POPC   C4A13650  11.970   8.200   7.759
  827POPC   C1B13651  12.465   8.544   8.816
  827POPC   C2B13652  12.382   8.493   8.398
  827POPC   C3B13653  12.155   8.596   8.009
  827POPC   C4B13654  12.325   8.557   7.589
  828POPC   NC313655  39.185  19.588   9.573
  828POPC   PO413656  38.964  20.157   9.442
  828POPC   GL113657  39.134  19.901   9.130
  828POPC   GL213658  39.481  19.824   9.171
  828POPC   C1A13659  39.034  19.626   8.798
  828POPC   D2A13660  38.932  19.442   8.395
  828POPC   C3A13661  39.076  19.712   8.099
  828POPC   C4A13662  39.028  19.834   7.717
  828POPC   C1B13663  39.562  19.533   8.831
  828POPC   C2B13664  39.459  19.571   8.407
  828POPC   C3B13665  39.563  19.672   7.952
  828POPC   C4B13666  39.488  19.875   7.522
  829POPC   NC313667  15.446  15.599   9.496
  829POPC   PO413668  15.278  16.224   9.451
  829POPC   GL113669  15.067  15.995   9.140
  829POPC   GL213670  15.113  15.651   9.110
  829POPC   C1A13671  15.134  15.971   8.723
  829POPC   D2A13672  15.231  16.265   8.472
  829POPC   C3A13673  15.092  16.054   8.110
  829POPC   C4A13674  15.273  16.213   7.749
  829POPC   C1B13675  15.409  15.529   8.759
  829POPC   C2B13676  15.588  15.631   8.335
  829POPC   C3B13677  15.456  15.748   7.885
  829POPC   C4B13678  15.044  15.693   7.707
  830POPC   NC313679  19.533  36.464   9.238
  830POPC   PO413680  19.753  36.043   9.710
  830POPC   GL113681  19.770  35.998   9.227
  830POPC   GL213682  20.121  35.922   9.158
  830POPC   C1A13683  19.567  36.011   8.765
  830POPC   D2A13684  19.663  36.245   8.359
  830POPC   C3A13685  19.552  36.011   7.966
  830POPC   C4A13686  19.493  35.958   7.500
  830POPC   C1B13687  20.019  36.231   8.797
  830POPC   C2B13688  20.188  36.474   8.456
  830POPC   C3B13689  20.069  36.406   8.044
  830POPC   C4B13690  19.989  36.131   7.731
  831POPC   NC313691  23.580  44.104   9.749
  831POPC   PO413692  23.810  43.471   9.769
  831POPC   GL113693  23.800  43.889   9.370
  831POPC   GL213694  24.009  44.051   9.113
  831POPC   C1A13695  23.572  43.925   8.911
  831POPC   D2A13696  23.712  43.853   8.475
  831POPC   C3A13697  23.451  43.922   8.131
  831POPC   C4A13698  23.508  43.780   7.724
  831POPC   C1B13699  23.906  44.262   8.682
  831POPC   C2B13700  23.809  44.308   8.212
  831POPC   C3B13701  23.878  44.134   7.766
  831POPC   C4B13702  23.801  43.937   7.329
  832POPC   NC313703  40.506  33.079   9.462
  832POPC   PO413704  41.119  32.824   9.651
  832POPC   GL113705  41.074  32.980   9.235
  832POPC   GL213706  40.785  32.761   9.179
  832POPC   C1A13707  41.040  32.948   8.781
  832POPC   D2A13708  40.821  33.137   8.445
  832POPC   C3A13709  40.998  33.215   8.061
  832POPC   C4A13710  40.928  33.129   7.670
  832POPC   C1B13711  40.566  32.773   8.784
  832POPC   C2B13712  40.611  32.667   8.351
  832POPC   C3B13713  40.639  32.844   7.991
  832POPC   C4B13714  40.309  33.042   7.768
  833POPC   NC313715  32.450  16.849   9.839
  833POPC   PO413716  31.976  16.388   9.548
  833POPC   GL113717  32.107  16.688   9.174
  833POPC   GL213718  32.439  16.867   9.188
  833POPC   C1A13719  32.261  16.624   8.748
  833POPC   D2A13720  32.343  16.396   8.384
  833POPC   C3A13721  32.225  16.616   8.025
  833POPC   C4A13722  32.240  16.989   7.753
  833POPC   C1B13723  32.657  16.900   8.750
  833POPC   C2B13724  32.498  16.964   8.316
  833POPC   C3B13725  32.724  17.093   7.894
  833POPC   C4B13726  32.678  17.016   7.404
  834POPC   NC313727   3.593  25.176   9.701
  834POPC   PO413728   4.190  25.273   9.858
  834POPC   GL113729   4.159  25.309   9.364
  834POPC   GL213730   4.170  25.048   9.157
  834POPC   C1A13731   4.284  25.530   8.981
  834POPC   D2A13732   4.225  25.637   8.544
  834POPC   C3A13733   4.353  25.602   8.122
  834POPC   C4A13734   3.980  25.560   7.829
  834POPC   C1B13735   4.349  25.016   8.765
  834POPC   C2B13736   4.470  25.110   8.341
  834POPC   C3B13737   4.257  25.128   7.955
  834POPC   C4B13738   4.498  25.081   7.602
  835POPC   NC313739  41.021   9.337   9.868
  835POPC   PO413740  40.873  10.037   9.699
  835POPC   GL113741  40.920   9.933   9.201
  835POPC   GL213742  41.010   9.604   9.179
  835POPC   C1A13743  40.756   9.975   8.760
  835POPC   D2A13744  40.505   9.998   8.364
  835POPC   C3A13745  40.704  10.137   7.961
  835POPC   C4A13746  40.658  10.021   7.521
  835POPC   C1B13747  40.902   9.395   8.853
  835POPC   C2B13748  40.833   9.521   8.465
  835POPC   C3B13749  40.759   9.658   8.077
  835POPC   C4B13750  40.764   9.514   7.698
  836POPC   NC313751   6.638  15.110   9.742
  836POPC   PO413752   6.212  15.617   9.623
  836POPC   GL113753   6.457  15.607   9.198
  836POPC   GL213754   6.703  15.329   9.182
  836POPC   C1A13755   6.402  15.371   8.758
  836POPC   D2A13756   6.437  14.973   8.476
  836POPC   C3A13757   6.311  14.972   8.044
  836POPC   C4A13758   6.278  15.212   7.685
  836POPC   C1B13759   6.816  15.067   8.800
  836POPC   C2B13760   6.925  15.028   8.333
  836POPC   C3B13761   6.737  15.212   7.941
  836POPC   C4B13762   6.744  15.083   7.506
  837POPC   NC313763   0.032  20.357   9.522
  837POPC   PO413764   0.657  20.578   9.435
  837POPC   GL113765   0.432  20.448   9.138
  837POPC   GL213766   0.180  20.714   9.140
  837POPC   C1A13767   0.517  20.558   8.729
  837POPC   D2A13768   0.395  20.677   8.345
  837POPC   C3A13769   0.563  20.410   8.057
  837POPC   C4A13770   0.543  20.703   7.775
  837POPC   C1B13771   0.023  20.399   8.842
  837POPC   C2B13772   0.132  20.221   8.444
  837POPC   C3B13773   0.074  20.340   8.034
  837POPC   C4B13774   0.281  20.308   7.614
  838POPC   NC313775  35.887  26.970   9.429
  838POPC   PO413776  35.299  26.742   9.621
  838POPC   GL113777  35.290  26.771   9.191
  838POPC   GL213778  34.986  26.923   9.102
  838POPC   C1A13779  35.479  26.785   8.784
  838POPC   D2A13780  35.570  26.570   8.392
  838POPC   C3A13781  35.461  26.585   7.973
  838POPC   C4A13782  35.556  27.003   7.920
  838POPC   C1B13783  35.013  26.577   8.797
  838POPC   C2B13784  35.069  26.408   8.371
  838POPC   C3B13785  34.981  26.679   8.018
  838POPC   C4B13786  35.152  26.817   7.603
  839POPC   NC313787  21.003  11.813   9.334
  839POPC   PO413788  20.636  12.230   9.758
  839POPC   GL113789  20.750  12.252   9.284
  839POPC   GL213790  20.570  12.007   9.091
  839POPC   C1A13791  20.887  12.295   8.813
  839POPC   D2A13792  20.721  12.052   8.460
  839POPC   C3A13793  20.813  12.189   8.057
  839POPC   C4A13794  20.563  12.392   7.761
  839POPC   C1B13795  20.306  11.819   8.758
  839POPC   C2B13796  20.385  11.664   8.317
  839POPC   C3B13797  20.513  11.813   7.884
  839POPC   C4B13798  20.957  11.869   7.694
  840POPC   NC313799   6.307  19.912   9.457
  840POPC   PO413800   6.844  20.279   9.373
  840POPC   GL113801   6.730  19.899   9.125
  840POPC   GL213802   6.442  19.692   9.029
  840POPC   C1A13803   6.972  19.798   8.780
  840POPC   D2A13804   6.997  20.003   8.376
  840POPC   C3A13805   6.632  19.834   8.183
  840POPC   C4A13806   6.507  19.786   7.770
  840POPC   C1B13807   6.540  19.529   8.641
  840POPC   C2B13808   6.274  19.479   8.288
  840POPC   C3B13809   6.359  19.313   7.901
  840POPC   C4B13810   6.457  19.361   7.460
  841POPC   NC313811  44.588  30.325   9.598
  841POPC   PO413812  44.860  30.850   9.741
  841POPC   GL113813  44.664  30.785   9.338
  841POPC   GL213814  44.911  30.960   9.183
  841POPC   C1A13815  44.550  30.564   8.968
  841POPC   D2A13816  44.630  30.615   8.517
  841POPC   C3A13817  44.406  30.585   8.124
  841POPC   C4A13818  44.540  30.704   7.693
  841POPC   C1B13819   0.046  31.053   8.743
  841POPC   C2B13820  44.978  30.967   8.319
  841POPC   C3B13821  44.868  31.062   7.887
  841POPC   C4B13822  44.850  31.015   7.407
  842POPC   NC313823  38.303  34.110   9.666
  842POPC   PO413824  38.822  33.691   9.551
  842POPC   GL113825  38.462  33.781   9.302
  842POPC   GL213826  38.596  34.074   9.241
  842POPC   C1A13827  38.373  33.658   8.901
  842POPC   D2A13828  38.590  33.759   8.523
  842POPC   C3A13829  38.402  33.619   8.137
  842POPC   C4A13830  38.479  33.523   7.709
  842POPC   C1B13831  38.401  34.177   8.861
  842POPC   C2B13832  38.599  34.269   8.497
  842POPC   C3B13833  38.623  34.086   8.093
  842POPC   C4B13834  38.274  33.990   7.811
  843POPC   NC313835  35.573  18.908   9.588
  843POPC   PO413836  35.139  19.364   9.537
  843POPC   GL113837  35.339  19.178   9.180
  843POPC   GL213838  35.718  19.127   9.135
  843POPC   C1A13839  35.274  18.957   8.805
  843POPC   D2A13840  35.373  19.093   8.411
  843POPC   C3A13841  35.237  19.022   8.001
  843POPC   C4A13842  35.300  19.058   7.557
  843POPC   C1B13843  35.663  18.681   8.967
  843POPC   C2B13844  35.613  18.656   8.518
  843POPC   C3B13845  35.737  18.835   8.143
  843POPC   C4B13846  35.773  19.017   7.758
  844POPC   NC313847   0.956  26.589   9.474
  844POPC   PO413848   1.365  27.123   9.490
  844POPC   GL113849   1.309  26.821   9.141
  844POPC   GL213850   1.426  26.462   9.134
  844POPC   C1A13851   1.421  26.793   8.711
  844POPC   D2A13852   1.141  26.875   8.386
  844POPC   C3A13853   1.282  26.773   8.005
  844POPC   C4A13854   1.265  27.035   7.667
  844POPC   C1B13855   1.054  26.459   8.825
  844POPC   C2B13856   0.754  26.544   8.495
  844POPC   C3B13857   0.825  26.578   8.046
  844POPC   C4B13858   0.772  26.839   7.701
  845POPC   NC313859  25.472  22.447   9.617
  845POPC   PO413860  24.832  22.332   9.422
  845POPC   GL113861  25.240  22.342   9.171
  845POPC   GL213862  25.407  22.035   9.275
  845POPC   C1A13863  25.497  22.445   8.772
  845POPC   D2A13864  25.376  22.494   8.320
  845POPC   C3A13865  25.439  22.232   7.964
  845POPC   C4A13866  25.399  22.267   7.537
  845POPC   C1B13867  25.347  21.954   8.809
  845POPC   C2B13868  25.577  21.961   8.376
  845POPC   C3B13869  25.612  21.724   7.985
  845POPC   C4B13870  25.252  21.825   7.710
  846POPC   NC313871  15.228  21.382   9.474
  846POPC   PO413872  15.724  21.902   9.318
  846POPC   GL113873  15.588  21.462   9.111
  846POPC   GL213874  15.209  21.373   8.973
  846POPC   C1A13875  15.617  21.175   8.747
  846POPC   D2A13876  15.282  21.282   8.437
  846POPC   C3A13877  15.344  21.642   8.166
  846POPC   C4A13878  15.318  21.604   7.729
  846POPC   C1B13879  14.829  21.308   8.697
  846POPC   C2B13880  14.759  21.216   8.264
  846POPC   C3B13881  15.072  21.187   7.953
  846POPC   C4B13882  15.036  21.234   7.515
  847POPC   NC313883  33.281  14.690   9.593
  847POPC   PO413884  32.868  14.207   9.536
  847POPC   GL113885  32.860  14.406   9.160
  847POPC   GL213886  32.750  14.722   9.290
  847POPC   C1A13887  32.953  14.340   8.746
  847POPC   D2A13888  32.953  14.455   8.317
  847POPC   C3A13889  32.980  14.227   7.944
  847POPC   C4A13890  33.251  14.400   7.626
  847POPC   C1B13891  32.746  14.825   8.845
  847POPC   C2B13892  32.608  14.820   8.423
  847POPC   C3B13893  32.555  14.658   8.017
  847POPC   C4B13894  32.746  14.537   7.607
  848POPC   NC313895  22.677  39.401   9.611
  848POPC   PO413896  23.168  38.912   9.503
  848POPC   GL113897  22.982  39.200   9.231
  848POPC   GL213898  22.612  39.233   9.147
  848POPC   C1A13899  22.968  39.096   8.813
  848POPC   D2A13900  23.053  38.955   8.447
  848POPC   C3A13901  23.126  39.243   8.117
  848POPC   C4A13902  23.103  39.150   7.683
  848POPC   C1B13903  22.465  39.129   8.744
  848POPC   C2B13904  22.625  39.210   8.322
  848POPC   C3B13905  22.664  39.312   7.887
  848POPC   C4B13906  22.536  39.561   7.543
  849POPC   NC313907   3.055  14.150   9.308
  849POPC   PO413908   3.491  14.506   9.725
  849POPC   GL113909   3.542  14.517   9.261
  849POPC   GL213910   3.725  14.246   9.114
  849POPC   C1A13911   3.475  14.608   8.815
  849POPC   D2A13912   3.729  14.484   8.451
  849POPC   C3A13913   3.641  14.651   8.041
  849POPC   C4A13914   3.467  14.546   7.634
  849POPC   C1B13915   3.442  14.104   8.771
  849POPC   C2B13916   3.276  14.164   8.346
  849POPC   C3B13917   3.145  14.142   7.924
  849POPC   C4B13918   3.160  13.786   7.657
  850POPC   NC313919  13.856  41.075   9.846
  850POPC   PO413920  13.640  40.546   9.442
  850POPC   GL113921  13.578  40.644   9.041
  850POPC   GL213922  13.585  41.017   9.012
  850POPC   C1A13923  13.652  40.699   8.633
  850POPC   D2A13924  13.456  40.919   8.322
  850POPC   C3A13925  13.554  40.752   7.982
  850POPC   C4A13926  13.358  40.644   7.661
  850POPC   C1B13927  13.961  41.089   8.738
  850POPC   C2B13928  13.993  41.045   8.300
  850POPC   C3B13929  13.920  41.063   7.850
  850POPC   C4B13930  13.804  40.801   7.476
  851POPC   NC313931   8.726  13.856   9.541
  851POPC   PO413932   9.220  13.386   9.652
  851POPC   GL113933   9.135  13.611   9.267
  851POPC   GL213934   8.836  13.486   9.179
  851POPC   C1A13935   9.083  13.774   8.843
  851POPC   D2A13936   8.911  13.728   8.439
  851POPC   C3A13937   9.154  13.964   8.145
  851POPC   C4A13938   9.382  14.069   7.736
  851POPC   C1B13939   8.716  13.376   8.782
  851POPC   C2B13940   8.835  13.222   8.374
  851POPC   C3B13941   8.996  13.442   8.003
  851POPC   C4B13942   8.796  13.469   7.606
  852POPC   NC313943  23.435  36.567   9.456
  852POPC   PO413944  23.648  37.175   9.715
  852POPC   GL113945  23.718  36.945   9.267
  852POPC   GL213946  23.394  36.882   9.071
  852POPC   C1A13947  23.816  36.943   8.818
  852POPC   D2A13948  23.582  36.977   8.449
  852POPC   C3A13949  23.749  37.213   8.127
  852POPC   C4A13950  23.976  37.044   7.803
  852POPC   C1B13951  23.335  36.589   8.695
  852POPC   C2B13952  23.241  36.615   8.243
  852POPC   C3B13953  23.515  36.811   7.935
  852POPC   C4B13954  23.508  37.112   7.617
  853POPC   NC313955  10.225  37.756   9.359
  853POPC   PO413956  10.762  37.370   9.573
  853POPC   GL113957  10.945  37.549   9.188
  853POPC   GL213958  10.590  37.523   9.067
  853POPC   C1A13959  10.910  37.738   8.772
  853POPC   D2A13960  10.639  37.559   8.493
  853POPC   C3A13961  10.683  37.725   8.084
  853POPC   C4A13962  10.471  37.758   7.691
  853POPC   C1B13963  10.195  37.472   8.798
  853POPC   C2B13964  10.177  37.291   8.413
  853POPC   C3B13965  10.462  37.266   8.107
  853POPC   C4B13966  10.398  37.165   7.727
  854POPC   NC313967  34.851   1.190   9.561
  854POPC   PO413968  34.417   0.801   9.391
  854POPC   GL113969  34.719   0.930   9.089
  854POPC   GL213970  34.669   1.285   9.101
  854POPC   C1A13971  34.632   1.077   8.644
  854POPC   D2A13972  34.320   1.300   8.411
  854POPC   C3A13973  34.281   1.164   8.016
  854POPC   C4A13974  34.524   1.178   7.680
  854POPC   C1B13975  34.926   1.506   8.797
  854POPC   C2B13976  34.750   1.574   8.431
  854POPC   C3B13977  34.670   1.559   8.036
  854POPC   C4B13978  34.944   1.462   7.736
  855POPC   NC313979  13.408  29.979   9.504
  855POPC   PO413980  14.062  29.722   9.413
  855POPC   GL113981  13.705  29.821   9.106
  855POPC   GL213982  13.601  30.164   9.090
  855POPC   C1A13983  13.645  29.911   8.645
  855POPC   D2A13984  13.767  30.038   8.218
  855POPC   C3A13985  13.494  29.948   7.870
  855POPC   C4A13986  13.326  29.771   7.506
  855POPC   C1B13987  13.575  30.406   8.779
  855POPC   C2B13988  13.391  30.305   8.403
  855POPC   C3B13989  13.500  30.440   8.004
  855POPC   C4B13990  13.856  30.309   7.789
  856POPC   NC313991  27.643  18.126   9.371
  856POPC   PO413992  27.590  18.733   9.519
  856POPC   GL113993  27.662  18.539   9.100
  856POPC   GL213994  27.995  18.488   8.954
  856POPC   C1A13995  27.547  18.306   8.725
  856POPC   D2A13996  27.408  18.466   8.344
  856POPC   C3A13997  27.728  18.474   8.039
  856POPC   C4A13998  27.545  18.271   7.733
  856POPC   C1B13999  28.023  18.079   8.752
  856POPC   C2B14000  27.863  17.974   8.332
  856POPC   C3B14001  27.972  18.027   7.887
  856POPC   C4B14002  27.880  18.034   7.428
  857POPC   NC314003   8.029  22.153   9.527
  857POPC   PO414004   8.720  22.083   9.395
  857POPC   GL114005   8.510  22.218   9.043
  857POPC   GL214006   8.211  22.006   9.071
  857POPC   C1A14007   8.439  22.112   8.599
  857POPC   D2A14008   8.128  21.896   8.357
  857POPC   C3A14009   8.042  22.087   7.987
  857POPC   C4A14010   8.318  22.240   7.710
  857POPC   C1B14011   8.447  21.697   8.882
  857POPC   C2B14012   8.551  21.631   8.444
  857POPC   C3B14013   8.530  21.853   8.038
  857POPC   C4B14014   8.247  21.735   7.685
  858POPC   NC314015   4.180  44.799   9.498
  858POPC   PO414016   4.796  44.948   9.800
  858POPC   GL114017   4.742  44.738   9.333
  858POPC   GL214018   4.772  44.958   9.029
  858POPC   C1A14019   4.490  44.535   8.939
  858POPC   D2A14020   4.236  44.589   8.530
  858POPC   C3A14021   4.487  44.522   8.152
  858POPC   C4A14022   4.250  44.311   7.816
  858POPC   C1B14023   4.417   0.012   8.745
  858POPC   C2B14024   4.304   0.070   8.299
  858POPC   C3B14025   4.183  44.861   7.928
  858POPC   C4B14026   4.493  44.710   7.663
  859POPC   NC314027   1.774  27.008   9.276
  859POPC   PO414028   2.273  27.580   9.589
  859POPC   GL114029   2.193  27.737   9.171
  859POPC   GL214030   2.298  27.446   9.073
  859POPC   C1A14031   1.846  27.651   8.810
  859POPC   D2A14032   1.610  27.445   8.504
  859POPC   C3A14033   1.682  27.721   8.155
  859POPC   C4A14034   1.799  27.629   7.738
  859POPC   C1B14035   2.136  27.232   8.735
  859POPC   C2B14036   2.038  27.150   8.344
  859POPC   C3B14037   2.153  27.357   7.970
  859POPC   C4B14038   2.176  27.347   7.507
  860POPC   NC314039  19.753   3.950   9.537
  860POPC   PO414040  19.951   3.295   9.553
  860POPC   GL114041  19.905   3.488   9.171
  860POPC   GL214042  19.685   3.767   9.069
  860POPC   C1A14043  19.741   3.326   8.786
  860POPC   D2A14044  19.745   3.564   8.432
  860POPC   C3A14045  19.939   3.298   8.131
  860POPC   C4A14046  19.909   3.512   7.779
  860POPC   C1B14047  19.553   4.008   8.698
  860POPC   C2B14048  19.419   3.951   8.282
  860POPC   C3B14049  19.646   3.942   7.902
  860POPC   C4B14050  19.710   3.816   7.431
  861POPC   NC314051  43.473  42.135   9.276
  861POPC   PO414052  43.965  41.734   9.564
  861POPC   GL114053  43.730  41.680   9.188
  861POPC   GL214054  43.923  41.948   9.067
  861POPC   C1A14055  43.802  41.525   8.762
  861POPC   D2A14056  44.196  41.383   8.515
  861POPC   C3A14057  44.220  41.377   8.060
  861POPC   C4A14058  43.862  41.504   7.842
  861POPC   C1B14059  44.170  41.873   8.688
  861POPC   C2B14060  44.059  41.829   8.236
  861POPC   C3B14061  44.226  41.858   7.801
  861POPC   C4B14062  44.401  41.853   7.392
  862POPC   NC314063   2.562  30.467   9.352
  862POPC   PO414064   3.063  30.862   9.477
  862POPC   GL114065   2.824  30.838   9.085
  862POPC   GL214066   2.805  30.492   8.917
  862POPC   C1A14067   2.748  31.066   8.684
  862POPC   D2A14068   2.839  31.172   8.244
  862POPC   C3A14069   2.674  30.870   7.974
  862POPC   C4A14070   2.697  30.399   7.925
  862POPC   C1B14071   2.415  30.635   8.719
  862POPC   C2B14072   2.372  30.604   8.286
  862POPC   C3B14073   2.256  30.626   7.847
  862POPC   C4B14074   2.282  30.551   7.402
  863POPC   NC314075  12.312  38.429   9.483
  863POPC   PO414076  11.704  38.835   9.519
  863POPC   GL114077  11.916  38.573   9.152
  863POPC   GL214078  12.073  38.207   9.104
  863POPC   C1A14079  12.096  38.549   8.717
  863POPC   D2A14080  12.347  38.428   8.371
  863POPC   C3A14081  12.051  38.535   8.098
  863POPC   C4A14082  11.923  38.445   7.718
  863POPC   C1B14083  12.447  38.198   8.858
  863POPC   C2B14084  12.703  38.085   8.553
  863POPC   C3B14085  12.519  37.943   8.177
  863POPC   C4B14086  12.322  38.088   7.806
  864POPC   NC314087  41.785  21.273   9.527
  864POPC   PO414088  41.370  21.779   9.555
  864POPC   GL114089  41.471  21.485   9.177
  864POPC   GL214090  41.836  21.519   9.081
  864POPC   C1A14091  41.528  21.283   8.756
  864POPC   D2A14092  41.768  21.344   8.364
  864POPC   C3A14093  41.463  21.343   8.009
  864POPC   C4A14094  41.546  21.274   7.581
  864POPC   C1B14095  41.992  21.812   8.761
  864POPC   C2B14096  41.873  21.863   8.349
  864POPC   C3B14097  41.886  21.630   7.954
  864POPC   C4B14098  41.969  21.522   7.503
  865POPC   NC314099   4.915  23.520   9.337
  865POPC   PO414100   5.122  24.132   9.473
  865POPC   GL114101   5.057  23.977   9.047
  865POPC   GL214102   5.287  23.695   9.043
  865POPC   C1A14103   4.913  23.755   8.647
  865POPC   D2A14104   4.758  23.741   8.227
  865POPC   C3A14105   5.081  23.850   7.940
  865POPC   C4A14106   5.064  24.064   7.526
  865POPC   C1B14107   5.190  23.348   8.759
  865POPC   C2B14108   5.202  23.403   8.317
  865POPC   C3B14109   5.162  23.351   7.891
  865POPC   C4B14110   5.184  23.581   7.510
  866POPC   NC314111   4.683  43.894   9.540
  866POPC   PO414112   4.102  44.311   9.463
  866POPC   GL114113   4.295  43.985   9.216
  866POPC   GL214114   4.195  43.615   9.222
  866POPC   C1A14115   4.494  43.930   8.822
  866POPC   D2A14116   4.368  44.099   8.415
  866POPC   C3A14117   4.614  44.029   8.046
  866POPC   C4A14118   4.506  43.927   7.605
  866POPC   C1B14119   3.992  43.787   8.838
  866POPC   C2B14120   3.966  43.790   8.406
  866POPC   C3B14121   4.132  43.850   8.010
  866POPC   C4B14122   3.992  43.865   7.617
  867POPC   NC314123  23.585   3.988   9.705
  867POPC   PO414124  23.849   4.597   9.570
  867POPC   GL114125  23.884   4.243   9.285
  867POPC   GL214126  23.558   4.149   9.163
  867POPC   C1A14127  23.907   4.188   8.818
  867POPC   D2A14128  23.638   4.103   8.458
  867POPC   C3A14129  23.855   4.190   8.117
  867POPC   C4A14130  23.991   4.254   7.747
  867POPC   C1B14131  23.237   4.119   8.808
  867POPC   C2B14132  23.129   4.240   8.406
  867POPC   C3B14133  23.351   4.312   8.063
  867POPC   C4B14134  23.505   4.056   7.773
  868POPC   NC314135  22.861  37.788   9.392
  868POPC   PO414136  23.452  37.361   9.241
  868POPC   GL114137  23.119  37.468   9.027
  868POPC   GL214138  22.925  37.785   8.914
  868POPC   C1A14139  23.313  37.612   8.651
  868POPC   D2A14140  23.131  37.889   8.440
  868POPC   C3A14141  22.985  37.715   8.106
  868POPC   C4A14142  23.121  37.879   7.768
  868POPC   C1B14143  22.791  37.527   8.621
  868POPC   C2B14144  22.513  37.659   8.324
  868POPC   C3B14145  22.496  37.855   7.963
  868POPC   C4B14146  22.703  37.605   7.669
  869POPC   NC314147   0.726  16.512   9.440
  869POPC   PO414148   1.429  16.772   9.446
  869POPC   GL114149   1.250  16.938   9.106
  869POPC   GL214150   0.889  17.028   9.173
  869POPC   C1A14151   1.383  16.744   8.735
  869POPC   D2A14152   1.221  16.868   8.383
  869POPC   C3A14153   1.296  16.598   8.080
  869POPC   C4A14154   1.235  16.883   7.805
  869POPC   C1B14155   0.846  16.758   8.785
  869POPC   C2B14156   0.861  16.516   8.391
  869POPC   C3B14157   0.773  16.524   7.966
  869POPC   C4B14158   0.976  16.488   7.571
  870POPC   NC314159  41.151  18.699   9.383
  870POPC   PO414160  40.832  18.055   9.516
  870POPC   GL114161  40.792  18.243   9.104
  870POPC   GL214162  40.773  18.612   9.043
  870POPC   C1A14163  40.780  18.035   8.690
  870POPC   D2A14164  40.802  18.187   8.254
  870POPC   C3A14165  40.577  17.969   7.912
  870POPC   C4A14166  40.523  18.172   7.489
  870POPC   C1B14167  40.714  18.540   8.627
  870POPC   C2B14168  40.591  18.705   8.233
  870POPC   C3B14169  40.614  18.482   7.866
  870POPC   C4B14170  40.988  18.198   7.756
  871POPC   NC314171  17.335  34.145   9.418
  871POPC   PO414172  17.490  33.480   9.467
  871POPC   GL114173  17.496  33.738   9.120
  871POPC   GL214174  17.141  33.797   9.079
  871POPC   C1A14175  17.552  33.777   8.682
  871POPC   D2A14176  17.790  33.909   8.298
  871POPC   C3A14177  17.769  33.721   7.882
  871POPC   C4A14178  17.620  33.951   7.470
  871POPC   C1B14179  16.997  33.869   8.674
  871POPC   C2B14180  17.230  33.822   8.270
  871POPC   C3B14181  17.272  33.709   7.822
  871POPC   C4B14182  17.149  33.680   7.396
  872POPC   NC314183  20.358   1.391   9.584
  872POPC   PO414184  20.702   0.788   9.759
  872POPC   GL114185  20.693   1.132   9.339
  872POPC   GL214186  21.002   1.276   9.215
  872POPC   C1A14187  20.538   1.247   8.905
  872POPC   D2A14188  20.494   1.156   8.430
  872POPC   C3A14189  20.594   1.437   8.052
  872POPC   C4A14190  20.599   1.285   7.614
  872POPC   C1B14191  20.994   1.434   8.786
  872POPC   C2B14192  21.043   1.242   8.375
  872POPC   C3B14193  21.021   1.160   7.943
  872POPC   C4B14194  20.877   0.840   7.714
  873POPC   NC314195  20.965  25.834   9.189
  873POPC   PO414196  20.688  26.247   9.728
  873POPC   GL114197  20.691  26.306   9.205
  873POPC   GL214198  20.350  26.208   9.037
  873POPC   C1A14199  20.720  26.172   8.705
  873POPC   D2A14200  20.542  25.902   8.369
  873POPC   C3A14201  20.638  26.070   7.989
  873POPC   C4A14202  20.967  25.941   7.733
  873POPC   C1B14203  20.254  25.818   8.776
  873POPC   C2B14204  20.028  25.668   8.396
  873POPC   C3B14205  20.144  25.805   7.972
  873POPC   C4B14206  20.327  26.015   7.604
  874POPC   NC314207   3.279  12.426   9.504
  874POPC   PO414208   3.946  12.425   9.642
  874POPC   GL114209   3.711  12.564   9.242
  874POPC   GL214210   3.739  12.911   9.181
  874POPC   C1A14211   3.409  12.631   8.881
  874POPC   D2A14212   3.296  12.961   8.583
  874POPC   C3A14213   3.339  12.871   8.132
  874POPC   C4A14214   3.475  13.143   7.811
  874POPC   C1B14215   3.889  12.838   8.777
  874POPC   C2B14216   3.788  12.962   8.376
  874POPC   C3B14217   3.848  12.821   7.980
  874POPC   C4B14218   3.906  12.986   7.604
  875POPC   NC314219  41.203  27.375   9.393
  875POPC   PO414220  40.681  27.740   9.421
  875POPC   GL114221  40.870  27.641   9.078
  875POPC   GL214222  41.044  27.937   9.006
  875POPC   C1A14223  40.608  27.418   8.775
  875POPC   D2A14224  40.525  27.198   8.395
  875POPC   C3A14225  40.446  27.409   8.006
  875POPC   C4A14226  40.815  27.483   7.737
  875POPC   C1B14227  40.754  27.909   8.650
  875POPC   C2B14228  40.788  27.725   8.227
  875POPC   C3B14229  41.040  27.906   7.882
  875POPC   C4B14230  40.982  27.988   7.426
  876POPC   NC314231  31.189   2.673   9.449
  876POPC   PO414232  31.807   2.727   9.511
  876POPC   GL114233  31.675   2.643   9.130
  876POPC   GL214234  31.465   2.927   9.111
  876POPC   C1A14235  31.747   2.776   8.729
  876POPC   D2A14236  31.502   2.759   8.368
  876POPC   C3A14237  31.705   2.777   7.979
  876POPC   C4A14238  31.699   2.579   7.573
  876POPC   C1B14239  31.187   2.721   8.785
  876POPC   C2B14240  30.986   2.672   8.358
  876POPC   C3B14241  31.202   2.755   7.945
  876POPC   C4B14242  31.218   2.651   7.505
  877POPC   NC314243  44.352  39.396   9.589
  877POPC   PO414244  44.580  38.842   9.429
  877POPC   GL114245  44.534  39.201   9.166
  877POPC   GL214246  44.794  39.478   9.253
  877POPC   C1A14247  44.348  39.183   8.784
  877POPC   D2A14248  44.504  38.974   8.429
  877POPC   C3A14249  44.399  39.184   8.075
  877POPC   C4A14250  44.656  39.174   7.745
  877POPC   C1B14251  44.697  39.554   8.832
  877POPC   C2B14252  44.604  39.501   8.430
  877POPC   C3B14253  44.870  39.488   8.092
  877POPC   C4B14254  44.762  39.658   7.712
  878POPC   NC314255   7.628  24.397   9.497
  878POPC   PO414256   7.101  24.027   9.685
  878POPC   GL114257   7.218  24.282   9.215
  878POPC   GL214258   7.318  24.664   9.180
  878POPC   C1A14259   7.129  24.445   8.761
  878POPC   D2A14260   7.458  24.517   8.487
  878POPC   C3A14261   7.515  24.421   8.079
  878POPC   C4A14262   7.500  24.214   7.684
  878POPC   C1B14263   7.360  24.912   8.807
  878POPC   C2B14264   7.181  24.940   8.402
  878POPC   C3B14265   7.123  24.754   7.986
  878POPC   C4B14266   7.473  24.751   7.701
  879POPC   NC314267  21.933  24.594   9.832
  879POPC   PO414268  22.071  23.961   9.534
  879POPC   GL114269  21.978  23.733   9.123
  879POPC   GL214270  21.947  23.381   9.124
  879POPC   C1A14271  22.044  23.752   8.684
  879POPC   D2A14272  22.167  24.095   8.414
  879POPC   C3A14273  22.039  24.015   8.025
  879POPC   C4A14274  22.247  23.884   7.685
  879POPC   C1B14275  21.691  23.341   8.741
  879POPC   C2B14276  21.774  23.448   8.308
  879POPC   C3B14277  22.071  23.509   7.975
  879POPC   C4B14278  22.459  23.410   7.764
  880POPC   NC314279  35.760  43.468   9.857
  880POPC   PO414280  35.964  43.129   9.333
  880POPC   GL114281  36.156  42.902   9.047
  880POPC   GL214282  36.502  42.877   9.183
  880POPC   C1A14283  35.940  42.754   8.698
  880POPC   D2A14284  36.017  42.930   8.301
  880POPC   C3A14285  35.865  42.787   7.940
  880POPC   C4A14286  36.017  43.005   7.625
  880POPC   C1B14287  36.607  43.053   8.774
  880POPC   C2B14288  36.555  43.015   8.319
  880POPC   C3B14289  36.419  43.218   7.927
  880POPC   C4B14290  36.435  43.247   7.466
  881POPC   NC314291  11.737  34.533   9.376
  881POPC   PO414292  11.148  34.197   9.450
  881POPC   GL114293  11.290  34.499   9.120
  881POPC   GL214294  11.595  34.490   8.904
  881POPC   C1A14295  11.207  34.790   8.803
  881POPC   D2A14296  11.101  34.741   8.375
  881POPC   C3A14297  10.898  34.783   7.986
  881POPC   C4A14298  11.068  34.966   7.630
  881POPC   C1B14299  11.305  34.317   8.616
  881POPC   C2B14300  11.246  34.295   8.158
  881POPC   C3B14301  11.316  34.482   7.738
  881POPC   C4B14302  11.390  34.675   7.372
  882POPC   NC314303   5.146  31.190   9.517
  882POPC   PO414304   4.947  31.799   9.547
  882POPC   GL114305   4.918  31.526   9.210
  882POPC   GL214306   5.299  31.571   9.189
  882POPC   C1A14307   4.785  31.267   8.852
  882POPC   D2A14308   4.661  31.320   8.422
  882POPC   C3A14309   4.809  31.052   8.103
  882POPC   C4A14310   4.882  31.208   7.685
  882POPC   C1B14311   5.171  31.566   8.770
  882POPC   C2B14312   5.154  31.322   8.425
  882POPC   C3B14313   5.158  31.429   8.052
  882POPC   C4B14314   5.305  31.584   7.705
  883POPC   NC314315  33.852   1.339   9.409
  883POPC   PO414316  33.734   0.805   9.642
  883POPC   GL114317  33.911   0.845   9.212
  883POPC   GL214318  33.623   0.994   9.085
  883POPC   C1A14319  33.994   1.010   8.741
  883POPC   D2A14320  33.804   1.340   8.423
  883POPC   C3A14321  33.784   1.247   7.987
  883POPC   C4A14322  33.779   0.888   7.725
  883POPC   C1B14323  33.498   1.379   8.835
  883POPC   C2B14324  33.246   1.508   8.464
  883POPC   C3B14325  33.353   1.496   8.039
  883POPC   C4B14326  33.513   1.468   7.586
  884POPC   NC314327   7.953  33.362   9.508
  884POPC   PO414328   7.980  32.680   9.439
  884POPC   GL114329   8.157  32.970   9.124
  884POPC   GL214330   7.828  33.198   9.046
  884POPC   C1A14331   8.504  32.915   8.775
  884POPC   D2A14332   8.572  32.644   8.400
  884POPC   C3A14333   8.539  32.840   7.982
  884POPC   C4A14334   8.319  32.910   7.583
  884POPC   C1B14335   7.827  32.827   8.776
  884POPC   C2B14336   8.102  32.807   8.416
  884POPC   C3B14337   8.006  32.943   8.006
  884POPC   C4B14338   7.801  33.097   7.648
  885POPC   NC314339  28.983  14.405   9.666
  885POPC   PO414340  29.334  14.591   9.190
  885POPC   GL114341  28.961  14.375   9.139
  885POPC   GL214342  28.722  14.607   9.233
  885POPC   C1A14343  28.959  14.120   8.779
  885POPC   D2A14344  29.273  14.201   8.440
  885POPC   C3A14345  29.143  14.319   8.028
  885POPC   C4A14346  29.250  14.547   7.637
  885POPC   C1B14347  28.693  14.594   8.752
  885POPC   C2B14348  28.749  14.776   8.305
  885POPC   C3B14349  28.762  14.633   7.856
  885POPC   C4B14350  28.786  14.707   7.389
  886POPC   NC314351   7.330   3.675   9.511
  886POPC   PO414352   7.585   3.067   9.435
  886POPC   GL114353   7.444   3.307   9.077
  886POPC   GL214354   7.583   3.627   9.083
  886POPC   C1A14355   7.348   3.498   8.661
  886POPC   D2A14356   7.280   3.765   8.296
  886POPC   C3A14357   7.109   3.501   7.948
  886POPC   C4A14358   6.993   3.427   7.515
  886POPC   C1B14359   7.816   3.724   8.751
  886POPC   C2B14360   7.778   3.595   8.332
  886POPC   C3B14361   7.932   3.626   7.902
  886POPC   C4B14362   7.520   3.666   7.674
  887POPC   NC314363  20.800  27.319   9.464
  887POPC   PO414364  20.422  27.921   9.543
  887POPC   GL114365  20.465  27.623   9.187
  887POPC   GL214366  20.814  27.690   9.101
  887POPC   C1A14367  20.473  27.534   8.729
  887POPC   D2A14368  20.647  27.587   8.308
  887POPC   C3A14369  20.442  27.562   7.906
  887POPC   C4A14370  20.216  27.210   7.708
  887POPC   C1B14371  20.906  27.877   8.718
  887POPC   C2B14372  20.784  28.078   8.333
  887POPC   C3B14373  20.836  27.928   7.923
  887POPC   C4B14374  20.831  27.696   7.539
  888POPC   NC314375  16.115  44.481   9.590
  888POPC   PO414376  15.820   0.071   9.622
  888POPC   GL114377  15.933  44.824   9.221
  888POPC   GL214378  15.748  44.514   9.132
  888POPC   C1A14379  16.173  44.842   8.826
  888POPC   D2A14380  16.150  44.989   8.358
  888POPC   C3A14381  16.200  44.696   7.951
  888POPC   C4A14382  15.975  44.615   7.500
  888POPC   C1B14383  15.749  44.617   8.694
  888POPC   C2B14384  15.640  44.802   8.346
  888POPC   C3B14385  15.699  44.813   7.930
  888POPC   C4B14386  15.739  44.356   7.857
  889POPC   NC314387  21.858   2.441   9.387
  889POPC   PO414388  22.061   1.774   9.527
  889POPC   GL114389  22.171   1.719   9.136
  889POPC   GL214390  22.200   2.112   9.171
  889POPC   C1A14391  21.911   1.554   8.812
  889POPC   D2A14392  21.804   1.756   8.438
  889POPC   C3A14393  22.084   1.714   8.083
  889POPC   C4A14394  22.406   1.770   7.748
  889POPC   C1B14395  22.005   2.070   8.813
  889POPC   C2B14396  22.150   2.112   8.420
  889POPC   C3B14397  21.836   2.164   8.105
  889POPC   C4B14398  22.044   2.136   7.720
  890POPC   NC314399  44.402  27.821   9.540
  890POPC   PO414400  44.720  27.210   9.460
  890POPC   GL114401  44.793  27.618   9.263
  890POPC   GL214402   0.114  27.731   9.327
  890POPC   C1A14403  44.646  27.767   8.849
  890POPC   D2A14404  44.555  27.531   8.471
  890POPC   C3A14405  44.608  27.624   8.044
  890POPC   C4A14406  44.584  27.358   7.703
  890POPC   C1B14407   0.168  27.783   8.892
  890POPC   C2B14408   0.020  27.980   8.538
  890POPC   C3B14409   0.008  27.946   8.082
  890POPC   C4B14410  44.987  27.700   7.686
  891POPC   NC314411  36.660  29.543   9.404
  891POPC   PO414412  37.040  29.013   9.461
  891POPC   GL114413  36.994  29.243   9.125
  891POPC   GL214414  36.653  29.106   9.114
  891POPC   C1A14415  37.056  29.138   8.705
  891POPC   D2A14416  36.907  29.342   8.319
  891POPC   C3A14417  37.092  29.079   8.009
  891POPC   C4A14418  37.138  29.182   7.621
  891POPC   C1B14419  36.584  29.312   8.739
  891POPC   C2B14420  36.626  28.955   8.466
  891POPC   C3B14421  36.649  28.870   8.077
  891POPC   C4B14422  36.628  29.186   7.747
  892POPC   NC314423  35.890  36.498   9.452
  892POPC   PO414424  36.304  35.915   9.416
  892POPC   GL114425  36.204  36.233   9.127
  892POPC   GL214426  36.074  35.995   8.938
  892POPC   C1A14427  36.130  36.444   8.745
  892POPC   D2A14428  36.147  36.170   8.378
  892POPC   C3A14429  36.167  36.391   7.983
  892POPC   C4A14430  35.974  36.431   7.604
  892POPC   C1B14431  36.303  35.750   8.669
  892POPC   C2B14432  36.537  35.816   8.324
  892POPC   C3B14433  36.308  35.879   7.974
  892POPC   C4B14434  36.082  35.965   7.640
  893POPC   NC314435   2.217  20.230   9.435
  893POPC   PO414436   1.518  20.026   9.660
  893POPC   GL114437   1.801  19.945   9.277
  893POPC   GL214438   1.965  19.625   9.275
  893POPC   C1A14439   1.876  20.008   8.812
  893POPC   D2A14440   1.764  20.160   8.393
  893POPC   C3A14441   2.138  20.286   8.179
  893POPC   C4A14442   2.156  20.046   7.819
  893POPC   C1B14443   1.713  19.540   8.900
  893POPC   C2B14444   1.734  19.519   8.475
  893POPC   C3B14445   1.915  19.675   8.122
  893POPC   C4B14446   1.723  19.684   7.748
  894POPC   NC314447   5.932  27.411   9.855
  894POPC   PO414448   5.531  27.320   9.385
  894POPC   GL114449   5.905  27.526   9.154
  894POPC   GL214450   6.030  27.884   9.224
  894POPC   C1A14451   5.808  27.649   8.714
  894POPC   D2A14452   6.061  27.462   8.396
  894POPC   C3A14453   5.837  27.372   8.057
  894POPC   C4A14454   5.815  27.332   7.658
  894POPC   C1B14455   6.079  28.073   8.807
  894POPC   C2B14456   5.922  28.041   8.374
  894POPC   C3B14457   6.107  27.818   8.035
  894POPC   C4B14458   6.387  27.967   7.750
  895POPC   NC314459   9.447  14.573   9.634
  895POPC   PO414460   9.823  14.144   9.403
  895POPC   GL114461   9.547  14.347   9.181
  895POPC   GL214462   9.671  14.675   9.182
  895POPC   C1A14463   9.602  14.327   8.757
  895POPC   D2A14464   9.823  14.512   8.427
  895POPC   C3A14465   9.706  14.266   8.097
  895POPC   C4A14466   9.825  14.348   7.702
  895POPC   C1B14467   9.355  14.752   8.877
  895POPC   C2B14468   9.298  14.632   8.428
  895POPC   C3B14469   9.523  14.748   8.047
  895POPC   C4B14470   9.337  14.591   7.693
  896POPC   NC314471  13.567  38.380   9.606
  896POPC   PO414472  14.077  38.016   9.249
  896POPC   GL114473  13.702  38.215   9.131
  896POPC   GL214474  13.496  38.529   9.144
  896POPC   C1A14475  13.705  38.313   8.717
  896POPC   D2A14476  13.646  38.298   8.309
  896POPC   C3A14477  13.901  38.429   8.029
  896POPC   C4A14478  13.795  38.232   7.665
  896POPC   C1B14479  13.444  38.738   8.810
  896POPC   C2B14480  13.608  38.800   8.466
  896POPC   C3B14481  13.469  38.715   8.074
  896POPC   C4B14482  13.538  38.671   7.661
  897POPC   NC314483  34.200  25.503   9.513
  897POPC   PO414484  34.857  25.337   9.554
  897POPC   GL114485  34.612  25.307   9.183
  897POPC   GL214486  34.324  25.140   9.157
  897POPC   C1A14487  34.551  25.369   8.738
  897POPC   D2A14488  34.817  25.326   8.353
  897POPC   C3A14489  34.593  25.348   7.960
  897POPC   C4A14490  34.503  25.459   7.531
  897POPC   C1B14491  34.245  24.949   8.820
  897POPC   C2B14492  34.422  24.980   8.434
  897POPC   C3B14493  34.336  24.907   8.050
  897POPC   C4B14494  34.460  24.961   7.647
  898POPC   NC314495  22.722  38.777   9.440
  898POPC   PO414496  22.547  38.129   9.474
  898POPC   GL114497  22.883  38.316   9.190
  898POPC   GL214498  23.033  38.663   9.069
  898POPC   C1A14499  23.019  38.256   8.784
  898POPC   D2A14500  22.725  38.198   8.452
  898POPC   C3A14501  22.905  38.261   8.069
  898POPC   C4A14502  22.754  38.198   7.693
  898POPC   C1B14503  22.676  38.646   8.782
  898POPC   C2B14504  22.623  38.704   8.356
  898POPC   C3B14505  22.835  38.809   8.009
  898POPC   C4B14506  23.245  38.656   7.890
  899POPC   NC314507  35.017  36.389   9.582
  899POPC   PO414508  35.568  35.981   9.456
  899POPC   GL114509  35.427  36.138   9.082
  899POPC   GL214510  35.696  36.339   9.025
  899POPC   C1A14511  35.198  36.045   8.698
  899POPC   D2A14512  35.215  36.329   8.351
  899POPC   C3A14513  35.061  36.274   7.962
  899POPC   C4A14514  35.227  35.900   7.816
  899POPC   C1B14515  35.675  36.230   8.640
  899POPC   C2B14516  35.721  36.408   8.295
  899POPC   C3B14517  35.742  36.114   8.008
  899POPC   C4B14518  35.518  36.328   7.767
  900POPC   NC314519   1.533  40.462   9.521
  900POPC   PO414520   0.908  40.759   9.426
  900POPC   GL114521   1.298  40.769   9.161
  900POPC   GL214522   1.287  40.411   9.039
  900POPC   C1A14523   1.426  40.798   8.712
  900POPC   D2A14524   1.219  40.570   8.364
  900POPC   C3A14525   1.216  40.714   7.959
  900POPC   C4A14526   1.050  41.071   7.797
  900POPC   C1B14527   0.943  40.646   8.792
  900POPC   C2B14528   0.688  40.510   8.453
  900POPC   C3B14529   0.822  40.226   8.166
  900POPC   C4B14530   0.983  40.300   7.794
  901POPC   NC314531  14.748   4.269   9.493
  901POPC   PO414532  15.367   4.445   9.670
  901POPC   GL114533  15.412   4.389   9.256
  901POPC   GL214534  15.404   4.747   9.182
  901POPC   C1A14535  15.209   4.206   8.865
  901POPC   D2A14536  15.072   4.022   8.451
  901POPC   C3A14537  15.342   3.974   8.074
  901POPC   C4A14538  15.114   4.107   7.712
  901POPC   C1B14539  15.599   4.555   8.829
  901POPC   C2B14540  15.486   4.366   8.432
  901POPC   C3B14541  15.170   4.447   8.119
  901POPC   C4B14542  15.303   4.611   7.759
  902POPC   NC314543  36.370   5.005   9.714
  902POPC   PO414544  36.957   5.265   9.886
  902POPC   GL114545  36.978   5.210   9.385
  902POPC   GL214546  36.748   4.964   9.312
  902POPC   C1A14547  37.146   5.033   8.971
  902POPC   D2A14548  37.337   4.959   8.548
  902POPC   C3A14549  37.150   4.985   8.141
  902POPC   C4A14550  37.258   5.069   7.725
  902POPC   C1B14551  36.680   4.868   8.865
  902POPC   C2B14552  36.832   5.132   8.536
  902POPC   C3B14553  36.702   5.264   8.145
  902POPC   C4B14554  36.738   5.229   7.707
  903POPC   NC314555  39.005  42.550   9.462
  903POPC   PO414556  38.348  42.307   9.517
  903POPC   GL114557  38.511  42.340   9.116
  903POPC   GL214558  38.757  42.600   9.016
  903POPC   C1A14559  38.355  42.407   8.738
  903POPC   D2A14560  38.563  42.635   8.447
  903POPC   C3A14561  38.334  42.478   8.100
  903POPC   C4A14562  38.428  42.022   7.886
  903POPC   C1B14563  38.866  42.275   8.686
  903POPC   C2B14564  38.776  42.202   8.231
  903POPC   C3B14565  38.734  42.439   7.816
  903POPC   C4B14566  38.776  42.162   7.517
  904POPC   NC314567  18.586  20.374   9.409
  904POPC   PO414568  18.020  20.502   9.631
  904POPC   GL114569  18.270  20.787   9.275
  904POPC   GL214570  18.664  20.798   9.144
  904POPC   C1A14571  18.214  20.776   8.817
  904POPC   D2A14572  18.028  20.622   8.404
  904POPC   C3A14573  18.317  20.604   8.040
  904POPC   C4A14574  18.361  20.782   7.603
  904POPC   C1B14575  18.716  20.540   8.760
  904POPC   C2B14576  18.563  20.297   8.399
  904POPC   C3B14577  18.667  20.142   7.982
  904POPC   C4B14578  18.359  20.269   7.652
  905POPC   NC314579   7.078  41.852   9.508
  905POPC   PO414580   7.547  41.331   9.483
  905POPC   GL114581   7.489  41.575   9.165
  905POPC   GL214582   7.155  41.507   9.151
  905POPC   C1A14583   7.463  41.449   8.740
  905POPC   D2A14584   7.731  41.427   8.413
  905POPC   C3A14585   7.611  41.697   8.086
  905POPC   C4A14586   7.608  41.419   7.756
  905POPC   C1B14587   7.131  41.839   8.848
  905POPC   C2B14588   7.141  41.732   8.424
  905POPC   C3B14589   7.140  41.933   8.053
  905POPC   C4B14590   7.216  41.737   7.736
  906POPC   NC314591  19.954  41.536   9.645
  906POPC   PO414592  20.353  42.095   9.518
  906POPC   GL114593  19.963  41.866   9.236
  906POPC   GL214594  19.894  41.480   9.161
  906POPC   C1A14595  19.713  41.786   8.830
  906POPC   D2A14596  19.808  41.613   8.430
  906POPC   C3A14597  20.073  41.709   8.103
  906POPC   C4A14598  19.831  41.620   7.751
  906POPC   C1B14599  20.105  41.392   8.771
  906POPC   C2B14600  20.195  41.211   8.329
  906POPC   C3B14601  20.280  41.278   7.870
  906POPC   C4B14602  20.082  41.264   7.455
  907POPC   NC314603  44.508  15.717   9.551
  907POPC   PO414604   0.045  16.165   9.902
  907POPC   GL114605  44.865  16.071   9.438
  907POPC   GL214606  44.574  16.243   9.274
  907POPC   C1A14607  44.836  15.970   8.944
  907POPC   D2A14608  44.846  16.023   8.481
  907POPC   C3A14609  44.604  15.797   8.169
  907POPC   C4A14610  44.694  15.844   7.755
  907POPC   C1B14611  44.251  16.222   8.913
  907POPC   C2B14612  44.272  16.079   8.470
  907POPC   C3B14613  44.282  16.192   8.046
  907POPC   C4B14614  44.284  16.103   7.628
  908POPC   NC314615  44.445  28.566   9.412
  908POPC   PO414616  44.824  28.034   9.633
  908POPC   GL114617  44.795  28.186   9.183
  908POPC   GL214618  44.912  28.546   9.179
  908POPC   C1A14619  44.613  28.272   8.741
  908POPC   D2A14620  44.543  28.033   8.365
  908POPC   C3A14621  44.533  28.150   7.933
  908POPC   C4A14622  44.323  28.355   7.590
  908POPC   C1B14623   0.064  28.505   8.758
  908POPC   C2B14624  44.937  28.425   8.319
  908POPC   C3B14625  44.994  28.436   7.885
  908POPC   C4B14626   0.232  28.549   7.505
  909POPC   NC314627  14.160   5.220   9.567
  909POPC   PO414628  14.611   4.744   9.382
  909POPC   GL114629  14.506   5.125   9.168
  909POPC   GL214630  14.196   5.035   9.101
  909POPC   C1A14631  14.423   5.319   8.752
  909POPC   D2A14632  14.648   5.169   8.401
  909POPC   C3A14633  14.524   5.113   7.998
  909POPC   C4A14634  14.497   4.823   7.664
  909POPC   C1B14635  14.088   4.882   8.708
  909POPC   C2B14636  14.182   4.865   8.289
  909POPC   C3B14637  14.049   4.942   7.877
  909POPC   C4B14638  14.236   5.246   7.590
  910POPC   NC314639  23.473  12.876   9.543
  910POPC   PO414640  24.101  12.888   9.374
  910POPC   GL114641  23.883  12.711   9.061
  910POPC   GL214642  23.563  12.730   9.070
  910POPC   C1A14643  23.822  12.959   8.701
  910POPC   D2A14644  23.581  13.017   8.370
  910POPC   C3A14645  23.743  12.886   7.952
  910POPC   C4A14646  23.742  12.758   7.535
  910POPC   C1B14647  23.434  12.548   8.690
  910POPC   C2B14648  23.559  12.526   8.268
  910POPC   C3B14649  23.390  12.472   7.869
  910POPC   C4B14650  23.269  12.610   7.476
  911POPC   NC314651  43.054  40.008   9.629
  911POPC   PO414652  42.660  40.538   9.547
  911POPC   GL114653  43.042  40.357   9.225
  911POPC   GL214654  43.146  39.969   9.147
  911POPC   C1A14655  43.106  40.255   8.746
  911POPC   D2A14656  43.110  39.906   8.418
  911POPC   C3A14657  43.123  40.054   8.018
  911POPC   C4A14658  43.056  40.229   7.652
  911POPC   C1B14659  43.421  39.831   8.832
  911POPC   C2B14660  43.635  39.688   8.464
  911POPC   C3B14661  43.495  39.712   8.049
  911POPC   C4B14662  43.599  39.527   7.651
  912POPC   NC314663  26.258  25.322   9.439
  912POPC   PO414664  26.853  25.020   9.563
  912POPC   GL114665  26.959  25.144   9.152
  912POPC   GL214666  26.657  25.307   9.125
  912POPC   C1A14667  26.877  25.111   8.715
  912POPC   D2A14668  26.767  25.335   8.359
  912POPC   C3A14669  27.049  25.318   8.022
  912POPC   C4A14670  26.776  25.438   7.745
  912POPC   C1B14671  26.622  25.620   8.821
  912POPC   C2B14672  26.417  25.709   8.464
  912POPC   C3B14673  26.377  25.843   8.047
  912POPC   C4B14674  26.419  25.748   7.607
  913POPC   NC314675  35.858  39.799   9.415
  913POPC   PO414676  35.523  40.401   9.670
  913POPC   GL114677  35.450  40.135   9.273
  913POPC   GL214678  35.344  39.813   9.274
  913POPC   C1A14679  35.216  40.104   8.876
  913POPC   D2A14680  35.320  39.960   8.440
  913POPC   C3A14681  35.230  40.201   8.085
  913POPC   C4A14682  35.035  39.893   7.851
  913POPC   C1B14683  35.582  39.721   8.830
  913POPC   C2B14684  35.713  39.608   8.387
  913POPC   C3B14685  35.618  39.827   7.990
  913POPC   C4B14686  35.776  39.869   7.581
  914POPC   NC314687  22.360   9.706   9.357
  914POPC   PO414688  22.932   9.561   9.644
  914POPC   GL114689  23.050   9.770   9.231
  914POPC   GL214690  22.775   9.905   9.179
  914POPC   C1A14691  23.029   9.683   8.790
  914POPC   D2A14692  22.853   9.568   8.411
  914POPC   C3A14693  23.163   9.709   8.107
  914POPC   C4A14694  23.310   9.569   7.681
  914POPC   C1B14695  22.780  10.167   8.827
  914POPC   C2B14696  22.875  10.081   8.422
  914POPC   C3B14697  22.833  10.225   8.029
  914POPC   C4B14698  22.907   9.920   7.725
  915POPC   NC314699   6.664   8.377  10.000
  915POPC   PO414700   6.588   7.832   9.566
  915POPC   GL114701   6.494   8.187   9.319
  915POPC   GL214702   6.849   8.241   9.235
  915POPC   C1A14703   6.460   8.277   8.871
  915POPC   D2A14704   6.338   8.314   8.425
  915POPC   C3A14705   6.495   8.166   8.009
  915POPC   C4A14706   6.281   7.872   7.731
  915POPC   C1B14707   6.974   8.325   8.799
  915POPC   C2B14708   6.860   8.402   8.365
  915POPC   C3B14709   7.013   8.305   7.940
  915POPC   C4B14710   7.095   8.380   7.491
  916POPC   NC314711  27.520  44.422   9.863
  916POPC   PO414712  27.549   0.028   9.542
  916POPC   GL114713  27.546  44.805   9.172
  916POPC   GL214714  27.206  44.819   9.065
  916POPC   C1A14715  27.734  44.728   8.759
  916POPC   D2A14716  27.496  44.722   8.381
  916POPC   C3A14717  27.690  44.745   7.991
  916POPC   C4A14718  27.531  44.575   7.626
  916POPC   C1B14719  27.291  44.443   8.800
  916POPC   C2B14720  27.303  44.177   8.433
  916POPC   C3B14721  27.338  44.335   8.046
  916POPC   C4B14722  27.237  44.135   7.694
  917POPC   NC314723  43.173  11.927  10.034
  917POPC   PO414724  43.071  12.362   9.541
  917POPC   GL114725  42.905  12.175   9.170
  917POPC   GL214726  42.797  11.828   9.168
  917POPC   C1A14727  42.942  12.295   8.759
  917POPC   D2A14728  42.803  12.152   8.402
  917POPC   C3A14729  42.998  12.231   8.038
  917POPC   C4A14730  42.729  12.131   7.702
  917POPC   C1B14731  42.655  11.745   8.736
  917POPC   C2B14732  42.882  11.662   8.336
  917POPC   C3B14733  43.025  11.727   7.903
  917POPC   C4B14734  43.103  11.845   7.453
  918POPC   NC314735  39.078   7.728   9.304
  918POPC   PO414736  39.087   8.355   9.575
  918POPC   GL114737  39.251   8.359   9.176
  918POPC   GL214738  39.411   8.065   9.083
  918POPC   C1A14739  39.327   8.439   8.757
  918POPC   D2A14740  39.494   8.138   8.480
  918POPC   C3A14741  39.279   8.165   8.117
  918POPC   C4A14742  39.296   8.194   7.695
  918POPC   C1B14743  39.077   7.980   8.735
  918POPC   C2B14744  38.961   7.822   8.334
  918POPC   C3B14745  39.004   7.824   7.879
  918POPC   C4B14746  39.064   7.856   7.384
  919POPC   NC314747   6.815   5.316   9.519
  919POPC   PO414748   6.377   4.716   9.619
  919POPC   GL114749   6.426   4.760   9.177
  919POPC   GL214750   6.745   4.915   9.184
  919POPC   C1A14751   6.544   4.801   8.737
  919POPC   D2A14752   6.463   5.069   8.410
  919POPC   C3A14753   6.564   4.895   8.066
  919POPC   C4A14754   6.811   4.971   7.709
  919POPC   C1B14755   6.670   5.294   8.868
  919POPC   C2B14756   6.788   5.482   8.440
  919POPC   C3B14757   7.045   5.366   8.055
  919POPC   C4B14758   6.955   5.462   7.597
  920POPC   NC314759  35.290  34.891   9.532
  920POPC   PO414760  34.908  34.383   9.517
  920POPC   GL114761  35.090  34.557   9.136
  920POPC   GL214762  35.329  34.833   9.032
  920POPC   C1A14763  35.270  34.411   8.747
  920POPC   D2A14764  35.135  34.495   8.348
  920POPC   C3A14765  35.374  34.447   8.027
  920POPC   C4A14766  35.236  34.503   7.648
  920POPC   C1B14767  35.696  34.750   8.802
  920POPC   C2B14768  35.706  34.532   8.461
  920POPC   C3B14769  35.795  34.737   8.108
  920POPC   C4B14770  35.639  34.798   7.708
  921POPC   NC314771  14.457  24.211   9.434
  921POPC   PO414772  14.280  24.835   9.484
  921POPC   GL114773  14.327  24.671   9.128
  921POPC   GL214774  14.670  24.715   9.143
  921POPC   C1A14775  14.140  24.530   8.752
  921POPC   D2A14776  14.157  24.435   8.339
  921POPC   C3A14777  14.273  24.695   7.999
  921POPC   C4A14778  14.195  24.607   7.590
  921POPC   C1B14779  14.655  24.395   8.838
  921POPC   C2B14780  14.682  24.331   8.436
  921POPC   C3B14781  14.545  24.208   8.084
  921POPC   C4B14782  14.620  24.393   7.748
  922POPC   NC314783   9.767  42.833   9.500
  922POPC   PO414784   9.515  42.308   9.811
  922POPC   GL114785   9.730  42.360   9.343
  922POPC   GL214786   9.485  42.543   9.157
  922POPC   C1A14787   9.841  42.335   8.857
  922POPC   D2A14788   9.660  42.278   8.404
  922POPC   C3A14789   9.900  42.241   7.990
  922POPC   C4A14790  10.099  42.553   7.727
  922POPC   C1B14791   9.455  42.720   8.750
  922POPC   C2B14792   9.684  42.817   8.391
  922POPC   C3B14793   9.639  42.737   7.941
  922POPC   C4B14794   9.636  42.566   7.515
  923POPC   NC314795  25.229  34.531   9.494
  923POPC   PO414796  25.697  35.086   9.360
  923POPC   GL114797  25.416  34.828   9.074
  923POPC   GL214798  25.035  34.754   9.081
  923POPC   C1A14799  25.333  34.479   8.771
  923POPC   D2A14800  25.131  34.449   8.367
  923POPC   C3A14801  25.340  34.630   7.999
  923POPC   C4A14802  25.442  34.628   7.540
  923POPC   C1B14803  24.822  34.426   8.809
  923POPC   C2B14804  24.622  34.244   8.435
  923POPC   C3B14805  24.826  34.186   8.043
  923POPC   C4B14806  24.777  34.396   7.664
  924POPC   NC314807  40.963  20.720   9.423
  924POPC   PO414808  41.057  20.086   9.381
  924POPC   GL114809  40.920  20.333   9.049
  924POPC   GL214810  40.584  20.392   9.100
  924POPC   C1A14811  40.832  20.693   8.774
  924POPC   D2A14812  40.657  20.824   8.401
  924POPC   C3A14813  40.960  20.726   8.118
  924POPC   C4A14814  41.088  20.969   7.798
  924POPC   C1B14815  40.370  20.458   8.676
  924POPC   C2B14816  40.385  20.457   8.185
  924POPC   C3B14817  40.545  20.706   7.823
  924POPC   C4B14818  40.418  20.652   7.380
  925POPC   NC314819  32.938  44.943   9.358
  925POPC   PO414820  32.998  44.392   9.720
  925POPC   GL114821  33.125  44.490   9.282
  925POPC   GL214822  32.886  44.617   8.971
  925POPC   C1A14823  33.392  44.623   8.930
  925POPC   D2A14824  33.176  44.798   8.572
  925POPC   C3A14825  33.218  44.671   8.142
  925POPC   C4A14826  33.075  44.526   7.726
  925POPC   C1B14827  32.678  44.947   8.707
  925POPC   C2B14828  32.604  44.971   8.232
  925POPC   C3B14829  32.690  44.945   7.763
  925POPC   C4B14830  32.834  44.989   7.333
  926POPC   NC314831  31.133  35.982   9.485
  926POPC   PO414832  30.603  36.223   9.811
  926POPC   GL114833  30.742  36.272   9.306
  926POPC   GL214834  30.743  35.989   9.154
  926POPC   C1A14835  30.585  36.405   8.840
  926POPC   D2A14836  30.326  36.468   8.430
  926POPC   C3A14837  30.426  36.157   8.137
  926POPC   C4A14838  30.617  36.128   7.746
  926POPC   C1B14839  30.936  36.004   8.742
  926POPC   C2B14840  30.740  35.839   8.364
  926POPC   C3B14841  30.562  35.659   7.983
  926POPC   C4B14842  30.678  35.638   7.532
  927POPC   NC314843  40.048  37.891   9.636
  927POPC   PO414844  39.793  37.319   9.592
  927POPC   GL114845  39.934  37.554   9.222
  927POPC   GL214846  40.161  37.825   9.163
  927POPC   C1A14847  39.784  37.787   8.834
  927POPC   D2A14848  39.919  37.656   8.426
  927POPC   C3A14849  39.773  37.845   8.053
  927POPC   C4A14850  39.951  37.692   7.673
  927POPC   C1B14851  40.296  37.701   8.798
  927POPC   C2B14852  40.456  37.742   8.416
  927POPC   C3B14853  40.295  37.690   8.051
  927POPC   C4B14854  40.433  37.839   7.688
  928POPC   NC314855  34.659  19.310   9.531
  928POPC   PO414856  34.457  18.757   9.129
  928POPC   GL114857  34.487  19.220   9.036
  928POPC   GL214858  34.845  19.450   9.089
  928POPC   C1A14859  34.378  19.221   8.582
  928POPC   D2A14860  34.347  18.799   8.391
  928POPC   C3A14861  34.527  18.802   7.988
  928POPC   C4A14862  34.442  19.056   7.648
  928POPC   C1B14863  34.875  19.250   8.719
  928POPC   C2B14864  34.838  19.025   8.379
  928POPC   C3B14865  34.685  19.279   8.087
  928POPC   C4B14866  34.882  19.263   7.718
  929POPC   NC314867  35.572  41.763   9.352
  929POPC   PO414868  34.944  41.686   9.494
  929POPC   GL114869  35.010  41.503   9.129
  929POPC   GL214870  35.323  41.337   9.096
  929POPC   C1A14871  34.948  41.425   8.723
  929POPC   D2A14872  35.213  41.346   8.377
  929POPC   C3A14873  35.138  41.518   7.991
  929POPC   C4A14874  35.403  41.518   7.665
  929POPC   C1B14875  35.617  41.348   8.741
  929POPC   C2B14876  35.648  41.649   8.436
  929POPC   C3B14877  35.633  41.807   8.043
  929POPC   C4B14878  35.680  42.065   7.714
  930POPC   NC314879   0.519  17.430   9.661
  930POPC   PO414880  44.910  17.522   9.658
  930POPC   GL114881   0.220  17.546   9.256
  930POPC   GL214882   0.595  17.471   9.178
  930POPC   C1A14883   0.346  17.684   8.805
  930POPC   D2A14884   0.605  17.667   8.439
  930POPC   C3A14885   0.455  17.564   8.076
  930POPC   C4A14886   0.289  17.733   7.737
  930POPC   C1B14887   0.807  17.404   8.825
  930POPC   C2B14888   0.830  17.183   8.467
  930POPC   C3B14889   0.815  17.037   8.053
  930POPC   C4B14890   0.587  17.243   7.709
  931POPC   NC314891  18.413  18.907   9.748
  931POPC   PO414892  18.200  19.536   9.814
  931POPC   GL114893  18.380  19.265   9.379
  931POPC   GL214894  18.279  18.881   9.266
  931POPC   C1A14895  18.410  19.207   8.904
  931POPC   D2A14896  18.178  19.177   8.503
  931POPC   C3A14897  18.277  19.374   8.115
  931POPC   C4A14898  18.481  19.265   7.739
  931POPC   C1B14899  18.507  18.702   8.895
  931POPC   C2B14900  18.591  18.859   8.480
  931POPC   C3B14901  18.385  18.881   8.103
  931POPC   C4B14902  18.398  18.752   7.696
  932POPC   NC314903  15.496  14.199   9.827
  932POPC   PO414904  16.115  14.282   9.523
  932POPC   GL114905  16.178  14.564   9.163
  932POPC   GL214906  16.025  14.266   9.003
  932POPC   C1A14907  16.052  14.690   8.745
  932POPC   D2A14908  16.284  14.505   8.388
  932POPC   C3A14909  16.099  14.413   8.004
  932POPC   C4A14910  15.994  14.255   7.587
  932POPC   C1B14911  15.820  14.057   8.679
  932POPC   C2B14912  15.987  14.047   8.329
  932POPC   C3B14913  15.932  13.890   7.966
  932POPC   C4B14914  15.653  13.894   7.668
  933POPC   NC314915  38.350  13.871   9.603
  933POPC   PO414916  38.564  14.540   9.540
  933POPC   GL114917  38.595  14.436   9.140
  933POPC   GL214918  38.277  14.455   9.097
  933POPC   C1A14919  38.737  14.495   8.745
  933POPC   D2A14920  38.512  14.384   8.371
  933POPC   C3A14921  38.666  14.419   7.973
  933POPC   C4A14922  38.498  14.274   7.597
  933POPC   C1B14923  38.259  14.660   8.738
  933POPC   C2B14924  38.050  14.630   8.392
  933POPC   C3B14925  38.177  14.591   7.972
  933POPC   C4B14926  37.872  14.528   7.685
  934POPC   NC314927   5.927  17.361   9.964
  934POPC   PO414928   5.833  17.801   9.548
  934POPC   GL114929   5.814  17.569   9.133
  934POPC   GL214930   5.638  17.242   9.047
  934POPC   C1A14931   6.012  17.436   8.765
  934POPC   D2A14932   5.972  17.283   8.367
  934POPC   C3A14933   5.846  17.644   8.188
  934POPC   C4A14934   5.958  17.683   7.799
  934POPC   C1B14935   5.495  17.435   8.653
  934POPC   C2B14936   5.456  17.216   8.247
  934POPC   C3B14937   5.606  17.313   7.859
  934POPC   C4B14938   5.535  17.679   7.567
  935POPC   NC314939  20.262  19.989   9.529
  935POPC   PO414940  19.557  19.766   9.528
  935POPC   GL114941  19.640  19.671   9.138
  935POPC   GL214942  19.924  19.909   9.134
  935POPC   C1A14943  19.687  19.725   8.706
  935POPC   D2A14944  19.825  19.503   8.328
  935POPC   C3A14945  19.644  19.708   8.003
  935POPC   C4A14946  19.401  19.651   7.628
  935POPC   C1B14947  19.897  20.229   8.792
  935POPC   C2B14948  19.656  20.398   8.415
  935POPC   C3B14949  19.653  20.255   8.000
  935POPC   C4B14950  19.887  20.037   7.699
  936POPC   NC314951   6.825   4.517   9.702
  936POPC   PO414952   6.302   4.021   9.701
  936POPC   GL114953   6.442   4.265   9.321
  936POPC   GL214954   6.799   4.364   9.209
  936POPC   C1A14955   6.443   4.297   8.848
  936POPC   D2A14956   6.709   4.357   8.476
  936POPC   C3A14957   6.496   4.247   8.086
  936POPC   C4A14958   6.322   4.089   7.728
  936POPC   C1B14959   7.000   4.600   8.840
  936POPC   C2B14960   6.956   4.797   8.395
  936POPC   C3B14961   6.914   4.516   8.005
  936POPC   C4B14962   6.837   4.250   7.613
  937POPC   NC314963  27.834  24.199   9.482
  937POPC   PO414964  27.336  24.602   9.413
  937POPC   GL114965  27.457  24.252   9.147
  937POPC   GL214966  27.128  24.159   9.131
  937POPC   C1A14967  27.748  24.276   8.774
  937POPC   D2A14968  27.820  24.668   8.499
  937POPC   C3A14969  27.765  24.655   8.041
  937POPC   C4A14970  27.729  24.861   7.634
  937POPC   C1B14971  27.246  24.439   8.739
  937POPC   C2B14972  27.454  24.341   8.335
  937POPC   C3B14973  27.401  24.302   7.884
  937POPC   C4B14974  27.332  24.571   7.496
  938POPC   NC314975  31.251  24.444   9.480
  938POPC   PO414976  31.777  24.783   9.621
  938POPC   GL114977  31.671  24.559   9.202
  938POPC   GL214978  31.885  24.266   9.101
  938POPC   C1A14979  31.443  24.497   8.793
  938POPC   D2A14980  31.569  24.375   8.354
  938POPC   C3A14981  31.355  24.422   7.959
  938POPC   C4A14982  31.064  24.673   7.810
  938POPC   C1B14983  31.967  24.400   8.696
  938POPC   C2B14984  32.072  24.254   8.275
  938POPC   C3B14985  31.811  24.198   7.921
  938POPC   C4B14986  31.685  24.342   7.474
  939POPC   NC314987  22.688   0.059   9.532
  939POPC   PO414988  23.162   0.610   9.443
  939POPC   GL114989  22.867   0.416   9.207
  939POPC   GL214990  23.011   0.123   9.154
  939POPC   C1A14991  22.800   0.445   8.773
  939POPC   D2A14992  22.857   0.608   8.367
  939POPC   C3A14993  22.732   0.322   8.068
  939POPC   C4A14994  22.848   0.347   7.652
  939POPC   C1B14995  22.930  44.957   8.780
  939POPC   C2B14996  23.036   0.083   8.401
  939POPC   C3B14997  23.220   0.081   8.001
  939POPC   C4B14998  23.052  44.896   7.652
  940POPC   NC314999  16.036  35.600   9.434
  940POPC   PO415000  15.855  34.969   9.745
  940POPC   GL115001  15.940  35.140   9.222
  940POPC   GL215002  15.829  35.419   8.992
  940POPC   C1A15003  15.892  34.980   8.777
  940POPC   D2A15004  15.901  35.305   8.436
  940POPC   C3A15005  15.846  35.186   8.004
  940POPC   C4A15006  15.459  35.157   7.763
  940POPC   C1B15007  16.209  35.570   8.810
  940POPC   C2B15008  16.291  35.754   8.409
  940POPC   C3B15009  16.233  35.588   8.016
  940POPC   C4B15010  16.030  35.639   7.634
  941POPC   NC315011  31.786  41.758   9.427
  941POPC   PO415012  31.493  41.205   9.639
  941POPC   GL115013  31.414  41.465   9.230
  941POPC   GL215014  31.093  41.418   9.127
  941POPC   C1A15015  31.519  41.752   8.833
  941POPC   D2A15016  31.652  41.565   8.420
  941POPC   C3A15017  31.556  41.736   8.016
  941POPC   C4A15018  31.691  41.830   7.591
  941POPC   C1B15019  31.228  41.365   8.696
  941POPC   C2B15020  31.111  41.279   8.284
  941POPC   C3B15021  31.308  41.234   7.917
  941POPC   C4B15022  31.268  41.533   7.634
  942POPC   NC315023  38.592  44.732   9.712
  942POPC   PO415024  38.193   0.172   9.404
  942POPC   GL115025  38.236  44.788   9.198
  942POPC   GL215026  38.563  44.635   9.177
  942POPC   C1A15027  38.220  44.673   8.766
  942POPC   D2A15028  38.240  44.488   8.353
  942POPC   C3A15029  38.174  44.762   8.009
  942POPC   C4A15030  38.236  44.809   7.593
  942POPC   C1B15031  38.715  44.809   8.751
  942POPC   C2B15032  38.735  44.614   8.319
  942POPC   C3B15033  38.601  44.499   7.886
  942POPC   C4B15034  38.736  44.675   7.499
  943POPC   NC315035  40.074   9.229   9.567
  943POPC   PO415036  39.814   8.547   9.557
  943POPC   GL115037  40.075   8.721   9.210
  943POPC   GL215038  39.988   9.057   9.104
  943POPC   C1A15039  40.189   8.739   8.756
  943POPC   D2A15040  40.128   8.958   8.355
  943POPC   C3A15041  39.871   8.763   8.056
  943POPC   C4A15042  39.927   8.818   7.608
  943POPC   C1B15043  40.014   9.284   8.736
  943POPC   C2B15044  39.844   9.442   8.343
  943POPC   C3B15045  39.919   9.247   7.940
  943POPC   C4B15046  39.969   9.325   7.482
  944POPC   NC315047   1.520   6.336   9.496
  944POPC   PO415048   0.903   6.660   9.494
  944POPC   GL115049   1.068   6.750   9.100
  944POPC   GL215050   1.405   6.756   9.097
  944POPC   C1A15051   0.992   6.700   8.680
  944POPC   D2A15052   1.228   6.776   8.311
  944POPC   C3A15053   1.230   6.414   8.020
  944POPC   C4A15054   1.015   6.432   7.627
  944POPC   C1B15055   1.512   6.522   8.787
  944POPC   C2B15056   1.599   6.428   8.393
  944POPC   C3B15057   1.750   6.452   7.991
  944POPC   C4B15058   1.540   6.369   7.589
  945POPC   NC315059  43.425  20.992   9.803
  945POPC   PO415060  43.053  21.559   9.608
  945POPC   GL115061  42.995  21.578   9.175
  945POPC   GL215062  43.001  21.214   9.160
  945POPC   C1A15063  43.203  21.509   8.763
  945POPC   D2A15064  43.113  21.248   8.408
  945POPC   C3A15065  43.155  21.511   8.072
  945POPC   C4A15066  43.356  21.440   7.716
  945POPC   C1B15067  42.708  21.307   8.814
  945POPC   C2B15068  42.593  21.177   8.392
  945POPC   C3B15069  42.784  21.133   7.973
  945POPC   C4B15070  42.871  21.394   7.599
  946POPC   NC315071  44.650   7.921   9.544
  946POPC   PO415072  44.323   8.477   9.675
  946POPC   GL115073  44.309   8.265   9.227
  946POPC   GL215074  44.528   8.017   9.073
  946POPC   C1A15075  44.394   8.364   8.747
  946POPC   D2A15076  44.547   8.245   8.311
  946POPC   C3A15077  44.478   8.371   7.875
  946POPC   C4A15078  44.531   8.076   7.565
  946POPC   C1B15079  44.803   8.025   8.695
  946POPC   C2B15080  44.943   7.841   8.319
  946POPC   C3B15081  44.915   8.002   7.917
  946POPC   C4B15082  44.980   7.870   7.523
  947POPC   NC315083  40.256   8.320   9.533
  947POPC   PO415084  40.930   8.284   9.508
  947POPC   GL115085  40.613   8.110   9.222
  947POPC   GL215086  40.431   8.381   9.056
  947POPC   C1A15087  40.701   7.940   8.832
  947POPC   D2A15088  40.929   7.772   8.491
  947POPC   C3A15089  40.958   8.027   8.147
  947POPC   C4A15090  40.670   8.191   7.833
  947POPC   C1B15091  40.737   8.470   8.724
  947POPC   C2B15092  40.947   8.562   8.310
  947POPC   C3B15093  41.100   8.435   7.885
  947POPC   C4B15094  40.980   8.550   7.494
  948POPC   NC315095  42.859  35.625   9.591
  948POPC   PO415096  43.305  35.138   9.750
  948POPC   GL115097  43.234  35.162   9.291
  948POPC   GL215098  43.050  35.453   9.161
  948POPC   C1A15099  43.302  35.149   8.836
  948POPC   D2A15100  43.186  35.334   8.444
  948POPC   C3A15101  43.194  35.101   8.075
  948POPC   C4A15102  42.960  35.048   7.711
  948POPC   C1B15103  42.816  35.419   8.792
  948POPC   C2B15104  42.712  35.603   8.406
  948POPC   C3B15105  42.895  35.547   7.996
  948POPC   C4B15106  42.930  35.587   7.542
  949POPC   NC315107  11.038  25.074   9.741
  949POPC   PO415108  11.481  24.874   9.251
  949POPC   GL115109  11.390  25.311   9.118
  949POPC   GL215110  11.669  25.565   9.046
  949POPC   C1A15111  11.139  25.340   8.689
  949POPC   D2A15112  10.933  25.106   8.352
  949POPC   C3A15113  11.083  25.051   7.930
  949POPC   C4A15114  11.082  25.394   7.670
  949POPC   C1B15115  11.630  25.201   8.716
  949POPC   C2B15116  11.441  25.137   8.327
  949POPC   C3B15117  11.508  25.351   7.953
  949POPC   C4B15118  11.552  25.346   7.499
  950POPC   NC315119  36.170  19.694   9.426
  950POPC   PO415120  36.321  20.351   9.425
  950POPC   GL115121  36.396  20.046   9.141
  950POPC   GL215122  36.047  19.983   9.020
  950POPC   C1A15123  36.429  19.795   8.770
  950POPC   D2A15124  36.044  19.834   8.482
  950POPC   C3A15125  36.163  19.874   8.050
  950POPC   C4A15126  35.955  19.798   7.663
  950POPC   C1B15127  35.814  19.601   8.873
  950POPC   C2B15128  35.819  19.340   8.494
  950POPC   C3B15129  35.630  19.387   8.088
  950POPC   C4B15130  35.595  19.463   7.655
  951POPC   NC315131  44.759  21.961   9.503
  951POPC   PO415132  44.356  22.430   9.473
  951POPC   GL115133  44.586  22.305   9.114
  951POPC   GL215134  44.835  22.450   9.023
  951POPC   C1A15135  44.763  21.975   8.830
  951POPC   D2A15136  44.569  21.793   8.463
  951POPC   C3A15137  44.769  21.960   8.095
  951POPC   C4A15138  44.724  22.293   7.806
  951POPC   C1B15139  44.980  22.635   8.692
  951POPC   C2B15140  44.939  22.444   8.307
  951POPC   C3B15141   0.098  22.622   7.982
  951POPC   C4B15142   0.171  22.572   7.581
  952POPC   NC315143   6.586  40.982   9.511
  952POPC   PO415144   6.595  41.635   9.508
  952POPC   GL115145   6.658  41.629   9.097
  952POPC   GL215146   6.686  41.293   9.099
  952POPC   C1A15147   6.614  41.807   8.706
  952POPC   D2A15148   6.684  41.936   8.277
  952POPC   C3A15149   6.696  41.644   7.933
  952POPC   C4A15150   6.430  41.632   7.571
  952POPC   C1B15151   6.911  41.361   8.717
  952POPC   C2B15152   6.857  41.304   8.291
  952POPC   C3B15153   7.053  41.284   7.899
  952POPC   C4B15154   6.863  41.350   7.493
  953POPC   NC315155  15.684  34.449   9.694
  953POPC   PO415156  16.161  34.743   9.388
  953POPC   GL115157  16.035  34.504   9.097
  953POPC   GL215158  15.684  34.640   9.199
  953POPC   C1A15159  16.179  34.546   8.674
  953POPC   D2A15160  16.076  34.818   8.318
  953POPC   C3A15161  16.152  34.683   7.889
  953POPC   C4A15162  16.058  34.319   7.634
  953POPC   C1B15163  15.628  34.508   8.776
  953POPC   C2B15164  15.545  34.723   8.401
  953POPC   C3B15165  15.641  34.701   7.958
  953POPC   C4B15166  15.779  34.798   7.529
  954POPC   NC315167  28.558  16.208   9.495
  954POPC   PO415168  28.229  15.597   9.466
  954POPC   GL115169  28.444  15.827   9.161
  954POPC   GL215170  28.238  16.164   9.107
  954POPC   C1A15171  28.429  15.877   8.739
  954POPC   D2A15172  28.476  16.100   8.353
  954POPC   C3A15173  28.460  15.762   8.034
  954POPC   C4A15174  28.451  15.530   7.635
  954POPC   C1B15175  28.031  16.282   8.706
  954POPC   C2B15176  28.002  16.245   8.250
  954POPC   C3B15177  28.302  16.238   7.874
  954POPC   C4B15178  28.216  16.237   7.408
  955POPC   NC315179  36.549  26.255   9.655
  955POPC   PO415180  35.920  25.930   9.675
  955POPC   GL115181  35.865  26.015   9.245
  955POPC   GL215182  36.186  26.166   9.244
  955POPC   C1A15183  35.939  26.062   8.828
  955POPC   D2A15184  36.186  25.958   8.489
  955POPC   C3A15185  36.054  26.045   8.061
  955POPC   C4A15186  35.909  25.712   7.817
  955POPC   C1B15187  36.378  26.334   8.797
  955POPC   C2B15188  36.572  26.332   8.396
  955POPC   C3B15189  36.454  26.578   8.060
  955POPC   C4B15190  36.247  26.423   7.746
  956POPC   NC315191  40.468  15.607   9.463
  956POPC   PO415192  40.992  16.098   9.525
  956POPC   GL115193  40.840  15.834   9.200
  956POPC   GL215194  40.532  16.009   9.140
  956POPC   C1A15195  41.027  15.719   8.805
  956POPC   D2A15196  41.086  15.983   8.441
  956POPC   C3A15197  41.085  15.792   8.042
  956POPC   C4A15198  41.037  15.908   7.648
  956POPC   C1B15199  40.539  15.833   8.739
  956POPC   C2B15200  40.706  15.632   8.380
  956POPC   C3B15201  40.554  15.770   7.986
  956POPC   C4B15202  40.558  15.789   7.553
  957POPC   NC315203  20.183   6.933   9.610
  957POPC   PO415204  20.825   6.762   9.594
  957POPC   GL115205  20.795   6.699   9.173
  957POPC   GL215206  20.450   6.677   9.184
  957POPC   C1A15207  20.865   6.764   8.756
  957POPC   D2A15208  20.801   6.490   8.419
  957POPC   C3A15209  20.741   6.742   8.079
  957POPC   C4A15210  20.645   6.690   7.693
  957POPC   C1B15211  20.421   6.510   8.791
  957POPC   C2B15212  20.318   6.704   8.384
  957POPC   C3B15213  20.216   6.826   7.945
  957POPC   C4B15214  20.146   6.586   7.546
  958POPC   NC315215  39.407  39.617   9.427
  958POPC   PO415216  39.264  39.073   9.735
  958POPC   GL115217  39.186  39.186   9.201
  958POPC   GL215218  38.850  39.141   9.106
  958POPC   C1A15219  39.357  39.322   8.794
  958POPC   D2A15220  39.330  39.159   8.385
  958POPC   C3A15221  39.405  39.381   8.049
  958POPC   C4A15222  39.396  39.590   7.635
  958POPC   C1B15223  38.975  38.942   8.738
  958POPC   C2B15224  39.120  38.705   8.396
  958POPC   C3B15225  38.968  38.906   8.055
  958POPC   C4B15226  39.183  39.071   7.733
  959POPC   NC315227  35.665  42.577   9.569
  959POPC   PO415228  34.983  42.657   9.534
  959POPC   GL115229  35.299  42.440   9.242
  959POPC   GL215230  35.191  42.075   9.206
  959POPC   C1A15231  35.501  42.341   8.838
  959POPC   D2A15232  35.432  42.586   8.466
  959POPC   C3A15233  35.481  42.434   8.057
  959POPC   C4A15234  35.498  42.570   7.621
  959POPC   C1B15235  35.223  41.873   8.790
  959POPC   C2B15236  35.319  42.045   8.376
  959POPC   C3B15237  35.192  42.025   7.917
  959POPC   C4B15238  35.207  41.952   7.474
  960POPC   NC315239  35.304  25.434   9.682
  960POPC   PO415240  35.791  24.980   9.537
  960POPC   GL115241  35.492  25.071   9.250
  960POPC   GL215242  35.530  25.393   9.073
  960POPC   C1A15243  35.404  24.944   8.835
  960POPC   D2A15244  35.307  25.238   8.539
  960POPC   C3A15245  35.416  25.090   8.155
  960POPC   C4A15246  35.063  25.200   7.880
  960POPC   C1B15247  35.577  25.680   8.714
  960POPC   C2B15248  35.583  25.597   8.248
  960POPC   C3B15249  35.476  25.477   7.824
  960POPC   C4B15250  35.592  25.605   7.368
  961POPC   NC315251  33.164   7.724   9.544
  961POPC   PO415252  32.899   7.132   9.559
  961POPC   GL115253  32.942   7.340   9.195
  961POPC   GL215254  32.815   7.688   9.202
  961POPC   C1A15255  33.133   7.227   8.816
  961POPC   D2A15256  33.020   7.392   8.435
  961POPC   C3A15257  33.298   7.675   8.235
  961POPC   C4A15258  33.240   7.426   7.895
  961POPC   C1B15259  33.070   7.752   8.834
  961POPC   C2B15260  32.853   7.868   8.443
  961POPC   C3B15261  32.771   7.644   8.062
  961POPC   C4B15262  32.887   7.684   7.641
  962POPC   NC315263  22.665  32.027   9.551
  962POPC   PO415264  23.280  31.753   9.403
  962POPC   GL115265  23.076  32.206   9.276
  962POPC   GL215266  22.747  32.250   9.085
  962POPC   C1A15267  23.183  32.431   8.882
  962POPC   D2A15268  23.188  32.588   8.471
  962POPC   C3A15269  23.272  32.375   8.111
  962POPC   C4A15270  23.072  32.109   7.821
  962POPC   C1B15271  22.717  32.473   8.670
  962POPC   C2B15272  22.761  32.395   8.242
  962POPC   C3B15273  22.557  32.488   7.887
  962POPC   C4B15274  22.550  32.255   7.518
  963POPC   NC315275  25.330  14.651   9.460
  963POPC   PO415276  24.964  14.114   9.414
  963POPC   GL115277  25.269  14.237   9.088
  963POPC   GL215278  25.146  14.560   8.999
  963POPC   C1A15279  25.331  14.303   8.615
  963POPC   D2A15280  25.499  14.412   8.223
  963POPC   C3A15281  25.282  14.130   7.961
  963POPC   C4A15282  24.860  14.116   7.848
  963POPC   C1B15283  24.858  14.216   8.778
  963POPC   C2B15284  24.767  14.345   8.370
  963POPC   C3B15285  24.857  14.595   8.059
  963POPC   C4B15286  25.167  14.628   7.781
  964POPC   NC315287  38.062   0.805   9.791
  964POPC   PO415288  37.514   1.127   9.517
  964POPC   GL115289  37.792   1.135   9.072
  964POPC   GL215290  37.656   0.858   9.084
  964POPC   C1A15291  37.851   1.022   8.612
  964POPC   D2A15292  37.701   0.974   8.190
  964POPC   C3A15293  37.895   1.219   7.853
  964POPC   C4A15294  38.052   1.422   7.477
  964POPC   C1B15295  37.353   0.885   8.787
  964POPC   C2B15296  37.250   0.699   8.398
  964POPC   C3B15297  37.202   0.789   7.985
  964POPC   C4B15298  37.506   0.929   7.717
  965POPC   NC315299  16.951  11.164   9.608
  965POPC   PO415300  16.384  11.489   9.718
  965POPC   GL115301  16.552  11.552   9.267
  965POPC   GL215302  16.689  11.252   9.173
  965POPC   C1A15303  16.662  11.618   8.806
  965POPC   D2A15304  16.891  11.405   8.463
  965POPC   C3A15305  16.852  11.343   8.010
  965POPC   C4A15306  16.993  11.563   7.604
  965POPC   C1B15307  16.667  11.046   8.764
  965POPC   C2B15308  16.703  10.915   8.311
  965POPC   C3B15309  16.451  10.959   7.928
  965POPC   C4B15310  16.449  11.015   7.474
  966POPC   NC315311  30.223   5.370   9.423
  966POPC   PO415312  29.802   4.817   9.549
  966POPC   GL115313  29.869   4.755   9.132
  966POPC   GL215314  30.098   5.008   9.020
  966POPC   C1A15315  29.674   4.782   8.778
  966POPC   D2A15316  29.930   4.996   8.510
  966POPC   C3A15317  29.942   4.961   8.100
  966POPC   C4A15318  30.177   4.914   7.754
  966POPC   C1B15319  30.301   5.281   8.706
  966POPC   C2B15320  30.193   5.416   8.293
  966POPC   C3B15321  30.020   5.447   7.900
  966POPC   C4B15322  30.204   5.445   7.526
  967POPC   NC315323  37.194  35.143   9.519
  967POPC   PO415324  37.339  34.448   9.576
  967POPC   GL115325  37.088  34.419   9.184
  967POPC   GL215326  36.740  34.527   9.246
  967POPC   C1A15327  37.117  34.576   8.764
  967POPC   D2A15328  37.172  34.670   8.344
  967POPC   C3A15329  37.148  34.380   8.020
  967POPC   C4A15330  36.965  34.479   7.557
  967POPC   C1B15331  36.693  34.311   8.852
  967POPC   C2B15332  36.704  34.422   8.422
  967POPC   C3B15333  36.690  34.578   7.991
  967POPC   C4B15334  36.527  34.250   7.753
  968POPC   NC315335  27.143  12.073   9.650
  968POPC   PO415336  27.718  11.823   9.577
  968POPC   GL115337  27.548  12.060   9.219
  968POPC   GL215338  27.208  12.146   9.174
  968POPC   C1A15339  27.531  12.118   8.766
  968POPC   D2A15340  27.688  12.012   8.364
  968POPC   C3A15341  27.739  12.337   8.064
  968POPC   C4A15342  27.952  12.244   7.674
  968POPC   C1B15343  27.124  11.844   8.875
  968POPC   C2B15344  27.074  11.910   8.436
  968POPC   C3B15345  27.281  11.958   8.035
  968POPC   C4B15346  27.452  12.187   7.686
  969POPC   NC315347  43.276  43.806   9.504
  969POPC   PO415348  42.850  44.299   9.424
  969POPC   GL115349  42.985  43.996   9.093
  969POPC   GL215350  43.300  43.908   8.942
  969POPC   C1A15351  42.810  44.040   8.675
  969POPC   D2A15352  42.784  43.961   8.259
  969POPC   C3A15353  43.179  43.906   8.092
  969POPC   C4A15354  43.132  43.971   7.662
  969POPC   C1B15355  43.080  43.621   8.620
  969POPC   C2B15356  42.796  43.447   8.303
  969POPC   C3B15357  42.868  43.564   7.870
  969POPC   C4B15358  43.122  43.399   7.548
  970POPC   NC315359  36.941   9.254   9.530
  970POPC   PO415360  36.578   8.704   9.464
  970POPC   GL115361  36.819   8.918   9.176
  970POPC   GL215362  36.593   9.180   9.138
  970POPC   C1A15363  37.103   9.075   8.861
  970POPC   D2A15364  37.157   9.224   8.447
  970POPC   C3A15365  37.043   8.997   8.069
  970POPC   C4A15366  37.140   9.134   7.672
  970POPC   C1B15367  36.525   8.865   8.784
  970POPC   C2B15368  36.642   9.016   8.397
  970POPC   C3B15369  36.508   8.907   7.990
  970POPC   C4B15370  36.666   8.847   7.596
  971POPC   NC315371  32.596  11.752   9.456
  971POPC   PO415372  32.101  12.218   9.581
  971POPC   GL115373  32.246  12.121   9.135
  971POPC   GL215374  32.361  11.752   9.009
  971POPC   C1A15375  32.306  12.139   8.674
  971POPC   D2A15376  32.062  11.933   8.402
  971POPC   C3A15377  32.177  11.743   8.026
  971POPC   C4A15378  32.064  11.978   7.681
  971POPC   C1B15379  32.754  11.894   8.763
  971POPC   C2B15380  32.749  12.097   8.381
  971POPC   C3B15381  32.446  12.183   8.096
  971POPC   C4B15382  32.546  11.957   7.753
  972POPC   NC315383  42.866  18.511   9.522
  972POPC   PO415384  43.186  17.885   9.515
  972POPC   GL115385  43.155  18.241   9.213
  972POPC   GL215386  43.347  18.532   9.311
  972POPC   C1A15387  43.055  18.234   8.789
  972POPC   D2A15388  43.097  17.871   8.525
  972POPC   C3A15389  43.002  18.017   8.129
  972POPC   C4A15390  43.310  18.056   7.826
  972POPC   C1B15391  43.429  18.672   8.914
  972POPC   C2B15392  43.380  18.710   8.497
  972POPC   C3B15393  43.276  18.482   8.128
  972POPC   C4B15394  43.103  18.508   7.766
  973POPC   NC315395  28.725  44.191   9.487
  973POPC   PO415396  29.363  43.819   9.479
  973POPC   GL115397  29.020  43.900   9.177
  973POPC   GL215398  28.826  43.626   9.024
  973POPC   C1A15399  29.009  44.114   8.803
  973POPC   D2A15400  28.935  44.112   8.373
  973POPC   C3A15401  29.262  44.051   8.089
  973POPC   C4A15402  28.994  43.987   7.744
  973POPC   C1B15403  29.182  43.596   8.774
  973POPC   C2B15404  29.312  43.609   8.365
  973POPC   C3B15405  29.094  43.554   8.004
  973POPC   C4B15406  29.224  43.548   7.581
  974POPC   NC315407  18.646   0.047   9.570
  974POPC   PO415408  18.115  44.547   9.604
  974POPC   GL115409  18.069  44.635   9.212
  974POPC   GL215410  18.438  44.671   9.223
  974POPC   C1A15411  18.043  44.624   8.795
  974POPC   D2A15412  18.288  44.575   8.425
  974POPC   C3A15413  18.071  44.617   8.043
  974POPC   C4A15414  18.112  44.892   7.733
  974POPC   C1B15415  18.523  44.804   8.827
  974POPC   C2B15416  18.669  44.924   8.444
  974POPC   C3B15417  18.538  44.849   8.023
  974POPC   C4B15418  18.676  44.528   7.770
  975POPC   NC315419  39.952  43.751   9.597
  975POPC   PO415420  39.886  44.390   9.377
  975POPC   GL115421  39.948  44.014   9.136
  975POPC   GL215422  39.949  43.632   9.106
  975POPC   C1A15423  39.847  44.067   8.726
  975POPC   D2A15424  40.117  44.228   8.432
  975POPC   C3A15425  39.973  44.142   8.043
  975POPC   C4A15426  40.064  44.045   7.626
  975POPC   C1B15427  40.047  43.474   8.721
  975POPC   C2B15428  40.101  43.685   8.352
  975POPC   C3B15429  39.943  43.628   7.945
  975POPC   C4B15430  40.085  43.347   7.627
  976POPC   NC315431   7.895  42.931   9.438
  976POPC   PO415432   8.529  42.709   9.383
  976POPC   GL115433   8.278  42.912   9.102
  976POPC   GL215434   8.236  43.266   9.076
  976POPC   C1A15435   8.273  42.900   8.695
  976POPC   D2A15436   8.389  43.080   8.342
  976POPC   C3A15437   8.297  42.905   7.986
  976POPC   C4A15438   8.252  43.061   7.601
  976POPC   C1B15439   7.991  43.348   8.697
  976POPC   C2B15440   7.873  43.610   8.373
  976POPC   C3B15441   8.012  43.385   8.032
  976POPC   C4B15442   7.841  43.403   7.656
  977POPC   NC315443  29.258  10.941   9.899
  977POPC   PO415444  29.125  11.429   9.480
  977POPC   GL115445  29.074  11.509   9.105
  977POPC   GL215446  29.342  11.733   9.106
  977POPC   C1A15447  28.933  11.297   8.742
  977POPC   D2A15448  29.124  11.234   8.325
  977POPC   C3A15449  28.856  11.154   7.975
  977POPC   C4A15450  29.006  11.148   7.577
  977POPC   C1B15451  29.407  11.514   8.710
  977POPC   C2B15452  29.344  11.697   8.318
  977POPC   C3B15453  29.014  11.663   8.009
  977POPC   C4B15454  29.096  11.696   7.618
  978POPC   NC315455  18.882  34.951   9.558
  978POPC   PO415456  19.135  34.303   9.629
  978POPC   GL115457  19.101  34.353   9.204
  978POPC   GL215458  18.756  34.235   9.192
  978POPC   C1A15459  19.203  34.675   8.853
  978POPC   D2A15460  19.156  34.951   8.469
  978POPC   C3A15461  19.094  34.731   8.069
  978POPC   C4A15462  18.720  34.744   7.780
  978POPC   C1B15463  18.928  34.224   8.755
  978POPC   C2B15464  19.311  34.265   8.527
  978POPC   C3B15465  19.140  34.172   8.141
  978POPC   C4B15466  19.008  34.335   7.750
  979POPC   NC315467  20.880  41.523   9.268
  979POPC   PO415468  20.399  41.465   9.713
  979POPC   GL115469  20.401  41.377   9.236
  979POPC   GL215470  20.428  41.710   9.077
  979POPC   C1A15471  20.591  41.291   8.783
  979POPC   D2A15472  20.592  41.508   8.417
  979POPC   C3A15473  20.754  41.283   8.116
  979POPC   C4A15474  20.773  41.489   7.788
  979POPC   C1B15475  20.751  41.870   8.750
  979POPC   C2B15476  20.884  41.938   8.319
  979POPC   C3B15477  20.549  41.884   8.002
  979POPC   C4B15478  20.307  41.718   7.601
  980POPC   NC315479  35.283   9.955   9.546
  980POPC   PO415480  34.957   9.399   9.303
  980POPC   GL115481  35.288   9.415   9.023
  980POPC   GL215482  35.480   9.676   9.160
  980POPC   C1A15483  35.261   9.565   8.608
  980POPC   D2A15484  35.146   9.660   8.169
  980POPC   C3A15485  35.134   9.451   7.789
  980POPC   C4A15486  35.426   9.412   7.489
  980POPC   C1B15487  35.330  10.021   8.881
  980POPC   C2B15488  35.154  10.075   8.482
  980POPC   C3B15489  35.100  10.190   8.060
  980POPC   C4B15490  35.249   9.962   7.723
  981POPC   NC315491  36.334   0.999   9.560
  981POPC   PO415492  35.934   1.512   9.440
  981POPC   GL115493  36.062   1.193   9.143
  981POPC   GL215494  36.461   1.144   9.098
  981POPC   C1A15495  35.969   1.263   8.717
  981POPC   D2A15496  35.698   1.242   8.348
  981POPC   C3A15497  35.843   1.375   7.932
  981POPC   C4A15498  35.870   1.283   7.480
  981POPC   C1B15499  36.304   0.861   8.803
  981POPC   C2B15500  36.304   1.053   8.403
  981POPC   C3B15501  36.348   1.318   8.060
  981POPC   C4B15502  36.221   1.052   7.760
  982POPC   NC315503  15.917  36.211   9.562
  982POPC   PO415504  15.566  35.547   9.395
  982POPC   GL115505  15.759  35.934   9.138
  982POPC   GL215506  15.803  36.317   9.102
  982POPC   C1A15507  16.011  36.038   8.752
  982POPC   D2A15508  16.069  36.254   8.387
  982POPC   C3A15509  15.996  36.055   8.016
  982POPC   C4A15510  16.330  36.018   7.720
  982POPC   C1B15511  15.736  36.547   8.733
  982POPC   C2B15512  15.816  36.681   8.288
  982POPC   C3B15513  15.811  36.599   7.846
  982POPC   C4B15514  15.731  36.718   7.375
  983POPC   NC315515  39.358  40.375   9.811
  983POPC   PO415516  39.208  40.970   9.605
  983POPC   GL115517  39.144  40.797   9.173
  983POPC   GL215518  39.459  40.697   9.097
  983POPC   C1A15519  39.066  40.747   8.705
  983POPC   D2A15520  38.973  40.984   8.310
  983POPC   C3A15521  39.033  40.838   7.857
  983POPC   C4A15522  39.340  40.776   7.503
  983POPC   C1B15523  39.550  40.821   8.675
  983POPC   C2B15524  39.457  40.820   8.255
  983POPC   C3B15525  39.670  40.834   7.885
  983POPC   C4B15526  39.659  41.152   7.554
  984POPC   NC315527   4.733  29.047   9.608
  984POPC   PO415528   5.388  29.149   9.492
  984POPC   GL115529   5.127  29.162   9.141
  984POPC   GL215530   4.959  28.839   9.189
  984POPC   C1A15531   5.243  29.237   8.706
  984POPC   D2A15532   5.215  29.460   8.324
  984POPC   C3A15533   4.924  29.370   8.021
  984POPC   C4A15534   5.209  29.112   7.798
  984POPC   C1B15535   4.827  28.928   8.773
  984POPC   C2B15536   4.996  28.959   8.345
  984POPC   C3B15537   4.778  28.879   7.974
  984POPC   C4B15538   4.908  28.721   7.601
  985POPC   NC315539  16.193   0.201   9.891
  985POPC   PO415540  16.010   0.751   9.513
  985POPC   GL115541  16.095   0.659   9.124
  985POPC   GL215542  16.328   0.916   9.131
  985POPC   C1A15543  16.010   0.353   8.773
  985POPC   D2A15544  15.694   0.271   8.507
  985POPC   C3A15545  15.840   0.337   8.089
  985POPC   C4A15546  15.604   0.347   7.728
  985POPC   C1B15547  16.192   0.922   8.706
  985POPC   C2B15548  16.145   0.690   8.356
  985POPC   C3B15549  16.164   0.828   7.940
  985POPC   C4B15550  16.086   0.617   7.598
  986POPC   NC315551  33.129  16.296   9.436
  986POPC   PO415552  32.896  16.917   9.510
  986POPC   GL115553  32.943  16.687   9.144
  986POPC   GL215554  32.693  16.432   9.237
  986POPC   C1A15555  33.220  16.502   8.814
  986POPC   D2A15556  33.414  16.738   8.487
  986POPC   C3A15557  33.272  16.610   8.095
  986POPC   C4A15558  33.098  16.790   7.732
  986POPC   C1B15559  32.707  16.378   8.802
  986POPC   C2B15560  32.898  16.447   8.423
  986POPC   C3B15561  32.764  16.625   8.084
  986POPC   C4B15562  32.599  16.610   7.695
  987POPC   NC315563   0.686  22.968   9.383
  987POPC   PO415564   0.025  23.139   9.449
  987POPC   GL115565   0.262  23.111   9.114
  987POPC   GL215566   0.230  22.767   9.133
  987POPC   C1A15567   0.446  23.152   8.713
  987POPC   D2A15568   0.247  22.943   8.370
  987POPC   C3A15569   0.509  22.979   8.036
  987POPC   C4A15570   0.559  22.922   7.625
  987POPC   C1B15571   0.485  22.644   8.781
  987POPC   C2B15572   0.696  22.681   8.402
  987POPC   C3B15573   0.607  22.481   7.991
  987POPC   C4B15574   0.677  22.452   7.527
  988POPC   NC315575  23.180  26.725   9.948
  988POPC   PO415576  22.687  27.011   9.627
  988POPC   GL115577  22.804  26.743   9.322
  988POPC   GL215578  23.140  26.648   9.426
  988POPC   C1A15579  22.717  26.832   8.893
  988POPC   D2A15580  22.791  26.988   8.500
  988POPC   C3A15581  22.666  26.723   8.159
  988POPC   C4A15582  22.811  26.706   7.753
  988POPC   C1B15583  23.191  26.642   8.961
  988POPC   C2B15584  23.070  26.564   8.514
  988POPC   C3B15585  23.218  26.717   8.098
  988POPC   C4B15586  23.306  26.523   7.682
  989POPC   NC315587  28.508   2.292   9.541
  989POPC   PO415588  28.488   1.635   9.676
  989POPC   GL115589  28.455   1.902   9.235
  989POPC   GL215590  28.155   2.100   9.225
  989POPC   C1A15591  28.605   1.949   8.794
  989POPC   D2A15592  28.571   1.754   8.370
  989POPC   C3A15593  28.605   2.024   8.046
  989POPC   C4A15594  28.403   2.059   7.674
  989POPC   C1B15595  28.331   2.358   8.898
  989POPC   C2B15596  28.365   2.287   8.448
  989POPC   C3B15597  28.112   2.213   8.111
  989POPC   C4B15598  27.961   2.449   7.763
  990POPC   NC315599  41.572  10.104   9.539
  990POPC   PO415600  41.296   9.359   9.501
  990POPC   GL115601  41.589   9.597   9.194
  990POPC   GL215602  41.430   9.912   9.109
  990POPC   C1A15603  41.730   9.703   8.747
  990POPC   D2A15604  41.607   9.854   8.357
  990POPC   C3A15605  41.650   9.537   8.000
  990POPC   C4A15606  41.636   9.695   7.575
  990POPC   C1B15607  41.230   9.799   8.756
  990POPC   C2B15608  41.108   9.935   8.371
  990POPC   C3B15609  41.250   9.850   7.995
  990POPC   C4B15610  41.127   9.895   7.641
  991POPC   NC315611  26.344  22.239   9.483
  991POPC   PO415612  25.760  22.057   9.672
  991POPC   GL115613  25.921  21.981   9.233
  991POPC   GL215614  26.220  22.049   9.056
  991POPC   C1A15615  25.859  21.892   8.779
  991POPC   D2A15616  26.097  22.024   8.401
  991POPC   C3A15617  25.948  22.184   8.020
  991POPC   C4A15618  26.081  22.408   7.648
  991POPC   C1B15619  26.464  22.164   8.725
  991POPC   C2B15620  26.651  22.058   8.395
  991POPC   C3B15621  26.479  22.103   8.050
  991POPC   C4B15622  26.425  22.071   7.669
  992POPC   NC315623   3.897  36.813   9.550
  992POPC   PO415624   4.462  37.188   9.484
  992POPC   GL115625   4.275  36.988   9.161
  992POPC   GL215626   4.166  36.643   9.156
  992POPC   C1A15627   4.190  37.111   8.751
  992POPC   D2A15628   4.151  37.283   8.369
  992POPC   C3A15629   4.103  37.077   7.982
  992POPC   C4A15630   4.281  37.104   7.610
  992POPC   C1B15631   4.405  36.657   8.790
  992POPC   C2B15632   4.338  36.747   8.384
  992POPC   C3B15633   4.483  36.727   8.002
  992POPC   C4B15634   4.203  36.614   7.680
  993POPC   NC315635  28.811  40.809   9.481
  993POPC   PO415636  29.461  40.970   9.433
  993POPC   GL115637  29.212  40.894   9.035
  993POPC   GL215638  29.058  40.609   8.992
  993POPC   C1A15639  29.155  40.826   8.556
  993POPC   D2A15640  29.346  40.583   8.215
  993POPC   C3A15641  29.223  40.831   7.877
  993POPC   C4A15642  28.950  41.157   7.853
  993POPC   C1B15643  29.324  40.386   8.711
  993POPC   C2B15644  29.067  40.176   8.440
  993POPC   C3B15645  28.918  40.304   8.064
  993POPC   C4B15646  29.074  40.386   7.686
  994POPC   NC315647  44.361  25.186   9.589
  994POPC   PO415648  43.699  25.088   9.390
  994POPC   GL115649  43.802  25.180   8.987
  994POPC   GL215650  44.139  25.179   9.113
  994POPC   C1A15651  43.979  25.195   8.573
  994POPC   D2A15652  44.124  24.879   8.255
  994POPC   C3A15653  44.126  25.090   7.862
  994POPC   C4A15654  43.813  25.365   7.821
  994POPC   C1B15655  44.153  25.602   8.938
  994POPC   C2B15656  44.222  25.681   8.519
  994POPC   C3B15657  44.206  25.512   8.127
  994POPC   C4B15658  44.185  25.702   7.709
  995POPC   NC315659  43.267  14.203   9.495
  995POPC   PO415660  42.936  14.648   9.750
  995POPC   GL115661  43.004  14.511   9.207
  995POPC   GL215662  43.321  14.634   9.070
  995POPC   C1A15663  43.108  14.352   8.731
  995POPC   D2A15664  43.370  14.353   8.323
  995POPC   C3A15665  43.137  14.323   7.890
  995POPC   C4A15666  42.902  14.588   7.599
  995POPC   C1B15667  43.426  14.895   8.708
  995POPC   C2B15668  43.332  14.881   8.248
  995POPC   C3B15669  43.446  14.725   7.819
  995POPC   C4B15670  43.586  14.316   7.598
  996POPC   NC315671  28.412  10.853   9.373
  996POPC   PO415672  28.326  11.434   9.589
  996POPC   GL115673  28.403  11.332   9.170
  996POPC   GL215674  28.104  11.161   9.128
  996POPC   C1A15675  28.425  11.441   8.731
  996POPC   D2A15676  28.653  11.454   8.348
  996POPC   C3A15677  28.417  11.470   7.981
  996POPC   C4A15678  28.634  11.519   7.635
  996POPC   C1B15679  28.286  10.958   8.739
  996POPC   C2B15680  28.256  11.109   8.312
  996POPC   C3B15681  28.388  10.938   7.914
  996POPC   C4B15682  28.495  11.055   7.482
  997POPC   NC315683  35.233  17.867   9.441
  997POPC   PO415684  35.339  18.518   9.536
  997POPC   GL115685  35.217  18.317   9.162
  997POPC   GL215686  35.356  18.011   8.974
  997POPC   C1A15687  35.212  18.446   8.768
  997POPC   D2A15688  35.354  18.227   8.434
  997POPC   C3A15689  35.307  18.505   8.104
  997POPC   C4A15690  35.487  18.606   7.736
  997POPC   C1B15691  35.623  17.822   8.652
  997POPC   C2B15692  35.775  17.995   8.258
  997POPC   C3B15693  35.556  18.106   7.855
  997POPC   C4B15694  35.645  18.206   7.393
  998POPC   NC315695   7.979  13.716   9.482
  998POPC   PO415696   8.516  13.429   9.560
  998POPC   GL115697   8.323  13.514   9.178
  998POPC   GL215698   8.046  13.287   9.180
  998POPC   C1A15699   8.200  13.680   8.810
  998POPC   D2A15700   8.412  13.612   8.436
  998POPC   C3A15701   8.188  13.708   8.089
  998POPC   C4A15702   8.369  13.711   7.702
  998POPC   C1B15703   7.787  13.381   8.830
  998POPC   C2B15704   7.925  13.427   8.443
  998POPC   C3B15705   7.926  13.260   8.047
  998POPC   C4B15706   7.906  13.494   7.674
  999POPC   NC315707  36.004   4.304   9.832
  999POPC   PO415708  36.370   4.650   9.405
  999POPC   GL115709  36.206   4.518   9.077
  999POPC   GL215710  35.940   4.320   9.244
  999POPC   C1A15711  36.293   4.585   8.659
  999POPC   D2A15712  36.095   4.386   8.323
  999POPC   C3A15713  36.283   4.476   7.963
  999POPC   C4A15714  35.999   4.275   7.764
  999POPC   C1B15715  36.082   4.107   8.831
  999POPC   C2B15716  36.305   3.876   8.519
  999POPC   C3B15717  36.227   3.932   8.075
  999POPC   C4B15718  35.849   3.803   7.845
 1000POPC   NC315719  17.264  34.902   9.575
 1000POPC   PO415720  17.723  34.446   9.419
 1000POPC   GL115721  17.616  34.746   9.116
 1000POPC   GL215722  17.306  34.575   9.108
 1000POPC   C1A15723  17.516  34.698   8.657
 1000POPC   D2A15724  17.170  34.734   8.384
 1000POPC   C3A15725  17.386  34.881   8.020
 1000POPC   C4A15726  17.706  34.629   7.872
 1000POPC   C1B15727  17.332  34.241   8.772
 1000POPC   C2B15728  17.464  34.291   8.354
 1000POPC   C3B15729  17.483  34.156   7.969
 1000POPC   C4B15730  17.326  34.316   7.660
 1001POPC   NC315731  20.307  30.332   9.674
 1001POPC   PO415732  20.542  29.671   9.580
 1001POPC   GL115733  20.545  29.971   9.276
 1001POPC   GL215734  20.236  30.018   9.290
 1001POPC   C1A15735  20.662  30.067   8.853
 1001POPC   D2A15736  20.849  29.917   8.464
 1001POPC   C3A15737  20.754  30.036   8.038
 1001POPC   C4A15738  20.775  29.674   7.744
 1001POPC   C1B15739  20.169  29.863   8.918
 1001POPC   C2B15740  20.301  29.894   8.502
 1001POPC   C3B15741  20.437  29.646   8.150
 1001POPC   C4B15742  20.282  29.878   7.814
 1002POPC   NC315743  42.710  13.381   9.612
 1002POPC   PO415744  42.837  14.026   9.403
 1002POPC   GL115745  43.185  13.725   9.313
 1002POPC   GL215746  43.164  13.938   9.030
 1002POPC   C1A15747  43.351  13.489   8.953
 1002POPC   D2A15748  43.199  13.538   8.542
 1002POPC   C3A15749  43.338  13.460   8.129
 1002POPC   C4A15750  43.186  13.396   7.719
 1002POPC   C1B15751  42.875  13.906   8.691
 1002POPC   C2B15752  43.033  13.933   8.259
 1002POPC   C3B15753  42.923  13.835   7.830
 1002POPC   C4B15754  42.906  14.106   7.453
 1003POPC   NC315755   0.274  42.473   9.537
 1003POPC   PO415756   0.685  41.976   9.399
 1003POPC   GL115757   0.402  42.181   9.130
 1003POPC   GL215758   0.612  42.492   9.133
 1003POPC   C1A15759   0.167  42.119   8.748
 1003POPC   D2A15760   0.089  41.852   8.390
 1003POPC   C3A15761   0.193  42.013   8.019
 1003POPC   C4A15762   0.406  42.283   7.754
 1003POPC   C1B15763   0.600  42.397   8.702
 1003POPC   C2B15764   0.398  42.408   8.333
 1003POPC   C3B15765   0.598  42.637   8.026
 1003POPC   C4B15766   0.362  42.804   7.682
 1004POPC   NC315767  40.095   3.415   9.433
 1004POPC   PO415768  39.609   3.823   9.362
 1004POPC   GL115769  39.931   3.720   9.044
 1004POPC   GL215770  40.278   3.510   8.986
 1004POPC   C1A15771  40.051   3.805   8.656
 1004POPC   D2A15772  40.258   3.548   8.411
 1004POPC   C3A15773  39.958   3.573   8.106
 1004POPC   C4A15774  40.110   3.793   7.801
 1004POPC   C1B15775  40.055   3.212   8.758
 1004POPC   C2B15776  40.007   3.105   8.323
 1004POPC   C3B15777  40.209   3.181   7.903
 1004POPC   C4B15778  40.508   3.077   7.600
 1005POPC   NC315779  15.997  37.330   9.449
 1005POPC   PO415780  15.874  36.677   9.625
 1005POPC   GL115781  15.966  36.799   9.185
 1005POPC   GL215782  16.253  36.621   9.204
 1005POPC   C1A15783  15.990  36.981   8.737
 1005POPC   D2A15784  15.647  37.121   8.466
 1005POPC   C3A15785  15.790  37.161   8.045
 1005POPC   C4A15786  16.136  37.012   7.787
 1005POPC   C1B15787  16.239  36.531   8.786
 1005POPC   C2B15788  16.353  36.689   8.371
 1005POPC   C3B15789  16.291  36.491   7.952
 1005POPC   C4B15790  16.190  36.555   7.511
 1006POPC   NC315791   2.794  13.351   9.459
 1006POPC   PO415792   2.679  14.070   9.603
 1006POPC   GL115793   2.610  13.850   9.169
 1006POPC   GL215794   2.570  13.498   9.025
 1006POPC   C1A15795   2.497  13.962   8.778
 1006POPC   D2A15796   2.682  13.907   8.369
 1006POPC   C3A15797   2.639  13.531   8.190
 1006POPC   C4A15798   2.698  13.738   7.839
 1006POPC   C1B15799   2.915  13.639   8.723
 1006POPC   C2B15800   3.320  13.669   8.526
 1006POPC   C3B15801   3.138  13.671   8.147
 1006POPC   C4B15802   3.005  13.326   7.886
 1007POPC   NC315803  37.942  16.489   9.452
 1007POPC   PO415804  37.358  16.744   9.432
 1007POPC   GL115805  37.536  16.652   9.058
 1007POPC   GL215806  37.572  16.311   9.156
 1007POPC   C1A15807  37.375  16.654   8.632
 1007POPC   D2A15808  37.439  16.763   8.215
 1007POPC   C3A15809  37.838  16.827   8.011
 1007POPC   C4A15810  37.580  16.746   7.640
 1007POPC   C1B15811  37.660  16.256   8.745
 1007POPC   C2B15812  37.792  16.416   8.377
 1007POPC   C3B15813  37.699  16.356   7.985
 1007POPC   C4B15814  37.950  16.395   7.632
 1008POPC   NC315815   7.446  34.556   9.423
 1008POPC   PO415816   7.083  35.122   9.470
 1008POPC   GL115817   7.187  34.784   9.056
 1008POPC   GL215818   7.619  34.692   8.988
 1008POPC   C1A15819   7.339  34.726   8.600
 1008POPC   D2A15820   7.329  34.441   8.277
 1008POPC   C3A15821   7.353  34.633   7.874
 1008POPC   C4A15822   7.213  34.835   7.478
 1008POPC   C1B15823   7.360  34.288   8.827
 1008POPC   C2B15824   7.478  34.013   8.543
 1008POPC   C3B15825   7.691  34.041   8.159
 1008POPC   C4B15826   7.743  34.096   7.729
 1009POPC   NC315827  13.891  12.141   9.440
 1009POPC   PO415828  13.232  12.367   9.337
 1009POPC   GL115829  13.521  12.081   9.071
 1009POPC   GL215830  13.825  11.802   9.090
 1009POPC   C1A15831  13.676  12.027   8.652
 1009POPC   D2A15832  13.503  11.786   8.330
 1009POPC   C3A15833  13.360  12.038   8.017
 1009POPC   C4A15834  13.551  12.222   7.687
 1009POPC   C1B15835  14.096  11.746   8.722
 1009POPC   C2B15836  13.989  11.712   8.284
 1009POPC   C3B15837  13.952  11.964   7.894
 1009POPC   C4B15838  14.028  12.256   7.543
 1010POPC   NC315839  32.433   7.656   9.579
 1010POPC   PO415840  32.272   7.017   9.693
 1010POPC   GL115841  32.129   7.331   9.290
 1010POPC   GL215842  32.387   7.442   9.134
 1010POPC   C1A15843  31.996   7.313   8.809
 1010POPC   D2A15844  32.128   7.057   8.435
 1010POPC   C3A15845  32.028   7.084   8.021
 1010POPC   C4A15846  31.886   7.422   7.763
 1010POPC   C1B15847  32.631   7.506   8.779
 1010POPC   C2B15848  32.427   7.533   8.444
 1010POPC   C3B15849  32.233   7.550   8.096
 1010POPC   C4B15850  32.405   7.480   7.687
 1011POPC   NC315851  24.243  31.491   9.715
 1011POPC   PO415852  23.685  31.084   9.573
 1011POPC   GL115853  23.768  31.227   9.148
 1011POPC   GL215854  23.708  31.583   9.148
 1011POPC   C1A15855  23.838  31.325   8.712
 1011POPC   D2A15856  23.760  31.601   8.368
 1011POPC   C3A15857  23.727  31.459   7.942
 1011POPC   C4A15858  23.871  31.130   7.661
 1011POPC   C1B15859  23.894  31.881   8.785
 1011POPC   C2B15860  24.129  31.945   8.386
 1011POPC   C3B15861  23.996  31.892   7.990
 1011POPC   C4B15862  24.020  31.714   7.587
 1012POPC   NC315863  38.586   8.489   9.609
 1012POPC   PO415864  38.103   8.052   9.586
 1012POPC   GL115865  38.390   8.086   9.248
 1012POPC   GL215866  38.762   8.128   9.254
 1012POPC   C1A15867  38.504   7.976   8.837
 1012POPC   D2A15868  38.470   7.794   8.468
 1012POPC   C3A15869  38.542   8.091   8.148
 1012POPC   C4A15870  38.381   8.000   7.760
 1012POPC   C1B15871  38.816   8.406   8.883
 1012POPC   C2B15872  38.942   8.380   8.437
 1012POPC   C3B15873  38.949   8.560   8.034
 1012POPC   C4B15874  38.796   8.285   7.733
 1013POPC   NC315875  11.232  12.325   9.345
 1013POPC   PO415876  11.184  11.702   9.352
 1013POPC   GL115877  11.055  11.970   9.033
 1013POPC   GL215878  10.791  12.249   9.091
 1013POPC   C1A15879  11.321  12.014   8.684
 1013POPC   D2A15880  11.579  11.708   8.455
 1013POPC   C3A15881  11.603  11.825   8.025
 1013POPC   C4A15882  11.245  11.888   7.749
 1013POPC   C1B15883  10.961  12.411   8.696
 1013POPC   C2B15884  10.978  12.489   8.248
 1013POPC   C3B15885  11.265  12.377   7.890
 1013POPC   C4B15886  11.190  12.345   7.423
 1014POPC   NC315887   7.515   6.151   9.499
 1014POPC   PO415888   6.988   5.750   9.509
 1014POPC   GL115889   7.355   5.761   9.194
 1014POPC   GL215890   7.191   6.065   9.122
 1014POPC   C1A15891   7.662   6.001   8.868
 1014POPC   D2A15892   7.663   6.231   8.450
 1014POPC   C3A15893   7.624   6.033   8.010
 1014POPC   C4A15894   7.313   5.790   7.785
 1014POPC   C1B15895   7.258   6.302   8.781
 1014POPC   C2B15896   7.219   6.509   8.424
 1014POPC   C3B15897   7.158   6.304   8.090
 1014POPC   C4B15898   7.183   6.264   7.706
 1015POPC   NC315899  43.482  24.676   9.348
 1015POPC   PO415900  42.822  24.629   9.372
 1015POPC   GL115901  42.988  24.362   9.047
 1015POPC   GL215902  43.363  24.369   8.936
 1015POPC   C1A15903  42.699  24.377   8.699
 1015POPC   D2A15904  42.554  24.417   8.281
 1015POPC   C3A15905  42.865  24.399   7.924
 1015POPC   C4A15906  43.295  24.321   7.788
 1015POPC   C1B15907  43.156  24.716   8.728
 1015POPC   C2B15908  42.989  24.687   8.334
 1015POPC   C3B15909  43.189  24.805   7.968
 1015POPC   C4B15910  43.652  24.862   7.888
 1016POPC   NC315911  34.844   0.495   9.377
 1016POPC   PO415912  34.393   0.092   9.636
 1016POPC   GL115913  34.524   0.053   9.231
 1016POPC   GL215914  34.369   0.346   9.123
 1016POPC   C1A15915  34.677   0.022   8.808
 1016POPC   D2A15916  34.585   0.205   8.436
 1016POPC   C3A15917  34.818   0.229   8.086
 1016POPC   C4A15918  34.735   0.338   7.698
 1016POPC   C1B15919  34.458   0.603   8.748
 1016POPC   C2B15920  34.483   0.707   8.280
 1016POPC   C3B15921  34.389   0.702   7.815
 1016POPC   C4B15922  34.162   0.830   7.399
 1017POPC   NC315923  40.631   9.682   9.513
 1017POPC   PO415924  39.939   9.704   9.570
 1017POPC   GL115925  40.118   9.601   9.179
 1017POPC   GL215926  40.368   9.866   9.108
 1017POPC   C1A15927  39.925   9.804   8.811
 1017POPC   D2A15928  40.000  10.124   8.500
 1017POPC   C3A15929  40.017   9.918   8.128
 1017POPC   C4A15930  39.748   9.700   7.823
 1017POPC   C1B15931  40.407   9.604   8.736
 1017POPC   C2B15932  40.345   9.453   8.296
 1017POPC   C3B15933  40.287   9.585   7.856
 1017POPC   C4B15934  40.156   9.949   7.630
 1018POPC   NC315935  26.444  20.669   9.545
 1018POPC   PO415936  25.823  20.320   9.553
 1018POPC   GL115937  25.994  20.603   9.214
 1018POPC   GL215938  26.300  20.591   9.058
 1018POPC   C1A15939  25.866  20.788   8.801
 1018POPC   D2A15940  26.012  20.820   8.344
 1018POPC   C3A15941  25.809  20.696   7.947
 1018POPC   C4A15942  26.045  20.902   7.654
 1018POPC   C1B15943  26.207  20.438   8.651
 1018POPC   C2B15944  26.433  20.349   8.301
 1018POPC   C3B15945  26.309  20.545   7.977
 1018POPC   C4B15946  26.201  20.379   7.614
 1019POPC   NC315947  28.431   9.317   9.388
 1019POPC   PO415948  28.317   8.794   9.724
 1019POPC   GL115949  28.444   8.840   9.262
 1019POPC   GL215950  28.777   8.800   9.155
 1019POPC   C1A15951  28.395   8.936   8.813
 1019POPC   D2A15952  28.273   9.083   8.398
 1019POPC   C3A15953  28.501   9.199   8.046
 1019POPC   C4A15954  28.269   8.983   7.806
 1019POPC   C1B15955  28.791   8.615   8.735
 1019POPC   C2B15956  28.674   8.732   8.276
 1019POPC   C3B15957  28.786   8.836   7.828
 1019POPC   C4B15958  28.543   8.742   7.437
 1020POPC   NC315959  27.268  41.694   9.420
 1020POPC   PO415960  27.716  41.323   9.710
 1020POPC   GL115961  27.678  41.408   9.221
 1020POPC   GL215962  27.349  41.395   9.021
 1020POPC   C1A15963  27.802  41.415   8.755
 1020POPC   D2A15964  27.858  41.630   8.337
 1020POPC   C3A15965  27.689  41.391   8.006
 1020POPC   C4A15966  27.580  41.414   7.565
 1020POPC   C1B15967  27.497  41.813   8.791
 1020POPC   C2B15968  27.490  41.997   8.372
 1020POPC   C3B15969  27.642  41.925   7.934
 1020POPC   C4B15970  27.382  41.863   7.533
 1021POPC   NC315971  37.171   7.566   9.380
 1021POPC   PO415972  36.702   7.229   9.352
 1021POPC   GL115973  36.831   7.274   9.009
 1021POPC   GL215974  37.131   7.096   9.066
 1021POPC   C1A15975  36.756   7.307   8.585
 1021POPC   D2A15976  36.605   7.267   8.206
 1021POPC   C3A15977  36.674   7.635   8.045
 1021POPC   C4A15978  36.760   7.682   7.644
 1021POPC   C1B15979  37.237   7.391   8.752
 1021POPC   C2B15980  37.255   7.372   8.362
 1021POPC   C3B15981  37.163   7.462   7.992
 1021POPC   C4B15982  36.978   7.107   7.907
 1022POPC   NC315983  30.950  25.654   9.366
 1022POPC   PO415984  31.108  24.969   9.466
 1022POPC   GL115985  30.806  25.182   9.146
 1022POPC   GL215986  30.465  25.045   9.071
 1022POPC   C1A15987  30.733  25.315   8.700
 1022POPC   D2A15988  30.973  25.213   8.306
 1022POPC   C3A15989  30.875  25.118   7.888
 1022POPC   C4A15990  30.712  25.294   7.498
 1022POPC   C1B15991  30.229  25.079   8.741
 1022POPC   C2B15992  30.442  25.024   8.384
 1022POPC   C3B15993  30.447  25.262   8.046
 1022POPC   C4B15994  30.248  25.252   7.674
 1023POPC   NC315995  38.752  44.136   9.530
 1023POPC   PO415996  38.398  43.657   9.636
 1023POPC   GL115997  38.505  43.803   9.241
 1023POPC   GL215998  38.279  44.055   9.206
 1023POPC   C1A15999  38.627  43.616   8.866
 1023POPC   D2A16000  38.460  43.561   8.480
 1023POPC   C3A16001  38.714  43.651   8.149
 1023POPC   C4A16002  38.540  43.691   7.750
 1023POPC   C1B16003  38.137  44.174   8.820
 1023POPC   C2B16004  38.143  43.981   8.437
 1023POPC   C3B16005  38.379  44.051   8.103
 1023POPC   C4B16006  38.206  44.066   7.741
 1024POPC   NC316007  33.906  44.120   9.655
 1024POPC   PO416008  33.522  43.652   9.633
 1024POPC   GL116009  33.643  43.919   9.254
 1024POPC   GL216010  33.412  44.121   9.097
 1024POPC   C1A16011  33.836  43.989   8.824
 1024POPC   D2A16012  33.796  43.777   8.422
 1024POPC   C3A16013  33.983  43.987   8.080
 1024POPC   C4A16014  33.926  44.249   7.734
 1024POPC   C1B16015  33.340  43.821   8.761
 1024POPC   C2B16016  33.286  43.806   8.301
 1024POPC   C3B16017  33.525  43.710   7.911
 1024POPC   C4B16018  33.457  43.736   7.431
 1025POPC   NC316019  14.536  15.349   9.588
 1025POPC   PO416020  14.408  14.722   9.474
 1025POPC   GL116021  14.400  15.113   9.144
 1025POPC   GL216022  14.509  15.487   9.118
 1025POPC   C1A16023  14.482  15.219   8.690
 1025POPC   D2A16024  14.695  15.001   8.346
 1025POPC   C3A16025  14.340  15.003   8.067
 1025POPC   C4A16026  14.270  15.277   7.718
 1025POPC   C1B16027  14.692  15.713   8.794
 1025POPC   C2B16028  14.762  15.647   8.337
 1025POPC   C3B16029  14.730  15.363   7.958
 1025POPC   C4B16030  14.714  15.354   7.483
 1026POPC   NC316031  42.414  23.366   9.907
 1026POPC   PO416032  42.185  22.982   9.380
 1026POPC   GL116033  42.489  22.788   9.119
 1026POPC   GL216034  42.424  23.081   8.946
 1026POPC   C1A16035  42.608  22.706   8.668
 1026POPC   D2A16036  42.323  22.845   8.386
 1026POPC   C3A16037  42.237  22.659   8.016
 1026POPC   C4A16038  42.090  22.937   7.709
 1026POPC   C1B16039  42.557  23.241   8.632
 1026POPC   C2B16040  42.766  23.108   8.314
 1026POPC   C3B16041  42.530  23.087   7.973
 1026POPC   C4B16042  42.591  22.846   7.707
 1027POPC   NC316043  27.687  16.591   9.614
 1027POPC   PO416044  27.250  17.032   9.541
 1027POPC   GL116045  27.545  16.875   9.209
 1027POPC   GL216046  27.424  16.553   9.149
 1027POPC   C1A16047  27.762  16.755   8.810
 1027POPC   D2A16048  27.598  16.545   8.421
 1027POPC   C3A16049  27.597  16.775   7.992
 1027POPC   C4A16050  27.737  16.745   7.550
 1027POPC   C1B16051  27.129  16.320   8.867
 1027POPC   C2B16052  27.095  16.236   8.415
 1027POPC   C3B16053  27.253  16.421   8.054
 1027POPC   C4B16054  27.353  16.452   7.607
 1028POPC   NC316055  35.095   2.133   9.462
 1028POPC   PO416056  35.742   2.305   9.424
 1028POPC   GL116057  35.569   1.938   9.202
 1028POPC   GL216058  35.263   1.774   9.105
 1028POPC   C1A16059  35.628   1.885   8.762
 1028POPC   D2A16060  35.630   2.111   8.390
 1028POPC   C3A16061  35.612   1.842   8.050
 1028POPC   C4A16062  35.422   1.730   7.677
 1028POPC   C1B16063  35.112   2.018   8.781
 1028POPC   C2B16064  34.945   2.031   8.384
 1028POPC   C3B16065  35.079   1.850   8.034
 1028POPC   C4B16066  34.969   1.981   7.634
 1029POPC   NC316067   2.020  26.174   9.591
 1029POPC   PO416068   1.437  25.783   9.665
 1029POPC   GL116069   1.688  25.985   9.250
 1029POPC   GL216070   2.059  25.925   9.167
 1029POPC   C1A16071   1.841  26.234   8.845
 1029POPC   D2A16072   2.031  26.268   8.439
 1029POPC   C3A16073   1.820  26.224   8.028
 1029POPC   C4A16074   1.927  25.932   7.670
 1029POPC   C1B16075   2.268  25.883   8.772
 1029POPC   C2B16076   2.302  25.748   8.364
 1029POPC   C3B16077   2.289  26.026   8.027
 1029POPC   C4B16078   2.452  26.050   7.638
 1030POPC   NC316079  43.189  29.658   9.681
 1030POPC   PO416080  42.552  29.469   9.586
 1030POPC   GL116081  42.840  29.634   9.253
 1030POPC   GL216082  43.088  29.932   9.259
 1030POPC   C1A16083  42.875  29.795   8.816
 1030POPC   D2A16084  42.749  30.041   8.471
 1030POPC   C3A16085  42.861  29.880   8.115
 1030POPC   C4A16086  42.805  30.028   7.718
 1030POPC   C1B16087  43.299  30.063   8.860
 1030POPC   C2B16088  43.275  29.859   8.458
 1030POPC   C3B16089  43.342  29.950   8.018
 1030POPC   C4B16090  43.176  29.658   7.749
 1031POPC   NC316091   9.025  15.480   9.628
 1031POPC   PO416092   8.523  15.004   9.539
 1031POPC   GL116093   8.800  15.132   9.225
 1031POPC   GL216094   8.668  15.466   9.193
 1031POPC   C1A16095   8.868  14.905   8.820
 1031POPC   D2A16096   8.965  15.097   8.411
 1031POPC   C3A16097   9.013  14.892   8.041
 1031POPC   C4A16098   9.032  15.020   7.650
 1031POPC   C1B16099   8.748  15.393   8.761
 1031POPC   C2B16100   8.584  15.444   8.345
 1031POPC   C3B16101   8.694  15.332   7.913
 1031POPC   C4B16102   8.752  15.417   7.462
 1032POPC   NC316103  30.536   6.893   9.477
 1032POPC   PO416104  30.995   6.404   9.345
 1032POPC   GL116105  30.825   6.709   9.119
 1032POPC   GL216106  30.517   6.577   9.048
 1032POPC   C1A16107  30.761   6.976   8.800
 1032POPC   D2A16108  30.675   6.850   8.401
 1032POPC   C3A16109  30.956   6.863   8.083
 1032POPC   C4A16110  30.628   6.855   7.802
 1032POPC   C1B16111  30.807   6.435   8.698
 1032POPC   C2B16112  30.840   6.225   8.302
 1032POPC   C3B16113  30.848   6.349   7.862
 1032POPC   C4B16114  31.111   6.310   7.484
 1033POPC   NC316115   0.641  37.881   9.577
 1033POPC   PO416116   0.019  37.538   9.427
 1033POPC   GL116117   0.181  37.833   9.140
 1033POPC   GL216118   0.547  37.761   9.094
 1033POPC   C1A16119   0.217  37.886   8.732
 1033POPC   D2A16120   0.447  37.577   8.497
 1033POPC   C3A16121   0.343  37.609   8.081
 1033POPC   C4A16122   0.530  37.438   7.704
 1033POPC   C1B16123   0.725  37.987   8.734
 1033POPC   C2B16124   0.497  38.060   8.314
 1033POPC   C3B16125   0.500  38.060   7.897
 1033POPC   C4B16126   0.906  37.871   7.853
 1034POPC   NC316127  14.052  18.761   9.497
 1034POPC   PO416128  14.600  19.225   9.546
 1034POPC   GL116129  14.354  19.114   9.143
 1034POPC   GL216130  14.275  18.799   9.031
 1034POPC   C1A16131  14.545  19.041   8.687
 1034POPC   D2A16132  14.413  19.313   8.360
 1034POPC   C3A16133  14.513  19.247   7.978
 1034POPC   C4A16134  14.479  18.842   7.813
 1034POPC   C1B16135  14.061  18.987   8.691
 1034POPC   C2B16136  13.926  19.047   8.300
 1034POPC   C3B16137  14.020  19.135   7.895
 1034POPC   C4B16138  13.857  19.435   7.608
 1035POPC   NC316139  43.680  15.691   9.519
 1035POPC   PO416140  44.258  16.113   9.635
 1035POPC   GL116141  44.116  15.859   9.249
 1035POPC   GL216142  43.802  15.872   9.074
 1035POPC   C1A16143  44.181  15.719   8.802
 1035POPC   D2A16144  43.958  15.630   8.406
 1035POPC   C3A16145  44.053  15.726   8.001
 1035POPC   C4A16146  43.757  15.975   7.783
 1035POPC   C1B16147  43.784  16.029   8.672
 1035POPC   C2B16148  43.817  16.177   8.246
 1035POPC   C3B16149  43.485  16.355   8.008
 1035POPC   C4B16150  43.455  16.440   7.590
 1036POPC   NC316151   0.193  27.226   9.401
 1036POPC   PO416152   0.582  27.702   9.582
 1036POPC   GL116153   0.613  27.669   9.140
 1036POPC   GL216154   0.675  27.327   9.095
 1036POPC   C1A16155   0.680  27.649   8.686
 1036POPC   D2A16156   0.468  27.833   8.347
 1036POPC   C3A16157   0.428  27.666   7.946
 1036POPC   C4A16158   0.476  27.633   7.457
 1036POPC   C1B16159   0.302  27.299   8.778
 1036POPC   C2B16160   0.074  27.474   8.414
 1036POPC   C3B16161   0.056  27.300   8.012
 1036POPC   C4B16162   0.420  27.205   7.784
 1037POPC   NC316163   6.090  19.318   9.544
 1037POPC   PO416164   5.809  18.784   9.366
 1037POPC   GL116165   5.872  19.095   9.095
 1037POPC   GL216166   5.570  19.255   9.055
 1037POPC   C1A16167   6.085  18.982   8.719
 1037POPC   D2A16168   6.190  18.972   8.302
 1037POPC   C3A16169   5.945  19.020   7.964
 1037POPC   C4A16170   5.983  19.177   7.561
 1037POPC   C1B16171   5.642  19.221   8.625
 1037POPC   C2B16172   5.494  19.158   8.214
 1037POPC   C3B16173   5.576  19.335   7.808
 1037POPC   C4B16174   5.531  19.174   7.353
 1038POPC   NC316175  33.333   6.931   9.488
 1038POPC   PO416176  33.875   6.469   9.441
 1038POPC   GL116177  33.674   6.708   9.154
 1038POPC   GL216178  33.752   7.069   9.177
 1038POPC   C1A16179  33.592   6.804   8.746
 1038POPC   D2A16180  33.857   6.841   8.385
 1038POPC   C3A16181  33.829   6.621   8.006
 1038POPC   C4A16182  33.723   6.687   7.548
 1038POPC   C1B16183  34.017   7.103   8.802
 1038POPC   C2B16184  34.337   6.979   8.468
 1038POPC   C3B16185  34.194   7.016   8.028
 1038POPC   C4B16186  34.053   7.079   7.606
 1039POPC   NC316187  38.609  12.046   9.442
 1039POPC   PO416188  37.975  11.844   9.465
 1039POPC   GL116189  38.195  12.167   9.161
 1039POPC   GL216190  38.471  11.956   8.968
 1039POPC   C1A16191  38.421  12.405   8.780
 1039POPC   D2A16192  38.569  12.146   8.459
 1039POPC   C3A16193  38.565  12.318   8.051
 1039POPC   C4A16194  38.624  11.981   7.779
 1039POPC   C1B16195  38.788  11.701   8.757
 1039POPC   C2B16196  39.074  11.723   8.406
 1039POPC   C3B16197  38.886  11.564   8.013
 1039POPC   C4B16198  38.802  11.576   7.545
 1040POPC   NC316199   8.917  41.461   9.529
 1040POPC   PO416200   9.387  42.002   9.324
 1040POPC   GL116201   9.020  41.720   9.082
 1040POPC   GL216202   8.726  41.440   9.074
 1040POPC   C1A16203   8.920  41.636   8.614
 1040POPC   D2A16204   9.139  41.530   8.228
 1040POPC   C3A16205   9.123  41.732   7.802
 1040POPC   C4A16206   9.257  41.721   7.327
 1040POPC   C1B16207   8.828  41.146   8.747
 1040POPC   C2B16208   8.728  41.225   8.304
 1040POPC   C3B16209   8.824  41.319   7.858
 1040POPC   C4B16210   8.559  41.277   7.483
 1041POPC   NC316211  39.884  19.965   9.471
 1041POPC   PO416212  40.409  19.471   9.577
 1041POPC   GL116213  40.257  19.718   9.174
 1041POPC   GL216214  40.117  20.044   9.009
 1041POPC   C1A16215  40.127  19.652   8.720
 1041POPC   D2A16216  39.957  19.464   8.329
 1041POPC   C3A16217  40.098  19.659   7.946
 1041POPC   C4A16218  39.915  19.621   7.554
 1041POPC   C1B16219  39.749  20.022   8.735
 1041POPC   C2B16220  39.568  20.093   8.298
 1041POPC   C3B16221  39.767  20.126   7.876
 1041POPC   C4B16222  39.998  20.107   7.488
 1042POPC   NC316223  23.685  43.010   9.750
 1042POPC   PO416224  23.822  43.424   9.247
 1042POPC   GL116225  23.818  43.053   9.101
 1042POPC   GL216226  24.022  42.825   9.248
 1042POPC   C1A16227  23.719  43.119   8.687
 1042POPC   D2A16228  23.707  43.361   8.346
 1042POPC   C3A16229  23.672  43.124   8.039
 1042POPC   C4A16230  23.483  43.269   7.700
 1042POPC   C1B16231  24.146  42.836   8.789
 1042POPC   C2B16232  24.156  43.077   8.397
 1042POPC   C3B16233  24.159  42.918   7.974
 1042POPC   C4B16234  23.906  42.985   7.617
 1043POPC   NC316235  21.684  12.715   9.530
 1043POPC   PO416236  21.406  13.355   9.565
 1043POPC   GL116237  21.364  13.034   9.230
 1043POPC   GL216238  21.460  12.689   9.080
 1043POPC   C1A16239  21.475  13.126   8.819
 1043POPC   D2A16240  21.276  13.168   8.425
 1043POPC   C3A16241  21.475  13.168   8.011
 1043POPC   C4A16242  21.511  13.135   7.554
 1043POPC   C1B16243  21.268  12.692   8.656
 1043POPC   C2B16244  21.507  12.714   8.261
 1043POPC   C3B16245  21.413  12.660   7.824
 1043POPC   C4B16246  21.099  12.377   7.669
 1044POPC   NC316247  43.625  13.271   9.551
 1044POPC   PO416248  43.894  13.793   9.628
 1044POPC   GL116249  43.731  13.687   9.240
 1044POPC   GL216250  43.648  14.005   9.189
 1044POPC   C1A16251  43.834  13.674   8.801
 1044POPC   D2A16252  44.146  13.629   8.467
 1044POPC   C3A16253  43.929  13.406   8.142
 1044POPC   C4A16254  43.737  13.568   7.786
 1044POPC   C1B16255  43.559  14.111   8.771
 1044POPC   C2B16256  43.549  13.864   8.398
 1044POPC   C3B16257  43.481  13.961   7.988
 1044POPC   C4B16258  43.367  13.869   7.601
 1045POPC   NC316259  25.623  23.256   9.381
 1045POPC   PO416260  25.235  22.840   9.802
 1045POPC   GL116261  25.210  22.869   9.322
 1045POPC   GL216262  25.129  23.204   9.147
 1045POPC   C1A16263  25.048  22.741   8.903
 1045POPC   D2A16264  24.935  22.986   8.532
 1045POPC   C3A16265  25.100  23.033   8.089
 1045POPC   C4A16266  25.262  22.733   7.766
 1045POPC   C1B16267  25.435  23.039   8.793
 1045POPC   C2B16268  25.532  22.967   8.376
 1045POPC   C3B16269  25.599  23.110   7.968
 1045POPC   C4B16270  25.401  23.316   7.706
 1046POPC   NC316271  44.002  21.621   9.525
 1046POPC   PO416272  43.687  22.207   9.581
 1046POPC   GL116273  43.960  22.144   9.236
 1046POPC   GL216274  44.285  21.945   9.292
 1046POPC   C1A16275  43.871  22.353   8.848
 1046POPC   D2A16276  43.541  22.304   8.541
 1046POPC   C3A16277  43.778  22.267   8.174
 1046POPC   C4A16278  43.749  22.226   7.755
 1046POPC   C1B16279  44.258  21.954   8.873
 1046POPC   C2B16280  44.111  22.054   8.497
 1046POPC   C3B16281  44.282  22.121   8.112
 1046POPC   C4B16282  44.130  21.896   7.795
 1047POPC   NC316283  16.540  17.067   9.428
 1047POPC   PO416284  16.703  17.750   9.439
 1047POPC   GL116285  16.628  17.590   9.039
 1047POPC   GL216286  16.409  17.324   9.021
 1047POPC   C1A16287  16.898  17.560   8.668
 1047POPC   D2A16288  16.972  17.180   8.427
 1047POPC   C3A16289  17.048  17.301   8.022
 1047POPC   C4A16290  16.960  17.690   7.841
 1047POPC   C1B16291  16.463  17.311   8.578
 1047POPC   C2B16292  16.609  17.520   8.210
 1047POPC   C3B16293  16.510  17.406   7.787
 1047POPC   C4B16294  16.408  17.264   7.348
 1048POPC   NC316295  35.355  38.151   9.473
 1048POPC   PO416296  35.079  38.797   9.558
 1048POPC   GL116297  35.235  38.578   9.172
 1048POPC   GL216298  35.034  38.304   9.084
 1048POPC   C1A16299  35.417  38.601   8.736
 1048POPC   D2A16300  35.134  38.701   8.360
 1048POPC   C3A16301  35.260  38.643   7.931
 1048POPC   C4A16302  35.508  38.742   7.542
 1048POPC   C1B16303  35.061  38.227   8.651
 1048POPC   C2B16304  35.372  38.245   8.363
 1048POPC   C3B16305  35.273  38.134   8.001
 1048POPC   C4B16306  35.525  38.157   7.725
 1049POPC   NC316307  34.618  38.793   9.606
 1049POPC   PO416308  34.357  38.158   9.519
 1049POPC   GL116309  34.548  38.439   9.225
 1049POPC   GL216310  34.372  38.767   9.137
 1049POPC   C1A16311  34.619  38.452   8.792
 1049POPC   D2A16312  34.630  38.622   8.392
 1049POPC   C3A16313  34.822  38.334   8.096
 1049POPC   C4A16314  34.683  38.185   7.680
 1049POPC   C1B16315  34.154  38.660   8.717
 1049POPC   C2B16316  34.152  38.730   8.262
 1049POPC   C3B16317  34.391  38.529   7.920
 1049POPC   C4B16318  34.232  38.389   7.505
 1050POPC   NC316319  26.473  41.089   9.455
 1050POPC   PO416320  26.440  40.384   9.490
 1050POPC   GL116321  26.761  40.608   9.232
 1050POPC   GL216322  26.791  40.955   9.111
 1050POPC   C1A16323  26.886  40.566   8.816
 1050POPC   D2A16324  26.996  40.610   8.419
 1050POPC   C3A16325  26.951  40.934   8.154
 1050POPC   C4A16326  26.874  40.994   7.746
 1050POPC   C1B16327  26.541  40.971   8.787
 1050POPC   C2B16328  26.487  40.782   8.407
 1050POPC   C3B16329  26.397  41.018   8.079
 1050POPC   C4B16330  26.386  41.101   7.677
 1051POPC   NC316331  18.089   4.788   9.614
 1051POPC   PO416332  17.814   4.207   9.782
 1051POPC   GL116333  17.978   4.332   9.263
 1051POPC   GL216334  18.278   4.554   9.204
 1051POPC   C1A16335  18.070   4.263   8.808
 1051POPC   D2A16336  18.257   3.978   8.478
 1051POPC   C3A16337  18.197   4.122   8.036
 1051POPC   C4A16338  17.846   4.167   7.790
 1051POPC   C1B16339  18.507   4.580   8.793
 1051POPC   C2B16340  18.499   4.425   8.342
 1051POPC   C3B16341  18.433   4.621   7.953
 1051POPC   C4B16342  18.459   4.689   7.521
 1052POPC   NC316343   7.120  36.201   9.685
 1052POPC   PO416344   6.456  35.895   9.555
 1052POPC   GL116345   6.619  36.179   9.237
 1052POPC   GL216346   6.662  35.901   9.038
 1052POPC   C1A16347   6.627  36.390   8.813
 1052POPC   D2A16348   6.766  36.228   8.409
 1052POPC   C3A16349   6.681  36.423   8.014
 1052POPC   C4A16350   6.424  36.348   7.638
 1052POPC   C1B16351   6.970  35.727   8.764
 1052POPC   C2B16352   7.164  35.897   8.407
 1052POPC   C3B16353   7.020  36.036   8.001
 1052POPC   C4B16354   6.925  36.227   7.586
 1053POPC   NC316355  30.041  39.563   9.588
 1053POPC   PO416356  29.537  39.975   9.474
 1053POPC   GL116357  29.842  40.095   9.175
 1053POPC   GL216358  29.748  40.383   8.992
 1053POPC   C1A16359  29.833  39.963   8.743
 1053POPC   D2A16360  29.667  40.135   8.403
 1053POPC   C3A16361  29.801  39.874   8.044
 1053POPC   C4A16362  29.951  39.892   7.635
 1053POPC   C1B16363  30.127  40.473   8.774
 1053POPC   C2B16364  30.217  40.357   8.394
 1053POPC   C3B16365  29.961  40.373   8.069
 1053POPC   C4B16366  30.063  40.368   7.705
 1054POPC   NC316367  22.514  12.822   9.424
 1054POPC   PO416368  21.981  13.086   9.510
 1054POPC   GL116369  21.992  12.775   9.136
 1054POPC   GL216370  22.291  12.666   8.974
 1054POPC   C1A16371  21.825  12.718   8.695
 1054POPC   D2A16372  22.047  12.746   8.272
 1054POPC   C3A16373  21.880  12.876   7.864
 1054POPC   C4A16374  21.756  12.676   7.445
 1054POPC   C1B16375  22.493  13.094   8.873
 1054POPC   C2B16376  22.555  13.341   8.539
 1054POPC   C3B16377  22.267  13.275   8.212
 1054POPC   C4B16378  22.347  13.161   7.805
 1055POPC   NC316379  29.989  29.485   9.287
 1055POPC   PO416380  29.867  30.125   9.517
 1055POPC   GL116381  29.783  29.970   9.128
 1055POPC   GL216382  29.544  29.764   9.215
 1055POPC   C1A16383  29.951  29.845   8.718
 1055POPC   D2A16384  29.994  29.603   8.345
 1055POPC   C3A16385  29.939  29.882   8.021
 1055POPC   C4A16386  29.979  29.771   7.630
 1055POPC   C1B16387  29.508  29.606   8.803
 1055POPC   C2B16388  29.511  29.812   8.398
 1055POPC   C3B16389  29.372  29.827   7.970
 1055POPC   C4B16390  29.569  30.085   7.636
 1056POPC   NC316391  28.564  16.985   9.419
 1056POPC   PO416392  28.136  16.521   9.548
 1056POPC   GL116393  28.193  16.691   9.145
 1056POPC   GL216394  28.082  17.051   9.179
 1056POPC   C1A16395  28.498  16.587   8.807
 1056POPC   D2A16396  28.645  16.820   8.451
 1056POPC   C3A16397  28.566  16.637   8.068
 1056POPC   C4A16398  28.545  16.942   7.774
 1056POPC   C1B16399  28.221  17.026   8.736
 1056POPC   C2B16400  28.130  16.722   8.403
 1056POPC   C3B16401  28.090  16.714   7.950
 1056POPC   C4B16402  28.041  17.110   7.758
 1057POPC   NC316403  42.228  40.058   9.549
 1057POPC   PO416404  42.807  39.639   9.725
 1057POPC   GL116405  42.710  39.725   9.277
 1057POPC   GL216406  42.623  40.074   9.233
 1057POPC   C1A16407  42.789  39.828   8.814
 1057POPC   D2A16408  42.562  39.918   8.428
 1057POPC   C3A16409  42.665  39.796   8.004
 1057POPC   C4A16410  42.431  39.933   7.647
 1057POPC   C1B16411  42.307  39.995   8.902
 1057POPC   C2B16412  42.068  40.056   8.526
 1057POPC   C3B16413  42.160  40.054   8.087
 1057POPC   C4B16414  41.878  40.056   7.730
 1058POPC   NC316415  15.743   4.707   9.585
 1058POPC   PO416416  16.209   5.219   9.469
 1058POPC   GL116417  16.246   5.025   9.068
 1058POPC   GL216418  15.930   4.884   9.155
 1058POPC   C1A16419  16.265   5.132   8.603
 1058POPC   D2A16420  15.979   5.327   8.291
 1058POPC   C3A16421  16.038   5.156   7.885
 1058POPC   C4A16422  16.127   4.779   7.767
 1058POPC   C1B16423  15.783   5.086   8.812
 1058POPC   C2B16424  15.663   4.881   8.445
 1058POPC   C3B16425  15.699   4.745   8.054
 1058POPC   C4B16426  15.491   5.075   7.845
 1059POPC   NC316427  31.648  27.591   9.530
 1059POPC   PO416428  31.036  27.791   9.532
 1059POPC   GL116429  31.361  27.829   9.162
 1059POPC   GL216430  31.556  27.498   9.060
 1059POPC   C1A16431  31.318  27.739   8.700
 1059POPC   D2A16432  31.165  27.643   8.276
 1059POPC   C3A16433  31.383  27.892   8.015
 1059POPC   C4A16434  31.625  27.900   7.665
 1059POPC   C1B16435  31.677  27.279   8.706
 1059POPC   C2B16436  31.443  27.208   8.353
 1059POPC   C3B16437  31.458  27.356   7.947
 1059POPC   C4B16438  31.156  27.126   7.713
 1060POPC   NC316439   7.839  39.378   9.448
 1060POPC   PO416440   7.253  39.008   9.509
 1060POPC   GL116441   7.403  39.261   9.194
 1060POPC   GL216442   7.229  39.545   9.104
 1060POPC   C1A16443   7.540  39.265   8.775
 1060POPC   D2A16444   7.347  39.192   8.384
 1060POPC   C3A16445   7.470  39.357   7.966
 1060POPC   C4A16446   7.313  39.148   7.584
 1060POPC   C1B16447   7.169  39.658   8.655
 1060POPC   C2B16448   7.059  39.598   8.195
 1060POPC   C3B16449   7.083  39.591   7.723
 1060POPC   C4B16450   7.137  39.488   7.251
 1061POPC   NC316451  42.081  19.128   9.313
 1061POPC   PO416452  42.406  18.592   9.443
 1061POPC   GL116453  42.375  18.772   9.030
 1061POPC   GL216454  42.406  19.130   8.913
 1061POPC   C1A16455  42.448  18.772   8.594
 1061POPC   D2A16456  42.468  19.073   8.303
 1061POPC   C3A16457  42.360  18.838   7.992
 1061POPC   C4A16458  42.238  18.852   7.591
 1061POPC   C1B16459  42.217  19.413   8.605
 1061POPC   C2B16460  42.162  19.543   8.215
 1061POPC   C3B16461  42.267  19.316   7.867
 1061POPC   C4B16462  42.447  19.294   7.465
 1062POPC   NC316463  23.426  25.914   9.417
 1062POPC   PO416464  24.094  26.285   9.481
 1062POPC   GL116465  23.836  26.128   9.166
 1062POPC   GL216466  23.539  26.356   9.204
 1062POPC   C1A16467  23.608  25.966   8.783
 1062POPC   D2A16468  23.626  25.700   8.431
 1062POPC   C3A16469  23.646  25.917   8.057
 1062POPC   C4A16470  23.746  25.741   7.645
 1062POPC   C1B16471  23.658  26.464   8.791
 1062POPC   C2B16472  23.516  26.365   8.382
 1062POPC   C3B16473  23.709  26.469   8.030
 1062POPC   C4B16474  23.829  26.237   7.669
 1063POPC   NC316475  15.308  20.439   9.447
 1063POPC   PO416476  15.620  21.110   9.551
 1063POPC   GL116477  15.439  20.915   9.179
 1063POPC   GL216478  15.079  20.908   9.164
 1063POPC   C1A16479  15.402  20.689   8.772
 1063POPC   D2A16480  15.474  20.813   8.345
 1063POPC   C3A16481  15.286  20.590   8.034
 1063POPC   C4A16482  15.312  20.382   7.666
 1063POPC   C1B16483  14.904  20.643   8.820
 1063POPC   C2B16484  14.896  20.665   8.364
 1063POPC   C3B16485  14.812  20.448   7.938
 1063POPC   C4B16486  14.840  20.801   7.681
 1064POPC   NC316487  32.022   9.091   9.436
 1064POPC   PO416488  32.703   8.776   9.611
 1064POPC   GL116489  32.443   8.849   9.272
 1064POPC   GL216490  32.516   9.204   9.248
 1064POPC   C1A16491  32.297   8.813   8.851
 1064POPC   D2A16492  32.438   8.945   8.448
 1064POPC   C3A16493  32.194   8.901   8.086
 1064POPC   C4A16494  31.848   9.185   7.892
 1064POPC   C1B16495  32.682   9.197   8.860
 1064POPC   C2B16496  32.854   9.409   8.509
 1064POPC   C3B16497  32.673   9.271   8.138
 1064POPC   C4B16498  32.667   8.931   7.853
 1065POPC   NC316499  24.545  44.851   9.336
 1065POPC   PO416500  24.046  44.435   9.644
 1065POPC   GL116501  24.182  44.524   9.198
 1065POPC   GL216502  24.115  44.857   9.047
 1065POPC   C1A16503  24.366  44.503   8.768
 1065POPC   D2A16504  24.711  44.526   8.439
 1065POPC   C3A16505  24.625  44.638   8.003
 1065POPC   C4A16506  24.529  44.567   7.563
 1065POPC   C1B16507  24.381   0.027   8.706
 1065POPC   C2B16508  24.513   0.070   8.254
 1065POPC   C3B16509  24.256   0.077   7.901
 1065POPC   C4B16510  24.227   0.209   7.445
 1066POPC   NC316511  37.769  34.721   9.583
 1066POPC   PO416512  37.958  34.158   9.361
 1066POPC   GL116513  37.624  34.432   9.129
 1066POPC   GL216514  37.442  34.787   9.212
 1066POPC   C1A16515  37.608  34.432   8.665
 1066POPC   D2A16516  37.579  34.214   8.273
 1066POPC   C3A16517  37.890  34.306   7.936
 1066POPC   C4A16518  38.056  34.707   7.793
 1066POPC   C1B16519  37.545  34.905   8.837
 1066POPC   C2B16520  37.622  34.949   8.409
 1066POPC   C3B16521  37.597  34.704   8.055
 1066POPC   C4B16522  37.301  34.789   7.781
 1067POPC   NC316523   1.588  43.155   9.512
 1067POPC   PO416524   2.151  42.981   9.749
 1067POPC   GL116525   2.053  43.105   9.304
 1067POPC   GL216526   1.797  43.311   9.096
 1067POPC   C1A16527   2.139  43.011   8.872
 1067POPC   D2A16528   2.036  42.978   8.418
 1067POPC   C3A16529   2.324  43.171   8.116
 1067POPC   C4A16530   2.391  43.053   7.667
 1067POPC   C1B16531   1.638  43.100   8.732
 1067POPC   C2B16532   1.463  43.173   8.357
 1067POPC   C3B16533   1.555  43.075   7.993
 1067POPC   C4B16534   1.909  43.210   7.816
 1068POPC   NC316535  18.434  27.496   9.554
 1068POPC   PO416536  18.075  28.031   9.489
 1068POPC   GL116537  18.187  27.686   9.156
 1068POPC   GL216538  18.054  27.750   8.815
 1068POPC   C1A16539  18.461  27.471   8.836
 1068POPC   D2A16540  18.450  27.514   8.378
 1068POPC   C3A16541  18.549  27.214   8.059
 1068POPC   C4A16542  18.551  27.371   7.649
 1068POPC   C1B16543  17.997  27.343   8.601
 1068POPC   C2B16544  18.069  27.177   8.194
 1068POPC   C3B16545  18.134  27.540   7.872
 1068POPC   C4B16546  17.869  27.732   7.519
 1069POPC   NC316547  11.618  24.934   9.686
 1069POPC   PO416548  12.064  24.411   9.576
 1069POPC   GL116549  12.129  24.236   9.198
 1069POPC   GL216550  12.361  24.476   9.086
 1069POPC   C1A16551  11.979  24.216   8.782
 1069POPC   D2A16552  11.805  24.212   8.360
 1069POPC   C3A16553  12.126  24.376   8.118
 1069POPC   C4A16554  12.032  24.646   7.808
 1069POPC   C1B16555  12.533  24.644   8.677
 1069POPC   C2B16556  12.428  24.813   8.266
 1069POPC   C3B16557  12.452  24.910   7.833
 1069POPC   C4B16558  12.402  24.773   7.469
 1070POPC   NC316559  40.807  40.597  10.058
 1070POPC   PO416560  40.387  40.683   9.527
 1070POPC   GL116561  40.746  40.800   9.277
 1070POPC   GL216562  40.492  40.985   9.081
 1070POPC   C1A16563  40.820  40.666   8.845
 1070POPC   D2A16564  40.549  40.718   8.469
 1070POPC   C3A16565  40.758  40.771   8.080
 1070POPC   C4A16566  41.112  40.762   7.767
 1070POPC   C1B16567  40.746  41.172   8.738
 1070POPC   C2B16568  40.927  41.195   8.321
 1070POPC   C3B16569  40.889  41.206   7.850
 1070POPC   C4B16570  40.573  40.969   7.629
 1071POPC   NC316571  44.492  41.037   9.549
 1071POPC   PO416572  44.703  40.414   9.610
 1071POPC   GL116573  44.746  40.656   9.235
 1071POPC   GL216574  44.406  40.742   9.110
 1071POPC   C1A16575  44.773  40.550   8.792
 1071POPC   D2A16576  44.730  40.711   8.385
 1071POPC   C3A16577  44.768  40.464   8.014
 1071POPC   C4A16578  44.808  40.634   7.614
 1071POPC   C1B16579  44.327  40.881   8.676
 1071POPC   C2B16580  44.247  40.894   8.225
 1071POPC   C3B16581  44.492  40.977   7.850
 1071POPC   C4B16582  44.454  40.886   7.371
 1072POPC   NC316583   1.008  25.671   9.465
 1072POPC   PO416584   1.392  25.151   9.589
 1072POPC   GL116585   1.265  25.242   9.182
 1072POPC   GL216586   1.445  25.535   9.186
 1072POPC   C1A16587   1.129  25.113   8.755
 1072POPC   D2A16588   1.341  25.005   8.390
 1072POPC   C3A16589   1.165  25.075   7.978
 1072POPC   C4A16590   1.430  25.225   7.660
 1072POPC   C1B16591   1.314  25.581   8.780
 1072POPC   C2B16592   1.242  25.732   8.404
 1072POPC   C3B16593   1.343  25.557   8.051
 1072POPC   C4B16594   1.446  25.750   7.684
 1073POPC   NC316595  34.065  23.848   9.409
 1073POPC   PO416596  33.389  23.444   9.306
 1073POPC   GL116597  33.761  23.610   9.070
 1073POPC   GL216598  33.791  23.976   9.003
 1073POPC   C1A16599  33.925  23.653   8.631
 1073POPC   D2A16600  33.686  23.547   8.272
 1073POPC   C3A16601  33.857  23.462   7.875
 1073POPC   C4A16602  33.642  23.387   7.475
 1073POPC   C1B16603  33.450  23.850   8.708
 1073POPC   C2B16604  33.287  23.867   8.293
 1073POPC   C3B16605  33.485  23.822   7.885
 1073POPC   C4B16606  33.802  23.849   7.531
 1074POPC   NC316607   0.777  21.022   9.474
 1074POPC   PO416608   0.337  21.523   9.361
 1074POPC   GL116609   0.592  21.317   9.083
 1074POPC   GL216610   0.858  21.543   9.148
 1074POPC   C1A16611   0.474  21.097   8.703
 1074POPC   D2A16612   0.183  21.151   8.361
 1074POPC   C3A16613   0.397  21.164   7.981
 1074POPC   C4A16614   0.172  21.318   7.610
 1074POPC   C1B16615   0.750  21.689   8.726
 1074POPC   C2B16616   0.539  21.566   8.348
 1074POPC   C3B16617   0.367  21.664   7.946
 1074POPC   C4B16618   0.546  21.630   7.525
 1075POPC   NC316619   5.905  30.458   9.736
 1075POPC   PO416620   5.560  30.989   9.592
 1075POPC   GL116621   5.759  30.696   9.226
 1075POPC   GL216622   6.004  30.392   9.238
 1075POPC   C1A16623   5.742  30.800   8.744
 1075POPC   D2A16624   5.897  30.769   8.301
 1075POPC   C3A16625   5.761  30.792   7.876
 1075POPC   C4A16626   5.573  30.626   7.486
 1075POPC   C1B16627   6.094  30.434   8.816
 1075POPC   C2B16628   6.210  30.389   8.399
 1075POPC   C3B16629   6.047  30.372   8.000
 1075POPC   C4B16630   6.193  30.369   7.596
 1076POPC   NC316631  32.170   5.600   9.560
 1076POPC   PO416632  32.533   6.224   9.631
 1076POPC   GL116633  32.341   6.122   9.199
 1076POPC   GL216634  32.434   5.772   9.125
 1076POPC   C1A16635  32.225   6.031   8.737
 1076POPC   D2A16636  32.038   6.030   8.299
 1076POPC   C3A16637  32.215   5.930   7.861
 1076POPC   C4A16638  32.300   6.100   7.430
 1076POPC   C1B16639  32.660   5.735   8.727
 1076POPC   C2B16640  32.496   5.709   8.305
 1076POPC   C3B16641  32.534   5.528   7.891
 1076POPC   C4B16642  32.320   5.573   7.442
 1077POPC   NC316643   0.667  24.712   9.465
 1077POPC   PO416644   0.238  24.115   9.463
 1077POPC   GL116645   0.387  24.406   9.153
 1077POPC   GL216646   0.204  24.744   9.147
 1077POPC   C1A16647   0.567  24.608   8.805
 1077POPC   D2A16648   0.533  24.683   8.371
 1077POPC   C3A16649   0.247  24.470   8.154
 1077POPC   C4A16650   0.151  24.429   7.726
 1077POPC   C1B16651   0.073  24.692   8.703
 1077POPC   C2B16652   0.083  24.953   8.330
 1077POPC   C3B16653   0.017  24.910   7.921
 1077POPC   C4B16654  44.998  24.845   7.489
 1078POPC   NC316655  20.354  42.708   9.364
 1078POPC   PO416656  20.847  43.397   9.375
 1078POPC   GL116657  20.781  43.286   9.011
 1078POPC   GL216658  20.541  43.097   9.094
 1078POPC   C1A16659  20.717  43.271   8.576
 1078POPC   D2A16660  20.648  43.472   8.216
 1078POPC   C3A16661  20.723  43.336   7.821
 1078POPC   C4A16662  21.153  43.287   7.747
 1078POPC   C1B16663  20.262  43.178   8.785
 1078POPC   C2B16664  20.168  43.180   8.387
 1078POPC   C3B16665  20.102  43.034   7.987
 1078POPC   C4B16666  20.378  42.936   7.676
 1079POPC   NC316667   8.642  12.341   9.432
 1079POPC   PO416668   8.173  11.826   9.498
 1079POPC   GL116669   8.333  12.045   9.166
 1079POPC   GL216670   8.635  11.904   9.057
 1079POPC   C1A16671   8.208  12.033   8.756
 1079POPC   D2A16672   8.036  12.237   8.463
 1079POPC   C3A16673   8.128  12.170   8.093
 1079POPC   C4A16674   8.103  12.385   7.757
 1079POPC   C1B16675   8.533  11.660   8.695
 1079POPC   C2B16676   8.273  11.730   8.329
 1079POPC   C3B16677   8.501  11.791   7.962
 1079POPC   C4B16678   8.478  11.645   7.590
 1080POPC   NC316679   9.956  30.090   9.565
 1080POPC   PO416680   9.529  29.580   9.687
 1080POPC   GL116681   9.634  29.732   9.267
 1080POPC   GL216682   9.544  30.068   9.139
 1080POPC   C1A16683   9.906  29.672   8.899
 1080POPC   D2A16684   9.842  29.823   8.482
 1080POPC   C3A16685  10.084  29.732   8.125
 1080POPC   C4A16686  10.015  29.770   7.677
 1080POPC   C1B16687   9.901  30.204   8.860
 1080POPC   C2B16688  10.078  30.272   8.424
 1080POPC   C3B16689   9.941  30.204   8.010
 1080POPC   C4B16690   9.717  30.158   7.645
 1081POPC   NC316691  11.492   2.887   9.561
 1081POPC   PO416692  10.843   2.945   9.288
 1081POPC   GL116693  11.220   3.091   9.105
 1081POPC   GL216694  11.362   2.782   9.089
 1081POPC   C1A16695  11.237   3.038   8.649
 1081POPC   D2A16696  11.083   2.688   8.400
 1081POPC   C3A16697  11.293   2.728   8.055
 1081POPC   C4A16698  11.258   2.936   7.703
 1081POPC   C1B16699  11.391   2.522   8.773
 1081POPC   C2B16700  11.442   2.275   8.428
 1081POPC   C3B16701  11.261   2.215   8.063
 1081POPC   C4B16702  11.356   2.403   7.683
 1082POPC   NC316703  15.449  43.073   9.530
 1082POPC   PO416704  14.797  42.945   9.757
 1082POPC   GL116705  14.972  42.995   9.299
 1082POPC   GL216706  14.966  42.680   9.122
 1082POPC   C1A16707  15.063  43.182   8.864
 1082POPC   D2A16708  15.001  43.062   8.408
 1082POPC   C3A16709  15.320  43.115   8.103
 1082POPC   C4A16710  15.293  43.373   7.745
 1082POPC   C1B16711  15.183  42.707   8.730
 1082POPC   C2B16712  15.478  42.676   8.388
 1082POPC   C3B16713  15.520  42.694   7.920
 1082POPC   C4B16714  15.253  42.885   7.622
 1083POPC   NC316715  11.207  28.009   9.622
 1083POPC   PO416716  11.672  28.523   9.463
 1083POPC   GL116717  11.388  28.541   9.127
 1083POPC   GL216718  11.102  28.322   9.167
 1083POPC   C1A16719  11.155  28.737   8.799
 1083POPC   D2A16720  11.331  28.620   8.405
 1083POPC   C3A16721  11.023  28.676   8.044
 1083POPC   C4A16722  11.206  28.593   7.647
 1083POPC   C1B16723  11.229  28.233   8.735
 1083POPC   C2B16724  11.034  28.237   8.310
 1083POPC   C3B16725  11.273  28.180   7.925
 1083POPC   C4B16726  11.527  28.030   7.552
 1084POPC   NC316727  30.879  14.501   9.449
 1084POPC   PO416728  30.262  14.744   9.529
 1084POPC   GL116729  30.498  14.631   9.148
 1084POPC   GL216730  30.651  14.282   9.051
 1084POPC   C1A16731  30.577  14.649   8.711
 1084POPC   D2A16732  30.622  14.244   8.527
 1084POPC   C3A16733  30.613  14.305   8.107
 1084POPC   C4A16734  30.538  14.316   7.675
 1084POPC   C1B16735  31.025  14.350   8.790
 1084POPC   C2B16736  31.110  14.511   8.331
 1084POPC   C3B16737  31.013  14.517   7.855
 1084POPC   C4B16738  30.939  14.457   7.386
 1085POPC   NC316739   3.602  24.071   9.813
 1085POPC   PO416740   3.680  24.700   9.522
 1085POPC   GL116741   3.537  24.637   9.122
 1085POPC   GL216742   3.215  24.493   9.107
 1085POPC   C1A16743   3.580  24.439   8.719
 1085POPC   D2A16744   3.668  24.146   8.389
 1085POPC   C3A16745   3.518  24.298   7.971
 1085POPC   C4A16746   3.644  24.304   7.518
 1085POPC   C1B16747   3.262  24.843   8.771
 1085POPC   C2B16748   3.486  24.865   8.402
 1085POPC   C3B16749   3.311  24.829   8.024
 1085POPC   C4B16750   3.323  24.646   7.651
 1086POPC   NC316751  35.578   0.504   9.551
 1086POPC   PO416752  35.073   0.048   9.435
 1086POPC   GL116753  35.314   0.300   9.150
 1086POPC   GL216754  35.259   0.606   9.067
 1086POPC   C1A16755  35.546   0.324   8.724
 1086POPC   D2A16756  35.825   0.281   8.346
 1086POPC   C3A16757  35.605   0.413   7.973
 1086POPC   C4A16758  35.208   0.483   7.829
 1086POPC   C1B16759  34.974   0.479   8.729
 1086POPC   C2B16760  35.018   0.646   8.317
 1086POPC   C3B16761  35.392   0.855   8.146
 1086POPC   C4B16762  35.617   0.907   7.754
 1087POPC   NC316763  37.449  40.127   9.576
 1087POPC   PO416764  38.050  40.136   9.525
 1087POPC   GL116765  37.814  39.997   9.161
 1087POPC   GL216766  37.533  40.168   9.041
 1087POPC   C1A16767  37.897  39.852   8.739
 1087POPC   D2A16768  37.870  40.120   8.366
 1087POPC   C3A16769  37.607  39.931   8.077
 1087POPC   C4A16770  37.664  39.710   7.729
 1087POPC   C1B16771  37.386  39.882   8.691
 1087POPC   C2B16772  37.134  39.843   8.308
 1087POPC   C3B16773  37.122  39.885   7.863
 1087POPC   C4B16774  37.281  39.894   7.447
 1088POPC   NC316775  11.150  21.066   9.461
 1088POPC   PO416776  11.351  20.412   9.624
 1088POPC   GL116777  11.416  20.643   9.234
 1088POPC   GL216778  11.627  20.934   9.265
 1088POPC   C1A16779  11.295  20.586   8.797
 1088POPC   D2A16780  11.391  20.350   8.410
 1088POPC   C3A16781  11.446  20.540   8.013
 1088POPC   C4A16782  11.183  20.846   7.812
 1088POPC   C1B16783  11.664  20.939   8.818
 1088POPC   C2B16784  11.435  20.893   8.414
 1088POPC   C3B16785  11.649  21.003   8.039
 1088POPC   C4B16786  11.703  20.843   7.664
 1089POPC   NC316787   2.424  16.148   9.390
 1089POPC   PO416788   3.142  16.220   9.285
 1089POPC   GL116789   2.867  16.022   9.000
 1089POPC   GL216790   2.663  15.773   9.147
 1089POPC   C1A16791   2.689  16.076   8.578
 1089POPC   D2A16792   2.381  16.200   8.287
 1089POPC   C3A16793   2.631  16.258   7.962
 1089POPC   C4A16794   3.024  16.114   7.903
 1089POPC   C1B16795   2.740  15.594   8.724
 1089POPC   C2B16796   2.942  15.631   8.330
 1089POPC   C3B16797   2.991  15.605   7.880
 1089POPC   C4B16798   2.729  15.625   7.525
 1090POPC   NC316799  36.619  35.567   9.445
 1090POPC   PO416800  37.224  35.436   9.180
 1090POPC   GL116801  36.893  35.304   9.091
 1090POPC   GL216802  36.994  34.978   9.039
 1090POPC   C1A16803  36.723  35.480   8.753
 1090POPC   D2A16804  36.763  35.390   8.364
 1090POPC   C3A16805  37.009  35.645   8.097
 1090POPC   C4A16806  36.969  35.563   7.676
 1090POPC   C1B16807  37.137  35.120   8.596
 1090POPC   C2B16808  37.101  35.124   8.113
 1090POPC   C3B16809  36.844  35.014   7.731
 1090POPC   C4B16810  36.912  34.906   7.266
 1091POPC   NC316811  38.767   1.105   9.492
 1091POPC   PO416812  38.069   1.156   9.488
 1091POPC   GL116813  38.342   1.263   9.131
 1091POPC   GL216814  38.625   1.067   9.012
 1091POPC   C1A16815  38.264   1.369   8.702
 1091POPC   D2A16816  38.084   1.414   8.292
 1091POPC   C3A16817  38.359   1.430   7.933
 1091POPC   C4A16818  38.388   1.067   7.660
 1091POPC   C1B16819  38.858   0.752   8.787
 1091POPC   C2B16820  38.814   0.624   8.343
 1091POPC   C3B16821  38.699   0.980   8.071
 1091POPC   C4B16822  38.852   1.323   7.816
 1092POPC   NC316823   7.015  25.022   9.453
 1092POPC   PO416824   6.324  25.208   9.614
 1092POPC   GL116825   6.556  25.224   9.230
 1092POPC   GL216826   6.528  24.896   9.130
 1092POPC   C1A16827   6.420  25.312   8.800
 1092POPC   D2A16828   6.395  25.558   8.408
 1092POPC   C3A16829   6.399  25.434   7.970
 1092POPC   C4A16830   6.716  25.512   7.650
 1092POPC   C1B16831   6.799  24.963   8.751
 1092POPC   C2B16832   6.702  24.959   8.272
 1092POPC   C3B16833   6.726  25.039   7.812
 1092POPC   C4B16834   7.001  24.911   7.475
 1093POPC   NC316835  18.712  17.426   9.441
 1093POPC   PO416836  19.339  17.207   9.576
 1093POPC   GL116837  19.368  17.368   9.165
 1093POPC   GL216838  19.039  17.336   9.069
 1093POPC   C1A16839  19.364  17.169   8.748
 1093POPC   D2A16840  19.167  17.278   8.363
 1093POPC   C3A16841  19.419  17.245   8.004
 1093POPC   C4A16842  19.153  17.242   7.657
 1093POPC   C1B16843  19.112  17.635   8.730
 1093POPC   C2B16844  18.845  17.696   8.374
 1093POPC   C3B16845  18.907  17.603   7.959
 1093POPC   C4B16846  18.940  17.937   7.726
 1094POPC   NC316847   6.813   9.369   9.570
 1094POPC   PO416848   6.550   8.766   9.740
 1094POPC   GL116849   6.613   8.718   9.235
 1094POPC   GL216850   6.658   9.068   9.140
 1094POPC   C1A16851   6.612   8.759   8.720
 1094POPC   D2A16852   6.492   9.089   8.360
 1094POPC   C3A16853   6.447   8.961   7.908
 1094POPC   C4A16854   6.713   8.667   7.705
 1094POPC   C1B16855   6.843   9.241   8.736
 1094POPC   C2B16856   7.055   9.140   8.384
 1094POPC   C3B16857   6.931   8.873   8.119
 1094POPC   C4B16858   6.902   9.143   7.773
 1095POPC   NC316859  25.862  41.854   9.577
 1095POPC   PO416860  25.241  41.409   9.520
 1095POPC   GL116861  25.379  41.670   9.230
 1095POPC   GL216862  25.703  41.564   9.211
 1095POPC   C1A16863  25.296  41.556   8.801
 1095POPC   D2A16864  25.055  41.422   8.448
 1095POPC   C3A16865  25.257  41.493   8.060
 1095POPC   C4A16866  25.078  41.706   7.719
 1095POPC   C1B16867  25.665  41.886   8.884
 1095POPC   C2B16868  25.604  41.871   8.463
 1095POPC   C3B16869  25.717  41.978   8.079
 1095POPC   C4B16870  25.605  41.745   7.694
 1096POPC   NC316871  25.192   2.847   9.602
 1096POPC   PO416872  25.830   2.623   9.611
 1096POPC   GL116873  25.524   2.599   9.244
 1096POPC   GL216874  25.185   2.707   9.110
 1096POPC   C1A16875  25.496   2.470   8.802
 1096POPC   D2A16876  25.356   2.382   8.376
 1096POPC   C3A16877  25.543   2.660   8.091
 1096POPC   C4A16878  25.344   2.965   7.903
 1096POPC   C1B16879  25.224   2.910   8.690
 1096POPC   C2B16880  24.933   3.058   8.381
 1096POPC   C3B16881  24.846   2.873   8.017
 1096POPC   C4B16882  24.715   3.013   7.660
 1097POPC   NC316883  15.574   0.807   9.397
 1097POPC   PO416884  15.039   0.462   9.438
 1097POPC   GL116885  15.329   0.431   9.124
 1097POPC   GL216886  15.690   0.333   9.194
 1097POPC   C1A16887  15.258   0.555   8.722
 1097POPC   D2A16888  15.040   0.458   8.374
 1097POPC   C3A16889  15.229   0.509   8.019
 1097POPC   C4A16890  14.996   0.574   7.643
 1097POPC   C1B16891  15.515   0.009   8.920
 1097POPC   C2B16892  15.214   0.020   8.581
 1097POPC   C3B16893  15.244   0.021   8.135
 1097POPC   C4B16894  15.153   0.093   7.707
 1098POPC   NC316895  13.064  42.747   9.282
 1098POPC   PO416896  12.493  43.006   9.351
 1098POPC   GL116897  12.813  43.169   9.073
 1098POPC   GL216898  13.108  43.386   9.113
 1098POPC   C1A16899  12.888  43.109   8.643
 1098POPC   D2A16900  12.578  43.030   8.322
 1098POPC   C3A16901  12.598  42.665   8.071
 1098POPC   C4A16902  12.842  42.881   7.786
 1098POPC   C1B16903  13.337  43.576   8.783
 1098POPC   C2B16904  13.298  43.323   8.408
 1098POPC   C3B16905  13.102  43.204   8.069
 1098POPC   C4B16906  12.858  43.390   7.769
 1099POPC   NC316907  24.208   9.932   9.564
 1099POPC   PO416908  24.711   9.502   9.520
 1099POPC   GL116909  24.470   9.581   9.180
 1099POPC   GL216910  24.191   9.802   9.068
 1099POPC   C1A16911  24.534   9.392   8.801
 1099POPC   D2A16912  24.535   9.227   8.401
 1099POPC   C3A16913  24.842   9.349   8.141
 1099POPC   C4A16914  24.617   9.358   7.801
 1099POPC   C1B16915  24.599   9.897   8.797
 1099POPC   C2B16916  24.573   9.767   8.397
 1099POPC   C3B16917  24.307   9.678   8.084
 1099POPC   C4B16918  24.565   9.855   7.778
 1100POPC   NC316919   2.198  40.373   9.428
 1100POPC   PO416920   2.031  39.747   9.463
 1100POPC   GL116921   1.830  39.961   9.121
 1100POPC   GL216922   1.799  40.324   9.097
 1100POPC   C1A16923   1.678  39.951   8.725
 1100POPC   D2A16924   2.000  39.757   8.481
 1100POPC   C3A16925   1.970  39.951   8.099
 1100POPC   C4A16926   2.126  39.845   7.693
 1100POPC   C1B16927   2.126  40.228   8.756
 1100POPC   C2B16928   2.227  40.502   8.389
 1100POPC   C3B16929   2.242  40.385   7.982
 1100POPC   C4B16930   1.894  40.287   7.707
 1101POPC   NC316931  30.520  43.619   9.801
 1101POPC   PO416932  30.449  43.986   9.198
 1101POPC   GL116933  30.588  43.832   8.870
 1101POPC   GL216934  30.906  43.749   9.124
 1101POPC   C1A16935  30.505  44.153   8.557
 1101POPC   D2A16936  30.543  44.164   8.148
 1101POPC   C3A16937  30.544  43.778   8.045
 1101POPC   C4A16938  30.888  43.597   7.953
 1101POPC   C1B16939  31.028  44.036   8.814
 1101POPC   C2B16940  30.973  43.890   8.397
 1101POPC   C3B16941  31.244  43.975   8.072
 1101POPC   C4B16942  31.131  44.335   7.862
 1102POPC   NC316943  41.948   1.990   9.463
 1102POPC   PO416944  41.266   1.733   9.507
 1102POPC   GL116945  41.522   1.910   9.187
 1102POPC   GL216946  41.826   1.706   9.055
 1102POPC   C1A16947  41.524   2.128   8.803
 1102POPC   D2A16948  41.585   1.906   8.421
 1102POPC   C3A16949  41.392   2.105   8.081
 1102POPC   C4A16950  41.452   2.177   7.674
 1102POPC   C1B16951  42.033   2.023   8.782
 1102POPC   C2B16952  42.121   2.013   8.351
 1102POPC   C3B16953  41.897   2.022   7.971
 1102POPC   C4B16954  41.843   1.626   7.756
 1103POPC   NC316955  30.865  27.250   9.727
 1103POPC   PO416956  30.551  27.716   9.270
 1103POPC   GL116957  30.889  27.603   9.051
 1103POPC   GL216958  31.083  27.400   9.213
 1103POPC   C1A16959  30.827  27.668   8.652
 1103POPC   D2A16960  30.563  27.650   8.361
 1103POPC   C3A16961  30.711  27.858   8.033
 1103POPC   C4A16962  30.543  27.713   7.657
 1103POPC   C1B16963  31.144  27.267   8.777
 1103POPC   C2B16964  30.903  27.207   8.376
 1103POPC   C3B16965  30.809  27.371   7.973
 1103POPC   C4B16966  31.063  27.645   7.695
 1104POPC   NC316967   1.765  30.408   9.575
 1104POPC   PO416968   2.272  30.836   9.398
 1104POPC   GL116969   1.888  30.740   9.155
 1104POPC   GL216970   1.670  30.423   9.092
 1104POPC   C1A16971   1.868  30.931   8.742
 1104POPC   D2A16972   2.048  30.974   8.334
 1104POPC   C3A16973   1.827  30.854   7.972
 1104POPC   C4A16974   1.924  30.899   7.565
 1104POPC   C1B16975   1.909  30.421   8.758
 1104POPC   C2B16976   1.774  30.538   8.398
 1104POPC   C3B16977   1.878  30.336   8.051
 1104POPC   C4B16978   1.838  30.404   7.653
 1105POPC   NC316979  39.506  15.877   9.479
 1105POPC   PO416980  40.188  16.147   9.490
 1105POPC   GL116981  39.904  16.044   9.165
 1105POPC   GL216982  39.650  16.311   9.206
 1105POPC   C1A16983  39.982  15.976   8.734
 1105POPC   D2A16984  40.217  15.995   8.363
 1105POPC   C3A16985  40.020  15.779   8.019
 1105POPC   C4A16986  40.114  16.057   7.703
 1105POPC   C1B16987  39.550  16.251   8.780
 1105POPC   C2B16988  39.678  16.101   8.332
 1105POPC   C3B16989  39.652  16.194   7.886
 1105POPC   C4B16990  39.641  15.928   7.506
 1106POPC   NC316991  43.257   8.795   9.471
 1106POPC   PO416992  42.867   9.250   9.274
 1106POPC   GL116993  43.020   8.858   9.017
 1106POPC   GL216994  43.395   8.854   8.987
 1106POPC   C1A16995  43.128   8.703   8.599
 1106POPC   D2A16996  42.986   8.961   8.261
 1106POPC   C3A16997  42.892   8.769   7.894
 1106POPC   C4A16998  43.273   8.795   7.721
 1106POPC   C1B16999  43.217   9.200   8.705
 1106POPC   C2B17000  43.018   9.456   8.403
 1106POPC   C3B17001  43.148   9.432   8.000
 1106POPC   C4B17002  42.864   9.238   7.763
 1107POPC   NC317003  41.384  13.718   9.868
 1107POPC   PO417004  41.841  13.999   9.484
 1107POPC   GL117005  41.705  13.680   9.202
 1107POPC   GL217006  41.346  13.619   9.216
 1107POPC   C1A17007  41.625  13.524   8.792
 1107POPC   D2A17008  41.477  13.649   8.404
 1107POPC   C3A17009  41.756  13.595   8.072
 1107POPC   C4A17010  41.888  13.250   7.801
 1107POPC   C1B17011  41.345  13.963   8.863
 1107POPC   C2B17012  41.148  14.043   8.443
 1107POPC   C3B17013  41.170  13.865   8.040
 1107POPC   C4B17014  41.469  13.871   7.752
 1108POPC   NC317015   6.005  33.610   9.466
 1108POPC   PO417016   5.665  34.140   9.384
 1108POPC   GL117017   5.709  33.926   8.988
 1108POPC   GL217018   5.985  33.648   8.960
 1108POPC   C1A17019   5.758  33.852   8.545
 1108POPC   D2A17020   6.182  33.825   8.365
 1108POPC   C3A17021   6.089  33.940   7.967
 1108POPC   C4A17022   5.663  34.067   8.033
 1108POPC   C1B17023   5.573  33.453   8.854
 1108POPC   C2B17024   5.396  33.439   8.459
 1108POPC   C3B17025   5.571  33.368   8.069
 1108POPC   C4B17026   5.699  33.632   7.742
 1109POPC   NC317027  21.241   6.605   9.686
 1109POPC   PO417028  21.638   7.033   9.433
 1109POPC   GL117029  21.314   6.753   9.189
 1109POPC   GL217030  21.536   6.821   8.964
 1109POPC   C1A17031  21.241   6.437   8.792
 1109POPC   D2A17032  21.281   6.367   8.287
 1109POPC   C3A17033  20.962   6.321   7.896
 1109POPC   C4A17034  21.012   6.436   7.419
 1109POPC   C1B17035  21.453   6.840   8.542
 1109POPC   C2B17036  21.754   6.701   8.270
 1109POPC   C3B17037  21.600   6.586   7.913
 1109POPC   C4B17038  21.201   6.759   7.804
 1110POPC   NC317039  16.902  19.639   9.517
 1110POPC   PO417040  17.115  20.266   9.275
 1110POPC   GL117041  16.816  19.953   9.106
 1110POPC   GL217042  16.467  19.857   9.271
 1110POPC   C1A17043  16.780  19.906   8.677
 1110POPC   D2A17044  17.034  19.852   8.349
 1110POPC   C3A17045  16.975  20.070   7.987
 1110POPC   C4A17046  16.828  19.828   7.614
 1110POPC   C1B17047  16.336  19.752   8.863
 1110POPC   C2B17048  16.380  19.720   8.430
 1110POPC   C3B17049  16.630  19.694   8.084
 1110POPC   C4B17050  16.346  19.702   7.748
 1111POPC   NC317051   4.406  13.648   9.582
 1111POPC   PO417052   3.915  13.348   9.602
 1111POPC   GL117053   4.096  13.508   9.177
 1111POPC   GL217054   4.446  13.665   9.084
 1111POPC   C1A17055   4.186  13.403   8.732
 1111POPC   D2A17056   4.361  13.706   8.419
 1111POPC   C3A17057   4.140  13.825   8.030
 1111POPC   C4A17058   4.042  13.470   7.767
 1111POPC   C1B17059   4.702  13.464   8.742
 1111POPC   C2B17060   4.811  13.510   8.289
 1111POPC   C3B17061   4.578  13.509   7.870
 1111POPC   C4B17062   4.532  13.599   7.390
 1112POPC   NC317063  39.226  36.266   9.613
 1112POPC   PO417064  39.281  36.910   9.577
 1112POPC   GL117065  39.496  37.078   9.224
 1112POPC   GL217066  39.170  37.169   9.080
 1112POPC   C1A17067  39.556  36.944   8.809
 1112POPC   D2A17068  39.269  37.024   8.459
 1112POPC   C3A17069  39.427  37.008   8.038
 1112POPC   C4A17070  39.150  37.158   7.762
 1112POPC   C1B17071  39.098  36.743   8.885
 1112POPC   C2B17072  39.103  36.535   8.489
 1112POPC   C3B17073  38.983  36.753   8.108
 1112POPC   C4B17074  38.966  36.708   7.654
 1113POPC   NC317075  22.920   6.752   9.535
 1113POPC   PO417076  23.411   6.344   9.345
 1113POPC   GL117077  23.041   6.503   9.099
 1113POPC   GL217078  22.722   6.357   9.220
 1113POPC   C1A17079  22.768   6.777   8.823
 1113POPC   D2A17080  22.816   7.055   8.434
 1113POPC   C3A17081  22.768   6.846   8.033
 1113POPC   C4A17082  23.077   6.535   7.832
 1113POPC   C1B17083  22.744   6.240   8.780
 1113POPC   C2B17084  22.824   6.463   8.382
 1113POPC   C3B17085  22.645   6.340   7.977
 1113POPC   C4B17086  22.656   6.364   7.459
 1114POPC   NC317087  36.486   6.568   9.548
 1114POPC   PO417088  37.110   6.722   9.657
 1114POPC   GL117089  37.068   6.609   9.180
 1114POPC   GL217090  36.693   6.582   9.060
 1114POPC   C1A17091  37.161   6.444   8.751
 1114POPC   D2A17092  36.905   6.372   8.332
 1114POPC   C3A17093  37.103   6.504   7.919
 1114POPC   C4A17094  37.193   6.794   7.571
 1114POPC   C1B17095  36.828   6.829   8.752
 1114POPC   C2B17096  36.893   6.875   8.341
 1114POPC   C3B17097  36.656   6.724   8.004
 1114POPC   C4B17098  36.462   6.316   7.950
 1115POPC   NC317099  13.061  34.629   9.512
 1115POPC   PO417100  13.277  34.184   9.134
 1115POPC   GL117101  12.975  34.498   9.012
 1115POPC   GL217102  12.640  34.537   9.197
 1115POPC   C1A17103  12.797  34.522   8.607
 1115POPC   D2A17104  12.664  34.534   8.190
 1115POPC   C3A17105  12.937  34.613   7.920
 1115POPC   C4A17106  13.052  34.197   8.045
 1115POPC   C1B17107  12.586  34.899   8.888
 1115POPC   C2B17108  12.435  34.874   8.466
 1115POPC   C3B17109  12.496  34.986   8.036
 1115POPC   C4B17110  12.628  34.909   7.620
 1116POPC   NC317111  31.720  44.033   9.684
 1116POPC   PO417112  31.069  43.782   9.645
 1116POPC   GL117113  31.393  43.875   9.304
 1116POPC   GL217114  31.731  43.676   9.304
 1116POPC   C1A17115  31.494  44.218   8.976
 1116POPC   D2A17116  31.410  44.173   8.526
 1116POPC   C3A17117  31.737  44.081   8.213
 1116POPC   C4A17118  31.763  43.950   7.765
 1116POPC   C1B17119  31.615  43.724   8.861
 1116POPC   C2B17120  31.491  43.671   8.440
 1116POPC   C3B17121  31.599  43.567   8.034
 1116POPC   C4B17122  31.299  43.424   7.723
 1117POPC   NC317123  22.450   7.203   9.582
 1117POPC   PO417124  22.065   7.700   9.591
 1117POPC   GL117125  22.206   7.460   9.194
 1117POPC   GL217126  21.928   7.303   9.101
 1117POPC   C1A17127  22.210   7.353   8.695
 1117POPC   D2A17128  22.196   7.490   8.268
 1117POPC   C3A17129  22.259   7.488   7.837
 1117POPC   C4A17130  22.312   7.157   7.507
 1117POPC   C1B17131  21.887   7.699   8.870
 1117POPC   C2B17132  21.825   7.813   8.444
 1117POPC   C3B17133  21.792   7.663   8.012
 1117POPC   C4B17134  21.644   7.792   7.603
 1118POPC   NC317135  19.271  19.358   9.500
 1118POPC   PO417136  18.791  18.837   9.491
 1118POPC   GL117137  18.889  19.025   9.179
 1118POPC   GL217138  19.237  18.962   9.137
 1118POPC   C1A17139  18.897  19.115   8.790
 1118POPC   D2A17140  19.097  19.076   8.416
 1118POPC   C3A17141  18.851  19.046   8.038
 1118POPC   C4A17142  18.889  18.797   7.652
 1118POPC   C1B17143  19.340  19.348   8.850
 1118POPC   C2B17144  19.310  19.532   8.427
 1118POPC   C3B17145  19.211  19.413   8.045
 1118POPC   C4B17146  19.164  19.214   7.684
 1119POPC   NC317147   0.233  26.240   9.564
 1119POPC   PO417148   0.650  25.776   9.834
 1119POPC   GL117149   0.539  25.883   9.336
 1119POPC   GL217150   0.564  26.273   9.183
 1119POPC   C1A17151   0.456  25.757   8.871
 1119POPC   D2A17152   0.415  25.906   8.393
 1119POPC   C3A17153   0.426  25.753   7.911
 1119POPC   C4A17154   0.560  25.839   7.455
 1119POPC   C1B17155   0.401  26.266   8.784
 1119POPC   C2B17156   0.259  26.397   8.386
 1119POPC   C3B17157   0.420  26.289   8.008
 1119POPC   C4B17158   0.236  26.185   7.648
 1120POPC   NC317159   8.183   2.194  10.048
 1120POPC   PO417160   8.052   1.887   9.462
 1120POPC   GL117161   8.362   2.071   9.153
 1120POPC   GL217162   8.088   2.012   8.967
 1120POPC   C1A17163   8.541   1.916   8.749
 1120POPC   D2A17164   8.451   1.697   8.363
 1120POPC   C3A17165   8.430   1.937   8.004
 1120POPC   C4A17166   8.257   1.782   7.633
 1120POPC   C1B17167   8.052   1.724   8.665
 1120POPC   C2B17168   8.027   1.955   8.321
 1120POPC   C3B17169   7.933   2.252   8.070
 1120POPC   C4B17170   7.959   2.200   7.674
 1121POPC   NC317171  43.471  23.684   9.478
 1121POPC   PO417172  44.125  23.947   9.604
 1121POPC   GL117173  43.920  23.825   9.176
 1121POPC   GL217174  44.010  23.479   9.034
 1121POPC   C1A17175  43.695  23.783   8.755
 1121POPC   D2A17176  43.839  23.636   8.295
 1121POPC   C3A17177  43.622  23.903   7.942
 1121POPC   C4A17178  43.586  24.036   7.466
 1121POPC   C1B17179  44.185  23.725   8.689
 1121POPC   C2B17180  44.337  23.837   8.289
 1121POPC   C3B17181  44.230  23.627   7.889
 1121POPC   C4B17182  44.194  23.388   7.514
 1122POPC   NC317183  33.272  19.980   9.523
 1122POPC   PO417184  33.918  19.772   9.514
 1122POPC   GL117185  33.732  19.942   9.176
 1122POPC   GL217186  33.510  19.673   9.165
 1122POPC   C1A17187  33.875  20.131   8.787
 1122POPC   D2A17188  33.978  19.942   8.390
 1122POPC   C3A17189  33.796  20.011   7.986
 1122POPC   C4A17190  34.029  19.956   7.566
 1122POPC   C1B17191  33.612  19.685   8.728
 1122POPC   C2B17192  33.438  19.891   8.367
 1122POPC   C3B17193  33.408  19.630   8.024
 1122POPC   C4B17194  33.747  19.567   7.750
 1123POPC   NC317195  12.410  11.163   9.537
 1123POPC   PO417196  13.038  11.280   9.506
 1123POPC   GL117197  12.986  11.255   9.086
 1123POPC   GL217198  12.694  11.114   9.113
 1123POPC   C1A17199  13.064  11.295   8.662
 1123POPC   D2A17200  12.883  11.170   8.294
 1123POPC   C3A17201  12.702  11.499   8.132
 1123POPC   C4A17202  12.743  11.640   7.712
 1123POPC   C1B17203  12.695  10.919   8.718
 1123POPC   C2B17204  12.879  10.650   8.407
 1123POPC   C3B17205  12.907  10.771   7.970
 1123POPC   C4B17206  12.632  11.116   7.816
 1124POPC   NC317207  23.353   1.797   9.551
 1124POPC   PO417208  23.933   2.257   9.608
 1124POPC   GL117209  23.725   2.071   9.272
 1124POPC   GL217210  23.953   1.794   9.229
 1124POPC   C1A17211  23.614   2.086   8.833
 1124POPC   D2A17212  23.692   2.369   8.475
 1124POPC   C3A17213  23.680   2.119   8.097
 1124POPC   C4A17214  23.798   2.181   7.680
 1124POPC   C1B17215  24.100   1.865   8.810
 1124POPC   C2B17216  23.902   1.743   8.428
 1124POPC   C3B17217  23.993   1.648   8.020
 1124POPC   C4B17218  23.658   1.706   7.763
 1125POPC   NC317219  19.876   5.985   9.523
 1125POPC   PO417220  19.395   5.393   9.581
 1125POPC   GL117221  19.585   5.729   9.207
 1125POPC   GL217222  19.941   5.795   9.073
 1125POPC   C1A17223  19.554   5.939   8.773
 1125POPC   D2A17224  19.670   6.068   8.335
 1125POPC   C3A17225  19.796   5.804   7.964
 1125POPC   C4A17226  19.727   5.795   7.496
 1125POPC   C1B17227  20.087   5.891   8.652
 1125POPC   C2B17228  20.376   6.172   8.401
 1125POPC   C3B17229  20.394   6.302   7.956
 1125POPC   C4B17230  20.144   6.053   7.635
 1126POPC   NC317231  44.141  14.180   9.631
 1126POPC   PO417232  43.622  14.601   9.499
 1126POPC   GL117233  43.794  14.478   9.140
 1126POPC   GL217234  44.085  14.416   9.168
 1126POPC   C1A17235  43.814  14.563   8.722
 1126POPC   D2A17236  44.106  14.623   8.417
 1126POPC   C3A17237  43.820  14.563   8.140
 1126POPC   C4A17238  43.990  14.505   7.798
 1126POPC   C1B17239  44.069  14.137   8.849
 1126POPC   C2B17240  43.968  14.137   8.449
 1126POPC   C3B17241  43.976  13.934   8.098
 1126POPC   C4B17242  43.998  14.001   7.712
 1127POPC   NC317243  16.491  32.788   9.846
 1127POPC   PO417244  15.934  33.028   9.525
 1127POPC   GL117245  15.963  33.106   9.140
 1127POPC   GL217246  15.618  33.225   9.106
 1127POPC   C1A17247  16.289  33.154   8.843
 1127POPC   D2A17248  16.282  33.330   8.459
 1127POPC   C3A17249  16.018  33.101   8.195
 1127POPC   C4A17250  16.007  33.117   7.763
 1127POPC   C1B17251  15.727  33.070   8.690
 1127POPC   C2B17252  15.625  32.794   8.348
 1127POPC   C3B17253  15.554  32.990   7.963
 1127POPC   C4B17254  15.477  33.406   7.807
 1128POPC   NC317255   2.287  24.537   9.398
 1128POPC   PO417256   1.737  24.213   9.566
 1128POPC   GL117257   1.770  24.377   9.167
 1128POPC   GL217258   2.045  24.177   9.134
 1128POPC   C1A17259   1.879  24.422   8.733
 1128POPC   D2A17260   1.926  24.801   8.489
 1128POPC   C3A17261   2.028  24.662   8.092
 1128POPC   C4A17262   1.901  24.489   7.702
 1128POPC   C1B17263   2.216  24.029   8.734
 1128POPC   C2B17264   2.166  24.192   8.323
 1128POPC   C3B17265   1.997  24.058   7.939
 1128POPC   C4B17266   2.102  24.071   7.492
 1129POPC   NC317267  36.240  31.028   9.735
 1129POPC   PO417268  36.408  30.495   9.304
 1129POPC   GL117269  36.114  30.793   9.165
 1129POPC   GL217270  36.353  30.972   8.942
 1129POPC   C1A17271  35.907  30.798   8.761
 1129POPC   D2A17272  36.166  30.956   8.419
 1129POPC   C3A17273  35.968  30.807   8.060
 1129POPC   C4A17274  36.059  30.789   7.644
 1129POPC   C1B17275  36.339  30.549   8.672
 1129POPC   C2B17276  36.199  30.337   8.281
 1129POPC   C3B17277  36.142  30.298   7.836
 1129POPC   C4B17278  36.336  30.346   7.442
 1130POPC   NC317279   3.937  29.499   9.204
 1130POPC   PO417280   4.310  29.210   9.702
 1130POPC   GL117281   4.348  29.121   9.252
 1130POPC   GL217282   4.055  28.940   9.102
 1130POPC   C1A17283   4.388  29.209   8.811
 1130POPC   D2A17284   4.553  29.199   8.412
 1130POPC   C3A17285   4.289  29.012   8.108
 1130POPC   C4A17286   4.392  29.108   7.689
 1130POPC   C1B17287   3.931  29.029   8.645
 1130POPC   C2B17288   3.766  29.015   8.203
 1130POPC   C3B17289   3.895  28.957   7.757
 1130POPC   C4B17290   4.078  28.984   7.318
 1131POPC   NC317291  29.737   6.937   9.380
 1131POPC   PO417292  30.227   6.528   9.583
 1131POPC   GL117293  30.058   6.386   9.172
 1131POPC   GL217294  30.006   6.715   9.026
 1131POPC   C1A17295  29.924   6.341   8.716
 1131POPC   D2A17296  29.934   6.620   8.329
 1131POPC   C3A17297  30.194   6.547   7.914
 1131POPC   C4A17298  30.093   6.393   7.459
 1131POPC   C1B17299  30.257   6.860   8.697
 1131POPC   C2B17300  30.208   7.083   8.300
 1131POPC   C3B17301  29.919   6.977   7.964
 1131POPC   C4B17302  29.873   6.886   7.508
 1132POPC   NC317303  42.935   5.867   9.695
 1132POPC   PO417304  42.471   6.386   9.489
 1132POPC   GL117305  42.213   6.055   9.232
 1132POPC   GL217306  42.451   5.815   9.179
 1132POPC   C1A17307  42.132   5.737   8.832
 1132POPC   D2A17308  42.236   5.931   8.463
 1132POPC   C3A17309  42.053   5.829   8.143
 1132POPC   C4A17310  42.005   5.860   7.745
 1132POPC   C1B17311  42.644   5.874   8.750
 1132POPC   C2B17312  42.851   5.677   8.443
 1132POPC   C3B17313  42.541   5.608   8.127
 1132POPC   C4B17314  42.448   5.574   7.717
 1133POPC   NC317315  21.176   2.930   9.280
 1133POPC   PO417316  20.554   2.566   9.450
 1133POPC   GL117317  20.507   2.823   9.094
 1133POPC   GL217318  20.430   3.213   9.167
 1133POPC   C1A17319  20.407   2.644   8.680
 1133POPC   D2A17320  20.613   2.746   8.306
 1133POPC   C3A17321  20.639   2.449   7.989
 1133POPC   C4A17322  21.011   2.432   7.754
 1133POPC   C1B17323  20.597   3.183   8.751
 1133POPC   C2B17324  20.394   3.194   8.366
 1133POPC   C3B17325  20.604   3.174   7.987
 1133POPC   C4B17326  20.701   2.875   7.722
 1134POPC   NC317327  12.706  28.375  10.080
 1134POPC   PO417328  13.075  28.520   9.530
 1134POPC   GL117329  12.836  28.573   9.143
 1134POPC   GL217330  12.823  28.254   9.085
 1134POPC   C1A17331  12.704  28.484   8.682
 1134POPC   D2A17332  12.568  28.182   8.358
 1134POPC   C3A17333  12.718  28.305   7.964
 1134POPC   C4A17334  12.953  28.666   7.827
 1134POPC   C1B17335  13.110  28.136   8.774
 1134POPC   C2B17336  13.066  28.290   8.368
 1134POPC   C3B17337  13.244  28.220   8.001
 1134POPC   C4B17338  13.213  27.991   7.669
 1135POPC   NC317339  42.793  25.084   9.508
 1135POPC   PO417340  43.260  25.501   9.590
 1135POPC   GL117341  43.192  25.301   9.217
 1135POPC   GL217342  42.912  25.486   9.161
 1135POPC   C1A17343  43.304  25.224   8.798
 1135POPC   D2A17344  43.475  25.020   8.440
 1135POPC   C3A17345  43.404  25.248   8.103
 1135POPC   C4A17346  43.335  25.228   7.688
 1135POPC   C1B17347  42.811  25.437   8.738
 1135POPC   C2B17348  42.955  25.183   8.410
 1135POPC   C3B17349  42.901  25.249   7.994
 1135POPC   C4B17350  42.644  25.238   7.671
 1136POPC   NC317351   2.113  36.820   9.561
 1136POPC   PO417352   2.345  37.418   9.322
 1136POPC   GL117353   2.319  37.067   9.032
 1136POPC   GL217354   2.175  36.744   9.060
 1136POPC   C1A17355   2.288  37.108   8.593
 1136POPC   D2A17356   1.940  37.153   8.331
 1136POPC   C3A17357   2.016  36.885   8.022
 1136POPC   C4A17358   2.054  36.574   7.703
 1136POPC   C1B17359   1.967  36.704   8.637
 1136POPC   C2B17360   1.977  36.441   8.248
 1136POPC   C3B17361   1.652  36.379   7.942
 1136POPC   C4B17362   1.629  36.317   7.480
 1137POPC   NC317363  18.621  22.064   9.587
 1137POPC   PO417364  18.082  21.673   9.356
 1137POPC   GL117365  18.286  22.080   9.102
 1137POPC   GL217366  18.677  22.158   9.069
 1137POPC   C1A17367  18.122  22.303   8.704
 1137POPC   D2A17368  18.237  22.473   8.276
 1137POPC   C3A17369  18.025  22.276   7.930
 1137POPC   C4A17370  17.864  21.948   7.636
 1137POPC   C1B17371  18.563  22.071   8.618
 1137POPC   C2B17372  18.524  22.081   8.168
 1137POPC   C3B17373  18.605  22.380   7.848
 1137POPC   C4B17374  18.601  22.535   7.395
 1138POPC   NC317375  42.795  17.573   9.468
 1138POPC   PO417376  43.238  17.139   9.229
 1138POPC   GL117377  43.055  17.508   9.035
 1138POPC   GL217378  43.265  17.773   9.015
 1138POPC   C1A17379  42.716  17.748   8.845
 1138POPC   D2A17380  42.603  17.773   8.434
 1138POPC   C3A17381  42.805  17.532   8.130
 1138POPC   C4A17382  42.959  17.704   7.713
 1138POPC   C1B17383  43.443  17.473   8.705
 1138POPC   C2B17384  43.232  17.309   8.368
 1138POPC   C3B17385  43.251  17.365   7.933
 1138POPC   C4B17386  43.283  17.362   7.473
 1139POPC   NC317387  30.838  28.079   9.204
 1139POPC   PO417388  30.335  28.438   9.405
 1139POPC   GL117389  30.389  28.539   9.019
 1139POPC   GL217390  30.732  28.623   9.065
 1139POPC   C1A17391  30.522  28.304   8.672
 1139POPC   D2A17392  30.398  28.162   8.301
 1139POPC   C3A17393  30.704  28.372   8.013
 1139POPC   C4A17394  30.851  28.144   7.638
 1139POPC   C1B17395  31.039  28.561   8.736
 1139POPC   C2B17396  31.026  28.717   8.333
 1139POPC   C3B17397  30.749  28.890   8.058
 1139POPC   C4B17398  30.834  28.769   7.660
 1140POPC   NC317399  17.712  16.027   9.494
 1140POPC   PO417400  17.040  15.770   9.686
 1140POPC   GL117401  17.244  15.812   9.233
 1140POPC   GL217402  17.175  16.125   8.974
 1140POPC   C1A17403  17.244  15.652   8.823
 1140POPC   D2A17404  17.322  15.877   8.434
 1140POPC   C3A17405  17.557  15.750   8.046
 1140POPC   C4A17406  17.662  15.712   7.580
 1140POPC   C1B17407  17.618  16.149   8.804
 1140POPC   C2B17408  17.733  16.210   8.387
 1140POPC   C3B17409  17.485  16.295   8.044
 1140POPC   C4B17410  17.708  16.246   7.708
 1141POPC   NC317411  37.851  39.215   9.504
 1141POPC   PO417412  37.445  39.721   9.350
 1141POPC   GL117413  37.647  39.482   9.050
 1141POPC   GL217414  37.621  39.108   9.072
 1141POPC   C1A17415  37.603  39.379   8.630
 1141POPC   D2A17416  37.782  39.463   8.247
 1141POPC   C3A17417  37.380  39.454   8.074
 1141POPC   C4A17418  37.244  39.432   7.670
 1141POPC   C1B17419  38.019  39.155   8.830
 1141POPC   C2B17420  38.225  39.212   8.407
 1141POPC   C3B17421  38.086  39.066   8.014
 1141POPC   C4B17422  37.717  39.215   7.777
 1142POPC   NC317423   5.107  44.605   9.722
 1142POPC   PO417424   5.319   0.038   9.288
 1142POPC   GL117425   5.189  44.689   9.062
 1142POPC   GL217426   5.227  44.414   9.249
 1142POPC   C1A17427   4.987  44.643   8.670
 1142POPC   D2A17428   4.780  44.906   8.380
 1142POPC   C3A17429   4.920  44.805   7.976
 1142POPC   C4A17430   5.332  44.572   7.814
 1142POPC   C1B17431   4.900  44.234   8.979
 1142POPC   C2B17432   4.872  44.136   8.532
 1142POPC   C3B17433   5.024  44.318   8.163
 1142POPC   C4B17434   4.856  44.354   7.753
 1143POPC   NC317435  35.714  17.241   9.491
 1143POPC   PO417436  35.048  17.417   9.449
 1143POPC   GL117437  35.218  17.524   9.067
 1143POPC   GL217438  35.552  17.488   9.034
 1143POPC   C1A17439  35.078  17.655   8.704
 1143POPC   D2A17440  35.193  17.758   8.316
 1143POPC   C3A17441  35.534  17.544   8.209
 1143POPC   C4A17442  35.551  17.581   7.798
 1143POPC   C1B17443  35.575  17.274   8.665
 1143POPC   C2B17444  35.832  17.137   8.315
 1143POPC   C3B17445  35.668  17.108   7.913
 1143POPC   C4B17446  35.530  17.194   7.444
 1144POPC   NC317447   4.190  28.534   9.601
 1144POPC   PO417448   4.516  27.978   9.747
 1144POPC   GL117449   4.416  28.214   9.291
 1144POPC   GL217450   4.462  28.595   9.119
 1144POPC   C1A17451   4.196  28.225   8.875
 1144POPC   D2A17452   4.310  28.045   8.486
 1144POPC   C3A17453   4.426  28.231   8.102
 1144POPC   C4A17454   4.288  28.134   7.662
 1144POPC   C1B17455   4.348  28.695   8.680
 1144POPC   C2B17456   4.025  28.567   8.370
 1144POPC   C3B17457   4.014  28.491   7.938
 1144POPC   C4B17458   4.400  28.615   7.732
 1145POPC   NC317459  18.159  34.302   9.507
 1145POPC   PO417460  18.390  34.963   9.531
 1145POPC   GL117461  18.157  34.701   9.167
 1145POPC   GL217462  18.274  34.351   9.015
 1145POPC   C1A17463  18.023  34.680   8.714
 1145POPC   D2A17464  18.010  34.436   8.305
 1145POPC   C3A17465  18.227  34.665   7.972
 1145POPC   C4A17466  18.208  34.676   7.505
 1145POPC   C1B17467  18.441  34.268   8.585
 1145POPC   C2B17468  18.632  34.381   8.175
 1145POPC   C3B17469  18.492  34.292   7.764
 1145POPC   C4B17470  18.631  34.391   7.396
 1146POPC   NC317471   9.723  31.642   9.590
 1146POPC   PO417472  10.070  31.170   9.246
 1146POPC   GL117473   9.862  31.524   9.119
 1146POPC   GL217474   9.514  31.462   9.160
 1146POPC   C1A17475   9.834  31.588   8.717
 1146POPC   D2A17476   9.950  31.373   8.364
 1146POPC   C3A17477  10.001  31.559   8.001
 1146POPC   C4A17478   9.905  31.312   7.693
 1146POPC   C1B17479   9.356  31.702   8.825
 1146POPC   C2B17480   9.424  31.478   8.420
 1146POPC   C3B17481   9.514  31.277   8.026
 1146POPC   C4B17482   9.406  31.371   7.590
 1147POPC   NC317483   1.356  17.216   9.574
 1147POPC   PO417484   0.891  17.698   9.550
 1147POPC   GL117485   1.140  17.549   9.174
 1147POPC   GL217486   1.477  17.396   9.112
 1147POPC   C1A17487   1.261  17.594   8.722
 1147POPC   D2A17488   1.300  17.410   8.353
 1147POPC   C3A17489   0.973  17.529   8.109
 1147POPC   C4A17490   1.079  17.371   7.755
 1147POPC   C1B17491   1.635  17.205   8.710
 1147POPC   C2B17492   1.682  17.052   8.273
 1147POPC   C3B17493   1.560  17.312   7.909
 1147POPC   C4B17494   1.448  17.193   7.456
 1148POPC   NC317495  30.141  10.273   9.408
 1148POPC   PO417496  29.622  10.775   9.652
 1148POPC   GL117497  29.884  10.709   9.272
 1148POPC   GL217498  29.592  10.758   9.123
 1148POPC   C1A17499  30.152  10.654   8.853
 1148POPC   D2A17500  30.293  10.563   8.381
 1148POPC   C3A17501  30.072  10.312   8.057
 1148POPC   C4A17502  29.613  10.090   7.996
 1148POPC   C1B17503  29.673  10.516   8.756
 1148POPC   C2B17504  29.733  10.582   8.332
 1148POPC   C3B17505  29.686  10.583   7.893
 1148POPC   C4B17506  30.032  10.576   7.616
 1149POPC   NC317507  11.386   3.952   9.503
 1149POPC   PO417508  11.087   4.570   9.533
 1149POPC   GL117509  11.193   4.741   9.139
 1149POPC   GL217510  11.399   4.479   9.076
 1149POPC   C1A17511  11.238   4.743   8.678
 1149POPC   D2A17512  11.248   4.355   8.470
 1149POPC   C3A17513  11.254   4.392   8.054
 1149POPC   C4A17514  11.181   4.088   7.782
 1149POPC   C1B17515  11.373   4.056   8.869
 1149POPC   C2B17516  11.597   3.863   8.519
 1149POPC   C3B17517  11.555   3.883   8.077
 1149POPC   C4B17518  11.690   4.208   7.774
 1150POPC   NC317519  16.457   4.795   9.488
 1150POPC   PO417520  16.958   5.295   9.544
 1150POPC   GL117521  16.739   5.176   9.196
 1150POPC   GL217522  16.895   4.866   9.160
 1150POPC   C1A17523  16.714   5.352   8.757
 1150POPC   D2A17524  16.845   5.262   8.322
 1150POPC   C3A17525  16.533   5.058   8.045
 1150POPC   C4A17526  16.523   5.075   7.617
 1150POPC   C1B17527  16.656   4.839   8.806
 1150POPC   C2B17528  16.717   4.746   8.393
 1150POPC   C3B17529  16.988   4.727   8.002
 1150POPC   C4B17530  17.021   4.705   7.522
 1151POPC   NC317531  40.825  32.469   9.789
 1151POPC   PO417532  40.981  32.294   9.252
 1151POPC   GL117533  40.742  32.295   8.947
 1151POPC   GL217534  40.555  31.991   8.941
 1151POPC   C1A17535  40.950  32.439   8.620
 1151POPC   D2A17536  41.093  32.245   8.280
 1151POPC   C3A17537  40.682  32.196   8.142
 1151POPC   C4A17538  40.534  32.371   7.792
 1151POPC   C1B17539  40.872  31.916   8.639
 1151POPC   C2B17540  40.915  31.754   8.240
 1151POPC   C3B17541  40.937  31.858   7.856
 1151POPC   C4B17542  41.039  32.281   7.735
 1152POPC   NC317543  26.818  15.300   9.602
 1152POPC   PO417544  26.845  14.675   9.633
 1152POPC   GL117545  26.993  14.962   9.254
 1152POPC   GL217546  26.669  15.084   9.144
 1152POPC   C1A17547  27.000  15.155   8.793
 1152POPC   D2A17548  26.817  14.907   8.431
 1152POPC   C3A17549  26.850  15.096   8.037
 1152POPC   C4A17550  27.120  15.256   7.729
 1152POPC   C1B17551  26.447  15.120   8.759
 1152POPC   C2B17552  26.524  15.349   8.392
 1152POPC   C3B17553  26.523  15.494   7.980
 1152POPC   C4B17554  26.659  15.485   7.547
 1153POPC   NC317555  12.726   6.576   9.593
 1153POPC   PO417556  13.231   6.321   9.240
 1153POPC   GL117557  12.979   6.652   9.149
 1153POPC   GL217558  13.237   6.933   9.138
 1153POPC   C1A17559  12.690   6.684   8.770
 1153POPC   D2A17560  12.817   6.806   8.319
 1153POPC   C3A17561  12.875   6.484   8.000
 1153POPC   C4A17562  12.551   6.443   7.699
 1153POPC   C1B17563  13.197   6.735   8.705
 1153POPC   C2B17564  13.301   6.588   8.313
 1153POPC   C3B17565  13.240   6.821   7.951
 1153POPC   C4B17566  13.213   6.824   7.534
 1154POPC   NC317567   6.989  22.007   9.239
 1154POPC   PO417568   7.553  22.091   9.564
 1154POPC   GL117569   7.446  22.196   9.171
 1154POPC   GL217570   7.728  22.174   9.083
 1154POPC   C1A17571   7.391  22.371   8.740
 1154POPC   D2A17572   7.035  22.449   8.476
 1154POPC   C3A17573   7.182  22.208   8.146
 1154POPC   C4A17574   7.282  22.403   7.778
 1154POPC   C1B17575   7.892  22.176   8.712
 1154POPC   C2B17576   7.674  22.175   8.352
 1154POPC   C3B17577   7.707  22.470   8.051
 1154POPC   C4B17578   7.816  22.421   7.650
 1155POPC   NC317579  16.954  32.086   9.521
 1155POPC   PO417580  16.812  32.746   9.502
 1155POPC   GL117581  16.915  32.465   9.182
 1155POPC   GL217582  16.606  32.299   9.104
 1155POPC   C1A17583  16.928  32.528   8.751
 1155POPC   D2A17584  16.694  32.345   8.426
 1155POPC   C3A17585  16.790  32.510   8.056
 1155POPC   C4A17586  16.637  32.379   7.668
 1155POPC   C1B17587  16.827  32.024   8.822
 1155POPC   C2B17588  16.741  31.831   8.411
 1155POPC   C3B17589  16.627  32.008   8.012
 1155POPC   C4B17590  16.780  31.888   7.600
 1156POPC   NC317591  32.689   6.821   9.817
 1156POPC   PO417592  33.156   6.473   9.654
 1156POPC   GL117593  32.911   6.627   9.321
 1156POPC   GL217594  33.192   6.495   9.130
 1156POPC   C1A17595  32.855   6.769   8.873
 1156POPC   D2A17596  32.849   6.610   8.436
 1156POPC   C3A17597  32.957   6.848   8.073
 1156POPC   C4A17598  32.843   6.575   7.766
 1156POPC   C1B17599  33.237   6.430   8.700
 1156POPC   C2B17600  33.372   6.633   8.311
 1156POPC   C3B17601  33.350   6.535   7.882
 1156POPC   C4B17602  33.236   6.503   7.448
 1157POPC   NC317603  41.464  23.090   9.534
 1157POPC   PO417604  41.878  22.616   9.760
 1157POPC   GL117605  41.723  22.754   9.271
 1157POPC   GL217606  41.771  23.137   9.121
 1157POPC   C1A17607  41.532  22.799   8.828
 1157POPC   D2A17608  41.504  23.168   8.518
 1157POPC   C3A17609  41.510  23.134   8.065
 1157POPC   C4A17610  41.346  22.878   7.730
 1157POPC   C1B17611  41.973  23.084   8.703
 1157POPC   C2B17612  41.814  22.799   8.369
 1157POPC   C3B17613  41.743  22.665   7.957
 1157POPC   C4B17614  41.839  22.551   7.520
 1158POPC   NC317615   6.153  37.812   9.581
 1158POPC   PO417616   5.459  37.721   9.648
 1158POPC   GL117617   5.708  37.772   9.245
 1158POPC   GL217618   5.884  38.101   9.203
 1158POPC   C1A17619   5.830  37.719   8.786
 1158POPC   D2A17620   5.976  37.547   8.370
 1158POPC   C3A17621   5.800  37.745   7.987
 1158POPC   C4A17622   5.926  37.612   7.575
 1158POPC   C1B17623   6.140  38.145   8.817
 1158POPC   C2B17624   6.005  38.077   8.396
 1158POPC   C3B17625   6.246  38.038   8.018
 1158POPC   C4B17626   6.394  37.699   7.743
 1159POPC   NC317627  36.501  37.873   9.321
 1159POPC   PO417628  35.984  37.645   9.648
 1159POPC   GL117629  36.077  37.599   9.200
 1159POPC   GL217630  36.051  37.926   9.046
 1159POPC   C1A17631  36.260  37.476   8.811
 1159POPC   D2A17632  36.131  37.312   8.415
 1159POPC   C3A17633  36.119  37.566   8.064
 1159POPC   C4A17634  36.047  37.334   7.708
 1159POPC   C1B17635  36.296  38.026   8.694
 1159POPC   C2B17636  36.162  38.116   8.289
 1159POPC   C3B17637  36.322  38.031   7.912
 1159POPC   C4B17638  36.541  37.928   7.570
 1160POPC   NC317639  30.186  30.446   9.594
 1160POPC   PO417640  29.620  30.898   9.484
 1160POPC   GL117641  29.912  30.796   9.174
 1160POPC   GL217642  29.960  30.466   9.141
 1160POPC   C1A17643  29.867  30.839   8.719
 1160POPC   D2A17644  29.579  30.755   8.358
 1160POPC   C3A17645  29.768  30.846   7.945
 1160POPC   C4A17646  29.845  30.741   7.490
 1160POPC   C1B17647  29.793  30.339   8.768
 1160POPC   C2B17648  29.885  30.275   8.348
 1160POPC   C3B17649  30.120  30.378   7.972
 1160POPC   C4B17650  30.018  30.275   7.555
 1161POPC   NC317651  33.495  30.316   9.545
 1161POPC   PO417652  33.640  30.888   9.498
 1161POPC   GL117653  33.883  30.634   9.175
 1161POPC   GL217654  34.236  30.483   9.079
 1161POPC   C1A17655  33.807  30.556   8.748
 1161POPC   D2A17656  33.740  30.831   8.409
 1161POPC   C3A17657  33.879  30.730   8.003
 1161POPC   C4A17658  33.825  30.862   7.590
 1161POPC   C1B17659  34.255  30.403   8.601
 1161POPC   C2B17660  34.213  30.342   8.152
 1161POPC   C3B17661  34.331  30.525   7.758
 1161POPC   C4B17662  34.170  30.446   7.347
 1162POPC   NC317663  33.433  23.101   9.614
 1162POPC   PO417664  33.996  22.761   9.713
 1162POPC   GL117665  33.979  22.987   9.298
 1162POPC   GL217666  33.625  22.988   9.153
 1162POPC   C1A17667  33.994  23.192   8.880
 1162POPC   D2A17668  33.654  23.166   8.600
 1162POPC   C3A17669  33.749  23.039   8.178
 1162POPC   C4A17670  33.735  22.957   7.737
 1162POPC   C1B17671  33.719  22.710   8.815
 1162POPC   C2B17672  33.712  22.402   8.485
 1162POPC   C3B17673  33.739  22.527   8.068
 1162POPC   C4B17674  33.664  22.451   7.655
 1163POPC   NC317675  36.187   5.680   9.199
 1163POPC   PO417676  36.205   6.156   9.706
 1163POPC   GL117677  36.271   6.211   9.193
 1163POPC   GL217678  35.987   6.075   8.922
 1163POPC   C1A17679  36.465   6.056   8.750
 1163POPC   D2A17680  36.282   5.712   8.438
 1163POPC   C3A17681  36.149   5.908   8.054
 1163POPC   C4A17682  35.941   6.102   7.719
 1163POPC   C1B17683  35.775   5.820   8.571
 1163POPC   C2B17684  35.640   5.787   8.115
 1163POPC   C3B17685  35.841   5.615   7.716
 1163POPC   C4B17686  35.987   5.712   7.296
 1164POPC   NC317687  28.790  41.803   9.480
 1164POPC   PO417688  28.149  41.807   9.390
 1164POPC   GL117689  28.447  41.580   9.170
 1164POPC   GL217690  28.427  41.246   9.182
 1164POPC   C1A17691  28.568  41.637   8.767
 1164POPC   D2A17692  28.469  41.907   8.402
 1164POPC   C3A17693  28.456  41.695   8.020
 1164POPC   C4A17694  28.068  41.671   7.805
 1164POPC   C1B17695  28.257  41.189   8.810
 1164POPC   C2B17696  28.298  41.386   8.414
 1164POPC   C3B17697  28.189  41.233   8.024
 1164POPC   C4B17698  28.470  41.123   7.736
 1165POPC   NC317699  31.858  31.102   9.529
 1165POPC   PO417700  31.354  31.525   9.715
 1165POPC   GL117701  31.565  31.590   9.287
 1165POPC   GL217702  31.651  31.275   9.091
 1165POPC   C1A17703  31.576  31.710   8.832
 1165POPC   D2A17704  31.565  31.463   8.429
 1165POPC   C3A17705  31.503  31.636   8.012
 1165POPC   C4A17706  31.642  31.749   7.600
 1165POPC   C1B17707  31.670  31.024   8.677
 1165POPC   C2B17708  31.511  30.854   8.282
 1165POPC   C3B17709  31.403  31.131   7.981
 1165POPC   C4B17710  31.760  31.262   7.781
 1166POPC   NC317711   3.199  24.947   9.400
 1166POPC   PO417712   3.695  25.497   9.401
 1166POPC   GL117713   3.644  25.137   9.175
 1166POPC   GL217714   3.341  25.290   9.065
 1166POPC   C1A17715   3.818  24.925   8.800
 1166POPC   D2A17716   3.958  25.156   8.407
 1166POPC   C3A17717   3.720  25.144   8.000
 1166POPC   C4A17718   3.501  25.106   7.582
 1166POPC   C1B17719   3.500  25.306   8.660
 1166POPC   C2B17720   3.298  25.323   8.267
 1166POPC   C3B17721   3.213  25.497   7.879
 1166POPC   C4B17722   3.167  25.511   7.407
 1167POPC   NC317723  30.523  34.086   9.584
 1167POPC   PO417724  30.724  33.436   9.753
 1167POPC   GL117725  30.668  33.492   9.307
 1167POPC   GL217726  30.329  33.654   9.282
 1167POPC   C1A17727  30.822  33.672   8.931
 1167POPC   D2A17728  30.823  33.660   8.502
 1167POPC   C3A17729  30.845  33.905   8.131
 1167POPC   C4A17730  30.860  33.876   7.696
 1167POPC   C1B17731  30.327  33.720   8.835
 1167POPC   C2B17732  30.401  33.935   8.472
 1167POPC   C3B17733  30.419  33.641   8.159
 1167POPC   C4B17734  30.306  33.836   7.800
 1168POPC   NC317735   8.110  25.882   9.409
 1168POPC   PO417736   8.198  26.483   9.426
 1168POPC   GL117737   8.372  26.169   9.062
 1168POPC   GL217738   8.210  25.862   8.919
 1168POPC   C1A17739   8.478  26.139   8.603
 1168POPC   D2A17740   8.205  25.859   8.361
 1168POPC   C3A17741   8.341  25.738   7.963
 1168POPC   C4A17742   8.345  26.012   7.616
 1168POPC   C1B17743   7.837  25.807   8.728
 1168POPC   C2B17744   7.672  25.873   8.331
 1168POPC   C3B17745   7.886  25.955   7.951
 1168POPC   C4B17746   7.948  25.681   7.616
 1169POPC   NC317747  28.869  38.865   9.300
 1169POPC   PO417748  29.217  38.239   9.512
 1169POPC   GL117749  29.139  38.275   9.112
 1169POPC   GL217750  28.813  38.389   9.123
 1169POPC   C1A17751  29.198  38.388   8.701
 1169POPC   D2A17752  29.049  38.588   8.365
 1169POPC   C3A17753  29.251  38.423   8.014
 1169POPC   C4A17754  29.175  38.522   7.612
 1169POPC   C1B17755  28.705  38.340   8.697
 1169POPC   C2B17756  28.809  38.153   8.302
 1169POPC   C3B17757  28.791  38.291   7.894
 1169POPC   C4B17758  28.616  38.168   7.566
 1170POPC   NC317759   0.114  23.624   9.393
 1170POPC   PO417760   0.776  23.428   9.396
 1170POPC   GL117761   0.540  23.545   9.071
 1170POPC   GL217762   0.551  23.883   9.131
 1170POPC   C1A17763   0.241  23.637   8.744
 1170POPC   D2A17764   0.397  23.780   8.371
 1170POPC   C3A17765   0.394  23.482   8.049
 1170POPC   C4A17766   0.733  23.366   7.791
 1170POPC   C1B17767   0.622  24.103   8.752
 1170POPC   C2B17768   0.738  24.190   8.326
 1170POPC   C3B17769   0.685  23.937   7.960
 1170POPC   C4B17770   0.224  23.963   7.927
 1171POPC   NC317771   4.385  10.677   9.802
 1171POPC   PO417772   4.672  10.102   9.621
 1171POPC   GL117773   4.410  10.271   9.275
 1171POPC   GL217774   4.344  10.652   9.275
 1171POPC   C1A17775   4.434  10.236   8.834
 1171POPC   D2A17776   4.468  10.584   8.531
 1171POPC   C3A17777   4.566  10.427   8.087
 1171POPC   C4A17778   4.571  10.370   7.613
 1171POPC   C1B17779   4.156  10.936   8.956
 1171POPC   C2B17780   4.184  11.054   8.528
 1171POPC   C3B17781   4.244  10.858   8.157
 1171POPC   C4B17782   4.208  10.657   7.799
 1172POPC   NC317783  13.575  26.580   9.692
 1172POPC   PO417784  13.789  27.198   9.468
 1172POPC   GL117785  13.663  26.896   9.151
 1172POPC   GL217786  13.584  26.517   9.188
 1172POPC   C1A17787  13.802  26.722   8.758
 1172POPC   D2A17788  13.928  26.679   8.345
 1172POPC   C3A17789  13.684  26.861   8.051
 1172POPC   C4A17790  13.621  26.617   7.731
 1172POPC   C1B17791  13.301  26.649   8.857
 1172POPC   C2B17792  13.353  26.817   8.453
 1172POPC   C3B17793  13.226  26.614   8.069
 1172POPC   C4B17794  13.111  26.774   7.675
 1173POPC   NC317795  31.839   0.768   9.796
 1173POPC   PO417796  31.361   0.386   9.546
 1173POPC   GL117797  31.271   0.409   9.137
 1173POPC   GL217798  31.596   0.262   9.104
 1173POPC   C1A17799  31.277   0.670   8.773
 1173POPC   D2A17800  31.620   0.627   8.491
 1173POPC   C3A17801  31.433   0.623   8.107
 1173POPC   C4A17802  31.628   0.744   7.743
 1173POPC   C1B17803  31.419   0.178   8.695
 1173POPC   C2B17804  31.646   0.009   8.351
 1173POPC   C3B17805  31.568  44.988   7.927
 1173POPC   C4B17806  31.294   0.303   7.720
 1174POPC   NC317807  28.847  24.394   9.440
 1174POPC   PO417808  29.478  24.698   9.606
 1174POPC   GL117809  29.256  24.665   9.174
 1174POPC   GL217810  29.551  24.550   9.129
 1174POPC   C1A17811  29.255  24.434   8.728
 1174POPC   D2A17812  29.123  24.461   8.292
 1174POPC   C3A17813  29.304  24.326   7.878
 1174POPC   C4A17814  29.380  24.288   7.397
 1174POPC   C1B17815  29.624  24.798   8.788
 1174POPC   C2B17816  29.441  24.854   8.404
 1174POPC   C3B17817  29.571  24.745   8.004
 1174POPC   C4B17818  29.406  24.762   7.620
 1175POPC   NC317819  15.455  41.367   9.491
 1175POPC   PO417820  14.959  41.789   9.497
 1175POPC   GL117821  15.069  41.501   9.187
 1175POPC   GL217822  14.762  41.308   9.189
 1175POPC   C1A17823  15.410  41.456   8.831
 1175POPC   D2A17824  15.372  41.281   8.406
 1175POPC   C3A17825  15.375  41.544   8.044
 1175POPC   C4A17826  15.147  41.683   7.701
 1175POPC   C1B17827  14.942  41.239   8.781
 1175POPC   C2B17828  14.877  41.095   8.368
 1175POPC   C3B17829  14.898  41.296   7.988
 1175POPC   C4B17830  14.862  41.274   7.536
 1176POPC   NC317831   2.810  19.496   9.414
 1176POPC   PO417832   3.057  18.968   9.619
 1176POPC   GL117833   2.779  18.995   9.236
 1176POPC   GL217834   2.752  18.676   9.088
 1176POPC   C1A17835   2.643  19.163   8.812
 1176POPC   D2A17836   2.639  19.438   8.429
 1176POPC   C3A17837   2.672  19.194   8.052
 1176POPC   C4A17838   2.914  19.164   7.676
 1176POPC   C1B17839   2.621  18.658   8.697
 1176POPC   C2B17840   2.765  18.737   8.290
 1176POPC   C3B17841   2.686  18.736   7.855
 1176POPC   C4B17842   2.819  18.691   7.432
 1177POPC   NC317843  38.260   4.985   9.469
 1177POPC   PO417844  38.338   5.645   9.356
 1177POPC   GL117845  38.254   5.375   9.071
 1177POPC   GL217846  37.945   5.285   9.222
 1177POPC   C1A17847  38.563   5.152   8.820
 1177POPC   D2A17848  38.642   4.893   8.464
 1177POPC   C3A17849  38.693   5.105   8.069
 1177POPC   C4A17850  38.708   4.917   7.670
 1177POPC   C1B17851  37.907   5.089   8.832
 1177POPC   C2B17852  38.177   5.117   8.464
 1177POPC   C3B17853  38.158   5.036   8.033
 1177POPC   C4B17854  37.965   5.183   7.661
 1178POPC   NC317855  28.183  35.046   9.704
 1178POPC   PO417856  28.419  34.382   9.685
 1178POPC   GL117857  28.435  34.611   9.235
 1178POPC   GL217858  28.183  34.910   9.213
 1178POPC   C1A17859  28.387  34.795   8.772
 1178POPC   D2A17860  28.239  34.558   8.388
 1178POPC   C3A17861  28.470  34.489   7.975
 1178POPC   C4A17862  28.327  34.309   7.562
 1178POPC   C1B17863  28.017  35.160   8.835
 1178POPC   C2B17864  28.077  35.074   8.383
 1178POPC   C3B17865  28.188  34.928   7.950
 1178POPC   C4B17866  28.113  34.776   7.514
 1179POPC   NC317867   8.415   4.011   9.449
 1179POPC   PO417868   8.027   4.655   9.438
 1179POPC   GL117869   8.206   4.400   9.139
 1179POPC   GL217870   8.052   4.046   9.084
 1179POPC   C1A17871   8.022   4.397   8.734
 1179POPC   D2A17872   8.140   4.379   8.339
 1179POPC   C3A17873   8.195   4.102   8.045
 1179POPC   C4A17874   8.366   4.353   7.756
 1179POPC   C1B17875   8.406   4.053   8.798
 1179POPC   C2B17876   8.614   4.161   8.423
 1179POPC   C3B17877   8.686   3.945   8.074
 1179POPC   C4B17878   8.500   3.884   7.678
 1180POPC   NC317879  42.015   6.468   9.519
 1180POPC   PO417880  42.163   7.063   9.403
 1180POPC   GL117881  42.266   6.782   9.092
 1180POPC   GL217882  42.594   6.662   9.089
 1180POPC   C1A17883  42.396   6.809   8.641
 1180POPC   D2A17884  42.572   6.864   8.237
 1180POPC   C3A17885  42.338   6.821   7.808
 1180POPC   C4A17886  42.461   6.903   7.346
 1180POPC   C1B17887  42.306   6.348   8.834
 1180POPC   C2B17888  42.091   6.430   8.447
 1180POPC   C3B17889  42.206   6.305   8.049
 1180POPC   C4B17890  42.299   6.300   7.648
 1181POPC   NC317891   1.802   5.504   9.569
 1181POPC   PO417892   2.301   6.018   9.592
 1181POPC   GL117893   1.945   5.992   9.259
 1181POPC   GL217894   1.659   5.771   9.159
 1181POPC   C1A17895   2.025   6.034   8.804
 1181POPC   D2A17896   2.057   6.219   8.399
 1181POPC   C3A17897   2.160   6.082   8.042
 1181POPC   C4A17898   1.993   6.100   7.680
 1181POPC   C1B17899   1.520   6.019   8.859
 1181POPC   C2B17900   1.552   5.901   8.465
 1181POPC   C3B17901   1.650   5.965   8.074
 1181POPC   C4B17902   1.514   5.857   7.694
 1182POPC   NC317903   9.187  20.718   9.534
 1182POPC   PO417904   8.584  20.437   9.559
 1182POPC   GL117905   8.734  20.685   9.219
 1182POPC   GL217906   9.039  20.601   9.058
 1182POPC   C1A17907   8.611  20.837   8.840
 1182POPC   D2A17908   8.797  20.650   8.490
 1182POPC   C3A17909   8.612  20.602   8.105
 1182POPC   C4A17910   8.822  20.524   7.729
 1182POPC   C1B17911   9.145  20.919   8.765
 1182POPC   C2B17912   9.085  21.075   8.370
 1182POPC   C3B17913   9.099  20.820   8.046
 1182POPC   C4B17914   9.322  20.517   7.797
 1183POPC   NC317915   4.531  20.360   9.525
 1183POPC   PO417916   4.090  20.870   9.506
 1183POPC   GL117917   4.243  20.623   9.167
 1183POPC   GL217918   3.972  20.361   9.145
 1183POPC   C1A17919   4.486  20.741   8.803
 1183POPC   D2A17920   4.459  20.579   8.383
 1183POPC   C3A17921   4.730  20.694   8.039
 1183POPC   C4A17922   4.501  20.717   7.641
 1183POPC   C1B17923   3.774  20.306   8.725
 1183POPC   C2B17924   3.963  20.282   8.340
 1183POPC   C3B17925   4.077  20.478   7.964
 1183POPC   C4B17926   4.158  20.336   7.532
 1184POPC   NC317927   9.576  27.939   9.419
 1184POPC   PO417928   9.634  28.637   9.528
 1184POPC   GL117929   9.747  28.362   9.176
 1184POPC   GL217930  10.085  28.325   9.065
 1184POPC   C1A17931   9.687  28.132   8.777
 1184POPC   D2A17932   9.625  28.305   8.362
 1184POPC   C3A17933   9.652  28.152   7.936
 1184POPC   C4A17934   9.689  28.518   7.662
 1184POPC   C1B17935  10.223  28.100   8.713
 1184POPC   C2B17936  10.111  28.125   8.287
 1184POPC   C3B17937  10.159  28.300   7.880
 1184POPC   C4B17938  10.020  28.195   7.456
 1185POPC   NC317939   5.692   6.037   9.515
 1185POPC   PO417940   6.031   5.569   9.284
 1185POPC   GL117941   5.834   5.867   9.019
 1185POPC   GL217942   5.475   5.976   9.064
 1185POPC   C1A17943   5.972   6.065   8.651
 1185POPC   D2A17944   5.832   6.107   8.250
 1185POPC   C3A17945   5.871   5.725   7.983
 1185POPC   C4A17946   6.090   5.498   7.601
 1185POPC   C1B17947   5.468   6.179   8.676
 1185POPC   C2B17948   5.286   6.065   8.293
 1185POPC   C3B17949   5.471   6.058   7.905
 1185POPC   C4B17950   5.505   6.196   7.481
 1186POPC   NC317951  21.747  23.579   9.561
 1186POPC   PO417952  21.044  23.770   9.501
 1186POPC   GL117953  21.382  23.702   9.221
 1186POPC   GL217954  21.432  23.355   9.175
 1186POPC   C1A17955  21.528  23.833   8.815
 1186POPC   D2A17956  21.652  23.962   8.399
 1186POPC   C3A17957  21.507  23.794   8.035
 1186POPC   C4A17958  21.608  23.431   7.779
 1186POPC   C1B17959  21.153  23.472   8.838
 1186POPC   C2B17960  21.276  23.559   8.461
 1186POPC   C3B17961  21.040  23.550   8.142
 1186POPC   C4B17962  21.115  23.654   7.741
 1187POPC   NC317963   1.827  16.946   9.302
 1187POPC   PO417964   2.282  16.529   9.635
 1187POPC   GL117965   2.223  16.622   9.182
 1187POPC   GL217966   2.278  16.971   9.098
 1187POPC   C1A17967   1.977  16.609   8.756
 1187POPC   D2A17968   1.723  16.490   8.378
 1187POPC   C3A17969   1.893  16.620   8.000
 1187POPC   C4A17970   1.734  16.879   7.727
 1187POPC   C1B17971   2.468  16.811   8.719
 1187POPC   C2B17972   2.284  16.717   8.333
 1187POPC   C3B17973   2.400  16.786   7.922
 1187POPC   C4B17974   2.210  16.853   7.502
 1188POPC   NC317975   6.433   0.658   9.468
 1188POPC   PO417976   6.187   0.031   9.300
 1188POPC   GL117977   6.418   0.349   9.074
 1188POPC   GL217978   6.753   0.419   9.098
 1188POPC   C1A17979   6.479   0.626   8.721
 1188POPC   D2A17980   6.552   0.495   8.290
 1188POPC   C3A17981   6.563   0.685   7.872
 1188POPC   C4A17982   6.564   0.348   7.497
 1188POPC   C1B17983   6.822   0.243   8.698
 1188POPC   C2B17984   6.914   0.112   8.296
 1188POPC   C3B17985   6.900   0.279   7.863
 1188POPC   C4B17986   7.048   0.251   7.390
 1189POPC   NC317987  38.883  14.892   9.507
 1189POPC   PO417988  39.364  15.417   9.454
 1189POPC   GL117989  39.073  15.212   9.157
 1189POPC   GL217990  39.041  14.831   9.035
 1189POPC   C1A17991  39.117  15.243   8.729
 1189POPC   D2A17992  39.099  14.921   8.420
 1189POPC   C3A17993  39.279  15.153   8.159
 1189POPC   C4A17994  39.378  15.163   7.789
 1189POPC   C1B17995  39.432  14.850   8.812
 1189POPC   C2B17996  39.614  14.768   8.404
 1189POPC   C3B17997  39.479  14.695   7.998
 1189POPC   C4B17998  39.049  14.737   7.859
 1190POPC   NC317999  20.824  28.103   9.420
 1190POPC   PO418000  20.524  28.710   9.597
 1190POPC   GL118001  20.619  28.533   9.226
 1190POPC   GL218002  20.867  28.710   9.128
 1190POPC   C1A18003  20.401  28.509   8.848
 1190POPC   D2A18004  20.351  28.330   8.474
 1190POPC   C3A18005  20.171  28.603   8.196
 1190POPC   C4A18006  20.349  28.575   7.811
 1190POPC   C1B18007  20.889  28.407   8.773
 1190POPC   C2B18008  21.041  28.507   8.357
 1190POPC   C3B18009  20.873  28.447   7.909
 1190POPC   C4B18010  20.851  28.223   7.500
 1191POPC   NC318011  16.542   5.547   9.545
 1191POPC   PO418012  16.937   6.087   9.531
 1191POPC   GL118013  16.749   6.035   9.148
 1191POPC   GL218014  16.840   5.681   9.150
 1191POPC   C1A18015  16.815   5.918   8.708
 1191POPC   D2A18016  17.135   5.745   8.432
 1191POPC   C3A18017  16.993   5.888   8.038
 1191POPC   C4A18018  16.609   5.972   7.841
 1191POPC   C1B18019  16.398   5.711   8.916
 1191POPC   C2B18020  16.276   5.748   8.450
 1191POPC   C3B18021  16.373   5.557   8.019
 1191POPC   C4B18022  16.801   5.457   7.823
 1192POPC   NC318023  31.195  32.661   9.528
 1192POPC   PO418024  31.584  33.181   9.650
 1192POPC   GL118025  31.474  33.001   9.267
 1192POPC   GL218026  31.502  33.312   9.139
 1192POPC   C1A18027  31.291  32.937   8.849
 1192POPC   D2A18028  31.197  33.144   8.455
 1192POPC   C3A18029  31.393  32.955   8.111
 1192POPC   C4A18030  31.227  32.980   7.691
 1192POPC   C1B18031  31.762  33.207   8.806
 1192POPC   C2B18032  32.003  33.150   8.433
 1192POPC   C3B18033  31.895  33.280   8.039
 1192POPC   C4B18034  31.718  33.100   7.716
 1193POPC   NC318035  30.600  27.244   9.303
 1193POPC   PO418036  31.311  27.147   9.584
 1193POPC   GL118037  31.020  26.906   9.202
 1193POPC   GL218038  30.788  26.616   9.165
 1193POPC   C1A18039  30.845  26.855   8.744
 1193POPC   D2A18040  31.008  26.692   8.348
 1193POPC   C3A18041  30.824  26.798   7.960
 1193POPC   C4A18042  30.444  27.029   7.852
 1193POPC   C1B18043  30.513  26.463   8.837
 1193POPC   C2B18044  30.512  26.610   8.414
 1193POPC   C3B18045  30.511  26.384   8.055
 1193POPC   C4B18046  30.415  26.543   7.702
 1194POPC   NC318047  17.415  11.820   9.386
 1194POPC   PO418048  17.779  12.245   9.496
 1194POPC   GL118049  17.561  12.292   9.124
 1194POPC   GL218050  17.820  12.498   8.987
 1194POPC   C1A18051  17.522  12.110   8.694
 1194POPC   D2A18052  17.278  12.074   8.276
 1194POPC   C3A18053  17.487  12.001   7.840
 1194POPC   C4A18054  17.413  11.812   7.415
 1194POPC   C1B18055  17.967  12.429   8.583
 1194POPC   C2B18056  17.836  12.210   8.219
 1194POPC   C3B18057  17.991  12.052   7.852
 1194POPC   C4B18058  17.945  11.693   7.542
 1195POPC   NC318059   2.673  27.323   9.564
 1195POPC   PO418060   3.039  27.920   9.602
 1195POPC   GL118061   2.723  27.704   9.239
 1195POPC   GL218062   2.820  27.398   9.100
 1195POPC   C1A18063   2.596  27.791   8.800
 1195POPC   D2A18064   2.741  27.753   8.342
 1195POPC   C3A18065   2.694  27.936   7.884
 1195POPC   C4A18066   2.663  28.012   7.420
 1195POPC   C1B18067   2.653  27.248   8.736
 1195POPC   C2B18068   2.545  27.193   8.311
 1195POPC   C3B18069   2.679  27.427   7.961
 1195POPC   C4B18070   2.635  27.523   7.545
 1196POPC   NC318071   3.060   0.884   9.388
 1196POPC   PO418072   2.898   0.254   9.514
 1196POPC   GL118073   2.882   0.247   9.089
 1196POPC   GL218074   3.195   0.447   9.125
 1196POPC   C1A18075   2.611   0.346   8.720
 1196POPC   D2A18076   2.470   0.247   8.278
 1196POPC   C3A18077   2.611   0.490   7.925
 1196POPC   C4A18078   2.809   0.293   7.546
 1196POPC   C1B18079   3.071   0.578   8.743
 1196POPC   C2B18080   2.964   0.470   8.324
 1196POPC   C3B18081   3.123   0.540   7.910
 1196POPC   C4B18082   3.120   0.759   7.513
 1197POPC   NC318083   9.396  21.510  10.108
 1197POPC   PO418084   9.878  21.283   9.584
 1197POPC   GL118085   9.833  21.436   9.150
 1197POPC   GL218086   9.643  21.757   9.099
 1197POPC   C1A18087   9.906  21.455   8.716
 1197POPC   D2A18088  10.035  21.231   8.364
 1197POPC   C3A18089   9.915  21.394   7.958
 1197POPC   C4A18090   9.836  21.308   7.537
 1197POPC   C1B18091   9.578  21.854   8.669
 1197POPC   C2B18092   9.592  21.739   8.216
 1197POPC   C3B18093   9.514  21.665   7.758
 1197POPC   C4B18094   9.486  21.825   7.286
 1198POPC   NC318095  33.488   5.160   9.321
 1198POPC   PO418096  32.943   4.824   9.337
 1198POPC   GL118097  33.001   5.209   9.130
 1198POPC   GL218098  33.229   4.995   8.923
 1198POPC   C1A18099  33.097   5.429   8.716
 1198POPC   D2A18100  33.255   5.150   8.372
 1198POPC   C3A18101  33.067   5.148   7.962
 1198POPC   C4A18102  33.218   5.058   7.546
 1198POPC   C1B18103  32.949   4.800   8.654
 1198POPC   C2B18104  32.913   4.740   8.245
 1198POPC   C3B18105  33.118   4.620   7.893
 1198POPC   C4B18106  33.056   4.544   7.459
 1199POPC   NC318107   6.804  35.559   9.480
 1199POPC   PO418108   6.320  35.169   9.596
 1199POPC   GL118109   6.519  35.136   9.156
 1199POPC   GL218110   6.816  35.324   9.050
 1199POPC   C1A18111   6.640  34.987   8.743
 1199POPC   D2A18112   6.758  35.283   8.442
 1199POPC   C3A18113   6.422  35.236   8.150
 1199POPC   C4A18114   6.635  35.193   7.784
 1199POPC   C1B18115   6.450  35.509   8.814
 1199POPC   C2B18116   6.524  35.755   8.445
 1199POPC   C3B18117   6.707  35.645   8.047
 1199POPC   C4B18118   6.702  35.776   7.622
 1200POPC   NC318119  42.204  29.819   9.622
 1200POPC   PO418120  42.361  30.437   9.748
 1200POPC   GL118121  42.515  30.048   9.313
 1200POPC   GL218122  42.347  29.660   9.174
 1200POPC   C1A18123  42.404  30.016   8.833
 1200POPC   D2A18124  42.226  30.175   8.436
 1200POPC   C3A18125  42.421  30.097   8.046
 1200POPC   C4A18126  42.289  30.177   7.592
 1200POPC   C1B18127  42.472  29.495   8.807
 1200POPC   C2B18128  42.381  29.675   8.441
 1200POPC   C3B18129  42.300  29.559   8.080
 1200POPC   C4B18130  42.410  29.705   7.698
 1201POPC   NC318131  22.871  15.905   9.891
 1201POPC   PO418132  23.023  16.269   9.346
 1201POPC   GL118133  22.820  16.127   9.030
 1201POPC   GL218134  22.840  15.810   9.185
 1201POPC   C1A18135  22.794  16.127   8.572
 1201POPC   D2A18136  23.019  15.949   8.274
 1201POPC   C3A18137  22.949  16.063   7.875
 1201POPC   C4A18138  23.216  15.874   7.562
 1201POPC   C1B18139  22.888  15.660   8.778
 1201POPC   C2B18140  22.637  15.650   8.408
 1201POPC   C3B18141  22.784  15.554   8.003
 1201POPC   C4B18142  22.788  15.632   7.592
 1202POPC   NC318143  12.167  43.329   9.327
 1202POPC   PO418144  11.756  42.794   9.445
 1202POPC   GL118145  12.007  42.914   9.067
 1202POPC   GL218146  12.345  42.880   8.899
 1202POPC   C1A18147  11.919  43.118   8.701
 1202POPC   D2A18148  12.071  43.038   8.303
 1202POPC   C3A18149  11.939  43.268   7.975
 1202POPC   C4A18150  11.818  43.079   7.629
 1202POPC   C1B18151  12.395  43.311   8.721
 1202POPC   C2B18152  12.227  43.549   8.391
 1202POPC   C3B18153  12.408  43.457   8.006
 1202POPC   C4B18154  12.362  43.045   7.807
 1203POPC   NC318155  17.116  33.175   9.519
 1203POPC   PO418156  17.710  32.922   9.682
 1203POPC   GL118157  17.557  33.012   9.231
 1203POPC   GL218158  17.215  32.883   9.121
 1203POPC   C1A18159  17.524  33.244   8.799
 1203POPC   D2A18160  17.603  33.422   8.331
 1203POPC   C3A18161  17.566  33.227   7.929
 1203POPC   C4A18162  17.207  33.226   7.673
 1203POPC   C1B18163  17.470  32.731   8.779
 1203POPC   C2B18164  17.500  32.900   8.362
 1203POPC   C3B18165  17.156  32.905   8.073
 1203POPC   C4B18166  17.041  32.726   7.668
 1204POPC   NC318167   7.830  12.921   9.480
 1204POPC   PO418168   7.214  12.536   9.439
 1204POPC   GL118169   7.416  12.687   9.091
 1204POPC   GL218170   7.468  13.049   9.123
 1204POPC   C1A18171   7.296  12.855   8.675
 1204POPC   D2A18172   7.195  12.691   8.262
 1204POPC   C3A18173   7.421  12.877   7.917
 1204POPC   C4A18174   7.511  13.111   7.513
 1204POPC   C1B18175   7.803  12.885   8.849
 1204POPC   C2B18176   7.852  12.926   8.456
 1204POPC   C3B18177   7.925  12.696   8.129
 1204POPC   C4B18178   7.912  12.864   7.740
 1205POPC   NC318179  24.287  33.409   9.547
 1205POPC   PO418180  24.823  33.746   9.368
 1205POPC   GL118181  24.419  33.821   9.188
 1205POPC   GL218182  24.292  33.516   9.039
 1205POPC   C1A18183  24.314  34.024   8.794
 1205POPC   D2A18184  24.132  33.982   8.354
 1205POPC   C3A18185  24.252  33.797   7.993
 1205POPC   C4A18186  24.457  34.027   7.739
 1205POPC   C1B18187  24.617  33.625   8.713
 1205POPC   C2B18188  24.672  33.748   8.281
 1205POPC   C3B18189  24.744  33.612   7.861
 1205POPC   C4B18190  24.937  33.378   7.538
 1206POPC   NC318191  10.941  12.321   9.795
 1206POPC   PO418192  10.522  11.844   9.531
 1206POPC   GL118193  10.574  11.787   9.103
 1206POPC   GL218194  10.243  11.896   9.087
 1206POPC   C1A18195  10.700  11.956   8.680
 1206POPC   D2A18196  10.548  12.248   8.346
 1206POPC   C3A18197  10.734  12.158   7.925
 1206POPC   C4A18198  10.599  12.242   7.504
 1206POPC   C1B18199  10.230  12.149   8.745
 1206POPC   C2B18200  10.099  11.981   8.352
 1206POPC   C3B18201  10.216  12.037   7.922
 1206POPC   C4B18202  10.043  11.761   7.603
 1207POPC   NC318203  36.444   8.034   9.460
 1207POPC   PO418204  35.828   8.347   9.333
 1207POPC   GL118205  36.074   8.142   9.110
 1207POPC   GL218206  36.324   8.388   9.105
 1207POPC   C1A18207  36.005   7.893   8.776
 1207POPC   D2A18208  36.241   7.872   8.414
 1207POPC   C3A18209  36.018   7.968   8.051
 1207POPC   C4A18210  36.214   7.917   7.654
 1207POPC   C1B18211  36.506   8.334   8.725
 1207POPC   C2B18212  36.411   8.546   8.364
 1207POPC   C3B18213  36.321   8.383   7.992
 1207POPC   C4B18214  36.491   8.365   7.623
 1208POPC   NC318215   1.212  13.387   9.486
 1208POPC   PO418216   0.823  13.944   9.697
 1208POPC   GL118217   0.960  14.010   9.193
 1208POPC   GL218218   1.302  13.848   9.164
 1208POPC   C1A18219   1.021  13.813   8.724
 1208POPC   D2A18220   1.265  13.528   8.427
 1208POPC   C3A18221   1.182  13.616   7.978
 1208POPC   C4A18222   1.342  13.477   7.593
 1208POPC   C1B18223   1.456  14.063   8.772
 1208POPC   C2B18224   1.322  14.030   8.295
 1208POPC   C3B18225   1.436  14.028   7.823
 1208POPC   C4B18226   1.430  13.909   7.360
 1209POPC   NC318227   0.003  16.582   9.638
 1209POPC   PO418228   0.602  16.951   9.632
 1209POPC   GL118229   0.352  17.019   9.253
 1209POPC   GL218230   0.426  16.719   9.096
 1209POPC   C1A18231   0.392  17.109   8.785
 1209POPC   D2A18232   0.458  16.838   8.419
 1209POPC   C3A18233   0.319  16.949   8.029
 1209POPC   C4A18234   0.474  16.748   7.616
 1209POPC   C1B18235   0.174  16.619   8.776
 1209POPC   C2B18236   0.084  16.481   8.378
 1209POPC   C3B18237   0.259  16.447   7.987
 1209POPC   C4B18238   0.112  16.352   7.598
 1210POPC   NC318239   0.880  30.929   9.294
 1210POPC   PO418240   1.383  30.681   9.629
 1210POPC   GL118241   1.367  30.805   9.218
 1210POPC   GL218242   1.165  30.509   9.152
 1210POPC   C1A18243   1.400  30.722   8.760
 1210POPC   D2A18244   1.144  30.702   8.407
 1210POPC   C3A18245   1.386  30.638   8.066
 1210POPC   C4A18246   1.412  30.690   7.614
 1210POPC   C1B18247   0.933  30.401   8.803
 1210POPC   C2B18248   0.969  30.201   8.440
 1210POPC   C3B18249   0.957  30.332   8.055
 1210POPC   C4B18250   0.912  30.762   7.921
 1211POPC   NC318251  19.433  36.396   9.789
 1211POPC   PO418252  18.763  36.186   9.679
 1211POPC   GL118253  18.826  36.262   9.230
 1211POPC   GL218254  18.886  35.927   9.182
 1211POPC   C1A18255  19.062  36.258   8.820
 1211POPC   D2A18256  19.168  36.095   8.425
 1211POPC   C3A18257  19.222  36.385   8.083
 1211POPC   C4A18258  19.126  36.230   7.697
 1211POPC   C1B18259  18.888  35.768   8.778
 1211POPC   C2B18260  18.668  35.907   8.425
 1211POPC   C3B18261  18.783  36.043   8.034
 1211POPC   C4B18262  18.612  36.069   7.647
 1212POPC   NC318263  31.975  44.900   9.472
 1212POPC   PO418264  32.606  44.624   9.378
 1212POPC   GL118265  32.339  44.808   9.092
 1212POPC   GL218266  32.101  44.529   9.105
 1212POPC   C1A18267  32.200  44.791   8.669
 1212POPC   D2A18268  32.228  44.493   8.362
 1212POPC   C3A18269  32.041  44.664   8.018
 1212POPC   C4A18270  32.178   0.028   7.828
 1212POPC   C1B18271  32.462  44.352   8.805
 1212POPC   C2B18272  32.732  44.521   8.454
 1212POPC   C3B18273  32.624  44.492   8.008
 1212POPC   C4B18274  32.655  44.219   7.656
 1213POPC   NC318275  42.165   2.670   9.684
 1213POPC   PO418276  42.740   2.969   9.530
 1213POPC   GL118277  42.365   2.818   9.232
 1213POPC   GL218278  42.139   3.077   9.122
 1213POPC   C1A18279  42.238   2.566   8.855
 1213POPC   D2A18280  41.903   2.477   8.544
 1213POPC   C3A18281  42.096   2.482   8.147
 1213POPC   C4A18282  42.357   2.661   7.870
 1213POPC   C1B18283  42.383   3.042   8.728
 1213POPC   C2B18284  42.445   2.908   8.326
 1213POPC   C3B18285  42.332   3.158   7.990
 1213POPC   C4B18286  42.263   3.065   7.577
 1214POPC   NC318287  37.099  37.721   9.772
 1214POPC   PO418288  36.593  37.446   9.465
 1214POPC   GL118289  36.897  37.572   9.174
 1214POPC   GL218290  37.231  37.488   9.280
 1214POPC   C1A18291  36.792  37.729   8.748
 1214POPC   D2A18292  36.540  37.617   8.385
 1214POPC   C3A18293  36.748  37.731   8.004
 1214POPC   C4A18294  37.081  37.946   7.840
 1214POPC   C1B18295  37.213  37.349   8.829
 1214POPC   C2B18296  37.099  37.509   8.394
 1214POPC   C3B18297  37.232  37.382   7.973
 1214POPC   C4B18298  37.033  37.187   7.600
 1215POPC   NC318299  19.914  37.174   9.384
 1215POPC   PO418300  19.971  36.510   9.372
 1215POPC   GL118301  19.906  36.782   9.027
 1215POPC   GL218302  19.559  36.940   9.040
 1215POPC   C1A18303  19.755  36.674   8.625
 1215POPC   D2A18304  19.548  36.756   8.242
 1215POPC   C3A18305  19.813  36.823   7.894
 1215POPC   C4A18306  20.266  36.875   7.940
 1215POPC   C1B18307  19.730  37.170   8.699
 1215POPC   C2B18308  19.955  37.082   8.328
 1215POPC   C3B18309  19.967  37.301   7.924
 1215POPC   C4B18310  19.960  37.315   7.445
 1216POPC   NC318311  18.448  36.237  10.058
 1216POPC   PO418312  18.075  36.548   9.522
 1216POPC   GL118313  18.279  36.309   9.202
 1216POPC   GL218314  18.381  35.991   9.337
 1216POPC   C1A18315  18.125  36.227   8.800
 1216POPC   D2A18316  18.296  36.341   8.389
 1216POPC   C3A18317  18.070  36.441   8.013
 1216POPC   C4A18318  18.264  36.433   7.656
 1216POPC   C1B18319  18.386  35.806   8.902
 1216POPC   C2B18320  18.148  35.836   8.467
 1216POPC   C3B18321  18.251  35.958   8.019
 1216POPC   C4B18322  18.115  35.949   7.552
 1217POPC   NC318323  16.823  26.263   9.489
 1217POPC   PO418324  16.307  25.939   9.279
 1217POPC   GL118325  16.701  25.878   9.170
 1217POPC   GL218326  16.669  26.199   9.018
 1217POPC   C1A18327  16.805  25.800   8.770
 1217POPC   D2A18328  16.672  25.705   8.357
 1217POPC   C3A18329  16.949  25.580   8.049
 1217POPC   C4A18330  16.830  25.797   7.706
 1217POPC   C1B18331  16.994  26.269   8.736
 1217POPC   C2B18332  17.201  26.318   8.343
 1217POPC   C3B18333  16.994  26.186   7.988
 1217POPC   C4B18334  16.712  26.392   7.697
 1218POPC   NC318335   9.942  40.165   9.657
 1218POPC   PO418336  10.042  39.541   9.498
 1218POPC   GL118337  10.091  39.932   9.196
 1218POPC   GL218338   9.776  40.127   9.177
 1218POPC   C1A18339  10.004  39.987   8.726
 1218POPC   D2A18340   9.944  39.802   8.300
 1218POPC   C3A18341   9.833  39.937   7.858
 1218POPC   C4A18342  10.108  39.903   7.492
 1218POPC   C1B18343   9.627  39.768   9.003
 1218POPC   C2B18344   9.536  39.713   8.595
 1218POPC   C3B18345   9.448  39.752   8.173
 1218POPC   C4B18346   9.242  39.895   7.824
 1219POPC   NC318347  21.684  28.549   9.617
 1219POPC   PO418348  21.260  28.035   9.550
 1219POPC   GL118349  21.246  28.281   9.176
 1219POPC   GL218350  21.571  28.373   9.163
 1219POPC   C1A18351  21.335  28.170   8.762
 1219POPC   D2A18352  21.505  28.268   8.409
 1219POPC   C3A18353  21.296  28.179   8.078
 1219POPC   C4A18354  21.292  28.106   7.705
 1219POPC   C1B18355  21.771  28.457   8.793
 1219POPC   C2B18356  21.929  28.588   8.397
 1219POPC   C3B18357  21.745  28.468   8.010
 1219POPC   C4B18358  21.811  28.128   7.743
 1220POPC   NC318359   6.520  30.291   9.478
 1220POPC   PO418360   6.847  29.641   9.442
 1220POPC   GL118361   6.577  29.868   9.180
 1220POPC   GL218362   6.865  30.075   9.145
 1220POPC   C1A18363   6.494  30.108   8.782
 1220POPC   D2A18364   6.539  29.935   8.371
 1220POPC   C3A18365   6.497  30.144   7.985
 1220POPC   C4A18366   6.573  30.038   7.573
 1220POPC   C1B18367   6.886  29.781   8.761
 1220POPC   C2B18368   6.918  29.589   8.318
 1220POPC   C3B18369   6.828  29.680   7.881
 1220POPC   C4B18370   6.874  29.672   7.406
 1221POPC   NC318371  16.394  34.999   9.696
 1221POPC   PO418372  16.482  35.676   9.553
 1221POPC   GL118373  16.621  35.478   9.152
 1221POPC   GL218374  16.703  35.142   9.306
 1221POPC   C1A18375  16.701  35.625   8.698
 1221POPC   D2A18376  16.717  35.513   8.248
 1221POPC   C3A18377  16.738  35.719   7.897
 1221POPC   C4A18378  16.591  35.416   7.679
 1221POPC   C1B18379  16.936  35.031   8.939
 1221POPC   C2B18380  16.957  35.179   8.538
 1221POPC   C3B18381  16.903  35.067   8.102
 1221POPC   C4B18382  17.033  35.125   7.670
 1222POPC   NC318383  26.933  38.542   9.377
 1222POPC   PO418384  26.928  37.879   9.452
 1222POPC   GL118385  26.786  37.984   9.060
 1222POPC   GL218386  27.082  38.187   9.038
 1222POPC   C1A18387  26.601  38.293   8.763
 1222POPC   D2A18388  26.490  38.597   8.418
 1222POPC   C3A18389  26.743  38.538   8.042
 1222POPC   C4A18390  26.758  38.691   7.651
 1222POPC   C1B18391  27.155  38.269   8.625
 1222POPC   C2B18392  26.849  38.138   8.333
 1222POPC   C3B18393  26.736  38.027   7.914
 1222POPC   C4B18394  26.903  38.215   7.545
 1223POPC   NC318395  34.916  31.516   9.558
 1223POPC   PO418396  35.517  31.570   9.464
 1223POPC   GL118397  35.416  31.431   9.095
 1223POPC   GL218398  35.139  31.226   9.195
 1223POPC   C1A18399  35.446  31.523   8.646
 1223POPC   D2A18400  35.535  31.807   8.276
 1223POPC   C3A18401  35.395  31.718   7.839
 1223POPC   C4A18402  35.549  31.678   7.421
 1223POPC   C1B18403  34.957  31.097   8.870
 1223POPC   C2B18404  35.019  31.241   8.494
 1223POPC   C3B18405  35.269  31.374   8.182
 1223POPC   C4B18406  35.097  31.307   7.739
 1224POPC   NC318407  24.050  42.139   9.536
 1224POPC   PO418408  24.711  42.210   9.294
 1224POPC   GL118409  24.502  42.512   9.065
 1224POPC   GL218410  24.167  42.358   9.060
 1224POPC   C1A18411  24.450  42.474   8.625
 1224POPC   D2A18412  24.209  42.464   8.247
 1224POPC   C3A18413  24.435  42.479   7.841
 1224POPC   C4A18414  24.249  42.676   7.457
 1224POPC   C1B18415  24.195  42.048   8.731
 1224POPC   C2B18416  24.045  41.908   8.361
 1224POPC   C3B18417  24.201  42.005   7.974
 1224POPC   C4B18418  24.020  41.919   7.591
 1225POPC   NC318419  44.392  13.224   9.549
 1225POPC   PO418420  44.880  13.666   9.515
 1225POPC   GL118421  44.594  13.653   9.161
 1225POPC   GL218422  44.367  13.945   9.200
 1225POPC   C1A18423  44.578  13.522   8.716
 1225POPC   D2A18424  44.773  13.743   8.340
 1225POPC   C3A18425  44.838  13.523   7.923
 1225POPC   C4A18426  44.924  13.146   7.701
 1225POPC   C1B18427  44.555  14.027   8.752
 1225POPC   C2B18428  44.465  14.156   8.317
 1225POPC   C3B18429  44.461  13.876   7.958
 1225POPC   C4B18430  44.315  13.473   7.811
 1226POPC   NC318431   4.364   0.142  10.122
 1226POPC   PO418432   4.463   0.175   9.387
 1226POPC   GL118433   4.601   0.436   9.031
 1226POPC   GL218434   4.454   0.735   9.027
 1226POPC   C1A18435   4.441   0.488   8.583
 1226POPC   D2A18436   4.019   0.499   8.342
 1226POPC   C3A18437   4.135   0.386   7.911
 1226POPC   C4A18438   4.598   0.234   7.823
 1226POPC   C1B18439   4.170   0.873   8.722
 1226POPC   C2B18440   4.311   0.928   8.328
 1226POPC   C3B18441   4.491   0.751   7.971
 1226POPC   C4B18442   4.307   0.871   7.584
 1227POPC   NC318443  25.465  17.940   9.606
 1227POPC   PO418444  25.011  17.419   9.529
 1227POPC   GL118445  25.220  17.513   9.158
 1227POPC   GL218446  25.484  17.756   9.128
 1227POPC   C1A18447  25.271  17.336   8.766
 1227POPC   D2A18448  25.376  17.270   8.359
 1227POPC   C3A18449  25.237  17.436   7.953
 1227POPC   C4A18450  25.276  17.514   7.490
 1227POPC   C1B18451  25.260  17.839   8.764
 1227POPC   C2B18452  25.398  17.775   8.385
 1227POPC   C3B18453  25.148  17.919   8.095
 1227POPC   C4B18454  25.262  17.947   7.725
 1228POPC   NC318455  23.771   2.665   9.468
 1228POPC   PO418456  23.223   3.007   9.461
 1228POPC   GL118457  23.499   2.932   9.073
 1228POPC   GL218458  23.558   2.569   9.009
 1228POPC   C1A18459  23.714   2.991   8.653
 1228POPC   D2A18460  23.893   2.819   8.235
 1228POPC   C3A18461  23.857   2.912   7.794
 1228POPC   C4A18462  23.812   2.622   7.453
 1228POPC   C1B18463  23.232   2.569   8.683
 1228POPC   C2B18464  23.243   2.740   8.284
 1228POPC   C3B18465  23.492   2.589   7.944
 1228POPC   C4B18466  23.326   2.488   7.567
 1229POPC   NC318467  21.844  41.690   9.456
 1229POPC   PO418468  21.143  41.849   9.478
 1229POPC   GL118469  21.406  41.594   9.184
 1229POPC   GL218470  21.330  41.254   9.120
 1229POPC   C1A18471  21.539  41.542   8.740
 1229POPC   D2A18472  21.286  41.602   8.336
 1229POPC   C3A18473  21.590  41.631   8.005
 1229POPC   C4A18474  21.910  41.385   7.798
 1229POPC   C1B18475  21.110  41.274   8.713
 1229POPC   C2B18476  21.192  41.108   8.318
 1229POPC   C3B18477  21.248  41.243   7.878
 1229POPC   C4B18478  21.073  41.275   7.467
 1230POPC   NC318479  18.753  42.778   9.473
 1230POPC   PO418480  19.179  43.307   9.526
 1230POPC   GL118481  19.093  43.084   9.177
 1230POPC   GL218482  19.450  42.982   9.163
 1230POPC   C1A18483  18.904  43.179   8.762
 1230POPC   D2A18484  18.840  43.239   8.315
 1230POPC   C3A18485  19.029  42.940   8.031
 1230POPC   C4A18486  19.234  42.909   7.612
 1230POPC   C1B18487  19.391  43.365   8.880
 1230POPC   C2B18488  19.284  43.483   8.461
 1230POPC   C3B18489  19.243  43.395   8.000
 1230POPC   C4B18490  19.314  43.420   7.559
 1231POPC   NC318491  27.678  14.900   9.683
 1231POPC   PO418492  27.265  15.458   9.546
 1231POPC   GL118493  27.533  15.188   9.261
 1231POPC   GL218494  27.910  15.194   9.305
 1231POPC   C1A18495  27.546  15.074   8.800
 1231POPC   D2A18496  27.309  15.095   8.377
 1231POPC   C3A18497  27.385  14.909   7.965
 1231POPC   C4A18498  27.324  14.851   7.471
 1231POPC   C1B18499  28.050  15.308   8.890
 1231POPC   C2B18500  27.973  15.226   8.463
 1231POPC   C3B18501  27.746  15.242   8.103
 1231POPC   C4B18502  27.557  15.505   7.816
 1232POPC   NC318503  43.928  22.614   9.478
 1232POPC   PO418504  43.642  23.260   9.625
 1232POPC   GL118505  43.578  23.191   9.173
 1232POPC   GL218506  43.717  22.854   9.079
 1232POPC   C1A18507  43.701  23.252   8.715
 1232POPC   D2A18508  44.010  23.065   8.451
 1232POPC   C3A18509  44.014  23.167   8.007
 1232POPC   C4A18510  44.168  22.911   7.667
 1232POPC   C1B18511  43.497  22.777   8.728
 1232POPC   C2B18512  43.626  22.746   8.319
 1232POPC   C3B18513  43.732  22.724   7.909
 1232POPC   C4B18514  43.579  23.051   7.717
 1233POPC   NC318515   6.685   6.119   9.530
 1233POPC   PO418516   6.423   5.506   9.702
 1233POPC   GL118517   6.535   5.727   9.247
 1233POPC   GL218518   6.309   6.033   9.162
 1233POPC   C1A18519   6.754   6.039   8.878
 1233POPC   D2A18520   7.024   5.959   8.499
 1233POPC   C3A18521   6.885   5.863   8.076
 1233POPC   C4A18522   6.677   6.170   7.840
 1233POPC   C1B18523   6.364   5.759   8.775
 1233POPC   C2B18524   6.467   5.931   8.401
 1233POPC   C3B18525   6.375   5.770   8.022
 1233POPC   C4B18526   6.560   5.390   7.901
 1234POPC   NC318527  32.099  15.103   9.556
 1234POPC   PO418528  32.737  15.244   9.585
 1234POPC   GL118529  32.527  15.482   9.255
 1234POPC   GL218530  32.203  15.512   9.163
 1234POPC   C1A18531  32.539  15.400   8.803
 1234POPC   D2A18532  32.390  15.296   8.410
 1234POPC   C3A18533  32.661  15.203   8.051
 1234POPC   C4A18534  32.549  15.013   7.653
 1234POPC   C1B18535  32.005  15.370   8.786
 1234POPC   C2B18536  31.881  15.311   8.336
 1234POPC   C3B18537  32.151  15.302   7.930
 1234POPC   C4B18538  31.994  15.511   7.536
 1235POPC   NC318539  37.510  27.021   9.517
 1235POPC   PO418540  36.931  26.617   9.582
 1235POPC   GL118541  36.828  26.797   9.169
 1235POPC   GL218542  36.773  27.152   9.050
 1235POPC   C1A18543  36.830  26.635   8.764
 1235POPC   D2A18544  36.749  26.829   8.392
 1235POPC   C3A18545  36.962  26.673   8.029
 1235POPC   C4A18546  36.847  27.044   7.830
 1235POPC   C1B18547  37.136  27.045   8.817
 1235POPC   C2B18548  37.252  26.878   8.408
 1235POPC   C3B18549  37.331  27.079   8.032
 1235POPC   C4B18550  37.318  26.995   7.595
 1236POPC   NC318551  39.192   3.633   9.484
 1236POPC   PO418552  39.663   3.098   9.401
 1236POPC   GL118553  39.521   3.398   9.079
 1236POPC   GL218554  39.278   3.688   8.993
 1236POPC   C1A18555  39.585   3.471   8.656
 1236POPC   D2A18556  39.245   3.551   8.379
 1236POPC   C3A18557  39.434   3.577   7.981
 1236POPC   C4A18558  39.281   3.358   7.620
 1236POPC   C1B18559  38.891   3.656   8.775
 1236POPC   C2B18560  38.761   3.755   8.364
 1236POPC   C3B18561  38.916   3.646   7.969
 1236POPC   C4B18562  39.163   3.842   7.638
 1237POPC   NC318563  25.551  37.799   9.405
 1237POPC   PO418564  26.122  37.491   9.766
 1237POPC   GL118565  26.059  37.557   9.301
 1237POPC   GL218566  26.259  37.840   9.109
 1237POPC   C1A18567  26.109  37.397   8.885
 1237POPC   D2A18568  26.085  37.547   8.461
 1237POPC   C3A18569  26.051  37.336   8.054
 1237POPC   C4A18570  26.191  37.459   7.667
 1237POPC   C1B18571  25.912  37.872   8.823
 1237POPC   C2B18572  25.759  37.965   8.408
 1237POPC   C3B18573  25.861  37.830   7.991
 1237POPC   C4B18574  25.630  38.050   7.668
 1238POPC   NC318575  35.067  43.104   9.717
 1238POPC   PO418576  35.726  42.976   9.810
 1238POPC   GL118577  35.450  42.975   9.379
 1238POPC   GL218578  35.147  43.089   9.217
 1238POPC   C1A18579  35.481  42.861   8.913
 1238POPC   D2A18580  35.570  43.100   8.512
 1238POPC   C3A18581  35.420  42.966   8.091
 1238POPC   C4A18582  35.505  43.076   7.661
 1238POPC   C1B18583  35.154  43.311   8.794
 1238POPC   C2B18584  35.093  43.266   8.349
 1238POPC   C3B18585  35.222  43.433   7.933
 1238POPC   C4B18586  35.115  43.370   7.521
 1239POPC   NC318587  15.206  37.294   9.394
 1239POPC   PO418588  14.927  37.854   9.663
 1239POPC   GL118589  14.979  37.779   9.214
 1239POPC   GL218590  14.970  37.467   8.967
 1239POPC   C1A18591  15.122  37.935   8.810
 1239POPC   D2A18592  15.365  37.981   8.417
 1239POPC   C3A18593  15.104  37.931   8.045
 1239POPC   C4A18594  14.999  37.696   7.676
 1239POPC   C1B18595  15.154  37.265   8.618
 1239POPC   C2B18596  15.337  37.477   8.250
 1239POPC   C3B18597  15.396  37.424   7.850
 1239POPC   C4B18598  15.034  37.200   7.736
 1240POPC   NC318599  13.282  40.853   9.421
 1240POPC   PO418600  12.735  40.447   9.510
 1240POPC   GL118601  12.869  40.673   9.163
 1240POPC   GL218602  12.572  40.740   9.003
 1240POPC   C1A18603  13.114  40.729   8.771
 1240POPC   D2A18604  12.962  40.897   8.407
 1240POPC   C3A18605  13.013  40.711   8.024
 1240POPC   C4A18606  12.878  40.826   7.613
 1240POPC   C1B18607  12.635  41.080   8.783
 1240POPC   C2B18608  12.617  41.270   8.395
 1240POPC   C3B18609  12.654  41.110   8.014
 1240POPC   C4B18610  12.478  41.329   7.730
 1241POPC   NC318611  21.093   0.030   9.605
 1241POPC   PO418612  21.413   0.669   9.728
 1241POPC   GL118613  21.339   0.410   9.332
 1241POPC   GL218614  21.668   0.463   9.265
 1241POPC   C1A18615  21.207   0.422   8.879
 1241POPC   D2A18616  21.082   0.332   8.442
 1241POPC   C3A18617  21.139   0.485   8.024
 1241POPC   C4A18618  21.330   0.272   7.642
 1241POPC   C1B18619  21.678   0.573   8.824
 1241POPC   C2B18620  21.590   0.333   8.454
 1241POPC   C3B18621  21.626   0.460   8.063
 1241POPC   C4B18622  21.856   0.573   7.750
 1242POPC   NC318623   5.130  15.822   9.490
 1242POPC   PO418624   4.562  16.130   9.756
 1242POPC   GL118625   4.689  15.877   9.273
 1242POPC   GL218626   4.965  16.108   9.104
 1242POPC   C1A18627   4.975  15.692   8.843
 1242POPC   D2A18628   5.144  15.897   8.420
 1242POPC   C3A18629   5.295  15.704   7.997
 1242POPC   C4A18630   5.117  15.470   7.625
 1242POPC   C1B18631   4.688  16.114   8.729
 1242POPC   C2B18632   4.709  16.196   8.324
 1242POPC   C3B18633   4.888  16.063   7.961
 1242POPC   C4B18634   4.961  15.934   7.555
 1243POPC   NC318635  18.783  32.864   9.672
 1243POPC   PO418636  18.988  33.423   9.526
 1243POPC   GL118637  19.015  33.034   9.251
 1243POPC   GL218638  19.354  33.094   9.277
 1243POPC   C1A18639  19.030  32.867   8.820
 1243POPC   D2A18640  18.835  32.931   8.377
 1243POPC   C3A18641  18.975  32.937   7.933
 1243POPC   C4A18642  18.841  33.028   7.502
 1243POPC   C1B18643  19.458  33.163   8.857
 1243POPC   C2B18644  19.298  33.112   8.448
 1243POPC   C3B18645  19.417  33.134   8.031
 1243POPC   C4B18646  19.308  33.195   7.596
 1244POPC   NC318647  36.044  27.852   9.310
 1244POPC   PO418648  36.463  27.499   9.632
 1244POPC   GL118649  36.354  27.468   9.148
 1244POPC   GL218650  36.541  27.681   8.971
 1244POPC   C1A18651  36.088  27.523   8.696
 1244POPC   D2A18652  35.968  27.366   8.253
 1244POPC   C3A18653  36.089  27.614   7.874
 1244POPC   C4A18654  35.915  27.555   7.414
 1244POPC   C1B18655  36.550  27.361   8.605
 1244POPC   C2B18656  36.531  27.473   8.146
 1244POPC   C3B18657  36.531  27.408   7.686
 1244POPC   C4B18658  36.330  27.286   7.309
 1245POPC   NC318659  32.927   1.713   9.481
 1245POPC   PO418660  33.241   2.286   9.344
 1245POPC   GL118661  33.041   2.021   9.045
 1245POPC   GL218662  33.141   1.667   9.029
 1245POPC   C1A18663  33.132   2.025   8.598
 1245POPC   D2A18664  32.930   2.289   8.297
 1245POPC   C3A18665  33.080   2.243   7.885
 1245POPC   C4A18666  33.258   1.885   7.718
 1245POPC   C1B18667  32.819   1.659   8.739
 1245POPC   C2B18668  32.738   1.703   8.302
 1245POPC   C3B18669  32.766   1.859   7.897
 1245POPC   C4B18670  32.866   1.834   7.413
 1246POPC   NC318671   8.045  18.376   9.639
 1246POPC   PO418672   8.453  17.953   9.655
 1246POPC   GL118673   8.380  18.235   9.241
 1246POPC   GL218674   8.060  18.444   9.133
 1246POPC   C1A18675   8.403  18.115   8.767
 1246POPC   D2A18676   8.173  18.019   8.348
 1246POPC   C3A18677   8.420  17.975   7.954
 1246POPC   C4A18678   8.656  18.304   7.733
 1246POPC   C1B18679   7.951  18.332   8.710
 1246POPC   C2B18680   7.682  18.213   8.364
 1246POPC   C3B18681   7.895  18.381   8.062
 1246POPC   C4B18682   8.146  18.356   7.728
 1247POPC   NC318683   8.184  23.978   9.366
 1247POPC   PO418684   8.432  23.277   9.450
 1247POPC   GL118685   8.174  23.498   9.142
 1247POPC   GL218686   7.807  23.479   9.117
 1247POPC   C1A18687   8.224  23.641   8.722
 1247POPC   D2A18688   8.004  23.642   8.301
 1247POPC   C3A18689   8.258  23.585   7.919
 1247POPC   C4A18690   8.134  23.552   7.454
 1247POPC   C1B18691   7.743  23.761   8.749
 1247POPC   C2B18692   7.714  24.071   8.437
 1247POPC   C3B18693   7.874  24.061   8.045
 1247POPC   C4B18694   7.783  23.744   7.789
 1248POPC   NC318695   6.111   5.201   9.553
 1248POPC   PO418696   5.601   4.730   9.618
 1248POPC   GL118697   5.607   4.809   9.176
 1248POPC   GL218698   5.938   4.953   9.165
 1248POPC   C1A18699   5.673   5.034   8.757
 1248POPC   D2A18700   5.922   4.944   8.403
 1248POPC   C3A18701   5.732   4.909   8.022
 1248POPC   C4A18702   5.694   5.258   7.788
 1248POPC   C1B18703   6.175   5.154   8.826
 1248POPC   C2B18704   6.112   5.441   8.469
 1248POPC   C3B18705   6.111   5.282   8.075
 1248POPC   C4B18706   6.198   5.027   7.735
 1249POPC   NC318707  44.457   1.258   9.458
 1249POPC   PO418708   0.178   1.130   9.509
 1249POPC   GL118709   0.087   1.125   9.088
 1249POPC   GL218710  44.830   1.375   9.112
 1249POPC   C1A18711   0.043   0.911   8.669
 1249POPC   D2A18712  44.965   1.158   8.312
 1249POPC   C3A18713  44.643   1.133   8.004
 1249POPC   C4A18714  44.832   1.445   7.741
 1249POPC   C1B18715  44.625   1.204   8.755
 1249POPC   C2B18716  44.526   1.442   8.412
 1249POPC   C3B18717  44.411   1.583   8.012
 1249POPC   C4B18718  44.371   1.480   7.554
 1250POPC   NC318719   7.901  31.202   9.490
 1250POPC   PO418720   8.281  31.728   9.495
 1250POPC   GL118721   8.290  31.414   9.213
 1250POPC   GL218722   8.045  31.510   9.051
 1250POPC   C1A18723   8.514  31.226   8.909
 1250POPC   D2A18724   8.543  31.114   8.488
 1250POPC   C3A18725   8.303  31.332   8.145
 1250POPC   C4A18726   8.241  31.235   7.717
 1250POPC   C1B18727   8.175  31.504   8.633
 1250POPC   C2B18728   8.065  31.778   8.310
 1250POPC   C3B18729   7.938  31.666   7.890
 1250POPC   C4B18730   7.928  31.672   7.389
 1251POPC   NC318731  22.263   5.679   9.509
 1251POPC   PO418732  21.734   6.075   9.515
 1251POPC   GL118733  21.926   6.086   9.124
 1251POPC   GL218734  21.903   5.740   9.160
 1251POPC   C1A18735  22.287   5.964   8.848
 1251POPC   D2A18736  22.312   5.745   8.440
 1251POPC   C3A18737  22.156   5.955   8.058
 1251POPC   C4A18738  22.373   6.031   7.699
 1251POPC   C1B18739  21.891   5.630   8.765
 1251POPC   C2B18740  21.807   5.718   8.370
 1251POPC   C3B18741  21.825   5.587   7.963
 1251POPC   C4B18742  21.941   5.810   7.585
 1252POPC   NC318743  20.202   2.894   9.500
 1252POPC   PO418744  19.613   2.598   9.646
 1252POPC   GL118745  19.787   2.661   9.248
 1252POPC   GL218746  19.777   2.990   9.185
 1252POPC   C1A18747  19.834   2.537   8.820
 1252POPC   D2A18748  19.590   2.510   8.451
 1252POPC   C3A18749  19.779   2.544   8.040
 1252POPC   C4A18750  19.722   2.905   7.781
 1252POPC   C1B18751  20.086   2.989   8.843
 1252POPC   C2B18752  20.016   2.844   8.407
 1252POPC   C3B18753  20.213   2.816   7.992
 1252POPC   C4B18754  20.201   3.102   7.675
 1253POPC   NC318755  21.543  31.477   9.577
 1253POPC   PO418756  20.936  31.253   9.311
 1253POPC   GL118757  21.312  31.520   9.116
 1253POPC   GL218758  21.649  31.369   9.069
 1253POPC   C1A18759  21.512  31.787   8.780
 1253POPC   D2A18760  21.588  31.718   8.367
 1253POPC   C3A18761  21.344  31.628   8.030
 1253POPC   C4A18762  21.466  31.771   7.630
 1253POPC   C1B18763  21.382  31.323   8.652
 1253POPC   C2B18764  21.058  31.263   8.357
 1253POPC   C3B18765  21.162  31.131   7.977
 1253POPC   C4B18766  21.428  31.234   7.646
 1254POPC   NC318767  27.304  25.047   9.507
 1254POPC   PO418768  27.958  25.344   9.431
 1254POPC   GL118769  27.661  25.204   9.179
 1254POPC   GL218770  27.439  25.484   9.231
 1254POPC   C1A18771  27.393  25.072   8.846
 1254POPC   D2A18772  27.311  25.231   8.449
 1254POPC   C3A18773  27.561  25.125   8.078
 1254POPC   C4A18774  27.648  25.375   7.707
 1254POPC   C1B18775  27.640  25.551   8.814
 1254POPC   C2B18776  27.789  25.487   8.423
 1254POPC   C3B18777  27.500  25.622   8.138
 1254POPC   C4B18778  27.460  25.863   7.827
 1255POPC   NC318779  30.183  23.305   9.529
 1255POPC   PO418780  30.008  22.569   9.434
 1255POPC   GL118781  30.054  22.924   9.185
 1255POPC   GL218782  29.811  23.226   9.190
 1255POPC   C1A18783  29.996  22.835   8.780
 1255POPC   D2A18784  30.129  22.934   8.408
 1255POPC   C3A18785  29.874  22.899   8.092
 1255POPC   C4A18786  29.998  23.064   7.729
 1255POPC   C1B18787  30.040  23.342   8.811
 1255POPC   C2B18788  29.897  23.374   8.383
 1255POPC   C3B18789  30.165  23.393   8.071
 1255POPC   C4B18790  30.211  23.496   7.654
 1256POPC   NC318791  11.255  43.486   9.341
 1256POPC   PO418792  11.127  44.085   9.620
 1256POPC   GL118793  11.265  44.028   9.204
 1256POPC   GL218794  11.104  44.292   9.041
 1256POPC   C1A18795  11.383  43.968   8.766
 1256POPC   D2A18796  11.271  43.775   8.383
 1256POPC   C3A18797  11.421  43.967   7.968
 1256POPC   C4A18798  11.413  43.976   7.504
 1256POPC   C1B18799  10.742  44.346   8.800
 1256POPC   C2B18800  10.665  44.230   8.396
 1256POPC   C3B18801  10.951  44.096   8.118
 1256POPC   C4B18802  11.069  44.255   7.732
 1257POPC   NC318803   7.059  22.978   9.235
 1257POPC   PO418804   6.743  22.575   9.679
 1257POPC   GL118805   6.515  22.730   9.256
 1257POPC   GL218806   6.358  23.072   9.200
 1257POPC   C1A18807   6.494  22.758   8.787
 1257POPC   D2A18808   6.694  22.929   8.397
 1257POPC   C3A18809   6.505  22.858   7.984
 1257POPC   C4A18810   6.711  22.781   7.565
 1257POPC   C1B18811   6.538  23.263   8.811
 1257POPC   C2B18812   6.513  23.538   8.463
 1257POPC   C3B18813   6.583  23.345   8.089
 1257POPC   C4B18814   6.563  23.266   7.668
 1258POPC   NC318815  38.845  32.455   9.546
 1258POPC   PO418816  39.426  32.194   9.600
 1258POPC   GL118817  39.228  32.100   9.211
 1258POPC   GL218818  39.591  31.976   9.114
 1258POPC   C1A18819  38.946  32.325   8.887
 1258POPC   D2A18820  39.078  32.633   8.556
 1258POPC   C3A18821  39.241  32.452   8.163
 1258POPC   C4A18822  39.090  32.136   7.887
 1258POPC   C1B18823  39.394  32.138   8.730
 1258POPC   C2B18824  39.289  31.943   8.352
 1258POPC   C3B18825  39.545  31.974   8.031
 1258POPC   C4B18826  39.633  32.298   7.761
 1259POPC   NC318827  27.608  35.848   9.545
 1259POPC   PO418828  27.590  36.515   9.656
 1259POPC   GL118829  27.670  36.327   9.242
 1259POPC   GL218830  27.488  36.028   9.087
 1259POPC   C1A18831  27.580  36.461   8.829
 1259POPC   D2A18832  27.224  36.453   8.521
 1259POPC   C3A18833  27.372  36.288   8.104
 1259POPC   C4A18834  27.605  36.426   7.710
 1259POPC   C1B18835  27.413  36.003   8.638
 1259POPC   C2B18836  27.652  35.864   8.295
 1259POPC   C3B18837  27.660  35.903   7.866
 1259POPC   C4B18838  27.247  35.789   7.712
 1260POPC   NC318839   5.313  32.088   9.523
 1260POPC   PO418840   4.681  32.349   9.685
 1260POPC   GL118841   4.914  32.326   9.274
 1260POPC   GL218842   5.029  32.018   9.085
 1260POPC   C1A18843   4.994  32.473   8.863
 1260POPC   D2A18844   5.266  32.559   8.544
 1260POPC   C3A18845   5.206  32.415   8.127
 1260POPC   C4A18846   4.976  32.426   7.752
 1260POPC   C1B18847   5.125  32.047   8.622
 1260POPC   C2B18848   4.897  31.796   8.311
 1260POPC   C3B18849   4.781  31.723   7.859
 1260POPC   C4B18850   5.024  31.954   7.553
 1261POPC   NC318851  23.129  12.237   9.399
 1261POPC   PO418852  22.979  12.890   9.489
 1261POPC   GL118853  23.117  13.008   9.111
 1261POPC   GL218854  23.073  12.631   9.046
 1261POPC   C1A18855  22.981  13.064   8.688
 1261POPC   D2A18856  23.076  12.753   8.394
 1261POPC   C3A18857  23.225  12.919   8.022
 1261POPC   C4A18858  23.354  13.078   7.661
 1261POPC   C1B18859  22.746  12.626   8.778
 1261POPC   C2B18860  22.535  12.812   8.449
 1261POPC   C3B18861  22.714  12.996   8.115
 1261POPC   C4B18862  22.862  13.110   7.715
 1262POPC   NC318863  31.298  44.939   9.658
 1262POPC   PO418864  31.782  44.479   9.566
 1262POPC   GL118865  31.560  44.731   9.234
 1262POPC   GL218866  31.222  44.871   9.149
 1262POPC   C1A18867  31.719  44.797   8.857
 1262POPC   D2A18868  31.758  44.531   8.535
 1262POPC   C3A18869  31.465  44.553   8.202
 1262POPC   C4A18870  31.624  44.430   7.837
 1262POPC   C1B18871  31.244  44.696   8.708
 1262POPC   C2B18872  31.114  44.917   8.310
 1262POPC   C3B18873  31.077  44.854   7.862
 1262POPC   C4B18874  31.333  44.676   7.520
 1263POPC   NC318875   7.780  11.502   9.483
 1263POPC   PO418876   7.144  11.198   9.332
 1263POPC   GL118877   7.331  11.520   9.139
 1263POPC   GL218878   7.639  11.383   9.011
 1263POPC   C1A18879   7.271  11.587   8.735
 1263POPC   D2A18880   7.406  11.277   8.472
 1263POPC   C3A18881   7.146  11.228   8.188
 1263POPC   C4A18882   7.192  11.550   7.912
 1263POPC   C1B18883   7.794  11.061   8.715
 1263POPC   C2B18884   7.879  11.111   8.269
 1263POPC   C3B18885   7.600  11.197   7.886
 1263POPC   C4B18886   7.707  11.129   7.409
 1264POPC   NC318887  28.254  21.467   9.586
 1264POPC   PO418888  28.309  20.832   9.774
 1264POPC   GL118889  28.494  21.129   9.320
 1264POPC   GL218890  28.551  21.504   9.191
 1264POPC   C1A18891  28.371  21.180   8.841
 1264POPC   D2A18892  28.345  21.392   8.423
 1264POPC   C3A18893  28.269  21.193   8.005
 1264POPC   C4A18894  28.335  21.159   7.545
 1264POPC   C1B18895  28.691  21.599   8.795
 1264POPC   C2B18896  28.872  21.356   8.459
 1264POPC   C3B18897  28.736  21.391   8.058
 1264POPC   C4B18898  28.663  21.525   7.663
 1265POPC   NC318899  28.844  17.786   9.435
 1265POPC   PO418900  29.354  17.443   9.626
 1265POPC   GL118901  29.245  17.454   9.199
 1265POPC   GL218902  28.936  17.288   9.221
 1265POPC   C1A18903  29.019  17.603   8.828
 1265POPC   D2A18904  28.842  17.707   8.455
 1265POPC   C3A18905  29.107  17.651   8.125
 1265POPC   C4A18906  28.991  17.756   7.714
 1265POPC   C1B18907  28.797  17.132   8.830
 1265POPC   C2B18908  28.968  17.219   8.457
 1265POPC   C3B18909  28.865  17.199   8.067
 1265POPC   C4B18910  29.056  17.249   7.717
 1266POPC   NC318911  44.861  14.076   9.315
 1266POPC   PO418912  44.414  14.551   9.525
 1266POPC   GL118913  44.583  14.440   9.127
 1266POPC   GL218914  44.921  14.567   9.105
 1266POPC   C1A18915  44.496  14.526   8.733
 1266POPC   D2A18916  44.696  14.618   8.374
 1266POPC   C3A18917  44.465  14.596   8.003
 1266POPC   C4A18918  44.429  14.291   7.671
 1266POPC   C1B18919   0.015  14.379   8.722
 1266POPC   C2B18920   0.034  14.213   8.320
 1266POPC   C3B18921  44.853  14.228   7.938
 1266POPC   C4B18922  44.861  14.024   7.515
 1267POPC   NC318923  25.202  13.712   9.470
 1267POPC   PO418924  24.972  13.125   9.266
 1267POPC   GL118925  25.245  13.454   9.024
 1267POPC   GL218926  25.562  13.674   9.103
 1267POPC   C1A18927  25.196  13.818   8.768
 1267POPC   D2A18928  25.038  13.927   8.390
 1267POPC   C3A18929  25.144  13.628   8.150
 1267POPC   C4A18930  25.157  13.538   7.770
 1267POPC   C1B18931  25.694  13.969   8.796
 1267POPC   C2B18932  25.578  13.901   8.364
 1267POPC   C3B18933  25.625  13.630   8.002
 1267POPC   C4B18934  25.545  13.870   7.610
 1268POPC   NC318935  12.153  29.418   9.836
 1268POPC   PO418936  12.069  30.023   9.611
 1268POPC   GL118937  12.091  30.042   9.191
 1268POPC   GL218938  11.930  29.698   9.151
 1268POPC   C1A18939  12.171  30.227   8.822
 1268POPC   D2A18940  11.968  30.060   8.473
 1268POPC   C3A18941  12.188  30.143   8.124
 1268POPC   C4A18942  12.051  30.117   7.735
 1268POPC   C1B18943  12.250  29.721   8.805
 1268POPC   C2B18944  12.330  29.677   8.360
 1268POPC   C3B18945  12.079  29.632   7.974
 1268POPC   C4B18946  12.221  29.654   7.550
 1269POPC   NC318947  33.247  41.660   9.682
 1269POPC   PO418948  33.016  41.099   9.408
 1269POPC   GL118949  33.168  41.435   9.128
 1269POPC   GL218950  33.089  41.794   9.083
 1269POPC   C1A18951  33.094  41.413   8.694
 1269POPC   D2A18952  32.956  41.558   8.313
 1269POPC   C3A18953  33.106  41.294   8.008
 1269POPC   C4A18954  32.822  41.408   7.724
 1269POPC   C1B18955  33.177  41.919   8.609
 1269POPC   C2B18956  33.335  41.892   8.130
 1269POPC   C3B18957  33.375  41.642   7.705
 1269POPC   C4B18958  33.475  41.865   7.265
 1270POPC   NC318959  24.266  34.266   9.464
 1270POPC   PO418960  24.788  34.717   9.553
 1270POPC   GL118961  24.548  34.577   9.199
 1270POPC   GL218962  24.432  34.832   9.154
 1270POPC   C1A18963  24.320  34.542   8.772
 1270POPC   D2A18964  24.160  34.558   8.378
 1270POPC   C3A18965  24.376  34.472   8.017
 1270POPC   C4A18966  24.266  34.473   7.586
 1270POPC   C1B18967  24.660  34.939   8.803
 1270POPC   C2B18968  24.713  34.748   8.415
 1270POPC   C3B18969  24.821  34.744   8.008
 1270POPC   C4B18970  24.537  34.889   7.708
 1271POPC   NC318971   1.849  22.076   9.606
 1271POPC   PO418972   2.488  22.305   9.669
 1271POPC   GL118973   2.231  22.109   9.284
 1271POPC   GL218974   1.946  22.306   9.174
 1271POPC   C1A18975   2.176  21.999   8.819
 1271POPC   D2A18976   2.329  22.007   8.374
 1271POPC   C3A18977   2.104  21.969   8.030
 1271POPC   C4A18978   2.019  22.365   7.885
 1271POPC   C1B18979   1.952  22.471   8.792
 1271POPC   C2B18980   1.860  22.293   8.410
 1271POPC   C3B18981   1.582  22.460   8.126
 1271POPC   C4B18982   1.557  22.433   7.702
 1272POPC   NC318983  41.236  12.171   9.626
 1272POPC   PO418984  40.541  11.963   9.640
 1272POPC   GL118985  40.731  11.977   9.203
 1272POPC   GL218986  41.088  12.088   9.140
 1272POPC   C1A18987  40.599  11.796   8.799
 1272POPC   D2A18988  40.471  11.964   8.401
 1272POPC   C3A18989  40.746  12.152   8.112
 1272POPC   C4A18990  40.825  11.829   7.836
 1272POPC   C1B18991  40.989  12.102   8.708
 1272POPC   C2B18992  41.001  11.800   8.388
 1272POPC   C3B18993  41.245  12.003   8.077
 1272POPC   C4B18994  41.158  12.193   7.685
 1273POPC   NC318995  12.502  35.167   9.484
 1273POPC   PO418996  13.149  35.110   9.491
 1273POPC   GL118997  12.924  35.389   9.186
 1273POPC   GL218998  12.581  35.591   9.237
 1273POPC   C1A18999  12.980  35.282   8.759
 1273POPC   D2A19000  12.764  35.242   8.393
 1273POPC   C3A19001  12.910  35.301   7.978
 1273POPC   C4A19002  13.215  35.355   7.645
 1273POPC   C1B19003  12.507  35.507   8.813
 1273POPC   C2B19004  12.586  35.724   8.445
 1273POPC   C3B19005  12.519  35.721   8.014
 1273POPC   C4B19006  12.443  35.391   7.712
 1274POPC   NC319007  10.384   8.225   9.828
 1274POPC   PO419008  10.012   8.531   9.351
 1274POPC   GL119009  10.430   8.380   9.152
 1274POPC   GL219010  10.314   8.072   9.105
 1274POPC   C1A19011  10.637   8.147   8.740
 1274POPC   D2A19012  10.311   8.158   8.410
 1274POPC   C3A19013  10.360   8.326   8.014
 1274POPC   C4A19014  10.679   8.273   7.721
 1274POPC   C1B19015  10.287   7.790   8.762
 1274POPC   C2B19016  10.343   7.659   8.361
 1274POPC   C3B19017  10.191   7.790   8.048
 1274POPC   C4B19018  10.375   7.876   7.694
 1275POPC   NC319019  13.681  34.965   9.528
 1275POPC   PO419020  13.764  35.657   9.621
 1275POPC   GL119021  13.467  35.625   9.254
 1275POPC   GL219022  13.449  35.264   9.107
 1275POPC   C1A19023  13.418  35.650   8.794
 1275POPC   D2A19024  13.425  35.320   8.499
 1275POPC   C3A19025  13.503  35.484   8.111
 1275POPC   C4A19026  13.725  35.315   7.817
 1275POPC   C1B19027  13.324  34.905   8.813
 1275POPC   C2B19028  13.151  34.872   8.363
 1275POPC   C3B19029  13.321  34.977   7.933
 1275POPC   C4B19030  13.539  34.984   7.502
 1276POPC   NC319031  37.133  19.492   9.495
 1276POPC   PO419032  36.922  18.931   9.951
 1276POPC   GL119033  37.109  18.975   9.492
 1276POPC   GL219034  36.810  19.088   9.314
 1276POPC   C1A19035  37.221  18.985   9.002
 1276POPC   D2A19036  37.065  18.852   8.570
 1276POPC   C3A19037  37.107  18.971   8.100
 1276POPC   C4A19038  37.305  19.160   7.700
 1276POPC   C1B19039  36.717  19.121   8.863
 1276POPC   C2B19040  36.788  19.254   8.421
 1276POPC   C3B19041  36.612  19.159   8.012
 1276POPC   C4B19042  36.711  18.916   7.657
 1277POPC   NC319043  41.027  41.295   9.414
 1277POPC   PO419044  40.736  41.885   9.524
 1277POPC   GL119045  40.852  41.815   9.121
 1277POPC   GL219046  40.643  41.522   9.118
 1277POPC   C1A19047  40.904  41.693   8.683
 1277POPC   D2A19048  41.264  41.600   8.425
 1277POPC   C3A19049  41.107  41.615   8.092
 1277POPC   C4A19050  40.805  41.698   7.836
 1277POPC   C1B19051  40.283  41.398   8.870
 1277POPC   C2B19052  40.293  41.209   8.466
 1277POPC   C3B19053  40.465  41.335   8.080
 1277POPC   C4B19054  40.408  41.471   7.661
 1278POPC   NC319055   8.883  35.651   9.579
 1278POPC   PO419056   8.864  35.019   9.638
 1278POPC   GL119057   8.854  35.240   9.200
 1278POPC   GL219058   8.606  35.107   8.994
 1278POPC   C1A19059   8.831  35.500   8.780
 1278POPC   D2A19060   8.977  35.399   8.353
 1278POPC   C3A19061   8.995  35.599   7.939
 1278POPC   C4A19062   9.276  35.494   7.568
 1278POPC   C1B19063   8.797  34.968   8.633
 1278POPC   C2B19064   8.758  34.805   8.236
 1278POPC   C3B19065   8.979  35.054   7.968
 1278POPC   C4B19066   9.023  35.075   7.561
 1279POPC   NC319067  24.726   5.355   9.740
 1279POPC   PO419068  24.267   4.902   9.697
 1279POPC   GL119069  24.440   5.090   9.317
 1279POPC   GL219070  24.650   4.833   9.149
 1279POPC   C1A19071  24.329   5.139   8.857
 1279POPC   D2A19072  24.354   5.009   8.414
 1279POPC   C3A19073  24.420   5.293   8.067
 1279POPC   C4A19074  24.090   5.302   7.806
 1279POPC   C1B19075  24.560   4.644   8.713
 1279POPC   C2B19076  24.613   4.609   8.223
 1279POPC   C3B19077  24.588   4.873   7.816
 1279POPC   C4B19078  24.620   4.685   7.387
 1280POPC   NC319079  23.175   4.389   9.377
 1280POPC   PO419080  22.693   4.002   9.540
 1280POPC   GL119081  22.746   4.158   9.124
 1280POPC   GL219082  22.840   4.498   9.010
 1280POPC   C1A19083  22.713   4.147   8.679
 1280POPC   D2A19084  22.684   4.545   8.441
 1280POPC   C3A19085  22.798   4.444   8.034
 1280POPC   C4A19086  22.972   4.110   7.817
 1280POPC   C1B19087  23.089   4.686   8.707
 1280POPC   C2B19088  23.133   4.728   8.256
 1280POPC   C3B19089  23.154   4.752   7.817
 1280POPC   C4B19090  23.264   4.432   7.534
 1281POPC   NC319091  41.276  15.619   9.468
 1281POPC   PO419092  41.798  16.126   9.468
 1281POPC   GL119093  41.621  15.857   9.165
 1281POPC   GL219094  41.303  16.013   9.118
 1281POPC   C1A19095  41.536  15.789   8.727
 1281POPC   D2A19096  41.506  15.721   8.300
 1281POPC   C3A19097  41.769  15.969   8.038
 1281POPC   C4A19098  41.541  15.820   7.742
 1281POPC   C1B19099  41.365  16.286   8.770
 1281POPC   C2B19100  41.491  16.279   8.328
 1281POPC   C3B19101  41.330  16.256   7.878
 1281POPC   C4B19102  41.335  16.218   7.365
 1282POPC   NC319103   2.924   7.207   9.442
 1282POPC   PO419104   2.326   6.963   9.264
 1282POPC   GL119105   2.583   7.292   9.029
 1282POPC   GL219106   2.840   7.549   9.072
 1282POPC   C1A19107   2.706   7.434   8.612
 1282POPC   D2A19108   2.782   7.570   8.198
 1282POPC   C3A19109   2.553   7.356   7.872
 1282POPC   C4A19110   2.484   7.348   7.418
 1282POPC   C1B19111   2.971   7.847   8.744
 1282POPC   C2B19112   3.220   7.761   8.368
 1282POPC   C3B19113   3.236   7.545   7.964
 1282POPC   C4B19114   3.063   7.839   7.727
 1283POPC   NC319115  10.414  39.380   9.258
 1283POPC   PO419116  10.459  40.069   9.573
 1283POPC   GL119117  10.624  39.909   9.186
 1283POPC   GL219118  10.608  40.222   9.059
 1283POPC   C1A19119  10.568  39.741   8.735
 1283POPC   D2A19120  10.454  39.775   8.286
 1283POPC   C3A19121  10.737  39.667   7.948
 1283POPC   C4A19122  10.638  39.746   7.505
 1283POPC   C1B19123  10.470  40.219   8.624
 1283POPC   C2B19124  10.563  40.311   8.210
 1283POPC   C3B19125  10.463  40.112   7.849
 1283POPC   C4B19126  10.274  40.388   7.601
 1284POPC   NC319127   7.822  16.906   9.377
 1284POPC   PO419128   8.343  16.456   9.659
 1284POPC   GL119129   8.075  16.468   9.244
 1284POPC   GL219130   8.240  16.730   9.000
 1284POPC   C1A19131   8.068  16.332   8.772
 1284POPC   D2A19132   8.013  16.633   8.422
 1284POPC   C3A19133   8.203  16.544   8.058
 1284POPC   C4A19134   8.460  16.595   7.704
 1284POPC   C1B19135   8.274  17.029   8.608
 1284POPC   C2B19136   7.954  17.177   8.351
 1284POPC   C3B19137   7.913  16.983   7.970
 1284POPC   C4B19138   8.177  17.025   7.632
 1285POPC   NC319139  44.230  40.278   9.559
 1285POPC   PO419140  43.521  40.032   9.490
 1285POPC   GL119141  43.827  39.915   9.169
 1285POPC   GL219142  44.080  39.662   9.242
 1285POPC   C1A19143  43.846  40.090   8.756
 1285POPC   D2A19144  43.547  40.200   8.445
 1285POPC   C3A19145  43.834  40.076   8.152
 1285POPC   C4A19146  43.901  39.910   7.759
 1285POPC   C1B19147  44.198  39.713   8.815
 1285POPC   C2B19148  44.244  39.893   8.411
 1285POPC   C3B19149  44.326  39.698   7.990
 1285POPC   C4B19150  44.274  39.639   7.518
 1286POPC   NC319151  23.301   9.877   9.648
 1286POPC   PO419152  23.918   9.506   9.487
 1286POPC   GL119153  23.567   9.630   9.202
 1286POPC   GL219154  23.541   9.981   9.208
 1286POPC   C1A19155  23.553   9.683   8.742
 1286POPC   D2A19156  23.802   9.500   8.383
 1286POPC   C3A19157  23.736   9.681   7.970
 1286POPC   C4A19158  24.014   9.851   7.680
 1286POPC   C1B19159  23.784  10.129   8.843
 1286POPC   C2B19160  23.988  10.011   8.461
 1286POPC   C3B19161  23.845  10.166   8.073
 1286POPC   C4B19162  23.771  10.354   7.717
 1287POPC   NC319163  41.366  24.891   9.553
 1287POPC   PO419164  41.854  24.459   9.560
 1287POPC   GL119165  41.841  24.664   9.180
 1287POPC   GL219166  41.766  24.346   8.998
 1287POPC   C1A19167  41.775  24.795   8.761
 1287POPC   D2A19168  41.562  24.527   8.450
 1287POPC   C3A19169  41.614  24.674   8.041
 1287POPC   C4A19170  41.764  24.452   7.710
 1287POPC   C1B19171  41.369  24.186   8.797
 1287POPC   C2B19172  41.307  24.052   8.351
 1287POPC   C3B19173  41.346  24.214   7.918
 1287POPC   C4B19174  41.490  24.031   7.531
 1288POPC   NC319175  44.272   8.942   9.691
 1288POPC   PO419176  43.689   8.692   9.579
 1288POPC   GL119177  43.861   8.858   9.220
 1288POPC   GL219178  44.192   8.755   9.168
 1288POPC   C1A19179  43.849   8.774   8.772
 1288POPC   D2A19180  43.843   9.014   8.409
 1288POPC   C3A19181  43.510   9.032   8.108
 1288POPC   C4A19182  43.719   9.077   7.724
 1288POPC   C1B19183  44.340   8.864   8.714
 1288POPC   C2B19184  44.287   8.742   8.263
 1288POPC   C3B19185  44.271   8.885   7.834
 1288POPC   C4B19186  44.443   9.010   7.404
 1289POPC   NC319187  11.378  39.339   9.543
 1289POPC   PO419188  10.738  39.111   9.501
 1289POPC   GL119189  11.083  39.252   9.157
 1289POPC   GL219190  11.357  38.979   9.154
 1289POPC   C1A19191  11.311  39.243   8.747
 1289POPC   D2A19192  11.237  39.085   8.354
 1289POPC   C3A19193  11.500  39.274   8.046
 1289POPC   C4A19194  11.351  39.326   7.650
 1289POPC   C1B19195  11.611  38.811   8.727
 1289POPC   C2B19196  11.685  38.854   8.260
 1289POPC   C3B19197  11.346  38.799   7.920
 1289POPC   C4B19198  11.214  38.892   7.447
 1290POPC   NC319199  38.440  33.373   9.588
 1290POPC   PO419200  37.965  33.006   9.462
 1290POPC   GL119201  38.177  32.975   9.081
 1290POPC   GL219202  38.479  33.159   9.124
 1290POPC   C1A19203  38.093  32.984   8.640
 1290POPC   D2A19204  38.319  33.150   8.304
 1290POPC   C3A19205  38.239  33.111   7.875
 1290POPC   C4A19206  38.177  33.187   7.428
 1290POPC   C1B19207  38.650  33.259   8.720
 1290POPC   C2B19208  38.803  33.026   8.367
 1290POPC   C3B19209  38.747  33.206   7.975
 1290POPC   C4B19210  38.663  33.048   7.555
 1291POPC   NC319211  25.159  39.388   9.467
 1291POPC   PO419212  25.599  38.903   9.562
 1291POPC   GL119213  25.311  38.960   9.194
 1291POPC   GL219214  25.255  39.286   9.001
 1291POPC   C1A19215  25.375  38.880   8.752
 1291POPC   D2A19216  25.172  39.166   8.463
 1291POPC   C3A19217  25.217  38.989   8.072
 1291POPC   C4A19218  25.408  39.021   7.697
 1291POPC   C1B19219  25.029  39.585   8.777
 1291POPC   C2B19220  24.864  39.647   8.369
 1291POPC   C3B19221  25.040  39.472   7.999
 1291POPC   C4B19222  25.304  39.508   7.632
 1292POPC   NC319223  14.514  41.677   9.465
 1292POPC   PO419224  13.918  41.319   9.452
 1292POPC   GL119225  14.217  41.450   9.122
 1292POPC   GL219226  14.090  41.802   9.195
 1292POPC   C1A19227  14.592  41.655   8.820
 1292POPC   D2A19228  14.875  41.608   8.447
 1292POPC   C3A19229  14.820  41.818   8.081
 1292POPC   C4A19230  14.577  41.630   7.760
 1292POPC   C1B19231  14.094  41.771   8.771
 1292POPC   C2B19232  13.988  41.576   8.422
 1292POPC   C3B19233  14.115  41.509   8.025
 1292POPC   C4B19234  14.089  41.688   7.689
 1293POPC   NC319235   4.846  22.870   9.578
 1293POPC   PO419236   5.360  23.350   9.440
 1293POPC   GL119237   5.266  22.956   9.299
 1293POPC   GL219238   5.022  23.058   9.136
 1293POPC   C1A19239   5.347  22.727   8.929
 1293POPC   D2A19240   5.350  22.924   8.543
 1293POPC   C3A19241   5.094  22.904   8.187
 1293POPC   C4A19242   5.410  22.923   7.860
 1293POPC   C1B19243   4.885  22.916   8.756
 1293POPC   C2B19244   4.744  23.230   8.476
 1293POPC   C3B19245   4.610  23.263   8.085
 1293POPC   C4B19246   4.705  23.494   7.749
 1294POPC   NC319247  19.276  16.018   9.844
 1294POPC   PO419248  19.794  15.817   9.425
 1294POPC   GL119249  19.724  15.787   9.051
 1294POPC   GL219250  19.370  15.677   9.103
 1294POPC   C1A19251  19.999  15.944   8.727
 1294POPC   D2A19252  20.148  15.846   8.319
 1294POPC   C3A19253  20.096  16.115   7.988
 1294POPC   C4A19254  19.733  15.956   7.777
 1294POPC   C1B19255  19.397  15.892   8.692
 1294POPC   C2B19256  19.363  15.597   8.389
 1294POPC   C3B19257  19.682  15.560   8.113
 1294POPC   C4B19258  19.595  15.434   7.725
 1295POPC   NC319259  20.536  35.538   9.381
 1295POPC   PO419260  20.859  35.007   9.494
 1295POPC   GL119261  20.624  35.079   9.131
 1295POPC   GL219262  20.341  35.299   8.978
 1295POPC   C1A19263  20.824  35.186   8.755
 1295POPC   D2A19264  21.069  35.017   8.423
 1295POPC   C3A19265  20.916  35.182   8.033
 1295POPC   C4A19266  20.832  35.341   7.594
 1295POPC   C1B19267  20.482  35.566   8.688
 1295POPC   C2B19268  20.299  35.464   8.323
 1295POPC   C3B19269  20.520  35.524   7.979
 1295POPC   C4B19270  20.394  35.595   7.571
 1296POPC   NC319271   7.986  28.450   9.427
 1296POPC   PO419272   8.303  27.904   9.507
 1296POPC   GL119273   8.433  28.116   9.143
 1296POPC   GL219274   8.512  28.495   9.213
 1296POPC   C1A19275   8.214  28.300   8.812
 1296POPC   D2A19276   7.970  28.124   8.532
 1296POPC   C3A19277   8.240  27.960   8.285
 1296POPC   C4A19278   8.309  28.075   7.909
 1296POPC   C1B19279   8.590  28.638   8.770
 1296POPC   C2B19280   8.416  28.493   8.340
 1296POPC   C3B19281   8.244  28.569   7.917
 1296POPC   C4B19282   8.394  28.599   7.490
 1297POPC   NC319283  29.186  39.093   9.806
 1297POPC   PO419284  28.968  39.317   9.231
 1297POPC   GL119285  29.322  39.336   9.076
 1297POPC   GL219286  29.396  38.986   9.170
 1297POPC   C1A19287  29.253  39.390   8.624
 1297POPC   D2A19288  28.924  39.474   8.321
 1297POPC   C3A19289  28.971  39.279   7.906
 1297POPC   C4A19290  28.903  38.828   7.930
 1297POPC   C1B19291  29.322  38.895   8.713
 1297POPC   C2B19292  29.250  39.037   8.256
 1297POPC   C3B19293  29.398  38.942   7.834
 1297POPC   C4B19294  29.517  38.853   7.386
 1298POPC   NC319295  27.362  37.647   9.474
 1298POPC   PO419296  27.916  38.036   9.416
 1298POPC   GL119297  27.758  37.727   9.097
 1298POPC   GL219298  27.484  37.882   9.019
 1298POPC   C1A19299  27.892  37.382   8.814
 1298POPC   D2A19300  27.858  37.250   8.365
 1298POPC   C3A19301  27.699  37.581   8.100
 1298POPC   C4A19302  27.852  37.624   7.707
 1298POPC   C1B19303  27.551  37.707   8.622
 1298POPC   C2B19304  27.372  37.922   8.312
 1298POPC   C3B19305  27.233  38.068   7.981
 1298POPC   C4B19306  27.509  37.973   7.705
 1299POPC   NC319307  32.841  24.759   9.542
 1299POPC   PO419308  33.056  25.458   9.493
 1299POPC   GL119309  33.026  25.141   9.199
 1299POPC   GL219310  33.321  24.934   9.130
 1299POPC   C1A19311  32.944  25.156   8.766
 1299POPC   D2A19312  33.126  25.150   8.353
 1299POPC   C3A19313  32.946  25.351   8.027
 1299POPC   C4A19314  33.117  25.262   7.631
 1299POPC   C1B19315  33.268  24.774   8.683
 1299POPC   C2B19316  33.451  24.773   8.269
 1299POPC   C3B19317  33.244  24.816   7.863
 1299POPC   C4B19318  32.780  24.923   7.824
 1300POPC   NC319319  16.743   2.889   9.722
 1300POPC   PO419320  16.657   3.554   9.502
 1300POPC   GL119321  16.591   3.642   9.106
 1300POPC   GL219322  16.378   3.957   9.059
 1300POPC   C1A19323  16.724   3.427   8.738
 1300POPC   D2A19324  16.602   3.253   8.387
 1300POPC   C3A19325  16.816   3.315   8.066
 1300POPC   C4A19326  16.712   3.486   7.694
 1300POPC   C1B19327  16.708   3.943   8.717
 1300POPC   C2B19328  16.667   3.767   8.318
 1300POPC   C3B19329  16.454   3.879   7.932
 1300POPC   C4B19330  16.534   3.928   7.490
 1301POPC   NC319331  38.289   3.858   9.449
 1301POPC   PO419332  38.482   4.577   9.498
 1301POPC   GL119333  38.256   4.394   9.173
 1301POPC   GL219334  37.996   4.671   9.165
 1301POPC   C1A19335  38.492   4.263   8.758
 1301POPC   D2A19336  38.389   4.096   8.330
 1301POPC   C3A19337  38.697   4.140   7.984
 1301POPC   C4A19338  38.766   4.375   7.631
 1301POPC   C1B19339  38.247   4.719   8.789
 1301POPC   C2B19340  38.249   4.581   8.374
 1301POPC   C3B19341  38.463   4.607   8.012
 1301POPC   C4B19342  38.251   4.698   7.637
 1302POPC   NC319343  10.247  13.020   9.416
 1302POPC   PO419344  10.643  12.513   9.499
 1302POPC   GL119345  10.597  12.749   9.116
 1302POPC   GL219346  10.696  13.102   9.133
 1302POPC   C1A19347  10.513  12.673   8.688
 1302POPC   D2A19348  10.295  12.694   8.297
 1302POPC   C3A19349  10.477  12.635   7.895
 1302POPC   C4A19350  10.512  12.979   7.594
 1302POPC   C1B19351  10.732  13.220   8.714
 1302POPC   C2B19352  10.767  12.966   8.343
 1302POPC   C3B19353  10.896  13.055   7.952
 1302POPC   C4B19354  10.956  12.722   7.708
 1303POPC   NC319355  29.527  40.463   9.432
 1303POPC   PO419356  30.206  40.608   9.394
 1303POPC   GL119357  29.893  40.827   9.187
 1303POPC   GL219358  30.116  40.987   9.004
 1303POPC   C1A19359  29.674  40.844   8.767
 1303POPC   D2A19360  29.850  41.050   8.394
 1303POPC   C3A19361  29.752  40.841   7.992
 1303POPC   C4A19362  29.581  40.525   7.714
 1303POPC   C1B19363  30.257  41.295   8.746
 1303POPC   C2B19364  30.227  41.435   8.382
 1303POPC   C3B19365  30.228  41.178   8.058
 1303POPC   C4B19366  30.280  40.816   7.858
 1304POPC   NC319367  31.141  33.339   9.550
 1304POPC   PO419368  31.087  34.013   9.402
 1304POPC   GL119369  31.351  33.799   9.139
 1304POPC   GL219370  31.695  33.774   9.301
 1304POPC   C1A19371  31.300  33.565   8.740
 1304POPC   D2A19372  31.272  33.668   8.294
 1304POPC   C3A19373  31.352  33.435   7.955
 1304POPC   C4A19374  31.090  33.450   7.577
 1304POPC   C1B19375  31.769  33.741   8.851
 1304POPC   C2B19376  31.731  33.578   8.441
 1304POPC   C3B19377  31.775  33.778   8.039
 1304POPC   C4B19378  31.682  33.621   7.633
 1305POPC   NC319379   6.394  17.091   9.479
 1305POPC   PO419380   6.815  17.630   9.628
 1305POPC   GL119381   6.698  17.517   9.219
 1305POPC   GL219382   6.321  17.513   9.203
 1305POPC   C1A19383   6.828  17.729   8.821
 1305POPC   D2A19384   6.803  18.004   8.438
 1305POPC   C3A19385   6.842  17.802   8.033
 1305POPC   C4A19386   6.793  17.439   7.772
 1305POPC   C1B19387   6.490  17.303   8.817
 1305POPC   C2B19388   6.593  17.506   8.427
 1305POPC   C3B19389   6.373  17.551   8.064
 1305POPC   C4B19390   6.155  17.216   7.861
 1306POPC   NC319391  26.048  13.243   9.474
 1306POPC   PO419392  26.550  12.924   9.706
 1306POPC   GL119393  26.390  12.799   9.194
 1306POPC   GL219394  26.062  12.846   9.172
 1306POPC   C1A19395  26.379  12.963   8.747
 1306POPC   D2A19396  26.494  12.905   8.340
 1306POPC   C3A19397  26.188  12.902   7.992
 1306POPC   C4A19398  26.231  12.878   7.523
 1306POPC   C1B19399  25.890  13.036   8.799
 1306POPC   C2B19400  25.904  13.185   8.374
 1306POPC   C3B19401  25.668  13.117   8.019
 1306POPC   C4B19402  25.737  12.886   7.668
 1307POPC   NC319403  24.297  39.048   9.494
 1307POPC   PO419404  24.927  38.965   9.532
 1307POPC   GL119405  24.769  39.156   9.134
 1307POPC   GL219406  24.478  39.374   9.141
 1307POPC   C1A19407  24.703  39.217   8.668
 1307POPC   D2A19408  24.666  38.998   8.260
 1307POPC   C3A19409  24.753  39.084   7.807
 1307POPC   C4A19410  24.659  38.905   7.371
 1307POPC   C1B19411  24.216  39.357   8.759
 1307POPC   C2B19412  24.344  39.517   8.342
 1307POPC   C3B19413  24.437  39.557   7.897
 1307POPC   C4B19414  24.364  39.285   7.523
 1308POPC   NC319415  31.665  16.002   9.604
 1308POPC   PO419416  31.167  15.605   9.464
 1308POPC   GL119417  31.426  15.866   9.159
 1308POPC   GL219418  31.809  15.871   9.136
 1308POPC   C1A19419  31.427  16.168   8.799
 1308POPC   D2A19420  31.281  16.189   8.371
 1308POPC   C3A19421  31.499  16.107   7.974
 1308POPC   C4A19422  31.428  16.150   7.511
 1308POPC   C1B19423  31.733  15.788   8.728
 1308POPC   C2B19424  31.589  15.747   8.357
 1308POPC   C3B19425  31.773  15.669   7.977
 1308POPC   C4B19426  31.517  15.660   7.631
 1309POPC   NC319427  29.682  32.004   9.684
 1309POPC   PO419428  30.001  32.557   9.651
 1309POPC   GL119429  29.957  32.365   9.193
 1309POPC   GL219430  30.214  32.114   9.102
 1309POPC   C1A19431  29.728  32.353   8.747
 1309POPC   D2A19432  29.746  32.124   8.305
 1309POPC   C3A19433  29.953  32.330   7.949
 1309POPC   C4A19434  30.301  32.620   8.002
 1309POPC   C1B19435  30.108  32.051   8.695
 1309POPC   C2B19436  30.272  32.203   8.345
 1309POPC   C3B19437  30.347  32.011   7.986
 1309POPC   C4B19438  30.176  31.680   7.780
 1310POPC   NC319439  32.791   2.388   9.378
 1310POPC   PO419440  33.444   2.780   9.511
 1310POPC   GL119441  33.128   2.833   9.198
 1310POPC   GL219442  33.270   3.130   9.080
 1310POPC   C1A19443  32.953   2.871   8.760
 1310POPC   D2A19444  32.701   2.824   8.374
 1310POPC   C3A19445  32.953   2.735   8.013
 1310POPC   C4A19446  32.892   2.608   7.590
 1310POPC   C1B19447  33.469   2.986   8.752
 1310POPC   C2B19448  33.296   3.004   8.361
 1310POPC   C3B19449  33.476   3.051   7.981
 1310POPC   C4B19450  33.409   2.768   7.666
 1311POPC   NC319451  40.901  17.410   9.557
 1311POPC   PO419452  41.054  16.735   9.537
 1311POPC   GL119453  41.034  17.145   9.159
 1311POPC   GL219454  41.042  17.540   9.095
 1311POPC   C1A19455  40.773  17.175   8.817
 1311POPC   D2A19456  40.579  17.358   8.474
 1311POPC   C3A19457  40.735  17.243   8.074
 1311POPC   C4A19458  40.539  17.479   7.785
 1311POPC   C1B19459  41.061  17.582   8.648
 1311POPC   C2B19460  40.917  17.683   8.242
 1311POPC   C3B19461  41.006  17.665   7.805
 1311POPC   C4B19462  40.847  17.813   7.409
 1312POPC   NC319463   1.245  31.160   9.691
 1312POPC   PO419464   0.709  31.418   9.338
 1312POPC   GL119465   1.053  31.543   9.129
 1312POPC   GL219466   1.330  31.330   9.175
 1312POPC   C1A19467   1.047  31.537   8.699
 1312POPC   D2A19468   1.092  31.325   8.325
 1312POPC   C3A19469   1.078  31.583   7.955
 1312POPC   C4A19470   1.184  31.538   7.542
 1312POPC   C1B19471   1.466  31.254   8.743
 1312POPC   C2B19472   1.530  31.063   8.332
 1312POPC   C3B19473   1.323  31.115   7.896
 1312POPC   C4B19474   1.514  31.171   7.431
 1313POPC   NC319475  44.331   6.647   9.460
 1313POPC   PO419476  44.951   6.271   9.456
 1313POPC   GL119477  44.762   6.325   9.104
 1313POPC   GL219478  44.399   6.238   9.105
 1313POPC   C1A19479  44.983   6.498   8.744
 1313POPC   D2A19480  44.828   6.835   8.449
 1313POPC   C3A19481  44.899   6.793   7.996
 1313POPC   C4A19482  44.762   6.676   7.541
 1313POPC   C1B19483  44.476   6.451   8.721
 1313POPC   C2B19484  44.656   6.362   8.332
 1313POPC   C3B19485  44.502   6.473   7.923
 1313POPC   C4B19486  44.335   6.338   7.503
 1314POPC   NC319487   0.513  30.002   9.372
 1314POPC   PO419488   0.073  29.498   9.513
 1314POPC   GL119489   0.143  29.710   9.126
 1314POPC   GL219490   0.136  30.070   9.035
 1314POPC   C1A19491   0.376  29.682   8.752
 1314POPC   D2A19492   0.145  29.828   8.410
 1314POPC   C3A19493   0.380  29.698   8.044
 1314POPC   C4A19494   0.699  29.900   7.814
 1314POPC   C1B19495   0.449  30.195   8.707
 1314POPC   C2B19496   0.506  30.148   8.255
 1314POPC   C3B19497   0.484  30.358   7.867
 1314POPC   C4B19498   0.515  30.222   7.454
 1315POPC   NC319499  41.500  42.784   9.665
 1315POPC   PO419500  41.234  43.488   9.672
 1315POPC   GL119501  41.427  43.335   9.263
 1315POPC   GL219502  41.368  42.957   9.208
 1315POPC   C1A19503  41.420  43.244   8.796
 1315POPC   D2A19504  41.791  43.205   8.500
 1315POPC   C3A19505  41.777  43.291   8.055
 1315POPC   C4A19506  41.803  43.408   7.652
 1315POPC   C1B19507  41.216  42.693   8.856
 1315POPC   C2B19508  41.335  42.658   8.444
 1315POPC   C3B19509  41.386  43.004   8.214
 1315POPC   C4B19510  41.412  43.052   7.792
 1316POPC   NC319511  20.834  29.074   9.657
 1316POPC   PO419512  21.528  28.995   9.629
 1316POPC   GL119513  21.480  29.147   9.197
 1316POPC   GL219514  21.353  28.839   9.150
 1316POPC   C1A19515  21.308  29.213   8.774
 1316POPC   D2A19516  21.122  29.136   8.380
 1316POPC   C3A19517  21.404  29.221   8.000
 1316POPC   C4A19518  21.498  29.097   7.561
 1316POPC   C1B19519  21.317  28.694   8.750
 1316POPC   C2B19520  21.470  28.780   8.338
 1316POPC   C3B19521  21.311  28.721   7.928
 1316POPC   C4B19522  21.198  28.597   7.518
 1317POPC   NC319523  31.469   6.293   9.391
 1317POPC   PO419524  31.669   5.721   9.662
 1317POPC   GL119525  31.591   5.812   9.196
 1317POPC   GL219526  31.235   5.926   9.126
 1317POPC   C1A19527  31.732   5.837   8.745
 1317POPC   D2A19528  31.568   5.716   8.342
 1317POPC   C3A19529  31.705   5.852   7.951
 1317POPC   C4A19530  31.830   5.590   7.622
 1317POPC   C1B19531  31.259   5.635   8.775
 1317POPC   C2B19532  31.066   5.743   8.364
 1317POPC   C3B19533  31.197   5.964   7.978
 1317POPC   C4B19534  31.355   5.829   7.574
 1318POPC   NC319535  17.622  13.344   9.651
 1318POPC   PO419536  17.592  14.022   9.644
 1318POPC   GL119537  17.479  13.709   9.338
 1318POPC   GL219538  17.783  13.560   9.206
 1318POPC   C1A19539  17.356  13.659   8.915
 1318POPC   D2A19540  17.485  13.747   8.484
 1318POPC   C3A19541  17.264  13.511   8.180
 1318POPC   C4A19542  17.303  13.392   7.774
 1318POPC   C1B19543  17.816  13.458   8.774
 1318POPC   C2B19544  17.725  13.326   8.349
 1318POPC   C3B19545  17.779  13.551   7.966
 1318POPC   C4B19546  17.952  13.314   7.631
 1319POPC   NC319547  15.512  35.079   9.466
 1319POPC   PO419548  14.877  35.229   9.519
 1319POPC   GL119549  15.125  35.313   9.153
 1319POPC   GL219550  14.764  35.514   9.100
 1319POPC   C1A19551  15.358  35.179   8.750
 1319POPC   D2A19552  15.390  35.189   8.282
 1319POPC   C3A19553  15.301  35.579   8.053
 1319POPC   C4A19554  15.572  35.784   7.766
 1319POPC   C1B19555  14.803  35.195   8.803
 1319POPC   C2B19556  14.938  35.379   8.439
 1319POPC   C3B19557  14.891  35.268   8.047
 1319POPC   C4B19558  14.943  35.098   7.672
 1320POPC   NC319559  13.073  39.228   9.412
 1320POPC   PO419560  12.505  38.852   9.491
 1320POPC   GL119561  12.705  39.004   9.153
 1320POPC   GL219562  13.037  38.822   9.125
 1320POPC   C1A19563  12.669  39.342   8.831
 1320POPC   D2A19564  12.746  39.247   8.371
 1320POPC   C3A19565  12.544  39.323   7.968
 1320POPC   C4A19566  12.777  39.372   7.543
 1320POPC   C1B19567  13.021  38.992   8.742
 1320POPC   C2B19568  13.201  39.058   8.347
 1320POPC   C3B19569  13.054  39.165   7.939
 1320POPC   C4B19570  13.208  39.071   7.534
 1321POPC   NC319571  39.684   1.053   9.205
 1321POPC   PO419572  39.964   1.405   9.623
 1321POPC   GL119573  40.125   1.332   9.178
 1321POPC   GL219574  40.203   0.977   9.051
 1321POPC   C1A19575  40.181   1.389   8.738
 1321POPC   D2A19576  40.117   1.259   8.328
 1321POPC   C3A19577  40.062   1.484   7.985
 1321POPC   C4A19578  40.322   1.468   7.642
 1321POPC   C1B19579  39.935   0.942   8.669
 1321POPC   C2B19580  39.608   1.078   8.401
 1321POPC   C3B19581  39.746   1.055   8.037
 1321POPC   C4B19582  39.791   0.957   7.659
 1322POPC   NC319583  27.455   9.531   9.438
 1322POPC   PO419584  27.731  10.102   9.684
 1322POPC   GL119585  27.733   9.919   9.196
 1322POPC   GL219586  28.017  10.088   8.971
 1322POPC   C1A19587  27.610   9.681   8.802
 1322POPC   D2A19588  27.290   9.525   8.487
 1322POPC   C3A19589  27.302   9.631   8.027
 1322POPC   C4A19590  27.592   9.551   7.692
 1322POPC   C1B19591  28.020  10.167   8.513
 1322POPC   C2B19592  27.826  10.214   8.133
 1322POPC   C3B19593  27.597  10.050   7.785
 1322POPC   C4B19594  27.324   9.981   7.426
 1323POPC   NC319595  19.054  21.033   9.503
 1323POPC   PO419596  18.980  21.742   9.443
 1323POPC   GL119597  19.056  21.470   9.103
 1323POPC   GL219598  19.328  21.249   9.120
 1323POPC   C1A19599  18.900  21.300   8.729
 1323POPC   D2A19600  18.817  21.096   8.338
 1323POPC   C3A19601  18.871  21.321   7.927
 1323POPC   C4A19602  19.169  21.530   7.584
 1323POPC   C1B19603  19.508  21.188   8.735
 1323POPC   C2B19604  19.297  21.354   8.405
 1323POPC   C3B19605  19.360  21.418   8.027
 1323POPC   C4B19606  19.573  21.203   7.684
 1324POPC   NC319607   5.988  35.501   9.617
 1324POPC   PO419608   5.432  35.002   9.603
 1324POPC   GL119609   5.703  35.072   9.227
 1324POPC   GL219610   6.015  35.261   9.175
 1324POPC   C1A19611   5.778  35.068   8.775
 1324POPC   D2A19612   5.614  35.012   8.347
 1324POPC   C3A19613   5.882  35.142   8.004
 1324POPC   C4A19614   5.752  35.455   7.711
 1324POPC   C1B19615   5.797  35.560   8.901
 1324POPC   C2B19616   6.024  35.698   8.546
 1324POPC   C3B19617   6.023  35.629   8.121
 1324POPC   C4B19618   6.257  35.564   7.765
 1325POPC   NC319619   2.806   8.794   9.598
 1325POPC   PO419620   3.025   9.484   9.481
 1325POPC   GL119621   2.806   9.188   9.142
 1325POPC   GL219622   2.729   8.784   9.088
 1325POPC   C1A19623   2.559   9.337   8.786
 1325POPC   D2A19624   2.814   9.409   8.436
 1325POPC   C3A19625   2.925   9.197   8.071
 1325POPC   C4A19626   2.764   9.105   7.696
 1325POPC   C1B19627   2.517   8.843   8.699
 1325POPC   C2B19628   2.534   8.910   8.272
 1325POPC   C3B19629   2.649   8.680   7.942
 1325POPC   C4B19630   2.526   8.634   7.516
 1326POPC   NC319631  29.917   0.363   9.535
 1326POPC   PO419632  29.306   0.529   9.705
 1326POPC   GL119633  29.590   0.744   9.202
 1326POPC   GL219634  29.964   0.634   9.134
 1326POPC   C1A19635  29.671   0.588   8.724
 1326POPC   D2A19636  29.648   0.284   8.358
 1326POPC   C3A19637  29.762   0.386   7.939
 1326POPC   C4A19638  29.817   0.802   7.854
 1326POPC   C1B19639  30.198   0.520   8.752
 1326POPC   C2B19640  30.103   0.563   8.312
 1326POPC   C3B19641  30.279   0.458   7.926
 1326POPC   C4B19642  30.138   0.553   7.522
 1327POPC   NC319643  29.407  41.447   9.563
 1327POPC   PO419644  28.707  41.351   9.577
 1327POPC   GL119645  28.968  41.425   9.181
 1327POPC   GL219646  29.328  41.382   9.081
 1327POPC   C1A19647  29.059  41.732   8.836
 1327POPC   D2A19648  28.937  41.678   8.399
 1327POPC   C3A19649  29.008  41.748   7.952
 1327POPC   C4A19650  28.750  41.559   7.632
 1327POPC   C1B19651  29.277  41.307   8.641
 1327POPC   C2B19652  29.371  41.172   8.223
 1327POPC   C3B19653  29.392  41.375   7.830
 1327POPC   C4B19654  29.539  41.794   7.762
 1328POPC   NC319655  41.639  36.705   9.433
 1328POPC   PO419656  40.986  36.810   9.449
 1328POPC   GL119657  41.329  36.968   9.142
 1328POPC   GL219658  41.637  37.177   9.160
 1328POPC   C1A19659  41.608  36.861   8.751
 1328POPC   D2A19660  41.756  37.004   8.318
 1328POPC   C3A19661  41.488  36.725   8.055
 1328POPC   C4A19662  41.502  36.555   7.673
 1328POPC   C1B19663  41.663  37.370   8.727
 1328POPC   C2B19664  41.538  37.516   8.318
 1328POPC   C3B19665  41.765  37.399   7.969
 1328POPC   C4B19666  41.734  37.016   7.748
 1329POPC   NC319667  25.344  24.920   9.499
 1329POPC   PO419668  25.425  25.568   9.421
 1329POPC   GL119669  25.187  25.317   9.090
 1329POPC   GL219670  24.930  25.023   9.165
 1329POPC   C1A19671  25.018  25.440   8.673
 1329POPC   D2A19672  24.944  25.632   8.263
 1329POPC   C3A19673  24.958  25.330   7.932
 1329POPC   C4A19674  25.275  25.360   7.603
 1329POPC   C1B19675  25.080  24.928   8.731
 1329POPC   C2B19676  25.202  25.079   8.323
 1329POPC   C3B19677  25.304  24.962   7.916
 1329POPC   C4B19678  25.121  24.913   7.512
 1330POPC   NC319679  22.501  15.535   9.451
 1330POPC   PO419680  22.068  15.087   9.628
 1330POPC   GL119681  22.028  15.270   9.216
 1330POPC   GL219682  22.319  15.112   9.150
 1330POPC   C1A19683  22.148  15.425   8.775
 1330POPC   D2A19684  22.132  15.653   8.387
 1330POPC   C3A19685  22.232  15.485   7.973
 1330POPC   C4A19686  22.320  15.325   7.558
 1330POPC   C1B19687  22.214  14.909   8.739
 1330POPC   C2B19688  22.478  14.691   8.457
 1330POPC   C3B19689  22.401  14.617   8.012
 1330POPC   C4B19690  22.259  14.825   7.622
 1331POPC   NC319691   8.042  16.101   9.737
 1331POPC   PO419692   8.615  15.738   9.619
 1331POPC   GL119693   8.276  15.835   9.312
 1331POPC   GL219694   8.417  16.106   9.206
 1331POPC   C1A19695   8.061  15.840   8.879
 1331POPC   D2A19696   7.912  15.840   8.407
 1331POPC   C3A19697   8.074  16.037   8.000
 1331POPC   C4A19698   8.208  15.817   7.579
 1331POPC   C1B19699   8.560  15.853   8.865
 1331POPC   C2B19700   8.406  15.917   8.447
 1331POPC   C3B19701   8.549  15.851   8.019
 1331POPC   C4B19702   8.717  15.898   7.613
 1332POPC   NC319703   8.026  43.919   9.521
 1332POPC   PO419704   7.776  43.361   9.299
 1332POPC   GL119705   7.983  43.718   9.064
 1332POPC   GL219706   7.922  44.099   9.075
 1332POPC   C1A19707   8.314  43.751   8.815
 1332POPC   D2A19708   8.399  43.556   8.464
 1332POPC   C3A19709   8.441  43.671   8.055
 1332POPC   C4A19710   8.190  43.774   7.718
 1332POPC   C1B19711   8.131  44.232   8.748
 1332POPC   C2B19712   8.214  44.033   8.386
 1332POPC   C3B19713   8.080  44.174   8.035
 1332POPC   C4B19714   7.802  44.103   7.697
 1333POPC   NC319715  26.254  16.530   9.442
 1333POPC   PO419716  25.631  16.750   9.561
 1333POPC   GL119717  25.884  16.746   9.164
 1333POPC   GL219718  26.168  16.998   9.168
 1333POPC   C1A19719  25.995  16.608   8.721
 1333POPC   D2A19720  26.105  16.842   8.310
 1333POPC   C3A19721  25.988  16.685   7.918
 1333POPC   C4A19722  26.147  16.294   7.809
 1333POPC   C1B19723  26.334  17.018   8.733
 1333POPC   C2B19724  26.619  16.946   8.342
 1333POPC   C3B19725  26.484  16.933   7.927
 1333POPC   C4B19726  26.127  17.217   7.915
 1334POPC   NC319727  39.894   4.872   9.757
 1334POPC   PO419728  40.115   5.497   9.502
 1334POPC   GL119729  39.919   5.130   9.245
 1334POPC   GL219730  39.876   4.730   9.261
 1334POPC   C1A19731  39.854   5.199   8.789
 1334POPC   D2A19732  40.193   5.175   8.496
 1334POPC   C3A19733  40.183   5.381   8.112
 1334POPC   C4A19734  40.157   5.277   7.687
 1334POPC   C1B19735  40.036   4.729   8.822
 1334POPC   C2B19736  39.819   4.818   8.414
 1334POPC   C3B19737  39.906   4.936   7.970
 1334POPC   C4B19738  40.037   4.781   7.544
 1335POPC   NC319739  21.106   0.959   9.975
 1335POPC   PO419740  21.414   1.353   9.509
 1335POPC   GL119741  21.512   1.239   9.111
 1335POPC   GL219742  21.424   0.910   9.140
 1335POPC   C1A19743  21.486   1.215   8.690
 1335POPC   D2A19744  21.749   1.249   8.425
 1335POPC   C3A19745  21.657   1.410   8.086
 1335POPC   C4A19746  21.500   1.290   7.721
 1335POPC   C1B19747  21.103   0.919   8.812
 1335POPC   C2B19748  21.318   0.781   8.460
 1335POPC   C3B19749  21.448   0.935   8.103
 1335POPC   C4B19750  21.390   0.798   7.687
 1336POPC   NC319751   3.744  25.963   9.482
 1336POPC   PO419752   3.081  26.207   9.661
 1336POPC   GL119753   3.339  26.168   9.277
 1336POPC   GL219754   3.274  25.793   9.255
 1336POPC   C1A19755   3.627  26.219   8.874
 1336POPC   D2A19756   3.525  26.245   8.434
 1336POPC   C3A19757   3.706  26.421   8.043
 1336POPC   C4A19758   3.562  26.355   7.621
 1336POPC   C1B19759   3.377  25.777   8.830
 1336POPC   C2B19760   3.691  25.762   8.484
 1336POPC   C3B19761   3.588  25.877   8.063
 1336POPC   C4B19762   3.466  25.868   7.656
 1337POPC   NC319763  19.509  44.094   9.438
 1337POPC   PO419764  19.957  43.662   9.518
 1337POPC   GL119765  19.877  43.910   9.122
 1337POPC   GL219766  19.959  44.280   9.095
 1337POPC   C1A19767  19.679  44.009   8.730
 1337POPC   D2A19768  19.755  43.908   8.294
 1337POPC   C3A19769  19.614  44.165   7.901
 1337POPC   C4A19770  19.521  44.118   7.435
 1337POPC   C1B19771  20.174  44.136   8.736
 1337POPC   C2B19772  20.308  44.193   8.336
 1337POPC   C3B19773  20.115  44.039   7.971
 1337POPC   C4B19774  19.989  43.998   7.566
 1338POPC   NC319775  26.335  44.627   9.542
 1338POPC   PO419776  25.803   0.063   9.462
 1338POPC   GL119777  26.043  44.769   9.126
 1338POPC   GL219778  26.191  44.415   9.116
 1338POPC   C1A19779  26.167  44.678   8.663
 1338POPC   D2A19780  25.979   0.025   8.402
 1338POPC   C3A19781  26.010  44.951   8.015
 1338POPC   C4A19782  26.316  44.711   7.758
 1338POPC   C1B19783  25.869  44.324   8.862
 1338POPC   C2B19784  25.775  44.421   8.445
 1338POPC   C3B19785  26.068  44.461   8.136
 1338POPC   C4B19786  25.968  44.354   7.704
 1339POPC   NC319787  39.376  38.627   9.571
 1339POPC   PO419788  39.266  37.910   9.573
 1339POPC   GL119789  39.237  38.248   9.204
 1339POPC   GL219790  39.162  38.652   9.118
 1339POPC   C1A19791  39.320  38.341   8.762
 1339POPC   D2A19792  39.116  38.199   8.402
 1339POPC   C3A19793  39.366  38.318   8.096
 1339POPC   C4A19794  39.441  38.271   7.686
 1339POPC   C1B19795  39.468  38.821   8.759
 1339POPC   C2B19796  39.642  38.685   8.367
 1339POPC   C3B19797  39.533  38.761   7.928
 1339POPC   C4B19798  39.487  38.761   7.450
 1340POPC   NC319799   6.953   7.671   9.354
 1340POPC   PO419800   6.382   7.221   9.377
 1340POPC   GL119801   6.534   7.402   9.047
 1340POPC   GL219802   6.863   7.275   9.037
 1340POPC   C1A19803   6.473   7.763   8.782
 1340POPC   D2A19804   6.695   7.898   8.405
 1340POPC   C3A19805   6.625   7.621   8.032
 1340POPC   C4A19806   6.714   7.483   7.611
 1340POPC   C1B19807   6.767   7.066   8.678
 1340POPC   C2B19808   6.737   7.185   8.286
 1340POPC   C3B19809   6.899   7.132   7.905
 1340POPC   C4B19810   6.990   7.064   7.438
 1341POPC   NC319811  37.278  32.475   9.423
 1341POPC   PO419812  37.951  32.259   9.491
 1341POPC   GL119813  37.961  32.194   9.104
 1341POPC   GL219814  38.166  31.868   9.140
 1341POPC   C1A19815  37.587  32.211   8.858
 1341POPC   D2A19816  37.550  32.133   8.458
 1341POPC   C3A19817  37.388  32.284   8.092
 1341POPC   C4A19818  37.706  32.376   7.821
 1341POPC   C1B19819  37.859  31.791   8.804
 1341POPC   C2B19820  37.748  31.663   8.413
 1341POPC   C3B19821  37.709  31.880   8.025
 1341POPC   C4B19822  37.994  31.933   7.742
 1342POPC   NC319823  43.258  14.886   9.494
 1342POPC   PO419824  43.016  15.496   9.658
 1342POPC   GL119825  42.947  15.375   9.204
 1342POPC   GL219826  42.953  15.034   9.125
 1342POPC   C1A19827  43.070  15.326   8.732
 1342POPC   D2A19828  43.084  15.465   8.285
 1342POPC   C3A19829  43.203  15.243   7.890
 1342POPC   C4A19830  43.259  15.056   7.469
 1342POPC   C1B19831  42.939  14.824   8.747
 1342POPC   C2B19832  42.825  14.992   8.367
 1342POPC   C3B19833  42.856  14.902   7.975
 1342POPC   C4B19834  42.760  15.140   7.567
 1343POPC   NC319835   0.961  20.230   9.358
 1343POPC   PO419836   1.189  20.887   9.634
 1343POPC   GL119837   1.138  20.708   9.221
 1343POPC   GL219838   1.491  20.748   9.123
 1343POPC   C1A19839   1.092  20.668   8.767
 1343POPC   D2A19840   0.907  20.661   8.351
 1343POPC   C3A19841   1.062  20.493   7.946
 1343POPC   C4A19842   0.993  20.715   7.542
 1343POPC   C1B19843   1.564  20.917   8.731
 1343POPC   C2B19844   1.337  20.951   8.365
 1343POPC   C3B19845   1.431  20.841   7.944
 1343POPC   C4B19846   1.776  21.073   7.801
 1344POPC   NC319847  27.199   1.037   9.825
 1344POPC   PO419848  26.843   1.325   9.422
 1344POPC   GL119849  26.852   1.245   8.994
 1344POPC   GL219850  27.158   1.145   9.021
 1344POPC   C1A19851  26.664   1.052   8.656
 1344POPC   D2A19852  26.395   0.915   8.320
 1344POPC   C3A19853  26.618   1.111   7.996
 1344POPC   C4A19854  26.991   1.003   7.756
 1344POPC   C1B19855  27.182   1.478   8.694
 1344POPC   C2B19856  26.931   1.381   8.347
 1344POPC   C3B19857  26.977   1.492   7.938
 1344POPC   C4B19858  26.992   1.471   7.516
 1345POPC   NC319859  25.136   9.339   9.322
 1345POPC   PO419860  25.496   9.770   9.731
 1345POPC   GL119861  25.369   9.798   9.248
 1345POPC   GL219862  24.984   9.816   9.196
 1345POPC   C1A19863  25.422   9.661   8.766
 1345POPC   D2A19864  25.323   9.472   8.320
 1345POPC   C3A19865  25.450   9.639   7.894
 1345POPC   C4A19866  25.371   9.675   7.384
 1345POPC   C1B19867  25.119  10.072   8.848
 1345POPC   C2B19868  24.930  10.150   8.429
 1345POPC   C3B19869  25.005   9.868   8.080
 1345POPC   C4B19870  25.196  10.034   7.709
 1346POPC   NC319871  32.133  18.425   9.828
 1346POPC   PO419872  32.405  18.063   9.331
 1346POPC   GL119873  32.053  18.060   9.097
 1346POPC   GL219874  32.189  18.321   8.900
 1346POPC   C1A19875  32.045  17.911   8.662
 1346POPC   D2A19876  32.158  18.279   8.395
 1346POPC   C3A19877  32.269  18.145   8.004
 1346POPC   C4A19878  32.206  18.256   7.614
 1346POPC   C1B19879  32.348  18.696   8.737
 1346POPC   C2B19880  32.458  18.818   8.381
 1346POPC   C3B19881  32.452  18.619   8.015
 1346POPC   C4B19882  32.626  18.604   7.642
 1347POPC   NC319883   6.947  38.642   9.456
 1347POPC   PO419884   6.478  38.135   9.505
 1347POPC   GL119885   6.736  38.253   9.195
 1347POPC   GL219886   6.587  38.575   9.104
 1347POPC   C1A19887   6.779  38.184   8.782
 1347POPC   D2A19888   6.521  38.236   8.436
 1347POPC   C3A19889   6.712  38.334   8.040
 1347POPC   C4A19890   6.482  38.403   7.696
 1347POPC   C1B19891   6.781  38.729   8.764
 1347POPC   C2B19892   6.642  38.724   8.356
 1347POPC   C3B19893   6.540  38.860   7.954
 1347POPC   C4B19894   6.833  38.763   7.654
 1348POPC   NC319895  16.093  26.896   9.744
 1348POPC   PO419896  15.635  26.525   9.575
 1348POPC   GL119897  15.961  26.660   9.271
 1348POPC   GL219898  15.949  27.005   9.220
 1348POPC   C1A19899  16.013  26.651   8.821
 1348POPC   D2A19900  15.740  26.710   8.440
 1348POPC   C3A19901  15.953  26.814   8.049
 1348POPC   C4A19902  16.045  26.757   7.617
 1348POPC   C1B19903  15.759  27.107   8.785
 1348POPC   C2B19904  15.911  27.225   8.363
 1348POPC   C3B19905  15.774  27.294   7.930
 1348POPC   C4B19906  15.707  27.122   7.511
 1349POPC   NC319907  31.880  10.611   9.500
 1349POPC   PO419908  32.404  10.269   9.601
 1349POPC   GL119909  32.395  10.454   9.216
 1349POPC   GL219910  32.643  10.714   9.210
 1349POPC   C1A19911  32.204  10.663   8.864
 1349POPC   D2A19912  31.990  10.704   8.467
 1349POPC   C3A19913  32.184  10.429   8.142
 1349POPC   C4A19914  32.149  10.506   7.719
 1349POPC   C1B19915  32.693  10.851   8.791
 1349POPC   C2B19916  32.510  10.805   8.359
 1349POPC   C3B19917  32.545  10.753   7.903
 1349POPC   C4B19918  32.469  10.716   7.409
 1350POPC   NC319919  28.760  11.785   9.481
 1350POPC   PO419920  29.148  12.429   9.483
 1350POPC   GL119921  29.222  12.250   9.119
 1350POPC   GL219922  28.916  12.087   9.082
 1350POPC   C1A19923  29.286  12.067   8.730
 1350POPC   D2A19924  29.458  12.199   8.395
 1350POPC   C3A19925  29.189  12.183   8.050
 1350POPC   C4A19926  29.279  12.190   7.632
 1350POPC   C1B19927  28.823  11.799   8.779
 1350POPC   C2B19928  28.887  11.925   8.413
 1350POPC   C3B19929  28.666  12.150   8.138
 1350POPC   C4B19930  28.750  12.086   7.732
 1351POPC   NC319931  14.674  25.067   9.539
 1351POPC   PO419932  14.275  25.578   9.645
 1351POPC   GL119933  14.568  25.509   9.267
 1351POPC   GL219934  14.456  25.188   9.102
 1351POPC   C1A19935  14.673  25.499   8.776
 1351POPC   D2A19936  14.834  25.309   8.385
 1351POPC   C3A19937  14.601  25.416   7.974
 1351POPC   C4A19938  14.696  25.523   7.523
 1351POPC   C1B19939  14.463  24.953   8.722
 1351POPC   C2B19940  14.385  25.069   8.318
 1351POPC   C3B19941  14.107  25.257   8.030
 1351POPC   C4B19942  14.146  25.550   7.708
 1352POPC   NC319943  20.363  42.427   9.841
 1352POPC   PO419944  19.869  42.667   9.462
 1352POPC   GL119945  19.983  42.378   9.164
 1352POPC   GL219946  19.702  42.533   8.971
 1352POPC   C1A19947  19.991  42.180   8.740
 1352POPC   D2A19948  19.668  42.199   8.437
 1352POPC   C3A19949  19.689  42.060   8.027
 1352POPC   C4A19950  19.995  42.135   7.685
 1352POPC   C1B19951  20.113  42.666   8.764
 1352POPC   C2B19952  20.162  42.663   8.340
 1352POPC   C3B19953  19.866  42.563   8.000
 1352POPC   C4B19954  19.539  42.487   7.698
 1353POPC   NC319955  20.211  23.015   9.656
 1353POPC   PO419956  20.801  22.801   9.511
 1353POPC   GL119957  20.470  22.867   9.195
 1353POPC   GL219958  20.381  23.206   9.200
 1353POPC   C1A19959  20.540  22.981   8.758
 1353POPC   D2A19960  20.665  23.278   8.439
 1353POPC   C3A19961  20.768  23.008   8.124
 1353POPC   C4A19962  20.854  22.850   7.732
 1353POPC   C1B19963  20.165  23.311   8.826
 1353POPC   C2B19964  20.163  23.139   8.426
 1353POPC   C3B19965  20.297  23.154   8.032
 1353POPC   C4B19966  20.362  22.900   7.673
 1354POPC   NC319967  15.405  14.974   9.804
 1354POPC   PO419968  14.999  15.517   9.609
 1354POPC   GL119969  14.962  15.201   9.268
 1354POPC   GL219970  15.336  15.154   9.238
 1354POPC   C1A19971  14.974  15.257   8.789
 1354POPC   D2A19972  15.159  15.304   8.351
 1354POPC   C3A19973  15.103  15.014   7.999
 1354POPC   C4A19974  15.102  15.072   7.552
 1354POPC   C1B19975  15.295  14.878   8.881
 1354POPC   C2B19976  15.273  14.763   8.422
 1354POPC   C3B19977  15.554  14.769   8.004
 1354POPC   C4B19978  15.548  14.893   7.557
 1355POPC   NC319979  17.803   3.144   9.331
 1355POPC   PO419980  17.199   2.971   9.645
 1355POPC   GL119981  17.326   2.918   9.234
 1355POPC   GL219982  17.550   2.677   9.194
 1355POPC   C1A19983  17.263   2.986   8.800
 1355POPC   D2A19984  17.089   3.036   8.395
 1355POPC   C3A19985  17.334   2.975   8.006
 1355POPC   C4A19986  17.301   2.602   7.730
 1355POPC   C1B19987  17.710   2.731   8.795
 1355POPC   C2B19988  17.651   2.912   8.402
 1355POPC   C3B19989  17.723   2.628   8.044
 1355POPC   C4B19990  17.878   2.655   7.612
 1356POPC   NC319991  20.247  13.359   9.499
 1356POPC   PO419992  20.727  13.927   9.597
 1356POPC   GL119993  20.686  13.947   9.187
 1356POPC   GL219994  20.497  13.639   9.128
 1356POPC   C1A19995  20.604  14.027   8.763
 1356POPC   D2A19996  20.463  13.801   8.424
 1356POPC   C3A19997  20.674  13.780   8.052
 1356POPC   C4A19998  20.700  13.760   7.602
 1356POPC   C1B19999  20.421  13.326   8.775
 1356POPC   C2B20000  20.376  13.221   8.316
 1356POPC   C3B20001  20.534  13.320   7.849
 1356POPC   C4B20002  20.439  13.382   7.364
 1357POPC   NC320003  23.133  40.908   9.480
 1357POPC   PO420004  22.538  40.560   9.477
 1357POPC   GL120005  22.841  40.654   9.138
 1357POPC   GL220006  23.226  40.559   9.122
 1357POPC   C1A20007  22.986  40.945   8.829
 1357POPC   D2A20008  23.203  41.005   8.451
 1357POPC   C3A20009  22.991  41.226   8.144
 1357POPC   C4A20010  22.773  41.036   7.826
 1357POPC   C1B20011  23.111  40.441   8.708
 1357POPC   C2B20012  22.928  40.539   8.320
 1357POPC   C3B20013  23.158  40.710   7.991
 1357POPC   C4B20014  23.287  41.028   7.747
 1358POPC   NC320015  42.386   1.697   9.621
 1358POPC   PO420016  42.305   2.249   9.671
 1358POPC   GL120017  42.338   2.170   9.205
 1358POPC   GL220018  42.333   1.821   9.137
 1358POPC   C1A20019  42.550   2.132   8.810
 1358POPC   D2A20020  42.478   2.347   8.452
 1358POPC   C3A20021  42.541   2.204   8.041
 1358POPC   C4A20022  42.296   2.191   7.679
 1358POPC   C1B20023  42.379   1.626   8.724
 1358POPC   C2B20024  42.248   1.514   8.300
 1358POPC   C3B20025  42.323   1.717   7.939
 1358POPC   C4B20026  42.629   1.825   7.688
 1359POPC   NC320027  27.235  26.517   9.491
 1359POPC   PO420028  27.628  26.974   9.670
 1359POPC   GL120029  27.661  26.771   9.221
 1359POPC   GL220030  27.404  26.525   9.017
 1359POPC   C1A20031  27.789  26.780   8.784
 1359POPC   D2A20032  27.596  26.581   8.438
 1359POPC   C3A20033  27.714  26.829   8.040
 1359POPC   C4A20034  27.561  27.223   7.935
 1359POPC   C1B20035  27.284  26.909   8.793
 1359POPC   C2B20036  27.347  27.020   8.357
 1359POPC   C3B20037  27.235  26.690   8.023
 1359POPC   C4B20038  27.170  26.346   7.743
 1360POPC   NC320039  28.343  35.585   9.736
 1360POPC   PO420040  28.657  35.027   9.429
 1360POPC   GL120041  28.543  35.266   9.070
 1360POPC   GL220042  28.267  35.426   9.246
 1360POPC   C1A20043  28.505  35.277   8.608
 1360POPC   D2A20044  28.432  35.356   8.165
 1360POPC   C3A20045  28.651  35.147   7.906
 1360POPC   C4A20046  28.506  35.096   7.537
 1360POPC   C1B20047  28.210  35.640   8.844
 1360POPC   C2B20048  28.077  35.617   8.434
 1360POPC   C3B20049  28.139  35.825   8.068
 1360POPC   C4B20050  28.433  35.705   7.746
 1361POPC   NC320051  43.554   7.270   9.552
 1361POPC   PO420052  42.881   7.242   9.476
 1361POPC   GL120053  43.152   7.409   9.185
 1361POPC   GL220054  43.295   7.102   9.152
 1361POPC   C1A20055  43.056   7.655   8.795
 1361POPC   D2A20056  43.202   7.719   8.341
 1361POPC   C3A20057  43.022   7.404   8.022
 1361POPC   C4A20058  42.877   7.169   7.617
 1361POPC   C1B20059  43.390   7.271   8.736
 1361POPC   C2B20060  43.398   7.050   8.380
 1361POPC   C3B20061  43.535   7.077   7.979
 1361POPC   C4B20062  43.380   7.322   7.666
 1362POPC   NC320063  18.908  23.571   9.511
 1362POPC   PO420064  18.719  24.196   9.524
 1362POPC   GL120065  18.978  23.950   9.145
 1362POPC   GL220066  19.188  23.602   9.098
 1362POPC   C1A20067  19.062  23.856   8.676
 1362POPC   D2A20068  19.087  23.973   8.233
 1362POPC   C3A20069  19.130  23.812   7.813
 1362POPC   C4A20070  18.993  23.454   7.606
 1362POPC   C1B20071  19.182  23.363   8.737
 1362POPC   C2B20072  19.218  23.494   8.349
 1362POPC   C3B20073  19.309  23.370   7.995
 1362POPC   C4B20074  19.526  23.434   7.668
 1363POPC   NC320075  21.944  43.075   9.577
 1363POPC   PO420076  22.581  43.236   9.396
 1363POPC   GL120077  22.208  43.150   9.143
 1363POPC   GL220078  21.836  43.302   9.116
 1363POPC   C1A20079  22.176  43.224   8.708
 1363POPC   D2A20080  22.309  43.244   8.294
 1363POPC   C3A20081  22.003  42.968   8.108
 1363POPC   C4A20082  22.153  42.734   7.769
 1363POPC   C1B20083  21.830  43.603   8.778
 1363POPC   C2B20084  22.050  43.671   8.403
 1363POPC   C3B20085  22.056  43.557   7.974
 1363POPC   C4B20086  22.225  43.234   7.743
 1364POPC   NC320087  10.089  24.765   9.793
 1364POPC   PO420088   9.500  24.487   9.605
 1364POPC   GL120089   9.573  24.668   9.206
 1364POPC   GL220090   9.746  24.349   9.178
 1364POPC   C1A20091   9.482  24.697   8.760
 1364POPC   D2A20092   9.477  24.827   8.320
 1364POPC   C3A20093   9.744  24.644   7.989
 1364POPC   C4A20094   9.572  24.673   7.576
 1364POPC   C1B20095   9.818  24.298   8.770
 1364POPC   C2B20096   9.969  24.216   8.400
 1364POPC   C3B20097   9.698  24.114   8.095
 1364POPC   C4B20098   9.736  24.213   7.694
 1365POPC   NC320099  29.070  35.125   9.248
 1365POPC   PO420100  29.462  35.616   9.352
 1365POPC   GL120101  29.437  35.367   8.961
 1365POPC   GL220102  29.074  35.446   8.870
 1365POPC   C1A20103  29.281  35.120   8.575
 1365POPC   D2A20104  28.956  35.249   8.321
 1365POPC   C3A20105  29.156  35.231   7.932
 1365POPC   C4A20106  29.337  35.232   7.516
 1365POPC   C1B20107  28.738  35.696   8.815
 1365POPC   C2B20108  28.571  35.764   8.407
 1365POPC   C3B20109  28.843  35.665   8.037
 1365POPC   C4B20110  28.884  35.467   7.584
 1366POPC   NC320111  32.626  44.173   9.523
 1366POPC   PO420112  32.119  43.816   9.711
 1366POPC   GL120113  32.112  44.029   9.285
 1366POPC   GL220114  32.397  43.899   9.089
 1366POPC   C1A20115  31.983  44.125   8.821
 1366POPC   D2A20116  32.186  43.971   8.443
 1366POPC   C3A20117  32.216  44.140   8.005
 1366POPC   C4A20118  32.269  43.909   7.649
 1366POPC   C1B20119  32.119  43.626   8.838
 1366POPC   C2B20120  31.985  43.490   8.429
 1366POPC   C3B20121  32.119  43.630   8.040
 1366POPC   C4B20122  31.979  43.501   7.643
 1367POPC   NC320123   3.149  15.767   9.391
 1367POPC   PO420124   3.837  15.995   9.584
 1367POPC   GL120125   3.602  15.906   9.178
 1367POPC   GL220126   3.536  15.517   9.156
 1367POPC   C1A20127   3.367  15.956   8.761
 1367POPC   D2A20128   3.174  16.147   8.414
 1367POPC   C3A20129   3.381  15.853   8.156
 1367POPC   C4A20130   3.518  15.960   7.788
 1367POPC   C1B20131   3.757  15.614   8.765
 1367POPC   C2B20132   3.718  15.478   8.340
 1367POPC   C3B20133   3.889  15.655   7.956
 1367POPC   C4B20134   4.002  16.103   7.807
 1368POPC   NC320135  38.724  18.051   9.468
 1368POPC   PO420136  38.196  18.564   9.548
 1368POPC   GL120137  38.472  18.457   9.243
 1368POPC   GL220138  38.374  18.170   9.058
 1368POPC   C1A20139  38.637  18.627   8.868
 1368POPC   D2A20140  38.465  18.636   8.454
 1368POPC   C3A20141  38.487  18.265   8.229
 1368POPC   C4A20142  38.521  18.359   7.806
 1368POPC   C1B20143  38.715  18.110   8.724
 1368POPC   C2B20144  38.916  18.006   8.307
 1368POPC   C3B20145  38.789  17.925   7.885
 1368POPC   C4B20146  38.680  18.042   7.445
 1369POPC   NC320147   5.824  26.546   9.445
 1369POPC   PO420148   6.213  27.127   9.618
 1369POPC   GL120149   5.962  27.028   9.227
 1369POPC   GL220150   5.689  26.800   9.046
 1369POPC   C1A20151   5.936  27.160   8.799
 1369POPC   D2A20152   5.687  26.919   8.548
 1369POPC   C3A20153   5.772  26.884   8.162
 1369POPC   C4A20154   5.916  26.841   7.790
 1369POPC   C1B20155   5.776  26.450   8.724
 1369POPC   C2B20156   5.839  26.392   8.255
 1369POPC   C3B20157   5.554  26.503   7.886
 1369POPC   C4B20158   5.579  26.674   7.454
 1370POPC   NC320159  41.098  21.406   9.518
 1370POPC   PO420160  40.594  20.976   9.542
 1370POPC   GL120161  40.744  21.192   9.189
 1370POPC   GL220162  40.723  21.574   9.180
 1370POPC   C1A20163  40.689  21.191   8.767
 1370POPC   D2A20164  40.443  21.298   8.409
 1370POPC   C3A20165  40.621  21.196   8.006
 1370POPC   C4A20166  40.569  21.517   7.707
 1370POPC   C1B20167  41.036  21.556   8.821
 1370POPC   C2B20168  40.975  21.403   8.392
 1370POPC   C3B20169  40.992  21.599   8.004
 1370POPC   C4B20170  41.075  21.440   7.623
 1371POPC   NC320171   7.028  10.347   9.740
 1371POPC   PO420172   6.486  10.446   9.293
 1371POPC   GL120173   6.577  10.594   8.956
 1371POPC   GL220174   6.296  10.814   8.942
 1371POPC   C1A20175   6.710  10.452   8.581
 1371POPC   D2A20176   6.808  10.090   8.360
 1371POPC   C3A20177   6.957  10.280   8.003
 1371POPC   C4A20178   6.818  10.587   7.698
 1371POPC   C1B20179   6.148  10.405   8.751
 1371POPC   C2B20180   6.285  10.206   8.419
 1371POPC   C3B20181   6.459  10.421   8.087
 1371POPC   C4B20182   6.312  10.430   7.697
 1372POPC   NC320183  36.626  36.276   9.410
 1372POPC   PO420184  37.038  35.759   9.640
 1372POPC   GL120185  36.979  35.924   9.214
 1372POPC   GL220186  36.641  35.904   9.034
 1372POPC   C1A20187  37.044  36.197   8.840
 1372POPC   D2A20188  37.002  36.047   8.431
 1372POPC   C3A20189  37.116  36.295   8.089
 1372POPC   C4A20190  37.312  36.149   7.736
 1372POPC   C1B20191  36.565  36.196   8.666
 1372POPC   C2B20192  36.610  36.270   8.174
 1372POPC   C3B20193  36.770  36.024   7.807
 1372POPC   C4B20194  36.628  35.842   7.386
 1373POPC   NC320195   8.479  38.400   9.424
 1373POPC   PO420196   8.077  38.969   9.601
 1373POPC   GL120197   8.076  38.678   9.186
 1373POPC   GL220198   7.786  38.410   9.129
 1373POPC   C1A20199   8.097  38.508   8.728
 1373POPC   D2A20200   7.981  38.269   8.339
 1373POPC   C3A20201   8.199  38.225   7.967
 1373POPC   C4A20202   8.188  38.537   7.701
 1373POPC   C1B20203   7.634  38.223   8.721
 1373POPC   C2B20204   7.489  38.181   8.251
 1373POPC   C3B20205   7.717  38.373   7.865
 1373POPC   C4B20206   7.949  38.115   7.521
 1374POPC   NC320207  27.773  15.595   9.583
 1374POPC   PO420208  27.379  16.237   9.546
 1374POPC   GL120209  27.481  16.042   9.136
 1374POPC   GL220210  27.481  15.688   9.131
 1374POPC   C1A20211  27.528  16.048   8.656
 1374POPC   D2A20212  27.419  15.813   8.259
 1374POPC   C3A20213  27.488  16.006   7.850
 1374POPC   C4A20214  27.808  16.302   7.787
 1374POPC   C1B20215  27.893  15.803   8.928
 1374POPC   C2B20216  28.003  15.766   8.495
 1374POPC   C3B20217  27.925  15.754   8.076
 1374POPC   C4B20218  28.045  15.840   7.680
 1375POPC   NC320219   2.440  25.175   9.493
 1375POPC   PO420220   3.139  25.347   9.620
 1375POPC   GL120221   2.867  25.429   9.239
 1375POPC   GL220222   2.840  25.119   9.085
 1375POPC   C1A20223   2.495  25.429   8.897
 1375POPC   D2A20224   2.465  25.236   8.484
 1375POPC   C3A20225   2.766  25.403   8.188
 1375POPC   C4A20226   2.712  25.484   7.749
 1375POPC   C1B20227   2.968  25.274   8.691
 1375POPC   C2B20228   2.938  24.940   8.389
 1375POPC   C3B20229   2.777  24.914   8.003
 1375POPC   C4B20230   3.004  25.070   7.685
 1376POPC   NC320231  24.293   9.187   9.474
 1376POPC   PO420232  24.972   8.948   9.558
 1376POPC   GL120233  24.724   9.066   9.178
 1376POPC   GL220234  24.414   8.922   9.065
 1376POPC   C1A20235  24.806   8.944   8.737
 1376POPC   D2A20236  24.617   8.695   8.401
 1376POPC   C3A20237  24.528   8.889   7.986
 1376POPC   C4A20238  24.500   8.705   7.560
 1376POPC   C1B20239  24.163   9.044   8.734
 1376POPC   C2B20240  24.069   9.036   8.312
 1376POPC   C3B20241  24.058   9.258   7.950
 1376POPC   C4B20242  24.087   8.965   7.672
 1377POPC   NC320243   9.138  30.321   9.463
 1377POPC   PO420244   8.717  30.828   9.473
 1377POPC   GL120245   8.828  30.591   9.147
 1377POPC   GL220246   8.918  30.908   8.976
 1377POPC   C1A20247   8.881  30.466   8.743
 1377POPC   D2A20248   8.883  30.719   8.422
 1377POPC   C3A20249   9.004  30.498   8.088
 1377POPC   C4A20250   8.926  30.487   7.677
 1377POPC   C1B20251   9.284  30.924   8.686
 1377POPC   C2B20252   9.377  30.839   8.252
 1377POPC   C3B20253   9.155  30.947   7.833
 1377POPC   C4B20254   9.158  30.941   7.364
 1378POPC   NC320255  17.986  14.024   9.333
 1378POPC   PO420256  18.421  13.687   9.605
 1378POPC   GL120257  18.293  13.493   9.179
 1378POPC   GL220258  18.230  13.767   8.967
 1378POPC   C1A20259  18.310  13.345   8.723
 1378POPC   D2A20260  18.156  13.587   8.350
 1378POPC   C3A20261  18.331  13.473   7.939
 1378POPC   C4A20262  18.588  13.338   7.577
 1378POPC   C1B20263  18.000  14.005   8.667
 1378POPC   C2B20264  17.821  14.137   8.286
 1378POPC   C3B20265  18.023  14.112   7.897
 1378POPC   C4B20266  18.123  13.799   7.595
 1379POPC   NC320267   1.430   7.999   9.527
 1379POPC   PO420268   0.821   8.323   9.653
 1379POPC   GL120269   1.140   8.373   9.283
 1379POPC   GL220270   1.516   8.331   9.159
 1379POPC   C1A20271   1.155   8.360   8.822
 1379POPC   D2A20272   1.364   8.356   8.429
 1379POPC   C3A20273   1.132   8.478   8.070
 1379POPC   C4A20274   1.298   8.625   7.734
 1379POPC   C1B20275   1.513   7.990   8.834
 1379POPC   C2B20276   1.410   7.839   8.403
 1379POPC   C3B20277   1.375   8.024   7.994
 1379POPC   C4B20278   1.288   8.138   7.554
 1380POPC   NC320279  44.706  29.345   9.753
 1380POPC   PO420280  44.185  28.941   9.581
 1380POPC   GL120281  44.349  29.027   9.149
 1380POPC   GL220282  44.268  29.352   9.038
 1380POPC   C1A20283  44.589  28.792   8.808
 1380POPC   D2A20284  44.885  28.920   8.480
 1380POPC   C3A20285  44.775  28.860   8.063
 1380POPC   C4A20286  44.392  28.811   7.869
 1380POPC   C1B20287  44.467  29.254   8.644
 1380POPC   C2B20288  44.309  29.131   8.274
 1380POPC   C3B20289  44.414  29.339   7.929
 1380POPC   C4B20290  44.836  29.289   7.813
 1381POPC   NC320291  13.436  21.728   9.302
 1381POPC   PO420292  13.872  21.272   9.526
 1381POPC   GL120293  13.669  21.297   9.151
 1381POPC   GL220294  13.321  21.268   9.081
 1381POPC   C1A20295  13.732  21.435   8.744
 1381POPC   D2A20296  13.712  21.179   8.407
 1381POPC   C3A20297  13.642  21.340   8.014
 1381POPC   C4A20298  13.699  21.720   7.826
 1381POPC   C1B20299  13.242  21.570   8.720
 1381POPC   C2B20300  13.472  21.720   8.368
 1381POPC   C3B20301  13.228  21.626   8.045
 1381POPC   C4B20302  13.198  21.555   7.640
 1382POPC   NC320303  33.268  24.087   9.634
 1382POPC   PO420304  33.359  24.761   9.627
 1382POPC   GL120305  33.174  24.466   9.298
 1382POPC   GL220306  33.343  24.194   9.136
 1382POPC   C1A20307  32.946  24.454   8.911
 1382POPC   D2A20308  33.086  24.300   8.516
 1382POPC   C3A20309  32.943  24.580   8.217
 1382POPC   C4A20310  32.815  24.427   7.834
 1382POPC   C1B20311  33.550  24.356   8.762
 1382POPC   C2B20312  33.585  24.291   8.337
 1382POPC   C3B20313  33.309  24.306   7.989
 1382POPC   C4B20314  33.217  24.288   7.558
 1383POPC   NC320315   9.183  27.137   9.458
 1383POPC   PO420316   8.894  26.553   9.611
 1383POPC   GL120317   8.872  26.797   9.231
 1383POPC   GL220318   8.654  26.565   9.159
 1383POPC   C1A20319   9.051  26.892   8.798
 1383POPC   D2A20320   9.171  26.732   8.375
 1383POPC   C3A20321   9.048  27.020   8.070
 1383POPC   C4A20322   9.107  27.211   7.676
 1383POPC   C1B20323   8.844  26.424   8.812
 1383POPC   C2B20324   8.654  26.670   8.482
 1383POPC   C3B20325   8.696  26.647   8.061
 1383POPC   C4B20326   9.063  26.453   7.893
 1384POPC   NC320327  29.007  27.193   9.459
 1384POPC   PO420328  29.631  27.121   9.513
 1384POPC   GL120329  29.391  26.945   9.193
 1384POPC   GL220330  29.094  26.710   9.200
 1384POPC   C1A20331  29.416  26.804   8.796
 1384POPC   D2A20332  29.312  27.013   8.439
 1384POPC   C3A20333  29.129  26.704   8.201
 1384POPC   C4A20334  28.950  26.645   7.803
 1384POPC   C1B20335  28.939  26.988   8.839
 1384POPC   C2B20336  28.742  27.028   8.445
 1384POPC   C3B20337  28.848  27.106   8.029
 1384POPC   C4B20338  28.924  27.146   7.604
 1385POPC   NC320339   3.826   7.675   9.350
 1385POPC   PO420340   3.362   7.269   9.567
 1385POPC   GL120341   3.303   7.252   9.105
 1385POPC   GL220342   3.337   7.569   8.971
 1385POPC   C1A20343   3.568   7.165   8.730
 1385POPC   D2A20344   3.516   7.333   8.325
 1385POPC   C3A20345   3.757   7.378   7.957
 1385POPC   C4A20346   3.930   7.187   7.595
 1385POPC   C1B20347   3.635   7.725   8.686
 1385POPC   C2B20348   3.703   7.927   8.298
 1385POPC   C3B20349   3.591   7.889   7.875
 1385POPC   C4B20350   3.717   7.668   7.512
 1386POPC   NC320351  23.105  41.794   9.413
 1386POPC   PO420352  22.814  41.217   9.413
 1386POPC   GL120353  22.882  41.473   9.053
 1386POPC   GL220354  22.751  41.837   9.038
 1386POPC   C1A20355  22.871  41.425   8.621
 1386POPC   D2A20356  22.591  41.655   8.356
 1386POPC   C3A20357  22.729  41.638   7.931
 1386POPC   C4A20358  23.038  41.464   7.677
 1386POPC   C1B20359  23.080  41.887   8.724
 1386POPC   C2B20360  23.140  41.717   8.288
 1386POPC   C3B20361  23.158  41.930   7.880
 1386POPC   C4B20362  23.110  41.891   7.386
 1387POPC   NC320363  25.074  44.033   9.372
 1387POPC   PO420364  25.631  44.440   9.552
 1387POPC   GL120365  25.534  44.111   9.168
 1387POPC   GL220366  25.313  43.782   9.008
 1387POPC   C1A20367  25.415  44.164   8.729
 1387POPC   D2A20368  25.272  43.843   8.445
 1387POPC   C3A20369  25.245  43.983   8.010
 1387POPC   C4A20370  25.365  43.986   7.561
 1387POPC   C1B20371  25.481  43.423   8.829
 1387POPC   C2B20372  25.477  43.359   8.434
 1387POPC   C3B20373  25.603  43.582   8.124
 1387POPC   C4B20374  25.466  43.526   7.751
 1388POPC   NC320375  29.753  27.564   9.565
 1388POPC   PO420376  29.005  27.757   9.514
 1388POPC   GL120377  29.316  27.563   9.265
 1388POPC   GL220378  29.482  27.855   9.205
 1388POPC   C1A20379  29.322  27.347   8.874
 1388POPC   D2A20380  29.034  27.421   8.539
 1388POPC   C3A20381  29.197  27.458   8.110
 1388POPC   C4A20382  28.964  27.602   7.789
 1388POPC   C1B20383  29.518  28.129   8.851
 1388POPC   C2B20384  29.581  28.003   8.412
 1388POPC   C3B20385  29.411  27.953   7.984
 1388POPC   C4B20386  29.423  27.674   7.611
 1389POPC   NC320387   6.359  43.484   9.496
 1389POPC   PO420388   6.484  44.190   9.484
 1389POPC   GL120389   6.619  43.863   9.189
 1389POPC   GL220390   6.304  43.712   9.043
 1389POPC   C1A20391   6.736  43.738   8.759
 1389POPC   D2A20392   6.612  43.606   8.341
 1389POPC   C3A20393   6.945  43.662   8.087
 1389POPC   C4A20394   6.934  43.936   7.796
 1389POPC   C1B20395   6.209  43.913   8.641
 1389POPC   C2B20396   6.152  44.048   8.210
 1389POPC   C3B20397   6.443  43.871   7.943
 1389POPC   C4B20398   6.567  43.537   7.762
 1390POPC   NC320399   3.956   5.900   9.546
 1390POPC   PO420400   4.612   6.090   9.586
 1390POPC   GL120401   4.501   5.857   9.203
 1390POPC   GL220402   4.131   5.789   9.095
 1390POPC   C1A20403   4.456   5.958   8.761
 1390POPC   D2A20404   4.223   5.983   8.400
 1390POPC   C3A20405   4.374   5.818   8.008
 1390POPC   C4A20406   4.152   5.959   7.631
 1390POPC   C1B20407   3.942   5.607   8.723
 1390POPC   C2B20408   4.098   5.490   8.298
 1390POPC   C3B20409   3.994   5.521   7.846
 1390POPC   C4B20410   3.872   5.234   7.581
 1391POPC   NC320411  22.422   4.817   9.573
 1391POPC   PO420412  21.898   5.270   9.496
 1391POPC   GL120413  22.194   5.274   9.179
 1391POPC   GL220414  22.170   4.946   9.089
 1391POPC   C1A20415  22.321   5.338   8.755
 1391POPC   D2A20416  22.079   5.281   8.352
 1391POPC   C3A20417  22.289   5.284   7.949
 1391POPC   C4A20418  22.374   5.520   7.580
 1391POPC   C1B20419  22.176   4.853   8.642
 1391POPC   C2B20420  22.158   4.767   8.234
 1391POPC   C3B20421  21.911   4.607   7.887
 1391POPC   C4B20422  22.296   4.768   7.728
 1392POPC   NC320423  37.652   7.999   9.644
 1392POPC   PO420424  37.474   8.697   9.579
 1392POPC   GL120425  37.458   8.377   9.253
 1392POPC   GL220426  37.718   8.105   9.151
 1392POPC   C1A20427  37.385   8.337   8.821
 1392POPC   D2A20428  37.594   8.263   8.443
 1392POPC   C3A20429  37.353   8.350   8.074
 1392POPC   C4A20430  37.504   8.349   7.674
 1392POPC   C1B20431  37.956   7.987   8.755
 1392POPC   C2B20432  38.016   7.990   8.300
 1392POPC   C3B20433  37.947   8.231   7.904
 1392POPC   C4B20434  37.971   8.073   7.462
 1393POPC   NC320435   0.056  25.382   9.366
 1393POPC   PO420436  44.516  25.618   9.616
 1393POPC   GL120437  44.589  25.421   9.177
 1393POPC   GL220438  44.712  25.046   9.153
 1393POPC   C1A20439  44.484  25.264   8.758
 1393POPC   D2A20440  44.676  25.397   8.425
 1393POPC   C3A20441  44.601  25.186   8.095
 1393POPC   C4A20442  44.600  25.398   7.765
 1393POPC   C1B20443  44.997  25.185   8.780
 1393POPC   C2B20444   0.216  25.436   8.468
 1393POPC   C3B20445   0.059  25.434   8.069
 1393POPC   C4B20446   0.159  25.315   7.649
 1394POPC   NC320447  43.749  35.214   9.787
 1394POPC   PO420448  44.119  35.616   9.501
 1394POPC   GL120449  43.871  35.363   9.184
 1394POPC   GL220450  43.559  35.530   9.180
 1394POPC   C1A20451  43.827  35.120   8.747
 1394POPC   D2A20452  43.577  34.792   8.445
 1394POPC   C3A20453  43.633  34.844   7.977
 1394POPC   C4A20454  43.809  35.200   7.766
 1394POPC   C1B20455  43.459  35.630   8.773
 1394POPC   C2B20456  43.698  35.746   8.415
 1394POPC   C3B20457  43.916  35.664   8.009
 1394POPC   C4B20458  43.761  35.685   7.564
 1395POPC   NC320459  42.060  25.712   9.388
 1395POPC   PO420460  41.548  25.319   9.564
 1395POPC   GL120461  41.624  25.151   9.170
 1395POPC   GL220462  41.937  25.224   9.075
 1395POPC   C1A20463  41.535  25.245   8.734
 1395POPC   D2A20464  41.722  25.133   8.332
 1395POPC   C3A20465  41.509  25.218   7.929
 1395POPC   C4A20466  41.612  24.959   7.561
 1395POPC   C1B20467  41.913  25.593   8.772
 1395POPC   C2B20468  41.964  25.590   8.334
 1395POPC   C3B20469  41.834  25.634   7.886
 1395POPC   C4B20470  41.803  26.042   7.674
 1396POPC   NC320471  14.327  17.946   9.477
 1396POPC   PO420472  14.511  18.678   9.458
 1396POPC   GL120473  14.487  18.356   9.173
 1396POPC   GL220474  14.135  18.326   9.207
 1396POPC   C1A20475  14.540  18.381   8.715
 1396POPC   D2A20476  14.644  18.183   8.303
 1396POPC   C3A20477  14.536  18.365   7.934
 1396POPC   C4A20478  14.597  18.299   7.500
 1396POPC   C1B20479  14.203  18.025   8.856
 1396POPC   C2B20480  14.166  18.098   8.407
 1396POPC   C3B20481  14.107  18.113   7.974
 1396POPC   C4B20482  13.904  18.072   7.603
 1397POPC   NC320483  39.966  28.803   9.622
 1397POPC   PO420484  40.122  28.252   9.541
 1397POPC   GL120485  40.047  28.453   9.191
 1397POPC   GL220486  40.300  28.683   9.228
 1397POPC   C1A20487  39.846  28.439   8.791
 1397POPC   D2A20488  39.846  28.226   8.379
 1397POPC   C3A20489  39.625  28.430   8.035
 1397POPC   C4A20490  39.662  28.494   7.583
 1397POPC   C1B20491  40.313  28.664   8.787
 1397POPC   C2B20492  40.073  28.693   8.383
 1397POPC   C3B20493  40.162  28.453   8.027
 1397POPC   C4B20494  40.252  28.423   7.620
 1398POPC   NC320495  27.447  27.368   9.920
 1398POPC   PO420496  27.338  27.905   9.451
 1398POPC   GL120497  27.600  27.692   9.117
 1398POPC   GL220498  27.688  27.331   9.139
 1398POPC   C1A20499  27.569  27.580   8.666
 1398POPC   D2A20500  27.672  27.654   8.222
 1398POPC   C3A20501  27.370  27.687   7.868
 1398POPC   C4A20502  27.558  27.823   7.503
 1398POPC   C1B20503  27.995  27.284   8.784
 1398POPC   C2B20504  27.935  27.176   8.341
 1398POPC   C3B20505  28.038  27.361   7.917
 1398POPC   C4B20506  27.803  27.403   7.516
 1399POPC   NC320507  41.686  37.692   9.585
 1399POPC   PO420508  41.110  37.595   9.515
 1399POPC   GL120509  41.221  37.520   9.113
 1399POPC   GL220510  41.545  37.680   9.113
 1399POPC   C1A20511  41.277  37.741   8.708
 1399POPC   D2A20512  41.450  38.026   8.424
 1399POPC   C3A20513  41.225  37.970   8.078
 1399POPC   C4A20514  41.351  37.676   7.817
 1399POPC   C1B20515  41.780  37.878   8.798
 1399POPC   C2B20516  41.957  37.802   8.402
 1399POPC   C3B20517  41.792  37.911   8.015
 1399POPC   C4B20518  41.820  37.770   7.593
 1400POPC   NC320519   4.926   0.246   9.430
 1400POPC   PO420520   4.732   0.875   9.431
 1400POPC   GL120521   5.021   0.745   9.066
 1400POPC   GL220522   5.256   0.468   9.049
 1400POPC   C1A20523   5.045   0.628   8.611
 1400POPC   D2A20524   4.825   0.430   8.266
 1400POPC   C3A20525   5.060   0.481   7.920
 1400POPC   C4A20526   5.513   0.493   7.926
 1400POPC   C1B20527   5.180   0.149   8.671
 1400POPC   C2B20528   5.274   0.082   8.215
 1400POPC   C3B20529   5.311   0.066   7.745
 1400POPC   C4B20530   5.378  44.893   7.317
 1401POPC   NC320531  41.878  11.866   9.460
 1401POPC   PO420532  41.603  12.423   9.784
 1401POPC   GL120533  41.572  12.248   9.249
 1401POPC   GL220534  41.649  11.977   9.024
 1401POPC   C1A20535  41.635  12.420   8.780
 1401POPC   D2A20536  41.640  12.151   8.387
 1401POPC   C3A20537  41.641  12.306   7.945
 1401POPC   C4A20538  41.960  12.525   7.716
 1401POPC   C1B20539  41.378  11.765   8.749
 1401POPC   C2B20540  41.529  11.650   8.354
 1401POPC   C3B20541  41.724  11.796   7.982
 1401POPC   C4B20542  41.427  11.772   7.652
 1402POPC   NC320543  14.260   6.827   9.491
 1402POPC   PO420544  14.506   6.231   9.266
 1402POPC   GL120545  14.436   6.593   9.056
 1402POPC   GL220546  14.147   6.778   9.002
 1402POPC   C1A20547  14.412   6.594   8.603
 1402POPC   D2A20548  14.410   6.415   8.210
 1402POPC   C3A20549  14.434   6.713   7.857
 1402POPC   C4A20550  14.585   6.672   7.459
 1402POPC   C1B20551  14.132   7.018   8.636
 1402POPC   C2B20552  14.191   6.911   8.249
 1402POPC   C3B20553  14.086   7.104   7.887
 1402POPC   C4B20554  14.330   7.142   7.533
 1403POPC   NC320555  38.279  43.217   9.628
 1403POPC   PO420556  38.870  42.990   9.532
 1403POPC   GL120557  38.597  43.147   9.187
 1403POPC   GL220558  38.274  43.366   9.153
 1403POPC   C1A20559  38.664  43.094   8.759
 1403POPC   D2A20560  38.832  43.193   8.366
 1403POPC   C3A20561  38.741  42.902   8.060
 1403POPC   C4A20562  38.610  42.914   7.664
 1403POPC   C1B20563  38.148  43.162   8.773
 1403POPC   C2B20564  38.325  43.080   8.375
 1403POPC   C3B20565  38.402  43.261   8.004
 1403POPC   C4B20566  38.141  43.114   7.712
 1404POPC   NC320567   9.998  30.825   9.544
 1404POPC   PO420568   9.580  30.363   9.574
 1404POPC   GL120569   9.692  30.561   9.194
 1404POPC   GL220570   9.351  30.614   9.093
 1404POPC   C1A20571   9.799  30.717   8.771
 1404POPC   D2A20572  10.086  30.891   8.455
 1404POPC   C3A20573   9.892  30.912   8.043
 1404POPC   C4A20574  10.026  30.628   7.730
 1404POPC   C1B20575   9.404  30.379   8.722
 1404POPC   C2B20576   9.480  30.301   8.268
 1404POPC   C3B20577   9.470  30.529   7.856
 1404POPC   C4B20578   9.345  30.485   7.411
 1405POPC   NC320579  30.920  29.770   9.516
 1405POPC   PO420580  30.631  30.404   9.412
 1405POPC   GL120581  30.650  30.042   9.170
 1405POPC   GL220582  30.990  29.967   9.072
 1405POPC   C1A20583  30.493  29.846   8.803
 1405POPC   D2A20584  30.343  29.997   8.404
 1405POPC   C3A20585  30.509  29.815   8.044
 1405POPC   C4A20586  30.443  29.984   7.671
 1405POPC   C1B20587  31.139  29.977   8.705
 1405POPC   C2B20588  30.888  29.872   8.399
 1405POPC   C3B20589  31.056  29.869   8.031
 1405POPC   C4B20590  30.955  30.072   7.710
 1406POPC   NC320591  14.951  42.228   9.374
 1406POPC   PO420592  15.587  42.527   9.424
 1406POPC   GL120593  15.456  42.264   9.135
 1406POPC   GL220594  15.373  41.930   9.217
 1406POPC   C1A20595  15.384  42.253   8.732
 1406POPC   D2A20596  15.008  42.263   8.463
 1406POPC   C3A20597  15.048  42.562   8.123
 1406POPC   C4A20598  15.152  42.401   7.718
 1406POPC   C1B20599  15.099  41.858   8.838
 1406POPC   C2B20600  15.319  41.836   8.452
 1406POPC   C3B20601  15.290  42.054   8.068
 1406POPC   C4B20602  15.545  42.057   7.713
 1407POPC   NC320603  37.833  11.413   9.470
 1407POPC   PO420604  37.235  11.201   9.674
 1407POPC   GL120605  37.609  11.097   9.176
 1407POPC   GL220606  37.983  11.193   9.040
 1407POPC   C1A20607  37.628  11.397   8.753
 1407POPC   D2A20608  37.716  11.616   8.363
 1407POPC   C3A20609  37.493  11.469   7.964
 1407POPC   C4A20610  37.616  11.456   7.521
 1407POPC   C1B20611  38.034  11.145   8.604
 1407POPC   C2B20612  37.770  11.116   8.260
 1407POPC   C3B20613  37.959  11.247   7.885
 1407POPC   C4B20614  37.960  11.103   7.479
 1408POPC   NC320615   5.868  16.485   9.533
 1408POPC   PO420616   5.937  17.156   9.559
 1408POPC   GL120617   6.022  16.887   9.198
 1408POPC   GL220618   5.707  16.727   9.102
 1408POPC   C1A20619   6.061  16.923   8.759
 1408POPC   D2A20620   5.740  16.812   8.466
 1408POPC   C3A20621   5.839  16.846   8.015
 1408POPC   C4A20622   5.702  16.857   7.574
 1408POPC   C1B20623   5.985  16.425   8.888
 1408POPC   C2B20624   6.019  16.284   8.480
 1408POPC   C3B20625   6.134  16.371   8.068
 1408POPC   C4B20626   5.856  16.386   7.700
 1409POPC   NC320627  44.375  20.296   9.288
 1409POPC   PO420628  44.772  20.785   9.525
 1409POPC   GL120629  44.658  20.702   9.137
 1409POPC   GL220630  44.618  21.031   9.066
 1409POPC   C1A20631  44.541  20.572   8.728
 1409POPC   D2A20632  44.344  20.668   8.366
 1409POPC   C3A20633  44.567  20.591   7.987
 1409POPC   C4A20634  44.779  20.392   7.641
 1409POPC   C1B20635  44.913  20.932   8.741
 1409POPC   C2B20636  44.897  20.696   8.364
 1409POPC   C3B20637   0.006  20.846   7.930
 1409POPC   C4B20638   0.121  20.793   7.488
 1410POPC   NC320639  39.413  44.366   9.333
 1410POPC   PO420640  39.135  43.844   9.571
 1410POPC   GL120641  39.135  43.727   9.168
 1410POPC   GL220642  39.467  43.808   9.149
 1410POPC   C1A20643  39.046  43.909   8.774
 1410POPC   D2A20644  38.691  44.073   8.526
 1410POPC   C3A20645  38.891  44.147   8.132
 1410POPC   C4A20646  39.002  43.882   7.783
 1410POPC   C1B20647  39.549  43.653   8.743
 1410POPC   C2B20648  39.609  43.865   8.307
 1410POPC   C3B20649  39.527  43.976   7.855
 1410POPC   C4B20650  39.683  43.727   7.508
 1411POPC   NC320651  42.394  19.907   9.939
 1411POPC   PO420652  42.059  19.501   9.578
 1411POPC   GL120653  42.444  19.490   9.247
 1411POPC   GL220654  42.138  19.564   9.062
 1411POPC   C1A20655  42.530  19.764   8.833
 1411POPC   D2A20656  42.641  19.726   8.395
 1411POPC   C3A20657  42.516  19.782   7.964
 1411POPC   C4A20658  42.801  19.565   7.724
 1411POPC   C1B20659  42.033  19.882   8.749
 1411POPC   C2B20660  42.221  20.034   8.398
 1411POPC   C3B20661  42.037  20.013   8.033
 1411POPC   C4B20662  42.038  19.741   7.720
 1412POPC   NC320663   4.421  21.223   9.565
 1412POPC   PO420664   4.050  21.800   9.483
 1412POPC   GL120665   4.280  21.547   9.202
 1412POPC   GL220666   4.118  21.212   9.124
 1412POPC   C1A20667   4.536  21.371   8.877
 1412POPC   D2A20668   4.628  21.525   8.481
 1412POPC   C3A20669   4.390  21.454   8.104
 1412POPC   C4A20670   4.622  21.442   7.750
 1412POPC   C1B20671   4.063  21.331   8.696
 1412POPC   C2B20672   4.328  21.103   8.458
 1412POPC   C3B20673   4.322  20.962   8.054
 1412POPC   C4B20674   4.201  21.169   7.691
 1413POPC   NC320675  14.032  42.553   9.442
 1413POPC   PO420676  14.508  42.116   9.322
 1413POPC   GL120677  14.435  42.468   9.086
 1413POPC   GL220678  14.482  42.787   9.312
 1413POPC   C1A20679  14.358  42.296   8.658
 1413POPC   D2A20680  14.406  41.910   8.379
 1413POPC   C3A20681  14.338  42.042   7.961
 1413POPC   C4A20682  14.166  42.419   7.796
 1413POPC   C1B20683  14.567  42.910   8.884
 1413POPC   C2B20684  14.692  42.671   8.537
 1413POPC   C3B20685  14.535  42.483   8.170
 1413POPC   C4B20686  14.668  42.553   7.752
 1414POPC   NC320687  17.436   4.039   9.583
 1414POPC   PO420688  17.667   4.644   9.465
 1414POPC   GL120689  17.406   4.383   9.199
 1414POPC   GL220690  17.425   4.028   9.072
 1414POPC   C1A20691  17.495   4.437   8.765
 1414POPC   D2A20692  17.668   4.737   8.488
 1414POPC   C3A20693  17.658   4.498   8.128
 1414POPC   C4A20694  17.454   4.523   7.747
 1414POPC   C1B20695  17.629   3.913   8.649
 1414POPC   C2B20696  17.614   3.894   8.162
 1414POPC   C3B20697  17.421   3.905   7.707
 1414POPC   C4B20698  17.034   3.806   7.420
 1415POPC   NC320699  19.533  13.578   9.467
 1415POPC   PO420700  20.123  13.805   9.476
 1415POPC   GL120701  19.972  13.598   9.129
 1415POPC   GL220702  19.644  13.592   8.977
 1415POPC   C1A20703  20.106  13.760   8.765
 1415POPC   D2A20704  19.907  13.780   8.357
 1415POPC   C3A20705  20.156  13.604   8.077
 1415POPC   C4A20706  20.213  13.704   7.698
 1415POPC   C1B20707  19.864  13.339   8.650
 1415POPC   C2B20708  19.743  13.290   8.220
 1415POPC   C3B20709  19.736  13.547   7.818
 1415POPC   C4B20710  19.967  13.291   7.503
 1416POPC   NC320711  30.185  16.590   9.415
 1416POPC   PO420712  29.737  17.048   9.528
 1416POPC   GL120713  29.773  16.773   9.154
 1416POPC   GL220714  30.047  16.846   8.940
 1416POPC   C1A20715  29.588  16.620   8.784
 1416POPC   D2A20716  29.784  16.596   8.385
 1416POPC   C3A20717  29.913  16.431   7.982
 1416POPC   C4A20718  30.002  16.819   7.760
 1416POPC   C1B20719  30.058  16.406   8.778
 1416POPC   C2B20720  30.247  16.299   8.389
 1416POPC   C3B20721  30.516  16.441   8.103
 1416POPC   C4B20722  30.442  16.553   7.698
 1417POPC   NC320723  24.896   8.484   9.488
 1417POPC   PO420724  24.370   8.109   9.434
 1417POPC   GL120725  24.390   8.421   9.150
 1417POPC   GL220726  24.717   8.508   9.014
 1417POPC   C1A20727  24.260   8.505   8.745
 1417POPC   D2A20728  24.306   8.218   8.407
 1417POPC   C3A20729  24.318   8.418   8.017
 1417POPC   C4A20730  24.294   8.215   7.641
 1417POPC   C1B20731  24.775   8.241   8.667
 1417POPC   C2B20732  24.775   8.229   8.231
 1417POPC   C3B20733  24.694   8.042   7.875
 1417POPC   C4B20734  24.857   8.351   7.566
 1418POPC   NC320735  42.207  24.342   9.833
 1418POPC   PO420736  42.445  24.918   9.753
 1418POPC   GL120737  42.324  24.593   9.362
 1418POPC   GL220738  42.215  24.288   9.240
 1418POPC   C1A20739  42.265  24.641   8.875
 1418POPC   D2A20740  42.068  24.463   8.483
 1418POPC   C3A20741  42.133  24.560   8.045
 1418POPC   C4A20742  42.268  24.402   7.630
 1418POPC   C1B20743  42.229  24.126   8.828
 1418POPC   C2B20744  42.283  23.990   8.364
 1418POPC   C3B20745  42.475  24.060   7.933
 1418POPC   C4B20746  42.706  24.136   7.526
 1419POPC   NC320747  43.593  44.645   9.592
 1419POPC   PO420748  44.289  44.866   9.618
 1419POPC   GL120749  43.992  44.795   9.289
 1419POPC   GL220750  44.238  44.663   9.091
 1419POPC   C1A20751  43.787  44.724   8.862
 1419POPC   D2A20752  43.892  44.920   8.455
 1419POPC   C3A20753  43.667  44.785   8.072
 1419POPC   C4A20754  43.556  44.862   7.644
 1419POPC   C1B20755  44.395  44.361   8.794
 1419POPC   C2B20756  44.502  44.508   8.396
 1419POPC   C3B20757  44.184  44.551   8.076
 1419POPC   C4B20758  43.990  44.218   7.861
 1420POPC   NC320759  21.464   5.650   9.491
 1420POPC   PO420760  21.141   6.248   9.428
 1420POPC   GL120761  21.376   6.020   9.127
 1420POPC   GL220762  21.174   5.719   9.046
 1420POPC   C1A20763  21.502   5.990   8.709
 1420POPC   D2A20764  21.330   5.846   8.309
 1420POPC   C3A20765  21.575   6.027   7.988
 1420POPC   C4A20766  21.397   6.190   7.663
 1420POPC   C1B20767  21.370   5.498   8.691
 1420POPC   C2B20768  21.466   5.339   8.303
 1420POPC   C3B20769  21.358   5.385   7.874
 1420POPC   C4B20770  21.457   5.697   7.556
 1421POPC   NC320771  19.504  39.263   9.726
 1421POPC   PO420772  19.902  39.715   9.702
 1421POPC   GL120773  20.003  39.472   9.293
 1421POPC   GL220774  19.660  39.388   9.209
 1421POPC   C1A20775  20.022  39.181   8.882
 1421POPC   D2A20776  19.984  39.303   8.408
 1421POPC   C3A20777  19.964  39.111   7.963
 1421POPC   C4A20778  19.806  39.117   7.519
 1421POPC   C1B20779  19.578  39.404   8.738
 1421POPC   C2B20780  19.486  39.252   8.298
 1421POPC   C3B20781  19.448  39.233   7.861
 1421POPC   C4B20782  19.292  39.097   7.482
 1422POPC   NC320783  22.485  36.878   9.507
 1422POPC   PO420784  21.847  37.034   9.456
 1422POPC   GL120785  22.086  36.799   9.123
 1422POPC   GL220786  22.438  36.604   9.089
 1422POPC   C1A20787  22.085  37.023   8.714
 1422POPC   D2A20788  22.196  37.255   8.333
 1422POPC   C3A20789  22.027  37.068   7.973
 1422POPC   C4A20790  22.201  37.028   7.534
 1422POPC   C1B20791  22.237  36.522   8.701
 1422POPC   C2B20792  22.297  36.752   8.307
 1422POPC   C3B20793  22.264  36.638   7.858
 1422POPC   C4B20794  21.853  36.654   7.668
 1423POPC   NC320795  16.336  18.045   9.460
 1423POPC   PO420796  16.948  18.410   9.487
 1423POPC   GL120797  16.626  18.402   9.175
 1423POPC   GL220798  16.650  18.102   9.056
 1423POPC   C1A20799  16.739  18.561   8.781
 1423POPC   D2A20800  16.729  18.791   8.402
 1423POPC   C3A20801  16.705  18.508   8.086
 1423POPC   C4A20802  16.731  18.482   7.687
 1423POPC   C1B20803  16.519  17.927   8.674
 1423POPC   C2B20804  16.691  18.013   8.291
 1423POPC   C3B20805  16.576  18.009   7.881
 1423POPC   C4B20806  16.184  17.820   7.782
 1424POPC   NC320807  37.216  42.179   9.403
 1424POPC   PO420808  36.569  42.489   9.582
 1424POPC   GL120809  36.777  42.356   9.202
 1424POPC   GL220810  36.780  41.974   9.193
 1424POPC   C1A20811  36.936  42.416   8.782
 1424POPC   D2A20812  36.758  42.498   8.367
 1424POPC   C3A20813  36.888  42.723   8.023
 1424POPC   C4A20814  37.170  42.436   7.899
 1424POPC   C1B20815  36.506  42.048   8.850
 1424POPC   C2B20816  36.359  41.993   8.449
 1424POPC   C3B20817  36.563  41.997   8.101
 1424POPC   C4B20818  36.683  42.303   7.826
 1425POPC   NC320819  17.950  35.119   9.398
 1425POPC   PO420820  18.292  35.634   9.777
 1425POPC   GL120821  18.310  35.478   9.337
 1425POPC   GL220822  17.989  35.534   9.100
 1425POPC   C1A20823  18.407  35.281   8.934
 1425POPC   D2A20824  18.461  35.437   8.532
 1425POPC   C3A20825  18.298  35.274   8.146
 1425POPC   C4A20826  18.178  35.506   7.791
 1425POPC   C1B20827  17.942  35.232   8.689
 1425POPC   C2B20828  17.889  34.966   8.267
 1425POPC   C3B20829  17.963  35.048   7.781
 1425POPC   C4B20830  17.783  34.995   7.322
 1426POPC   NC320831  37.727  12.517   9.456
 1426POPC   PO420832  37.795  13.223   9.431
 1426POPC   GL120833  37.524  13.176   9.124
 1426POPC   GL220834  37.705  12.851   9.084
 1426POPC   C1A20835  37.632  13.132   8.679
 1426POPC   D2A20836  37.613  12.699   8.495
 1426POPC   C3A20837  37.594  12.731   8.079
 1426POPC   C4A20838  37.648  12.436   7.777
 1426POPC   C1B20839  38.016  12.732   8.779
 1426POPC   C2B20840  38.019  12.967   8.376
 1426POPC   C3B20841  38.082  12.883   7.954
 1426POPC   C4B20842  38.112  13.125   7.586
 1427POPC   NC320843   2.192  22.657   9.740
 1427POPC   PO420844   1.995  23.248   9.525
 1427POPC   GL120845   1.920  22.952   9.193
 1427POPC   GL220846   2.193  22.747   9.224
 1427POPC   C1A20847   1.765  23.003   8.771
 1427POPC   D2A20848   1.998  23.161   8.401
 1427POPC   C3A20849   1.965  22.968   8.007
 1427POPC   C4A20850   2.074  23.196   7.660
 1427POPC   C1B20851   2.264  22.883   8.786
 1427POPC   C2B20852   2.218  22.690   8.380
 1427POPC   C3B20853   2.444  22.768   8.023
 1427POPC   C4B20854   2.307  22.722   7.662
 1428POPC   NC320855  41.206  40.416   9.478
 1428POPC   PO420856  41.785  40.076   9.398
 1428POPC   GL120857  41.383  40.027   9.148
 1428POPC   GL220858  41.206  40.309   8.971
 1428POPC   C1A20859  41.340  39.877   8.717
 1428POPC   D2A20860  41.597  39.896   8.365
 1428POPC   C3A20861  41.409  39.944   7.970
 1428POPC   C4A20862  41.629  39.639   7.763
 1428POPC   C1B20863  41.604  40.342   8.683
 1428POPC   C2B20864  41.745  40.372   8.226
 1428POPC   C3B20865  41.617  40.525   7.819
 1428POPC   C4B20866  41.789  40.459   7.405
 1429POPC   NC320867   9.076  34.603   9.543
 1429POPC   PO420868   9.304  35.034   9.097
 1429POPC   GL120869   8.941  34.709   9.049
 1429POPC   GL220870   8.983  34.326   9.110
 1429POPC   C1A20871   8.733  34.452   8.669
 1429POPC   D2A20872   8.846  34.239   8.232
 1429POPC   C3A20873   8.819  34.503   7.817
 1429POPC   C4A20874   8.561  34.512   7.387
 1429POPC   C1B20875   9.250  34.390   8.807
 1429POPC   C2B20876   9.176  34.578   8.433
 1429POPC   C3B20877   9.316  34.473   8.030
 1429POPC   C4B20878   9.303  34.662   7.645
 1430POPC   NC320879  30.947  16.011   9.498
 1430POPC   PO420880  30.379  15.689   9.561
 1430POPC   GL120881  30.595  15.830   9.156
 1430POPC   GL220882  30.937  16.022   9.003
 1430POPC   C1A20883  30.481  16.110   8.831
 1430POPC   D2A20884  30.751  16.124   8.483
 1430POPC   C3A20885  30.633  15.900   8.146
 1430POPC   C4A20886  30.635  16.069   7.749
 1430POPC   C1B20887  31.136  15.767   8.690
 1430POPC   C2B20888  31.093  15.728   8.260
 1430POPC   C3B20889  31.085  15.841   7.839
 1430POPC   C4B20890  31.013  15.827   7.405
 1431POPC   NC320891   6.402  44.660   9.529
 1431POPC   PO420892   6.490   0.263   9.693
 1431POPC   GL120893   6.683  44.940   9.229
 1431POPC   GL220894   6.708  44.542   9.152
 1431POPC   C1A20895   6.605  44.798   8.749
 1431POPC   D2A20896   6.803  44.624   8.366
 1431POPC   C3A20897   6.702  44.812   7.946
 1431POPC   C4A20898   6.340  44.864   7.702
 1431POPC   C1B20899   6.584  44.258   8.799
 1431POPC   C2B20900   6.666  44.121   8.359
 1431POPC   C3B20901   6.581  44.336   7.953
 1431POPC   C4B20902   6.834  44.402   7.584
 1432POPC   NC320903  35.732   2.885   9.294
 1432POPC   PO420904  35.277   3.031   9.702
 1432POPC   GL120905  35.056   2.834   9.319
 1432POPC   GL220906  35.301   2.550   9.236
 1432POPC   C1A20907  35.064   2.813   8.856
 1432POPC   D2A20908  35.320   2.928   8.511
 1432POPC   C3A20909  35.118   2.803   8.108
 1432POPC   C4A20910  35.248   2.676   7.700
 1432POPC   C1B20911  35.470   2.429   8.825
 1432POPC   C2B20912  35.231   2.437   8.471
 1432POPC   C3B20913  35.267   2.313   8.062
 1432POPC   C4B20914  35.501   2.225   7.719
 1433POPC   NC320915  26.519  21.301   9.444
 1433POPC   PO420916  27.064  21.714   9.439
 1433POPC   GL120917  26.923  21.350   9.114
 1433POPC   GL220918  26.606  21.327   8.947
 1433POPC   C1A20919  26.996  21.120   8.707
 1433POPC   D2A20920  27.206  21.214   8.303
 1433POPC   C3A20921  26.913  21.219   7.931
 1433POPC   C4A20922  26.468  21.361   7.820
 1433POPC   C1B20923  26.836  21.677   8.743
 1433POPC   C2B20924  27.084  21.787   8.422
 1433POPC   C3B20925  27.104  21.692   8.019
 1433POPC   C4B20926  26.796  21.753   7.753
 1434POPC   NC320927  19.785  17.030   9.627
 1434POPC   PO420928  19.412  16.474   9.728
 1434POPC   GL120929  19.639  16.620   9.318
 1434POPC   GL220930  19.699  16.964   9.138
 1434POPC   C1A20931  19.904  16.487   8.948
 1434POPC   D2A20932  20.035  16.508   8.496
 1434POPC   C3A20933  19.725  16.444   8.161
 1434POPC   C4A20934  19.797  16.452   7.697
 1434POPC   C1B20935  19.813  16.934   8.696
 1434POPC   C2B20936  19.807  16.961   8.276
 1434POPC   C3B20937  19.941  17.088   7.912
 1434POPC   C4B20938  19.659  17.007   7.588
 1435POPC   NC320939   2.936  42.636   9.451
 1435POPC   PO420940   2.404  42.241   9.500
 1435POPC   GL120941   2.702  42.183   9.128
 1435POPC   GL220942   3.006  42.347   9.034
 1435POPC   C1A20943   2.678  42.206   8.672
 1435POPC   D2A20944   2.518  42.541   8.417
 1435POPC   C3A20945   2.507  42.323   8.048
 1435POPC   C4A20946   2.679  42.422   7.670
 1435POPC   C1B20947   3.022  42.609   8.690
 1435POPC   C2B20948   3.013  42.436   8.274
 1435POPC   C3B20949   3.140  42.469   7.853
 1435POPC   C4B20950   3.148  42.535   7.396
 1436POPC   NC320951  40.297  41.938   9.649
 1436POPC   PO420952  39.836  41.449   9.526
 1436POPC   GL120953  39.865  41.690   9.158
 1436POPC   GL220954  40.196  41.818   9.172
 1436POPC   C1A20955  39.946  41.767   8.730
 1436POPC   D2A20956  39.740  41.700   8.359
 1436POPC   C3A20957  39.998  41.639   8.003
 1436POPC   C4A20958  39.914  41.568   7.575
 1436POPC   C1B20959  40.439  41.899   8.816
 1436POPC   C2B20960  40.409  41.718   8.412
 1436POPC   C3B20961  40.403  41.949   8.007
 1436POPC   C4B20962  40.213  41.961   7.610
 1437POPC   NC320963   4.928  11.142   9.436
 1437POPC   PO420964   5.342  11.614   9.466
 1437POPC   GL120965   5.147  11.463   9.075
 1437POPC   GL220966   5.149  11.093   8.971
 1437POPC   C1A20967   5.227  11.462   8.634
 1437POPC   D2A20968   4.982  11.324   8.315
 1437POPC   C3A20969   5.111  11.183   7.917
 1437POPC   C4A20970   4.950  11.455   7.670
 1437POPC   C1B20971   4.891  10.904   8.638
 1437POPC   C2B20972   4.767  10.876   8.210
 1437POPC   C3B20973   4.889  10.732   7.805
 1437POPC   C4B20974   4.926  10.991   7.455
 1438POPC   NC320975   4.045  11.196   9.582
 1438POPC   PO420976   3.443  11.396   9.845
 1438POPC   GL120977   3.407  11.323   9.385
 1438POPC   GL220978   3.719  11.243   9.175
 1438POPC   C1A20979   3.317  11.513   8.970
 1438POPC   D2A20980   3.424  11.437   8.546
 1438POPC   C3A20981   3.281  11.354   8.125
 1438POPC   C4A20982   3.593  11.412   7.812
 1438POPC   C1B20983   3.702  11.056   8.751
 1438POPC   C2B20984   3.691  11.060   8.290
 1438POPC   C3B20985   3.805  10.949   7.875
 1438POPC   C4B20986   4.053  11.096   7.508
 1439POPC   NC320987  41.002   7.733   9.431
 1439POPC   PO420988  40.567   7.264   9.689
 1439POPC   GL120989  40.621   7.262   9.251
 1439POPC   GL220990  40.501   7.596   9.255
 1439POPC   C1A20991  40.805   7.409   8.853
 1439POPC   D2A20992  40.792   7.279   8.420
 1439POPC   C3A20993  41.096   7.431   8.124
 1439POPC   C4A20994  40.909   7.244   7.784
 1439POPC   C1B20995  40.326   7.608   8.869
 1439POPC   C2B20996  40.412   7.642   8.457
 1439POPC   C3B20997  40.612   7.660   8.055
 1439POPC   C4B20998  40.540   7.738   7.612
 1440POPC   NC320999  11.609  26.492   9.179
 1440POPC   PO421000  11.252  26.867   9.720
 1440POPC   GL121001  11.197  27.040   9.293
 1440POPC   GL221002  10.929  26.869   9.181
 1440POPC   C1A21003  11.287  26.956   8.840
 1440POPC   D2A21004  11.344  26.723   8.460
 1440POPC   C3A21005  11.242  26.875   8.059
 1440POPC   C4A21006  11.467  26.724   7.684
 1440POPC   C1B21007  11.001  26.540   8.816
 1440POPC   C2B21008  10.948  26.403   8.381
 1440POPC   C3B21009  10.862  26.547   7.965
 1440POPC   C4B21010  10.980  26.773   7.551
 1441POPC   NC321011  42.857  35.027   9.608
 1441POPC   PO421012  42.788  34.375   9.375
 1441POPC   GL121013  42.971  34.715   9.162
 1441POPC   GL221014  42.782  34.999   9.108
 1441POPC   C1A21015  43.159  34.670   8.760
 1441POPC   D2A21016  42.949  34.603   8.397
 1441POPC   C3A21017  43.141  34.595   8.032
 1441POPC   C4A21018  42.905  34.517   7.684
 1441POPC   C1B21019  42.679  34.905   8.728
 1441POPC   C2B21020  42.752  35.081   8.343
 1441POPC   C3B21021  42.630  34.841   8.014
 1441POPC   C4B21022  42.505  34.815   7.584
 1442POPC   NC321023  19.598   2.156   9.801
 1442POPC   PO421024  20.032   1.715   9.506
 1442POPC   GL121025  19.701   1.858   9.252
 1442POPC   GL221026  19.535   2.193   9.240
 1442POPC   C1A21027  19.867   2.017   8.857
 1442POPC   D2A21028  20.064   2.062   8.466
 1442POPC   C3A21029  19.877   2.028   8.065
 1442POPC   C4A21030  19.918   1.653   7.817
 1442POPC   C1B21031  19.380   1.929   8.871
 1442POPC   C2B21032  19.525   1.992   8.457
 1442POPC   C3B21033  19.445   1.786   8.047
 1442POPC   C4B21034  19.526   1.986   7.650
 1443POPC   NC321035   1.974   3.132  10.123
 1443POPC   PO421036   2.069   2.609   9.784
 1443POPC   GL121037   2.160   2.743   9.283
 1443POPC   GL221038   2.174   3.102   9.304
 1443POPC   C1A21039   1.988   2.612   8.836
 1443POPC   D2A21040   2.035   2.341   8.478
 1443POPC   C3A21041   1.963   2.504   8.094
 1443POPC   C4A21042   1.977   2.756   7.771
 1443POPC   C1B21043   2.239   3.060   8.850
 1443POPC   C2B21044   2.262   2.802   8.434
 1443POPC   C3B21045   2.403   2.885   8.041
 1443POPC   C4B21046   2.245   3.188   7.785
 1444POPC   NC321047  23.992  13.635   9.533
 1444POPC   PO421048  23.451  13.340   9.657
 1444POPC   GL121049  23.597  13.493   9.258
 1444POPC   GL221050  23.733  13.206   9.167
 1444POPC   C1A21051  23.534  13.821   8.907
 1444POPC   D2A21052  23.457  13.788   8.445
 1444POPC   C3A21053  23.792  13.908   8.146
 1444POPC   C4A21054  23.769  13.786   7.719
 1444POPC   C1B21055  23.902  13.460   8.827
 1444POPC   C2B21056  23.941  13.405   8.387
 1444POPC   C3B21057  23.679  13.391   8.030
 1444POPC   C4B21058  23.801  13.285   7.619
 1445POPC   NC321059  12.191  35.887   9.595
 1445POPC   PO421060  12.056  36.512   9.421
 1445POPC   GL121061  11.899  36.382   9.054
 1445POPC   GL221062  11.870  36.050   9.200
 1445POPC   C1A21063  11.996  36.285   8.592
 1445POPC   D2A21064  12.366  36.151   8.310
 1445POPC   C3A21065  12.266  36.223   7.901
 1445POPC   C4A21066  11.822  36.255   7.870
 1445POPC   C1B21067  12.244  35.985   8.922
 1445POPC   C2B21068  12.100  35.768   8.562
 1445POPC   C3B21069  12.010  35.796   8.131
 1445POPC   C4B21070  12.085  35.779   7.702
 1446POPC   NC321071  34.056  22.302   9.645
 1446POPC   PO421072  33.482  21.956   9.687
 1446POPC   GL121073  33.737  22.098   9.300
 1446POPC   GL221074  33.906  22.450   9.189
 1446POPC   C1A21075  33.791  22.022   8.860
 1446POPC   D2A21076  33.999  21.919   8.463
 1446POPC   C3A21077  33.818  22.012   8.061
 1446POPC   C4A21078  33.746  21.958   7.606
 1446POPC   C1B21079  34.137  22.383   8.760
 1446POPC   C2B21080  34.184  22.335   8.278
 1446POPC   C3B21081  34.164  22.337   7.821
 1446POPC   C4B21082  34.126  22.687   7.564
 1447POPC   NC321083  40.517  34.691   9.338
 1447POPC   PO421084  40.027  34.496   9.850
 1447POPC   GL121085  39.994  34.595   9.379
 1447POPC   GL221086  39.868  34.280   9.252
 1447POPC   C1A21087  40.038  34.611   8.883
 1447POPC   D2A21088  40.126  34.555   8.428
 1447POPC   C3A21089  39.956  34.806   8.090
 1447POPC   C4A21090  40.280  34.926   7.780
 1447POPC   C1B21091  39.827  34.134   8.813
 1447POPC   C2B21092  39.654  34.079   8.400
 1447POPC   C3B21093  39.815  34.300   8.057
 1447POPC   C4B21094  40.010  34.503   7.677
 1448POPC   NC321095  11.501  27.273   9.660
 1448POPC   PO421096  10.958  27.592   9.636
 1448POPC   GL121097  11.265  27.570   9.296
 1448POPC   GL221098  11.387  27.889   9.177
 1448POPC   C1A21099  11.339  27.450   8.855
 1448POPC   D2A21100  11.243  27.262   8.444
 1448POPC   C3A21101  11.460  27.445   8.120
 1448POPC   C4A21102  11.425  27.244   7.746
 1448POPC   C1B21103  11.002  27.821   8.929
 1448POPC   C2B21104  11.170  27.769   8.506
 1448POPC   C3B21105  11.035  27.774   8.118
 1448POPC   C4B21106  11.193  27.704   7.733
 1449POPC   NC321107  23.756  32.824   9.438
 1449POPC   PO421108  23.205  33.297   9.418
 1449POPC   GL121109  23.525  33.172   9.142
 1449POPC   GL221110  23.349  32.852   9.123
 1449POPC   C1A21111  23.889  33.210   8.828
 1449POPC   D2A21112  23.747  33.332   8.399
 1449POPC   C3A21113  23.821  33.177   7.978
 1449POPC   C4A21114  23.537  33.203   7.602
 1449POPC   C1B21115  23.541  32.855   8.726
 1449POPC   C2B21116  23.615  32.793   8.290
 1449POPC   C3B21117  23.504  32.774   7.862
 1449POPC   C4B21118  23.754  32.751   7.452
 1450POPC   NC321119   6.616  34.816   9.519
 1450POPC   PO421120   7.006  34.239   9.415
 1450POPC   GL121121   6.889  34.344   9.027
 1450POPC   GL221122   6.684  34.603   9.069
 1450POPC   C1A21123   6.904  34.465   8.622
 1450POPC   D2A21124   6.902  34.789   8.352
 1450POPC   C3A21125   6.870  34.545   8.058
 1450POPC   C4A21126   6.834  34.568   7.672
 1450POPC   C1B21127   6.407  34.514   8.724
 1450POPC   C2B21128   6.377  34.724   8.322
 1450POPC   C3B21129   6.413  34.745   7.882
 1450POPC   C4B21130   6.330  34.521   7.477
 1451POPC   NC321131  40.672  22.643   9.373
 1451POPC   PO421132  41.020  23.122   9.670
 1451POPC   GL121133  41.074  23.008   9.204
 1451POPC   GL221134  40.990  22.664   8.973
 1451POPC   C1A21135  41.090  23.111   8.792
 1451POPC   D2A21136  40.803  22.951   8.478
 1451POPC   C3A21137  40.962  22.881   8.071
 1451POPC   C4A21138  40.835  22.950   7.651
 1451POPC   C1B21139  40.708  22.462   8.711
 1451POPC   C2B21140  40.819  22.455   8.311
 1451POPC   C3B21141  40.626  22.491   7.951
 1451POPC   C4B21142  40.363  22.723   7.713
 1452POPC   NC321143  33.650  27.159   9.508
 1452POPC   PO421144  33.530  27.876   9.517
 1452POPC   GL121145  33.755  27.613   9.260
 1452POPC   GL221146  34.036  27.846   9.218
 1452POPC   C1A21147  33.714  27.337   8.878
 1452POPC   D2A21148  33.649  27.459   8.440
 1452POPC   C3A21149  33.908  27.521   8.065
 1452POPC   C4A21150  33.948  27.136   7.809
 1452POPC   C1B21151  33.869  27.822   8.804
 1452POPC   C2B21152  33.899  28.110   8.518
 1452POPC   C3B21153  33.998  28.117   8.094
 1452POPC   C4B21154  33.972  27.887   7.672
 1453POPC   NC321155  16.451  41.325   9.569
 1453POPC   PO421156  15.797  41.675   9.572
 1453POPC   GL121157  15.837  41.711   9.162
 1453POPC   GL221158  16.148  41.561   9.194
 1453POPC   C1A21159  15.782  41.891   8.762
 1453POPC   D2A21160  15.791  41.630   8.405
 1453POPC   C3A21161  15.861  41.681   7.970
 1453POPC   C4A21162  15.856  41.265   7.744
 1453POPC   C1B21163  16.188  41.542   8.754
 1453POPC   C2B21164  16.325  41.577   8.338
 1453POPC   C3B21165  16.301  41.395   7.968
 1453POPC   C4B21166  16.235  41.605   7.615
 1454POPC   NC321167  32.128  38.306   9.589
 1454POPC   PO421168  31.969  38.903   9.477
 1454POPC   GL121169  32.216  38.657   9.162
 1454POPC   GL221170  32.240  38.288   9.121
 1454POPC   C1A21171  32.131  38.567   8.723
 1454POPC   D2A21172  31.905  38.514   8.352
 1454POPC   C3A21173  32.124  38.642   8.021
 1454POPC   C4A21174  32.195  38.490   7.633
 1454POPC   C1B21175  32.178  38.064   8.809
 1454POPC   C2B21176  32.408  37.976   8.514
 1454POPC   C3B21177  32.312  38.157   8.163
 1454POPC   C4B21178  32.355  38.026   7.766
 1455POPC   NC321179   0.783  14.665   9.460
 1455POPC   PO421180   0.243  14.300   9.412
 1455POPC   GL121181   0.525  14.358   9.106
 1455POPC   GL221182   0.433  14.727   9.107
 1455POPC   C1A21183   0.504  14.177   8.693
 1455POPC   D2A21184   0.507  14.014   8.282
 1455POPC   C3A21185   0.424  14.289   7.958
 1455POPC   C4A21186   0.179  14.459   7.624
 1455POPC   C1B21187   0.605  14.672   8.712
 1455POPC   C2B21188   0.404  14.609   8.362
 1455POPC   C3B21189   0.576  14.755   7.994
 1455POPC   C4B21190   0.674  14.581   7.586
 1456POPC   NC321191  43.829  20.078   9.849
 1456POPC   PO421192  43.457  19.682   9.368
 1456POPC   GL121193  43.688  19.992   9.224
 1456POPC   GL221194  43.893  19.829   9.061
 1456POPC   C1A21195  43.668  20.229   8.844
 1456POPC   D2A21196  43.845  20.160   8.435
 1456POPC   C3A21197  43.570  19.940   8.149
 1456POPC   C4A21198  43.703  19.858   7.737
 1456POPC   C1B21199  44.172  19.903   8.776
 1456POPC   C2B21200  44.371  19.649   8.496
 1456POPC   C3B21201  44.230  19.729   8.098
 1456POPC   C4B21202  44.120  19.573   7.719
 1457POPC   NC321203  39.649  15.008   9.422
 1457POPC   PO421204  40.327  15.158   9.425
 1457POPC   GL121205  40.038  15.116   9.127
 1457POPC   GL221206  39.856  15.450   9.202
 1457POPC   C1A21207  39.808  15.179   8.756
 1457POPC   D2A21208  40.026  15.049   8.427
 1457POPC   C3A21209  39.839  15.198   8.066
 1457POPC   C4A21210  39.840  14.969   7.680
 1457POPC   C1B21211  40.157  15.524   8.863
 1457POPC   C2B21212  40.216  15.505   8.444
 1457POPC   C3B21213  40.376  15.278   8.112
 1457POPC   C4B21214  40.244  15.322   7.707
 1458POPC   NC321215  33.627   9.535   9.463
 1458POPC   PO421216  33.289  10.025   9.358
 1458POPC   GL121217  33.712  10.019   9.144
 1458POPC   GL221218  33.933   9.717   9.080
 1458POPC   C1A21219  34.013  10.165   8.816
 1458POPC   D2A21220  34.114  10.121   8.381
 1458POPC   C3A21221  33.759   9.975   8.147
 1458POPC   C4A21222  33.701   9.953   7.718
 1458POPC   C1B21223  33.985   9.417   8.728
 1458POPC   C2B21224  33.814   9.434   8.314
 1458POPC   C3B21225  33.721   9.494   7.875
 1458POPC   C4B21226  33.731   9.528   7.382
 1459POPC   NC321227  21.004  22.405   9.655
 1459POPC   PO421228  21.656  22.310   9.674
 1459POPC   GL121229  21.587  22.407   9.222
 1459POPC   GL221230  21.218  22.388   9.190
 1459POPC   C1A21231  21.480  22.223   8.788
 1459POPC   D2A21232  21.130  22.141   8.460
 1459POPC   C3A21233  21.327  22.124   8.067
 1459POPC   C4A21234  21.220  21.887   7.690
 1459POPC   C1B21235  21.005  22.481   8.816
 1459POPC   C2B21236  20.842  22.590   8.452
 1459POPC   C3B21237  21.033  22.562   8.094
 1459POPC   C4B21238  21.090  22.394   7.720
 1460POPC   NC321239  33.119  38.421   9.651
 1460POPC   PO421240  32.581  38.944   9.717
 1460POPC   GL121241  32.749  38.759   9.273
 1460POPC   GL221242  32.719  38.412   9.241
 1460POPC   C1A21243  33.011  38.654   8.837
 1460POPC   D2A21244  32.958  38.413   8.389
 1460POPC   C3A21245  33.179  38.454   7.973
 1460POPC   C4A21246  33.337  38.123   7.658
 1460POPC   C1B21247  32.599  38.384   8.776
 1460POPC   C2B21248  32.491  38.591   8.368
 1460POPC   C3B21249  32.637  38.476   7.946
 1460POPC   C4B21250  32.850  38.081   7.842
 1461POPC   NC321251  36.855  40.984   9.500
 1461POPC   PO421252  37.296  40.538   9.395
 1461POPC   GL121253  37.113  40.734   9.058
 1461POPC   GL221254  36.793  40.669   9.097
 1461POPC   C1A21255  36.930  40.823   8.640
 1461POPC   D2A21256  36.860  41.021   8.271
 1461POPC   C3A21257  36.975  40.740   7.987
 1461POPC   C4A21258  37.085  41.031   7.755
 1461POPC   C1B21259  36.612  40.449   8.746
 1461POPC   C2B21260  36.519  40.610   8.338
 1461POPC   C3B21261  36.596  40.414   7.927
 1461POPC   C4B21262  36.784  40.551   7.538
 1462POPC   NC321263  15.578  10.371   9.725
 1462POPC   PO421264  15.738  10.956   9.507
 1462POPC   GL121265  15.682  10.667   9.114
 1462POPC   GL221266  15.626  10.307   9.223
 1462POPC   C1A21267  15.891  10.670   8.677
 1462POPC   D2A21268  16.241  10.665   8.357
 1462POPC   C3A21269  16.061  10.570   7.976
 1462POPC   C4A21270  15.653  10.430   7.904
 1462POPC   C1B21271  15.680  10.193   8.795
 1462POPC   C2B21272  15.861  10.252   8.369
 1462POPC   C3B21273  16.169  10.088   8.074
 1462POPC   C4B21274  16.032  10.107   7.662
 1463POPC   NC321275  37.468  35.748   9.392
 1463POPC   PO421276  37.642  35.150   9.617
 1463POPC   GL121277  37.708  35.264   9.176
 1463POPC   GL221278  37.888  35.574   9.171
 1463POPC   C1A21279  37.667  35.377   8.708
 1463POPC   D2A21280  37.516  35.490   8.291
 1463POPC   C3A21281  37.570  35.208   7.930
 1463POPC   C4A21282  37.312  35.223   7.519
 1463POPC   C1B21283  37.995  35.746   8.784
 1463POPC   C2B21284  38.107  35.502   8.418
 1463POPC   C3B21285  38.025  35.464   7.974
 1463POPC   C4B21286  38.087  35.799   7.712
 1464POPC   NC321287  37.197  15.036   9.732
 1464POPC   PO421288  36.942  15.572   9.445
 1464POPC   GL121289  36.860  15.225   9.175
 1464POPC   GL221290  37.125  14.958   9.103
 1464POPC   C1A21291  36.773  15.120   8.781
 1464POPC   D2A21292  36.871  15.292   8.400
 1464POPC   C3A21293  36.817  15.094   8.053
 1464POPC   C4A21294  36.684  15.230   7.669
 1464POPC   C1B21295  37.300  15.139   8.695
 1464POPC   C2B21296  37.322  15.065   8.266
 1464POPC   C3B21297  37.310  15.241   7.939
 1464POPC   C4B21298  37.159  15.077   7.592
 1465POPC   NC321299  40.009  39.446   9.531
 1465POPC   PO421300  39.616  39.009   9.342
 1465POPC   GL121301  39.808  39.249   9.062
 1465POPC   GL221302  40.173  39.270   9.068
 1465POPC   C1A21303  39.852  39.155   8.633
 1465POPC   D2A21304  39.833  39.128   8.211
 1465POPC   C3A21305  40.065  39.183   7.872
 1465POPC   C4A21306  39.681  39.178   7.682
 1465POPC   C1B21307  40.334  39.329   8.643
 1465POPC   C2B21308  40.250  39.583   8.252
 1465POPC   C3B21309  40.334  39.639   7.791
 1465POPC   C4B21310  40.325  39.328   7.455
 1466POPC   NC321311  11.534   7.664   9.482
 1466POPC   PO421312  11.070   7.252   9.430
 1466POPC   GL121313  11.319   7.382   9.132
 1466POPC   GL221314  11.456   7.074   9.074
 1466POPC   C1A21315  11.482   7.554   8.759
 1466POPC   D2A21316  11.708   7.663   8.377
 1466POPC   C3A21317  11.367   7.765   8.103
 1466POPC   C4A21318  11.340   7.547   7.735
 1466POPC   C1B21319  11.081   7.159   8.762
 1466POPC   C2B21320  11.218   7.283   8.362
 1466POPC   C3B21321  11.279   7.111   7.972
 1466POPC   C4B21322  11.064   7.155   7.565
 1467POPC   NC321323  35.328   5.004   9.603
 1467POPC   PO421324  35.863   5.385   9.406
 1467POPC   GL121325  35.533   5.155   9.169
 1467POPC   GL221326  35.180   5.281   9.194
 1467POPC   C1A21327  35.296   4.957   8.818
 1467POPC   D2A21328  35.234   5.131   8.432
 1467POPC   C3A21329  35.469   5.020   8.103
 1467POPC   C4A21330  35.647   4.661   7.876
 1467POPC   C1B21331  34.933   5.336   8.801
 1467POPC   C2B21332  34.742   5.293   8.399
 1467POPC   C3B21333  34.657   5.432   8.004
 1467POPC   C4B21334  34.869   5.272   7.648
 1468POPC   NC321335  42.303  36.554  10.042
 1468POPC   PO421336  42.170  36.152   9.514
 1468POPC   GL121337  42.349  35.831   9.206
 1468POPC   GL221338  42.685  35.846   9.158
 1468POPC   C1A21339  42.349  35.773   8.761
 1468POPC   D2A21340  42.197  36.082   8.447
 1468POPC   C3A21341  42.179  35.914   8.027
 1468POPC   C4A21342  42.509  35.809   7.720
 1468POPC   C1B21343  42.620  36.194   8.838
 1468POPC   C2B21344  42.730  36.131   8.415
 1468POPC   C3B21345  42.633  36.202   8.011
 1468POPC   C4B21346  42.864  36.527   7.796
 1469POPC   NC321347  37.172  21.777   9.464
 1469POPC   PO421348  37.810  21.815   9.631
 1469POPC   GL121349  37.616  21.959   9.240
 1469POPC   GL221350  37.908  21.978   9.076
 1469POPC   C1A21351  37.483  22.193   8.835
 1469POPC   D2A21352  37.417  22.069   8.390
 1469POPC   C3A21353  37.526  22.253   7.991
 1469POPC   C4A21354  37.301  22.513   7.715
 1469POPC   C1B21355  37.804  21.820   8.667
 1469POPC   C2B21356  37.888  21.882   8.215
 1469POPC   C3B21357  37.935  22.022   7.782
 1469POPC   C4B21358  38.042  22.029   7.297
 1470POPC   NC321359  15.038  32.020   9.643
 1470POPC   PO421360  15.379  32.533   9.624
 1470POPC   GL121361  15.255  32.258   9.263
 1470POPC   GL221362  15.490  32.378   9.085
 1470POPC   C1A21363  15.049  32.291   8.867
 1470POPC   D2A21364  15.288  32.342   8.482
 1470POPC   C3A21365  15.084  32.185   8.133
 1470POPC   C4A21366  15.245  32.107   7.759
 1470POPC   C1B21367  15.568  32.069   8.823
 1470POPC   C2B21368  15.745  32.084   8.424
 1470POPC   C3B21369  15.608  32.268   8.072
 1470POPC   C4B21370  15.747  32.247   7.652
 1471POPC   NC321371  33.121   3.323   9.506
 1471POPC   PO421372  32.849   3.949   9.315
 1471POPC   GL121373  32.952   3.572   9.107
 1471POPC   GL221374  33.293   3.655   9.126
 1471POPC   C1A21375  32.839   3.428   8.716
 1471POPC   D2A21376  32.709   3.763   8.430
 1471POPC   C3A21377  32.725   3.566   8.041
 1471POPC   C4A21378  32.995   3.230   7.915
 1471POPC   C1B21379  33.357   3.491   8.712
 1471POPC   C2B21380  33.217   3.512   8.282
 1471POPC   C3B21381  33.374   3.637   7.869
 1471POPC   C4B21382  33.399   3.750   7.411
 1472POPC   NC321383  40.317   1.109   9.594
 1472POPC   PO421384  40.935   0.940   9.562
 1472POPC   GL121385  40.951   1.153   9.175
 1472POPC   GL221386  41.221   0.921   9.105
 1472POPC   C1A21387  40.707   1.402   8.859
 1472POPC   D2A21388  40.612   1.238   8.456
 1472POPC   C3A21389  40.612   1.498   8.089
 1472POPC   C4A21390  40.834   1.417   7.711
 1472POPC   C1B21391  40.971   0.777   8.715
 1472POPC   C2B21392  40.874   0.739   8.265
 1472POPC   C3B21393  40.676   1.005   7.980
 1472POPC   C4B21394  40.256   1.024   7.899
 1473POPC   NC321395   1.358  38.041   9.636
 1473POPC   PO421396   0.988  37.507   9.658
 1473POPC   GL121397   1.289  37.664   9.295
 1473POPC   GL221398   1.039  37.908   9.211
 1473POPC   C1A21399   1.393  37.856   8.846
 1473POPC   D2A21400   1.147  37.952   8.434
 1473POPC   C3A21401   1.339  37.670   8.125
 1473POPC   C4A21402   1.575  37.290   7.985
 1473POPC   C1B21403   0.978  37.563   8.894
 1473POPC   C2B21404   0.966  37.463   8.461
 1473POPC   C3B21405   0.917  37.400   8.041
 1473POPC   C4B21406   1.168  37.456   7.684
 1474POPC   NC321407  39.315  31.121   9.476
 1474POPC   PO421408  38.945  30.459   9.517
 1474POPC   GL121409  39.098  30.680   9.153
 1474POPC   GL221410  39.433  30.761   9.164
 1474POPC   C1A21411  39.221  30.719   8.708
 1474POPC   D2A21412  39.327  30.824   8.296
 1474POPC   C3A21413  39.313  30.527   7.997
 1474POPC   C4A21414  39.196  30.826   7.740
 1474POPC   C1B21415  39.675  30.917   8.816
 1474POPC   C2B21416  39.820  30.874   8.391
 1474POPC   C3B21417  39.687  30.952   7.922
 1474POPC   C4B21418  39.556  30.947   7.426
 1475POPC   NC321419  14.800  26.739   9.758
 1475POPC   PO421420  15.052  26.140   9.514
 1475POPC   GL121421  15.258  26.137   9.125
 1475POPC   GL221422  15.311  25.831   9.086
 1475POPC   C1A21423  15.292  26.296   8.698
 1475POPC   D2A21424  15.157  26.123   8.293
 1475POPC   C3A21425  15.430  25.946   7.956
 1475POPC   C4A21426  15.410  26.091   7.507
 1475POPC   C1B21427  15.099  25.790   8.720
 1475POPC   C2B21428  15.264  25.597   8.360
 1475POPC   C3B21429  15.092  25.553   7.963
 1475POPC   C4B21430  15.224  25.626   7.578
 1476POPC   NC321431   3.183  28.282   9.857
 1476POPC   PO421432   3.695  28.440   9.529
 1476POPC   GL121433   3.375  28.252   9.267
 1476POPC   GL221434   3.398  28.501   9.051
 1476POPC   C1A21435   3.423  28.095   8.794
 1476POPC   D2A21436   3.746  28.151   8.520
 1476POPC   C3A21437   3.598  28.125   8.120
 1476POPC   C4A21438   3.816  28.014   7.790
 1476POPC   C1B21439   3.611  28.617   8.687
 1476POPC   C2B21440   3.459  28.605   8.272
 1476POPC   C3B21441   3.516  28.553   7.824
 1476POPC   C4B21442   3.219  28.583   7.502
 1477POPC   NC321443  40.442  35.544   9.640
 1477POPC   PO421444  39.982  35.054   9.651
 1477POPC   GL121445  39.938  35.307   9.268
 1477POPC   GL221446  40.233  35.492   9.166
 1477POPC   C1A21447  39.918  35.123   8.858
 1477POPC   D2A21448  39.727  35.114   8.460
 1477POPC   C3A21449  39.993  35.332   8.163
 1477POPC   C4A21450  39.887  35.231   7.753
 1477POPC   C1B21451  40.081  35.607   8.750
 1477POPC   C2B21452  40.131  35.821   8.358
 1477POPC   C3B21453  40.298  35.725   7.942
 1477POPC   C4B21454  40.126  35.940   7.598
 1478POPC   NC321455  22.440  30.093   9.393
 1478POPC   PO421456  21.756  29.930   9.538
 1478POPC   GL121457  21.952  30.080   9.186
 1478POPC   GL221458  22.197  29.839   9.010
 1478POPC   C1A21459  21.810  30.108   8.787
 1478POPC   D2A21460  22.024  29.937   8.457
 1478POPC   C3A21461  21.840  30.060   8.089
 1478POPC   C4A21462  21.877  30.140   7.681
 1478POPC   C1B21463  22.496  29.789   8.655
 1478POPC   C2B21464  22.499  29.944   8.262
 1478POPC   C3B21465  22.308  29.896   7.911
 1478POPC   C4B21466  22.581  29.763   7.629
 1479POPC   NC321467  39.084   7.186   9.659
 1479POPC   PO421468  38.763   7.453   9.134
 1479POPC   GL121469  39.042   7.450   8.859
 1479POPC   GL221470  39.374   7.584   8.936
 1479POPC   C1A21471  38.998   7.234   8.516
 1479POPC   D2A21472  39.109   7.367   8.152
 1479POPC   C3A21473  38.925   7.266   7.810
 1479POPC   C4A21474  39.249   7.457   7.649
 1479POPC   C1B21475  39.396   7.603   8.527
 1479POPC   C2B21476  39.615   7.386   8.259
 1479POPC   C3B21477  39.553   7.707   7.983
 1479POPC   C4B21478  39.588   7.816   7.574
 1480POPC   NC321479   6.746  21.291   9.602
 1480POPC   PO421480   6.582  21.883   9.447
 1480POPC   GL121481   6.587  21.504   9.167
 1480POPC   GL221482   6.626  21.137   9.098
 1480POPC   C1A21483   6.722  21.502   8.744
 1480POPC   D2A21484   6.500  21.295   8.427
 1480POPC   C3A21485   6.593  21.502   8.066
 1480POPC   C4A21486   6.637  21.492   7.620
 1480POPC   C1B21487   6.883  21.020   8.721
 1480POPC   C2B21488   6.989  21.185   8.309
 1480POPC   C3B21489   6.928  21.175   7.876
 1480POPC   C4B21490   6.998  21.219   7.407
 1481POPC   NC321491  41.104  10.430   9.851
 1481POPC   PO421492  41.735  10.451   9.818
 1481POPC   GL121493  41.780  10.612   9.300
 1481POPC   GL221494  41.782  10.317   9.133
 1481POPC   C1A21495  41.528  10.678   8.853
 1481POPC   D2A21496  41.279  10.809   8.500
 1481POPC   C3A21497  41.306  10.871   8.055
 1481POPC   C4A21498  41.454  10.689   7.670
 1481POPC   C1B21499  41.630  10.195   8.748
 1481POPC   C2B21500  41.483  10.356   8.407
 1481POPC   C3B21501  41.654  10.392   8.056
 1481POPC   C4B21502  41.740  10.057   7.895
 1482POPC   NC321503  19.601  37.937   9.478
 1482POPC   PO421504  19.487  37.340   9.337
 1482POPC   GL121505  19.697  37.565   9.040
 1482POPC   GL221506  19.991  37.749   9.146
 1482POPC   C1A21507  19.600  37.649   8.611
 1482POPC   D2A21508  19.573  37.433   8.216
 1482POPC   C3A21509  19.655  37.757   7.904
 1482POPC   C4A21510  19.743  37.774   7.434
 1482POPC   C1B21511  20.135  37.711   8.706
 1482POPC   C2B21512  20.060  37.786   8.255
 1482POPC   C3B21513  20.112  38.158   7.987
 1482POPC   C4B21514  19.782  38.205   7.687
 1483POPC   NC321515   7.388  27.128   9.382
 1483POPC   PO421516   7.562  27.725   9.506
 1483POPC   GL121517   7.456  27.663   9.090
 1483POPC   GL221518   7.105  27.518   9.114
 1483POPC   C1A21519   7.320  27.633   8.656
 1483POPC   D2A21520   7.228  27.772   8.260
 1483POPC   C3A21521   7.420  27.575   7.957
 1483POPC   C4A21522   7.470  27.998   7.833
 1483POPC   C1B21523   7.043  27.214   8.740
 1483POPC   C2B21524   7.214  27.257   8.314
 1483POPC   C3B21525   7.201  27.124   7.863
 1483POPC   C4B21526   7.380  27.099   7.439
 1484POPC   NC321527  32.188  15.959   9.465
 1484POPC   PO421528  32.837  15.913   9.370
 1484POPC   GL121529  32.538  15.956   9.045
 1484POPC   GL221530  32.277  16.220   9.058
 1484POPC   C1A21531  32.241  15.823   8.761
 1484POPC   D2A21532  32.110  15.776   8.376
 1484POPC   C3A21533  32.424  15.694   8.099
 1484POPC   C4A21534  32.347  15.829   7.724
 1484POPC   C1B21535  31.928  16.251   8.808
 1484POPC   C2B21536  31.818  16.262   8.379
 1484POPC   C3B21537  32.036  16.129   8.002
 1484POPC   C4B21538  31.895  16.006   7.591
 1485POPC   NC321539  42.932  32.397   9.499
 1485POPC   PO421540  43.541  32.252   9.705
 1485POPC   GL121541  43.300  32.159   9.236
 1485POPC   GL221542  42.968  31.952   9.225
 1485POPC   C1A21543  43.227  31.939   8.776
 1485POPC   D2A21544  43.372  31.864   8.353
 1485POPC   C3A21545  43.303  32.114   7.970
 1485POPC   C4A21546  43.177  32.181   7.542
 1485POPC   C1B21547  42.837  32.234   8.852
 1485POPC   C2B21548  42.960  32.175   8.395
 1485POPC   C3B21549  42.796  32.126   7.972
 1485POPC   C4B21550  42.591  32.454   7.747
 1486POPC   NC321551  40.999  26.617   9.639
 1486POPC   PO421552  41.551  27.051   9.502
 1486POPC   GL121553  41.487  27.031   9.112
 1486POPC   GL221554  41.449  26.698   9.118
 1486POPC   C1A21555  41.349  27.063   8.705
 1486POPC   D2A21556  41.168  27.107   8.304
 1486POPC   C3A21557  41.227  26.755   8.036
 1486POPC   C4A21558  41.384  26.648   7.644
 1486POPC   C1B21559  41.748  26.743   8.781
 1486POPC   C2B21560  41.600  26.745   8.373
 1486POPC   C3B21561  41.727  26.885   7.968
 1486POPC   C4B21562  41.887  26.582   7.681
 1487POPC   NC321563  29.261  28.152   9.583
 1487POPC   PO421564  28.913  28.681   9.612
 1487POPC   GL121565  29.029  28.501   9.233
 1487POPC   GL221566  28.972  28.139   9.161
 1487POPC   C1A21567  29.146  28.611   8.839
 1487POPC   D2A21568  29.226  28.355   8.512
 1487POPC   C3A21569  29.461  28.452   8.190
 1487POPC   C4A21570  29.313  28.429   7.809
 1487POPC   C1B21571  29.077  27.857   8.826
 1487POPC   C2B21572  29.058  27.895   8.373
 1487POPC   C3B21573  28.903  28.052   7.997
 1487POPC   C4B21574  29.091  28.043   7.555
 1488POPC   NC321575  26.374  26.297   9.492
 1488POPC   PO421576  25.668  26.234   9.549
 1488POPC   GL121577  25.893  26.290   9.180
 1488POPC   GL221578  26.143  26.065   9.072
 1488POPC   C1A21579  25.756  26.116   8.764
 1488POPC   D2A21580  26.054  26.058   8.463
 1488POPC   C3A21581  25.855  26.009   8.061
 1488POPC   C4A21582  25.915  25.671   7.800
 1488POPC   C1B21583  26.462  26.196   8.812
 1488POPC   C2B21584  26.475  26.509   8.494
 1488POPC   C3B21585  26.252  26.393   8.127
 1488POPC   C4B21586  26.199  26.218   7.729
 1489POPC   NC321587  24.608  31.634   9.322
 1489POPC   PO421588  24.419  31.058   9.670
 1489POPC   GL121589  24.263  31.282   9.236
 1489POPC   GL221590  24.199  31.624   9.067
 1489POPC   C1A21591  24.360  31.270   8.742
 1489POPC   D2A21592  24.281  31.437   8.315
 1489POPC   C3A21593  24.615  31.369   7.983
 1489POPC   C4A21594  24.409  31.391   7.545
 1489POPC   C1B21595  24.489  31.772   8.703
 1489POPC   C2B21596  24.632  31.814   8.258
 1489POPC   C3B21597  24.475  31.830   7.827
 1489POPC   C4B21598  24.668  31.827   7.398
 1490POPC   NC321599  36.699   3.016   9.511
 1490POPC   PO421600  37.303   2.682   9.516
 1490POPC   GL121601  37.069   2.791   9.157
 1490POPC   GL221602  36.762   2.659   9.145
 1490POPC   C1A21603  37.112   2.951   8.731
 1490POPC   D2A21604  36.834   3.048   8.382
 1490POPC   C3A21605  36.736   2.840   7.999
 1490POPC   C4A21606  36.500   2.670   7.682
 1490POPC   C1B21607  36.906   2.480   8.773
 1490POPC   C2B21608  36.776   2.491   8.365
 1490POPC   C3B21609  37.030   2.419   8.002
 1490POPC   C4B21610  36.966   2.460   7.553
 1491POPC   NC321611  40.596   6.828   9.556
 1491POPC   PO421612  41.187   6.528   9.417
 1491POPC   GL121613  40.947   6.797   9.182
 1491POPC   GL221614  40.660   6.553   9.130
 1491POPC   C1A21615  40.849   6.896   8.783
 1491POPC   D2A21616  40.798   6.686   8.422
 1491POPC   C3A21617  40.660   6.890   8.075
 1491POPC   C4A21618  40.252   6.772   7.901
 1491POPC   C1B21619  40.885   6.317   8.795
 1491POPC   C2B21620  40.785   6.166   8.362
 1491POPC   C3B21621  40.806   6.419   7.953
 1491POPC   C4B21622  40.884   6.397   7.491
 1492POPC   NC321623  39.161  33.401   9.621
 1492POPC   PO421624  38.715  32.902   9.552
 1492POPC   GL121625  39.000  33.098   9.203
 1492POPC   GL221626  39.395  33.207   9.203
 1492POPC   C1A21627  39.135  33.119   8.762
 1492POPC   D2A21628  39.337  33.066   8.388
 1492POPC   C3A21629  39.175  32.964   8.001
 1492POPC   C4A21630  39.147  33.205   7.604
 1492POPC   C1B21631  39.585  32.895   8.899
 1492POPC   C2B21632  39.612  32.661   8.494
 1492POPC   C3B21633  39.634  32.747   8.034
 1492POPC   C4B21634  39.379  32.722   7.604
 1493POPC   NC321635  40.129  26.987   9.481
 1493POPC   PO421636  39.612  26.643   9.351
 1493POPC   GL121637  39.988  26.720   9.072
 1493POPC   GL221638  40.294  26.553   9.162
 1493POPC   C1A21639  40.141  27.053   8.752
 1493POPC   D2A21640  40.023  27.299   8.361
 1493POPC   C3A21641  40.001  27.081   7.961
 1493POPC   C4A21642  40.249  27.163   7.603
 1493POPC   C1B21643  40.416  26.623   8.724
 1493POPC   C2B21644  40.269  26.767   8.299
 1493POPC   C3B21645  40.365  26.719   7.836
 1493POPC   C4B21646  40.485  26.548   7.390
 1494POPC   NC321647  42.432  14.230   9.765
 1494POPC   PO421648  42.602  14.756   9.352
 1494POPC   GL121649  42.500  14.713   8.975
 1494POPC   GL221650  42.208  14.847   8.987
 1494POPC   C1A21651  42.601  14.476   8.614
 1494POPC   D2A21652  42.865  14.479   8.296
 1494POPC   C3A21653  42.655  14.212   8.061
 1494POPC   C4A21654  42.499  14.259   7.711
 1494POPC   C1B21655  42.112  14.437   8.742
 1494POPC   C2B21656  42.184  14.208   8.324
 1494POPC   C3B21657  42.028  14.284   7.881
 1494POPC   C4B21658  42.030  14.611   7.494
 1495POPC   NC321659   4.214   2.269   9.464
 1495POPC   PO421660   4.265   2.950   9.503
 1495POPC   GL121661   4.322   2.911   9.115
 1495POPC   GL221662   4.302   2.569   9.080
 1495POPC   C1A21663   4.236   2.977   8.710
 1495POPC   D2A21664   4.440   2.931   8.357
 1495POPC   C3A21665   4.283   2.946   7.963
 1495POPC   C4A21666   4.403   3.085   7.590
 1495POPC   C1B21667   4.401   2.318   8.760
 1495POPC   C2B21668   4.258   2.447   8.404
 1495POPC   C3B21669   4.171   2.458   8.006
 1495POPC   C4B21670   4.244   2.540   7.598
 1496POPC   NC321671  44.743  22.700   9.460
 1496POPC   PO421672  44.078  23.041   9.374
 1496POPC   GL121673  44.383  22.811   9.111
 1496POPC   GL221674  44.750  22.947   9.025
 1496POPC   C1A21675  44.462  22.680   8.703
 1496POPC   D2A21676  44.676  22.901   8.374
 1496POPC   C3A21677  44.549  22.728   8.012
 1496POPC   C4A21678  44.688  22.775   7.615
 1496POPC   C1B21679  44.931  23.198   8.713
 1496POPC   C2B21680  44.943  23.342   8.269
 1496POPC   C3B21681   0.037  23.103   7.880
 1496POPC   C4B21682   0.128  23.086   7.434
 1497POPC   NC321683  43.231  36.436   9.689
 1497POPC   PO421684  43.287  35.799   9.559
 1497POPC   GL121685  43.190  35.963   9.180
 1497POPC   GL221686  42.993  36.270   9.253
 1497POPC   C1A21687  43.027  35.897   8.771
 1497POPC   D2A21688  43.182  35.828   8.370
 1497POPC   C3A21689  43.108  36.039   8.002
 1497POPC   C4A21690  43.349  35.962   7.663
 1497POPC   C1B21691  43.090  36.417   8.838
 1497POPC   C2B21692  43.240  36.327   8.418
 1497POPC   C3B21693  43.313  36.533   8.016
 1497POPC   C4B21694  43.308  36.450   7.546
 1498POPC   NC321695  43.506  26.516   9.488
 1498POPC   PO421696  43.858  27.125   9.430
 1498POPC   GL121697  43.882  26.781   9.164
 1498POPC   GL221698  43.595  26.729   9.014
 1498POPC   C1A21699  44.050  26.824   8.749
 1498POPC   D2A21700  43.850  26.862   8.373
 1498POPC   C3A21701  44.103  26.921   8.055
 1498POPC   C4A21702  44.171  27.055   7.667
 1498POPC   C1B21703  43.680  26.478   8.681
 1498POPC   C2B21704  43.446  26.313   8.381
 1498POPC   C3B21705  43.562  26.558   8.085
 1498POPC   C4B21706  43.852  26.556   7.757
 1499POPC   NC321707  10.116  22.173   9.649
 1499POPC   PO421708   9.497  21.931   9.598
 1499POPC   GL121709   9.687  22.261   9.309
 1499POPC   GL221710   9.981  22.134   9.172
 1499POPC   C1A21711   9.688  22.358   8.839
 1499POPC   D2A21712   9.405  22.281   8.482
 1499POPC   C3A21713   9.628  22.308   8.090
 1499POPC   C4A21714   9.533  22.169   7.678
 1499POPC   C1B21715  10.079  21.935   8.782
 1499POPC   C2B21716  10.091  21.791   8.343
 1499POPC   C3B21717   9.959  21.912   7.915
 1499POPC   C4B21718   9.938  21.803   7.477
 1500POPC   NC321719  36.302  41.815   9.456
 1500POPC   PO421720  35.742  41.336   9.391
 1500POPC   GL121721  35.991  41.553   9.133
 1500POPC   GL221722  36.299  41.377   9.100
 1500POPC   C1A21723  36.050  41.720   8.752
 1500POPC   D2A21724  36.167  41.522   8.367
 1500POPC   C3A21725  35.894  41.364   8.062
 1500POPC   C4A21726  35.944  41.615   7.675
 1500POPC   C1B21727  36.553  41.537   8.749
 1500POPC   C2B21728  36.683  41.527   8.291
 1500POPC   C3B21729  36.409  41.520   7.890
 1500POPC   C4B21730  36.425  41.414   7.416
 1501POPC   NC321731   7.535  40.878   9.519
 1501POPC   PO421732   6.882  40.585   9.460
 1501POPC   GL121733   7.264  40.632   9.125
 1501POPC   GL221734   7.651  40.710   9.069
 1501POPC   C1A21735   7.351  40.930   8.738
 1501POPC   D2A21736   7.320  41.122   8.330
 1501POPC   C3A21737   7.351  40.864   7.954
 1501POPC   C4A21738   7.288  41.002   7.548
 1501POPC   C1B21739   7.881  40.810   8.721
 1501POPC   C2B21740   7.769  40.887   8.311
 1501POPC   C3B21741   7.849  40.990   7.905
 1501POPC   C4B21742   7.725  40.655   7.644
 1502POPC   NC321743   7.371  16.140   9.752
 1502POPC   PO421744   7.848  15.653   9.591
 1502POPC   GL121745   7.668  15.865   9.222
 1502POPC   GL221746   7.371  16.109   9.210
 1502POPC   C1A21747   7.585  15.974   8.779
 1502POPC   D2A21748   7.645  16.279   8.485
 1502POPC   C3A21749   7.553  16.070   8.120
 1502POPC   C4A21750   7.511  16.163   7.683
 1502POPC   C1B21751   7.097  16.108   8.806
 1502POPC   C2B21752   7.060  15.931   8.378
 1502POPC   C3B21753   7.069  16.153   7.978
 1502POPC   C4B21754   7.068  16.454   7.627
 1503POPC   NC321755  33.837  15.093   9.558
 1503POPC   PO421756  33.426  15.602   9.458
 1503POPC   GL121757  33.709  15.338   9.140
 1503POPC   GL221758  34.068  15.373   9.198
 1503POPC   C1A21759  33.674  15.153   8.722
 1503POPC   D2A21760  33.543  15.087   8.299
 1503POPC   C3A21761  33.758  15.240   7.956
 1503POPC   C4A21762  34.025  14.926   7.687
 1503POPC   C1B21763  34.197  15.218   8.783
 1503POPC   C2B21764  34.109  15.142   8.334
 1503POPC   C3B21765  34.262  15.305   7.917
 1503POPC   C4B21766  33.994  15.529   7.588
 1504POPC   NC321767  28.102  37.597   9.428
 1504POPC   PO421768  28.644  37.784   9.644
 1504POPC   GL121769  28.646  37.614   9.225
 1504POPC   GL221770  28.846  37.868   9.137
 1504POPC   C1A21771  28.428  37.506   8.811
 1504POPC   D2A21772  28.105  37.699   8.481
 1504POPC   C3A21773  28.202  37.599   8.080
 1504POPC   C4A21774  28.337  37.474   7.699
 1504POPC   C1B21775  28.805  37.848   8.716
 1504POPC   C2B21776  28.642  37.647   8.345
 1504POPC   C3B21777  28.713  37.745   7.905
 1504POPC   C4B21778  28.702  37.697   7.439
 1505POPC   NC321779  14.751  14.456   9.611
 1505POPC   PO421780  14.242  14.015   9.652
 1505POPC   GL121781  14.441  14.207   9.250
 1505POPC   GL221782  14.794  14.131   9.176
 1505POPC   C1A21783  14.368  14.480   8.859
 1505POPC   D2A21784  14.298  14.441   8.382
 1505POPC   C3A21785  14.600  14.516   8.034
 1505POPC   C4A21786  14.685  14.858   7.737
 1505POPC   C1B21787  14.661  14.095   8.727
 1505POPC   C2B21788  14.612  14.031   8.276
 1505POPC   C3B21789  14.275  14.082   7.980
 1505POPC   C4B21790  14.098  14.469   7.875
 1506POPC   NC321791  42.051  13.600   9.579
 1506POPC   PO421792  42.349  12.994   9.682
 1506POPC   GL121793  42.165  13.143   9.301
 1506POPC   GL221794  42.095  12.820   9.156
 1506POPC   C1A21795  42.317  13.192   8.874
 1506POPC   D2A21796  42.476  13.083   8.463
 1506POPC   C3A21797  42.232  12.930   8.120
 1506POPC   C4A21798  42.374  13.063   7.739
 1506POPC   C1B21799  42.448  12.698   8.889
 1506POPC   C2B21800  42.555  12.581   8.491
 1506POPC   C3B21801  42.718  12.667   8.114
 1506POPC   C4B21802  42.471  12.573   7.777
 1507POPC   NC321803   5.261  35.512   9.538
 1507POPC   PO421804   4.912  35.011   9.260
 1507POPC   GL121805   5.249  35.264   9.083
 1507POPC   GL221806   5.274  35.665   9.065
 1507POPC   C1A21807   5.382  35.358   8.682
 1507POPC   D2A21808   5.537  35.617   8.396
 1507POPC   C3A21809   5.396  35.410   8.069
 1507POPC   C4A21810   5.235  35.428   7.689
 1507POPC   C1B21811   4.911  35.528   8.789
 1507POPC   C2B21812   4.989  35.519   8.380
 1507POPC   C3B21813   4.880  35.306   8.046
 1507POPC   C4B21814   4.717  35.398   7.711
 1508POPC   NC321815  38.054  23.144   9.900
 1508POPC   PO421816  37.682  22.806   9.614
 1508POPC   GL121817  37.704  22.790   9.172
 1508POPC   GL221818  37.420  22.945   9.008
 1508POPC   C1A21819  37.780  22.633   8.748
 1508POPC   D2A21820  37.544  22.590   8.377
 1508POPC   C3A21821  37.701  22.756   7.977
 1508POPC   C4A21822  38.105  22.790   7.726
 1508POPC   C1B21823  37.458  23.064   8.565
 1508POPC   C2B21824  37.606  23.267   8.157
 1508POPC   C3B21825  37.608  23.423   7.704
 1508POPC   C4B21826  37.345  23.353   7.305
 1509POPC   NC321827  37.486  27.820   9.623
 1509POPC   PO421828  38.039  27.377   9.599
 1509POPC   GL121829  37.778  27.585   9.290
 1509POPC   GL221830  37.950  27.892   9.321
 1509POPC   C1A21831  37.500  27.452   8.961
 1509POPC   D2A21832  37.438  27.360   8.531
 1509POPC   C3A21833  37.529  27.545   8.134
 1509POPC   C4A21834  37.604  27.427   7.724
 1509POPC   C1B21835  37.898  27.839   8.848
 1509POPC   C2B21836  37.721  27.928   8.417
 1509POPC   C3B21837  37.862  27.911   7.972
 1509POPC   C4B21838  38.035  27.671   7.619
 1510POPC   NC321839  26.164   0.338   9.299
 1510POPC   PO421840  25.768   0.738   9.664
 1510POPC   GL121841  25.699   0.534   9.178
 1510POPC   GL221842  25.860   0.226   8.931
 1510POPC   C1A21843  25.740   0.677   8.765
 1510POPC   D2A21844  26.077   0.540   8.543
 1510POPC   C3A21845  26.025   0.512   8.140
 1510POPC   C4A21846  26.215   0.777   7.849
 1510POPC   C1B21847  26.327   0.134   8.742
 1510POPC   C2B21848  26.506   0.195   8.313
 1510POPC   C3B21849  26.362   0.249   7.871
 1510POPC   C4B21850  25.957   0.342   7.651
 1511POPC   NC321851  37.069  16.013   9.561
 1511POPC   PO421852  37.609  15.667   9.499
 1511POPC   GL121853  37.244  15.835   9.130
 1511POPC   GL221854  36.841  15.936   9.105
 1511POPC   C1A21855  37.006  15.611   8.775
 1511POPC   D2A21856  37.048  15.772   8.385
 1511POPC   C3A21857  36.902  15.628   8.000
 1511POPC   C4A21858  36.977  16.011   7.786
 1511POPC   C1B21859  36.625  16.117   8.725
 1511POPC   C2B21860  36.727  16.142   8.268
 1511POPC   C3B21861  36.488  15.940   7.927
 1511POPC   C4B21862  36.255  15.986   7.526
 1512POPC   NC321863  13.005  23.987   9.280
 1512POPC   PO421864  12.454  23.647   9.508
 1512POPC   GL121865  12.671  23.632   9.102
 1512POPC   GL221866  13.010  23.484   9.123
 1512POPC   C1A21867  12.700  23.746   8.662
 1512POPC   D2A21868  12.997  23.724   8.354
 1512POPC   C3A21869  13.024  23.989   8.054
 1512POPC   C4A21870  12.881  23.901   7.659
 1512POPC   C1B21871  13.212  23.418   8.724
 1512POPC   C2B21872  13.193  23.270   8.302
 1512POPC   C3B21873  12.951  23.404   7.915
 1512POPC   C4B21874  13.161  23.439   7.514
 1513POPC   NC321875  32.582   0.693   9.531
 1513POPC   PO421876  31.963   0.373   9.564
 1513POPC   GL121877  32.112   0.292   9.152
 1513POPC   GL221878  32.145   0.619   9.055
 1513POPC   C1A21879  31.935   0.239   8.727
 1513POPC   D2A21880  32.133   0.179   8.321
 1513POPC   C3A21881  31.893   0.398   8.030
 1513POPC   C4A21882  31.796   0.291   7.589
 1513POPC   C1B21883  32.398   0.406   8.698
 1513POPC   C2B21884  32.620   0.470   8.335
 1513POPC   C3B21885  32.498   0.414   7.934
 1513POPC   C4B21886  32.196   0.566   7.655
 1514POPC   NC321887  21.059  40.034   9.485
 1514POPC   PO421888  21.617  40.208   9.311
 1514POPC   GL121889  21.373  39.977   9.077
 1514POPC   GL221890  21.107  40.212   9.020
 1514POPC   C1A21891  21.543  39.924   8.694
 1514POPC   D2A21892  21.753  40.175   8.400
 1514POPC   C3A21893  21.624  40.056   8.019
 1514POPC   C4A21894  21.423  40.323   7.714
 1514POPC   C1B21895  21.055  40.039   8.630
 1514POPC   C2B21896  21.186  40.155   8.243
 1514POPC   C3B21897  21.159  39.928   7.882
 1514POPC   C4B21898  20.836  40.025   7.659
 1515POPC   NC321899   6.141   7.764   9.480
 1515POPC   PO421900   5.766   7.268   9.646
 1515POPC   GL121901   5.898   7.349   9.230
 1515POPC   GL221902   5.704   7.628   9.200
 1515POPC   C1A21903   6.043   7.450   8.800
 1515POPC   D2A21904   6.294   7.407   8.414
 1515POPC   C3A21905   6.086   7.482   8.011
 1515POPC   C4A21906   5.752   7.230   7.799
 1515POPC   C1B21907   5.593   7.727   8.773
 1515POPC   C2B21908   5.753   7.638   8.364
 1515POPC   C3B21909   5.632   7.707   7.917
 1515POPC   C4B21910   5.834   7.725   7.489
 1516POPC   NC321911  34.607  37.848   9.287
 1516POPC   PO421912  35.083  37.486   9.667
 1516POPC   GL121913  34.836  37.417   9.159
 1516POPC   GL221914  34.481  37.398   9.078
 1516POPC   C1A21915  34.824  37.662   8.705
 1516POPC   D2A21916  34.656  37.972   8.430
 1516POPC   C3A21917  34.497  37.864   8.009
 1516POPC   C4A21918  34.647  37.610   7.635
 1516POPC   C1B21919  34.383  37.366   8.673
 1516POPC   C2B21920  34.562  37.447   8.284
 1516POPC   C3B21921  34.436  37.254   7.910
 1516POPC   C4B21922  34.239  37.326   7.502
 1517POPC   NC321923   8.610  11.579   9.449
 1517POPC   PO421924   8.099  11.087   9.598
 1517POPC   GL121925   8.103  11.215   9.179
 1517POPC   GL221926   8.254  11.514   9.099
 1517POPC   C1A21927   8.294  11.064   8.815
 1517POPC   D2A21928   8.370  11.245   8.427
 1517POPC   C3A21929   8.225  11.359   7.989
 1517POPC   C4A21930   8.066  11.071   7.748
 1517POPC   C1B21931   8.032  11.520   8.727
 1517POPC   C2B21932   7.774  11.610   8.395
 1517POPC   C3B21933   7.722  11.691   7.986
 1517POPC   C4B21934   8.017  11.852   7.725
 1518POPC   NC321935  16.790  23.481   9.695
 1518POPC   PO421936  16.696  22.769   9.615
 1518POPC   GL121937  16.893  22.933   9.254
 1518POPC   GL221938  16.579  23.040   9.092
 1518POPC   C1A21939  16.980  22.829   8.824
 1518POPC   D2A21940  17.110  22.660   8.434
 1518POPC   C3A21941  16.858  22.696   8.056
 1518POPC   C4A21942  16.802  23.006   7.748
 1518POPC   C1B21943  16.662  23.207   8.691
 1518POPC   C2B21944  16.809  23.182   8.272
 1518POPC   C3B21945  16.693  23.464   7.933
 1518POPC   C4B21946  16.761  23.518   7.472
 1519POPC   NC321947  28.120   1.375   9.631
 1519POPC   PO421948  28.742   1.083   9.357
 1519POPC   GL121949  28.628   1.257   9.014
 1519POPC   GL221950  28.370   1.421   9.161
 1519POPC   C1A21951  28.543   1.120   8.607
 1519POPC   D2A21952  28.686   0.919   8.205
 1519POPC   C3A21953  28.495   1.067   7.862
 1519POPC   C4A21954  28.041   1.042   7.878
 1519POPC   C1B21955  28.275   1.537   8.724
 1519POPC   C2B21956  28.231   1.379   8.264
 1519POPC   C3B21957  28.306   1.568   7.836
 1519POPC   C4B21958  28.591   1.580   7.458
 1520POPC   NC321959  29.407  30.227   9.504
 1520POPC   PO421960  29.218  29.593   9.557
 1520POPC   GL121961  29.045  29.649   9.122
 1520POPC   GL221962  29.055  29.995   9.143
 1520POPC   C1A21963  29.037  29.735   8.675
 1520POPC   D2A21964  29.054  29.551   8.285
 1520POPC   C3A21965  28.803  29.771   7.975
 1520POPC   C4A21966  28.978  29.676   7.590
 1520POPC   C1B21967  29.352  30.096   8.854
 1520POPC   C2B21968  29.371  30.298   8.477
 1520POPC   C3B21969  29.438  30.325   8.060
 1520POPC   C4B21970  29.081  30.175   7.755
 1521POPC   NC321971  11.860  13.736   9.518
 1521POPC   PO421972  12.439  13.643   9.309
 1521POPC   GL121973  12.062  13.704   9.048
 1521POPC   GL221974  11.808  13.995   9.077
 1521POPC   C1A21975  12.068  13.621   8.618
 1521POPC   D2A21976  12.108  13.428   8.223
 1521POPC   C3A21977  12.281  13.577   7.849
 1521POPC   C4A21978  12.435  13.376   7.458
 1521POPC   C1B21979  11.588  13.745   8.773
 1521POPC   C2B21980  11.619  13.684   8.331
 1521POPC   C3B21981  11.661  14.028   8.054
 1521POPC   C4B21982  11.872  13.977   7.660
 1522POPC   NC321983   9.268   4.327   9.472
 1522POPC   PO421984   8.602   4.396   9.600
 1522POPC   GL121985   8.814   4.252   9.226
 1522POPC   GL221986   9.031   4.548   9.069
 1522POPC   C1A21987   8.945   4.089   8.837
 1522POPC   D2A21988   9.057   4.396   8.539
 1522POPC   C3A21989   9.100   4.269   8.150
 1522POPC   C4A21990   8.998   4.177   7.758
 1522POPC   C1B21991   8.639   4.517   8.827
 1522POPC   C2B21992   8.577   4.668   8.389
 1522POPC   C3B21993   8.734   4.595   7.993
 1522POPC   C4B21994   8.814   4.585   7.540
 1523POPC   NC321995  12.345  36.860   9.424
 1523POPC   PO421996  11.735  37.164   9.502
 1523POPC   GL121997  11.857  36.923   9.151
 1523POPC   GL221998  12.153  37.077   9.004
 1523POPC   C1A21999  11.774  36.827   8.740
 1523POPC   D2A22000  12.014  37.070   8.458
 1523POPC   C3A22001  11.856  37.139   8.066
 1523POPC   C4A22002  11.774  36.993   7.660
 1523POPC   C1B22003  12.273  36.688   8.779
 1523POPC   C2B22004  12.326  36.650   8.335
 1523POPC   C3B22005  12.080  36.696   7.964
 1523POPC   C4B22006  12.181  36.732   7.522
 1524POPC   NC322007  10.267  23.695   9.643
 1524POPC   PO422008  10.213  24.369   9.555
 1524POPC   GL122009  10.461  23.937   9.250
 1524POPC   GL222010  10.316  23.554   9.158
 1524POPC   C1A22011  10.649  23.740   8.838
 1524POPC   D2A22012  10.829  23.945   8.443
 1524POPC   C3A22013  10.580  23.866   8.069
 1524POPC   C4A22014  10.617  23.882   7.644
 1524POPC   C1B22015  10.195  23.370   8.768
 1524POPC   C2B22016   9.935  23.271   8.418
 1524POPC   C3B22017  10.026  23.270   7.998
 1524POPC   C4B22018  10.392  23.428   7.842
 1525POPC   NC322019  30.906  17.433   9.426
 1525POPC   PO422020  30.959  18.091   9.417
 1525POPC   GL122021  30.777  17.924   9.032
 1525POPC   GL222022  30.964  17.641   8.976
 1525POPC   C1A22023  30.491  17.613   8.762
 1525POPC   D2A22024  30.471  17.303   8.407
 1525POPC   C3A22025  30.551  17.500   8.017
 1525POPC   C4A22026  30.350  17.611   7.655
 1525POPC   C1B22027  30.866  17.269   8.743
 1525POPC   C2B22028  30.886  17.608   8.424
 1525POPC   C3B22029  30.999  17.778   8.056
 1525POPC   C4B22030  31.001  17.516   7.726
 1526POPC   NC322031  14.419  39.647   9.799
 1526POPC   PO422032  14.604  40.196   9.425
 1526POPC   GL122033  14.579  40.224   8.994
 1526POPC   GL222034  14.813  39.948   8.981
 1526POPC   C1A22035  14.348  40.076   8.628
 1526POPC   D2A22036  14.433  39.870   8.226
 1526POPC   C3A22037  14.414  40.168   7.912
 1526POPC   C4A22038  14.126  39.958   7.698
 1526POPC   C1B22039  14.730  39.721   8.625
 1526POPC   C2B22040  14.937  39.764   8.248
 1526POPC   C3B22041  14.812  39.849   7.851
 1526POPC   C4B22042  14.682  39.870   7.411
 1527POPC   NC322043  39.194  13.463   9.583
 1527POPC   PO422044  38.604  13.390   9.338
 1527POPC   GL122045  38.977  13.520   9.118
 1527POPC   GL222046  39.154  13.834   9.225
 1527POPC   C1A22047  39.043  13.557   8.691
 1527POPC   D2A22048  39.132  13.508   8.283
 1527POPC   C3A22049  39.048  13.565   7.872
 1527POPC   C4A22050  39.372  13.365   7.663
 1527POPC   C1B22051  39.413  13.913   8.863
 1527POPC   C2B22052  39.375  13.930   8.409
 1527POPC   C3B22053  39.487  13.818   7.953
 1527POPC   C4B22054  39.393  13.825   7.474
 1528POPC   NC322055  20.921  11.858   9.852
 1528POPC   PO422056  21.297  12.402   9.542
 1528POPC   GL122057  21.265  12.217   9.151
 1528POPC   GL222058  21.461  11.914   9.136
 1528POPC   C1A22059  21.434  12.221   8.737
 1528POPC   D2A22060  21.210  12.263   8.365
 1528POPC   C3A22061  21.464  12.186   8.025
 1528POPC   C4A22062  21.566  12.155   7.599
 1528POPC   C1B22063  21.280  11.725   8.722
 1528POPC   C2B22064  21.487  11.707   8.297
 1528POPC   C3B22065  21.456  11.698   7.826
 1528POPC   C4B22066  21.324  11.729   7.361
 1529POPC   NC322067  42.596  21.673   9.541
 1529POPC   PO422068  42.208  21.081   9.503
 1529POPC   GL122069  42.311  21.244   9.126
 1529POPC   GL222070  42.334  21.607   9.118
 1529POPC   C1A22071  42.179  21.320   8.704
 1529POPC   D2A22072  42.269  21.555   8.329
 1529POPC   C3A22073  42.281  21.288   7.973
 1529POPC   C4A22074  41.923  21.092   7.866
 1529POPC   C1B22075  42.512  21.773   8.754
 1529POPC   C2B22076  42.780  21.668   8.429
 1529POPC   C3B22077  42.671  21.634   8.014
 1529POPC   C4B22078  42.330  21.749   7.776
 1530POPC   NC322079   9.068  29.632   9.580
 1530POPC   PO422080   8.752  30.111   9.346
 1530POPC   GL122081   9.023  30.076   9.030
 1530POPC   GL222082   9.124  29.769   9.105
 1530POPC   C1A22083   9.092  29.990   8.610
 1530POPC   D2A22084   8.958  29.751   8.289
 1530POPC   C3A22085   8.898  30.007   7.938
 1530POPC   C4A22086   9.219  30.060   7.673
 1530POPC   C1B22087   9.389  29.612   8.811
 1530POPC   C2B22088   9.439  29.536   8.366
 1530POPC   C3B22089   9.552  29.783   7.998
 1530POPC   C4B22090   9.525  29.647   7.570
 1531POPC   NC322091   7.310  29.724   9.419
 1531POPC   PO422092   7.825  30.306   9.516
 1531POPC   GL122093   7.610  30.094   9.224
 1531POPC   GL222094   7.337  30.316   9.151
 1531POPC   C1A22095   7.516  29.979   8.800
 1531POPC   D2A22096   7.531  30.245   8.437
 1531POPC   C3A22097   7.470  29.961   8.097
 1531POPC   C4A22098   7.665  29.728   7.781
 1531POPC   C1B22099   7.078  30.281   8.752
 1531POPC   C2B22100   7.051  30.076   8.380
 1531POPC   C3B22101   7.010  30.151   7.971
 1531POPC   C4B22102   7.221  29.945   7.632
 1532POPC   NC322103  21.979  44.162   9.450
 1532POPC   PO422104  22.053  43.525   9.518
 1532POPC   GL122105  22.089  43.781   9.151
 1532POPC   GL222106  22.321  43.620   8.989
 1532POPC   C1A22107  22.150  44.056   8.769
 1532POPC   D2A22108  21.915  44.154   8.375
 1532POPC   C3A22109  22.140  44.069   7.984
 1532POPC   C4A22110  22.312  43.869   7.613
 1532POPC   C1B22111  22.545  43.615   8.650
 1532POPC   C2B22112  22.562  43.773   8.249
 1532POPC   C3B22113  22.584  43.545   7.894
 1532POPC   C4B22114  22.574  43.458   7.428
 1533POPC   NC322115  27.590  13.878   9.628
 1533POPC   PO422116  27.296  13.217   9.533
 1533POPC   GL122117  27.579  13.415   9.212
 1533POPC   GL222118  27.478  13.753   9.153
 1533POPC   C1A22119  27.582  13.476   8.747
 1533POPC   D2A22120  27.623  13.699   8.359
 1533POPC   C3A22121  27.703  13.564   7.921
 1533POPC   C4A22122  27.867  13.543   7.484
 1533POPC   C1B22123  27.668  13.998   8.809
 1533POPC   C2B22124  27.873  14.216   8.478
 1533POPC   C3B22125  27.895  14.025   8.095
 1533POPC   C4B22126  27.728  14.017   7.668
 1534POPC   NC322127  24.711   2.902   9.418
 1534POPC   PO422128  24.036   3.082   9.400
 1534POPC   GL122129  24.033   2.817   9.051
 1534POPC   GL222130  24.372   2.677   9.098
 1534POPC   C1A22131  24.145   2.681   8.645
 1534POPC   D2A22132  24.435   2.827   8.341
 1534POPC   C3A22133  24.331   2.753   7.918
 1534POPC   C4A22134  24.289   2.739   7.484
 1534POPC   C1B22135  24.696   2.788   8.779
 1534POPC   C2B22136  24.861   2.546   8.440
 1534POPC   C3B22137  24.662   2.392   8.088
 1534POPC   C4B22138  24.716   2.508   7.662
 1535POPC   NC322139   3.277  33.797   9.640
 1535POPC   PO422140   3.830  34.115   9.696
 1535POPC   GL122141   3.696  33.859   9.295
 1535POPC   GL222142   3.515  33.502   9.292
 1535POPC   C1A22143   3.450  33.933   8.896
 1535POPC   D2A22144   3.288  34.096   8.478
 1535POPC   C3A22145   3.422  33.975   8.040
 1535POPC   C4A22146   3.454  33.998   7.570
 1535POPC   C1B22147   3.254  33.465   8.948
 1535POPC   C2B22148   3.292  33.562   8.503
 1535POPC   C3B22149   3.253  33.468   8.071
 1535POPC   C4B22150   3.500  33.540   7.749
 1536POPC   NC322151   9.938   4.778   9.388
 1536POPC   PO422152   9.679   4.134   9.576
 1536POPC   GL122153   9.671   4.293   9.160
 1536POPC   GL222154   9.987   4.330   9.155
 1536POPC   C1A22155   9.534   4.333   8.737
 1536POPC   D2A22156   9.535   3.986   8.474
 1536POPC   C3A22157   9.562   4.077   8.034
 1536POPC   C4A22158   9.457   4.422   7.789
 1536POPC   C1B22159  10.023   4.170   8.754
 1536POPC   C2B22160   9.934   4.280   8.352
 1536POPC   C3B22161   9.881   4.568   8.057
 1536POPC   C4B22162   9.970   4.453   7.676
 1537POPC   NC322163   7.098   3.053   9.362
 1537POPC   PO422164   7.220   2.432   9.357
 1537POPC   GL122165   7.359   2.741   9.083
 1537POPC   GL222166   7.702   2.785   9.001
 1537POPC   C1A22167   7.324   2.966   8.704
 1537POPC   D2A22168   7.582   2.853   8.339
 1537POPC   C3A22169   7.337   3.009   8.038
 1537POPC   C4A22170   7.339   3.095   7.643
 1537POPC   C1B22171   7.485   2.486   8.680
 1537POPC   C2B22172   7.474   2.321   8.297
 1537POPC   C3B22173   7.244   2.499   8.012
 1537POPC   C4B22174   7.538   2.615   7.729
 1538POPC   NC322175  20.424  40.781   9.680
 1538POPC   PO422176  20.950  41.104   9.435
 1538POPC   GL122177  20.641  40.893   9.208
 1538POPC   GL222178  20.715  40.535   9.202
 1538POPC   C1A22179  20.429  40.819   8.825
 1538POPC   D2A22180  20.639  40.904   8.442
 1538POPC   C3A22181  20.478  40.825   8.036
 1538POPC   C4A22182  20.689  40.982   7.687
 1538POPC   C1B22183  20.704  40.398   8.769
 1538POPC   C2B22184  20.634  40.385   8.325
 1538POPC   C3B22185  20.833  40.459   7.921
 1538POPC   C4B22186  20.727  40.484   7.473
 1539POPC   NC322187   8.921  23.369   9.553
 1539POPC   PO422188   9.002  24.085   9.604
 1539POPC   GL122189   8.982  23.824   9.238
 1539POPC   GL222190   8.645  23.705   9.231
 1539POPC   C1A22191   9.194  23.709   8.838
 1539POPC   D2A22192   9.140  23.592   8.399
 1539POPC   C3A22193   9.192  23.886   8.059
 1539POPC   C4A22194   9.069  23.833   7.638
 1539POPC   C1B22195   8.712  23.489   8.828
 1539POPC   C2B22196   8.603  23.586   8.383
 1539POPC   C3B22197   8.786  23.528   7.988
 1539POPC   C4B22198   8.651  23.532   7.554
 1540POPC   NC322199  12.200  42.674   9.484
 1540POPC   PO422200  12.011  41.956   9.558
 1540POPC   GL122201  12.217  42.222   9.259
 1540POPC   GL222202  11.926  42.407   9.147
 1540POPC   C1A22203  12.352  42.363   8.859
 1540POPC   D2A22204  12.303  42.597   8.494
 1540POPC   C3A22205  12.123  42.426   8.162
 1540POPC   C4A22206  12.030  42.629   7.772
 1540POPC   C1B22207  11.885  42.139   8.810
 1540POPC   C2B22208  11.787  42.099   8.403
 1540POPC   C3B22209  11.844  41.996   7.994
 1540POPC   C4B22210  11.766  42.191   7.620
 1541POPC   NC322211  39.961  36.897   9.572
 1541POPC   PO422212  40.069  36.330   9.365
 1541POPC   GL122213  40.132  36.662   9.062
 1541POPC   GL222214  40.078  37.025   9.111
 1541POPC   C1A22215  40.097  36.818   8.634
 1541POPC   D2A22216  40.387  36.746   8.282
 1541POPC   C3A22217  40.165  36.809   7.938
 1541POPC   C4A22218  39.786  36.710   7.805
 1541POPC   C1B22219  39.919  37.286   8.793
 1541POPC   C2B22220  39.785  37.146   8.394
 1541POPC   C3B22221  39.910  37.285   7.999
 1541POPC   C4B22222  40.112  37.208   7.604
 1542POPC   NC322223  13.165  29.011   9.459
 1542POPC   PO422224  12.470  29.291   9.515
 1542POPC   GL122225  12.717  29.064   9.179
 1542POPC   GL222226  12.952  29.229   9.038
 1542POPC   C1A22227  12.657  28.991   8.707
 1542POPC   D2A22228  12.869  28.812   8.330
 1542POPC   C3A22229  12.871  29.135   8.037
 1542POPC   C4A22230  12.811  29.142   7.620
 1542POPC   C1B22231  13.144  29.163   8.604
 1542POPC   C2B22232  13.371  29.108   8.191
 1542POPC   C3B22233  13.293  29.239   7.726
 1542POPC   C4B22234  13.133  29.360   7.297
 1543POPC   NC322235  27.087  20.292   9.458
 1543POPC   PO422236  26.841  20.956   9.482
 1543POPC   GL122237  26.764  20.821   9.095
 1543POPC   GL222238  27.089  20.629   9.036
 1543POPC   C1A22239  26.708  20.621   8.694
 1543POPC   D2A22240  27.018  20.711   8.379
 1543POPC   C3A22241  26.826  20.688   7.983
 1543POPC   C4A22242  26.533  20.885   7.691
 1543POPC   C1B22243  27.051  20.239   8.778
 1543POPC   C2B22244  26.930  20.211   8.386
 1543POPC   C3B22245  27.226  20.324   8.105
 1543POPC   C4B22246  27.167  20.397   7.711
 1544POPC   NC322247  27.340  41.029   9.699
 1544POPC   PO422248  27.433  40.370   9.603
 1544POPC   GL122249  27.550  40.646   9.215
 1544POPC   GL222250  27.277  40.862   9.167
 1544POPC   C1A22251  27.720  40.878   8.821
 1544POPC   D2A22252  27.910  41.046   8.416
 1544POPC   C3A22253  27.767  40.890   8.008
 1544POPC   C4A22254  27.379  40.994   7.829
 1544POPC   C1B22255  27.172  41.009   8.734
 1544POPC   C2B22256  27.423  40.894   8.385
 1544POPC   C3B22257  27.421  40.526   8.134
 1544POPC   C4B22258  27.126  40.532   7.828
 1545POPC   NC322259   9.110  36.352   9.419
 1545POPC   PO422260   8.700  36.018   9.765
 1545POPC   GL122261   8.839  35.995   9.185
 1545POPC   GL222262   9.120  35.896   8.939
 1545POPC   C1A22263   8.652  36.007   8.754
 1545POPC   D2A22264   8.936  35.933   8.392
 1545POPC   C3A22265   9.036  36.143   7.990
 1545POPC   C4A22266   9.088  35.964   7.569
 1545POPC   C1B22267   9.068  36.323   8.769
 1545POPC   C2B22268   9.350  36.558   8.521
 1545POPC   C3B22269   9.575  36.365   8.174
 1545POPC   C4B22270   9.460  36.311   7.726
 1546POPC   NC322271  15.053  16.617   9.557
 1546POPC   PO422272  15.718  16.717   9.578
 1546POPC   GL122273  15.430  16.839   9.164
 1546POPC   GL222274  15.231  16.552   9.085
 1546POPC   C1A22275  15.243  16.813   8.679
 1546POPC   D2A22276  15.373  16.895   8.253
 1546POPC   C3A22277  15.412  16.711   7.834
 1546POPC   C4A22278  15.293  16.844   7.400
 1546POPC   C1B22279  14.892  16.408   8.875
 1546POPC   C2B22280  14.771  16.469   8.454
 1546POPC   C3B22281  14.994  16.552   8.096
 1546POPC   C4B22282  14.915  16.655   7.704
 1547POPC   NC322283  15.761   2.349   9.603
 1547POPC   PO422284  16.296   2.782   9.588
 1547POPC   GL122285  15.954   2.716   9.241
 1547POPC   GL222286  15.920   3.025   9.061
 1547POPC   C1A22287  15.648   2.695   8.830
 1547POPC   D2A22288  15.810   2.643   8.422
 1547POPC   C3A22289  15.730   2.885   8.073
 1547POPC   C4A22290  16.009   3.036   7.772
 1547POPC   C1B22291  16.180   2.652   8.805
 1547POPC   C2B22292  16.265   2.455   8.384
 1547POPC   C3B22293  16.121   2.558   7.991
 1547POPC   C4B22294  16.276   2.615   7.589
 1548POPC   NC322295   1.837  23.726   9.566
 1548POPC   PO422296   2.529  23.741   9.455
 1548POPC   GL122297   2.098  23.686   9.133
 1548POPC   GL222298   1.775  23.456   9.117
 1548POPC   C1A22299   2.024  23.561   8.710
 1548POPC   D2A22300   2.288  23.621   8.398
 1548POPC   C3A22301   2.109  23.572   8.019
 1548POPC   C4A22302   2.364  23.647   7.625
 1548POPC   C1B22303   1.509  23.461   8.727
 1548POPC   C2B22304   1.622  23.511   8.303
 1548POPC   C3B22305   1.641  23.380   7.889
 1548POPC   C4B22306   1.823  23.654   7.605
 1549POPC   NC322307  16.612  18.711   9.569
 1549POPC   PO422308  17.096  19.192   9.467
 1549POPC   GL122309  16.933  18.878   9.176
 1549POPC   GL222310  16.568  18.918   9.117
 1549POPC   C1A22311  16.983  19.036   8.771
 1549POPC   D2A22312  16.916  19.395   8.531
 1549POPC   C3A22313  16.860  19.221   8.153
 1549POPC   C4A22314  16.977  18.913   7.852
 1549POPC   C1B22315  16.530  19.269   8.865
 1549POPC   C2B22316  16.429  19.232   8.445
 1549POPC   C3B22317  16.352  19.283   8.039
 1549POPC   C4B22318  16.680  19.317   7.695
 1550POPC   NC322319  41.178  29.887   9.640
 1550POPC   PO422320  40.522  30.139   9.547
 1550POPC   GL122321  40.725  30.009   9.157
 1550POPC   GL222322  41.085  29.970   9.141
 1550POPC   C1A22323  40.520  29.918   8.751
 1550POPC   D2A22324  40.557  29.730   8.344
 1550POPC   C3A22325  40.623  29.991   8.002
 1550POPC   C4A22326  40.547  30.014   7.595
 1550POPC   C1B22327  41.015  29.820   8.737
 1550POPC   C2B22328  41.073  29.624   8.376
 1550POPC   C3B22329  41.071  29.786   7.979
 1550POPC   C4B22330  40.893  29.664   7.639
 1551POPC   NC322331   9.124  32.102   9.539
 1551POPC   PO422332   9.258  32.802   9.436
 1551POPC   GL122333   9.098  32.469   9.137
 1551POPC   GL222334   8.886  32.165   9.112
 1551POPC   C1A22335   9.225  32.210   8.751
 1551POPC   D2A22336   9.181  31.930   8.395
 1551POPC   C3A22337   9.176  32.132   8.014
 1551POPC   C4A22338   9.168  32.338   7.630
 1551POPC   C1B22339   8.702  32.289   8.762
 1551POPC   C2B22340   8.717  32.151   8.377
 1551POPC   C3B22341   8.709  32.331   7.999
 1551POPC   C4B22342   8.765  32.045   7.685
 1552POPC   NC322343  14.404  31.365   9.768
 1552POPC   PO422344  13.907  31.802   9.740
 1552POPC   GL122345  14.259  31.577   9.342
 1552POPC   GL222346  14.565  31.372   9.282
 1552POPC   C1A22347  14.282  31.476   8.861
 1552POPC   D2A22348  14.350  31.696   8.457
 1552POPC   C3A22349  14.264  31.562   8.025
 1552POPC   C4A22350  14.311  31.144   7.814
 1552POPC   C1B22351  14.785  31.401   8.878
 1552POPC   C2B22352  14.874  31.475   8.457
 1552POPC   C3B22353  14.734  31.338   8.046
 1552POPC   C4B22354  14.653  31.582   7.684
 1553POPC   NC322355   5.024   9.212   9.612
 1553POPC   PO422356   4.946   8.503   9.549
 1553POPC   GL122357   5.138   8.845   9.280
 1553POPC   GL222358   5.001   9.170   9.124
 1553POPC   C1A22359   5.208   8.818   8.840
 1553POPC   D2A22360   5.025   8.978   8.478
 1553POPC   C3A22361   5.348   9.043   8.180
 1553POPC   C4A22362   5.248   8.939   7.782
 1553POPC   C1B22363   4.828   9.379   8.773
 1553POPC   C2B22364   4.736   9.431   8.354
 1553POPC   C3B22365   4.925   9.280   7.995
 1553POPC   C4B22366   4.842   9.163   7.575
 1554POPC   NC322367  12.412   2.687   9.390
 1554POPC   PO422368  11.820   2.719   9.294
 1554POPC   GL122369  12.088   2.723   8.994
 1554POPC   GL222370  12.271   2.413   9.001
 1554POPC   C1A22371  11.977   2.844   8.615
 1554POPC   D2A22372  11.635   2.817   8.402
 1554POPC   C3A22373  11.804   2.783   7.995
 1554POPC   C4A22374  12.235   2.824   7.816
 1554POPC   C1B22375  12.402   2.559   8.598
 1554POPC   C2B22376  12.414   2.320   8.223
 1554POPC   C3B22377  12.335   2.324   7.774
 1554POPC   C4B22378  12.206   2.567   7.369
 1555POPC   NC322379  39.172  43.367   9.547
 1555POPC   PO422380  39.434  42.705   9.665
 1555POPC   GL122381  39.347  42.890   9.240
 1555POPC   GL222382  39.358  43.249   9.101
 1555POPC   C1A22383  39.138  42.883   8.837
 1555POPC   D2A22384  39.321  43.010   8.452
 1555POPC   C3A22385  39.230  43.056   8.066
 1555POPC   C4A22386  39.131  42.837   7.729
 1555POPC   C1B22387  39.102  43.390   8.769
 1555POPC   C2B22388  39.195  43.568   8.369
 1555POPC   C3B22389  39.311  43.523   7.942
 1555POPC   C4B22390  38.915  43.338   7.756
 1556POPC   NC322391  11.896  33.703   9.711
 1556POPC   PO422392  12.406  33.671   9.340
 1556POPC   GL122393  12.153  33.851   9.110
 1556POPC   GL222394  11.891  33.591   9.174
 1556POPC   C1A22395  12.406  34.019   8.755
 1556POPC   D2A22396  12.294  34.270   8.403
 1556POPC   C3A22397  12.365  34.071   8.011
 1556POPC   C4A22398  12.080  34.128   7.643
 1556POPC   C1B22399  12.107  33.534   8.736
 1556POPC   C2B22400  12.098  33.784   8.397
 1556POPC   C3B22401  11.945  33.789   8.008
 1556POPC   C4B22402  11.706  33.618   7.713
 1557POPC   NC322403  20.882  19.964   9.199
 1557POPC   PO422404  20.525  19.524   9.460
 1557POPC   GL122405  20.461  19.662   9.067
 1557POPC   GL222406  20.406  20.012   9.006
 1557POPC   C1A22407  20.742  19.580   8.689
 1557POPC   D2A22408  20.943  19.591   8.278
 1557POPC   C3A22409  20.722  19.946   8.099
 1557POPC   C4A22410  20.614  20.058   7.679
 1557POPC   C1B22411  20.186  19.780   8.667
 1557POPC   C2B22412  19.973  19.997   8.341
 1557POPC   C3B22413  20.234  20.082   8.052
 1557POPC   C4B22414  20.291  19.705   7.864
 1558POPC   NC322415  28.029   7.210   9.619
 1558POPC   PO422416  28.682   7.218   9.582
 1558POPC   GL122417  28.493   7.390   9.230
 1558POPC   GL222418  28.220   7.192   9.124
 1558POPC   C1A22419  28.369   7.612   8.848
 1558POPC   D2A22420  28.323   7.856   8.459
 1558POPC   C3A22421  28.264   7.577   8.098
 1558POPC   C4A22422  28.286   7.391   7.691
 1558POPC   C1B22423  28.581   7.077   8.827
 1558POPC   C2B22424  28.511   6.902   8.375
 1558POPC   C3B22425  28.325   6.910   7.923
 1558POPC   C4B22426  28.582   7.003   7.532
 1559POPC   NC322427  19.318  32.125   9.479
 1559POPC   PO422428  19.911  32.303   9.698
 1559POPC   GL122429  19.777  32.297   9.265
 1559POPC   GL222430  19.775  31.962   9.258
 1559POPC   C1A22431  19.827  32.209   8.815
 1559POPC   D2A22432  20.048  32.060   8.461
 1559POPC   C3A22433  19.828  32.201   8.104
 1559POPC   C4A22434  19.942  32.356   7.709
 1559POPC   C1B22435  19.431  31.921   8.894
 1559POPC   C2B22436  19.564  31.889   8.450
 1559POPC   C3B22437  19.367  31.858   8.068
 1559POPC   C4B22438  19.494  32.089   7.711
 1560POPC   NC322439  21.684   4.885   9.325
 1560POPC   PO422440  21.168   5.251   9.496
 1560POPC   GL122441  21.321   5.205   9.112
 1560POPC   GL222442  21.607   5.344   9.096
 1560POPC   C1A22443  21.278   4.963   8.749
 1560POPC   D2A22444  21.069   4.995   8.381
 1560POPC   C3A22445  21.327   4.906   8.073
 1560POPC   C4A22446  21.429   4.832   7.698
 1560POPC   C1B22447  21.766   5.141   8.742
 1560POPC   C2B22448  21.710   4.898   8.389
 1560POPC   C3B22449  21.799   5.084   7.951
 1560POPC   C4B22450  21.921   5.312   7.550
 1561POPC   NC322451  12.722   0.066   9.450
 1561POPC   PO422452  13.252   0.421   9.567
 1561POPC   GL122453  12.978   0.402   9.174
 1561POPC   GL222454  12.701   0.594   9.237
 1561POPC   C1A22455  12.945   0.135   8.768
 1561POPC   D2A22456  12.942   0.381   8.355
 1561POPC   C3A22457  12.700   0.273   7.973
 1561POPC   C4A22458  12.821   0.201   7.522
 1561POPC   C1B22459  12.537   0.458   8.820
 1561POPC   C2B22460  12.500   0.681   8.414
 1561POPC   C3B22461  12.591   0.875   8.026
 1561POPC   C4B22462  12.432   0.606   7.673
 1562POPC   NC322463  44.722  29.411   9.217
 1562POPC   PO422464  44.422  29.911   9.516
 1562POPC   GL122465  44.630  30.091   9.149
 1562POPC   GL222466  44.589  29.822   8.989
 1562POPC   C1A22467  44.774  30.155   8.684
 1562POPC   D2A22468  44.719  30.145   8.254
 1562POPC   C3A22469   0.062  30.093   7.972
 1562POPC   C4A22470  44.927  30.162   7.557
 1562POPC   C1B22471  44.444  29.763   8.584
 1562POPC   C2B22472  44.702  29.620   8.245
 1562POPC   C3B22473  44.721  29.766   7.821
 1562POPC   C4B22474  44.397  29.681   7.554
 1563POPC   NC322475  44.876  19.528   9.456
 1563POPC   PO422476   0.631  19.612   9.451
 1563POPC   GL122477   0.524  19.933   9.174
 1563POPC   GL222478   0.184  19.980   9.215
 1563POPC   C1A22479   0.648  20.036   8.759
 1563POPC   D2A22480   0.868  19.805   8.423
 1563POPC   C3A22481   0.796  19.953   8.000
 1563POPC   C4A22482   0.528  19.869   7.663
 1563POPC   C1B22483   0.163  19.850   8.800
 1563POPC   C2B22484   0.362  19.741   8.428
 1563POPC   C3B22485   0.239  19.841   8.057
 1563POPC   C4B22486  44.972  19.929   7.747
 1564POPC   NC322487  30.339  32.239   9.568
 1564POPC   PO422488  31.014  32.207   9.629
 1564POPC   GL122489  30.750  32.213   9.248
 1564POPC   GL222490  30.665  31.863   9.177
 1564POPC   C1A22491  30.831  32.429   8.870
 1564POPC   D2A22492  31.034  32.363   8.462
 1564POPC   C3A22493  30.791  32.322   8.062
 1564POPC   C4A22494  31.012  32.510   7.747
 1564POPC   C1B22495  30.606  31.989   8.734
 1564POPC   C2B22496  30.800  31.902   8.332
 1564POPC   C3B22497  30.778  31.784   7.871
 1564POPC   C4B22498  30.557  31.865   7.479
 1565POPC   NC322499   8.831   0.742   9.565
 1565POPC   PO422500   9.419   0.371   9.575
 1565POPC   GL122501   9.194   0.575   9.243
 1565POPC   GL222502   8.865   0.394   9.132
 1565POPC   C1A22503   9.163   0.602   8.792
 1565POPC   D2A22504   8.914   0.341   8.509
 1565POPC   C3A22505   8.959   0.560   8.127
 1565POPC   C4A22506   9.124   0.505   7.740
 1565POPC   C1B22507   8.555   0.176   8.847
 1565POPC   C2B22508   8.448   0.009   8.444
 1565POPC   C3B22509   8.722   0.105   8.092
 1565POPC   C4B22510   8.867   0.057   7.697
 1566POPC   NC322511  16.937  16.149   9.430
 1566POPC   PO422512  16.807  16.770   9.656
 1566POPC   GL122513  16.982  16.681   9.256
 1566POPC   GL222514  16.662  16.553   9.191
 1566POPC   C1A22515  16.873  16.849   8.830
 1566POPC   D2A22516  16.533  16.789   8.526
 1566POPC   C3A22517  16.565  17.009   8.132
 1566POPC   C4A22518  16.826  16.914   7.756
 1566POPC   C1B22519  16.669  16.353   8.799
 1566POPC   C2B22520  16.479  16.268   8.396
 1566POPC   C3B22521  16.344  16.534   8.084
 1566POPC   C4B22522  16.545  16.488   7.730
 1567POPC   NC322523  35.530  21.398   9.592
 1567POPC   PO422524  34.858  21.272   9.538
 1567POPC   GL122525  35.184  21.231   9.183
 1567POPC   GL222526  35.533  21.392   9.099
 1567POPC   C1A22527  35.236  21.366   8.726
 1567POPC   D2A22528  35.302  21.137   8.399
 1567POPC   C3A22529  35.246  21.364   8.091
 1567POPC   C4A22530  35.429  21.480   7.778
 1567POPC   C1B22531  35.705  21.167   8.711
 1567POPC   C2B22532  35.771  21.190   8.224
 1567POPC   C3B22533  35.859  21.221   7.787
 1567POPC   C4B22534  35.964  21.065   7.388
 1568POPC   NC322535   7.216  13.729   9.601
 1568POPC   PO422536   7.666  13.351   9.496
 1568POPC   GL122537   7.501  13.597   9.199
 1568POPC   GL222538   7.146  13.452   9.165
 1568POPC   C1A22539   7.663  13.877   8.894
 1568POPC   D2A22540   7.519  13.762   8.502
 1568POPC   C3A22541   7.659  13.700   8.102
 1568POPC   C4A22542   7.491  13.785   7.724
 1568POPC   C1B22543   7.284  13.371   8.741
 1568POPC   C2B22544   7.442  13.247   8.327
 1568POPC   C3B22545   7.295  13.367   7.912
 1568POPC   C4B22546   7.161  13.510   7.472
 1569POPC   NC322547  18.898   5.194   9.512
 1569POPC   PO422548  19.335   4.692   9.609
 1569POPC   GL122549  19.383   4.753   9.154
 1569POPC   GL222550  19.254   5.063   9.162
 1569POPC   C1A22551  19.239   4.867   8.698
 1569POPC   D2A22552  18.870   4.765   8.439
 1569POPC   C3A22553  18.854   4.920   8.007
 1569POPC   C4A22554  19.204   5.076   7.746
 1569POPC   C1B22555  18.907   5.231   8.853
 1569POPC   C2B22556  18.771   5.274   8.441
 1569POPC   C3B22557  18.898   5.427   8.044
 1569POPC   C4B22558  18.698   5.314   7.678
 1570POPC   NC322559  27.437  39.908   9.567
 1570POPC   PO422560  28.067  39.834   9.532
 1570POPC   GL122561  27.762  39.809   9.182
 1570POPC   GL222562  27.659  40.142   9.165
 1570POPC   C1A22563  27.518  39.839   8.785
 1570POPC   D2A22564  27.619  40.076   8.392
 1570POPC   C3A22565  27.726  39.845   8.060
 1570POPC   C4A22566  27.561  39.625   7.743
 1570POPC   C1B22567  27.816  40.345   8.794
 1570POPC   C2B22568  27.885  40.532   8.375
 1570POPC   C3B22569  27.890  40.349   7.957
 1570POPC   C4B22570  27.530  40.189   7.735
 1571POPC   NC322571  22.166  35.166   9.535
 1571POPC   PO422572  22.472  35.767   9.552
 1571POPC   GL122573  22.409  35.493   9.187
 1571POPC   GL222574  22.398  35.102   9.104
 1571POPC   C1A22575  22.225  35.531   8.795
 1571POPC   D2A22576  22.035  35.340   8.443
 1571POPC   C3A22577  22.331  35.246   8.163
 1571POPC   C4A22578  22.132  35.392   7.758
 1571POPC   C1B22579  22.071  34.992   8.807
 1571POPC   C2B22580  22.024  34.767   8.409
 1571POPC   C3B22581  21.946  34.963   8.024
 1571POPC   C4B22582  21.794  34.987   7.628
 1572POPC   NC322583   6.353  40.197  10.021
 1572POPC   PO422584   6.761  39.878   9.537
 1572POPC   GL122585   6.886  39.933   9.091
 1572POPC   GL222586   6.875  40.290   9.038
 1572POPC   C1A22587   6.728  39.975   8.660
 1572POPC   D2A22588   6.277  40.033   8.475
 1572POPC   C3A22589   6.376  39.934   8.064
 1572POPC   C4A22590   6.720  39.969   7.763
 1572POPC   C1B22591   6.942  40.618   8.727
 1572POPC   C2B22592   7.181  40.589   8.351
 1572POPC   C3B22593   7.056  40.416   7.916
 1572POPC   C4B22594   6.791  40.428   7.539
 1573POPC   NC322595   5.540   3.088   9.606
 1573POPC   PO422596   6.231   3.008   9.578
 1573POPC   GL122597   5.933   2.859   9.235
 1573POPC   GL222598   5.566   2.898   9.135
 1573POPC   C1A22599   5.884   2.763   8.774
 1573POPC   D2A22600   5.590   2.720   8.409
 1573POPC   C3A22601   5.835   2.559   8.052
 1573POPC   C4A22602   5.908   2.689   7.619
 1573POPC   C1B22603   5.496   3.135   8.739
 1573POPC   C2B22604   5.489   3.269   8.291
 1573POPC   C3B22605   5.634   3.045   7.902
 1573POPC   C4B22606   5.579   3.063   7.432
 1574POPC   NC322607  41.453  33.215   9.567
 1574POPC   PO422608  41.812  32.625   9.436
 1574POPC   GL122609  41.628  32.925   9.174
 1574POPC   GL222610  41.648  32.659   8.938
 1574POPC   C1A22611  41.505  33.147   8.831
 1574POPC   D2A22612  41.341  33.193   8.436
 1574POPC   C3A22613  41.539  33.126   8.049
 1574POPC   C4A22614  41.889  32.990   7.777
 1574POPC   C1B22615  41.410  32.660   8.573
 1574POPC   C2B22616  41.126  32.760   8.267
 1574POPC   C3B22617  41.210  32.765   7.875
 1574POPC   C4B22618  41.151  32.710   7.461
 1575POPC   NC322619   6.153  11.779   9.547
 1575POPC   PO422620   5.688  12.322   9.495
 1575POPC   GL122621   5.837  12.242   9.098
 1575POPC   GL222622   6.163  12.125   9.174
 1575POPC   C1A22623   5.909  12.146   8.645
 1575POPC   D2A22624   5.795  11.877   8.301
 1575POPC   C3A22625   5.546  12.054   7.969
 1575POPC   C4A22626   5.709  12.267   7.649
 1575POPC   C1B22627   6.198  11.779   8.863
 1575POPC   C2B22628   6.316  11.821   8.440
 1575POPC   C3B22629   6.261  11.713   8.037
 1575POPC   C4B22630   5.881  11.677   7.812
 1576POPC   NC322631  32.642  23.849   9.906
 1576POPC   PO422632  32.320  23.439   9.419
 1576POPC   GL122633  32.063  23.676   9.136
 1576POPC   GL222634  32.211  23.486   8.904
 1576POPC   C1A22635  32.010  23.905   8.761
 1576POPC   D2A22636  32.272  23.789   8.426
 1576POPC   C3A22637  32.098  23.786   8.023
 1576POPC   C4A22638  32.031  23.486   7.731
 1576POPC   C1B22639  32.525  23.192   8.817
 1576POPC   C2B22640  32.649  23.334   8.445
 1576POPC   C3B22641  32.417  23.386   8.090
 1576POPC   C4B22642  32.520  23.617   7.719
 1577POPC   NC322643  43.713   3.801   9.556
 1577POPC   PO422644  43.606   3.154   9.667
 1577POPC   GL122645  43.779   3.361   9.255
 1577POPC   GL222646  44.027   3.660   9.179
 1577POPC   C1A22647  43.616   3.483   8.857
 1577POPC   D2A22648  43.552   3.279   8.456
 1577POPC   C3A22649  43.696   3.452   8.052
 1577POPC   C4A22650  43.739   3.452   7.605
 1577POPC   C1B22651  44.113   3.556   8.802
 1577POPC   C2B22652  43.924   3.704   8.454
 1577POPC   C3B22653  44.095   3.789   8.087
 1577POPC   C4B22654  44.179   3.689   7.717
 1578POPC   NC322655   8.647  39.611   9.269
 1578POPC   PO422656   9.119  39.405   9.706
 1578POPC   GL122657   9.147  39.302   9.279
 1578POPC   GL222658   8.987  38.985   9.243
 1578POPC   C1A22659   9.315  39.287   8.855
 1578POPC   D2A22660   9.107  39.451   8.486
 1578POPC   C3A22661   9.222  39.308   8.084
 1578POPC   C4A22662   9.338  39.005   7.783
 1578POPC   C1B22663   8.822  39.105   8.806
 1578POPC   C2B22664   8.760  38.938   8.357
 1578POPC   C3B22665   8.839  39.025   7.895
 1578POPC   C4B22666   8.608  39.248   7.552
 1579POPC   NC322667  11.453  29.633   9.533
 1579POPC   PO422668  11.086  30.190   9.535
 1579POPC   GL122669  11.291  29.997   9.215
 1579POPC   GL222670  11.611  30.120   9.344
 1579POPC   C1A22671  11.331  29.770   8.832
 1579POPC   D2A22672  11.175  29.825   8.409
 1579POPC   C3A22673  11.423  29.747   8.042
 1579POPC   C4A22674  11.238  29.610   7.655
 1579POPC   C1B22675  11.664  30.159   8.894
 1579POPC   C2B22676  11.488  30.258   8.480
 1579POPC   C3B22677  11.619  30.235   8.040
 1579POPC   C4B22678  11.410  30.100   7.666
 1580POPC   NC322679  26.351  23.050   9.570
 1580POPC   PO422680  25.714  22.802   9.418
 1580POPC   GL122681  26.054  22.933   9.142
 1580POPC   GL222682  26.241  22.619   9.138
 1580POPC   C1A22683  26.115  22.929   8.680
 1580POPC   D2A22684  26.009  23.092   8.268
 1580POPC   C3A22685  26.198  22.902   7.916
 1580POPC   C4A22686  26.192  22.866   7.456
 1580POPC   C1B22687  26.027  22.430   8.770
 1580POPC   C2B22688  25.896  22.571   8.351
 1580POPC   C3B22689  25.738  22.642   7.913
 1580POPC   C4B22690  25.709  22.616   7.403
 1581POPC   NC322691  22.950   8.486   9.414
 1581POPC   PO422692  23.373   8.032   9.421
 1581POPC   GL122693  23.090   8.121   9.077
 1581POPC   GL222694  22.704   8.191   9.086
 1581POPC   C1A22695  23.001   8.201   8.676
 1581POPC   D2A22696  22.878   8.006   8.352
 1581POPC   C3A22697  22.929   8.226   7.984
 1581POPC   C4A22698  22.792   8.000   7.646
 1581POPC   C1B22699  22.683   8.585   8.803
 1581POPC   C2B22700  22.743   8.563   8.348
 1581POPC   C3B22701  22.485   8.493   7.972
 1581POPC   C4B22702  22.597   8.437   7.531
 1582POPC   NC322703   6.415  27.332   9.265
 1582POPC   PO422704   6.678  27.985   9.397
 1582POPC   GL122705   6.499  27.808   9.026
 1582POPC   GL222706   6.293  27.565   8.839
 1582POPC   C1A22707   6.541  27.928   8.618
 1582POPC   D2A22708   6.793  27.653   8.468
 1582POPC   C3A22709   6.717  27.725   8.071
 1582POPC   C4A22710   6.994  27.771   7.748
 1582POPC   C1B22711   6.512  27.251   8.591
 1582POPC   C2B22712   6.743  27.212   8.185
 1582POPC   C3B22713   6.697  27.318   7.770
 1582POPC   C4B22714   6.304  27.474   7.677
 1583POPC   NC322715   8.491  10.806   9.580
 1583POPC   PO422716   8.973  11.229   9.427
 1583POPC   GL122717   9.023  11.397   9.072
 1583POPC   GL222718   9.373  11.270   9.098
 1583POPC   C1A22719   8.807  11.229   8.741
 1583POPC   D2A22720   8.838  10.992   8.387
 1583POPC   C3A22721   8.742  11.328   8.114
 1583POPC   C4A22722   8.756  11.257   7.733
 1583POPC   C1B22723   9.416  11.501   8.740
 1583POPC   C2B22724   9.172  11.422   8.385
 1583POPC   C3B22725   9.223  11.191   8.006
 1583POPC   C4B22726   9.239  11.333   7.570
 1584POPC   NC322727  25.688  20.766   9.593
 1584POPC   PO422728  25.154  21.032   9.770
 1584POPC   GL122729  25.184  20.861   9.303
 1584POPC   GL222730  24.850  20.923   9.123
 1584POPC   C1A22731  25.331  20.716   8.842
 1584POPC   D2A22732  25.563  20.574   8.422
 1584POPC   C3A22733  25.393  20.391   8.027
 1584POPC   C4A22734  25.373  20.504   7.571
 1584POPC   C1B22735  24.818  20.714   8.712
 1584POPC   C2B22736  24.972  20.628   8.265
 1584POPC   C3B22737  24.903  20.402   7.852
 1584POPC   C4B22738  24.891  20.525   7.420
 1585POPC   NC322739   6.406  10.003   9.426
 1585POPC   PO422740   6.960   9.753   9.775
 1585POPC   GL122741   6.826   9.792   9.278
 1585POPC   GL222742   6.790   9.559   9.102
 1585POPC   C1A22743   6.568   9.938   8.817
 1585POPC   D2A22744   6.403   9.714   8.418
 1585POPC   C3A22745   6.480   9.915   7.993
 1585POPC   C4A22746   6.685  10.103   7.604
 1585POPC   C1B22747   7.033   9.739   8.802
 1585POPC   C2B22748   7.081   9.661   8.408
 1585POPC   C3B22749   6.792   9.505   8.138
 1585POPC   C4B22750   6.876   9.657   7.766
 1586POPC   NC322751  13.127  24.972   9.403
 1586POPC   PO422752  12.444  24.984   9.488
 1586POPC   GL122753  12.637  25.302   9.172
 1586POPC   GL222754  12.962  25.374   9.107
 1586POPC   C1A22755  12.744  25.144   8.724
 1586POPC   D2A22756  13.021  25.151   8.402
 1586POPC   C3A22757  12.811  25.126   8.076
 1586POPC   C4A22758  12.818  25.260   7.645
 1586POPC   C1B22759  13.239  25.547   8.750
 1586POPC   C2B22760  13.322  25.549   8.302
 1586POPC   C3B22761  13.231  25.334   7.922
 1586POPC   C4B22762  13.210  25.491   7.462
 1587POPC   NC322763  39.122  22.036   9.618
 1587POPC   PO422764  39.441  22.588   9.843
 1587POPC   GL122765  39.489  22.296   9.358
 1587POPC   GL222766  39.145  22.205   9.149
 1587POPC   C1A22767  39.545  22.134   8.856
 1587POPC   D2A22768  39.313  22.292   8.507
 1587POPC   C3A22769  39.364  22.195   8.079
 1587POPC   C4A22770  39.296  22.453   7.735
 1587POPC   C1B22771  39.011  21.909   8.820
 1587POPC   C2B22772  39.020  21.900   8.377
 1587POPC   C3B22773  38.847  22.054   8.031
 1587POPC   C4B22774  38.917  21.914   7.675
 1588POPC   NC322775  18.636  29.309   9.747
 1588POPC   PO422776  19.079  28.862   9.746
 1588POPC   GL122777  19.066  29.089   9.300
 1588POPC   GL222778  19.407  29.257   9.181
 1588POPC   C1A22779  19.117  29.036   8.823
 1588POPC   D2A22780  19.015  29.250   8.419
 1588POPC   C3A22781  19.100  29.086   7.990
 1588POPC   C4A22782  18.771  29.181   7.678
 1588POPC   C1B22783  19.279  29.538   8.791
 1588POPC   C2B22784  19.185  29.748   8.372
 1588POPC   C3B22785  19.188  29.589   7.948
 1588POPC   C4B22786  19.116  29.786   7.564
 1589POPC   NC322787  35.322  12.383   9.927
 1589POPC   PO422788  35.351  12.918   9.502
 1589POPC   GL122789  35.517  12.932   9.114
 1589POPC   GL222790  35.576  12.583   9.184
 1589POPC   C1A22791  35.384  12.950   8.677
 1589POPC   D2A22792  35.124  12.645   8.462
 1589POPC   C3A22793  34.991  12.882   8.119
 1589POPC   C4A22794  35.281  13.099   7.827
 1589POPC   C1B22795  35.531  12.477   8.796
 1589POPC   C2B22796  35.673  12.519   8.395
 1589POPC   C3B22797  35.464  12.674   8.078
 1589POPC   C4B22798  35.538  12.683   7.688
 1590POPC   NC322799  16.444   3.996   9.548
 1590POPC   PO422800  16.898   4.524   9.534
 1590POPC   GL122801  16.618   4.379   9.230
 1590POPC   GL222802  16.861   4.090   9.197
 1590POPC   C1A22803  16.469   4.371   8.801
 1590POPC   D2A22804  16.347   4.164   8.415
 1590POPC   C3A22805  16.633   4.320   8.109
 1590POPC   C4A22806  16.582   4.558   7.732
 1590POPC   C1B22807  16.988   4.402   8.887
 1590POPC   C2B22808  17.046   4.372   8.470
 1590POPC   C3B22809  17.202   4.252   8.092
 1590POPC   C4B22810  16.983   4.215   7.739
 1591POPC   NC322811   7.212  22.431   9.604
 1591POPC   PO422812   7.448  23.107   9.501
 1591POPC   GL122813   7.569  23.011   9.085
 1591POPC   GL222814   7.564  22.683   9.142
 1591POPC   C1A22815   7.342  22.903   8.653
 1591POPC   D2A22816   7.354  22.774   8.219
 1591POPC   C3A22817   7.041  22.922   7.948
 1591POPC   C4A22818   7.044  23.352   7.891
 1591POPC   C1B22819   7.787  22.691   8.744
 1591POPC   C2B22820   7.879  22.870   8.369
 1591POPC   C3B22821   7.798  23.017   7.982
 1591POPC   C4B22822   7.517  22.838   7.704
 1592POPC   NC322823   4.700   8.126   9.457
 1592POPC   PO422824   5.286   7.811   9.450
 1592POPC   GL122825   5.096   8.046   9.106
 1592POPC   GL222826   5.159   8.379   9.099
 1592POPC   C1A22827   5.239   8.100   8.686
 1592POPC   D2A22828   5.325   7.913   8.331
 1592POPC   C3A22829   5.378   8.141   7.990
 1592POPC   C4A22830   5.416   8.015   7.522
 1592POPC   C1B22831   4.856   8.432   8.822
 1592POPC   C2B22832   4.944   8.399   8.400
 1592POPC   C3B22833   5.063   8.571   8.063
 1592POPC   C4B22834   4.815   8.668   7.737
 1593POPC   NC322835   8.518  14.556   9.437
 1593POPC   PO422836   9.126  14.206   9.557
 1593POPC   GL122837   9.020  14.406   9.194
 1593POPC   GL222838   8.739  14.191   9.161
 1593POPC   C1A22839   8.952  14.391   8.745
 1593POPC   D2A22840   8.769  14.599   8.395
 1593POPC   C3A22841   8.934  14.400   8.017
 1593POPC   C4A22842   8.827  14.531   7.610
 1593POPC   C1B22843   8.607  13.981   8.825
 1593POPC   C2B22844   8.596  14.117   8.420
 1593POPC   C3B22845   8.641  13.949   8.051
 1593POPC   C4B22846   8.875  13.977   7.704
 1594POPC   NC322847   1.111  44.868   9.454
 1594POPC   PO422848   1.420  44.400   9.772
 1594POPC   GL122849   1.490  44.499   9.265
 1594POPC   GL222850   1.325  44.759   9.021
 1594POPC   C1A22851   1.414  44.305   8.835
 1594POPC   D2A22852   1.239  44.519   8.503
 1594POPC   C3A22853   1.244  44.389   8.085
 1594POPC   C4A22854   1.169  44.613   7.680
 1594POPC   C1B22855   1.243   0.021   8.637
 1594POPC   C2B22856   1.217  44.932   8.174
 1594POPC   C3B22857   1.102   0.107   7.768
 1594POPC   C4B22858   0.945  44.959   7.355
 1595POPC   NC322859  38.434  38.825   9.842
 1595POPC   PO422860  38.894  38.447   9.542
 1595POPC   GL122861  38.636  38.344   9.190
 1595POPC   GL222862  38.638  38.672   9.079
 1595POPC   C1A22863  38.350  38.171   8.850
 1595POPC   D2A22864  38.111  38.164   8.433
 1595POPC   C3A22865  38.276  38.340   8.020
 1595POPC   C4A22866  38.528  38.675   7.812
 1595POPC   C1B22867  38.801  38.439   8.727
 1595POPC   C2B22868  38.681  38.482   8.297
 1595POPC   C3B22869  38.853  38.288   7.947
 1595POPC   C4B22870  39.033  38.576   7.676
 1596POPC   NC322871  30.426   3.766   9.390
 1596POPC   PO422872  31.082   3.418   9.502
 1596POPC   GL122873  30.847   3.568   9.158
 1596POPC   GL222874  30.552   3.382   9.080
 1596POPC   C1A22875  30.790   3.693   8.724
 1596POPC   D2A22876  30.788   3.489   8.316
 1596POPC   C3A22877  30.633   3.680   7.965
 1596POPC   C4A22878  30.651   3.721   7.517
 1596POPC   C1B22879  30.355   3.397   8.674
 1596POPC   C2B22880  30.258   3.516   8.253
 1596POPC   C3B22881  30.306   3.239   7.877
 1596POPC   C4B22882  30.385   3.195   7.401
 1597POPC   NC322883  10.921  40.161   9.621
 1597POPC   PO422884  11.396  39.761   9.739
 1597POPC   GL122885  11.144  39.869   9.285
 1597POPC   GL222886  11.222  40.237   9.203
 1597POPC   C1A22887  11.068  39.712   8.823
 1597POPC   D2A22888  11.302  39.621   8.404
 1597POPC   C3A22889  11.284  39.725   7.948
 1597POPC   C4A22890  11.573  39.774   7.548
 1597POPC   C1B22891  11.020  40.222   8.789
 1597POPC   C2B22892  10.913  39.992   8.389
 1597POPC   C3B22893  10.993  40.132   7.950
 1597POPC   C4B22894  11.474  40.188   7.888
 1598POPC   NC322895  10.617   3.328   9.363
 1598POPC   PO422896  10.505   3.869   9.663
 1598POPC   GL122897  10.334   3.774   9.230
 1598POPC   GL222898  10.161   3.448   9.116
 1598POPC   C1A22899  10.436   3.849   8.792
 1598POPC   D2A22900  10.338   3.967   8.358
 1598POPC   C3A22901  10.461   3.671   8.051
 1598POPC   C4A22902  10.628   3.579   7.640
 1598POPC   C1B22903   9.881   3.207   8.762
 1598POPC   C2B22904  10.056   3.150   8.338
 1598POPC   C3B22905  10.264   3.201   7.907
 1598POPC   C4B22906  10.366   3.176   7.462
 1599POPC   NC322907  40.045  38.849   9.365
 1599POPC   PO422908  39.884  38.314   9.617
 1599POPC   GL122909  39.914  38.297   9.178
 1599POPC   GL222910  39.685  38.542   9.113
 1599POPC   C1A22911  40.122  38.181   8.781
 1599POPC   D2A22912  40.315  38.253   8.389
 1599POPC   C3A22913  40.164  38.183   7.986
 1599POPC   C4A22914  40.416  38.339   7.687
 1599POPC   C1B22915  39.986  38.672   8.769
 1599POPC   C2B22916  40.199  38.805   8.407
 1599POPC   C3B22917  40.058  38.691   8.010
 1599POPC   C4B22918  39.902  38.501   7.643
 1600POPC   NC322919  23.439   7.575   9.503
 1600POPC   PO422920  22.896   7.188   9.666
 1600POPC   GL122921  22.859   7.151   9.232
 1600POPC   GL222922  23.164   7.317   9.136
 1600POPC   C1A22923  22.680   7.301   8.870
 1600POPC   D2A22924  22.647   7.556   8.497
 1600POPC   C3A22925  22.699   7.413   8.075
 1600POPC   C4A22926  22.983   7.249   7.780
 1600POPC   C1B22927  23.068   7.639   8.799
 1600POPC   C2B22928  23.127   7.537   8.360
 1600POPC   C3B22929  23.101   7.728   7.945
 1600POPC   C4B22930  23.116   7.637   7.489
 1601POPC   NC322931  34.535   9.297   9.452
 1601POPC   PO422932  34.378   8.636   9.592
 1601POPC   GL122933  34.261   8.893   9.250
 1601POPC   GL222934  34.604   8.945   9.091
 1601POPC   C1A22935  34.166   8.934   8.809
 1601POPC   D2A22936  34.331   9.116   8.398
 1601POPC   C3A22937  34.165   9.223   8.009
 1601POPC   C4A22938  34.252   9.026   7.627
 1601POPC   C1B22939  34.536   9.314   8.814
 1601POPC   C2B22940  34.756   9.489   8.479
 1601POPC   C3B22941  34.679   9.365   8.039
 1601POPC   C4B22942  34.727   8.973   7.800
 1602POPC   NC322943   0.542   0.122   9.612
 1602POPC   PO422944   0.243  44.634   9.425
 1602POPC   GL122945   0.630  44.777   9.206
 1602POPC   GL222946   0.612   0.075   9.065
 1602POPC   C1A22947   0.851  44.698   8.791
 1602POPC   D2A22948   0.788  44.739   8.343
 1602POPC   C3A22949   0.735  44.485   7.975
 1602POPC   C4A22950   0.312  44.441   7.800
 1602POPC   C1B22951   0.364  44.815   8.709
 1602POPC   C2B22952   0.297  44.844   8.218
 1602POPC   C3B22953   0.519  44.918   7.793
 1602POPC   C4B22954   0.474   0.150   7.410
 1603POPC   NC322955  18.697  32.106   9.540
 1603POPC   PO422956  18.073  32.104   9.575
 1603POPC   GL122957  18.244  32.294   9.210
 1603POPC   GL222958  18.473  32.524   9.348
 1603POPC   C1A22959  18.401  32.166   8.781
 1603POPC   D2A22960  18.400  32.222   8.317
 1603POPC   C3A22961  18.052  32.310   8.029
 1603POPC   C4A22962  18.130  32.068   7.623
 1603POPC   C1B22963  18.591  32.622   8.919
 1603POPC   C2B22964  18.785  32.469   8.550
 1603POPC   C3B22965  18.767  32.519   8.109
 1603POPC   C4B22966  18.483  32.402   7.808
 1604POPC   NC322967  34.556   2.846   9.535
 1604POPC   PO422968  34.750   2.327   9.254
 1604POPC   GL122969  34.593   2.667   9.007
 1604POPC   GL222970  34.584   3.036   9.074
 1604POPC   C1A22971  34.604   2.781   8.561
 1604POPC   D2A22972  34.302   2.816   8.211
 1604POPC   C3A22973  34.357   2.607   7.799
 1604POPC   C4A22974  34.406   2.668   7.325
 1604POPC   C1B22975  34.777   3.243   8.744
 1604POPC   C2B22976  34.861   3.175   8.346
 1604POPC   C3B22977  34.710   3.125   7.972
 1604POPC   C4B22978  34.771   2.842   7.646
 1605POPC   NC322979   5.177  10.185   9.438
 1605POPC   PO422980   5.307  10.838   9.389
 1605POPC   GL122981   5.216  10.578   9.072
 1605POPC   GL222982   4.846  10.557   9.111
 1605POPC   C1A22983   5.341  10.657   8.659
 1605POPC   D2A22984   5.297  10.890   8.288
 1605POPC   C3A22985   5.405  10.635   7.915
 1605POPC   C4A22986   5.258  10.473   7.507
 1605POPC   C1B22987   4.917  10.378   8.692
 1605POPC   C2B22988   5.047  10.431   8.254
 1605POPC   C3B22989   4.989  10.227   7.846
 1605POPC   C4B22990   4.926  10.088   7.396
 1606POPC   NC322991  20.973  13.534   9.492
 1606POPC   PO422992  21.540  13.896   9.415
 1606POPC   GL122993  21.629  13.606   9.063
 1606POPC   GL222994  21.282  13.526   9.076
 1606POPC   C1A22995  21.520  13.613   8.621
 1606POPC   D2A22996  21.150  13.817   8.425
 1606POPC   C3A22997  21.234  13.910   8.016
 1606POPC   C4A22998  21.470  13.637   7.759
 1606POPC   C1B22999  20.910  13.579   8.829
 1606POPC   C2B23000  20.817  13.432   8.437
 1606POPC   C3B23001  21.021  13.408   8.060
 1606POPC   C4B23002  21.028  13.384   7.660
 1607POPC   NC323003  22.530   1.708   9.494
 1607POPC   PO423004  23.032   2.159   9.584
 1607POPC   GL123005  23.005   1.950   9.201
 1607POPC   GL223006  22.692   2.037   9.137
 1607POPC   C1A23007  23.016   2.002   8.753
 1607POPC   D2A23008  22.801   2.166   8.405
 1607POPC   C3A23009  23.132   2.250   8.100
 1607POPC   C4A23010  23.249   2.005   7.750
 1607POPC   C1B23011  22.493   1.879   8.762
 1607POPC   C2B23012  22.527   1.709   8.339
 1607POPC   C3B23013  22.828   1.813   8.018
 1607POPC   C4B23014  22.760   2.176   7.735
 1608POPC   NC323015  15.854  33.481   9.509
 1608POPC   PO423016  16.156  34.024   9.620
 1608POPC   GL123017  16.114  33.877   9.213
 1608POPC   GL223018  16.262  33.533   9.200
 1608POPC   C1A23019  16.044  34.045   8.788
 1608POPC   D2A23020  16.155  33.854   8.389
 1608POPC   C3A23021  16.345  34.027   8.013
 1608POPC   C4A23022  16.302  33.875   7.576
 1608POPC   C1B23023  15.964  33.537   8.844
 1608POPC   C2B23024  15.777  33.506   8.445
 1608POPC   C3B23025  15.896  33.582   8.045
 1608POPC   C4B23026  15.691  33.908   7.811
 1609POPC   NC323027  43.740  36.950   9.588
 1609POPC   PO423028  44.259  37.275   9.441
 1609POPC   GL123029  43.971  37.140   9.172
 1609POPC   GL223030  44.048  37.497   9.045
 1609POPC   C1A23031  43.748  36.743   8.958
 1609POPC   D2A23032  43.547  36.720   8.537
 1609POPC   C3A23033  43.799  36.631   8.135
 1609POPC   C4A23034  43.679  36.749   7.702
 1609POPC   C1B23035  44.077  37.235   8.696
 1609POPC   C2B23036  43.889  37.090   8.363
 1609POPC   C3B23037  43.968  37.082   7.954
 1609POPC   C4B23038  44.196  36.740   7.785
 1610POPC   NC323039  13.505  24.325   9.549
 1610POPC   PO423040  13.585  24.902   9.412
 1610POPC   GL123041  13.416  24.639   9.106
 1610POPC   GL223042  13.377  24.276   9.054
 1610POPC   C1A23043  13.599  24.629   8.712
 1610POPC   D2A23044  13.474  24.616   8.307
 1610POPC   C3A23045  13.777  24.547   7.970
 1610POPC   C4A23046  13.548  24.582   7.590
 1610POPC   C1B23047  13.761  24.168   8.845
 1610POPC   C2B23048  13.709  24.170   8.385
 1610POPC   C3B23049  13.558  24.100   7.948
 1610POPC   C4B23050  13.836  24.189   7.555
 1611POPC   NC323051  33.077   6.013   9.642
 1611POPC   PO423052  32.641   5.534   9.523
 1611POPC   GL123053  32.952   5.737   9.213
 1611POPC   GL223054  32.855   6.100   9.202
 1611POPC   C1A23055  33.176   5.932   8.843
 1611POPC   D2A23056  33.037   6.032   8.411
 1611POPC   C3A23057  32.986   5.668   8.125
 1611POPC   C4A23058  33.180   5.577   7.730
 1611POPC   C1B23059  32.736   6.249   8.804
 1611POPC   C2B23060  32.544   6.209   8.386
 1611POPC   C3B23061  32.704   6.104   7.997
 1611POPC   C4B23062  33.125   6.088   7.822
 1612POPC   NC323063   6.997  39.430   9.545
 1612POPC   PO423064   6.448  38.935   9.474
 1612POPC   GL123065   6.800  39.079   9.207
 1612POPC   GL223066   6.689  39.426   9.151
 1612POPC   C1A23067   7.011  39.182   8.816
 1612POPC   D2A23068   6.809  39.199   8.426
 1612POPC   C3A23069   6.981  39.130   7.994
 1612POPC   C4A23070   6.757  39.248   7.590
 1612POPC   C1B23071   6.429  39.634   8.870
 1612POPC   C2B23072   6.354  39.528   8.448
 1612POPC   C3B23073   6.535  39.417   8.052
 1612POPC   C4B23074   6.364  39.565   7.695
 1613POPC   NC323075  15.619   6.376   9.454
 1613POPC   PO423076  14.992   6.346   9.784
 1613POPC   GL123077  14.972   6.484   9.295
 1613POPC   GL223078  15.017   6.835   9.287
 1613POPC   C1A23079  14.870   6.630   8.813
 1613POPC   D2A23080  14.895   6.475   8.354
 1613POPC   C3A23081  14.893   6.499   7.877
 1613POPC   C4A23082  14.935   6.261   7.477
 1613POPC   C1B23083  15.319   6.800   8.923
 1613POPC   C2B23084  15.217   6.877   8.486
 1613POPC   C3B23085  15.278   6.814   8.038
 1613POPC   C4B23086  15.502   6.814   7.653
 1614POPC   NC323087  41.924  35.746   9.462
 1614POPC   PO423088  41.399  36.256   9.588
 1614POPC   GL123089  41.492  36.022   9.212
 1614POPC   GL223090  41.843  36.073   9.072
 1614POPC   C1A23091  41.386  36.206   8.802
 1614POPC   D2A23092  41.412  36.462   8.469
 1614POPC   C3A23093  41.223  36.277   8.109
 1614POPC   C4A23094  41.236  36.039   7.744
 1614POPC   C1B23095  41.994  36.463   8.844
 1614POPC   C2B23096  41.931  36.541   8.413
 1614POPC   C3B23097  41.750  36.240   8.144
 1614POPC   C4B23098  41.797  36.152   7.742
 1615POPC   NC323099   9.578   8.656   9.530
 1615POPC   PO423100   9.403   9.305   9.525
 1615POPC   GL123101   9.702   9.255   9.203
 1615POPC   GL223102   9.745   8.909   9.105
 1615POPC   C1A23103   9.917   9.327   8.826
 1615POPC   D2A23104   9.878   9.063   8.476
 1615POPC   C3A23105   9.948   9.251   8.085
 1615POPC   C4A23106   9.827   9.051   7.707
 1615POPC   C1B23107   9.726   8.633   8.758
 1615POPC   C2B23108   9.996   8.554   8.438
 1615POPC   C3B23109   9.905   8.695   8.057
 1615POPC   C4B23110   9.511   8.660   7.834
 1616POPC   NC323111   6.208  10.728   9.531
 1616POPC   PO423112   5.966  10.057   9.583
 1616POPC   GL123113   5.971  10.305   9.217
 1616POPC   GL223114   5.746  10.578   9.279
 1616POPC   C1A23115   5.660  10.288   8.858
 1616POPC   D2A23116   5.703  10.397   8.418
 1616POPC   C3A23117   5.931  10.270   8.058
 1616POPC   C4A23118   5.756  10.316   7.664
 1616POPC   C1B23119   5.798  10.785   8.886
 1616POPC   C2B23120   6.022  10.834   8.511
 1616POPC   C3B23121   5.797  10.863   8.194
 1616POPC   C4B23122   5.941  10.740   7.845
 1617POPC   NC323123  17.846  31.705   9.609
 1617POPC   PO423124  18.496  31.342   9.698
 1617POPC   GL123125  18.386  31.479   9.269
 1617POPC   GL223126  18.366  31.805   9.288
 1617POPC   C1A23127  18.451  31.628   8.816
 1617POPC   D2A23128  18.546  31.715   8.372
 1617POPC   C3A23129  18.444  31.420   8.000
 1617POPC   C4A23130  18.361  31.185   7.600
 1617POPC   C1B23131  18.025  31.862   8.968
 1617POPC   C2B23132  18.005  31.960   8.519
 1617POPC   C3B23133  18.118  31.823   8.101
 1617POPC   C4B23134  17.982  31.567   7.775
 1618POPC   NC323135  43.615   6.269   9.503
 1618POPC   PO423136  43.847   6.924   9.465
 1618POPC   GL123137  43.897   6.591   9.170
 1618POPC   GL223138  43.570   6.639   9.093
 1618POPC   C1A23139  43.970   6.409   8.750
 1618POPC   D2A23140  44.152   6.547   8.346
 1618POPC   C3A23141  44.010   6.347   7.989
 1618POPC   C4A23142  43.861   6.465   7.594
 1618POPC   C1B23143  43.467   6.515   8.670
 1618POPC   C2B23144  43.642   6.618   8.290
 1618POPC   C3B23145  43.502   6.567   7.930
 1618POPC   C4B23146  43.163   6.338   7.820
 1619POPC   NC323147   8.717  19.966   9.499
 1619POPC   PO423148   9.396  20.268   9.520
 1619POPC   GL123149   9.108  20.100   9.197
 1619POPC   GL223150   9.128  19.712   9.232
 1619POPC   C1A23151   8.760  20.191   8.848
 1619POPC   D2A23152   8.575  20.191   8.400
 1619POPC   C3A23153   8.873  20.118   8.057
 1619POPC   C4A23154   9.268  20.015   7.833
 1619POPC   C1B23155   9.143  19.814   8.784
 1619POPC   C2B23156   8.886  19.750   8.429
 1619POPC   C3B23157   8.956  19.568   8.039
 1619POPC   C4B23158   9.241  19.525   7.738
 1620POPC   NC323159  12.252   4.452   9.504
 1620POPC   PO423160  11.830   3.908   9.434
 1620POPC   GL123161  11.837   4.227   9.144
 1620POPC   GL223162  11.898   4.578   9.167
 1620POPC   C1A23163  11.775   4.325   8.731
 1620POPC   D2A23164  12.073   4.121   8.515
 1620POPC   C3A23165  12.047   4.207   8.113
 1620POPC   C4A23166  12.249   4.072   7.711
 1620POPC   C1B23167  12.234   4.534   8.829
 1620POPC   C2B23168  12.356   4.577   8.368
 1620POPC   C3B23169  12.344   4.538   7.891
 1620POPC   C4B23170  12.062   4.476   7.491
 1621POPC   NC323171  18.543  15.951   9.569
 1621POPC   PO423172  18.006  16.391   9.507
 1621POPC   GL123173  18.246  16.184   9.194
 1621POPC   GL223174  18.590  16.307   9.225
 1621POPC   C1A23175  18.223  15.850   8.887
 1621POPC   D2A23176  18.439  15.827   8.498
 1621POPC   C3A23177  18.173  15.975   8.236
 1621POPC   C4A23178  18.019  15.873   7.890
 1621POPC   C1B23179  18.629  16.164   8.816
 1621POPC   C2B23180  18.644  16.306   8.380
 1621POPC   C3B23181  18.608  16.047   7.996
 1621POPC   C4B23182  18.357  16.229   7.707
 1622POPC   NC323183  37.232   3.889   9.500
 1622POPC   PO423184  37.082   3.233   9.418
 1622POPC   GL123185  36.906   3.299   9.052
 1622POPC   GL223186  36.870   3.636   9.102
 1622POPC   C1A23187  36.906   3.490   8.625
 1622POPC   D2A23188  37.149   3.507   8.263
 1622POPC   C3A23189  36.921   3.320   7.930
 1622POPC   C4A23190  36.604   3.177   7.615
 1622POPC   C1B23191  37.128   3.906   8.837
 1622POPC   C2B23192  36.989   3.988   8.432
 1622POPC   C3B23193  36.706   3.753   8.154
 1622POPC   C4B23194  36.597   3.842   7.722
 1623POPC   NC323195  33.137  26.523   9.545
 1623POPC   PO423196  33.181  27.138   9.549
 1623POPC   GL123197  32.920  26.965   9.222
 1623POPC   GL223198  32.713  26.633   9.241
 1623POPC   C1A23199  32.896  27.123   8.807
 1623POPC   D2A23200  33.183  27.206   8.454
 1623POPC   C3A23201  33.074  27.025   8.037
 1623POPC   C4A23202  33.027  27.183   7.598
 1623POPC   C1B23203  32.935  26.612   8.835
 1623POPC   C2B23204  32.826  26.770   8.417
 1623POPC   C3B23205  32.832  26.576   7.992
 1623POPC   C4B23206  33.132  26.580   7.650
 1624POPC   NC323207   5.772   9.608   9.606
 1624POPC   PO423208   6.379   9.499   9.401
 1624POPC   GL123209   6.048   9.760   9.157
 1624POPC   GL223210   5.682   9.879   9.188
 1624POPC   C1A23211   5.982   9.907   8.741
 1624POPC   D2A23212   5.722   9.801   8.386
 1624POPC   C3A23213   5.959   9.761   8.014
 1624POPC   C4A23214   6.133   9.947   7.619
 1624POPC   C1B23215   5.426   9.825   8.837
 1624POPC   C2B23216   5.270  10.036   8.486
 1624POPC   C3B23217   5.433  10.098   8.062
 1624POPC   C4B23218   5.397   9.988   7.627
 1625POPC   NC323219  14.919  33.830   9.519
 1625POPC   PO423220  15.401  33.433   9.531
 1625POPC   GL123221  15.354  33.679   9.223
 1625POPC   GL223222  15.041  33.613   9.080
 1625POPC   C1A23223  15.485  33.719   8.828
 1625POPC   D2A23224  15.203  33.714   8.532
 1625POPC   C3A23225  15.322  33.795   8.146
 1625POPC   C4A23226  15.112  33.783   7.772
 1625POPC   C1B23227  14.774  33.778   8.790
 1625POPC   C2B23228  14.794  34.021   8.439
 1625POPC   C3B23229  14.762  34.081   8.011
 1625POPC   C4B23230  14.465  34.087   7.684
 1626POPC   NC323231   3.114  29.617   9.423
 1626POPC   PO423232   2.545  30.009   9.408
 1626POPC   GL123233   2.905  30.031   9.155
 1626POPC   GL223234   3.184  30.272   9.238
 1626POPC   C1A23235   2.819  29.831   8.773
 1626POPC   D2A23236   2.586  29.737   8.410
 1626POPC   C3A23237   2.734  29.897   8.001
 1626POPC   C4A23238   3.010  30.031   7.641
 1626POPC   C1B23239   3.229  30.207   8.798
 1626POPC   C2B23240   2.983  30.155   8.417
 1626POPC   C3B23241   3.165  30.283   8.050
 1626POPC   C4B23242   3.321  30.436   7.688
 1627POPC   NC323243  43.377  37.881   9.633
 1627POPC   PO423244  42.743  37.685   9.550
 1627POPC   GL123245  43.080  37.786   9.221
 1627POPC   GL223246  43.261  38.127   9.192
 1627POPC   C1A23247  43.174  37.543   8.843
 1627POPC   D2A23248  42.917  37.406   8.486
 1627POPC   C3A23249  43.139  37.442   8.103
 1627POPC   C4A23250  43.091  37.509   7.706
 1627POPC   C1B23251  43.379  38.011   8.799
 1627POPC   C2B23252  43.320  37.803   8.404
 1627POPC   C3B23253  43.217  37.949   7.978
 1627POPC   C4B23254  43.409  37.867   7.555
 1628POPC   NC323255  24.932  42.599   9.434
 1628POPC   PO423256  25.507  42.178   9.512
 1628POPC   GL123257  25.234  42.201   9.148
 1628POPC   GL223258  25.277  42.551   9.055
 1628POPC   C1A23259  25.263  42.195   8.681
 1628POPC   D2A23260  25.360  42.375   8.248
 1628POPC   C3A23261  25.348  42.183   7.810
 1628POPC   C4A23262  25.527  42.139   7.362
 1628POPC   C1B23263  24.940  42.596   8.741
 1628POPC   C2B23264  24.857  42.421   8.322
 1628POPC   C3B23265  24.949  42.502   7.885
 1628POPC   C4B23266  24.916  42.176   7.543
 1629POPC   NC323267  11.165   9.015   9.446
 1629POPC   PO423268  11.771   9.376   9.504
 1629POPC   GL123269  11.554   9.108   9.144
 1629POPC   GL223270  11.585   8.735   9.198
 1629POPC   C1A23271  11.181   9.117   8.810
 1629POPC   D2A23272  10.972   9.272   8.425
 1629POPC   C3A23273  11.088   9.004   8.087
 1629POPC   C4A23274  11.425   9.002   7.812
 1629POPC   C1B23275  11.508   8.720   8.739
 1629POPC   C2B23276  11.588   8.841   8.291
 1629POPC   C3B23277  11.633   8.565   7.920
 1629POPC   C4B23278  11.514   8.523   7.463
 1630POPC   NC323279   4.551  31.987   9.411
 1630POPC   PO423280   4.369  31.453   9.700
 1630POPC   GL123281   4.387  31.519   9.253
 1630POPC   GL223282   4.110  31.779   9.201
 1630POPC   C1A23283   4.433  31.628   8.801
 1630POPC   D2A23284   4.210  31.537   8.408
 1630POPC   C3A23285   4.389  31.391   7.982
 1630POPC   C4A23286   4.147  31.242   7.582
 1630POPC   C1B23287   4.024  31.939   8.783
 1630POPC   C2B23288   4.261  32.077   8.427
 1630POPC   C3B23289   4.242  31.889   8.015
 1630POPC   C4B23290   4.249  31.741   7.606
 1631POPC   NC323291  16.468  33.685   9.654
 1631POPC   PO423292  16.875  34.123   9.392
 1631POPC   GL123293  16.619  33.914   9.144
 1631POPC   GL223294  16.488  34.195   8.973
 1631POPC   C1A23295  16.463  33.722   8.771
 1631POPC   D2A23296  16.643  33.696   8.357
 1631POPC   C3A23297  16.435  33.523   7.999
 1631POPC   C4A23298  16.747  33.647   7.703
 1631POPC   C1B23299  16.568  34.200   8.550
 1631POPC   C2B23300  16.937  34.256   8.317
 1631POPC   C3B23301  16.936  34.083   7.917
 1631POPC   C4B23302  16.903  34.112   7.466
 1632POPC   NC323303  44.155  38.688   9.531
 1632POPC   PO423304  43.566  38.296   9.559
 1632POPC   GL123305  43.731  38.460   9.186
 1632POPC   GL223306  44.086  38.378   9.131
 1632POPC   C1A23307  43.690  38.414   8.750
 1632POPC   D2A23308  43.655  38.588   8.347
 1632POPC   C3A23309  43.892  38.414   7.982
 1632POPC   C4A23310  43.692  38.305   7.567
 1632POPC   C1B23311  44.042  38.761   8.871
 1632POPC   C2B23312  44.006  38.923   8.473
 1632POPC   C3B23313  43.906  38.916   8.050
 1632POPC   C4B23314  43.885  38.774   7.608
 1633POPC   NC323315  41.942  27.466   9.594
 1633POPC   PO423316  41.389  27.832   9.419
 1633POPC   GL123317  41.659  27.534   9.172
 1633POPC   GL223318  41.389  27.521   8.951
 1633POPC   C1A23319  41.813  27.285   8.778
 1633POPC   D2A23320  41.674  27.258   8.339
 1633POPC   C3A23321  41.776  27.615   8.100
 1633POPC   C4A23322  42.035  27.672   7.751
 1633POPC   C1B23323  41.099  27.514   8.638
 1633POPC   C2B23324  41.274  27.620   8.281
 1633POPC   C3B23325  41.314  27.457   7.915
 1633POPC   C4B23326  41.507  27.755   7.684
 1634POPC   NC323327   5.976   0.101   9.709
 1634POPC   PO423328   5.684   0.571   9.402
 1634POPC   GL123329   5.742   0.707   9.043
 1634POPC   GL223330   5.974   0.476   8.857
 1634POPC   C1A23331   5.545   0.682   8.691
 1634POPC   D2A23332   5.610   0.395   8.431
 1634POPC   C3A23333   5.959   0.540   8.232
 1634POPC   C4A23334   5.961   0.729   7.826
 1634POPC   C1B23335   6.240   0.162   8.634
 1634POPC   C2B23336   6.335   0.026   8.236
 1634POPC   C3B23337   6.245   0.303   7.891
 1634POPC   C4B23338   6.057   0.357   7.474
 1635POPC   NC323339  10.169   6.464   9.775
 1635POPC   PO423340  10.644   6.805   9.603
 1635POPC   GL123341  10.648   6.512   9.237
 1635POPC   GL223342  10.353   6.448   9.139
 1635POPC   C1A23343  10.718   6.271   8.832
 1635POPC   D2A23344  10.536   6.178   8.439
 1635POPC   C3A23345  10.734   6.392   8.075
 1635POPC   C4A23346  10.691   6.497   7.650
 1635POPC   C1B23347  10.223   6.485   8.731
 1635POPC   C2B23348  10.375   6.641   8.361
 1635POPC   C3B23349  10.334   6.712   7.942
 1635POPC   C4B23350  10.221   6.572   7.480
 1636POPC   NC323351  21.240   1.774   9.557
 1636POPC   PO423352  21.365   2.429   9.510
 1636POPC   GL123353  21.489   2.110   9.157
 1636POPC   GL223354  21.648   1.780   9.219
 1636POPC   C1A23355  21.522   2.145   8.672
 1636POPC   D2A23356  21.304   2.198   8.269
 1636POPC   C3A23357  21.407   2.100   7.829
 1636POPC   C4A23358  21.699   1.772   7.744
 1636POPC   C1B23359  21.422   1.688   8.858
 1636POPC   C2B23360  21.322   1.666   8.408
 1636POPC   C3B23361  21.212   1.637   7.959
 1636POPC   C4B23362  21.280   1.710   7.481
 1637POPC   NC323363  32.658  13.249   9.464
 1637POPC   PO423364  32.313  13.820   9.609
 1637POPC   GL123365  32.342  13.715   9.210
 1637POPC   GL223366  32.243  13.424   9.169
 1637POPC   C1A23367  32.190  13.799   8.796
 1637POPC   D2A23368  32.335  13.592   8.422
 1637POPC   C3A23369  32.293  13.717   8.023
 1637POPC   C4A23370  32.053  13.535   7.754
 1637POPC   C1B23371  32.465  13.313   8.836
 1637POPC   C2B23372  32.413  13.076   8.471
 1637POPC   C3B23373  32.390  13.194   8.050
 1637POPC   C4B23374  32.530  13.343   7.690
 1638POPC   NC323375  24.458  36.470   9.290
 1638POPC   PO423376  24.990  36.330   9.661
 1638POPC   GL123377  24.916  36.074   9.194
 1638POPC   GL223378  24.596  35.907   9.129
 1638POPC   C1A23379  24.828  36.104   8.715
 1638POPC   D2A23380  24.524  36.078   8.369
 1638POPC   C3A23381  24.639  35.902   7.976
 1638POPC   C4A23382  24.835  36.199   7.699
 1638POPC   C1B23383  24.270  36.015   8.826
 1638POPC   C2B23384  24.054  35.911   8.450
 1638POPC   C3B23385  24.082  36.090   8.069
 1638POPC   C4B23386  24.331  36.234   7.735
 1639POPC   NC323387   9.655  23.060   9.675
 1639POPC   PO423388  10.175  22.619   9.533
 1639POPC   GL123389   9.809  22.794   9.224
 1639POPC   GL223390   9.518  23.090   9.200
 1639POPC   C1A23391   9.747  22.941   8.792
 1639POPC   D2A23392   9.683  22.719   8.443
 1639POPC   C3A23393   9.931  22.790   8.128
 1639POPC   C4A23394   9.823  22.675   7.711
 1639POPC   C1B23395   9.273  23.189   8.820
 1639POPC   C2B23396   9.434  23.167   8.417
 1639POPC   C3B23397   9.526  23.091   7.996
 1639POPC   C4B23398   9.252  23.389   7.798
 1640POPC   NC323399  15.217  23.041   9.504
 1640POPC   PO423400  15.066  22.406   9.375
 1640POPC   GL123401  15.237  22.726   9.107
 1640POPC   GL223402  15.002  22.990   9.045
 1640POPC   C1A23403  15.469  23.017   8.845
 1640POPC   D2A23404  15.686  23.097   8.466
 1640POPC   C3A23405  15.398  23.202   8.142
 1640POPC   C4A23406  15.113  22.984   7.873
 1640POPC   C1B23407  14.912  22.677   8.723
 1640POPC   C2B23408  14.886  22.739   8.300
 1640POPC   C3B23409  14.804  22.569   7.916
 1640POPC   C4B23410  15.020  22.573   7.497
 1641POPC   NC323411   8.540  29.266   9.594
 1641POPC   PO423412   8.010  28.853   9.632
 1641POPC   GL123413   7.996  29.109   9.236
 1641POPC   GL223414   8.318  28.984   9.220
 1641POPC   C1A23415   7.956  29.327   8.804
 1641POPC   D2A23416   8.108  29.506   8.388
 1641POPC   C3A23417   7.962  29.374   7.974
 1641POPC   C4A23418   7.945  29.418   7.469
 1641POPC   C1B23419   8.427  29.145   8.837
 1641POPC   C2B23420   8.249  28.991   8.462
 1641POPC   C3B23421   8.370  29.043   8.053
 1641POPC   C4B23422   8.349  29.214   7.675
 1642POPC   NC323423  10.288  33.220   9.773
 1642POPC   PO423424  10.865  33.241   9.365
 1642POPC   GL123425  10.763  33.715   9.302
 1642POPC   GL223426  10.731  33.639   8.999
 1642POPC   C1A23427  10.498  34.075   9.043
 1642POPC   D2A23428  10.355  34.269   8.628
 1642POPC   C3A23429  10.381  33.996   8.260
 1642POPC   C4A23430  10.571  33.901   7.867
 1642POPC   C1B23431  10.801  33.851   8.626
 1642POPC   C2B23432  10.611  33.527   8.394
 1642POPC   C3B23433  10.415  33.455   8.032
 1642POPC   C4B23434  10.583  33.414   7.651
 1643POPC   NC323435   6.901  13.039   9.457
 1643POPC   PO423436   6.756  13.693   9.636
 1643POPC   GL123437   6.665  13.616   9.177
 1643POPC   GL223438   6.571  13.292   9.154
 1643POPC   C1A23439   6.797  13.584   8.710
 1643POPC   D2A23440   7.061  13.637   8.304
 1643POPC   C3A23441   6.853  13.652   7.898
 1643POPC   C4A23442   6.416  13.770   7.816
 1643POPC   C1B23443   6.356  13.312   8.775
 1643POPC   C2B23444   6.353  13.550   8.416
 1643POPC   C3B23445   6.495  13.334   8.090
 1643POPC   C4B23446   6.329  12.965   7.903
 1644POPC   NC323447  37.038   8.590   9.496
 1644POPC   PO423448  36.901   7.920   9.502
 1644POPC   GL123449  37.065   8.056   9.130
 1644POPC   GL223450  36.826   8.316   9.135
 1644POPC   C1A23451  36.956   8.079   8.685
 1644POPC   D2A23452  36.715   8.097   8.296
 1644POPC   C3A23453  36.983   8.029   7.941
 1644POPC   C4A23454  36.996   8.170   7.531
 1644POPC   C1B23455  36.952   8.586   8.816
 1644POPC   C2B23456  36.918   8.563   8.400
 1644POPC   C3B23457  36.838   8.515   7.985
 1644POPC   C4B23458  37.102   8.634   7.670
 1645POPC   NC323459  10.434  42.984   9.486
 1645POPC   PO423460  10.944  43.328   9.659
 1645POPC   GL123461  10.510  43.459   9.305
 1645POPC   GL223462  10.429  43.133   9.031
 1645POPC   C1A23463  10.388  43.543   8.806
 1645POPC   D2A23464  10.483  43.265   8.438
 1645POPC   C3A23465  10.473  43.424   8.021
 1645POPC   C4A23466  10.776  43.286   7.658
 1645POPC   C1B23467  10.417  42.758   8.806
 1645POPC   C2B23468  10.142  42.603   8.519
 1645POPC   C3B23469  10.133  42.856   8.152
 1645POPC   C4B23470  10.411  42.945   7.817
 1646POPC   NC323471  29.866  20.905   9.453
 1646POPC   PO423472  29.806  20.220   9.450
 1646POPC   GL123473  29.843  20.504   9.116
 1646POPC   GL223474  29.701  20.239   8.953
 1646POPC   C1A23475  29.693  20.748   8.724
 1646POPC   D2A23476  29.580  20.619   8.263
 1646POPC   C3A23477  29.655  20.947   8.007
 1646POPC   C4A23478  29.984  20.961   7.720
 1646POPC   C1B23479  29.899  20.296   8.636
 1646POPC   C2B23480  29.708  20.138   8.352
 1646POPC   C3B23481  29.886  20.202   8.005
 1646POPC   C4B23482  29.777  20.495   7.724
 1647POPC   NC323483  12.915  28.044   9.517
 1647POPC   PO423484  12.729  27.361   9.404
 1647POPC   GL123485  12.999  27.449   9.106
 1647POPC   GL223486  12.910  27.761   9.107
 1647POPC   C1A23487  13.136  27.610   8.707
 1647POPC   D2A23488  12.925  27.796   8.358
 1647POPC   C3A23489  13.118  27.642   8.033
 1647POPC   C4A23490  13.070  27.407   7.678
 1647POPC   C1B23491  12.627  27.867   8.766
 1647POPC   C2B23492  12.429  27.664   8.374
 1647POPC   C3B23493  12.620  27.500   8.014
 1647POPC   C4B23494  12.746  27.797   7.721
 1648POPC   NC323495  15.968   3.116   9.556
 1648POPC   PO423496  15.668   3.578   9.651
 1648POPC   GL123497  15.723   3.502   9.238
 1648POPC   GL223498  16.082   3.530   9.173
 1648POPC   C1A23499  15.728   3.624   8.813
 1648POPC   D2A23500  15.866   3.310   8.548
 1648POPC   C3A23501  15.761   3.385   8.132
 1648POPC   C4A23502  15.700   3.426   7.686
 1648POPC   C1B23503  16.235   3.634   8.733
 1648POPC   C2B23504  16.191   3.634   8.337
 1648POPC   C3B23505  16.277   3.406   8.011
 1648POPC   C4B23506  16.217   3.519   7.615
 1649POPC   NC323507  33.664  11.008   9.665
 1649POPC   PO423508  33.969  11.646   9.487
 1649POPC   GL123509  33.859  11.363   9.149
 1649POPC   GL223510  33.559  11.135   9.171
 1649POPC   C1A23511  33.736  11.428   8.728
 1649POPC   D2A23512  33.993  11.171   8.411
 1649POPC   C3A23513  33.923  11.317   8.001
 1649POPC   C4A23514  33.687  11.483   7.680
 1649POPC   C1B23515  33.616  10.945   8.748
 1649POPC   C2B23516  33.475  11.183   8.353
 1649POPC   C3B23517  33.373  11.153   7.934
 1649POPC   C4B23518  33.695  10.949   7.739
 1650POPC   NC323519  21.128  39.040   9.513
 1650POPC   PO423520  21.467  39.672   9.570
 1650POPC   GL123521  21.495  39.477   9.143
 1650POPC   GL223522  21.542  39.130   9.131
 1650POPC   C1A23523  21.358  39.412   8.703
 1650POPC   D2A23524  21.352  39.661   8.306
 1650POPC   C3A23525  21.333  39.434   7.913
 1650POPC   C4A23526  21.483  39.645   7.529
 1650POPC   C1B23527  21.396  38.868   8.779
 1650POPC   C2B23528  21.225  38.982   8.366
 1650POPC   C3B23529  21.436  38.906   7.992
 1650POPC   C4B23530  21.718  39.119   7.785
 1651POPC   NC323531   8.830   7.454   9.618
 1651POPC   PO423532   9.524   7.516   9.485
 1651POPC   GL123533   9.173   7.637   9.253
 1651POPC   GL223534   8.891   7.388   9.120
 1651POPC   C1A23535   9.198   7.697   8.844
 1651POPC   D2A23536   8.901   7.508   8.582
 1651POPC   C3A23537   8.946   7.516   8.157
 1651POPC   C4A23538   9.009   7.661   7.759
 1651POPC   C1B23539   8.659   7.116   8.808
 1651POPC   C2B23540   8.534   7.198   8.368
 1651POPC   C3B23541   8.728   7.065   8.002
 1651POPC   C4B23542   8.841   7.088   7.585
 1652POPC   NC323543  29.709   3.658   9.417
 1652POPC   PO423544  30.244   3.247   9.465
 1652POPC   GL123545  30.027   3.214   9.087
 1652POPC   GL223546  30.070   3.573   9.076
 1652POPC   C1A23547  29.808   3.367   8.708
 1652POPC   D2A23548  29.770   3.624   8.345
 1652POPC   C3A23549  29.829   3.410   7.954
 1652POPC   C4A23550  29.915   3.356   7.496
 1652POPC   C1B23551  30.086   3.826   8.735
 1652POPC   C2B23552  30.072   4.067   8.388
 1652POPC   C3B23553  30.043   3.969   7.995
 1652POPC   C4B23554  30.191   3.718   7.714
 1653POPC   NC323555  15.414  24.145   9.360
 1653POPC   PO423556  15.427  23.502   9.514
 1653POPC   GL123557  15.244  23.453   9.139
 1653POPC   GL223558  15.134  23.795   9.097
 1653POPC   C1A23559  15.117  23.393   8.716
 1653POPC   D2A23560  14.842  23.338   8.363
 1653POPC   C3A23561  14.992  23.470   7.982
 1653POPC   C4A23562  14.899  23.437   7.580
 1653POPC   C1B23563  15.344  23.922   8.731
 1653POPC   C2B23564  15.215  23.760   8.359
 1653POPC   C3B23565  14.997  23.967   8.048
 1653POPC   C4B23566  15.231  24.143   7.746
 1654POPC   NC323567   2.514  28.820   9.491
 1654POPC   PO423568   3.079  29.170   9.509
 1654POPC   GL123569   2.930  29.057   9.154
 1654POPC   GL223570   2.588  29.128   9.100
 1654POPC   C1A23571   2.924  29.301   8.773
 1654POPC   D2A23572   2.621  29.232   8.458
 1654POPC   C3A23573   2.695  29.377   8.060
 1654POPC   C4A23574   2.946  29.272   7.760
 1654POPC   C1B23575   2.653  28.797   8.771
 1654POPC   C2B23576   2.448  28.762   8.358
 1654POPC   C3B23577   2.577  28.877   7.932
 1654POPC   C4B23578   2.450  29.209   7.610
 1655POPC   NC323579  24.838  35.896   9.643
 1655POPC   PO423580  25.459  35.807   9.499
 1655POPC   GL123581  25.397  35.488   9.208
 1655POPC   GL223582  25.647  35.604   8.996
 1655POPC   C1A23583  25.113  35.235   8.946
 1655POPC   D2A23584  25.170  34.950   8.585
 1655POPC   C3A23585  25.052  35.143   8.184
 1655POPC   C4A23586  25.025  35.217   7.729
 1655POPC   C1B23587  25.603  35.248   8.726
 1655POPC   C2B23588  25.681  35.082   8.318
 1655POPC   C3B23589  25.521  35.104   7.912
 1655POPC   C4B23590  25.491  35.444   7.654
 1656POPC   NC323591   3.800  24.267   9.337
 1656POPC   PO423592   3.729  23.663   9.649
 1656POPC   GL123593   3.540  23.822   9.256
 1656POPC   GL223594   3.755  23.824   9.070
 1656POPC   C1A23595   3.316  24.009   8.873
 1656POPC   D2A23596   3.189  23.925   8.422
 1656POPC   C3A23597   3.424  23.800   8.056
 1656POPC   C4A23598   3.272  23.942   7.660
 1656POPC   C1B23599   3.619  23.672   8.633
 1656POPC   C2B23600   3.737  23.447   8.265
 1656POPC   C3B23601   3.801  23.484   7.836
 1656POPC   C4B23602   3.838  23.893   7.714
 1657POPC   NC323603  25.495   8.669   9.540
 1657POPC   PO423604  25.143   8.065   9.468
 1657POPC   GL123605  25.272   8.259   9.112
 1657POPC   GL223606  25.554   8.487   9.070
 1657POPC   C1A23607  25.276   8.063   8.712
 1657POPC   D2A23608  25.150   7.886   8.324
 1657POPC   C3A23609  25.190   8.076   7.917
 1657POPC   C4A23610  25.378   8.023   7.501
 1657POPC   C1B23611  25.662   8.406   8.665
 1657POPC   C2B23612  25.641   8.093   8.342
 1657POPC   C3B23613  25.683   8.191   7.909
 1657POPC   C4B23614  25.397   8.513   7.736
 1658POPC   NC323615  10.826  20.449   9.628
 1658POPC   PO423616  10.696  21.039   9.309
 1658POPC   GL123617  10.547  20.662   9.179
 1658POPC   GL223618  10.884  20.573   9.114
 1658POPC   C1A23619  10.366  20.529   8.797
 1658POPC   D2A23620  10.477  20.528   8.339
 1658POPC   C3A23621  10.232  20.445   7.948
 1658POPC   C4A23622  10.264  20.627   7.509
 1658POPC   C1B23623  10.834  20.815   8.702
 1658POPC   C2B23624  10.945  20.770   8.259
 1658POPC   C3B23625  10.678  20.723   7.885
 1658POPC   C4B23626  10.764  20.737   7.459
 1659POPC   NC323627   5.289   4.712   9.963
 1659POPC   PO423628   4.849   5.121   9.654
 1659POPC   GL123629   4.817   5.104   9.224
 1659POPC   GL223630   5.173   5.124   9.129
 1659POPC   C1A23631   4.796   5.064   8.792
 1659POPC   D2A23632   5.014   5.232   8.427
 1659POPC   C3A23633   4.903   5.149   8.004
 1659POPC   C4A23634   4.830   4.935   7.634
 1659POPC   C1B23635   5.233   4.792   8.809
 1659POPC   C2B23636   5.358   4.810   8.398
 1659POPC   C3B23637   5.173   4.667   8.050
 1659POPC   C4B23638   5.333   4.760   7.703
 1660POPC   NC323639  36.034  18.327   9.482
 1660POPC   PO423640  35.740  17.718   9.426
 1660POPC   GL123641  35.875  18.017   9.089
 1660POPC   GL223642  36.260  18.143   9.084
 1660POPC   C1A23643  35.884  18.271   8.714
 1660POPC   D2A23644  36.078  18.488   8.362
 1660POPC   C3A23645  36.098  18.274   7.976
 1660POPC   C4A23646  36.383  17.983   7.847
 1660POPC   C1B23647  36.357  18.486   8.819
 1660POPC   C2B23648  36.579  18.694   8.490
 1660POPC   C3B23649  36.707  18.613   8.076
 1660POPC   C4B23650  36.516  18.457   7.703
 1661POPC   NC323651  34.634   4.541   9.460
 1661POPC   PO423652  35.036   3.956   9.409
 1661POPC   GL123653  34.680   4.111   9.124
 1661POPC   GL223654  34.394   4.396   9.043
 1661POPC   C1A23655  34.765   4.285   8.727
 1661POPC   D2A23656  34.846   4.226   8.337
 1661POPC   C3A23657  34.605   4.459   8.074
 1661POPC   C4A23658  34.774   4.575   7.729
 1661POPC   C1B23659  34.302   4.043   8.765
 1661POPC   C2B23660  34.373   4.061   8.322
 1661POPC   C3B23661  34.284   4.047   7.895
 1661POPC   C4B23662  34.609   4.051   7.592
 1662POPC   NC323663   5.078   4.723   9.443
 1662POPC   PO423664   5.361   4.280   9.829
 1662POPC   GL123665   5.233   4.228   9.343
 1662POPC   GL223666   4.858   4.195   9.209
 1662POPC   C1A23667   5.256   4.091   8.877
 1662POPC   D2A23668   5.197   4.323   8.483
 1662POPC   C3A23669   5.062   4.147   8.091
 1662POPC   C4A23670   5.220   4.257   7.706
 1662POPC   C1B23671   4.839   4.470   8.834
 1662POPC   C2B23672   4.832   4.702   8.450
 1662POPC   C3B23673   4.656   4.707   8.073
 1662POPC   C4B23674   4.767   4.450   7.773
 1663POPC   NC323675  29.669  32.856   9.753
 1663POPC   PO423676  29.897  33.396   9.527
 1663POPC   GL123677  30.076  33.185   9.174
 1663POPC   GL223678  29.925  32.887   9.242
 1663POPC   C1A23679  30.293  33.184   8.800
 1663POPC   D2A23680  30.243  32.952   8.439
 1663POPC   C3A23681  30.368  33.113   8.067
 1663POPC   C4A23682  30.235  33.041   7.658
 1663POPC   C1B23683  29.891  32.829   8.784
 1663POPC   C2B23684  29.852  32.664   8.327
 1663POPC   C3B23685  29.803  32.836   7.878
 1663POPC   C4B23686  29.434  32.912   7.592
 1664POPC   NC323687  10.175  13.896   9.528
 1664POPC   PO423688  10.647  13.411   9.524
 1664POPC   GL123689  10.389  13.533   9.185
 1664POPC   GL223690  10.413  13.858   9.068
 1664POPC   C1A23691  10.271  13.454   8.756
 1664POPC   D2A23692  10.320  13.205   8.369
 1664POPC   C3A23693  10.470  13.348   7.989
 1664POPC   C4A23694  10.303  13.542   7.645
 1664POPC   C1B23695  10.540  13.929   8.664
 1664POPC   C2B23696  10.550  13.830   8.222
 1664POPC   C3B23697  10.560  13.951   7.786
 1664POPC   C4B23698  10.206  14.050   7.511
 1665POPC   NC323699  15.393  31.304   9.599
 1665POPC   PO423700  14.771  31.646   9.699
 1665POPC   GL123701  15.032  31.642   9.287
 1665POPC   GL223702  15.219  31.359   9.130
 1665POPC   C1A23703  15.121  31.793   8.857
 1665POPC   D2A23704  15.295  31.820   8.420
 1665POPC   C3A23705  15.095  31.688   8.014
 1665POPC   C4A23706  15.166  31.663   7.561
 1665POPC   C1B23707  15.418  31.411   8.709
 1665POPC   C2B23708  15.317  31.301   8.272
 1665POPC   C3B23709  15.469  31.343   7.820
 1665POPC   C4B23710  15.507  31.319   7.351
 1666POPC   NC323711   0.666  31.872   9.328
 1666POPC   PO423712   1.182  32.281   9.514
 1666POPC   GL123713   1.271  32.000   9.182
 1666POPC   GL223714   1.257  32.269   8.976
 1666POPC   C1A23715   1.481  31.850   8.782
 1666POPC   D2A23716   1.405  32.114   8.389
 1666POPC   C3A23717   1.444  31.959   7.958
 1666POPC   C4A23718   1.275  32.088   7.555
 1666POPC   C1B23719   1.002  32.034   8.743
 1666POPC   C2B23720   0.929  31.912   8.337
 1666POPC   C3B23721   0.929  32.091   7.934
 1666POPC   C4B23722   0.828  31.895   7.510
 1667POPC   NC323723   2.338  16.994   9.635
 1667POPC   PO423724   1.793  17.353   9.509
 1667POPC   GL123725   1.893  17.675   9.198
 1667POPC   GL223726   1.994  17.387   9.024
 1667POPC   C1A23727   1.765  17.764   8.762
 1667POPC   D2A23728   1.857  17.545   8.352
 1667POPC   C3A23729   1.814  17.772   7.956
 1667POPC   C4A23730   2.024  17.785   7.531
 1667POPC   C1B23731   2.229  17.269   8.666
 1667POPC   C2B23732   2.401  17.229   8.260
 1667POPC   C3B23733   2.067  17.193   7.962
 1667POPC   C4B23734   1.951  17.296   7.540
 1668POPC   NC323735  16.012  16.390   9.727
 1668POPC   PO423736  16.119  16.948   9.315
 1668POPC   GL123737  15.939  16.759   9.074
 1668POPC   GL223738  16.155  16.463   9.156
 1668POPC   C1A23739  15.774  16.849   8.700
 1668POPC   D2A23740  16.074  16.997   8.428
 1668POPC   C3A23741  15.974  16.935   8.026
 1668POPC   C4A23742  16.282  16.919   7.714
 1668POPC   C1B23743  16.143  16.471   8.711
 1668POPC   C2B23744  15.901  16.515   8.327
 1668POPC   C3B23745  15.876  16.472   7.851
 1668POPC   C4B23746  16.126  16.438   7.451
 1669POPC   NC323747  31.201  43.321   9.621
 1669POPC   PO423748  31.811  43.152   9.420
 1669POPC   GL123749  31.445  43.259   9.179
 1669POPC   GL223750  31.279  42.957   9.219
 1669POPC   C1A23751  31.317  43.295   8.773
 1669POPC   D2A23752  31.594  43.148   8.458
 1669POPC   C3A23753  31.434  43.105   8.096
 1669POPC   C4A23754  31.679  43.104   7.739
 1669POPC   C1B23755  31.423  42.788   8.796
 1669POPC   C2B23756  31.265  42.693   8.332
 1669POPC   C3B23757  31.305  42.697   7.841
 1669POPC   C4B23758  31.460  42.817   7.407
 1670POPC   NC323759   2.209  21.151   9.491
 1670POPC   PO423760   1.731  21.639   9.669
 1670POPC   GL123761   1.886  21.506   9.263
 1670POPC   GL223762   1.828  21.800   9.156
 1670POPC   C1A23763   1.969  21.473   8.787
 1670POPC   D2A23764   1.791  21.257   8.407
 1670POPC   C3A23765   2.115  21.325   8.109
 1670POPC   C4A23766   2.049  21.503   7.675
 1670POPC   C1B23767   1.671  21.934   8.784
 1670POPC   C2B23768   1.794  21.777   8.415
 1670POPC   C3B23769   1.723  21.641   8.039
 1670POPC   C4B23770   1.673  21.945   7.717
 1671POPC   NC323771  12.189  25.697   9.479
 1671POPC   PO423772  11.642  26.110   9.442
 1671POPC   GL123773  11.975  26.081   9.176
 1671POPC   GL223774  12.220  26.325   9.264
 1671POPC   C1A23775  12.104  25.862   8.816
 1671POPC   D2A23776  12.388  25.855   8.470
 1671POPC   C3A23777  12.219  25.838   8.071
 1671POPC   C4A23778  11.973  26.049   7.782
 1671POPC   C1B23779  12.466  26.245   8.892
 1671POPC   C2B23780  12.530  26.342   8.456
 1671POPC   C3B23781  12.287  26.370   8.096
 1671POPC   C4B23782  12.464  26.193   7.753
 1672POPC   NC323783   6.047   6.887   9.470
 1672POPC   PO423784   5.523   6.428   9.349
 1672POPC   GL123785   5.812   6.381   9.029
 1672POPC   GL223786   6.122   6.525   9.085
 1672POPC   C1A23787   5.892   6.590   8.634
 1672POPC   D2A23788   5.856   6.973   8.383
 1672POPC   C3A23789   5.899   6.785   7.985
 1672POPC   C4A23790   5.850   6.391   7.811
 1672POPC   C1B23791   6.352   6.392   8.718
 1672POPC   C2B23792   6.263   6.376   8.225
 1672POPC   C3B23793   6.330   6.564   7.792
 1672POPC   C4B23794   6.092   6.833   7.471
 1673POPC   NC323795  14.678  44.457   9.717
 1673POPC   PO423796  14.522  43.854   9.444
 1673POPC   GL123797  14.513  44.041   9.055
 1673POPC   GL223798  14.772  44.291   9.007
 1673POPC   C1A23799  14.387  43.849   8.679
 1673POPC   D2A23800  14.193  43.623   8.378
 1673POPC   C3A23801  14.360  43.719   8.002
 1673POPC   C4A23802  14.293  43.532   7.651
 1673POPC   C1B23803  14.601  44.292   8.582
 1673POPC   C2B23804  14.262  44.146   8.258
 1673POPC   C3B23805  14.338  44.169   7.759
 1673POPC   C4B23806  14.513  44.300   7.340
 1674POPC   NC323807  12.644  19.769   9.558
 1674POPC   PO423808  13.069  20.235   9.464
 1674POPC   GL123809  13.079  19.941   9.126
 1674POPC   GL223810  12.754  19.822   9.079
 1674POPC   C1A23811  12.981  19.986   8.682
 1674POPC   D2A23812  12.744  20.234   8.441
 1674POPC   C3A23813  12.882  20.066   8.091
 1674POPC   C4A23814  13.040  19.876   7.735
 1674POPC   C1B23815  12.487  19.902   8.729
 1674POPC   C2B23816  12.609  19.717   8.374
 1674POPC   C3B23817  12.747  19.567   8.014
 1674POPC   C4B23818  12.539  19.853   7.738
 1675POPC   NC323819   4.282  41.262   9.466
 1675POPC   PO423820   4.161  42.048   9.472
 1675POPC   GL123821   4.164  41.715   9.140
 1675POPC   GL223822   4.378  41.402   8.998
 1675POPC   C1A23823   4.077  41.687   8.701
 1675POPC   D2A23824   4.070  41.386   8.385
 1675POPC   C3A23825   4.223  41.527   7.988
 1675POPC   C4A23826   4.254  41.744   7.584
 1675POPC   C1B23827   4.589  41.671   8.710
 1675POPC   C2B23828   4.664  41.703   8.277
 1675POPC   C3B23829   4.687  41.788   7.877
 1675POPC   C4B23830   4.645  41.419   7.706
 1676POPC   NC323831  31.875   2.266   9.433
 1676POPC   PO423832  32.511   1.890   9.496
 1676POPC   GL123833  32.505   1.941   9.075
 1676POPC   GL223834  32.129   1.990   9.045
 1676POPC   C1A23835  32.419   1.958   8.639
 1676POPC   D2A23836  32.091   1.982   8.367
 1676POPC   C3A23837  32.267   1.891   8.006
 1676POPC   C4A23838  32.058   1.841   7.652
 1676POPC   C1B23839  32.053   2.337   8.745
 1676POPC   C2B23840  31.922   2.467   8.327
 1676POPC   C3B23841  32.030   2.338   7.888
 1676POPC   C4B23842  32.058   2.274   7.415
 1677POPC   NC323843  30.676   9.266   9.395
 1677POPC   PO423844  30.344   8.738   9.548
 1677POPC   GL123845  30.511   8.821   9.173
 1677POPC   GL223846  30.880   8.798   9.188
 1677POPC   C1A23847  30.607   9.048   8.788
 1677POPC   D2A23848  30.671   9.266   8.431
 1677POPC   C3A23849  30.605   9.093   8.054
 1677POPC   C4A23850  30.913   8.938   7.779
 1677POPC   C1B23851  30.745   8.542   8.823
 1677POPC   C2B23852  30.660   8.694   8.413
 1677POPC   C3B23853  30.455   8.601   8.065
 1677POPC   C4B23854  30.613   8.555   7.693
 1678POPC   NC323855   7.678   1.603   9.476
 1678POPC   PO423856   7.555   2.167   9.775
 1678POPC   GL123857   7.558   2.043   9.265
 1678POPC   GL223858   7.653   2.261   9.073
 1678POPC   C1A23859   7.223   2.021   8.887
 1678POPC   D2A23860   7.086   2.055   8.472
 1678POPC   C3A23861   7.117   1.995   8.038
 1678POPC   C4A23862   7.478   2.103   7.793
 1678POPC   C1B23863   7.656   2.014   8.667
 1678POPC   C2B23864   7.554   1.804   8.250
 1678POPC   C3B23865   7.820   1.732   7.886
 1678POPC   C4B23866   7.766   1.793   7.434
 1679POPC   NC323867  13.676   3.176   9.677
 1679POPC   PO423868  13.361   3.760   9.562
 1679POPC   GL123869  13.533   3.603   9.170
 1679POPC   GL223870  13.554   3.209   9.178
 1679POPC   C1A23871  13.709   3.823   8.779
 1679POPC   D2A23872  13.924   3.962   8.386
 1679POPC   C3A23873  13.809   3.710   8.037
 1679POPC   C4A23874  13.436   3.760   7.801
 1679POPC   C1B23875  13.790   3.320   8.830
 1679POPC   C2B23876  13.948   3.401   8.448
 1679POPC   C3B23877  13.894   3.175   8.088
 1679POPC   C4B23878  13.583   3.269   7.810
 1680POPC   NC323879   6.377  16.072   9.665
 1680POPC   PO423880   6.985  15.995   9.539
 1680POPC   GL123881   6.701  16.051   9.149
 1680POPC   GL223882   6.356  16.209   9.178
 1680POPC   C1A23883   6.680  15.803   8.738
 1680POPC   D2A23884   6.667  15.535   8.356
 1680POPC   C3A23885   6.810  15.719   7.974
 1680POPC   C4A23886   6.619  15.683   7.593
 1680POPC   C1B23887   6.479  16.270   8.724
 1680POPC   C2B23888   6.593  16.152   8.283
 1680POPC   C3B23889   6.614  16.358   7.869
 1680POPC   C4B23890   6.665  16.181   7.454
 1681POPC   NC323891  14.857   0.915   9.500
 1681POPC   PO423892  15.492   1.272   9.455
 1681POPC   GL123893  15.279   1.455   9.102
 1681POPC   GL223894  14.955   1.340   9.171
 1681POPC   C1A23895  15.160   1.351   8.656
 1681POPC   D2A23896  15.120   0.958   8.386
 1681POPC   C3A23897  15.220   0.991   7.933
 1681POPC   C4A23898  15.452   1.294   7.754
 1681POPC   C1B23899  14.745   1.110   8.867
 1681POPC   C2B23900  14.684   1.247   8.465
 1681POPC   C3B23901  14.958   1.377   8.139
 1681POPC   C4B23902  14.846   1.261   7.740
 1682POPC   NC323903  40.192  30.479   9.526
 1682POPC   PO423904  39.803  31.054   9.606
 1682POPC   GL123905  39.962  30.872   9.230
 1682POPC   GL223906  39.878  30.535   9.141
 1682POPC   C1A23907  40.188  30.834   8.838
 1682POPC   D2A23908  40.396  30.696   8.459
 1682POPC   C3A23909  40.227  30.775   8.061
 1682POPC   C4A23910  40.137  30.781   7.645
 1682POPC   C1B23911  39.584  30.364   8.867
 1682POPC   C2B23912  39.526  30.373   8.452
 1682POPC   C3B23913  39.800  30.445   8.121
 1682POPC   C4B23914  39.725  30.504   7.699
 1683POPC   NC323915  40.474  12.554   9.343
 1683POPC   PO423916  41.132  12.702   9.393
 1683POPC   GL123917  40.866  12.831   9.089
 1683POPC   GL223918  40.792  12.514   8.951
 1683POPC   C1A23919  40.831  13.030   8.673
 1683POPC   D2A23920  41.041  12.990   8.248
 1683POPC   C3A23921  40.746  12.967   7.859
 1683POPC   C4A23922  40.709  13.136   7.453
 1683POPC   C1B23923  41.158  12.609   8.700
 1683POPC   C2B23924  41.282  12.515   8.275
 1683POPC   C3B23925  41.140  12.648   7.869
 1683POPC   C4B23926  40.954  12.615   7.432
 1684POPC   NC323927  40.049  41.015   9.475
 1684POPC   PO423928  39.792  40.354   9.612
 1684POPC   GL123929  39.971  40.556   9.217
 1684POPC   GL223930  39.911  40.931   9.012
 1684POPC   C1A23931  40.229  40.575   8.857
 1684POPC   D2A23932  40.028  40.774   8.514
 1684POPC   C3A23933  40.025  40.539   8.166
 1684POPC   C4A23934  40.235  40.628   7.804
 1684POPC   C1B23935  39.806  41.261   8.686
 1684POPC   C2B23936  39.829  41.197   8.219
 1684POPC   C3B23937  40.085  41.118   7.826
 1684POPC   C4B23938  40.155  41.126   7.348
 1685POPC   NC323939  35.848  20.485   9.338
 1685POPC   PO423940  36.328  20.968   9.451
 1685POPC   GL123941  36.147  20.798   9.065
 1685POPC   GL223942  36.204  20.491   8.969
 1685POPC   C1A23943  36.035  20.792   8.603
 1685POPC   D2A23944  36.224  21.013   8.260
 1685POPC   C3A23945  36.057  20.778   7.930
 1685POPC   C4A23946  36.178  20.625   7.521
 1685POPC   C1B23947  36.116  20.297   8.644
 1685POPC   C2B23948  35.864  20.292   8.299
 1685POPC   C3B23949  35.929  20.289   7.861
 1685POPC   C4B23950  36.304  20.147   7.613
 1686POPC   NC323951  21.731  32.120   9.597
 1686POPC   PO423952  22.320  31.740   9.680
 1686POPC   GL123953  22.220  32.143   9.350
 1686POPC   GL223954  21.916  32.186   9.144
 1686POPC   C1A23955  22.287  32.410   8.933
 1686POPC   D2A23956  22.072  32.431   8.547
 1686POPC   C3A23957  22.229  32.223   8.173
 1686POPC   C4A23958  22.098  32.278   7.748
 1686POPC   C1B23959  22.029  31.957   8.767
 1686POPC   C2B23960  22.085  31.775   8.360
 1686POPC   C3B23961  21.869  31.867   7.942
 1686POPC   C4B23962  21.922  31.913   7.431
 1687POPC   NC323963   6.144  36.240   9.471
 1687POPC   PO423964   5.610  35.851   9.529
 1687POPC   GL123965   5.795  36.006   9.152
 1687POPC   GL223966   6.135  35.813   9.164
 1687POPC   C1A23967   5.710  36.062   8.697
 1687POPC   D2A23968   5.774  36.055   8.251
 1687POPC   C3A23969   5.516  35.952   7.874
 1687POPC   C4A23970   5.498  36.294   7.485
 1687POPC   C1B23971   6.214  36.092   8.827
 1687POPC   C2B23972   6.261  36.215   8.408
 1687POPC   C3B23973   6.351  36.025   8.033
 1687POPC   C4B23974   6.010  36.058   7.793
 1688POPC   NC323975   1.147  41.990   9.455
 1688POPC   PO423976   1.487  42.510   9.758
 1688POPC   GL123977   1.478  42.327   9.312
 1688POPC   GL223978   1.134  42.409   9.146
 1688POPC   C1A23979   1.577  42.331   8.848
 1688POPC   D2A23980   1.550  42.132   8.448
 1688POPC   C3A23981   1.520  42.435   8.115
 1688POPC   C4A23982   1.435  42.239   7.753
 1688POPC   C1B23983   1.081  42.220   8.730
 1688POPC   C2B23984   1.028  42.315   8.284
 1688POPC   C3B23985   0.935  42.308   7.839
 1688POPC   C4B23986   0.807  42.611   7.557
 1689POPC   NC323987  27.282  19.072   9.557
 1689POPC   PO423988  27.983  19.289   9.381
 1689POPC   GL123989  27.637  19.052   9.096
 1689POPC   GL223990  27.234  18.979   9.067
 1689POPC   C1A23991  27.566  18.839   8.708
 1689POPC   D2A23992  27.698  18.905   8.321
 1689POPC   C3A23993  27.409  18.896   8.006
 1689POPC   C4A23994  27.594  18.851   7.654
 1689POPC   C1B23995  27.330  19.301   8.740
 1689POPC   C2B23996  27.388  19.324   8.308
 1689POPC   C3B23997  27.289  19.454   7.896
 1689POPC   C4B23998  27.302  19.525   7.448
 1690POPC   NC323999  22.338  11.153  10.013
 1690POPC   PO424000  22.095  11.519   9.530
 1690POPC   GL124001  22.238  11.353   9.143
 1690POPC   GL224002  21.931  11.208   9.073
 1690POPC   C1A24003  22.275  11.264   8.689
 1690POPC   D2A24004  22.196  11.252   8.257
 1690POPC   C3A24005  22.333  11.482   7.933
 1690POPC   C4A24006  22.708  11.657   7.776
 1690POPC   C1B24007  21.949  10.873   8.790
 1690POPC   C2B24008  22.088  10.739   8.389
 1690POPC   C3B24009  22.054  10.892   7.960
 1690POPC   C4B24010  22.373  11.011   7.718
 1691POPC   NC324011  32.179   1.596   9.394
 1691POPC   PO424012  32.191   0.944   9.555
 1691POPC   GL124013  32.433   1.053   9.151
 1691POPC   GL224014  32.661   1.374   9.163
 1691POPC   C1A24015  32.261   0.981   8.712
 1691POPC   D2A24016  31.989   1.037   8.357
 1691POPC   C3A24017  32.184   0.941   7.982
 1691POPC   C4A24018  32.301   1.072   7.544
 1691POPC   C1B24019  32.367   1.466   8.808
 1691POPC   C2B24020  32.261   1.488   8.384
 1691POPC   C3B24021  32.429   1.392   7.993
 1691POPC   C4B24022  32.479   1.555   7.605
 1692POPC   NC324023  24.885  11.832   9.502
 1692POPC   PO424024  24.118  11.889   9.435
 1692POPC   GL124025  24.424  12.113   9.159
 1692POPC   GL224026  24.670  11.866   9.044
 1692POPC   C1A24027  24.566  12.265   8.729
 1692POPC   D2A24028  24.452  12.385   8.298
 1692POPC   C3A24029  24.327  12.046   8.017
 1692POPC   C4A24030  24.384  12.051   7.598
 1692POPC   C1B24031  24.774  11.760   8.612
 1692POPC   C2B24032  24.867  12.058   8.283
 1692POPC   C3B24033  24.805  12.095   7.860
 1692POPC   C4B24034  24.778  11.743   7.534
 1693POPC   NC324035  10.688   2.529   9.472
 1693POPC   PO424036  10.499   3.142   9.769
 1693POPC   GL124037  10.331   2.867   9.342
 1693POPC   GL224038  10.085   2.957   9.154
 1693POPC   C1A24039  10.333   2.594   8.892
 1693POPC   D2A24040  10.585   2.566   8.505
 1693POPC   C3A24041  10.470   2.617   8.081
 1693POPC   C4A24042  10.851   2.622   7.826
 1693POPC   C1B24043  10.368   3.086   8.789
 1693POPC   C2B24044  10.687   3.066   8.462
 1693POPC   C3B24045  10.999   3.149   8.159
 1693POPC   C4B24046  10.801   3.144   7.787
 1694POPC   NC324047   1.414  21.300   9.722
 1694POPC   PO424048   1.035  21.845   9.557
 1694POPC   GL124049   1.356  21.576   9.289
 1694POPC   GL224050   1.239  21.214   9.227
 1694POPC   C1A24051   1.474  21.445   8.847
 1694POPC   D2A24052   1.308  21.486   8.423
 1694POPC   C3A24053   1.332  21.334   7.997
 1694POPC   C4A24054   1.509  21.488   7.610
 1694POPC   C1B24055   1.023  21.185   8.787
 1694POPC   C2B24056   0.879  21.194   8.325
 1694POPC   C3B24057   0.843  21.448   7.913
 1694POPC   C4B24058   1.007  21.433   7.462
 1695POPC   NC324059  36.501  23.754   9.427
 1695POPC   PO424060  35.965  23.408   9.424
 1695POPC   GL124061  36.115  23.659   9.098
 1695POPC   GL224062  35.848  23.759   8.938
 1695POPC   C1A24063  36.294  23.766   8.684
 1695POPC   D2A24064  36.207  23.700   8.244
 1695POPC   C3A24065  36.488  23.688   7.906
 1695POPC   C4A24066  36.182  23.790   7.612
 1695POPC   C1B24067  35.782  23.692   8.510
 1695POPC   C2B24068  35.740  24.019   8.165
 1695POPC   C3B24069  35.743  24.141   7.704
 1695POPC   C4B24070  35.852  23.987   7.285
 1696POPC   NC324071  27.889   8.917   9.631
 1696POPC   PO424072  27.477   8.327   9.448
 1696POPC   GL124073  27.442   8.326   9.007
 1696POPC   GL224074  27.787   8.388   8.902
 1696POPC   C1A24075  27.435   8.483   8.576
 1696POPC   D2A24076  27.169   8.474   8.241
 1696POPC   C3A24077  27.364   8.590   7.909
 1696POPC   C4A24078  27.611   8.248   7.782
 1696POPC   C1B24079  27.899   8.257   8.516
 1696POPC   C2B24080  28.016   8.422   8.131
 1696POPC   C3B24081  28.094   8.119   7.842
 1696POPC   C4B24082  27.906   7.766   7.795
 1697POPC   NC324083  14.620  13.466   9.584
 1697POPC   PO424084  14.100  13.685   9.226
 1697POPC   GL124085  14.511  13.685   9.094
 1697POPC   GL224086  14.543  13.338   9.098
 1697POPC   C1A24087  14.651  13.605   8.669
 1697POPC   D2A24088  14.340  13.594   8.302
 1697POPC   C3A24089  14.528  13.627   7.902
 1697POPC   C4A24090  14.755  14.002   7.765
 1697POPC   C1B24091  14.266  13.277   8.729
 1697POPC   C2B24092  14.090  13.156   8.369
 1697POPC   C3B24093  14.149  13.142   7.959
 1697POPC   C4B24094  14.241  13.347   7.581
 1698POPC   NC324095  19.034  37.254   9.465
 1698POPC   PO424096  19.175  37.902   9.614
 1698POPC   GL124097  19.206  37.743   9.151
 1698POPC   GL224098  18.953  37.501   9.052
 1698POPC   C1A24099  19.101  37.782   8.671
 1698POPC   D2A24100  19.235  37.824   8.250
 1698POPC   C3A24101  19.125  37.586   7.899
 1698POPC   C4A24102  19.250  37.856   7.541
 1698POPC   C1B24103  19.210  37.282   8.749
 1698POPC   C2B24104  19.095  37.330   8.344
 1698POPC   C3B24105  18.741  37.271   8.090
 1698POPC   C4B24106  18.554  37.482   7.744
 1699POPC   NC324107  21.160   2.765   9.755
 1699POPC   PO424108  21.636   2.821   9.211
 1699POPC   GL124109  21.377   2.569   8.977
 1699POPC   GL224110  21.043   2.431   9.102
 1699POPC   C1A24111  21.354   2.625   8.557
 1699POPC   D2A24112  21.111   2.673   8.197
 1699POPC   C3A24113  21.445   2.610   7.955
 1699POPC   C4A24114  21.828   2.595   7.809
 1699POPC   C1B24115  20.899   2.714   8.749
 1699POPC   C2B24116  21.047   3.077   8.505
 1699POPC   C3B24117  21.115   3.174   8.053
 1699POPC   C4B24118  21.195   2.936   7.657
 1700POPC   NC324119  31.948  12.568   9.343
 1700POPC   PO424120  31.241  12.719   9.489
 1700POPC   GL124121  31.468  12.677   9.186
 1700POPC   GL224122  31.665  12.999   9.255
 1700POPC   C1A24123  31.333  12.483   8.821
 1700POPC   D2A24124  31.214  12.760   8.506
 1700POPC   C3A24125  31.551  12.736   8.231
 1700POPC   C4A24126  31.472  12.744   7.799
 1700POPC   C1B24127  31.583  12.985   8.808
 1700POPC   C2B24128  31.477  13.215   8.468
 1700POPC   C3B24129  31.336  13.162   8.055
 1700POPC   C4B24130  31.633  13.248   7.708
 1701POPC   NC324131  40.280  40.044   9.412
 1701POPC   PO424132  40.840  40.271   9.733
 1701POPC   GL124133  40.870  40.031   9.351
 1701POPC   GL224134  40.712  40.293   9.210
 1701POPC   C1A24135  40.890  39.830   8.942
 1701POPC   D2A24136  40.622  39.746   8.574
 1701POPC   C3A24137  40.749  39.736   8.124
 1701POPC   C4A24138  40.789  39.954   7.722
 1701POPC   C1B24139  40.585  40.213   8.815
 1701POPC   C2B24140  40.761  40.232   8.429
 1701POPC   C3B24141  40.568  40.291   8.057
 1701POPC   C4B24142  40.709  40.459   7.682
 1702POPC   NC324143  31.846  20.846   9.418
 1702POPC   PO424144  31.273  20.584   9.500
 1702POPC   GL124145  31.208  20.560   9.088
 1702POPC   GL224146  31.557  20.606   9.066
 1702POPC   C1A24147  31.283  20.571   8.640
 1702POPC   D2A24148  31.424  20.322   8.353
 1702POPC   C3A24149  31.431  20.551   8.047
 1702POPC   C4A24150  31.510  20.458   7.675
 1702POPC   C1B24151  31.750  20.413   8.723
 1702POPC   C2B24152  31.840  20.693   8.363
 1702POPC   C3B24153  31.914  20.742   7.897
 1702POPC   C4B24154  31.833  20.745   7.423
 1703POPC   NC324155  10.708  43.761   9.718
 1703POPC   PO424156  10.023  43.677   9.485
 1703POPC   GL124157  10.311  43.932   9.201
 1703POPC   GL224158  10.684  44.023   9.261
 1703POPC   C1A24159  10.362  44.023   8.766
 1703POPC   D2A24160  10.238  43.816   8.353
 1703POPC   C3A24161  10.461  43.950   7.990
 1703POPC   C4A24162  10.583  44.369   7.885
 1703POPC   C1B24163  10.856  43.853   8.862
 1703POPC   C2B24164  10.751  43.710   8.439
 1703POPC   C3B24165  10.955  43.575   8.055
 1703POPC   C4B24166  10.889  43.788   7.693
 1704POPC   NC324167  14.473  34.467   9.880
 1704POPC   PO424168  14.070  34.729   9.407
 1704POPC   GL124169  14.265  34.632   9.082
 1704POPC   GL224170  14.496  34.426   9.143
 1704POPC   C1A24171  14.191  34.530   8.686
 1704POPC   D2A24172  14.154  34.741   8.329
 1704POPC   C3A24173  14.254  34.504   7.975
 1704POPC   C4A24174  14.283  34.535   7.541
 1704POPC   C1B24175  14.703  34.437   8.734
 1704POPC   C2B24176  14.657  34.524   8.280
 1704POPC   C3B24177  14.742  34.578   7.813
 1704POPC   C4B24178  14.751  34.421   7.374
 1705POPC   NC324179  10.078  37.752   9.853
 1705POPC   PO424180   9.472  37.609   9.749
 1705POPC   GL124181   9.558  37.687   9.290
 1705POPC   GL224182   9.823  37.510   9.148
 1705POPC   C1A24183   9.446  37.677   8.847
 1705POPC   D2A24184   9.708  37.435   8.536
 1705POPC   C3A24185   9.592  37.483   8.077
 1705POPC   C4A24186   9.421  37.808   7.802
 1705POPC   C1B24187   9.905  37.881   8.812
 1705POPC   C2B24188  10.185  37.837   8.436
 1705POPC   C3B24189  10.109  37.661   8.039
 1705POPC   C4B24190   9.904  37.958   7.778
 1706POPC   NC324191  36.105  33.614   9.575
 1706POPC   PO424192  36.455  34.218   9.562
 1706POPC   GL124193  36.175  34.035   9.232
 1706POPC   GL224194  35.799  34.032   9.303
 1706POPC   C1A24195  36.005  33.757   8.903
 1706POPC   D2A24196  36.080  33.550   8.503
 1706POPC   C3A24197  35.909  33.719   8.118
 1706POPC   C4A24198  36.120  33.951   7.790
 1706POPC   C1B24199  35.705  34.161   8.864
 1706POPC   C2B24200  35.928  34.077   8.484
 1706POPC   C3B24201  35.819  34.222   8.071
 1706POPC   C4B24202  35.699  34.275   7.652
 1707POPC   NC324203  34.843  26.782   9.597
 1707POPC   PO424204  34.155  27.040   9.484
 1707POPC   GL124205  34.481  26.917   9.213
 1707POPC   GL224206  34.610  26.569   9.191
 1707POPC   C1A24207  34.582  26.893   8.786
 1707POPC   D2A24208  34.849  26.924   8.462
 1707POPC   C3A24209  34.597  26.992   8.095
 1707POPC   C4A24210  34.736  27.116   7.707
 1707POPC   C1B24211  34.537  26.378   8.809
 1707POPC   C2B24212  34.559  26.494   8.410
 1707POPC   C3B24213  34.593  26.352   8.014
 1707POPC   C4B24214  34.594  26.631   7.687
 1708POPC   NC324215   0.554  44.296   9.373
 1708POPC   PO424216   0.367  43.651   9.455
 1708POPC   GL124217   0.522  43.757   9.064
 1708POPC   GL224218   0.836  43.594   9.020
 1708POPC   C1A24219   0.682  44.062   8.782
 1708POPC   D2A24220   0.846  44.205   8.415
 1708POPC   C3A24221   0.580  44.032   8.139
 1708POPC   C4A24222   0.613  44.026   7.707
 1708POPC   C1B24223   0.628  43.352   8.714
 1708POPC   C2B24224   0.453  43.516   8.356
 1708POPC   C3B24225   0.619  43.570   7.924
 1708POPC   C4B24226   0.932  43.626   7.609
 1709POPC   NC324227  35.585   7.851   9.342
 1709POPC   PO424228  35.225   7.269   9.489
 1709POPC   GL124229  35.355   7.393   9.138
 1709POPC   GL224230  35.153   7.652   9.113
 1709POPC   C1A24231  35.239   7.187   8.775
 1709POPC   D2A24232  35.433   7.116   8.398
 1709POPC   C3A24233  35.215   7.278   8.034
 1709POPC   C4A24234  35.401   7.314   7.613
 1709POPC   C1B24235  35.326   7.699   8.714
 1709POPC   C2B24236  35.219   7.732   8.297
 1709POPC   C3B24237  35.438   7.730   7.923
 1709POPC   C4B24238  35.402   7.790   7.483
 1710POPC   NC324239  16.072  26.247   9.525
 1710POPC   PO424240  15.792  25.545   9.509
 1710POPC   GL124241  15.821  25.766   9.113
 1710POPC   GL224242  15.783  26.141   9.111
 1710POPC   C1A24243  15.615  25.876   8.694
 1710POPC   D2A24244  15.675  26.182   8.369
 1710POPC   C3A24245  15.939  26.015   8.068
 1710POPC   C4A24246  15.875  25.988   7.631
 1710POPC   C1B24247  16.057  26.151   8.719
 1710POPC   C2B24248  16.174  26.416   8.354
 1710POPC   C3B24249  16.239  26.382   7.908
 1710POPC   C4B24250  16.368  25.996   7.724
 1711POPC   NC324251  12.656  39.978   9.522
 1711POPC   PO424252  13.290  39.637   9.495
 1711POPC   GL124253  12.994  39.776   9.166
 1711POPC   GL224254  12.982  40.147   9.154
 1711POPC   C1A24255  13.005  39.844   8.712
 1711POPC   D2A24256  13.098  39.910   8.276
 1711POPC   C3A24257  12.841  39.734   7.935
 1711POPC   C4A24258  12.807  39.861   7.487
 1711POPC   C1B24259  12.798  40.332   8.790
 1711POPC   C2B24260  12.884  40.389   8.400
 1711POPC   C3B24261  12.800  40.239   8.016
 1711POPC   C4B24262  12.513  40.157   7.755
 1712POPC   NC324263  39.437  40.239   9.321
 1712POPC   PO424264  38.978  39.763   9.508
 1712POPC   GL124265  39.113  39.923   9.094
 1712POPC   GL224266  39.092  40.313   8.979
 1712POPC   C1A24267  39.439  39.827   8.788
 1712POPC   D2A24268  39.250  39.691   8.416
 1712POPC   C3A24269  39.412  39.889   8.058
 1712POPC   C4A24270  39.081  40.027   7.891
 1712POPC   C1B24271  39.109  40.160   8.621
 1712POPC   C2B24272  39.385  40.315   8.327
 1712POPC   C3B24273  39.345  40.441   7.897
 1712POPC   C4B24274  39.035  40.392   7.537
 1713POPC   NC324275  29.925   7.597   9.382
 1713POPC   PO424276  29.897   8.281   9.479
 1713POPC   GL124277  29.900   8.053   9.120
 1713POPC   GL224278  30.224   7.969   9.140
 1713POPC   C1A24279  29.725   8.062   8.716
 1713POPC   D2A24280  29.579   8.190   8.352
 1713POPC   C3A24281  29.702   7.943   8.024
 1713POPC   C4A24282  29.515   8.111   7.661
 1713POPC   C1B24283  30.235   8.323   8.837
 1713POPC   C2B24284  30.111   8.465   8.452
 1713POPC   C3B24285  30.032   8.318   8.052
 1713POPC   C4B24286  30.242   8.229   7.695
 1714POPC   NC324287  13.761  15.385   9.545
 1714POPC   PO424288  13.480  14.903   9.223
 1714POPC   GL124289  13.567  15.339   9.068
 1714POPC   GL224290  13.960  15.443   9.087
 1714POPC   C1A24291  13.434  15.329   8.650
 1714POPC   D2A24292  13.621  14.979   8.410
 1714POPC   C3A24293  13.460  15.007   7.990
 1714POPC   C4A24294  13.278  15.393   7.954
 1714POPC   C1B24295  13.966  15.357   8.654
 1714POPC   C2B24296  13.765  15.440   8.268
 1714POPC   C3B24297  13.792  15.357   7.866
 1714POPC   C4B24298  13.910  14.924   7.781
 1715POPC   NC324299  27.001  16.558   9.487
 1715POPC   PO424300  26.625  17.142   9.451
 1715POPC   GL124301  26.690  16.867   9.152
 1715POPC   GL224302  27.025  16.900   9.107
 1715POPC   C1A24303  26.715  16.639   8.775
 1715POPC   D2A24304  26.473  16.473   8.449
 1715POPC   C3A24305  26.724  16.474   8.099
 1715POPC   C4A24306  26.593  16.481   7.682
 1715POPC   C1B24307  27.233  16.823   8.764
 1715POPC   C2B24308  27.102  16.769   8.400
 1715POPC   C3B24309  27.125  16.970   8.043
 1715POPC   C4B24310  26.989  16.764   7.754
 1716POPC   NC324311  22.262  42.134   9.693
 1716POPC   PO424312  22.303  42.699  10.022
 1716POPC   GL124313  22.326  42.604   9.463
 1716POPC   GL224314  22.314  42.272   9.211
 1716POPC   C1A24315  22.415  42.702   8.980
 1716POPC   D2A24316  22.320  42.760   8.518
 1716POPC   C3A24317  22.354  42.455   8.172
 1716POPC   C4A24318  22.232  42.239   7.762
 1716POPC   C1B24319  22.068  42.359   8.824
 1716POPC   C2B24320  21.890  42.474   8.422
 1716POPC   C3B24321  21.834  42.246   8.065
 1716POPC   C4B24322  21.757  42.016   7.703
 1717POPC   NC324323   6.154   8.687   9.521
 1717POPC   PO424324   5.594   9.129   9.605
 1717POPC   GL124325   5.631   8.929   9.187
 1717POPC   GL224326   5.720   8.593   9.263
 1717POPC   C1A24327   5.700   8.960   8.738
 1717POPC   D2A24328   5.958   9.228   8.469
 1717POPC   C3A24329   5.975   9.059   8.074
 1717POPC   C4A24330   5.710   9.123   7.773
 1717POPC   C1B24331   6.045   8.591   8.878
 1717POPC   C2B24332   5.967   8.653   8.417
 1717POPC   C3B24333   6.118   8.550   7.988
 1717POPC   C4B24334   5.909   8.611   7.586
 1718POPC   NC324335  17.963   1.470   9.438
 1718POPC   PO424336  18.566   1.396   9.695
 1718POPC   GL124337  18.423   1.193   9.252
 1718POPC   GL224338  18.076   1.061   9.147
 1718POPC   C1A24339  18.402   1.157   8.764
 1718POPC   D2A24340  18.145   1.108   8.360
 1718POPC   C3A24341  18.289   1.445   8.097
 1718POPC   C4A24342  18.659   1.571   7.900
 1718POPC   C1B24343  17.760   1.042   8.790
 1718POPC   C2B24344  17.616   0.851   8.401
 1718POPC   C3B24345  17.803   0.840   8.014
 1718POPC   C4B24346  17.878   1.253   7.867
 1719POPC   NC324347  12.654   8.443   9.602
 1719POPC   PO424348  13.303   8.249   9.305
 1719POPC   GL124349  13.039   8.157   8.998
 1719POPC   GL224350  12.738   8.222   9.112
 1719POPC   C1A24351  12.886   8.258   8.588
 1719POPC   D2A24352  13.046   8.147   8.202
 1719POPC   C3A24353  12.923   8.383   7.849
 1719POPC   C4A24354  12.964   8.349   7.412
 1719POPC   C1B24355  12.510   7.967   8.797
 1719POPC   C2B24356  12.603   7.886   8.356
 1719POPC   C3B24357  12.503   8.165   8.024
 1719POPC   C4B24358  12.497   8.073   7.617
 1720POPC   NC324359  38.734  16.357   9.748
 1720POPC   PO424360  38.261  16.841   9.435
 1720POPC   GL124361  38.257  16.827   9.011
 1720POPC   GL224362  38.045  16.524   8.958
 1720POPC   C1A24363  38.568  16.877   8.701
 1720POPC   D2A24364  38.749  16.949   8.290
 1720POPC   C3A24365  38.434  16.943   7.971
 1720POPC   C4A24366  38.529  17.061   7.592
 1720POPC   C1B24367  37.889  16.806   8.670
 1720POPC   C2B24368  38.190  16.747   8.371
 1720POPC   C3B24369  38.255  16.447   8.040
 1720POPC   C4B24370  38.426  16.547   7.618
 1721POPC   NC324371   4.289   6.427   9.587
 1721POPC   PO424372   4.632   6.883   9.343
 1721POPC   GL124373   4.339   6.665   9.143
 1721POPC   GL224374   4.551   6.363   9.111
 1721POPC   C1A24375   3.989   6.810   8.891
 1721POPC   D2A24376   3.917   6.759   8.463
 1721POPC   C3A24377   4.015   6.908   8.025
 1721POPC   C4A24378   4.298   6.739   7.696
 1721POPC   C1B24379   4.315   6.446   8.695
 1721POPC   C2B24380   4.333   6.494   8.260
 1721POPC   C3B24381   4.437   6.298   7.893
 1721POPC   C4B24382   4.657   6.389   7.525
 1722POPC   NC324383   6.022  24.910   9.412
 1722POPC   PO424384   5.661  25.466   9.628
 1722POPC   GL124385   5.734  25.358   9.192
 1722POPC   GL224386   5.767  25.025   9.004
 1722POPC   C1A24387   5.553  25.444   8.798
 1722POPC   D2A24388   5.442  25.411   8.385
 1722POPC   C3A24389   5.783  25.220   8.183
 1722POPC   C4A24390   5.873  25.460   7.870
 1722POPC   C1B24391   6.164  24.856   8.775
 1722POPC   C2B24392   6.234  25.061   8.389
 1722POPC   C3B24393   6.215  24.958   7.970
 1722POPC   C4B24394   5.891  24.961   7.695
 1723POPC   NC324395  30.885   2.152   9.515
 1723POPC   PO424396  30.607   1.586   9.452
 1723POPC   GL124397  30.703   1.840   9.138
 1723POPC   GL224398  31.067   1.863   9.098
 1723POPC   C1A24399  30.625   2.080   8.785
 1723POPC   D2A24400  30.656   1.882   8.407
 1723POPC   C3A24401  30.544   2.148   8.100
 1723POPC   C4A24402  30.560   2.065   7.697
 1723POPC   C1B24403  31.113   2.054   8.681
 1723POPC   C2B24404  31.062   2.175   8.246
 1723POPC   C3B24405  31.074   2.118   7.812
 1723POPC   C4B24406  31.127   1.851   7.479
 1724POPC   NC324407   1.311  29.561   9.500
 1724POPC   PO424408   1.378  28.920   9.540
 1724POPC   GL124409   1.146  29.019   9.181
 1724POPC   GL224410   1.084  29.382   9.092
 1724POPC   C1A24411   1.229  28.981   8.765
 1724POPC   D2A24412   1.182  29.254   8.396
 1724POPC   C3A24413   1.194  29.021   8.029
 1724POPC   C4A24414   1.180  28.794   7.653
 1724POPC   C1B24415   1.437  29.482   8.812
 1724POPC   C2B24416   1.495  29.669   8.400
 1724POPC   C3B24417   1.493  29.483   7.957
 1724POPC   C4B24418   1.222  29.309   7.605
 1725POPC   NC324419   5.333  14.997   9.411
 1725POPC   PO424420   4.837  15.442   9.558
 1725POPC   GL124421   4.789  15.329   9.160
 1725POPC   GL224422   5.125  15.222   9.019
 1725POPC   C1A24423   4.721  15.232   8.761
 1725POPC   D2A24424   5.027  15.306   8.449
 1725POPC   C3A24425   4.914  15.079   8.102
 1725POPC   C4A24426   4.785  15.068   7.698
 1725POPC   C1B24427   5.197  14.879   8.721
 1725POPC   C2B24428   5.394  14.909   8.314
 1725POPC   C3B24429   5.295  14.796   7.895
 1725POPC   C4B24430   5.543  14.773   7.535
 1726POPC   NC324431  20.382  21.724   9.609
 1726POPC   PO424432  20.456  21.083   9.629
 1726POPC   GL124433  20.371  21.219   9.160
 1726POPC   GL224434  20.283  21.585   9.127
 1726POPC   C1A24435  20.560  21.401   8.733
 1726POPC   D2A24436  20.807  21.700   8.427
 1726POPC   C3A24437  20.762  21.586   7.976
 1726POPC   C4A24438  20.890  21.216   7.767
 1726POPC   C1B24439  20.214  21.814   8.730
 1726POPC   C2B24440  20.317  21.675   8.309
 1726POPC   C3B24441  20.246  21.571   7.878
 1726POPC   C4B24442  20.439  21.328   7.524
 1727POPC   NC324443  25.046  28.191   9.545
 1727POPC   PO424444  25.519  28.659   9.396
 1727POPC   GL124445  25.327  28.387   9.132
 1727POPC   GL224446  24.981  28.386   9.085
 1727POPC   C1A24447  25.336  28.185   8.753
 1727POPC   D2A24448  25.408  28.409   8.406
 1727POPC   C3A24449  25.218  28.339   8.062
 1727POPC   C4A24450  25.405  28.532   7.722
 1727POPC   C1B24451  25.048  28.617   8.721
 1727POPC   C2B24452  25.037  28.804   8.312
 1727POPC   C3B24453  24.940  28.742   7.889
 1727POPC   C4B24454  24.941  28.379   7.640
 1728POPC   NC324455  33.541   5.154   9.861
 1728POPC   PO424456  33.954   5.078   9.344
 1728POPC   GL124457  33.930   4.811   9.063
 1728POPC   GL224458  33.634   4.705   9.101
 1728POPC   C1A24459  33.911   4.892   8.642
 1728POPC   D2A24460  33.767   5.226   8.382
 1728POPC   C3A24461  34.022   5.190   8.030
 1728POPC   C4A24462  33.996   4.857   7.713
 1728POPC   C1B24463  33.474   4.607   8.693
 1728POPC   C2B24464  33.584   4.704   8.282
 1728POPC   C3B24465  33.545   4.943   7.930
 1728POPC   C4B24466  33.527   4.644   7.585
 1729POPC   NC324467  19.900  40.181   9.750
 1729POPC   PO424468  20.602  40.174   9.551
 1729POPC   GL124469  20.623  39.997   9.110
 1729POPC   GL224470  20.277  39.910   9.069
 1729POPC   C1A24471  20.560  39.950   8.617
 1729POPC   D2A24472  20.735  39.894   8.196
 1729POPC   C3A24473  20.441  40.111   7.933
 1729POPC   C4A24474  20.293  40.219   7.526
 1729POPC   C1B24475  20.346  39.553   8.812
 1729POPC   C2B24476  20.438  39.497   8.350
 1729POPC   C3B24477  20.236  39.639   7.944
 1729POPC   C4B24478  20.441  39.721   7.542
 1730POPC   NC324479  35.923  40.933   9.261
 1730POPC   PO424480  36.476  40.672   9.538
 1730POPC   GL124481  36.305  40.427   9.145
 1730POPC   GL224482  36.284  40.692   9.049
 1730POPC   C1A24483  36.121  40.441   8.671
 1730POPC   D2A24484  35.984  40.818   8.470
 1730POPC   C3A24485  35.910  40.798   8.049
 1730POPC   C4A24486  36.165  40.635   7.746
 1730POPC   C1B24487  36.473  40.966   8.845
 1730POPC   C2B24488  36.422  41.110   8.497
 1730POPC   C3B24489  36.352  41.048   8.094
 1730POPC   C4B24490  36.581  41.001   7.728
 1731POPC   NC324491  25.154  40.167   9.507
 1731POPC   PO424492  25.490  39.677   9.305
 1731POPC   GL124493  25.261  39.960   9.036
 1731POPC   GL224494  25.180  40.326   9.032
 1731POPC   C1A24495  25.342  39.945   8.608
 1731POPC   D2A24496  25.409  39.627   8.332
 1731POPC   C3A24497  25.400  39.874   7.958
 1731POPC   C4A24498  25.204  40.240   7.780
 1731POPC   C1B24499  25.249  40.444   8.610
 1731POPC   C2B24500  25.610  40.476   8.350
 1731POPC   C3B24501  25.648  40.511   7.914
 1731POPC   C4B24502  25.356  40.720   7.623
 1732POPC   NC324503  10.112  38.608   9.543
 1732POPC   PO424504   9.882  38.022   9.497
 1732POPC   GL124505   9.812  38.346   9.192
 1732POPC   GL224506   9.456  38.423   9.317
 1732POPC   C1A24507   9.878  38.392   8.719
 1732POPC   D2A24508  10.117  38.361   8.306
 1732POPC   C3A24509  10.027  38.443   7.834
 1732POPC   C4A24510   9.792  38.361   7.393
 1732POPC   C1B24511   9.400  38.253   8.910
 1732POPC   C2B24512   9.405  38.412   8.514
 1732POPC   C3B24513   9.595  38.256   8.155
 1732POPC   C4B24514   9.521  38.464   7.801
 1733POPC   NC324515  38.371  31.646   9.582
 1733POPC   PO424516  38.945  31.324   9.712
 1733POPC   GL124517  38.766  31.612   9.283
 1733POPC   GL224518  38.441  31.375   9.166
 1733POPC   C1A24519  38.593  31.723   8.835
 1733POPC   D2A24520  38.493  31.464   8.433
 1733POPC   C3A24521  38.626  31.588   7.992
 1733POPC   C4A24522  38.430  31.714   7.572
 1733POPC   C1B24523  38.367  30.993   8.916
 1733POPC   C2B24524  38.347  30.911   8.505
 1733POPC   C3B24525  38.459  31.067   8.097
 1733POPC   C4B24526  38.425  31.214   7.696
 1734POPC   NC324527  23.282  16.682   9.416
 1734POPC   PO424528  22.680  16.959   9.484
 1734POPC   GL124529  22.955  17.009   9.166
 1734POPC   GL224530  22.908  16.679   9.048
 1734POPC   C1A24531  22.879  17.143   8.738
 1734POPC   D2A24532  23.036  17.010   8.333
 1734POPC   C3A24533  22.757  16.922   8.004
 1734POPC   C4A24534  22.723  17.120   7.612
 1734POPC   C1B24535  22.997  16.588   8.643
 1734POPC   C2B24536  22.948  16.486   8.216
 1734POPC   C3B24537  23.192  16.598   7.893
 1734POPC   C4B24538  23.197  16.375   7.526
 1735POPC   NC324539  27.757  28.109   9.392
 1735POPC   PO424540  27.230  28.622   9.380
 1735POPC   GL124541  27.479  28.436   9.076
 1735POPC   GL224542  27.806  28.528   9.114
 1735POPC   C1A24543  27.508  28.097   8.790
 1735POPC   D2A24544  27.680  28.147   8.394
 1735POPC   C3A24545  27.490  28.146   8.025
 1735POPC   C4A24546  27.393  28.451   7.740
 1735POPC   C1B24547  28.016  28.253   8.775
 1735POPC   C2B24548  28.140  28.362   8.348
 1735POPC   C3B24549  27.890  28.471   7.998
 1735POPC   C4B24550  27.841  28.215   7.630
 1736POPC   NC324551   3.844  39.177   9.640
 1736POPC   PO424552   3.355  38.752   9.566
 1736POPC   GL124553   3.524  39.006   9.221
 1736POPC   GL224554   3.605  39.351   9.140
 1736POPC   C1A24555   3.661  38.969   8.792
 1736POPC   D2A24556   3.453  39.092   8.416
 1736POPC   C3A24557   3.681  38.981   8.060
 1736POPC   C4A24558   3.430  39.024   7.729
 1736POPC   C1B24559   3.839  39.492   8.763
 1736POPC   C2B24560   3.751  39.487   8.316
 1736POPC   C3B24561   3.513  39.493   7.950
 1736POPC   C4B24562   3.820  39.661   7.711
 1737POPC   NC324563  25.926  44.102   9.511
 1737POPC   PO424564  25.423  43.663   9.473
 1737POPC   GL124565  25.792  43.658   9.177
 1737POPC   GL224566  26.141  43.812   9.155
 1737POPC   C1A24567  25.798  43.818   8.756
 1737POPC   D2A24568  25.979  43.957   8.376
 1737POPC   C3A24569  25.729  44.083   8.065
 1737POPC   C4A24570  25.836  43.870   7.726
 1737POPC   C1B24571  26.290  44.035   8.782
 1737POPC   C2B24572  26.433  44.198   8.394
 1737POPC   C3B24573  26.354  44.068   7.965
 1737POPC   C4B24574  26.455  44.238   7.560
 1738POPC   NC324575  30.635  24.811   9.489
 1738POPC   PO424576  30.900  24.131   9.506
 1738POPC   GL124577  30.836  24.434   9.180
 1738POPC   GL224578  30.520  24.530   9.060
 1738POPC   C1A24579  30.907  24.295   8.767
 1738POPC   D2A24580  30.658  24.112   8.449
 1738POPC   C3A24581  30.880  24.194   8.066
 1738POPC   C4A24582  30.720  24.326   7.682
 1738POPC   C1B24583  30.776  24.792   8.764
 1738POPC   C2B24584  30.860  24.698   8.330
 1738POPC   C3B24585  30.542  24.681   8.017
 1738POPC   C4B24586  30.570  24.818   7.625
 1739POPC   NC324587  32.184  43.434   9.476
 1739POPC   PO424588  32.404  42.813   9.504
 1739POPC   GL124589  32.260  43.059   9.143
 1739POPC   GL224590  32.472  43.353   9.066
 1739POPC   C1A24591  31.990  43.113   8.783
 1739POPC   D2A24592  32.160  42.951   8.385
 1739POPC   C3A24593  32.109  43.123   7.991
 1739POPC   C4A24594  32.233  43.047   7.553
 1739POPC   C1B24595  32.463  43.263   8.677
 1739POPC   C2B24596  32.498  43.525   8.383
 1739POPC   C3B24597  32.574  43.312   8.056
 1739POPC   C4B24598  32.523  43.455   7.655
 1740POPC   NC324599   2.936  18.532   9.538
 1740POPC   PO424600   2.549  17.997   9.548
 1740POPC   GL124601   2.676  18.026   9.145
 1740POPC   GL224602   2.973  18.188   9.182
 1740POPC   C1A24603   2.775  17.958   8.734
 1740POPC   D2A24604   2.715  18.221   8.402
 1740POPC   C3A24605   2.701  18.050   8.021
 1740POPC   C4A24606   2.503  18.302   7.698
 1740POPC   C1B24607   3.048  18.383   8.799
 1740POPC   C2B24608   3.222  18.158   8.497
 1740POPC   C3B24609   3.156  18.335   8.132
 1740POPC   C4B24610   3.010  18.367   7.751
 1741POPC   NC324611  28.106  20.777   9.343
 1741POPC   PO424612  27.604  20.378   9.502
 1741POPC   GL124613  27.500  20.278   9.058
 1741POPC   GL224614  27.619  20.620   9.023
 1741POPC   C1A24615  27.459  20.397   8.571
 1741POPC   D2A24616  27.531  20.772   8.339
 1741POPC   C3A24617  27.321  20.854   7.933
 1741POPC   C4A24618  27.456  20.751   7.499
 1741POPC   C1B24619  27.916  20.534   8.710
 1741POPC   C2B24620  27.913  20.369   8.285
 1741POPC   C3B24621  27.680  20.472   7.915
 1741POPC   C4B24622  27.897  20.558   7.550
 1742POPC   NC324623  20.524   5.331   9.374
 1742POPC   PO424624  20.329   4.754   9.700
 1742POPC   GL124625  20.626   4.699   9.237
 1742POPC   GL224626  20.851   4.972   9.142
 1742POPC   C1A24627  20.578   4.752   8.757
 1742POPC   D2A24628  20.578   5.069   8.443
 1742POPC   C3A24629  20.481   4.964   8.028
 1742POPC   C4A24630  20.293   5.321   7.867
 1742POPC   C1B24631  20.895   5.307   8.815
 1742POPC   C2B24632  20.938   5.499   8.408
 1742POPC   C3B24633  20.798   5.409   8.006
 1742POPC   C4B24634  20.946   5.066   7.789
 1743POPC   NC324635  17.570   7.310   9.658
 1743POPC   PO424636  17.095   7.658   9.494
 1743POPC   GL124637  17.298   7.467   9.133
 1743POPC   GL224638  17.637   7.353   9.164
 1743POPC   C1A24639  17.250   7.524   8.668
 1743POPC   D2A24640  17.207   7.584   8.219
 1743POPC   C3A24641  17.557   7.516   7.936
 1743POPC   C4A24642  17.601   7.597   7.503
 1743POPC   C1B24643  17.693   7.680   8.850
 1743POPC   C2B24644  17.743   7.635   8.401
 1743POPC   C3B24645  18.058   7.657   8.049
 1743POPC   C4B24646  18.080   7.784   7.623
 1744POPC   NC324647  21.259  42.346   9.586
 1744POPC   PO424648  21.876  42.165   9.438
 1744POPC   GL124649  21.466  42.116   9.175
 1744POPC   GL224650  21.214  42.405   9.080
 1744POPC   C1A24651  21.263  41.966   8.793
 1744POPC   D2A24652  21.528  42.030   8.429
 1744POPC   C3A24653  21.331  42.091   8.026
 1744POPC   C4A24654  21.439  42.460   7.779
 1744POPC   C1B24655  20.965  42.376   8.689
 1744POPC   C2B24656  20.955  42.553   8.297
 1744POPC   C3B24657  20.874  42.322   7.948
 1744POPC   C4B24658  21.039  42.207   7.580
 1745POPC   NC324659  26.288  28.630   9.446
 1745POPC   PO424660  26.829  28.489   9.815
 1745POPC   GL124661  26.748  28.370   9.253
 1745POPC   GL224662  27.036  28.191   9.107
 1745POPC   C1A24663  26.608  28.267   8.831
 1745POPC   D2A24664  26.551  28.473   8.431
 1745POPC   C3A24665  26.590  28.190   8.106
 1745POPC   C4A24666  26.556  28.340   7.715
 1745POPC   C1B24667  27.096  28.362   8.666
 1745POPC   C2B24668  27.058  28.354   8.210
 1745POPC   C3B24669  27.009  28.134   7.818
 1745POPC   C4B24670  27.076  27.926   7.458
 1746POPC   NC324671  20.799  11.096   9.568
 1746POPC   PO424672  20.594  11.725   9.535
 1746POPC   GL124673  20.649  11.496   9.133
 1746POPC   GL224674  20.645  11.145   9.089
 1746POPC   C1A24675  20.765  11.632   8.732
 1746POPC   D2A24676  20.893  11.497   8.340
 1746POPC   C3A24677  20.828  11.412   7.925
 1746POPC   C4A24678  20.807  11.061   7.665
 1746POPC   C1B24679  20.561  11.174   8.632
 1746POPC   C2B24680  20.468  11.150   8.175
 1746POPC   C3B24681  20.328  11.237   7.729
 1746POPC   C4B24682  20.065  11.055   7.374
 1747POPC   NC324683  38.905  29.186   9.474
 1747POPC   PO424684  39.525  28.740   9.716
 1747POPC   GL124685  39.660  28.784   9.177
 1747POPC   GL224686  39.422  29.075   9.007
 1747POPC   C1A24687  39.744  28.928   8.689
 1747POPC   D2A24688  39.413  29.234   8.489
 1747POPC   C3A24689  39.297  29.148   8.057
 1747POPC   C4A24690  39.433  28.952   7.670
 1747POPC   C1B24691  39.019  29.043   8.795
 1747POPC   C2B24692  38.860  29.226   8.454
 1747POPC   C3B24693  39.005  29.546   8.180
 1747POPC   C4B24694  39.153  29.647   7.772
 1748POPC   NC324695   5.377  36.278   9.531
 1748POPC   PO424696   4.881  35.837   9.550
 1748POPC   GL124697   5.001  36.087   9.246
 1748POPC   GL224698   4.836  35.948   9.034
 1748POPC   C1A24699   5.265  36.157   8.888
 1748POPC   D2A24700   5.357  36.475   8.596
 1748POPC   C3A24701   5.239  36.482   8.168
 1748POPC   C4A24702   5.119  36.261   7.806
 1748POPC   C1B24703   4.873  36.032   8.598
 1748POPC   C2B24704   5.175  35.987   8.284
 1748POPC   C3B24705   4.989  35.797   7.929
 1748POPC   C4B24706   4.727  35.861   7.547
 1749POPC   NC324707  37.453   6.884   9.423
 1749POPC   PO424708  37.639   7.553   9.482
 1749POPC   GL124709  37.570   7.329   9.128
 1749POPC   GL224710  37.724   7.609   8.989
 1749POPC   C1A24711  37.709   7.232   8.679
 1749POPC   D2A24712  37.712   7.583   8.420
 1749POPC   C3A24713  37.690   7.349   8.056
 1749POPC   C4A24714  37.516   7.133   7.751
 1749POPC   C1B24715  37.431   7.848   8.766
 1749POPC   C2B24716  37.279   7.879   8.334
 1749POPC   C3B24717  37.560   7.869   7.983
 1749POPC   C4B24718  37.978   7.715   7.875
 1750POPC   NC324719  18.105  22.990   9.644
 1750POPC   PO424720  18.450  22.484   9.462
 1750POPC   GL124721  18.358  22.792   9.127
 1750POPC   GL224722  18.251  23.158   9.180
 1750POPC   C1A24723  18.473  22.672   8.705
 1750POPC   D2A24724  18.727  22.636   8.347
 1750POPC   C3A24725  18.503  22.844   8.041
 1750POPC   C4A24726  18.260  22.730   7.705
 1750POPC   C1B24727  18.205  23.444   8.824
 1750POPC   C2B24728  18.356  23.446   8.383
 1750POPC   C3B24729  18.242  23.276   7.957
 1750POPC   C4B24730  17.995  23.130   7.586
 1751POPC   NC324731  17.065  26.815   9.604
 1751POPC   PO424732  16.430  26.578   9.642
 1751POPC   GL124733  16.580  26.667   9.220
 1751POPC   GL224734  16.943  26.628   9.126
 1751POPC   C1A24735  16.573  26.609   8.755
 1751POPC   D2A24736  16.717  26.559   8.320
 1751POPC   C3A24737  16.501  26.805   7.992
 1751POPC   C4A24738  16.285  27.170   7.798
 1751POPC   C1B24739  17.196  26.725   8.754
 1751POPC   C2B24740  17.182  26.823   8.328
 1751POPC   C3B24741  17.071  26.688   7.961
 1751POPC   C4B24742  17.005  26.908   7.598
 1752POPC   NC324743   9.700  37.249   9.599
 1752POPC   PO424744   9.417  36.677   9.528
 1752POPC   GL124745   9.518  37.000   9.205
 1752POPC   GL224746   9.293  37.272   9.154
 1752POPC   C1A24747   9.849  37.043   8.878
 1752POPC   D2A24748   9.849  36.751   8.525
 1752POPC   C3A24749   9.963  36.917   8.121
 1752POPC   C4A24750   9.806  36.669   7.817
 1752POPC   C1B24751   9.349  37.053   8.734
 1752POPC   C2B24752   9.457  37.005   8.280
 1752POPC   C3B24753   9.459  37.038   7.822
 1752POPC   C4B24754   9.573  37.368   7.514
 1753POPC   NC324755  18.758  14.657   9.374
 1753POPC   PO424756  19.089  14.195   9.746
 1753POPC   GL124757  18.978  14.262   9.185
 1753POPC   GL224758  19.315  14.334   8.963
 1753POPC   C1A24759  18.892  14.507   8.771
 1753POPC   D2A24760  18.850  14.367   8.373
 1753POPC   C3A24761  18.970  14.693   8.089
 1753POPC   C4A24762  18.819  14.732   7.684
 1753POPC   C1B24763  19.092  14.007   8.695
 1753POPC   C2B24764  19.055  13.924   8.244
 1753POPC   C3B24765  18.986  14.197   7.899
 1753POPC   C4B24766  19.286  14.455   7.774
 1754POPC   NC324767  28.932   7.620   9.490
 1754POPC   PO424768  29.566   7.338   9.532
 1754POPC   GL124769  29.354   7.271   9.172
 1754POPC   GL224770  28.998   7.209   9.172
 1754POPC   C1A24771  29.316   7.288   8.745
 1754POPC   D2A24772  29.028   7.125   8.447
 1754POPC   C3A24773  29.143   7.402   8.096
 1754POPC   C4A24774  29.342   7.561   7.727
 1754POPC   C1B24775  28.862   7.493   8.832
 1754POPC   C2B24776  28.617   7.412   8.440
 1754POPC   C3B24777  28.679   7.248   8.014
 1754POPC   C4B24778  28.799   7.469   7.641
 1755POPC   NC324779  14.974  12.821   9.591
 1755POPC   PO424780  15.538  12.441   9.532
 1755POPC   GL124781  15.374  12.858   9.265
 1755POPC   GL224782  15.063  12.821   9.092
 1755POPC   C1A24783  15.395  13.038   8.799
 1755POPC   D2A24784  15.129  12.961   8.414
 1755POPC   C3A24785  15.281  13.192   8.107
 1755POPC   C4A24786  15.510  12.980   7.824
 1755POPC   C1B24787  14.809  13.061   8.789
 1755POPC   C2B24788  14.647  13.183   8.399
 1755POPC   C3B24789  14.773  13.165   8.017
 1755POPC   C4B24790  14.996  12.805   7.852
 1756POPC   NC324791   4.416  12.285   9.386
 1756POPC   PO424792   4.170  11.655   9.595
 1756POPC   GL124793   4.183  11.852   9.185
 1756POPC   GL224794   3.995  12.160   9.135
 1756POPC   C1A24795   4.205  11.931   8.730
 1756POPC   D2A24796   4.108  12.071   8.350
 1756POPC   C3A24797   4.380  11.978   7.990
 1756POPC   C4A24798   4.659  12.281   7.783
 1756POPC   C1B24799   3.793  12.304   8.750
 1756POPC   C2B24800   3.739  12.423   8.312
 1756POPC   C3B24801   4.008  12.353   7.926
 1756POPC   C4B24802   3.907  12.469   7.482
 1757POPC   NC324803  25.627   6.570   9.484
 1757POPC   PO424804  25.069   6.437   9.654
 1757POPC   GL124805  25.210   6.446   9.202
 1757POPC   GL224806  25.256   6.804   9.168
 1757POPC   C1A24807  25.225   6.538   8.725
 1757POPC   D2A24808  25.078   6.857   8.399
 1757POPC   C3A24809  25.058   6.690   7.971
 1757POPC   C4A24810  24.686   6.730   7.748
 1757POPC   C1B24811  25.381   7.043   8.783
 1757POPC   C2B24812  25.574   6.998   8.369
 1757POPC   C3B24813  25.416   7.090   7.959
 1757POPC   C4B24814  25.456   7.064   7.498
 1758POPC   NC324815  29.676  38.294   9.456
 1758POPC   PO424816  30.187  38.519   9.201
 1758POPC   GL124817  29.868  38.284   8.977
 1758POPC   GL224818  29.575  38.525   9.016
 1758POPC   C1A24819  29.673  38.292   8.579
 1758POPC   D2A24820  29.565  38.636   8.332
 1758POPC   C3A24821  29.736  38.578   7.948
 1758POPC   C4A24822  30.027  38.257   7.906
 1758POPC   C1B24823  29.833  38.768   8.747
 1758POPC   C2B24824  30.247  38.789   8.558
 1758POPC   C3B24825  30.397  38.704   8.139
 1758POPC   C4B24826  30.173  38.757   7.769
 1759POPC   NC324827  27.834  36.878   9.570
 1759POPC   PO424828  28.488  36.809   9.488
 1759POPC   GL124829  28.198  36.990   9.210
 1759POPC   GL224830  28.043  36.680   9.147
 1759POPC   C1A24831  28.269  37.029   8.787
 1759POPC   D2A24832  28.620  37.089   8.502
 1759POPC   C3A24833  28.447  37.145   8.099
 1759POPC   C4A24834  28.515  37.002   7.671
 1759POPC   C1B24835  28.121  36.530   8.759
 1759POPC   C2B24836  28.192  36.717   8.393
 1759POPC   C3B24837  28.318  36.643   8.023
 1759POPC   C4B24838  28.118  36.684   7.673
 1760POPC   NC324839   4.530  42.098   9.750
 1760POPC   PO424840   4.279  42.733   9.543
 1760POPC   GL124841   4.339  42.554   9.156
 1760POPC   GL224842   4.699  42.628   9.115
 1760POPC   C1A24843   4.123  42.375   8.789
 1760POPC   D2A24844   4.343  42.071   8.492
 1760POPC   C3A24845   4.248  42.079   8.072
 1760POPC   C4A24846   4.003  42.389   7.794
 1760POPC   C1B24847   4.596  42.488   8.698
 1760POPC   C2B24848   4.309  42.565   8.334
 1760POPC   C3B24849   4.457  42.533   7.939
 1760POPC   C4B24850   4.482  42.193   7.643
 1761POPC   NC324851  13.462   5.310   9.631
 1761POPC   PO424852  13.881   4.851   9.657
 1761POPC   GL124853  13.717   5.104   9.234
 1761POPC   GL224854  13.483   5.362   9.107
 1761POPC   C1A24855  13.576   4.978   8.759
 1761POPC   D2A24856  13.715   5.077   8.348
 1761POPC   C3A24857  13.550   4.905   7.965
 1761POPC   C4A24858  13.479   5.271   7.715
 1761POPC   C1B24859  13.898   5.357   8.826
 1761POPC   C2B24860  14.080   5.446   8.389
 1761POPC   C3B24861  13.905   5.425   7.967
 1761POPC   C4B24862  13.863   5.583   7.530
 1762POPC   NC324863  31.318  12.288   9.630
 1762POPC   PO424864  31.537  11.765   9.543
 1762POPC   GL124865  31.354  11.979   9.199
 1762POPC   GL224866  31.626  12.188   9.212
 1762POPC   C1A24867  31.315  11.938   8.744
 1762POPC   D2A24868  31.172  11.772   8.342
 1762POPC   C3A24869  31.237  12.082   8.021
 1762POPC   C4A24870  31.140  12.090   7.608
 1762POPC   C1B24871  31.787  12.191   8.808
 1762POPC   C2B24872  31.627  12.235   8.412
 1762POPC   C3B24873  31.857  12.336   8.052
 1762POPC   C4B24874  31.636  12.255   7.707
 1763POPC   NC324875   5.480  21.843   9.506
 1763POPC   PO424876   5.203  22.485   9.564
 1763POPC   GL124877   5.229  22.244   9.199
 1763POPC   GL224878   5.007  21.957   9.249
 1763POPC   C1A24879   5.140  22.260   8.766
 1763POPC   D2A24880   5.378  22.132   8.392
 1763POPC   C3A24881   5.334  22.355   7.986
 1763POPC   C4A24882   5.440  22.170   7.592
 1763POPC   C1B24883   4.780  21.870   8.877
 1763POPC   C2B24884   4.834  21.986   8.456
 1763POPC   C3B24885   4.818  21.787   8.074
 1763POPC   C4B24886   4.993  21.960   7.752
 1764POPC   NC324887   6.234  39.333   9.572
 1764POPC   PO424888   5.562  39.386   9.581
 1764POPC   GL124889   5.743  39.373   9.193
 1764POPC   GL224890   6.112  39.307   9.089
 1764POPC   C1A24891   5.690  39.152   8.833
 1764POPC   D2A24892   5.835  39.251   8.450
 1764POPC   C3A24893   5.706  38.925   8.179
 1764POPC   C4A24894   5.573  38.928   7.765
 1764POPC   C1B24895   6.407  39.115   8.784
 1764POPC   C2B24896   6.267  39.039   8.350
 1764POPC   C3B24897   6.080  39.189   7.967
 1764POPC   C4B24898   6.236  39.088   7.586
 1765POPC   NC324899  37.401  14.295   9.541
 1765POPC   PO424900  38.032  14.188   9.541
 1765POPC   GL124901  37.778  14.444   9.219
 1765POPC   GL224902  37.421  14.542   9.128
 1765POPC   C1A24903  37.818  14.418   8.818
 1765POPC   D2A24904  37.672  14.163   8.537
 1765POPC   C3A24905  37.897  14.185   8.173
 1765POPC   C4A24906  37.730  14.043   7.804
 1765POPC   C1B24907  37.356  14.632   8.759
 1765POPC   C2B24908  37.539  14.635   8.401
 1765POPC   C3B24909  37.500  14.472   8.012
 1765POPC   C4B24910  37.355  14.620   7.621
 1766POPC   NC324911  10.813   5.009   9.374
 1766POPC   PO424912  10.081   5.226   9.299
 1766POPC   GL124913  10.490   5.297   9.045
 1766POPC   GL224914  10.482   4.995   8.999
 1766POPC   C1A24915  10.817   5.302   8.712
 1766POPC   D2A24916  10.782   5.322   8.266
 1766POPC   C3A24917  10.381   5.167   8.140
 1766POPC   C4A24918  10.309   4.840   7.853
 1766POPC   C1B24919  10.731   4.796   8.699
 1766POPC   C2B24920  10.845   4.660   8.288
 1766POPC   C3B24921  10.795   4.599   7.851
 1766POPC   C4B24922  10.765   4.812   7.398
 1767POPC   NC324923  38.015  43.919   9.636
 1767POPC   PO424924  37.399  44.295   9.710
 1767POPC   GL124925  37.560  44.006   9.312
 1767POPC   GL224926  37.838  43.762   9.202
 1767POPC   C1A24927  37.649  44.037   8.850
 1767POPC   D2A24928  37.617  43.848   8.449
 1767POPC   C3A24929  37.762  44.030   8.087
 1767POPC   C4A24930  37.675  43.893   7.728
 1767POPC   C1B24931  38.022  43.657   8.813
 1767POPC   C2B24932  37.963  43.471   8.390
 1767POPC   C3B24933  38.075  43.638   8.001
 1767POPC   C4B24934  38.044  43.588   7.560
 1768POPC   NC324935   2.545   1.391   9.543
 1768POPC   PO424936   3.196   1.394   9.472
 1768POPC   GL124937   2.857   1.486   9.136
 1768POPC   GL224938   2.745   1.154   9.076
 1768POPC   C1A24939   2.726   1.407   8.669
 1768POPC   D2A24940   2.905   1.012   8.540
 1768POPC   C3A24941   2.944   0.973   8.096
 1768POPC   C4A24942   3.213   1.199   7.818
 1768POPC   C1B24943   2.431   0.977   8.763
 1768POPC   C2B24944   2.504   0.824   8.333
 1768POPC   C3B24945   2.412   1.004   7.976
 1768POPC   C4B24946   2.694   1.363   7.856
 1769POPC   NC324947  14.920   5.095   9.480
 1769POPC   PO424948  15.561   5.127   9.490
 1769POPC   GL124949  15.333   5.306   9.170
 1769POPC   GL224950  15.069   5.566   9.286
 1769POPC   C1A24951  15.271   5.052   8.797
 1769POPC   D2A24952  15.119   4.732   8.551
 1769POPC   C3A24953  15.091   4.961   8.179
 1769POPC   C4A24954  14.966   4.986   7.775
 1769POPC   C1B24955  14.906   5.390   8.889
 1769POPC   C2B24956  15.067   5.442   8.461
 1769POPC   C3B24957  14.910   5.458   8.033
 1769POPC   C4B24958  14.754   5.417   7.611
 1770POPC   NC324959  30.751  35.054   9.487
 1770POPC   PO424960  30.392  34.490   9.784
 1770POPC   GL124961  30.443  34.558   9.300
 1770POPC   GL224962  30.768  34.691   9.114
 1770POPC   C1A24963  30.444  34.326   8.881
 1770POPC   D2A24964  30.433  34.455   8.446
 1770POPC   C3A24965  30.512  34.285   8.047
 1770POPC   C4A24966  30.514  34.638   7.760
 1770POPC   C1B24967  30.732  34.804   8.645
 1770POPC   C2B24968  30.868  34.650   8.187
 1770POPC   C3B24969  30.996  34.807   7.749
 1770POPC   C4B24970  31.148  34.848   7.296
 1771POPC   NC324971  10.611  38.678   9.385
 1771POPC   PO424972  10.381  38.064   9.684
 1771POPC   GL124973  10.342  38.239   9.245
 1771POPC   GL224974  10.589  38.026   9.061
 1771POPC   C1A24975  10.379  38.413   8.807
 1771POPC   D2A24976  10.642  38.672   8.540
 1771POPC   C3A24977  10.439  38.748   8.191
 1771POPC   C4A24978  10.473  38.703   7.799
 1771POPC   C1B24979  10.857  38.241   8.730
 1771POPC   C2B24980  10.593  38.171   8.376
 1771POPC   C3B24981  10.480  38.203   7.950
 1771POPC   C4B24982  10.613  38.233   7.521
 1772POPC   NC324983   6.538  33.204   9.799
 1772POPC   PO424984   6.937  32.671   9.535
 1772POPC   GL124985   6.803  33.144   9.331
 1772POPC   GL224986   6.433  33.193   9.147
 1772POPC   C1A24987   6.870  33.346   8.934
 1772POPC   D2A24988   6.918  33.185   8.536
 1772POPC   C3A24989   7.047  33.359   8.167
 1772POPC   C4A24990   6.921  33.074   7.860
 1772POPC   C1B24991   6.494  32.990   8.744
 1772POPC   C2B24992   6.418  33.133   8.313
 1772POPC   C3B24993   6.390  33.085   7.861
 1772POPC   C4B24994   6.236  32.903   7.457
 1773POPC   NC324995   9.075   5.694   9.478
 1773POPC   PO424996   8.765   6.254   9.593
 1773POPC   GL124997   8.890   6.096   9.203
 1773POPC   GL224998   8.660   5.795   9.210
 1773POPC   C1A24999   9.038   6.280   8.801
 1773POPC   D2A25000   9.032   5.972   8.472
 1773POPC   C3A25001   9.054   6.026   8.042
 1773POPC   C4A25002   9.296   5.735   7.764
 1773POPC   C1B25003   8.593   5.551   8.854
 1773POPC   C2B25004   8.887   5.466   8.546
 1773POPC   C3B25005   9.002   5.521   8.136
 1773POPC   C4B25006   8.795   5.613   7.749
 1774POPC   NC325007  30.780  44.113   9.471
 1774POPC   PO425008  30.840  44.811   9.604
 1774POPC   GL125009  30.688  44.745   9.194
 1774POPC   GL225010  30.337  44.648   9.151
 1774POPC   C1A25011  30.765  44.502   8.831
 1774POPC   D2A25012  30.943  44.413   8.414
 1774POPC   C3A25013  30.703  44.626   8.119
 1774POPC   C4A25014  30.677  44.471   7.707
 1774POPC   C1B25015  30.234  44.637   8.704
 1774POPC   C2B25016  30.157  44.500   8.268
 1774POPC   C3B25017  30.212  44.585   7.799
 1774POPC   C4B25018  30.408  44.722   7.360
 1775POPC   NC325019   0.063  14.887   9.487
 1775POPC   PO425020  44.924  15.523   9.436
 1775POPC   GL125021  44.538  15.269   9.327
 1775POPC   GL225022  44.573  14.938   9.218
 1775POPC   C1A25023  44.426  15.314   8.920
 1775POPC   D2A25024  44.681  15.473   8.565
 1775POPC   C3A25025  44.730  15.288   8.121
 1775POPC   C4A25026  44.452  15.362   7.730
 1775POPC   C1B25027  44.843  15.017   8.832
 1775POPC   C2B25028   0.045  14.992   8.413
 1775POPC   C3B25029   0.032  14.764   8.025
 1775POPC   C4B25030  44.762  14.925   7.712
 1776POPC   NC325031  41.812  38.618   9.482
 1776POPC   PO425032  41.150  38.592   9.451
 1776POPC   GL125033  41.435  38.487   9.129
 1776POPC   GL225034  41.667  38.185   9.210
 1776POPC   C1A25035  41.380  38.466   8.682
 1776POPC   D2A25036  41.223  38.469   8.271
 1776POPC   C3A25037  41.379  38.634   7.938
 1776POPC   C4A25038  41.440  38.241   7.711
 1776POPC   C1B25039  41.850  38.392   8.853
 1776POPC   C2B25040  41.891  38.302   8.450
 1776POPC   C3B25041  41.853  38.424   8.037
 1776POPC   C4B25042  41.943  38.240   7.646
 1777POPC   NC325043  15.320  17.917   9.364
 1777POPC   PO425044  15.178  17.250   9.450
 1777POPC   GL125045  15.137  17.506   9.107
 1777POPC   GL225046  15.492  17.506   9.120
 1777POPC   C1A25047  15.174  17.664   8.712
 1777POPC   D2A25048  15.175  17.380   8.374
 1777POPC   C3A25049  15.213  17.552   8.042
 1777POPC   C4A25050  15.271  17.711   7.697
 1777POPC   C1B25051  15.486  17.264   8.755
 1777POPC   C2B25052  15.674  17.292   8.327
 1777POPC   C3B25053  15.545  17.207   7.880
 1777POPC   C4B25054  15.535  17.289   7.441
 1778POPC   NC325055  42.755  26.729   9.581
 1778POPC   PO425056  43.101  27.242   9.735
 1778POPC   GL125057  43.284  27.001   9.347
 1778POPC   GL225058  43.118  26.699   9.199
 1778POPC   C1A25059  43.228  27.043   8.868
 1778POPC   D2A25060  43.358  26.851   8.496
 1778POPC   C3A25061  43.229  26.956   8.076
 1778POPC   C4A25062  43.406  26.830   7.693
 1778POPC   C1B25063  43.166  26.489   8.788
 1778POPC   C2B25064  42.984  26.542   8.345
 1778POPC   C3B25065  43.048  26.499   7.911
 1778POPC   C4B25066  43.374  26.317   7.690
 1779POPC   NC325067  31.724  14.212   9.595
 1779POPC   PO425068  31.265  14.682   9.638
 1779POPC   GL125069  31.472  14.565   9.235
 1779POPC   GL225070  31.475  14.179   9.153
 1779POPC   C1A25071  31.483  14.526   8.768
 1779POPC   D2A25072  31.477  14.164   8.459
 1779POPC   C3A25073  31.392  14.183   7.988
 1779POPC   C4A25074  31.403  14.339   7.540
 1779POPC   C1B25075  31.871  14.212   8.924
 1779POPC   C2B25076  31.943  14.472   8.575
 1779POPC   C3B25077  31.860  14.378   8.168
 1779POPC   C4B25078  31.854  14.305   7.744
 1780POPC   NC325079  13.832  29.344   9.248
 1780POPC   PO425080  14.390  29.157   9.578
 1780POPC   GL125081  14.188  28.974   9.217
 1780POPC   GL225082  14.292  29.292   9.042
 1780POPC   C1A25083  14.244  28.774   8.799
 1780POPC   D2A25084  14.397  28.884   8.362
 1780POPC   C3A25085  14.494  28.641   7.970
 1780POPC   C4A25086  14.535  28.990   7.658
 1780POPC   C1B25087  14.074  29.227   8.642
 1780POPC   C2B25088  13.917  29.142   8.232
 1780POPC   C3B25089  14.142  29.281   7.839
 1780POPC   C4B25090  14.125  29.128   7.384
 1781POPC   NC325091  32.754  41.507   9.394
 1781POPC   PO425092  32.062  41.389   9.339
 1781POPC   GL125093  32.193  41.774   9.106
 1781POPC   GL225094  32.542  41.888   9.142
 1781POPC   C1A25095  32.131  41.695   8.678
 1781POPC   D2A25096  32.294  41.358   8.403
 1781POPC   C3A25097  32.063  41.356   7.999
 1781POPC   C4A25098  32.150  41.622   7.619
 1781POPC   C1B25099  32.675  41.735   8.756
 1781POPC   C2B25100  32.519  41.832   8.377
 1781POPC   C3B25101  32.494  41.651   8.010
 1781POPC   C4B25102  32.584  41.882   7.647
 1782POPC   NC325103   3.061  31.318   9.399
 1782POPC   PO425104   2.499  31.680   9.592
 1782POPC   GL125105   2.687  31.668   9.191
 1782POPC   GL225106   2.589  31.327   9.120
 1782POPC   C1A25107   2.922  31.572   8.789
 1782POPC   D2A25108   2.772  31.701   8.400
 1782POPC   C3A25109   2.832  31.612   7.986
 1782POPC   C4A25110   3.024  31.751   7.622
 1782POPC   C1B25111   2.400  31.531   8.737
 1782POPC   C2B25112   2.374  31.394   8.283
 1782POPC   C3B25113   2.259  31.172   7.908
 1782POPC   C4B25114   2.437  31.028   7.528
 1783POPC   NC325115  39.397  21.201   9.410
 1783POPC   PO425116  39.063  21.616   9.779
 1783POPC   GL125117  39.190  21.667   9.264
 1783POPC   GL225118  39.056  21.400   9.072
 1783POPC   C1A25119  39.425  21.620   8.798
 1783POPC   D2A25120  39.540  21.793   8.372
 1783POPC   C3A25121  39.298  21.702   7.970
 1783POPC   C4A25122  39.412  21.534   7.559
 1783POPC   C1B25123  39.240  21.149   8.740
 1783POPC   C2B25124  39.291  21.334   8.345
 1783POPC   C3B25125  39.232  21.197   7.934
 1783POPC   C4B25126  38.953  21.391   7.641
 1784POPC   NC325127  36.107   8.699   9.440
 1784POPC   PO425128  35.805   9.338   9.463
 1784POPC   GL125129  36.088   9.125   9.162
 1784POPC   GL225130  36.030   8.810   8.956
 1784POPC   C1A25131  36.229   9.265   8.756
 1784POPC   D2A25132  36.122   9.011   8.422
 1784POPC   C3A25133  36.144   9.266   8.049
 1784POPC   C4A25134  36.220   9.123   7.600
 1784POPC   C1B25135  36.008   8.440   8.688
 1784POPC   C2B25136  35.904   8.508   8.287
 1784POPC   C3B25137  35.994   8.786   7.977
 1784POPC   C4B25138  35.996   8.601   7.622
 1785POPC   NC325139   1.860  15.471   9.509
 1785POPC   PO425140   2.200  14.948   9.551
 1785POPC   GL125141   2.120  15.132   9.138
 1785POPC   GL225142   2.180  15.504   9.119
 1785POPC   C1A25143   1.924  15.192   8.724
 1785POPC   D2A25144   2.091  15.174   8.311
 1785POPC   C3A25145   2.093  15.065   7.898
 1785POPC   C4A25146   2.376  15.326   7.689
 1785POPC   C1B25147   1.819  15.675   8.845
 1785POPC   C2B25148   1.753  15.567   8.380
 1785POPC   C3B25149   1.968  15.571   7.950
 1785POPC   C4B25150   1.956  15.521   7.474
 1786POPC   NC325151  29.069  15.453   9.445
 1786POPC   PO425152  28.911  14.885   9.634
 1786POPC   GL125153  29.034  15.010   9.156
 1786POPC   GL225154  29.262  15.290   9.018
 1786POPC   C1A25155  29.129  14.914   8.692
 1786POPC   D2A25156  29.376  15.043   8.319
 1786POPC   C3A25157  29.151  14.979   7.927
 1786POPC   C4A25158  29.150  15.054   7.464
 1786POPC   C1B25159  29.274  15.634   8.723
 1786POPC   C2B25160  29.314  15.568   8.289
 1786POPC   C3B25161  29.316  15.536   7.866
 1786POPC   C4B25162  28.976  15.529   7.543
 1787POPC   NC325163  26.911  11.052   9.579
 1787POPC   PO425164  26.954  11.653   9.747
 1787POPC   GL125165  26.929  11.578   9.271
 1787POPC   GL225166  27.043  11.237   9.133
 1787POPC   C1A25167  26.743  11.504   8.819
 1787POPC   D2A25168  26.565  11.304   8.446
 1787POPC   C3A25169  26.749  11.375   8.004
 1787POPC   C4A25170  26.533  11.296   7.593
 1787POPC   C1B25171  26.936  11.020   8.722
 1787POPC   C2B25172  26.885  10.944   8.269
 1787POPC   C3B25173  26.996  10.804   7.887
 1787POPC   C4B25174  26.835  10.772   7.492
 1788POPC   NC325175  43.672  17.243   9.367
 1788POPC   PO425176  44.166  17.701   9.586
 1788POPC   GL125177  44.054  17.552   9.163
 1788POPC   GL225178  43.771  17.680   9.049
 1788POPC   C1A25179  44.000  17.308   8.743
 1788POPC   D2A25180  43.883  17.401   8.336
 1788POPC   C3A25181  44.049  17.232   7.996
 1788POPC   C4A25182  44.144  17.533   7.691
 1788POPC   C1B25183  43.797  17.825   8.610
 1788POPC   C2B25184  43.509  17.729   8.249
 1788POPC   C3B25185  43.649  17.651   7.847
 1788POPC   C4B25186  43.773  18.008   7.658
 1789POPC   NC325187  39.971  10.181   9.646
 1789POPC   PO425188  40.221  10.740   9.414
 1789POPC   GL125189  39.920  10.587   9.122
 1789POPC   GL225190  39.817  10.202   9.157
 1789POPC   C1A25191  40.015  10.603   8.662
 1789POPC   D2A25192  40.315  10.660   8.315
 1789POPC   C3A25193  40.254  10.378   7.963
 1789POPC   C4A25194  40.160  10.436   7.523
 1789POPC   C1B25195  39.554  10.379   8.860
 1789POPC   C2B25196  39.561  10.442   8.476
 1789POPC   C3B25197  39.807  10.577   8.135
 1789POPC   C4B25198  39.638  10.496   7.729
 1790POPC   NC325199  15.674  25.091   9.550
 1790POPC   PO425200  16.352  25.000   9.407
 1790POPC   GL125201  16.209  25.099   9.007
 1790POPC   GL225202  15.863  25.214   9.088
 1790POPC   C1A25203  15.975  24.960   8.643
 1790POPC   D2A25204  15.748  25.073   8.265
 1790POPC   C3A25205  15.927  24.968   7.879
 1790POPC   C4A25206  16.254  25.124   7.610
 1790POPC   C1B25207  15.935  25.468   8.715
 1790POPC   C2B25208  15.782  25.582   8.298
 1790POPC   C3B25209  15.957  25.516   7.884
 1790POPC   C4B25210  15.917  25.501   7.438
 1791POPC   NC325211  35.407  23.045   9.582
 1791POPC   PO425212  35.286  22.479   9.178
 1791POPC   GL125213  35.370  22.908   9.048
 1791POPC   GL225214  35.655  23.074   9.158
 1791POPC   C1A25215  35.334  22.899   8.614
 1791POPC   D2A25216  35.070  22.606   8.411
 1791POPC   C3A25217  35.041  22.734   8.021
 1791POPC   C4A25218  35.116  23.057   7.797
 1791POPC   C1B25219  35.690  23.261   8.780
 1791POPC   C2B25220  35.737  23.099   8.398
 1791POPC   C3B25221  35.518  22.926   8.092
 1791POPC   C4B25222  35.679  23.072   7.728
 1792POPC   NC325223  31.259   1.479   9.397
 1792POPC   PO425224  31.333   2.219   9.439
 1792POPC   GL125225  31.505   2.159   9.073
 1792POPC   GL225226  31.635   1.850   9.093
 1792POPC   C1A25227  31.544   2.316   8.693
 1792POPC   D2A25228  31.569   2.076   8.360
 1792POPC   C3A25229  31.518   2.298   8.007
 1792POPC   C4A25230  31.607   2.092   7.643
 1792POPC   C1B25231  31.424   1.664   8.760
 1792POPC   C2B25232  31.252   1.670   8.350
 1792POPC   C3B25233  31.420   1.736   7.951
 1792POPC   C4B25234  31.587   1.590   7.533
 1793POPC   NC325235   5.484  17.407   9.494
 1793POPC   PO425236   4.865  17.649   9.344
 1793POPC   GL125237   5.135  17.434   9.104
 1793POPC   GL225238   5.329  17.728   9.071
 1793POPC   C1A25239   5.029  17.204   8.738
 1793POPC   D2A25240   4.992  16.977   8.353
 1793POPC   C3A25241   4.829  17.206   8.005
 1793POPC   C4A25242   5.102  17.451   7.778
 1793POPC   C1B25243   4.980  17.722   8.716
 1793POPC   C2B25244   5.074  17.555   8.325
 1793POPC   C3B25245   5.351  17.775   8.052
 1793POPC   C4B25246   4.935  17.916   7.883
 1794POPC   NC325247   5.296  25.229   9.447
 1794POPC   PO425248   4.637  24.989   9.502
 1794POPC   GL125249   4.723  25.269   9.139
 1794POPC   GL225250   5.088  25.280   8.988
 1794POPC   C1A25251   4.693  25.420   8.698
 1794POPC   D2A25252   4.947  25.304   8.349
 1794POPC   C3A25253   4.816  25.413   7.930
 1794POPC   C4A25254   5.168  25.447   7.622
 1794POPC   C1B25255   5.349  24.973   8.714
 1794POPC   C2B25256   5.360  24.920   8.258
 1794POPC   C3B25257   5.421  25.075   7.851
 1794POPC   C4B25258   5.455  24.846   7.446
 1795POPC   NC325259  40.152  19.063   9.613
 1795POPC   PO425260  39.604  19.436   9.495
 1795POPC   GL125261  39.959  19.294   9.194
 1795POPC   GL225262  40.089  18.915   9.149
 1795POPC   C1A25263  39.950  19.191   8.759
 1795POPC   D2A25264  39.609  19.076   8.503
 1795POPC   C3A25265  39.711  18.954   8.122
 1795POPC   C4A25266  39.794  19.235   7.836
 1795POPC   C1B25267  40.326  18.837   8.770
 1795POPC   C2B25268  40.144  18.889   8.390
 1795POPC   C3B25269  40.248  19.129   8.055
 1795POPC   C4B25270  40.241  18.990   7.657
 1796POPC   NC325271  28.032  20.445   9.748
 1796POPC   PO425272  28.600  20.658   9.378
 1796POPC   GL125273  28.411  20.444   9.094
 1796POPC   GL225274  28.551  20.110   9.147
 1796POPC   C1A25275  28.389  20.688   8.716
 1796POPC   D2A25276  28.164  20.835   8.363
 1796POPC   C3A25277  28.209  20.654   7.954
 1796POPC   C4A25278  28.366  20.659   7.535
 1796POPC   C1B25279  28.653  20.258   8.706
 1796POPC   C2B25280  28.452  20.371   8.328
 1796POPC   C3B25281  28.627  20.365   7.933
 1796POPC   C4B25282  28.558  20.214   7.533
 1797POPC   NC325283   8.439  35.040   9.453
 1797POPC   PO425284   8.640  34.377   9.463
 1797POPC   GL125285   8.450  34.577   9.088
 1797POPC   GL225286   8.161  34.802   9.088
 1797POPC   C1A25287   8.180  34.401   8.748
 1797POPC   D2A25288   7.788  34.461   8.502
 1797POPC   C3A25289   7.847  34.530   8.038
 1797POPC   C4A25290   8.237  34.447   7.801
 1797POPC   C1B25291   8.268  34.909   8.687
 1797POPC   C2B25292   8.249  34.710   8.323
 1797POPC   C3B25293   8.260  34.922   7.973
 1797POPC   C4B25294   8.558  34.911   7.720
 1798POPC   NC325295  28.513  19.624   9.440
 1798POPC   PO425296  28.013  19.937   9.719
 1798POPC   GL125297  28.057  19.986   9.228
 1798POPC   GL225298  28.213  19.682   9.049
 1798POPC   C1A25299  28.171  20.093   8.771
 1798POPC   D2A25300  28.210  19.786   8.426
 1798POPC   C3A25301  28.241  19.964   8.036
 1798POPC   C4A25302  27.966  20.093   7.746
 1798POPC   C1B25303  28.592  19.767   8.753
 1798POPC   C2B25304  28.705  19.926   8.302
 1798POPC   C3B25305  28.709  19.845   7.869
 1798POPC   C4B25306  28.730  19.462   7.615
 1799POPC   NC325307  15.600  13.477   9.380
 1799POPC   PO425308  14.965  13.238   9.392
 1799POPC   GL125309  15.156  13.404   9.040
 1799POPC   GL225310  15.249  13.735   9.120
 1799POPC   C1A25311  15.152  13.450   8.581
 1799POPC   D2A25312  14.932  13.632   8.231
 1799POPC   C3A25313  15.045  13.537   7.809
 1799POPC   C4A25314  15.431  13.450   7.628
 1799POPC   C1B25315  15.310  13.927   8.735
 1799POPC   C2B25316  15.463  13.851   8.316
 1799POPC   C3B25317  15.230  13.982   7.953
 1799POPC   C4B25318  15.192  14.001   7.503
 1800POPC   NC325319  19.604  33.553   9.436
 1800POPC   PO425320  20.016  34.090   9.314
 1800POPC   GL125321  19.952  33.728   9.100
 1800POPC   GL225322  20.176  33.523   9.227
 1800POPC   C1A25323  19.766  33.561   8.748
 1800POPC   D2A25324  19.578  33.543   8.349
 1800POPC   C3A25325  19.605  33.943   8.140
 1800POPC   C4A25326  19.777  33.953   7.718
 1800POPC   C1B25327  20.376  33.441   8.827
 1800POPC   C2B25328  20.156  33.476   8.434
 1800POPC   C3B25329  20.013  33.643   8.069
 1800POPC   C4B25330  20.233  33.583   7.722
 1801POPC   NC325331   2.895   3.219   9.569
 1801POPC   PO425332   2.884   3.843   9.618
 1801POPC   GL125333   2.856   3.589   9.216
 1801POPC   GL225334   3.077   3.295   9.110
 1801POPC   C1A25335   2.604   3.454   8.856
 1801POPC   D2A25336   2.429   3.632   8.464
 1801POPC   C3A25337   2.662   3.710   8.067
 1801POPC   C4A25338   2.556   3.553   7.650
 1801POPC   C1B25339   2.997   3.143   8.741
 1801POPC   C2B25340   2.884   3.347   8.390
 1801POPC   C3B25341   2.825   3.229   7.981
 1801POPC   C4B25342   3.134   3.290   7.647
 1802POPC   NC325343  34.394   2.070   9.425
 1802POPC   PO425344  35.003   1.645   9.518
 1802POPC   GL125345  34.736   1.813   9.144
 1802POPC   GL225346  34.367   1.691   9.094
 1802POPC   C1A25347  34.547   1.974   8.720
 1802POPC   D2A25348  34.430   2.247   8.355
 1802POPC   C3A25349  34.576   2.074   7.958
 1802POPC   C4A25350  34.505   2.176   7.508
 1802POPC   C1B25351  34.100   1.664   8.726
 1802POPC   C2B25352  34.130   1.790   8.276
 1802POPC   C3B25353  34.238   1.668   7.844
 1802POPC   C4B25354  34.572   1.657   7.473
 1803POPC   NC325355  32.895  40.589   9.490
 1803POPC   PO425356  32.195  40.528   9.418
 1803POPC   GL125357  32.316  40.836   9.131
 1803POPC   GL225358  32.653  40.814   9.116
 1803POPC   C1A25359  32.278  40.923   8.693
 1803POPC   D2A25360  31.989  40.909   8.384
 1803POPC   C3A25361  32.080  40.616   8.103
 1803POPC   C4A25362  31.993  40.888   7.761
 1803POPC   C1B25363  32.717  41.122   8.818
 1803POPC   C2B25364  32.773  41.067   8.380
 1803POPC   C3B25365  32.462  41.000   8.064
 1803POPC   C4B25366  32.402  41.151   7.658
 1804POPC   NC325367   4.143   1.781   9.691
 1804POPC   PO425368   4.665   2.224   9.400
 1804POPC   GL125369   4.499   1.983   9.134
 1804POPC   GL225370   4.312   1.713   9.196
 1804POPC   C1A25371   4.615   1.803   8.792
 1804POPC   D2A25372   4.405   1.926   8.431
 1804POPC   C3A25373   4.599   2.153   8.165
 1804POPC   C4A25374   4.605   2.202   7.768
 1804POPC   C1B25375   4.087   1.731   8.770
 1804POPC   C2B25376   3.908   1.831   8.340
 1804POPC   C3B25377   4.195   1.705   8.016
 1804POPC   C4B25378   4.275   1.830   7.601
 1805POPC   NC325379  31.023  10.737   9.324
 1805POPC   PO425380  31.536  10.275   9.519
 1805POPC   GL125381  31.441  10.498   9.135
 1805POPC   GL225382  31.675  10.771   9.055
 1805POPC   C1A25383  31.457  10.342   8.694
 1805POPC   D2A25384  31.742  10.225   8.329
 1805POPC   C3A25385  31.698  10.405   7.903
 1805POPC   C4A25386  31.743  10.529   7.422
 1805POPC   C1B25387  31.399  10.850   8.706
 1805POPC   C2B25388  31.454  10.671   8.284
 1805POPC   C3B25389  31.369  10.827   7.882
 1805POPC   C4B25390  31.068  11.103   7.731
 1806POPC   NC325391  19.965  26.996   9.326
 1806POPC   PO425392  19.733  26.381   9.464
 1806POPC   GL125393  19.710  26.601   9.086
 1806POPC   GL225394  19.475  26.887   9.189
 1806POPC   C1A25395  20.035  26.642   8.736
 1806POPC   D2A25396  20.312  26.679   8.351
 1806POPC   C3A25397  20.076  26.822   7.984
 1806POPC   C4A25398  19.755  26.638   7.715
 1806POPC   C1B25399  19.626  26.983   8.762
 1806POPC   C2B25400  19.736  26.844   8.350
 1806POPC   C3B25401  19.517  26.980   7.981
 1806POPC   C4B25402  19.719  27.245   7.704
 1807POPC   NC325403  23.416   0.217   9.514
 1807POPC   PO425404  24.135   0.076   9.487
 1807POPC   GL125405  23.951   0.348   9.186
 1807POPC   GL225406  23.597   0.483   9.139
 1807POPC   C1A25407  23.856   0.253   8.763
 1807POPC   D2A25408  24.038   0.203   8.380
 1807POPC   C3A25409  23.807   0.340   8.074
 1807POPC   C4A25410  23.795   0.198   7.718
 1807POPC   C1B25411  23.338   0.318   8.783
 1807POPC   C2B25412  23.362   0.490   8.343
 1807POPC   C3B25413  23.230   0.599   7.920
 1807POPC   C4B25414  23.491   0.749   7.570
 1808POPC   NC325415  31.285   6.786   9.301
 1808POPC   PO425416  31.745   6.452   9.058
 1808POPC   GL125417  31.306   6.443   8.925
 1808POPC   GL225418  31.232   6.794   8.800
 1808POPC   C1A25419  31.263   6.148   8.628
 1808POPC   D2A25420  31.533   6.225   8.312
 1808POPC   C3A25421  31.345   6.471   8.011
 1808POPC   C4A25422  31.555   6.286   7.694
 1808POPC   C1B25423  31.642   6.918   8.656
 1808POPC   C2B25424  31.739   6.741   8.311
 1808POPC   C3B25425  31.897   6.489   8.027
 1808POPC   C4B25426  31.701   6.769   7.784
 1809POPC   NC325427   9.931  44.145   9.478
 1809POPC   PO425428   9.937  44.818   9.629
 1809POPC   GL125429   9.775  44.617   9.235
 1809POPC   GL225430   9.429  44.429   9.319
 1809POPC   C1A25431   9.801  44.789   8.784
 1809POPC   D2A25432   9.723  44.566   8.408
 1809POPC   C3A25433   9.740  44.791   8.037
 1809POPC   C4A25434   9.980  44.748   7.671
 1809POPC   C1B25435   9.374  44.546   8.887
 1809POPC   C2B25436   9.300  44.288   8.496
 1809POPC   C3B25437   9.461  44.308   8.037
 1809POPC   C4B25438   9.565  44.485   7.624
 1810POPC   NC325439  32.745  39.342   9.549
 1810POPC   PO425440  33.412  39.551   9.495
 1810POPC   GL125441  33.109  39.543   9.139
 1810POPC   GL225442  32.923  39.214   9.102
 1810POPC   C1A25443  32.778  39.610   8.824
 1810POPC   D2A25444  32.600  39.382   8.481
 1810POPC   C3A25445  32.899  39.401   8.142
 1810POPC   C4A25446  33.158  39.405   7.771
 1810POPC   C1B25447  33.026  39.152   8.699
 1810POPC   C2B25448  32.875  38.929   8.373
 1810POPC   C3B25449  32.888  38.926   7.946
 1810POPC   C4B25450  33.156  38.846   7.633
 1811POPC   NC325451  42.661  27.393   9.783
 1811POPC   PO425452  43.109  27.784   9.366
 1811POPC   GL125453  43.140  27.451   9.154
 1811POPC   GL225454  42.835  27.263   9.283
 1811POPC   C1A25455  43.252  27.527   8.711
 1811POPC   D2A25456  42.945  27.731   8.414
 1811POPC   C3A25457  43.114  27.917   8.031
 1811POPC   C4A25458  42.994  27.875   7.623
 1811POPC   C1B25459  42.795  27.318   8.821
 1811POPC   C2B25460  42.959  27.219   8.404
 1811POPC   C3B25461  42.971  27.413   7.962
 1811POPC   C4B25462  42.973  27.391   7.481
 1812POPC   NC325463   3.581  21.766   9.547
 1812POPC   PO425464   3.308  21.133   9.408
 1812POPC   GL125465   3.392  21.515   9.154
 1812POPC   GL225466   3.763  21.584   9.074
 1812POPC   C1A25467   3.422  21.750   8.752
 1812POPC   D2A25468   3.497  21.778   8.328
 1812POPC   C3A25469   3.769  21.457   8.206
 1812POPC   C4A25470   3.767  21.430   7.775
 1812POPC   C1B25471   3.563  21.249   8.767
 1812POPC   C2B25472   3.500  21.026   8.384
 1812POPC   C3B25473   3.350  21.194   7.980
 1812POPC   C4B25474   3.338  21.280   7.540
 1813POPC   NC325475  38.749  40.948   9.473
 1813POPC   PO425476  38.118  40.785   9.359
 1813POPC   GL125477  38.388  40.975   9.095
 1813POPC   GL225478  38.607  40.666   9.088
 1813POPC   C1A25479  38.594  40.997   8.700
 1813POPC   D2A25480  38.485  40.788   8.333
 1813POPC   C3A25481  38.573  41.029   7.988
 1813POPC   C4A25482  38.536  41.157   7.586
 1813POPC   C1B25483  38.662  40.473   8.714
 1813POPC   C2B25484  38.878  40.467   8.311
 1813POPC   C3B25485  38.747  40.410   7.949
 1813POPC   C4B25486  38.552  40.639   7.645
 1814POPC   NC325487  25.846  24.058   9.442
 1814POPC   PO425488  26.034  23.412   9.616
 1814POPC   GL125489  26.024  23.472   9.156
 1814POPC   GL225490  25.918  23.801   9.032
 1814POPC   C1A25491  26.059  23.447   8.701
 1814POPC   D2A25492  26.076  23.760   8.368
 1814POPC   C3A25493  26.234  23.514   8.019
 1814POPC   C4A25494  25.988  23.320   7.703
 1814POPC   C1B25495  25.906  24.129   8.729
 1814POPC   C2B25496  25.731  24.165   8.353
 1814POPC   C3B25497  25.800  24.108   7.956
 1814POPC   C4B25498  26.032  23.869   7.644
 1815POPC   NC325499   8.723  16.205   9.619
 1815POPC   PO425500   9.284  15.888   9.706
 1815POPC   GL125501   9.019  15.871   9.294
 1815POPC   GL225502   8.908  16.180   9.100
 1815POPC   C1A25503   9.066  15.764   8.851
 1815POPC   D2A25504   8.918  15.949   8.455
 1815POPC   C3A25505   9.060  15.863   8.025
 1815POPC   C4A25506   9.135  15.548   7.747
 1815POPC   C1B25507   8.631  16.327   8.713
 1815POPC   C2B25508   8.640  16.333   8.224
 1815POPC   C3B25509   8.895  16.328   7.829
 1815POPC   C4B25510   8.943  16.309   7.352
 1816POPC   NC325511  36.047  38.976   9.464
 1816POPC   PO425512  36.243  39.707   9.657
 1816POPC   GL125513  36.235  39.528   9.202
 1816POPC   GL225514  36.359  39.196   9.099
 1816POPC   C1A25515  36.060  39.471   8.773
 1816POPC   D2A25516  36.147  39.045   8.585
 1816POPC   C3A25517  36.073  38.989   8.153
 1816POPC   C4A25518  36.028  38.868   7.709
 1816POPC   C1B25519  36.556  39.390   8.711
 1816POPC   C2B25520  36.417  39.466   8.272
 1816POPC   C3B25521  36.381  39.252   7.841
 1816POPC   C4B25522  36.184  39.362   7.460
 1817POPC   NC325523  24.425  34.997   9.622
 1817POPC   PO425524  24.455  35.660   9.549
 1817POPC   GL125525  24.432  35.362   9.189
 1817POPC   GL225526  24.103  35.190   9.257
 1817POPC   C1A25527  24.587  35.445   8.756
 1817POPC   D2A25528  24.423  35.566   8.346
 1817POPC   C3A25529  24.578  35.372   7.974
 1817POPC   C4A25530  24.664  35.554   7.583
 1817POPC   C1B25531  24.122  35.037   8.827
 1817POPC   C2B25532  24.312  35.064   8.438
 1817POPC   C3B25533  24.161  35.079   8.035
 1817POPC   C4B25534  24.194  35.246   7.623
 1818POPC   NC325535  21.898  22.697   9.611
 1818POPC   PO425536  22.542  22.753   9.542
 1818POPC   GL125537  22.212  22.904   9.180
 1818POPC   GL225538  21.850  22.883   9.138
 1818POPC   C1A25539  22.128  23.038   8.707
 1818POPC   D2A25540  22.323  23.184   8.269
 1818POPC   C3A25541  22.490  22.921   7.890
 1818POPC   C4A25542  22.421  22.627   7.539
 1818POPC   C1B25543  21.921  22.556   8.831
 1818POPC   C2B25544  21.897  22.506   8.372
 1818POPC   C3B25545  22.038  22.675   7.958
 1818POPC   C4B25546  21.962  23.054   7.726
 1819POPC   NC325547  34.164  16.512   9.299
 1819POPC   PO425548  34.457  17.116   9.482
 1819POPC   GL125549  34.475  16.892   9.076
 1819POPC   GL225550  34.801  16.706   8.978
 1819POPC   C1A25551  34.382  16.662   8.680
 1819POPC   D2A25552  34.335  16.800   8.255
 1819POPC   C3A25553  34.296  16.563   7.888
 1819POPC   C4A25554  34.315  16.705   7.465
 1819POPC   C1B25555  34.984  16.516   8.650
 1819POPC   C2B25556  34.832  16.810   8.398
 1819POPC   C3B25557  34.767  16.954   8.020
 1819POPC   C4B25558  34.760  16.714   7.696
 1820POPC   NC325559  40.757  16.435   9.725
 1820POPC   PO425560  40.548  17.074   9.520
 1820POPC   GL125561  40.707  16.785   9.156
 1820POPC   GL225562  40.835  16.448   9.192
 1820POPC   C1A25563  40.563  16.668   8.777
 1820POPC   D2A25564  40.673  16.860   8.417
 1820POPC   C3A25565  40.600  16.689   8.045
 1820POPC   C4A25566  40.691  16.909   7.695
 1820POPC   C1B25567  40.859  16.244   8.825
 1820POPC   C2B25568  40.654  16.280   8.431
 1820POPC   C3B25569  40.830  16.235   8.037
 1820POPC   C4B25570  40.579  16.282   7.706
 1821POPC   NC325571  42.338  34.368   9.525
 1821POPC   PO425572  42.444  35.000   9.825
 1821POPC   GL125573  42.317  34.877   9.339
 1821POPC   GL225574  42.439  34.610   9.085
 1821POPC   C1A25575  42.101  34.915   8.893
 1821POPC   D2A25576  42.258  34.634   8.542
 1821POPC   C3A25577  42.185  34.618   8.094
 1821POPC   C4A25578  42.431  34.362   7.819
 1821POPC   C1B25579  42.108  34.316   8.925
 1821POPC   C2B25580  41.990  34.078   8.576
 1821POPC   C3B25581  42.124  34.096   8.169
 1821POPC   C4B25582  41.941  34.251   7.814
 1822POPC   NC325583  30.470  38.200   9.389
 1822POPC   PO425584  30.803  38.813   9.473
 1822POPC   GL125585  30.733  38.579   9.109
 1822POPC   GL225586  30.950  38.274   9.072
 1822POPC   C1A25587  30.767  38.561   8.669
 1822POPC   D2A25588  30.920  38.305   8.331
 1822POPC   C3A25589  30.883  38.591   7.986
 1822POPC   C4A25590  30.684  38.722   7.614
 1822POPC   C1B25591  30.668  38.078   8.766
 1822POPC   C2B25592  30.398  38.261   8.433
 1822POPC   C3B25593  30.524  38.196   7.999
 1822POPC   C4B25594  30.927  38.116   7.827
 1823POPC   NC325595   0.762  38.662   9.616
 1823POPC   PO425596   0.270  38.185   9.504
 1823POPC   GL125597   0.472  38.271   9.128
 1823POPC   GL225598   0.477  38.616   9.171
 1823POPC   C1A25599   0.391  38.371   8.693
 1823POPC   D2A25600   0.275  38.633   8.332
 1823POPC   C3A25601   0.380  38.571   7.876
 1823POPC   C4A25602   0.261  38.347   7.504
 1823POPC   C1B25603   0.777  38.643   8.814
 1823POPC   C2B25604   0.860  38.390   8.424
 1823POPC   C3B25605   0.868  38.413   7.960
 1823POPC   C4B25606   0.801  38.660   7.585
 1824POPC   NC325607  31.012   9.811   9.575
 1824POPC   PO425608  30.390   9.628   9.481
 1824POPC   GL125609  30.510   9.901   9.177
 1824POPC   GL225610  30.830   9.728   9.102
 1824POPC   C1A25611  30.522   9.921   8.731
 1824POPC   D2A25612  30.786   9.756   8.422
 1824POPC   C3A25613  30.544   9.609   8.082
 1824POPC   C4A25614  30.472   9.850   7.761
 1824POPC   C1B25615  30.988   9.431   8.805
 1824POPC   C2B25616  31.222   9.467   8.430
 1824POPC   C3B25617  31.070   9.355   8.041
 1824POPC   C4B25618  30.958   9.683   7.781
 1825POPC   NC325619  25.722  39.395   9.581
 1825POPC   PO425620  26.333  39.098   9.483
 1825POPC   GL125621  26.088  39.342   9.213
 1825POPC   GL225622  25.769  39.184   9.123
 1825POPC   C1A25623  26.137  39.411   8.785
 1825POPC   D2A25624  26.227  39.130   8.453
 1825POPC   C3A25625  26.102  39.149   8.024
 1825POPC   C4A25626  26.316  39.144   7.615
 1825POPC   C1B25627  25.650  39.322   8.709
 1825POPC   C2B25628  25.672  39.139   8.334
 1825POPC   C3B25629  25.649  39.359   7.963
 1825POPC   C4B25630  25.785  39.331   7.523
 1826POPC   NC325631  22.910  25.775   9.790
 1826POPC   PO425632  22.989  25.155   9.616
 1826POPC   GL125633  22.964  25.191   9.209
 1826POPC   GL225634  22.742  24.923   9.207
 1826POPC   C1A25635  23.084  25.399   8.826
 1826POPC   D2A25636  23.002  25.512   8.420
 1826POPC   C3A25637  22.848  25.306   8.073
 1826POPC   C4A25638  23.087  25.376   7.686
 1826POPC   C1B25639  22.653  25.098   8.825
 1826POPC   C2B25640  22.586  25.018   8.424
 1826POPC   C3B25641  22.653  24.798   8.061
 1826POPC   C4B25642  22.711  25.030   7.668
 1827POPC   NC325643  35.264  33.378   9.603
 1827POPC   PO425644  35.143  32.776   9.477
 1827POPC   GL125645  35.341  33.042   9.181
 1827POPC   GL225646  35.101  33.275   9.107
 1827POPC   C1A25647  35.347  32.959   8.736
 1827POPC   D2A25648  35.152  32.715   8.392
 1827POPC   C3A25649  35.247  32.949   7.993
 1827POPC   C4A25650  35.679  32.927   7.798
 1827POPC   C1B25651  35.065  33.421   8.713
 1827POPC   C2B25652  35.332  33.337   8.389
 1827POPC   C3B25653  35.555  33.372   8.057
 1827POPC   C4B25654  35.359  33.377   7.724
 1828POPC   NC325655  38.842  36.973   9.444
 1828POPC   PO425656  38.191  36.936   9.490
 1828POPC   GL125657  38.376  36.865   9.124
 1828POPC   GL225658  38.669  37.035   8.978
 1828POPC   C1A25659  38.228  36.902   8.737
 1828POPC   D2A25660  38.488  36.989   8.402
 1828POPC   C3A25661  38.212  37.044   8.089
 1828POPC   C4A25662  38.141  36.902   7.685
 1828POPC   C1B25663  38.867  37.279   8.662
 1828POPC   C2B25664  38.876  37.270   8.196
 1828POPC   C3B25665  38.649  37.135   7.824
 1828POPC   C4B25666  38.786  37.130   7.393
 1829POPC   NC325667  25.047  36.863   9.502
 1829POPC   PO425668  25.712  36.748   9.516
 1829POPC   GL125669  25.429  36.886   9.127
 1829POPC   GL225670  25.104  37.056   9.058
 1829POPC   C1A25671  25.278  36.827   8.666
 1829POPC   D2A25672  25.415  36.991   8.287
 1829POPC   C3A25673  25.341  36.686   8.030
 1829POPC   C4A25674  24.968  36.658   7.830
 1829POPC   C1B25675  25.141  37.313   8.662
 1829POPC   C2B25676  25.116  37.424   8.221
 1829POPC   C3B25677  25.093  37.149   7.860
 1829POPC   C4B25678  24.881  37.036   7.438
 1830POPC   NC325679  30.493   6.185   9.412
 1830POPC   PO425680  30.579   5.572   9.648
 1830POPC   GL125681  30.719   5.766   9.229
 1830POPC   GL225682  30.454   5.684   8.984
 1830POPC   C1A25683  30.835   5.925   8.792
 1830POPC   D2A25684  30.551   5.785   8.433
 1830POPC   C3A25685  30.710   5.805   8.010
 1830POPC   C4A25686  30.829   5.901   7.573
 1830POPC   C1B25687  30.384   6.133   8.782
 1830POPC   C2B25688  30.296   6.240   8.365
 1830POPC   C3B25689  30.195   5.926   8.068
 1830POPC   C4B25690  30.391   6.096   7.759
 1831POPC   NC325691  20.978  31.747   9.416
 1831POPC   PO425692  20.281  31.706   9.514
 1831POPC   GL125693  20.272  31.685   9.116
 1831POPC   GL225694  20.620  31.683   9.065
 1831POPC   C1A25695  20.311  31.400   8.761
 1831POPC   D2A25696  20.530  31.461   8.393
 1831POPC   C3A25697  20.324  31.473   7.997
 1831POPC   C4A25698  20.539  31.333   7.651
 1831POPC   C1B25699  20.915  31.595   8.743
 1831POPC   C2B25700  20.958  31.769   8.370
 1831POPC   C3B25701  20.822  31.621   8.005
 1831POPC   C4B25702  21.005  31.519   7.656
 1832POPC   NC325703  15.376   6.546   9.929
 1832POPC   PO425704  15.975   6.636   9.606
 1832POPC   GL125705  15.835   6.761   9.174
 1832POPC   GL225706  16.184   6.926   9.157
 1832POPC   C1A25707  15.727   6.558   8.774
 1832POPC   D2A25708  15.723   6.830   8.442
 1832POPC   C3A25709  15.753   6.574   8.079
 1832POPC   C4A25710  15.865   6.443   7.705
 1832POPC   C1B25711  16.185   6.724   8.781
 1832POPC   C2B25712  16.174   6.590   8.383
 1832POPC   C3B25713  16.214   6.733   7.974
 1832POPC   C4B25714  16.240   6.740   7.531
 1833POPC   NC325715  21.688  11.114   9.532
 1833POPC   PO425716  21.103  11.441   9.636
 1833POPC   GL125717  21.137  11.318   9.235
 1833POPC   GL225718  21.452  11.405   9.149
 1833POPC   C1A25719  21.056  11.238   8.821
 1833POPC   D2A25720  21.300  11.253   8.487
 1833POPC   C3A25721  21.191  11.067   8.114
 1833POPC   C4A25722  21.276  11.240   7.723
 1833POPC   C1B25723  21.752  11.599   8.849
 1833POPC   C2B25724  21.787  11.308   8.547
 1833POPC   C3B25725  21.680  11.235   8.124
 1833POPC   C4B25726  21.867  11.340   7.768
 1834POPC   NC325727  35.813  29.432   9.524
 1834POPC   PO425728  35.730  28.787   9.370
 1834POPC   GL125729  36.102  28.916   9.131
 1834POPC   GL225730  36.179  29.292   9.150
 1834POPC   C1A25731  36.186  29.015   8.705
 1834POPC   D2A25732  36.212  29.206   8.270
 1834POPC   C3A25733  36.210  28.931   7.863
 1834POPC   C4A25734  36.260  28.972   7.402
 1834POPC   C1B25735  36.109  29.523   8.749
 1834POPC   C2B25736  35.759  29.496   8.443
 1834POPC   C3B25737  35.792  29.361   8.009
 1834POPC   C4B25738  36.141  29.402   7.685
 1835POPC   NC325739   2.490   9.445   9.442
 1835POPC   PO425740   2.519  10.116   9.680
 1835POPC   GL125741   2.718   9.860   9.270
 1835POPC   GL225742   2.770  10.083   9.039
 1835POPC   C1A25743   2.961   9.675   8.853
 1835POPC   D2A25744   2.934   9.935   8.446
 1835POPC   C3A25745   2.927   9.711   8.043
 1835POPC   C4A25746   3.117   9.483   7.685
 1835POPC   C1B25747   2.499   9.879   8.764
 1835POPC   C2B25748   2.424   9.737   8.355
 1835POPC   C3B25749   2.462   9.880   7.940
 1835POPC   C4B25750   2.434   9.493   7.735
 1836POPC   NC325751  14.345  27.118   9.466
 1836POPC   PO425752  14.450  26.481   9.622
 1836POPC   GL125753  14.534  26.701   9.255
 1836POPC   GL225754  14.183  26.753   9.128
 1836POPC   C1A25755  14.586  26.934   8.852
 1836POPC   D2A25756  14.390  26.903   8.504
 1836POPC   C3A25757  14.570  26.804   8.119
 1836POPC   C4A25758  14.267  26.806   7.790
 1836POPC   C1B25759  14.097  27.135   8.872
 1836POPC   C2B25760  13.917  27.173   8.496
 1836POPC   C3B25761  14.105  27.121   8.151
 1836POPC   C4B25762  13.978  27.228   7.777
 1837POPC   NC325763  43.445  39.531   9.410
 1837POPC   PO425764  43.965  39.133   9.589
 1837POPC   GL125765  43.989  39.148   9.186
 1837POPC   GL225766  43.663  38.989   9.158
 1837POPC   C1A25767  43.846  39.324   8.790
 1837POPC   D2A25768  44.079  39.418   8.415
 1837POPC   C3A25769  43.902  39.424   8.051
 1837POPC   C4A25770  44.061  39.234   7.703
 1837POPC   C1B25771  43.518  38.923   8.737
 1837POPC   C2B25772  43.560  39.162   8.357
 1837POPC   C3B25773  43.446  39.112   7.932
 1837POPC   C4B25774  43.486  39.077   7.490
 1838POPC   NC325775  13.311  27.197   9.420
 1838POPC   PO425776  13.407  27.874   9.507
 1838POPC   GL125777  13.470  27.656   9.136
 1838POPC   GL225778  13.767  27.475   9.061
 1838POPC   C1A25779  13.588  27.851   8.760
 1838POPC   D2A25780  13.413  27.905   8.376
 1838POPC   C3A25781  13.597  27.821   7.990
 1838POPC   C4A25782  13.895  27.746   7.699
 1838POPC   C1B25783  13.510  27.242   8.784
 1838POPC   C2B25784  13.387  27.330   8.364
 1838POPC   C3B25785  13.513  27.330   7.959
 1838POPC   C4B25786  13.499  27.119   7.598
 1839POPC   NC325787  43.343  43.049   9.352
 1839POPC   PO425788  42.739  43.122   9.540
 1839POPC   GL125789  42.857  43.279   9.136
 1839POPC   GL225790  43.159  43.460   9.118
 1839POPC   C1A25791  42.882  43.141   8.720
 1839POPC   D2A25792  43.160  43.050   8.365
 1839POPC   C3A25793  42.982  43.084   7.968
 1839POPC   C4A25794  43.010  42.861   7.578
 1839POPC   C1B25795  43.407  43.271   8.772
 1839POPC   C2B25796  43.553  43.438   8.399
 1839POPC   C3B25797  43.383  43.426   7.998
 1839POPC   C4B25798  43.457  43.059   7.769
 1840POPC   NC325799  34.655  34.755   9.396
 1840POPC   PO425800  34.045  34.290   9.443
 1840POPC   GL125801  34.275  34.491   9.129
 1840POPC   GL225802  34.598  34.341   9.110
 1840POPC   C1A25803  34.267  34.746   8.761
 1840POPC   D2A25804  34.511  34.828   8.406
 1840POPC   C3A25805  34.393  34.731   8.003
 1840POPC   C4A25806  34.818  34.661   7.883
 1840POPC   C1B25807  34.741  34.468   8.727
 1840POPC   C2B25808  34.729  34.215   8.362
 1840POPC   C3B25809  34.935  34.178   7.966
 1840POPC   C4B25810  34.841  34.236   7.498
 1841POPC   NC325811   9.700   7.155   9.225
 1841POPC   PO425812   9.723   6.539   9.568
 1841POPC   GL125813   9.885   6.657   9.141
 1841POPC   GL225814  10.152   6.932   9.039
 1841POPC   C1A25815   9.700   6.486   8.766
 1841POPC   D2A25816   9.431   6.701   8.477
 1841POPC   C3A25817   9.603   6.892   8.112
 1841POPC   C4A25818   9.483   6.838   7.713
 1841POPC   C1B25819   9.950   6.890   8.591
 1841POPC   C2B25820   9.893   6.520   8.281
 1841POPC   C3B25821   9.875   6.551   7.839
 1841POPC   C4B25822   9.996   6.998   7.687
 1842POPC   NC325823  28.697   8.531   9.593
 1842POPC   PO425824  28.045   8.559   9.304
 1842POPC   GL125825  28.308   8.426   8.987
 1842POPC   GL225826  28.219   8.094   8.927
 1842POPC   C1A25827  28.381   8.395   8.541
 1842POPC   D2A25828  28.555   8.214   8.177
 1842POPC   C3A25829  28.457   8.465   7.860
 1842POPC   C4A25830  28.073   8.575   7.620
 1842POPC   C1B25831  28.677   8.061   8.816
 1842POPC   C2B25832  28.876   7.856   8.476
 1842POPC   C3B25833  28.747   7.748   8.081
 1842POPC   C4B25834  28.518   7.889   7.752
 1843POPC   NC325835  36.524  19.143   9.790
 1843POPC   PO425836  36.014  18.785   9.559
 1843POPC   GL125837  36.172  18.866   9.154
 1843POPC   GL225838  36.297  19.205   9.225
 1843POPC   C1A25839  36.046  18.875   8.711
 1843POPC   D2A25840  36.195  18.998   8.335
 1843POPC   C3A25841  36.229  18.800   7.965
 1843POPC   C4A25842  36.233  19.024   7.600
 1843POPC   C1B25843  36.250  19.328   8.790
 1843POPC   C2B25844  36.337  19.466   8.365
 1843POPC   C3B25845  36.140  19.375   7.968
 1843POPC   C4B25846  36.386  19.542   7.637
 1844POPC   NC325847   1.462  19.603   9.485
 1844POPC   PO425848   1.382  20.213   9.175
 1844POPC   GL125849   1.334  19.846   9.031
 1844POPC   GL225850   1.005  19.739   9.110
 1844POPC   C1A25851   1.384  19.863   8.591
 1844POPC   D2A25852   1.250  20.105   8.241
 1844POPC   C3A25853   1.334  20.024   7.819
 1844POPC   C4A25854   1.277  20.287   7.491
 1844POPC   C1B25855   1.102  19.478   8.756
 1844POPC   C2B25856   1.226  19.434   8.358
 1844POPC   C3B25857   1.149  19.577   7.979
 1844POPC   C4B25858   1.315  19.403   7.622
 1845POPC   NC325859  42.266  30.887   9.768
 1845POPC   PO425860  42.312  30.490   9.235
 1845POPC   GL125861  42.376  30.922   9.138
 1845POPC   GL225862  42.727  30.911   9.036
 1845POPC   C1A25863  42.285  30.953   8.700
 1845POPC   D2A25864  42.475  30.646   8.457
 1845POPC   C3A25865  42.279  30.572   8.079
 1845POPC   C4A25866  42.604  30.511   7.757
 1845POPC   C1B25867  42.718  31.210   8.717
 1845POPC   C2B25868  42.655  31.221   8.320
 1845POPC   C3B25869  42.602  30.941   7.995
 1845POPC   C4B25870  42.556  31.011   7.546
 1846POPC   NC325871  11.298  42.874   9.520
 1846POPC   PO425872  10.917  43.238   9.132
 1846POPC   GL125873  11.250  42.973   9.023
 1846POPC   GL225874  11.544  43.126   9.101
 1846POPC   C1A25875  11.421  42.970   8.632
 1846POPC   D2A25876  11.241  43.169   8.309
 1846POPC   C3A25877  11.459  42.960   7.985
 1846POPC   C4A25878  11.322  42.891   7.575
 1846POPC   C1B25879  11.524  43.455   8.763
 1846POPC   C2B25880  11.674  43.437   8.372
 1846POPC   C3B25881  11.474  43.473   7.980
 1846POPC   C4B25882  11.673  43.574   7.641
 1847POPC   NC325883  42.108   8.196   9.356
 1847POPC   PO425884  42.125   8.849   9.271
 1847POPC   GL125885  42.291   8.529   9.003
 1847POPC   GL225886  42.558   8.272   9.105
 1847POPC   C1A25887  42.247   8.203   8.694
 1847POPC   D2A25888  42.313   8.126   8.282
 1847POPC   C3A25889  41.929   8.007   8.085
 1847POPC   C4A25890  42.248   7.851   7.804
 1847POPC   C1B25891  42.699   8.465   8.716
 1847POPC   C2B25892  42.811   8.442   8.273
 1847POPC   C3B25893  42.578   8.376   7.857
 1847POPC   C4B25894  42.724   8.195   7.467
 1848POPC   NC325895  16.994  37.344   9.523
 1848POPC   PO425896  16.391  37.646   9.533
 1848POPC   GL125897  16.487  37.427   9.150
 1848POPC   GL225898  16.787  37.617   9.103
 1848POPC   C1A25899  16.592  37.393   8.690
 1848POPC   D2A25900  16.851  37.534   8.319
 1848POPC   C3A25901  16.706  37.708   7.892
 1848POPC   C4A25902  17.005  37.725   7.514
 1848POPC   C1B25903  16.850  37.860   8.705
 1848POPC   C2B25904  16.923  38.045   8.271
 1848POPC   C3B25905  16.952  38.170   7.821
 1848POPC   C4B25906  17.068  38.212   7.369
 1849POPC   NC325907  23.861  26.675   9.434
 1849POPC   PO425908  23.428  27.103   9.750
 1849POPC   GL125909  23.505  27.031   9.300
 1849POPC   GL225910  23.855  27.105   9.184
 1849POPC   C1A25911  23.446  27.085   8.852
 1849POPC   D2A25912  23.532  26.856   8.492
 1849POPC   C3A25913  23.640  27.046   8.128
 1849POPC   C4A25914  23.477  27.005   7.735
 1849POPC   C1B25915  23.937  26.889   8.807
 1849POPC   C2B25916  24.056  26.677   8.437
 1849POPC   C3B25917  24.121  26.854   8.037
 1849POPC   C4B25918  23.929  26.742   7.661
 1850POPC   NC325919   9.922  27.303   9.461
 1850POPC   PO425920  10.086  27.991   9.458
 1850POPC   GL125921   9.968  27.785   9.092
 1850POPC   GL225922   9.672  27.557   9.098
 1850POPC   C1A25923   9.914  27.664   8.677
 1850POPC   D2A25924   9.847  27.439   8.303
 1850POPC   C3A25925   9.945  27.722   7.997
 1850POPC   C4A25926   9.865  27.724   7.595
 1850POPC   C1B25927   9.414  27.645   8.734
 1850POPC   C2B25928   9.302  27.372   8.383
 1850POPC   C3B25929   9.436  27.508   7.972
 1850POPC   C4B25930   9.371  27.618   7.564
 1851POPC   NC325931  21.972   3.135   9.303
 1851POPC   PO425932  22.321   2.574   9.481
 1851POPC   GL125933  22.314   2.771   9.079
 1851POPC   GL225934  22.024   2.936   8.861
 1851POPC   C1A25935  22.245   2.524   8.714
 1851POPC   D2A25936  21.938   2.601   8.394
 1851POPC   C3A25937  22.227   2.493   8.091
 1851POPC   C4A25938  22.367   2.529   7.703
 1851POPC   C1B25939  22.393   3.023   8.626
 1851POPC   C2B25940  22.393   2.961   8.190
 1851POPC   C3B25941  22.089   3.017   7.880
 1851POPC   C4B25942  21.882   2.947   7.429
 1852POPC   NC325943  33.077  32.578   9.647
 1852POPC   PO425944  33.004  31.928   9.550
 1852POPC   GL125945  33.014  32.195   9.189
 1852POPC   GL225946  32.784  32.485   9.192
 1852POPC   C1A25947  32.925  32.138   8.747
 1852POPC   D2A25948  33.065  32.027   8.338
 1852POPC   C3A25949  32.775  32.193   8.067
 1852POPC   C4A25950  32.866  32.269   7.637
 1852POPC   C1B25951  33.096  32.596   8.872
 1852POPC   C2B25952  33.087  32.643   8.442
 1852POPC   C3B25953  33.054  32.600   8.009
 1852POPC   C4B25954  33.116  32.708   7.598
 1853POPC   NC325955  33.452  25.222   9.582
 1853POPC   PO425956  34.121  25.052   9.599
 1853POPC   GL125957  33.814  25.200   9.234
 1853POPC   GL225958  33.473  25.436   9.139
 1853POPC   C1A25959  33.938  25.381   8.864
 1853POPC   D2A25960  33.924  25.182   8.480
 1853POPC   C3A25961  34.147  25.377   8.203
 1853POPC   C4A25962  34.086  25.296   7.794
 1853POPC   C1B25963  33.456  25.268   8.744
 1853POPC   C2B25964  33.521  25.458   8.355
 1853POPC   C3B25965  33.548  25.244   7.984
 1853POPC   C4B25966  33.626  25.423   7.603
 1854POPC   NC325967  41.984   7.546   9.459
 1854POPC   PO425968  41.276   7.355   9.374
 1854POPC   GL125969  41.600   7.507   9.113
 1854POPC   GL225970  41.691   7.173   9.076
 1854POPC   C1A25971  41.689   7.509   8.667
 1854POPC   D2A25972  41.601   7.299   8.263
 1854POPC   C3A25973  41.637   7.592   7.913
 1854POPC   C4A25974  41.477   7.680   7.480
 1854POPC   C1B25975  41.393   7.017   8.770
 1854POPC   C2B25976  41.207   6.973   8.394
 1854POPC   C3B25977  41.284   6.938   7.989
 1854POPC   C4B25978  41.502   7.179   7.683
 1855POPC   NC325979  33.200  18.209   9.476
 1855POPC   PO425980  32.633  18.626   9.617
 1855POPC   GL125981  32.765  18.401   9.204
 1855POPC   GL225982  32.872  18.030   9.114
 1855POPC   C1A25983  32.726  18.360   8.737
 1855POPC   D2A25984  32.892  18.519   8.319
 1855POPC   C3A25985  32.820  18.252   7.949
 1855POPC   C4A25986  32.987  18.204   7.530
 1855POPC   C1B25987  33.138  18.046   8.712
 1855POPC   C2B25988  33.107  17.967   8.251
 1855POPC   C3B25989  33.345  18.079   7.867
 1855POPC   C4B25990  33.399  17.885   7.408
 1856POPC   NC325991   8.000  27.526   9.572
 1856POPC   PO425992   8.653  27.277   9.514
 1856POPC   GL125993   8.407  27.525   9.149
 1856POPC   GL225994   8.048  27.662   9.106
 1856POPC   C1A25995   8.353  27.696   8.726
 1856POPC   D2A25996   8.188  27.462   8.352
 1856POPC   C3A25997   8.382  27.554   7.960
 1856POPC   C4A25998   8.267  27.404   7.563
 1856POPC   C1B25999   7.833  27.667   8.719
 1856POPC   C2B26000   7.758  27.739   8.277
 1856POPC   C3B26001   7.920  27.754   7.825
 1856POPC   C4B26002   7.915  27.714   7.355
 1857POPC   NC326003  32.862  28.779   9.574
 1857POPC   PO426004  32.866  29.458   9.589
 1857POPC   GL126005  32.953  29.179   9.216
 1857POPC   GL226006  32.683  28.949   9.125
 1857POPC   C1A26007  32.941  29.296   8.773
 1857POPC   D2A26008  32.726  29.326   8.336
 1857POPC   C3A26009  32.970  29.161   7.997
 1857POPC   C4A26010  33.183  29.569   8.006
 1857POPC   C1B26011  32.559  28.991   8.689
 1857POPC   C2B26012  32.720  28.808   8.314
 1857POPC   C3B26013  32.701  28.718   7.889
 1857POPC   C4B26014  32.646  28.998   7.533
 1858POPC   NC326015  14.986   2.540   9.505
 1858POPC   PO426016  15.582   2.856   9.557
 1858POPC   GL126017  15.298   2.823   9.198
 1858POPC   GL226018  15.229   2.499   9.084
 1858POPC   C1A26019  15.065   2.866   8.774
 1858POPC   D2A26020  14.884   2.874   8.328
 1858POPC   C3A26021  15.075   2.707   7.964
 1858POPC   C4A26022  15.371   2.862   7.697
 1858POPC   C1B26023  15.242   2.384   8.725
 1858POPC   C2B26024  15.329   2.579   8.375
 1858POPC   C3B26025  15.511   2.431   7.999
 1858POPC   C4B26026  15.179   2.207   7.840
 1859POPC   NC326027  18.837  31.254   9.390
 1859POPC   PO426028  19.146  30.620   9.591
 1859POPC   GL126029  19.151  30.790   9.148
 1859POPC   GL226030  19.452  30.850   9.005
 1859POPC   C1A26031  19.145  30.596   8.684
 1859POPC   D2A26032  19.193  30.352   8.275
 1859POPC   C3A26033  18.998  30.475   7.864
 1859POPC   C4A26034  18.663  30.626   7.566
 1859POPC   C1B26035  19.459  30.978   8.595
 1859POPC   C2B26036  19.200  30.989   8.276
 1859POPC   C3B26037  19.384  30.837   7.958
 1859POPC   C4B26038  19.505  30.527   7.742
 1860POPC   NC326039   7.405  35.356   9.714
 1860POPC   PO426040   7.885  35.033   9.436
 1860POPC   GL126041   7.486  35.173   9.134
 1860POPC   GL226042   7.305  35.487   9.157
 1860POPC   C1A26043   7.188  35.184   8.743
 1860POPC   D2A26044   7.310  35.123   8.307
 1860POPC   C3A26045   7.099  35.073   7.942
 1860POPC   C4A26046   7.420  35.253   7.687
 1860POPC   C1B26047   7.480  35.588   8.716
 1860POPC   C2B26048   7.563  35.559   8.295
 1860POPC   C3B26049   7.228  35.572   8.016
 1860POPC   C4B26050   7.199  35.761   7.619
 1861POPC   NC326051  18.831   0.801   9.465
 1861POPC   PO426052  19.075   0.202   9.519
 1861POPC   GL126053  19.224   0.281   9.139
 1861POPC   GL226054  18.880   0.386   9.066
 1861POPC   C1A26055  19.492   0.090   8.816
 1861POPC   D2A26056  19.648   0.076   8.389
 1861POPC   C3A26057  19.327   0.223   8.116
 1861POPC   C4A26058  19.314   0.474   7.747
 1861POPC   C1B26059  19.018   0.289   8.641
 1861POPC   C2B26060  18.838   0.359   8.252
 1861POPC   C3B26061  18.891   0.653   7.941
 1861POPC   C4B26062  18.692   0.709   7.570
 1862POPC   NC326063  25.098  12.702   9.408
 1862POPC   PO426064  25.785  12.609   9.537
 1862POPC   GL126065  25.571  12.694   9.143
 1862POPC   GL226066  25.420  12.399   9.121
 1862POPC   C1A26067  25.400  13.007   8.829
 1862POPC   D2A26068  25.399  13.296   8.475
 1862POPC   C3A26069  25.158  13.098   8.140
 1862POPC   C4A26070  25.209  13.039   7.696
 1862POPC   C1B26071  25.276  12.528   8.743
 1862POPC   C2B26072  25.509  12.755   8.402
 1862POPC   C3B26073  25.412  12.668   7.998
 1862POPC   C4B26074  25.064  12.548   7.818
 1863POPC   NC326075  27.063  14.312   9.850
 1863POPC   PO426076  26.484  14.296   9.449
 1863POPC   GL126077  26.530  14.321   9.056
 1863POPC   GL226078  26.735  14.619   8.957
 1863POPC   C1A26079  26.709  14.164   8.749
 1863POPC   D2A26080  26.838  14.359   8.414
 1863POPC   C3A26081  26.864  14.115   8.061
 1863POPC   C4A26082  26.671  14.138   7.653
 1863POPC   C1B26083  27.152  14.668   8.742
 1863POPC   C2B26084  27.285  14.548   8.310
 1863POPC   C3B26085  26.990  14.587   7.930
 1863POPC   C4B26086  27.004  14.477   7.488
 1864POPC   NC326087  25.826  25.794   9.441
 1864POPC   PO426088  25.874  25.076   9.516
 1864POPC   GL126089  25.783  25.313   9.151
 1864POPC   GL226090  25.600  25.020   9.052
 1864POPC   C1A26091  25.888  25.613   8.796
 1864POPC   D2A26092  25.930  25.569   8.347
 1864POPC   C3A26093  26.238  25.290   8.215
 1864POPC   C4A26094  26.286  25.302   7.817
 1864POPC   C1B26095  25.580  25.216   8.645
 1864POPC   C2B26096  25.720  25.115   8.210
 1864POPC   C3B26097  25.734  25.202   7.768
 1864POPC   C4B26098  25.664  25.097   7.323
 1865POPC   NC326099  33.599  16.015   9.551
 1865POPC   PO426100  34.222  16.149   9.583
 1865POPC   GL126101  33.954  16.092   9.175
 1865POPC   GL226102  33.814  15.824   9.148
 1865POPC   C1A26103  34.089  16.083   8.752
 1865POPC   D2A26104  34.291  15.744   8.484
 1865POPC   C3A26105  34.138  15.760   8.072
 1865POPC   C4A26106  34.015  16.127   7.889
 1865POPC   C1B26107  33.892  15.622   8.780
 1865POPC   C2B26108  33.770  15.558   8.390
 1865POPC   C3B26109  33.627  15.821   8.094
 1865POPC   C4B26110  33.515  15.671   7.728
 1866POPC   NC326111  17.173  22.627   9.615
 1866POPC   PO426112  17.654  23.045   9.690
 1866POPC   GL126113  17.460  22.988   9.308
 1866POPC   GL226114  17.797  22.841   9.203
 1866POPC   C1A26115  17.459  22.978   8.853
 1866POPC   D2A26116  17.579  22.945   8.434
 1866POPC   C3A26117  17.287  23.016   8.104
 1866POPC   C4A26118  17.293  22.870   7.689
 1866POPC   C1B26119  17.980  22.965   8.796
 1866POPC   C2B26120  18.128  22.955   8.386
 1866POPC   C3B26121  17.883  22.849   8.023
 1866POPC   C4B26122  17.760  22.642   7.645
 1867POPC   NC326123  22.535  24.022   9.666
 1867POPC   PO426124  23.015  23.648   9.629
 1867POPC   GL126125  22.850  23.983   9.251
 1867POPC   GL226126  22.477  23.957   9.146
 1867POPC   C1A26127  23.014  24.111   8.803
 1867POPC   D2A26128  22.988  23.977   8.347
 1867POPC   C3A26129  23.191  23.690   8.056
 1867POPC   C4A26130  23.107  23.611   7.623
 1867POPC   C1B26131  22.560  23.887   8.683
 1867POPC   C2B26132  22.494  23.751   8.241
 1867POPC   C3B26133  22.719  23.831   7.885
 1867POPC   C4B26134  22.653  23.749   7.430
 1868POPC   NC326135  36.743  20.179   9.518
 1868POPC   PO426136  36.597  19.521   9.532
 1868POPC   GL126137  36.797  19.721   9.179
 1868POPC   GL226138  36.939  20.066   9.067
 1868POPC   C1A26139  36.972  19.576   8.806
 1868POPC   D2A26140  36.897  19.782   8.431
 1868POPC   C3A26141  36.682  19.684   8.053
 1868POPC   C4A26142  36.954  19.869   7.766
 1868POPC   C1B26143  36.647  20.260   8.758
 1868POPC   C2B26144  36.497  20.089   8.367
 1868POPC   C3B26145  36.623  20.226   7.988
 1868POPC   C4B26146  36.788  20.294   7.569
 1869POPC   NC326147  36.358   7.288   9.633
 1869POPC   PO426148  36.006   7.890   9.563
 1869POPC   GL126149  36.204   7.631   9.244
 1869POPC   GL226150  36.001   7.340   9.198
 1869POPC   C1A26151  36.361   7.538   8.830
 1869POPC   D2A26152  36.158   7.339   8.459
 1869POPC   C3A26153  36.191   7.498   8.040
 1869POPC   C4A26154  36.403   7.311   7.697
 1869POPC   C1B26155  35.764   7.423   8.805
 1869POPC   C2B26156  35.713   7.573   8.378
 1869POPC   C3B26157  35.730   7.321   8.020
 1869POPC   C4B26158  35.845   7.570   7.664
 1870POPC   NC326159   5.347  38.127   9.833
 1870POPC   PO426160   5.003  38.561   9.493
 1870POPC   GL126161   5.226  38.467   9.121
 1870POPC   GL226162   5.019  38.226   8.938
 1870POPC   C1A26163   5.276  38.600   8.697
 1870POPC   D2A26164   5.075  38.462   8.317
 1870POPC   C3A26165   5.309  38.517   7.933
 1870POPC   C4A26166   5.217  38.421   7.517
 1870POPC   C1B26167   4.912  37.972   8.603
 1870POPC   C2B26168   4.879  37.982   8.177
 1870POPC   C3B26169   4.882  38.251   7.859
 1870POPC   C4B26170   4.719  38.282   7.469
 1871POPC   NC326171   9.239   8.110   9.466
 1871POPC   PO426172   8.591   7.811   9.424
 1871POPC   GL126173   8.789   7.947   9.056
 1871POPC   GL226174   8.925   8.256   9.066
 1871POPC   C1A26175   8.922   8.033   8.611
 1871POPC   D2A26176   9.224   7.884   8.343
 1871POPC   C3A26177   8.931   8.044   8.062
 1871POPC   C4A26178   8.963   8.298   7.716
 1871POPC   C1B26179   9.020   8.541   8.729
 1871POPC   C2B26180   8.952   8.501   8.299
 1871POPC   C3B26181   9.026   8.757   7.943
 1871POPC   C4B26182   9.045   8.732   7.468
 1872POPC   NC326183  12.574  32.090   9.533
 1872POPC   PO426184  13.250  32.401   9.622
 1872POPC   GL126185  12.949  32.394   9.261
 1872POPC   GL226186  13.001  32.127   9.090
 1872POPC   C1A26187  12.834  32.483   8.802
 1872POPC   D2A26188  12.736  32.190   8.490
 1872POPC   C3A26189  12.714  32.232   8.059
 1872POPC   C4A26190  12.736  32.472   7.692
 1872POPC   C1B26191  13.024  31.855   8.752
 1872POPC   C2B26192  12.914  31.695   8.363
 1872POPC   C3B26193  13.028  31.828   7.951
 1872POPC   C4B26194  12.862  31.999   7.591
 1873POPC   NC326195  21.645  15.265   9.592
 1873POPC   PO426196  21.080  15.353   9.359
 1873POPC   GL126197  21.249  15.179   9.022
 1873POPC   GL226198  21.526  15.087   9.129
 1873POPC   C1A26199  21.209  15.338   8.655
 1873POPC   D2A26200  21.233  15.221   8.261
 1873POPC   C3A26201  21.005  15.444   7.946
 1873POPC   C4A26202  21.317  15.218   7.711
 1873POPC   C1B26203  21.708  15.058   8.729
 1873POPC   C2B26204  21.913  15.130   8.358
 1873POPC   C3B26205  21.735  15.338   8.016
 1873POPC   C4B26206  21.827  15.118   7.661
 1874POPC   NC326207  27.932  38.518   9.339
 1874POPC   PO426208  27.283  38.779   9.197
 1874POPC   GL126209  27.551  38.443   8.969
 1874POPC   GL226210  27.865  38.211   8.946
 1874POPC   C1A26211  27.851  38.636   8.680
 1874POPC   D2A26212  27.941  38.558   8.260
 1874POPC   C3A26213  27.501  38.479   8.142
 1874POPC   C4A26214  27.279  38.499   7.739
 1874POPC   C1B26215  27.783  38.142   8.537
 1874POPC   C2B26216  27.843  38.074   8.112
 1874POPC   C3B26217  27.811  38.368   7.763
 1874POPC   C4B26218  27.804  38.249   7.352
 1875POPC   NC326219  22.549  25.311   9.508
 1875POPC   PO426220  22.015  24.946   9.509
 1875POPC   GL126221  21.974  25.182   9.116
 1875POPC   GL226222  22.267  25.401   9.099
 1875POPC   C1A26223  22.156  25.135   8.698
 1875POPC   D2A26224  22.189  25.331   8.343
 1875POPC   C3A26225  22.307  25.160   7.996
 1875POPC   C4A26226  22.029  25.271   7.710
 1875POPC   C1B26227  22.043  25.635   8.765
 1875POPC   C2B26228  22.103  25.815   8.364
 1875POPC   C3B26229  22.279  25.695   7.961
 1875POPC   C4B26230  22.501  25.477   7.634
 1876POPC   NC326231  39.936  42.868   9.643
 1876POPC   PO426232  39.639  43.438   9.479
 1876POPC   GL126233  39.850  43.105   9.177
 1876POPC   GL226234  40.129  42.803   9.186
 1876POPC   C1A26235  39.695  43.123   8.754
 1876POPC   D2A26236  39.698  43.348   8.360
 1876POPC   C3A26237  39.855  43.124   8.047
 1876POPC   C4A26238  39.601  43.153   7.708
 1876POPC   C1B26239  40.170  42.949   8.759
 1876POPC   C2B26240  40.284  43.146   8.373
 1876POPC   C3B26241  40.351  42.954   7.980
 1876POPC   C4B26242  40.424  42.966   7.549
 1877POPC   NC326243  34.272  33.897   9.584
 1877POPC   PO426244  34.835  33.502   9.488
 1877POPC   GL126245  34.648  33.817   9.189
 1877POPC   GL226246  34.283  33.942   9.097
 1877POPC   C1A26247  34.581  33.710   8.765
 1877POPC   D2A26248  34.647  33.542   8.406
 1877POPC   C3A26249  34.573  33.823   8.091
 1877POPC   C4A26250  34.582  33.786   7.660
 1877POPC   C1B26251  34.317  34.147   8.686
 1877POPC   C2B26252  34.239  34.268   8.237
 1877POPC   C3B26253  34.439  34.253   7.832
 1877POPC   C4B26254  34.331  34.158   7.396
 1878POPC   NC326255   2.614  33.464   9.572
 1878POPC   PO426256   2.872  34.032   9.620
 1878POPC   GL126257   2.943  33.771   9.257
 1878POPC   GL226258   2.604  33.747   9.158
 1878POPC   C1A26259   2.946  33.843   8.808
 1878POPC   D2A26260   2.797  33.643   8.478
 1878POPC   C3A26261   2.923  33.857   8.161
 1878POPC   C4A26262   2.979  33.796   7.751
 1878POPC   C1B26263   2.449  33.457   8.858
 1878POPC   C2B26264   2.366  33.389   8.425
 1878POPC   C3B26265   2.409  33.709   8.135
 1878POPC   C4B26266   2.453  33.686   7.725
 1879POPC   NC326267  31.673   5.309   9.853
 1879POPC   PO426268  31.207   4.928   9.656
 1879POPC   GL126269  31.294   5.138   9.265
 1879POPC   GL226270  31.637   5.047   9.285
 1879POPC   C1A26271  31.183   5.104   8.826
 1879POPC   D2A26272  31.212   5.255   8.400
 1879POPC   C3A26273  31.076   5.018   8.043
 1879POPC   C4A26274  31.226   4.842   7.673
 1879POPC   C1B26275  31.663   5.325   8.930
 1879POPC   C2B26276  31.724   5.264   8.490
 1879POPC   C3B26277  31.599   5.268   8.034
 1879POPC   C4B26278  31.723   4.926   7.778
 1880POPC   NC326279  34.546  13.885   9.286
 1880POPC   PO426280  34.983  13.422   9.304
 1880POPC   GL126281  34.661  13.355   9.012
 1880POPC   GL226282  34.656  13.686   8.839
 1880POPC   C1A26283  34.716  13.255   8.586
 1880POPC   D2A26284  34.765  13.601   8.329
 1880POPC   C3A26285  34.658  13.454   7.948
 1880POPC   C4A26286  34.467  13.612   7.634
 1880POPC   C1B26287  34.316  13.878   8.612
 1880POPC   C2B26288  34.348  13.878   8.176
 1880POPC   C3B26289  34.184  14.014   7.829
 1880POPC   C4B26290  34.135  13.977   7.419
 1881POPC   NC326291   2.926  38.608   9.660
 1881POPC   PO426292   2.387  38.326   9.428
 1881POPC   GL126293   2.627  38.535   9.159
 1881POPC   GL226294   2.902  38.331   9.220
 1881POPC   C1A26295   2.829  38.620   8.772
 1881POPC   D2A26296   2.670  38.453   8.395
 1881POPC   C3A26297   2.756  38.643   8.020
 1881POPC   C4A26298   2.729  38.433   7.633
 1881POPC   C1B26299   2.949  38.137   8.785
 1881POPC   C2B26300   3.114  38.209   8.354
 1881POPC   C3B26301   3.212  38.041   7.931
 1881POPC   C4B26302   2.946  37.928   7.574
 1882POPC   NC326303  41.389  17.043   9.480
 1882POPC   PO426304  41.365  17.625   9.548
 1882POPC   GL126305  41.535  17.439   9.171
 1882POPC   GL226306  41.817  17.673   9.090
 1882POPC   C1A26307  41.371  17.180   8.793
 1882POPC   D2A26308  41.130  17.130   8.394
 1882POPC   C3A26309  41.349  17.339   8.020
 1882POPC   C4A26310  41.687  17.490   7.695
 1882POPC   C1B26311  41.840  17.377   8.775
 1882POPC   C2B26312  41.705  17.322   8.382
 1882POPC   C3B26313  41.726  17.699   8.146
 1882POPC   C4B26314  41.959  17.929   7.797
 1883POPC   NC326315  36.068  40.373   9.588
 1883POPC   PO426316  36.495  39.966   9.222
 1883POPC   GL126317  36.239  39.950   8.883
 1883POPC   GL226318  35.940  40.067   9.001
 1883POPC   C1A26319  36.072  39.977   8.466
 1883POPC   D2A26320  36.139  40.322   8.169
 1883POPC   C3A26321  36.171  40.119   7.810
 1883POPC   C4A26322  36.129  39.680   7.884
 1883POPC   C1B26323  35.671  40.217   8.689
 1883POPC   C2B26324  35.656  40.398   8.307
 1883POPC   C3B26325  35.716  40.332   7.875
 1883POPC   C4B26326  35.842  40.342   7.450
 1884POPC   NC326327   1.657  44.048   9.987
 1884POPC   PO426328   2.121  43.737   9.510
 1884POPC   GL126329   1.979  43.977   9.186
 1884POPC   GL226330   2.053  43.727   8.977
 1884POPC   C1A26331   1.899  44.186   8.811
 1884POPC   D2A26332   1.838  43.960   8.448
 1884POPC   C3A26333   1.764  44.169   8.071
 1884POPC   C4A26334   2.059  44.193   7.741
 1884POPC   C1B26335   2.054  43.455   8.646
 1884POPC   C2B26336   1.893  43.461   8.274
 1884POPC   C3B26337   2.023  43.724   7.977
 1884POPC   C4B26338   2.174  43.585   7.616
 1885POPC   NC326339  20.398  29.002   9.264
 1885POPC   PO426340  20.970  29.351   9.320
 1885POPC   GL126341  20.730  29.253   8.974
 1885POPC   GL226342  20.445  29.483   9.111
 1885POPC   C1A26343  20.729  28.894   8.665
 1885POPC   D2A26344  20.645  28.776   8.240
 1885POPC   C3A26345  20.811  29.088   7.994
 1885POPC   C4A26346  21.019  29.072   7.666
 1885POPC   C1B26347  20.296  29.409   8.702
 1885POPC   C2B26348  20.381  29.177   8.380
 1885POPC   C3B26349  20.308  29.088   7.980
 1885POPC   C4B26350  20.460  29.309   7.708
 1886POPC   NC326351  39.347  37.408   9.599
 1886POPC   PO426352  38.801  37.441   9.400
 1886POPC   GL126353  39.083  37.675   9.157
 1886POPC   GL226354  39.434  37.608   9.149
 1886POPC   C1A26355  39.177  37.864   8.792
 1886POPC   D2A26356  39.027  37.698   8.416
 1886POPC   C3A26357  39.183  37.851   8.028
 1886POPC   C4A26358  39.118  37.890   7.615
 1886POPC   C1B26359  39.428  37.436   8.708
 1886POPC   C2B26360  39.446  37.476   8.243
 1886POPC   C3B26361  39.491  37.513   7.787
 1886POPC   C4B26362  39.668  37.339   7.399
 1887POPC   NC326363  28.690  38.246   9.618
 1887POPC   PO426364  28.366  38.670   9.273
 1887POPC   GL126365  28.310  38.456   8.986
 1887POPC   GL226366  28.377  38.127   9.214
 1887POPC   C1A26367  28.343  38.677   8.592
 1887POPC   D2A26368  28.540  38.602   8.218
 1887POPC   C3A26369  28.290  38.528   7.865
 1887POPC   C4A26370  28.218  38.481   7.439
 1887POPC   C1B26371  28.320  37.995   8.825
 1887POPC   C2B26372  28.286  38.186   8.445
 1887POPC   C3B26373  28.362  38.076   8.069
 1887POPC   C4B26374  28.162  38.020   7.710
 1888POPC   NC326375  18.316  25.638   9.451
 1888POPC   PO426376  18.135  26.357   9.392
 1888POPC   GL126377  18.456  26.125   9.158
 1888POPC   GL226378  18.222  25.869   8.989
 1888POPC   C1A26379  18.620  26.086   8.732
 1888POPC   D2A26380  18.319  25.880   8.446
 1888POPC   C3A26381  18.296  26.098   8.051
 1888POPC   C4A26382  18.376  25.856   7.697
 1888POPC   C1B26383  17.852  25.794   8.673
 1888POPC   C2B26384  17.815  25.629   8.256
 1888POPC   C3B26385  17.870  25.856   7.856
 1888POPC   C4B26386  17.841  25.644   7.448
 1889POPC   NC326387  14.731  30.629   9.539
 1889POPC   PO426388  15.345  30.849   9.518
 1889POPC   GL126389  15.081  30.691   9.155
 1889POPC   GL226390  14.860  30.965   9.154
 1889POPC   C1A26391  14.831  30.581   8.742
 1889POPC   D2A26392  14.826  30.366   8.305
 1889POPC   C3A26393  15.088  30.500   7.922
 1889POPC   C4A26394  15.060  30.367   7.478
 1889POPC   C1B26395  15.108  31.005   8.752
 1889POPC   C2B26396  15.152  30.799   8.342
 1889POPC   C3B26397  15.099  30.999   7.924
 1889POPC   C4B26398  15.001  31.200   7.546
 1890POPC   NC326399  42.592   8.864   9.285
 1890POPC   PO426400  42.267   9.243   9.712
 1890POPC   GL126401  42.169   9.341   9.207
 1890POPC   GL226402  42.441   9.257   8.966
 1890POPC   C1A26403  41.922   9.260   8.845
 1890POPC   D2A26404  41.816   9.234   8.430
 1890POPC   C3A26405  42.228   9.188   8.178
 1890POPC   C4A26406  42.368   8.938   7.820
 1890POPC   C1B26407  42.576   8.960   8.604
 1890POPC   C2B26408  42.359   8.661   8.308
 1890POPC   C3B26409  42.107   8.483   7.974
 1890POPC   C4B26410  41.975   8.616   7.592
 1891POPC   NC326411  41.312   5.086   9.391
 1891POPC   PO426412  41.944   4.875   9.510
 1891POPC   GL126413  41.733   4.987   9.139
 1891POPC   GL226414  41.673   5.360   9.154
 1891POPC   C1A26415  41.588   5.047   8.726
 1891POPC   D2A26416  41.858   4.998   8.403
 1891POPC   C3A26417  41.590   4.793   8.151
 1891POPC   C4A26418  41.467   4.925   7.770
 1891POPC   C1B26419  41.640   5.555   8.750
 1891POPC   C2B26420  41.752   5.511   8.403
 1891POPC   C3B26421  41.568   5.299   8.107
 1891POPC   C4B26422  41.604   5.400   7.689
 1892POPC   NC326423   4.841  14.128   9.460
 1892POPC   PO426424   5.026  14.672   9.520
 1892POPC   GL126425   5.034  14.545   9.137
 1892POPC   GL226426   4.815  14.803   9.060
 1892POPC   C1A26427   5.206  14.267   8.830
 1892POPC   D2A26428   5.293  14.426   8.428
 1892POPC   C3A26429   5.178  14.299   8.034
 1892POPC   C4A26430   5.266  14.343   7.646
 1892POPC   C1B26431   4.805  14.533   8.670
 1892POPC   C2B26432   4.849  14.606   8.235
 1892POPC   C3B26433   4.822  14.567   7.766
 1892POPC   C4B26434   4.844  14.669   7.317
 1893POPC   NC326435  32.478  35.205   9.936
 1893POPC   PO426436  31.908  35.245   9.592
 1893POPC   GL126437  32.038  35.249   9.146
 1893POPC   GL226438  31.950  34.918   9.067
 1893POPC   C1A26439  32.380  35.349   8.877
 1893POPC   D2A26440  32.492  35.445   8.463
 1893POPC   C3A26441  32.282  35.518   8.098
 1893POPC   C4A26442  32.392  35.749   7.786
 1893POPC   C1B26443  32.119  34.959   8.698
 1893POPC   C2B26444  32.058  35.184   8.393
 1893POPC   C3B26445  31.914  35.179   7.980
 1893POPC   C4B26446  31.918  34.847   7.693
 1894POPC   NC326447  24.462  26.545   9.679
 1894POPC   PO426448  24.696  26.011   9.468
 1894POPC   GL126449  24.744  25.977   9.058
 1894POPC   GL226450  24.391  25.969   8.991
 1894POPC   C1A26451  24.722  25.918   8.623
 1894POPC   D2A26452  24.558  26.167   8.287
 1894POPC   C3A26453  24.729  26.010   7.918
 1894POPC   C4A26454  24.772  25.684   7.641
 1894POPC   C1B26455  24.151  26.264   8.786
 1894POPC   C2B26456  23.958  26.152   8.424
 1894POPC   C3B26457  24.130  26.087   8.034
 1894POPC   C4B26458  24.364  26.383   7.798
 1895POPC   NC326459   3.053  26.667   9.584
 1895POPC   PO426460   2.435  26.932   9.635
 1895POPC   GL126461   2.737  26.905   9.242
 1895POPC   GL226462   2.662  26.577   9.184
 1895POPC   C1A26463   2.957  26.809   8.809
 1895POPC   D2A26464   2.798  26.740   8.371
 1895POPC   C3A26465   2.955  26.843   7.953
 1895POPC   C4A26466   2.952  27.124   7.587
 1895POPC   C1B26467   2.551  26.300   8.852
 1895POPC   C2B26468   2.540  26.225   8.420
 1895POPC   C3B26469   2.650  26.406   7.997
 1895POPC   C4B26470   2.534  26.569   7.581
 1896POPC   NC326471  29.050  42.564   9.535
 1896POPC   PO426472  29.230  41.924   9.486
 1896POPC   GL126473  29.090  42.196   9.145
 1896POPC   GL226474  29.312  42.512   9.116
 1896POPC   C1A26475  29.286  42.188   8.735
 1896POPC   D2A26476  29.434  42.431   8.437
 1896POPC   C3A26477  29.555  42.220   8.097
 1896POPC   C4A26478  29.251  42.199   7.794
 1896POPC   C1B26479  28.995  42.632   8.821
 1896POPC   C2B26480  28.948  42.684   8.389
 1896POPC   C3B26481  29.222  42.684   8.046
 1896POPC   C4B26482  29.089  42.699   7.652
 1897POPC   NC326483  14.691   9.060   9.546
 1897POPC   PO426484  14.139   8.675   9.469
 1897POPC   GL126485  14.337   8.936   9.194
 1897POPC   GL226486  14.592   8.737   9.137
 1897POPC   C1A26487  14.493   9.207   8.865
 1897POPC   D2A26488  14.638   9.235   8.429
 1897POPC   C3A26489  14.344   9.084   8.154
 1897POPC   C4A26490  14.379   9.147   7.721
 1897POPC   C1B26491  14.661   8.444   8.821
 1897POPC   C2B26492  14.514   8.507   8.406
 1897POPC   C3B26493  14.716   8.718   8.103
 1897POPC   C4B26494  14.770   8.776   7.708
 1898POPC   NC326495  14.097  16.896   9.475
 1898POPC   PO426496  14.620  16.440   9.575
 1898POPC   GL126497  14.503  16.681   9.195
 1898POPC   GL226498  14.143  16.703   9.017
 1898POPC   C1A26499  14.580  16.809   8.781
 1898POPC   D2A26500  14.312  16.727   8.441
 1898POPC   C3A26501  14.480  16.590   8.039
 1898POPC   C4A26502  14.249  16.419   7.689
 1898POPC   C1B26503  14.166  17.122   8.792
 1898POPC   C2B26504  14.086  17.186   8.336
 1898POPC   C3B26505  14.453  17.121   8.116
 1898POPC   C4B26506  14.512  16.991   7.722
 1899POPC   NC326507  26.699  19.750   9.843
 1899POPC   PO426508  27.134  19.850   9.335
 1899POPC   GL126509  26.832  19.926   9.101
 1899POPC   GL226510  26.711  20.290   9.116
 1899POPC   C1A26511  26.942  19.738   8.684
 1899POPC   D2A26512  27.237  19.809   8.334
 1899POPC   C3A26513  27.007  19.874   7.999
 1899POPC   C4A26514  26.814  19.741   7.681
 1899POPC   C1B26515  26.555  20.081   8.724
 1899POPC   C2B26516  26.588  19.830   8.324
 1899POPC   C3B26517  26.395  19.945   7.948
 1899POPC   C4B26518  26.684  20.228   7.820
 1900POPC   NC326519  25.181  19.422   9.991
 1900POPC   PO426520  25.587  19.107   9.626
 1900POPC   GL126521  25.525  19.064   9.147
 1900POPC   GL226522  25.739  19.330   9.062
 1900POPC   C1A26523  25.306  18.772   8.816
 1900POPC   D2A26524  25.052  18.692   8.419
 1900POPC   C3A26525  25.286  18.778   8.027
 1900POPC   C4A26526  25.174  18.983   7.638
 1900POPC   C1B26527  25.655  19.133   8.646
 1900POPC   C2B26528  25.648  19.129   8.189
 1900POPC   C3B26529  25.571  19.335   7.807
 1900POPC   C4B26530  25.512  19.703   7.536
 1901POPC   NC326531   6.045   1.817   9.509
 1901POPC   PO426532   5.607   2.237   9.709
 1901POPC   GL126533   5.615   2.407   9.280
 1901POPC   GL226534   5.976   2.350   9.141
 1901POPC   C1A26535   5.535   2.365   8.828
 1901POPC   D2A26536   5.587   2.010   8.525
 1901POPC   C3A26537   5.604   2.012   8.062
 1901POPC   C4A26538   5.786   1.714   7.742
 1901POPC   C1B26539   6.054   2.260   8.667
 1901POPC   C2B26540   6.099   2.082   8.215
 1901POPC   C3B26541   6.066   2.173   7.748
 1901POPC   C4B26542   6.130   2.357   7.314
 1902POPC   NC326543  11.933  24.748   9.296
 1902POPC   PO426544  11.727  25.370   9.528
 1902POPC   GL126545  12.000  25.195   9.096
 1902POPC   GL226546  12.295  24.984   9.019
 1902POPC   C1A26547  12.061  24.993   8.608
 1902POPC   D2A26548  11.923  25.271   8.306
 1902POPC   C3A26549  11.996  25.156   7.934
 1902POPC   C4A26550  11.951  25.524   7.723
 1902POPC   C1B26551  12.321  25.399   8.754
 1902POPC   C2B26552  12.416  25.354   8.308
 1902POPC   C3B26553  12.422  25.428   7.872
 1902POPC   C4B26554  12.368  25.273   7.429
 1903POPC   NC326555  30.172  25.697   9.452
 1903POPC   PO426556  29.829  26.296   9.600
 1903POPC   GL126557  29.879  26.063   9.214
 1903POPC   GL226558  29.725  25.755   9.157
 1903POPC   C1A26559  30.091  26.051   8.833
 1903POPC   D2A26560  30.265  26.177   8.469
 1903POPC   C3A26561  30.231  25.961   8.111
 1903POPC   C4A26562  30.017  26.242   7.838
 1903POPC   C1B26563  29.607  25.836   8.775
 1903POPC   C2B26564  29.830  25.841   8.432
 1903POPC   C3B26565  29.708  25.928   8.065
 1903POPC   C4B26566  29.476  25.715   7.822
 1904POPC   NC326567  20.696  16.648   9.466
 1904POPC   PO426568  20.172  17.006   9.356
 1904POPC   GL126569  20.547  17.006   9.141
 1904POPC   GL226570  20.449  16.670   9.014
 1904POPC   C1A26571  20.869  16.914   8.831
 1904POPC   D2A26572  21.039  16.881   8.428
 1904POPC   C3A26573  20.731  16.676   8.146
 1904POPC   C4A26574  20.539  16.873   7.796
 1904POPC   C1B26575  20.319  16.951   8.688
 1904POPC   C2B26576  20.309  16.913   8.274
 1904POPC   C3B26577  20.162  16.633   7.982
 1904POPC   C4B26578  20.127  16.792   7.505
 1905POPC   NC326579  13.404  12.883   9.532
 1905POPC   PO426580  14.106  12.717   9.465
 1905POPC   GL126581  13.790  12.835   9.130
 1905POPC   GL226582  13.423  12.803   9.049
 1905POPC   C1A26583  13.752  13.035   8.734
 1905POPC   D2A26584  13.579  13.216   8.403
 1905POPC   C3A26585  13.624  12.999   8.081
 1905POPC   C4A26586  13.469  12.942   7.696
 1905POPC   C1B26587  13.534  12.534   8.719
 1905POPC   C2B26588  13.593  12.401   8.303
 1905POPC   C3B26589  13.352  12.557   7.993
 1905POPC   C4B26590  13.191  12.543   7.561
 1906POPC   NC326591  17.037  15.360   9.397
 1906POPC   PO426592  16.496  15.176   9.755
 1906POPC   GL126593  16.589  15.096   9.280
 1906POPC   GL226594  16.880  14.863   9.294
 1906POPC   C1A26595  16.714  15.275   8.817
 1906POPC   D2A26596  16.497  15.517   8.552
 1906POPC   C3A26597  16.543  15.340   8.160
 1906POPC   C4A26598  16.698  15.476   7.777
 1906POPC   C1B26599  16.745  14.792   8.869
 1906POPC   C2B26600  16.841  14.914   8.454
 1906POPC   C3B26601  16.640  14.811   8.083
 1906POPC   C4B26602  16.738  14.974   7.707
 1907POPC   NC326603   0.607  39.436   9.487
 1907POPC   PO426604   0.360  38.894   9.599
 1907POPC   GL126605   0.299  39.111   9.184
 1907POPC   GL226606   0.505  39.409   9.001
 1907POPC   C1A26607   0.352  38.924   8.778
 1907POPC   D2A26608   0.568  39.121   8.449
 1907POPC   C3A26609   0.672  38.902   8.104
 1907POPC   C4A26610   0.627  39.098   7.724
 1907POPC   C1B26611   0.163  39.392   8.712
 1907POPC   C2B26612   0.013  39.102   8.417
 1907POPC   C3B26613   0.165  39.036   8.016
 1907POPC   C4B26614   0.149  39.292   7.682
 1908POPC   NC326615   0.397   4.813   9.922
 1908POPC   PO426616   0.619   5.407   9.632
 1908POPC   GL126617   0.539   5.260   9.229
 1908POPC   GL226618   0.191   5.174   9.184
 1908POPC   C1A26619   0.518   5.440   8.838
 1908POPC   D2A26620   0.682   5.269   8.468
 1908POPC   C3A26621   0.476   5.075   8.114
 1908POPC   C4A26622   0.661   4.857   7.753
 1908POPC   C1B26623   0.251   5.032   8.736
 1908POPC   C2B26624   0.130   4.774   8.371
 1908POPC   C3B26625  45.000   4.845   7.955
 1908POPC   C4B26626   0.204   5.062   7.643
 1909POPC   NC326627  30.289  11.037   9.576
 1909POPC   PO426628  31.001  11.115   9.601
 1909POPC   GL126629  30.816  11.188   9.214
 1909POPC   GL226630  30.555  10.952   9.153
 1909POPC   C1A26631  30.909  11.098   8.790
 1909POPC   D2A26632  30.796  11.428   8.533
 1909POPC   C3A26633  30.754  11.358   8.079
 1909POPC   C4A26634  30.933  11.692   7.867
 1909POPC   C1B26635  30.402  11.097   8.799
 1909POPC   C2B26636  30.549  11.008   8.407
 1909POPC   C3B26637  30.377  10.980   8.045
 1909POPC   C4B26638  30.559  11.019   7.675
 1910POPC   NC326639  25.803  26.820   9.271
 1910POPC   PO426640  25.232  27.056   9.274
 1910POPC   GL126641  25.274  26.751   9.016
 1910POPC   GL226642  25.524  26.537   8.929
 1910POPC   C1A26643  25.111  26.708   8.642
 1910POPC   D2A26644  25.306  26.644   8.304
 1910POPC   C3A26645  25.130  26.877   8.084
 1910POPC   C4A26646  25.049  27.032   7.729
 1910POPC   C1B26647  25.623  26.888   8.661
 1910POPC   C2B26648  25.607  27.184   8.383
 1910POPC   C3B26649  25.612  27.005   7.993
 1910POPC   C4B26650  25.554  27.129   7.600
 1911POPC   NC326651  11.870  32.200   9.466
 1911POPC   PO426652  12.319  31.696   9.513
 1911POPC   GL126653  12.230  32.038   9.149
 1911POPC   GL226654  12.477  32.246   9.060
 1911POPC   C1A26655  11.950  32.161   8.766
 1911POPC   D2A26656  11.740  32.093   8.346
 1911POPC   C3A26657  11.922  32.063   7.903
 1911POPC   C4A26658  12.354  32.053   7.685
 1911POPC   C1B26659  12.292  32.533   8.785
 1911POPC   C2B26660  12.399  32.579   8.378
 1911POPC   C3B26661  12.243  32.434   8.020
 1911POPC   C4B26662  12.233  32.554   7.604
 1912POPC   NC326663   3.169  39.379   9.481
 1912POPC   PO426664   2.662  39.001   9.672
 1912POPC   GL126665   2.742  39.063   9.243
 1912POPC   GL226666   3.016  38.869   9.214
 1912POPC   C1A26667   2.660  39.274   8.833
 1912POPC   D2A26668   2.502  39.525   8.476
 1912POPC   C3A26669   2.584  39.315   8.094
 1912POPC   C4A26670   2.837  39.428   7.698
 1912POPC   C1B26671   3.133  39.031   8.837
 1912POPC   C2B26672   2.922  39.000   8.434
 1912POPC   C3B26673   3.027  39.092   8.018
 1912POPC   C4B26674   2.938  38.898   7.612
 1913POPC   NC326675  42.031   4.100   9.442
 1913POPC   PO426676  42.536   4.465   9.510
 1913POPC   GL126677  42.324   4.407   9.162
 1913POPC   GL226678  42.185   4.731   9.054
 1913POPC   C1A26679  42.402   4.013   8.918
 1913POPC   D2A26680  42.313   3.914   8.511
 1913POPC   C3A26681  42.320   4.196   8.168
 1913POPC   C4A26682  42.225   4.125   7.745
 1913POPC   C1B26683  42.342   4.468   8.673
 1913POPC   C2B26684  42.702   4.446   8.416
 1913POPC   C3B26685  42.697   4.585   8.015
 1913POPC   C4B26686  42.305   4.629   7.789
 1914POPC   NC326687  22.881  44.372   9.539
 1914POPC   PO426688  22.341  44.759   9.614
 1914POPC   GL126689  22.635  44.687   9.209
 1914POPC   GL226690  22.972  44.594   9.111
 1914POPC   C1A26691  22.594  44.555   8.786
 1914POPC   D2A26692  22.929  44.512   8.498
 1914POPC   C3A26693  22.836  44.696   8.096
 1914POPC   C4A26694  22.812  44.466   7.704
 1914POPC   C1B26695  23.221  44.302   8.922
 1914POPC   C2B26696  23.400  44.279   8.528
 1914POPC   C3B26697  23.331  44.515   8.153
 1914POPC   C4B26698  23.333  44.292   7.765
 1915POPC   NC326699  33.873  38.130   9.542
 1915POPC   PO426700  33.516  38.673   9.626
 1915POPC   GL126701  33.797  38.610   9.242
 1915POPC   GL226702  34.048  38.348   9.122
 1915POPC   C1A26703  33.649  38.702   8.811
 1915POPC   D2A26704  33.372  38.722   8.436
 1915POPC   C3A26705  33.634  38.693   8.045
 1915POPC   C4A26706  33.968  38.730   7.764
 1915POPC   C1B26707  34.225  38.112   8.766
 1915POPC   C2B26708  34.241  38.241   8.328
 1915POPC   C3B26709  34.061  38.130   7.916
 1915POPC   C4B26710  34.234  37.890   7.561
 1916POPC   NC326711  39.413  18.886   9.469
 1916POPC   PO426712  38.864  19.299   9.428
 1916POPC   GL126713  39.241  19.264   9.138
 1916POPC   GL226714  39.555  19.026   9.017
 1916POPC   C1A26715  39.140  19.113   8.730
 1916POPC   D2A26716  39.134  18.957   8.298
 1916POPC   C3A26717  39.291  19.250   8.044
 1916POPC   C4A26718  39.020  19.314   7.737
 1916POPC   C1B26719  39.825  18.693   8.786
 1916POPC   C2B26720  39.805  18.485   8.384
 1916POPC   C3B26721  39.523  18.500   8.014
 1916POPC   C4B26722  39.279  18.813   7.805
 1917POPC   NC326723   0.983  18.128   9.404
 1917POPC   PO426724   1.654  18.343   9.506
 1917POPC   GL126725   1.425  18.354   9.165
 1917POPC   GL226726   1.457  17.980   9.150
 1917POPC   C1A26727   1.361  18.606   8.785
 1917POPC   D2A26728   1.283  18.427   8.382
 1917POPC   C3A26729   1.205  18.531   7.973
 1917POPC   C4A26730   0.959  18.229   7.730
 1917POPC   C1B26731   1.313  18.087   8.748
 1917POPC   C2B26732   1.449  17.927   8.351
 1917POPC   C3B26733   1.305  17.854   7.926
 1917POPC   C4B26734   1.504  17.690   7.555
 1918POPC   NC326735  42.334  37.417   9.537
 1918POPC   PO426736  41.998  38.047   9.581
 1918POPC   GL126737  42.061  37.762   9.223
 1918POPC   GL226738  42.412  37.786   9.182
 1918POPC   C1A26739  42.164  37.523   8.824
 1918POPC   D2A26740  42.431  37.630   8.462
 1918POPC   C3A26741  42.286  37.544   8.040
 1918POPC   C4A26742  42.581  37.463   7.669
 1918POPC   C1B26743  42.722  37.794   8.853
 1918POPC   C2B26744  42.845  37.949   8.450
 1918POPC   C3B26745  42.720  37.827   8.050
 1918POPC   C4B26746  42.816  37.954   7.646
 1919POPC   NC326747  26.025   7.206   9.752
 1919POPC   PO426748  26.016   7.785   9.512
 1919POPC   GL126749  25.890   7.493   9.163
 1919POPC   GL226750  26.068   7.193   9.193
 1919POPC   C1A26751  25.836   7.300   8.744
 1919POPC   D2A26752  26.059   7.193   8.381
 1919POPC   C3A26753  25.871   7.301   8.001
 1919POPC   C4A26754  25.985   7.342   7.570
 1919POPC   C1B26755  26.319   7.437   8.808
 1919POPC   C2B26756  26.546   7.357   8.375
 1919POPC   C3B26757  26.380   7.314   7.952
 1919POPC   C4B26758  26.376   7.013   7.578
 1920POPC   NC326759   8.535  40.859   9.521
 1920POPC   PO426760   7.871  40.547   9.518
 1920POPC   GL126761   8.179  40.695   9.159
 1920POPC   GL226762   8.458  40.965   9.057
 1920POPC   C1A26763   8.336  40.548   8.754
 1920POPC   D2A26764   8.089  40.444   8.398
 1920POPC   C3A26765   8.173  40.598   7.989
 1920POPC   C4A26766   8.411  40.425   7.674
 1920POPC   C1B26767   8.305  41.118   8.727
 1920POPC   C2B26768   8.261  40.976   8.346
 1920POPC   C3B26769   8.371  41.076   7.957
 1920POPC   C4B26770   8.627  40.858   7.752
 1921POPC   NC326771  30.465  36.597   9.568
 1921POPC   PO426772  30.866  37.156   9.565
 1921POPC   GL126773  30.632  36.970   9.245
 1921POPC   GL226774  30.880  36.739   9.132
 1921POPC   C1A26775  30.536  36.935   8.806
 1921POPC   D2A26776  30.304  36.976   8.427
 1921POPC   C3A26777  30.544  37.219   8.150
 1921POPC   C4A26778  30.853  37.079   7.856
 1921POPC   C1B26779  31.060  36.532   8.740
 1921POPC   C2B26780  30.834  36.393   8.380
 1921POPC   C3B26781  30.631  36.629   8.043
 1921POPC   C4B26782  30.888  36.573   7.686
 1922POPC   NC326783  19.473  17.741   9.530
 1922POPC   PO426784  20.007  17.394   9.798
 1922POPC   GL126785  19.857  17.448   9.345
 1922POPC   GL226786  19.892  17.802   9.207
 1922POPC   C1A26787  19.817  17.405   8.883
 1922POPC   D2A26788  19.670  17.436   8.436
 1922POPC   C3A26789  19.823  17.620   8.030
 1922POPC   C4A26790  19.852  17.477   7.605
 1922POPC   C1B26791  19.562  17.852   8.886
 1922POPC   C2B26792  19.533  17.932   8.461
 1922POPC   C3B26793  19.347  17.743   8.149
 1922POPC   C4B26794  19.391  17.692   7.720
 1923POPC   NC326795  13.094   2.460   9.432
 1923POPC   PO426796  13.719   2.719   9.601
 1923POPC   GL126797  13.808   2.643   9.207
 1923POPC   GL226798  13.477   2.572   9.096
 1923POPC   C1A26799  14.071   2.854   8.916
 1923POPC   D2A26800  14.023   2.873   8.496
 1923POPC   C3A26801  13.666   2.721   8.257
 1923POPC   C4A26802  13.724   2.744   7.824
 1923POPC   C1B26803  13.582   2.866   8.771
 1923POPC   C2B26804  13.468   3.158   8.425
 1923POPC   C3B26805  13.258   2.975   8.042
 1923POPC   C4B26806  13.232   2.614   7.784
 1924POPC   NC326807  41.961  20.675   9.476
 1924POPC   PO426808  41.373  21.030   9.475
 1924POPC   GL126809  41.557  20.810   9.159
 1924POPC   GL226810  41.856  20.998   9.070
 1924POPC   C1A26811  41.458  20.661   8.747
 1924POPC   D2A26812  41.703  20.843   8.413
 1924POPC   C3A26813  41.521  20.822   8.014
 1924POPC   C4A26814  41.585  20.778   7.569
 1924POPC   C1B26815  41.964  20.616   8.828
 1924POPC   C2B26816  41.844  20.354   8.493
 1924POPC   C3B26817  41.917  20.498   8.078
 1924POPC   C4B26818  41.741  20.320   7.719
 1925POPC   NC326819  39.399  42.348   9.943
 1925POPC   PO426820  39.110  42.103   9.310
 1925POPC   GL126821  39.271  42.388   9.021
 1925POPC   GL226822  39.528  42.156   8.956
 1925POPC   C1A26823  39.315  42.504   8.567
 1925POPC   D2A26824  39.105  42.576   8.205
 1925POPC   C3A26825  39.204  42.310   7.845
 1925POPC   C4A26826  39.125  42.482   7.382
 1925POPC   C1B26827  39.655  42.156   8.593
 1925POPC   C2B26828  39.582  42.189   8.188
 1925POPC   C3B26829  39.691  42.041   7.778
 1925POPC   C4B26830  39.415  42.079   7.439
 1926POPC   NC326831  39.768  10.907   9.511
 1926POPC   PO426832  40.037  11.550   9.530
 1926POPC   GL126833  39.886  11.502   9.128
 1926POPC   GL226834  39.978  11.143   9.120
 1926POPC   C1A26835  40.001  11.398   8.688
 1926POPC   D2A26836  40.007  11.100   8.348
 1926POPC   C3A26837  39.948  11.323   7.969
 1926POPC   C4A26838  40.111  11.367   7.560
 1926POPC   C1B26839  39.721  10.983   8.787
 1926POPC   C2B26840  39.526  10.941   8.382
 1926POPC   C3B26841  39.558  11.003   7.931
 1926POPC   C4B26842  39.860  10.933   7.637
 1927POPC   NC326843  20.123  26.089   9.478
 1927POPC   PO426844  19.544  25.722   9.536
 1927POPC   GL126845  19.711  25.934   9.191
 1927POPC   GL226846  19.965  25.655   9.157
 1927POPC   C1A26847  19.871  26.142   8.809
 1927POPC   D2A26848  20.094  26.184   8.388
 1927POPC   C3A26849  20.098  26.317   7.931
 1927POPC   C4A26850  19.861  26.185   7.512
 1927POPC   C1B26851  19.630  25.605   8.820
 1927POPC   C2B26852  19.528  25.842   8.445
 1927POPC   C3B26853  19.634  25.709   8.033
 1927POPC   C4B26854  19.538  25.819   7.649
 1928POPC   NC326855  25.987  21.666   9.649
 1928POPC   PO426856  26.127  21.033   9.540
 1928POPC   GL126857  26.169  21.112   9.116
 1928POPC   GL226858  26.141  21.504   9.117
 1928POPC   C1A26859  26.124  21.221   8.678
 1928POPC   D2A26860  25.918  21.504   8.382
 1928POPC   C3A26861  25.960  21.274   7.999
 1928POPC   C4A26862  25.846  21.379   7.590
 1928POPC   C1B26863  26.326  21.680   8.722
 1928POPC   C2B26864  26.405  21.625   8.275
 1928POPC   C3B26865  26.141  21.732   7.916
 1928POPC   C4B26866  26.232  21.663   7.472
 1929POPC   NC326867  17.251   1.547   9.588
 1929POPC   PO426868  17.664   1.038   9.456
 1929POPC   GL126869  17.455   1.289   9.184
 1929POPC   GL226870  17.212   1.029   9.205
 1929POPC   C1A26871  17.456   1.477   8.771
 1929POPC   D2A26872  17.687   1.397   8.379
 1929POPC   C3A26873  17.450   1.516   8.022
 1929POPC   C4A26874  17.451   1.334   7.602
 1929POPC   C1B26875  17.233   1.005   8.763
 1929POPC   C2B26876  17.203   1.185   8.357
 1929POPC   C3B26877  17.307   1.001   7.982
 1929POPC   C4B26878  17.097   0.968   7.602
 1930POPC   NC326879   1.594  39.575   9.415
 1930POPC   PO426880   0.987  39.163   9.576
 1930POPC   GL126881   1.047  39.331   9.181
 1930POPC   GL226882   1.396  39.261   9.075
 1930POPC   C1A26883   0.944  39.280   8.764
 1930POPC   D2A26884   1.188  39.300   8.400
 1930POPC   C3A26885   0.940  39.335   8.048
 1930POPC   C4A26886   1.041  39.395   7.616
 1930POPC   C1B26887   1.626  39.441   8.720
 1930POPC   C2B26888   1.550  39.636   8.289
 1930POPC   C3B26889   1.443  39.362   7.967
 1930POPC   C4B26890   1.664  39.021   7.867
 1931POPC   NC326891  16.943  20.596   9.552
 1931POPC   PO426892  16.345  20.217   9.633
 1931POPC   GL126893  16.563  20.368   9.258
 1931POPC   GL226894  16.255  20.321   9.130
 1931POPC   C1A26895  16.686  20.399   8.811
 1931POPC   D2A26896  16.954  20.364   8.446
 1931POPC   C3A26897  16.730  20.566   8.103
 1931POPC   C4A26898  16.716  20.849   7.782
 1931POPC   C1B26899  16.203  20.234   8.703
 1931POPC   C2B26900  16.471  20.206   8.371
 1931POPC   C3B26901  16.449  20.159   7.962
 1931POPC   C4B26902  16.291  20.488   7.753
 1932POPC   NC326903  37.897  19.713   9.482
 1932POPC   PO426904  37.216  19.996   9.523
 1932POPC   GL126905  37.575  20.026   9.226
 1932POPC   GL226906  37.587  19.685   9.063
 1932POPC   C1A26907  37.837  20.055   8.827
 1932POPC   D2A26908  37.694  19.746   8.518
 1932POPC   C3A26909  37.806  19.854   8.128
 1932POPC   C4A26910  37.456  19.970   7.874
 1932POPC   C1B26911  38.015  19.567   8.859
 1932POPC   C2B26912  38.108  19.468   8.419
 1932POPC   C3B26913  38.097  19.453   7.961
 1932POPC   C4B26914  37.782  19.614   7.670
 1933POPC   NC326915   6.916  31.035   9.464
 1933POPC   PO426916   6.262  30.706   9.560
 1933POPC   GL126917   6.420  30.728   9.170
 1933POPC   GL226918   6.167  30.913   9.018
 1933POPC   C1A26919   6.577  30.616   8.754
 1933POPC   D2A26920   6.700  30.431   8.371
 1933POPC   C3A26921   6.769  30.606   7.951
 1933POPC   C4A26922   6.661  30.548   7.510
 1933POPC   C1B26923   6.227  31.004   8.601
 1933POPC   C2B26924   6.402  30.854   8.227
 1933POPC   C3B26925   6.300  30.820   7.793
 1933POPC   C4B26926   6.411  30.998   7.388
 1934POPC   NC326927  35.806   6.407   9.760
 1934POPC   PO426928  36.130   6.909   9.718
 1934POPC   GL126929  36.038   6.686   9.321
 1934POPC   GL226930  36.303   6.907   9.213
 1934POPC   C1A26931  36.016   6.627   8.844
 1934POPC   D2A26932  35.876   6.776   8.400
 1934POPC   C3A26933  35.983   6.515   8.029
 1934POPC   C4A26934  35.833   6.576   7.588
 1934POPC   C1B26935  36.359   7.027   8.820
 1934POPC   C2B26936  36.381   6.865   8.429
 1934POPC   C3B26937  36.204   6.974   8.031
 1934POPC   C4B26938  36.299   6.730   7.646
 1935POPC   NC326939  30.415  43.544   9.246
 1935POPC   PO426940  30.821  43.068   9.528
 1935POPC   GL126941  30.778  42.944   9.105
 1935POPC   GL226942  30.840  43.261   9.022
 1935POPC   C1A26943  30.944  42.920   8.669
 1935POPC   D2A26944  30.703  42.983   8.288
 1935POPC   C3A26945  30.929  43.094   7.902
 1935POPC   C4A26946  30.985  42.934   7.498
 1935POPC   C1B26947  30.470  43.139   8.751
 1935POPC   C2B26948  30.309  43.354   8.383
 1935POPC   C3B26949  30.435  43.290   7.956
 1935POPC   C4B26950  30.369  43.536   7.592
 1936POPC   NC326951  34.830  14.982   9.527
 1936POPC   PO426952  34.606  14.317   9.475
 1936POPC   GL126953  34.628  14.412   9.093
 1936POPC   GL226954  34.802  14.709   9.111
 1936POPC   C1A26955  34.691  14.271   8.689
 1936POPC   D2A26956  34.418  14.336   8.369
 1936POPC   C3A26957  34.557  14.340   7.968
 1936POPC   C4A26958  34.297  14.476   7.599
 1936POPC   C1B26959  35.028  14.654   8.754
 1936POPC   C2B26960  35.071  14.498   8.339
 1936POPC   C3B26961  34.949  14.684   7.942
 1936POPC   C4B26962  34.803  14.545   7.551
 1937POPC   NC326963  36.633  32.193   9.321
 1937POPC   PO426964  37.243  31.949   9.440
 1937POPC   GL126965  36.960  31.856   9.130
 1937POPC   GL226966  37.074  32.178   8.974
 1937POPC   C1A26967  36.822  31.804   8.709
 1937POPC   D2A26968  37.018  32.144   8.462
 1937POPC   C3A26969  36.890  32.165   8.036
 1937POPC   C4A26970  36.726  31.905   7.737
 1937POPC   C1B26971  37.245  32.560   8.719
 1937POPC   C2B26972  37.492  32.714   8.374
 1937POPC   C3B26973  37.447  32.811   7.950
 1937POPC   C4B26974  37.075  32.599   7.801
 1938POPC   NC326975  30.937   5.306   9.587
 1938POPC   PO426976  30.455   4.916   9.394
 1938POPC   GL126977  30.801   4.938   9.163
 1938POPC   GL226978  30.767   5.274   9.108
 1938POPC   C1A26979  30.688   4.933   8.726
 1938POPC   D2A26980  30.395   4.789   8.402
 1938POPC   C3A26981  30.602   4.773   7.996
 1938POPC   C4A26982  30.751   4.993   7.599
 1938POPC   C1B26983  30.799   5.423   8.696
 1938POPC   C2B26984  30.671   5.247   8.311
 1938POPC   C3B26985  30.561   5.335   7.904
 1938POPC   C4B26986  30.983   5.441   7.717
 1939POPC   NC326987  42.165  29.268   9.461
 1939POPC   PO426988  42.048  28.607   9.528
 1939POPC   GL126989  42.287  28.871   9.210
 1939POPC   GL226990  42.584  29.121   9.181
 1939POPC   C1A26991  42.199  29.077   8.826
 1939POPC   D2A26992  42.430  29.118   8.418
 1939POPC   C3A26993  42.178  29.065   8.020
 1939POPC   C4A26994  42.044  29.374   7.677
 1939POPC   C1B26995  42.651  28.831   8.818
 1939POPC   C2B26996  42.895  28.913   8.442
 1939POPC   C3B26997  42.674  28.913   8.016
 1939POPC   C4B26998  42.493  29.125   7.623
 1940POPC   NC326999  32.644  33.212   9.395
 1940POPC   PO427000  33.206  33.037   9.734
 1940POPC   GL127001  33.059  32.932   9.277
 1940POPC   GL227002  33.328  33.001   9.089
 1940POPC   C1A27003  32.886  33.056   8.823
 1940POPC   D2A27004  33.056  33.338   8.493
 1940POPC   C3A27005  32.983  33.088   8.131
 1940POPC   C4A27006  32.774  33.057   7.742
 1940POPC   C1B27007  33.381  33.005   8.688
 1940POPC   C2B27008  33.466  32.971   8.297
 1940POPC   C3B27009  33.433  32.929   7.914
 1940POPC   C4B27010  33.239  33.235   7.677
 1941POPC   NC327011  13.209   4.733   9.398
 1941POPC   PO427012  12.707   4.363   9.563
 1941POPC   GL127013  12.769   4.321   9.126
 1941POPC   GL227014  12.749   4.693   9.139
 1941POPC   C1A27015  12.572   4.156   8.715
 1941POPC   D2A27016  12.516   4.046   8.263
 1941POPC   C3A27017  12.904   3.994   8.045
 1941POPC   C4A27018  12.781   4.240   7.732
 1941POPC   C1B27019  12.750   4.636   8.717
 1941POPC   C2B27020  12.855   4.434   8.356
 1941POPC   C3B27021  12.842   4.683   7.988
 1941POPC   C4B27022  13.050   4.668   7.585
 1942POPC   NC327023  26.755   9.179   9.431
 1942POPC   PO427024  27.032   9.775   9.411
 1942POPC   GL127025  26.815   9.576   9.112
 1942POPC   GL227026  27.124   9.371   9.061
 1942POPC   C1A27027  26.776   9.688   8.684
 1942POPC   D2A27028  26.901   9.841   8.289
 1942POPC   C3A27029  26.619   9.878   7.956
 1942POPC   C4A27030  26.771   9.876   7.516
 1942POPC   C1B27031  26.890   9.204   8.727
 1942POPC   C2B27032  26.875   9.311   8.283
 1942POPC   C3B27033  26.834   9.417   7.864
 1942POPC   C4B27034  26.433   9.495   7.661
 1943POPC   NC327035  28.502  36.334   9.477
 1943POPC   PO427036  28.065  35.868   9.499
 1943POPC   GL127037  28.403  35.929   9.196
 1943POPC   GL227038  28.154  36.176   9.114
 1943POPC   C1A27039  28.501  36.133   8.773
 1943POPC   D2A27040  28.276  36.180   8.407
 1943POPC   C3A27041  28.516  36.150   8.037
 1943POPC   C4A27042  28.648  36.414   7.710
 1943POPC   C1B27043  27.911  36.063   8.757
 1943POPC   C2B27044  27.791  36.340   8.402
 1943POPC   C3B27045  27.948  36.302   8.040
 1943POPC   C4B27046  28.143  36.192   7.684
 1944POPC   NC327047  33.884  34.809   9.452
 1944POPC   PO427048  33.516  35.385   9.456
 1944POPC   GL127049  33.547  35.364   9.040
 1944POPC   GL227050  33.276  35.636   9.056
 1944POPC   C1A27051  33.899  35.241   8.733
 1944POPC   D2A27052  34.105  35.151   8.311
 1944POPC   C3A27053  34.051  35.465   7.969
 1944POPC   C4A27054  33.767  35.394   7.594
 1944POPC   C1B27055  33.499  35.734   8.692
 1944POPC   C2B27056  33.790  35.661   8.392
 1944POPC   C3B27057  33.564  35.579   8.035
 1944POPC   C4B27058  33.458  35.782   7.675
 1945POPC   NC327059  42.905  28.927   9.545
 1945POPC   PO427060  43.406  29.280   9.823
 1945POPC   GL127061  43.346  29.196   9.314
 1945POPC   GL227062  43.276  29.465   9.094
 1945POPC   C1A27063  43.440  29.096   8.801
 1945POPC   D2A27064  43.317  29.300   8.403
 1945POPC   C3A27065  43.139  29.105   8.042
 1945POPC   C4A27066  43.114  29.145   7.599
 1945POPC   C1B27067  42.957  29.287   8.814
 1945POPC   C2B27068  42.830  29.441   8.390
 1945POPC   C3B27069  42.765  29.419   7.928
 1945POPC   C4B27070  42.804  29.512   7.454
 1946POPC   NC327071  26.673  37.205   9.838
 1946POPC   PO427072  26.601  36.530   9.797
 1946POPC   GL127073  26.685  36.643   9.341
 1946POPC   GL227074  26.832  36.910   9.225
 1946POPC   C1A27075  26.608  36.648   8.862
 1946POPC   D2A27076  26.634  36.743   8.427
 1946POPC   C3A27077  26.878  36.511   8.148
 1946POPC   C4A27078  26.822  36.685   7.786
 1946POPC   C1B27079  26.873  37.091   8.821
 1946POPC   C2B27080  26.697  37.259   8.433
 1946POPC   C3B27081  26.927  37.140   8.064
 1946POPC   C4B27082  27.050  37.143   7.640
 1947POPC   NC327083  16.787  43.654   9.638
 1947POPC   PO427084  16.820  42.952   9.657
 1947POPC   GL127085  16.777  43.110   9.216
 1947POPC   GL227086  17.045  43.241   9.064
 1947POPC   C1A27087  16.770  42.894   8.797
 1947POPC   D2A27088  16.584  42.953   8.396
 1947POPC   C3A27089  16.770  42.829   8.018
 1947POPC   C4A27090  16.568  42.856   7.671
 1947POPC   C1B27091  16.948  43.329   8.642
 1947POPC   C2B27092  17.041  43.179   8.258
 1947POPC   C3B27093  16.915  43.274   7.836
 1947POPC   C4B27094  17.146  43.336   7.486
 1948POPC   NC327095  24.653  32.479   9.503
 1948POPC   PO427096  24.173  31.950   9.540
 1948POPC   GL127097  24.305  32.154   9.193
 1948POPC   GL227098  24.637  32.099   9.107
 1948POPC   C1A27099  24.275  32.245   8.770
 1948POPC   D2A27100  24.530  32.299   8.401
 1948POPC   C3A27101  24.314  32.296   7.996
 1948POPC   C4A27102  24.421  32.246   7.545
 1948POPC   C1B27103  24.903  32.085   8.735
 1948POPC   C2B27104  25.050  32.110   8.295
 1948POPC   C3B27105  24.817  32.221   7.918
 1948POPC   C4B27106  24.905  32.371   7.493
 1949POPC   NC327107   6.535  34.151   9.350
 1949POPC   PO427108   6.462  33.551   9.520
 1949POPC   GL127109   6.499  33.694   9.107
 1949POPC   GL227110   6.843  33.831   9.071
 1949POPC   C1A27111   6.421  33.511   8.704
 1949POPC   D2A27112   6.646  33.621   8.350
 1949POPC   C3A27113   6.546  33.698   7.940
 1949POPC   C4A27114   6.878  33.567   7.717
 1949POPC   C1B27115   6.625  34.013   8.700
 1949POPC   C2B27116   6.506  34.222   8.308
 1949POPC   C3B27117   6.515  34.222   7.882
 1949POPC   C4B27118   6.803  34.050   7.574
 1950POPC   NC327119  13.789  13.860   9.511
 1950POPC   PO427120  13.644  13.248   9.421
 1950POPC   GL127121  13.710  13.429   9.029
 1950POPC   GL227122  13.624  13.771   9.046
 1950POPC   C1A27123  13.852  13.585   8.622
 1950POPC   D2A27124  13.639  13.699   8.248
 1950POPC   C3A27125  13.952  13.658   7.922
 1950POPC   C4A27126  13.752  13.355   7.721
 1950POPC   C1B27127  13.351  13.731   8.715
 1950POPC   C2B27128  13.136  13.898   8.367
 1950POPC   C3B27129  13.215  13.850   7.927
 1950POPC   C4B27130  13.524  13.801   7.602
 1951POPC   NC327131  16.870   7.251   9.504
 1951POPC   PO427132  16.218   7.461   9.447
 1951POPC   GL127133  16.452   7.368   9.058
 1951POPC   GL227134  16.815   7.366   9.023
 1951POPC   C1A27135  16.514   7.482   8.618
 1951POPC   D2A27136  16.334   7.611   8.230
 1951POPC   C3A27137  16.645   7.570   7.898
 1951POPC   C4A27138  16.791   7.917   7.596
 1951POPC   C1B27139  17.068   7.072   8.794
 1951POPC   C2B27140  16.992   7.140   8.377
 1951POPC   C3B27141  17.166   7.126   7.968
 1951POPC   C4B27142  17.107   7.479   7.698
 1952POPC   NC327143  36.769  27.867   9.610
 1952POPC   PO427144  37.122  27.282   9.510
 1952POPC   GL127145  36.979  27.576   9.227
 1952POPC   GL227146  37.204  27.815   9.189
 1952POPC   C1A27147  37.000  27.537   8.768
 1952POPC   D2A27148  36.979  27.302   8.340
 1952POPC   C3A27149  37.024  27.533   7.951
 1952POPC   C4A27150  36.764  27.870   7.753
 1952POPC   C1B27151  37.360  27.909   8.779
 1952POPC   C2B27152  37.182  27.823   8.391
 1952POPC   C3B27153  37.178  28.032   8.038
 1952POPC   C4B27154  37.402  27.895   7.740
 1953POPC   NC327155  25.358  23.284   9.847
 1953POPC   PO427156  25.543  23.722   9.437
 1953POPC   GL127157  25.298  23.715   9.129
 1953POPC   GL227158  25.514  23.501   8.963
 1953POPC   C1A27159  25.077  23.644   8.779
 1953POPC   D2A27160  25.209  23.392   8.477
 1953POPC   C3A27161  25.204  23.582   8.115
 1953POPC   C4A27162  24.953  23.798   7.844
 1953POPC   C1B27163  25.607  23.701   8.638
 1953POPC   C2B27164  25.678  23.467   8.326
 1953POPC   C3B27165  25.713  23.620   7.981
 1953POPC   C4B27166  25.445  23.821   7.726
 1954POPC   NC327167  22.744  42.865   9.611
 1954POPC   PO427168  22.875  42.204   9.472
 1954POPC   GL127169  22.789  42.366   9.107
 1954POPC   GL227170  22.959  42.636   9.161
 1954POPC   C1A27171  22.620  42.284   8.697
 1954POPC   D2A27172  22.847  42.131   8.333
 1954POPC   C3A27173  22.703  42.164   7.935
 1954POPC   C4A27174  22.635  42.567   7.739
 1954POPC   C1B27175  23.226  42.389   8.862
 1954POPC   C2B27176  23.297  42.465   8.429
 1954POPC   C3B27177  23.071  42.526   8.042
 1954POPC   C4B27178  23.072  42.355   7.608
 1955POPC   NC327179   4.114  37.501   9.435
 1955POPC   PO427180   4.745  37.849   9.440
 1955POPC   GL127181   4.387  37.831   9.134
 1955POPC   GL227182   4.184  38.137   9.084
 1955POPC   C1A27183   4.353  37.603   8.754
 1955POPC   D2A27184   4.543  37.634   8.344
 1955POPC   C3A27185   4.261  37.585   7.982
 1955POPC   C4A27186   4.352  37.587   7.598
 1955POPC   C1B27187   4.398  38.138   8.685
 1955POPC   C2B27188   4.398  38.161   8.231
 1955POPC   C3B27189   4.435  38.034   7.822
 1955POPC   C4B27190   4.213  38.049   7.428
 1956POPC   NC327191   5.555  24.266   9.520
 1956POPC   PO427192   5.978  24.665   9.803
 1956POPC   GL127193   5.934  24.459   9.278
 1956POPC   GL227194   5.873  24.156   9.139
 1956POPC   C1A27195   5.746  24.546   8.830
 1956POPC   D2A27196   5.808  24.763   8.430
 1956POPC   C3A27197   5.773  24.595   8.018
 1956POPC   C4A27198   6.129  24.474   7.766
 1956POPC   C1B27199   5.745  24.051   8.736
 1956POPC   C2B27200   5.894  24.228   8.359
 1956POPC   C3B27201   5.884  24.065   7.946
 1956POPC   C4B27202   5.552  23.865   7.709
 1957POPC   NC327203  11.660  40.017   9.443
 1957POPC   PO427204  12.290  39.647   9.506
 1957POPC   GL127205  12.174  40.031   9.279
 1957POPC   GL227206  12.431  40.259   9.152
 1957POPC   C1A27207  12.007  40.069   8.881
 1957POPC   D2A27208  12.055  39.930   8.471
 1957POPC   C3A27209  12.107  40.229   8.128
 1957POPC   C4A27210  11.985  39.994   7.761
 1957POPC   C1B27211  12.513  39.931   8.852
 1957POPC   C2B27212  12.571  39.971   8.410
 1957POPC   C3B27213  12.354  39.792   8.066
 1957POPC   C4B27214  12.374  39.686   7.656
 1958POPC   NC327215  11.752   6.797   9.449
 1958POPC   PO427216  12.296   6.406   9.583
 1958POPC   GL127217  12.116   6.506   9.212
 1958POPC   GL227218  11.859   6.335   9.092
 1958POPC   C1A27219  12.146   6.785   8.851
 1958POPC   D2A27220  12.338   6.965   8.466
 1958POPC   C3A27221  12.342   6.638   8.139
 1958POPC   C4A27222  12.078   6.674   7.768
 1958POPC   C1B27223  11.787   6.440   8.670
 1958POPC   C2B27224  11.773   6.587   8.229
 1958POPC   C3B27225  11.611   6.500   7.803
 1958POPC   C4B27226  11.765   6.494   7.343
 1959POPC   NC327227  38.918  35.685   9.595
 1959POPC   PO427228  39.470  35.899   9.493
 1959POPC   GL127229  39.173  35.930   9.185
 1959POPC   GL227230  39.099  36.277   9.118
 1959POPC   C1A27231  39.386  35.981   8.786
 1959POPC   D2A27232  39.541  36.134   8.406
 1959POPC   C3A27233  39.353  35.945   8.073
 1959POPC   C4A27234  39.239  35.903   7.654
 1959POPC   C1B27235  38.893  36.113   8.749
 1959POPC   C2B27236  38.932  36.091   8.300
 1959POPC   C3B27237  38.935  36.266   7.898
 1959POPC   C4B27238  38.951  36.252   7.421
 1960POPC   NC327239  38.680  19.770   9.390
 1960POPC   PO427240  38.082  20.179   9.446
 1960POPC   GL127241  38.263  19.955   9.152
 1960POPC   GL227242  38.540  20.200   9.165
 1960POPC   C1A27243  38.426  19.831   8.764
 1960POPC   D2A27244  38.299  19.943   8.352
 1960POPC   C3A27245  38.528  19.630   8.138
 1960POPC   C4A27246  38.576  19.566   7.699
 1960POPC   C1B27247  38.798  20.199   8.808
 1960POPC   C2B27248  38.810  19.963   8.452
 1960POPC   C3B27249  38.725  20.071   8.035
 1960POPC   C4B27250  38.867  20.342   7.744
 1961POPC   NC327251  35.637  15.357   9.318
 1961POPC   PO427252  35.258  14.917   9.714
 1961POPC   GL127253  35.220  15.026   9.223
 1961POPC   GL227254  35.032  15.338   9.176
 1961POPC   C1A27255  35.376  15.020   8.783
 1961POPC   D2A27256  35.569  14.779   8.453
 1961POPC   C3A27257  35.355  14.959   8.129
 1961POPC   C4A27258  35.442  14.995   7.728
 1961POPC   C1B27259  35.175  15.503   8.758
 1961POPC   C2B27260  35.396  15.432   8.340
 1961POPC   C3B27261  35.470  15.546   7.882
 1961POPC   C4B27262  35.342  15.401   7.452
 1962POPC   NC327263   9.263  10.840   9.441
 1962POPC   PO427264   8.845  10.572   9.813
 1962POPC   GL127265   8.850  10.621   9.286
 1962POPC   GL227266   8.867  10.331   9.072
 1962POPC   C1A27267   8.996  10.768   8.850
 1962POPC   D2A27268   8.940  10.447   8.535
 1962POPC   C3A27269   8.816  10.519   8.121
 1962POPC   C4A27270   8.916  10.776   7.789
 1962POPC   C1B27271   9.311  10.369   8.881
 1962POPC   C2B27272   9.424  10.523   8.421
 1962POPC   C3B27273   9.308  10.426   7.966
 1962POPC   C4B27274   9.400  10.188   7.556
 1963POPC   NC327275  42.053   0.996   9.497
 1963POPC   PO427276  42.506   1.387   9.320
 1963POPC   GL127277  42.190   1.282   9.094
 1963POPC   GL227278  42.330   0.917   9.069
 1963POPC   C1A27279  42.101   1.194   8.694
 1963POPC   D2A27280  42.370   1.045   8.424
 1963POPC   C3A27281  42.194   1.030   8.015
 1963POPC   C4A27282  42.262   1.290   7.654
 1963POPC   C1B27283  42.614   0.673   8.784
 1963POPC   C2B27284  42.755   0.742   8.355
 1963POPC   C3B27285  42.588   0.704   7.957
 1963POPC   C4B27286  42.566   0.895   7.560
 1964POPC   NC327287  35.889  25.539   9.430
 1964POPC   PO427288  36.409  25.147   9.291
 1964POPC   GL127289  35.996  25.175   9.063
 1964POPC   GL227290  36.040  25.553   8.940
 1964POPC   C1A27291  35.814  25.233   8.625
 1964POPC   D2A27292  36.048  25.382   8.243
 1964POPC   C3A27293  35.884  25.187   7.891
 1964POPC   C4A27294  36.049  25.096   7.533
 1964POPC   C1B27295  36.322  25.278   8.666
 1964POPC   C2B27296  36.414  24.971   8.345
 1964POPC   C3B27297  36.403  25.053   7.932
 1964POPC   C4B27298  36.356  25.453   7.791
 1965POPC   NC327299  14.883  18.736   9.735
 1965POPC   PO427300  15.295  19.024   9.332
 1965POPC   GL127301  15.143  19.100   8.970
 1965POPC   GL227302  14.844  19.171   9.058
 1965POPC   C1A27303  15.045  18.994   8.575
 1965POPC   D2A27304  15.397  18.960   8.356
 1965POPC   C3A27305  15.467  19.202   8.060
 1965POPC   C4A27306  15.367  19.078   7.669
 1965POPC   C1B27307  14.846  19.450   8.711
 1965POPC   C2B27308  14.962  19.399   8.298
 1965POPC   C3B27309  14.979  19.058   8.019
 1965POPC   C4B27310  14.854  19.175   7.592
 1966POPC   NC327311  44.728   2.206   9.643
 1966POPC   PO427312  44.358   1.674   9.686
 1966POPC   GL127313  44.684   1.846   9.287
 1966POPC   GL227314  44.812   2.193   9.128
 1966POPC   C1A27315  44.737   1.817   8.797
 1966POPC   D2A27316  44.940   1.756   8.405
 1966POPC   C3A27317  44.717   1.974   8.075
 1966POPC   C4A27318  44.775   1.942   7.644
 1966POPC   C1B27319  44.732   2.398   8.666
 1966POPC   C2B27320  44.791   2.455   8.189
 1966POPC   C3B27321   0.067   2.331   7.809
 1966POPC   C4B27322   0.105   2.204   7.345
 1967POPC   NC327323  35.616  22.296   9.431
 1967POPC   PO427324  36.147  21.877   9.425
 1967POPC   GL127325  36.135  22.126   9.081
 1967POPC   GL227326  36.379  22.377   9.054
 1967POPC   C1A27327  35.851  22.231   8.775
 1967POPC   D2A27328  35.895  22.047   8.390
 1967POPC   C3A27329  36.247  22.021   8.131
 1967POPC   C4A27330  36.003  22.133   7.795
 1967POPC   C1B27331  36.340  22.279   8.611
 1967POPC   C2B27332  36.532  22.459   8.269
 1967POPC   C3B27333  36.398  22.463   7.867
 1967POPC   C4B27334  36.237  22.436   7.454
 1968POPC   NC327335  32.374  40.063   9.413
 1968POPC   PO427336  31.796  39.750   9.544
 1968POPC   GL127337  32.028  39.811   9.116
 1968POPC   GL227338  32.062  40.186   9.014
 1968POPC   C1A27339  32.284  39.834   8.718
 1968POPC   D2A27340  32.247  40.154   8.378
 1968POPC   C3A27341  32.360  40.020   7.970
 1968POPC   C4A27342  32.572  40.073   7.585
 1968POPC   C1B27343  32.403  40.440   8.799
 1968POPC   C2B27344  32.549  40.585   8.379
 1968POPC   C3B27345  32.549  40.502   7.928
 1968POPC   C4B27346  32.208  40.421   7.655
 1969POPC   NC327347  15.451  11.988   9.379
 1969POPC   PO427348  14.977  12.373   9.746
 1969POPC   GL127349  15.018  12.295   9.239
 1969POPC   GL227350  15.335  12.374   9.078
 1969POPC   C1A27351  15.043  12.118   8.752
 1969POPC   D2A27352  15.168  12.175   8.293
 1969POPC   C3A27353  14.912  11.954   7.941
 1969POPC   C4A27354  14.897  11.689   7.561
 1969POPC   C1B27355  15.286  12.555   8.706
 1969POPC   C2B27356  15.577  12.694   8.431
 1969POPC   C3B27357  15.555  12.524   8.037
 1969POPC   C4B27358  15.223  12.326   7.807
 1970POPC   NC327359  20.077  23.922   9.482
 1970POPC   PO427360  19.328  23.830   9.528
 1970POPC   GL127361  19.629  23.852   9.181
 1970POPC   GL227362  19.889  23.595   9.134
 1970POPC   C1A27363  19.581  23.789   8.758
 1970POPC   D2A27364  19.767  23.923   8.392
 1970POPC   C3A27365  19.554  23.807   8.097
 1970POPC   C4A27366  19.633  23.923   7.726
 1970POPC   C1B27367  20.114  23.830   8.818
 1970POPC   C2B27368  20.193  23.643   8.420
 1970POPC   C3B27369  20.028  23.640   8.015
 1970POPC   C4B27370  20.226  23.518   7.673
 1971POPC   NC327371  30.910  41.845   9.423
 1971POPC   PO427372  30.762  41.199   9.453
 1971POPC   GL127373  30.610  41.238   9.089
 1971POPC   GL227374  30.618  41.619   9.015
 1971POPC   C1A27375  30.744  41.212   8.674
 1971POPC   D2A27376  30.718  41.543   8.475
 1971POPC   C3A27377  30.650  41.474   8.061
 1971POPC   C4A27378  30.447  41.439   7.691
 1971POPC   C1B27379  30.993  41.815   8.804
 1971POPC   C2B27380  31.174  41.802   8.418
 1971POPC   C3B27381  31.044  41.773   8.016
 1971POPC   C4B27382  30.822  41.779   7.620
 1972POPC   NC327383  13.795  32.891   9.489
 1972POPC   PO427384  13.212  33.234   9.437
 1972POPC   GL127385  13.461  33.037   9.124
 1972POPC   GL227386  13.435  32.662   9.057
 1972POPC   C1A27387  13.551  33.119   8.698
 1972POPC   D2A27388  13.410  32.898   8.331
 1972POPC   C3A27389  13.533  33.118   7.963
 1972POPC   C4A27390  13.924  33.323   7.817
 1972POPC   C1B27391  13.779  32.667   8.707
 1972POPC   C2B27392  13.934  32.890   8.326
 1972POPC   C3B27393  13.954  32.800   7.888
 1972POPC   C4B27394  13.581  32.713   7.646
 1973POPC   NC327395  22.216  37.835   9.614
 1973POPC   PO427396  22.686  37.365   9.520
 1973POPC   GL127397  22.435  37.606   9.172
 1973POPC   GL227398  22.050  37.731   9.160
 1973POPC   C1A27399  22.261  37.540   8.753
 1973POPC   D2A27400  22.007  37.760   8.431
 1973POPC   C3A27401  21.887  37.584   8.048
 1973POPC   C4A27402  22.196  37.492   7.747
 1973POPC   C1B27403  21.897  38.034   8.850
 1973POPC   C2B27404  21.771  38.209   8.458
 1973POPC   C3B27405  21.893  38.195   8.065
 1973POPC   C4B27406  22.042  37.987   7.746
 1974POPC   NC327407   6.159  21.638   9.453
 1974POPC   PO427408   5.583  21.355   9.529
 1974POPC   GL127409   5.773  21.439   9.150
 1974POPC   GL227410   6.072  21.251   9.060
 1974POPC   C1A27411   5.550  21.316   8.779
 1974POPC   D2A27412   5.353  21.090   8.433
 1974POPC   C3A27413   5.656  21.069   8.108
 1974POPC   C4A27414   5.687  21.278   7.735
 1974POPC   C1B27415   6.215  21.587   8.781
 1974POPC   C2B27416   6.280  21.821   8.396
 1974POPC   C3B27417   6.250  21.843   7.934
 1974POPC   C4B27418   6.176  21.393   7.757
 1975POPC   NC327419  24.744  16.643   9.460
 1975POPC   PO427420  24.110  16.462   9.336
 1975POPC   GL127421  24.278  16.738   9.067
 1975POPC   GL227422  24.579  16.917   9.068
 1975POPC   C1A27423  24.555  16.638   8.659
 1975POPC   D2A27424  24.703  16.591   8.242
 1975POPC   C3A27425  24.463  16.648   7.889
 1975POPC   C4A27426  24.776  16.621   7.587
 1975POPC   C1B27427  24.304  17.070   8.711
 1975POPC   C2B27428  24.432  17.010   8.301
 1975POPC   C3B27429  24.580  17.142   7.935
 1975POPC   C4B27430  24.170  17.091   7.751
 1976POPC   NC327431  11.799   5.483   9.422
 1976POPC   PO427432  12.040   4.870   9.577
 1976POPC   GL127433  12.067   5.060   9.178
 1976POPC   GL227434  12.169   5.365   9.108
 1976POPC   C1A27435  12.207   5.031   8.738
 1976POPC   D2A27436  12.223   5.277   8.388
 1976POPC   C3A27437  12.132   4.975   8.094
 1976POPC   C4A27438  12.011   4.927   7.708
 1976POPC   C1B27439  11.857   5.428   8.775
 1976POPC   C2B27440  11.824   5.595   8.365
 1976POPC   C3B27441  11.868   5.392   7.970
 1976POPC   C4B27442  12.266   5.359   7.717
 1977POPC   NC327443  28.238  24.963   9.384
 1977POPC   PO427444  28.279  24.303   9.561
 1977POPC   GL127445  28.389  24.502   9.158
 1977POPC   GL227446  28.693  24.681   9.052
 1977POPC   C1A27447  28.282  24.572   8.716
 1977POPC   D2A27448  28.306  24.756   8.291
 1977POPC   C3A27449  28.227  24.456   8.007
 1977POPC   C4A27450  27.973  24.368   7.652
 1977POPC   C1B27451  28.734  24.327   8.774
 1977POPC   C2B27452  28.620  24.349   8.352
 1977POPC   C3B27453  28.743  24.496   7.952
 1977POPC   C4B27454  28.542  24.608   7.597
 1978POPC   NC327455  40.830  38.243   9.492
 1978POPC   PO427456  40.494  38.884   9.453
 1978POPC   GL127457  40.394  38.578   9.137
 1978POPC   GL227458  40.427  38.252   9.186
 1978POPC   C1A27459  40.512  38.566   8.750
 1978POPC   D2A27460  40.759  38.501   8.423
 1978POPC   C3A27461  40.578  38.645   8.057
 1978POPC   C4A27462  40.409  38.855   7.673
 1978POPC   C1B27463  40.663  38.065   8.844
 1978POPC   C2B27464  40.885  38.003   8.463
 1978POPC   C3B27465  40.708  38.107   8.068
 1978POPC   C4B27466  40.944  38.361   7.799
 1979POPC   NC327467  15.702  22.186   9.692
 1979POPC   PO427468  16.282  21.858   9.629
 1979POPC   GL127469  16.283  22.152   9.220
 1979POPC   GL227470  15.976  22.328   9.097
 1979POPC   C1A27471  16.291  22.221   8.716
 1979POPC   D2A27472  16.274  22.019   8.302
 1979POPC   C3A27473  16.021  22.203   7.976
 1979POPC   C4A27474  16.023  22.416   7.570
 1979POPC   C1B27475  15.770  22.121   8.688
 1979POPC   C2B27476  15.589  22.156   8.255
 1979POPC   C3B27477  15.552  22.057   7.820
 1979POPC   C4B27478  15.315  22.011   7.414
 1980POPC   NC327479  23.149  11.221   9.432
 1980POPC   PO427480  23.780  11.244   9.493
 1980POPC   GL127481  23.690  11.449   9.111
 1980POPC   GL227482  23.368  11.611   9.135
 1980POPC   C1A27483  23.866  11.336   8.713
 1980POPC   D2A27484  23.925  11.121   8.325
 1980POPC   C3A27485  23.882  11.397   7.987
 1980POPC   C4A27486  23.872  11.062   7.754
 1980POPC   C1B27487  23.334  11.270   8.793
 1980POPC   C2B27488  23.472  11.342   8.379
 1980POPC   C3B27489  23.438  11.101   8.026
 1980POPC   C4B27490  23.190  11.123   7.675
 1981POPC   NC327491  19.154  24.292   9.699
 1981POPC   PO427492  19.776  24.261   9.438
 1981POPC   GL127493  19.983  24.309   9.114
 1981POPC   GL227494  19.836  24.643   9.086
 1981POPC   C1A27495  19.851  24.291   8.715
 1981POPC   D2A27496  19.866  24.486   8.312
 1981POPC   C3A27497  19.874  24.343   7.888
 1981POPC   C4A27498  19.583  24.545   7.593
 1981POPC   C1B27499  20.024  24.794   8.737
 1981POPC   C2B27500  19.917  24.996   8.358
 1981POPC   C3B27501  19.695  24.891   7.990
 1981POPC   C4B27502  20.017  24.814   7.726
 1982POPC   NC327503   4.277  15.784   9.616
 1982POPC   PO427504   4.599  16.379   9.300
 1982POPC   GL127505   4.252  16.094   9.101
 1982POPC   GL227506   4.104  15.737   9.142
 1982POPC   C1A27507   4.089  15.991   8.699
 1982POPC   D2A27508   4.171  15.702   8.388
 1982POPC   C3A27509   4.398  15.863   8.010
 1982POPC   C4A27510   4.474  16.037   7.580
 1982POPC   C1B27511   4.464  15.671   8.855
 1982POPC   C2B27512   4.670  15.676   8.432
 1982POPC   C3B27513   4.798  15.560   8.017
 1982POPC   C4B27514   4.617  15.544   7.594
 1983POPC   NC327515   9.011  44.085   9.559
 1983POPC   PO427516   8.536  43.597   9.442
 1983POPC   GL127517   8.730  43.929   9.160
 1983POPC   GL227518   9.113  44.017   9.070
 1983POPC   C1A27519   8.652  44.123   8.788
 1983POPC   D2A27520   8.731  43.963   8.402
 1983POPC   C3A27521   8.600  44.146   8.015
 1983POPC   C4A27522   8.715  43.946   7.689
 1983POPC   C1B27523   9.337  43.716   8.803
 1983POPC   C2B27524   9.277  43.748   8.395
 1983POPC   C3B27525   9.101  43.935   8.057
 1983POPC   C4B27526   9.217  43.818   7.679
 1984POPC   NC327527   6.504  32.749   9.370
 1984POPC   PO427528   6.501  32.130   9.721
 1984POPC   GL127529   6.804  32.139   9.321
 1984POPC   GL227530   6.851  32.446   9.085
 1984POPC   C1A27531   6.848  31.992   8.878
 1984POPC   D2A27532   6.555  31.945   8.528
 1984POPC   C3A27533   6.690  32.100   8.147
 1984POPC   C4A27534   6.433  32.183   7.795
 1984POPC   C1B27535   6.477  32.422   8.791
 1984POPC   C2B27536   6.183  32.643   8.486
 1984POPC   C3B27537   6.335  32.620   8.054
 1984POPC   C4B27538   6.640  32.668   7.692
 1985POPC   NC327539  14.182   2.768   9.546
 1985POPC   PO427540  14.820   3.062   9.548
 1985POPC   GL127541  14.587   2.921   9.176
 1985POPC   GL227542  14.630   2.552   9.122
 1985POPC   C1A27543  14.553   2.908   8.708
 1985POPC   D2A27544  14.415   3.137   8.314
 1985POPC   C3A27545  14.339   2.987   7.907
 1985POPC   C4A27546  14.019   3.104   7.547
 1985POPC   C1B27547  14.377   2.445   8.749
 1985POPC   C2B27548  14.413   2.598   8.306
 1985POPC   C3B27549  14.201   2.502   7.896
 1985POPC   C4B27550  14.441   2.654   7.538
 1986POPC   NC327551  43.045  37.342   9.492
 1986POPC   PO427552  42.836  36.690   9.599
 1986POPC   GL127553  43.084  36.797   9.230
 1986POPC   GL227554  43.373  37.009   9.253
 1986POPC   C1A27555  43.118  36.928   8.792
 1986POPC   D2A27556  42.934  36.736   8.418
 1986POPC   C3A27557  42.874  37.003   8.095
 1986POPC   C4A27558  43.109  36.971   7.742
 1986POPC   C1B27559  43.551  37.199   8.899
 1986POPC   C2B27560  43.406  37.225   8.496
 1986POPC   C3B27561  43.450  37.030   8.114
 1986POPC   C4B27562  43.540  37.263   7.758
 1987POPC   NC327563   0.322  30.901   9.766
 1987POPC   PO427564   0.710  30.433   9.420
 1987POPC   GL127565   0.441  30.539   9.146
 1987POPC   GL227566   0.117  30.512   9.321
 1987POPC   C1A27567   0.497  30.711   8.739
 1987POPC   D2A27568   0.633  30.630   8.342
 1987POPC   C3A27569   0.379  30.817   8.039
 1987POPC   C4A27570   0.321  31.073   7.701
 1987POPC   C1B27571   0.037  30.550   8.856
 1987POPC   C2B27572   0.118  30.466   8.409
 1987POPC   C3B27573  44.918  30.564   8.021
 1987POPC   C4B27574   0.096  30.624   7.635
 1988POPC   NC327575   8.811  13.081   9.592
 1988POPC   PO427576   8.210  12.589   9.498
 1988POPC   GL127577   8.253  12.793   9.121
 1988POPC   GL227578   8.520  13.045   9.145
 1988POPC   C1A27579   8.234  12.651   8.693
 1988POPC   D2A27580   8.402  12.587   8.300
 1988POPC   C3A27581   8.420  12.766   7.890
 1988POPC   C4A27582   8.277  12.716   7.425
 1988POPC   C1B27583   8.264  13.156   8.756
 1988POPC   C2B27584   8.332  13.094   8.347
 1988POPC   C3B27585   8.488  13.291   8.008
 1988POPC   C4B27586   8.310  13.197   7.666
 1989POPC   NC327587  20.850  43.058   9.677
 1989POPC   PO427588  21.484  43.073   9.586
 1989POPC   GL127589  21.296  43.166   9.172
 1989POPC   GL227590  21.082  42.924   9.236
 1989POPC   C1A27591  21.376  43.342   8.769
 1989POPC   D2A27592  21.665  43.284   8.409
 1989POPC   C3A27593  21.547  43.474   8.030
 1989POPC   C4A27594  21.667  43.359   7.625
 1989POPC   C1B27595  21.057  42.922   8.762
 1989POPC   C2B27596  21.118  43.056   8.309
 1989POPC   C3B27597  21.440  42.948   7.987
 1989POPC   C4B27598  21.448  42.904   7.519
 1990POPC   NC327599  17.857  32.504   9.557
 1990POPC   PO427600  17.402  31.940   9.553
 1990POPC   GL127601  17.665  32.135   9.245
 1990POPC   GL227602  17.458  32.433   9.215
 1990POPC   C1A27603  17.855  32.343   8.874
 1990POPC   D2A27604  17.771  32.432   8.442
 1990POPC   C3A27605  17.626  32.074   8.171
 1990POPC   C4A27606  17.636  32.048   7.709
 1990POPC   C1B27607  17.345  32.236   8.803
 1990POPC   C2B27608  17.264  32.434   8.374
 1990POPC   C3B27609  17.430  32.492   7.956
 1990POPC   C4B27610  17.123  32.220   7.795
 1991POPC   NC327611  37.227   6.276   9.547
 1991POPC   PO427612  37.809   6.568   9.450
 1991POPC   GL127613  37.589   6.479   9.087
 1991POPC   GL227614  37.597   6.815   8.951
 1991POPC   C1A27615  37.695   6.424   8.642
 1991POPC   D2A27616  37.428   6.399   8.300
 1991POPC   C3A27617  37.614   6.397   7.889
 1991POPC   C4A27618  38.022   6.323   7.707
 1991POPC   C1B27619  37.321   6.902   8.614
 1991POPC   C2B27620  37.373   6.903   8.192
 1991POPC   C3B27621  37.768   6.829   8.169
 1991POPC   C4B27622  37.974   6.814   7.832
 1992POPC   NC327623   3.670  35.862   9.478
 1992POPC   PO427624   3.227  36.412   9.447
 1992POPC   GL127625   3.494  36.201   9.146
 1992POPC   GL227626   3.683  36.419   9.021
 1992POPC   C1A27627   3.597  35.927   8.788
 1992POPC   D2A27628   3.354  35.788   8.412
 1992POPC   C3A27629   3.545  35.713   7.978
 1992POPC   C4A27630   3.405  35.797   7.560
 1992POPC   C1B27631   3.552  36.384   8.562
 1992POPC   C2B27632   3.637  36.201   8.150
 1992POPC   C3B27633   3.669  36.232   7.685
 1992POPC   C4B27634   3.910  36.410   7.319
 1993POPC   NC327635  22.983  10.468   9.674
 1993POPC   PO427636  22.480  10.062   9.625
 1993POPC   GL127637  22.691  10.395   9.277
 1993POPC   GL227638  23.098  10.306   9.207
 1993POPC   C1A27639  22.873  10.663   8.901
 1993POPC   D2A27640  23.100  10.534   8.507
 1993POPC   C3A27641  23.035  10.723   8.110
 1993POPC   C4A27642  22.813  10.729   7.728
 1993POPC   C1B27643  23.277  10.138   8.803
 1993POPC   C2B27644  23.413  10.122   8.359
 1993POPC   C3B27645  23.329  10.168   7.893
 1993POPC   C4B27646  23.123  10.291   7.462
 1994POPC   NC327647  22.368   9.713   9.902
 1994POPC   PO427648  21.969   9.982   9.395
 1994POPC   GL127649  22.072   9.885   9.001
 1994POPC   GL227650  22.323  10.115   9.033
 1994POPC   C1A27651  22.160   9.460   8.793
 1994POPC   D2A27652  22.367   9.387   8.416
 1994POPC   C3A27653  22.120   9.594   8.126
 1994POPC   C4A27654  21.892   9.457   7.793
 1994POPC   C1B27655  22.419   9.880   8.638
 1994POPC   C2B27656  22.311  10.081   8.272
 1994POPC   C3B27657  22.390   9.965   7.879
 1994POPC   C4B27658  22.616   9.598   7.969
 1995POPC   NC327659   5.953  14.389   9.637
 1995POPC   PO427660   5.796  15.032   9.530
 1995POPC   GL127661   5.868  14.665   9.192
 1995POPC   GL227662   5.926  14.268   9.132
 1995POPC   C1A27663   5.651  14.572   8.773
 1995POPC   D2A27664   5.797  14.352   8.388
 1995POPC   C3A27665   5.685  14.404   7.950
 1995POPC   C4A27666   5.767  14.331   7.514
 1995POPC   C1B27667   6.151  14.449   8.784
 1995POPC   C2B27668   6.320  14.475   8.390
 1995POPC   C3B27669   6.198  14.480   8.022
 1995POPC   C4B27670   6.238  14.232   7.707
 1996POPC   NC327671  42.843  33.952   9.508
 1996POPC   PO427672  43.237  33.471   9.576
 1996POPC   GL127673  42.963  33.540   9.183
 1996POPC   GL227674  43.065  33.868   9.073
 1996POPC   C1A27675  42.814  33.631   8.725
 1996POPC   D2A27676  43.036  33.778   8.379
 1996POPC   C3A27677  43.078  33.552   7.993
 1996POPC   C4A27678  42.759  33.621   7.677
 1996POPC   C1B27679  43.012  34.161   8.742
 1996POPC   C2B27680  43.320  34.227   8.428
 1996POPC   C3B27681  43.392  33.966   8.078
 1996POPC   C4B27682  43.060  34.028   7.799
 1997POPC   NC327683  32.410   3.847   9.450
 1997POPC   PO427684  32.662   3.185   9.480
 1997POPC   GL127685  32.464   3.330   9.101
 1997POPC   GL227686  32.466   3.687   8.972
 1997POPC   C1A27687  32.158   3.315   8.771
 1997POPC   D2A27688  32.262   3.490   8.394
 1997POPC   C3A27689  32.167   3.326   8.004
 1997POPC   C4A27690  32.486   3.163   7.757
 1997POPC   C1B27691  32.064   3.842   8.806
 1997POPC   C2B27692  31.939   3.882   8.396
 1997POPC   C3B27693  32.308   3.909   8.111
 1997POPC   C4B27694  32.354   3.722   7.729
 1998POPC   NC327695  21.568  25.081   9.452
 1998POPC   PO427696  20.995  25.443   9.460
 1998POPC   GL127697  21.232  25.277   9.116
 1998POPC   GL227698  21.199  24.890   9.102
 1998POPC   C1A27699  21.523  25.157   8.780
 1998POPC   D2A27700  21.377  25.223   8.372
 1998POPC   C3A27701  21.637  25.324   8.042
 1998POPC   C4A27702  21.533  25.172   7.631
 1998POPC   C1B27703  21.015  25.061   8.707
 1998POPC   C2B27704  20.939  24.899   8.292
 1998POPC   C3B27705  21.114  25.166   7.938
 1998POPC   C4B27706  20.986  25.450   7.597
 1999POPC   NC327707  33.210  28.220   9.395
 1999POPC   PO427708  32.623  28.385   9.660
 1999POPC   GL127709  32.713  28.262   9.247
 1999POPC   GL227710  32.941  28.525   9.115
 1999POPC   C1A27711  32.837  28.122   8.834
 1999POPC   D2A27712  32.907  28.349   8.465
 1999POPC   C3A27713  32.942  28.091   8.140
 1999POPC   C4A27714  32.696  28.051   7.794
 1999POPC   C1B27715  33.009  28.750   8.762
 1999POPC   C2B27716  33.298  28.722   8.417
 1999POPC   C3B27717  33.174  28.590   8.039
 1999POPC   C4B27718  33.198  28.278   7.747
 2000POPC   NC327719   6.379  25.789   9.531
 2000POPC   PO427720   7.110  25.533   9.497
 2000POPC   GL127721   6.781  25.690   9.204
 2000POPC   GL227722   6.937  25.944   8.990
 2000POPC   C1A27723   6.494  25.824   8.838
 2000POPC   D2A27724   6.519  26.062   8.439
 2000POPC   C3A27725   6.673  25.849   8.071
 2000POPC   C4A27726   6.548  25.988   7.658
 2000POPC   C1B27727   6.845  26.308   8.746
 2000POPC   C2B27728   6.930  26.378   8.311
 2000POPC   C3B27729   6.815  26.311   7.935
 2000POPC   C4B27730   6.967  26.275   7.558
 2001POPC   NC327731  35.007  29.396   9.490
 2001POPC   PO427732  34.885  28.699   9.374
 2001POPC   GL127733  35.094  29.052   9.116
 2001POPC   GL227734  35.421  29.217   9.214
 2001POPC   C1A27735  35.233  29.209   8.697
 2001POPC   D2A27736  35.231  29.490   8.320
 2001POPC   C3A27737  35.077  29.288   7.969
 2001POPC   C4A27738  35.324  28.947   7.817
 2001POPC   C1B27739  35.719  29.208   8.872
 2001POPC   C2B27740  35.731  28.928   8.506
 2001POPC   C3B27741  35.762  28.858   8.069
 2001POPC   C4B27742  35.792  28.899   7.589
 2002POPC   NC327743  41.770  28.195   9.468
 2002POPC   PO427744  41.153  28.460   9.829
 2002POPC   GL127745  41.346  28.376   9.319
 2002POPC   GL227746  41.599  28.641   9.228
 2002POPC   C1A27747  41.306  28.333   8.836
 2002POPC   D2A27748  41.154  28.137   8.410
 2002POPC   C3A27749  41.458  28.132   8.044
 2002POPC   C4A27750  41.406  28.232   7.578
 2002POPC   C1B27751  41.637  28.745   8.785
 2002POPC   C2B27752  41.559  28.715   8.332
 2002POPC   C3B27753  41.466  28.620   7.903
 2002POPC   C4B27754  41.837  28.502   7.699
 2003POPC   NC327755  14.817  17.535   9.499
 2003POPC   PO427756  14.186  17.362   9.517
 2003POPC   GL127757  14.410  17.513   9.158
 2003POPC   GL227758  14.621  17.221   9.129
 2003POPC   C1A27759  14.658  17.747   8.836
 2003POPC   D2A27760  14.752  17.676   8.398
 2003POPC   C3A27761  14.397  17.686   8.134
 2003POPC   C4A27762  14.215  17.431   7.816
 2003POPC   C1B27763  14.838  17.249   8.738
 2003POPC   C2B27764  14.867  16.974   8.364
 2003POPC   C3B27765  14.965  17.117   7.940
 2003POPC   C4B27766  14.749  17.520   7.801
 2004POPC   NC327767  15.034  19.390   9.466
 2004POPC   PO427768  15.291  19.994   9.574
 2004POPC   GL127769  15.399  19.921   9.133
 2004POPC   GL227770  15.213  19.607   9.044
 2004POPC   C1A27771  15.195  19.983   8.704
 2004POPC   D2A27772  14.972  20.161   8.349
 2004POPC   C3A27773  15.128  20.022   7.953
 2004POPC   C4A27774  15.499  19.839   7.689
 2004POPC   C1B27775  15.373  19.478   8.629
 2004POPC   C2B27776  15.434  19.683   8.215
 2004POPC   C3B27777  15.157  19.529   7.859
 2004POPC   C4B27778  14.765  19.647   7.795
 2005POPC   NC327779  12.631  20.451   9.479
 2005POPC   PO427780  12.975  21.011   9.359
 2005POPC   GL127781  12.831  20.691   9.071
 2005POPC   GL227782  12.724  20.329   9.001
 2005POPC   C1A27783  12.699  20.734   8.668
 2005POPC   D2A27784  12.936  20.692   8.322
 2005POPC   C3A27785  12.780  20.751   7.942
 2005POPC   C4A27786  12.974  20.728   7.528
 2005POPC   C1B27787  12.341  20.394   8.755
 2005POPC   C2B27788  12.351  20.536   8.329
 2005POPC   C3B27789  12.443  20.316   7.975
 2005POPC   C4B27790  12.758  20.310   7.681
 2006POPC   NC327791  29.305  16.421   9.365
 2006POPC   PO427792  28.892  15.871   9.471
 2006POPC   GL127793  29.045  16.027   9.143
 2006POPC   GL227794  29.410  15.906   9.179
 2006POPC   C1A27795  28.887  16.074   8.744
 2006POPC   D2A27796  28.848  15.769   8.417
 2006POPC   C3A27797  28.972  15.903   8.023
 2006POPC   C4A27798  28.959  16.294   7.845
 2006POPC   C1B27799  29.385  16.147   8.790
 2006POPC   C2B27800  29.283  16.071   8.406
 2006POPC   C3B27801  29.400  16.361   8.119
 2006POPC   C4B27802  29.440  16.423   7.696
 2007POPC   NC327803  32.229  34.925   9.472
 2007POPC   PO427804  31.973  34.271   9.380
 2007POPC   GL127805  32.243  34.500   9.071
 2007POPC   GL227806  32.478  34.840   9.044
 2007POPC   C1A27807  32.051  34.468   8.650
 2007POPC   D2A27808  32.045  34.681   8.249
 2007POPC   C3A27809  32.040  34.382   7.928
 2007POPC   C4A27810  32.073  34.407   7.480
 2007POPC   C1B27811  32.544  34.653   8.656
 2007POPC   C2B27812  32.496  34.945   8.301
 2007POPC   C3B27813  32.381  34.905   7.903
 2007POPC   C4B27814  32.502  34.507   7.760
 2008POPC   NC327815  30.831  12.540   9.351
 2008POPC   PO427816  30.601  13.236   9.406
 2008POPC   GL127817  30.606  12.932   9.054
 2008POPC   GL227818  30.977  12.866   8.976
 2008POPC   C1A27819  30.397  12.814   8.665
 2008POPC   D2A27820  30.714  12.830   8.338
 2008POPC   C3A27821  30.594  12.794   7.925
 2008POPC   C4A27822  30.691  13.123   7.668
 2008POPC   C1B27823  30.809  12.498   8.725
 2008POPC   C2B27824  30.943  12.325   8.360
 2008POPC   C3B27825  31.070  12.578   8.042
 2008POPC   C4B27826  30.985  12.658   7.622
 2009POPC   NC327827   0.482   8.018   9.676
 2009POPC   PO427828   0.012   7.875   9.272
 2009POPC   GL127829   0.367   8.106   9.092
 2009POPC   GL227830   0.729   8.013   9.224
 2009POPC   C1A27831   0.328   8.253   8.654
 2009POPC   D2A27832   0.127   8.332   8.265
 2009POPC   C3A27833   0.393   8.307   7.929
 2009POPC   C4A27834   0.430   8.151   7.546
 2009POPC   C1B27835   0.785   8.021   8.776
 2009POPC   C2B27836   0.916   8.107   8.342
 2009POPC   C3B27837   0.859   8.091   7.881
 2009POPC   C4B27838   0.866   8.404   7.551
 2010POPC   NC327839  26.812  28.786   9.488
 2010POPC   PO427840  26.695  29.383   9.387
 2010POPC   GL127841  26.920  29.127   9.129
 2010POPC   GL227842  26.555  28.961   9.085
 2010POPC   C1A27843  26.970  29.218   8.711
 2010POPC   D2A27844  26.600  29.207   8.430
 2010POPC   C3A27845  26.760  29.231   7.997
 2010POPC   C4A27846  27.100  29.459   7.792
 2010POPC   C1B27847  26.796  28.754   8.780
 2010POPC   C2B27848  26.954  28.836   8.346
 2010POPC   C3B27849  26.787  28.726   7.924
 2010POPC   C4B27850  26.630  28.786   7.467
 2011POPC   NC327851   6.916  14.184   9.997
 2011POPC   PO427852   6.504  14.660   9.637
 2011POPC   GL127853   6.450  14.428   9.197
 2011POPC   GL227854   6.719  14.148   9.172
 2011POPC   C1A27855   6.649  14.581   8.768
 2011POPC   D2A27856   6.825  14.488   8.355
 2011POPC   C3A27857   6.725  14.689   7.990
 2011POPC   C4A27858   6.510  14.649   7.619
 2011POPC   C1B27859   6.779  14.095   8.719
 2011POPC   C2B27860   6.624  14.005   8.291
 2011POPC   C3B27861   6.745  14.174   7.878
 2011POPC   C4B27862   7.074  14.029   7.568
 2012POPC   NC327863  24.884  37.651   9.580
 2012POPC   PO427864  24.208  37.803   9.515
 2012POPC   GL127865  24.391  37.459   9.252
 2012POPC   GL227866  24.769  37.445   9.126
 2012POPC   C1A27867  24.367  37.446   8.801
 2012POPC   D2A27868  24.685  37.471   8.492
 2012POPC   C3A27869  24.635  37.601   8.096
 2012POPC   C4A27870  24.673  37.409   7.743
 2012POPC   C1B27871  24.913  37.768   8.850
 2012POPC   C2B27872  24.739  37.993   8.493
 2012POPC   C3B27873  24.853  38.055   8.085
 2012POPC   C4B27874  24.706  37.932   7.649
 2013POPC   NC327875  15.380  12.133   9.859
 2013POPC   PO427876  15.971  12.082   9.529
 2013POPC   GL127877  15.841  12.183   9.139
 2013POPC   GL227878  16.141  12.281   9.073
 2013POPC   C1A27879  15.689  12.178   8.725
 2013POPC   D2A27880  15.916  12.088   8.352
 2013POPC   C3A27881  15.668  12.038   7.974
 2013POPC   C4A27882  15.683  12.196   7.559
 2013POPC   C1B27883  16.177  11.896   8.849
 2013POPC   C2B27884  16.288  11.718   8.466
 2013POPC   C3B27885  16.325  11.916   8.080
 2013POPC   C4B27886  16.083  11.868   7.736
 2014POPC   NC327887  14.516  29.610   9.489
 2014POPC   PO427888  14.550  30.219   9.544
 2014POPC   GL127889  14.437  30.079   9.151
 2014POPC   GL227890  14.107  30.106   9.025
 2014POPC   C1A27891  14.504  30.171   8.721
 2014POPC   D2A27892  14.240  30.106   8.393
 2014POPC   C3A27893  14.486  30.033   8.021
 2014POPC   C4A27894  14.640  30.346   7.767
 2014POPC   C1B27895  14.116  29.740   8.742
 2014POPC   C2B27896  14.052  29.630   8.290
 2014POPC   C3B27897  14.053  29.809   7.848
 2014POPC   C4B27898  14.243  29.648   7.465
 2015POPC   NC327899  14.083  30.304   9.496
 2015POPC   PO427900  14.365  30.921   9.625
 2015POPC   GL127901  14.271  30.730   9.242
 2015POPC   GL227902  14.119  31.052   9.120
 2015POPC   C1A27903  14.175  30.561   8.836
 2015POPC   D2A27904  14.382  30.609   8.455
 2015POPC   C3A27905  14.248  30.487   8.062
 2015POPC   C4A27906  14.201  30.662   7.666
 2015POPC   C1B27907  14.474  30.986   8.828
 2015POPC   C2B27908  14.691  31.004   8.443
 2015POPC   C3B27909  14.651  30.801   8.054
 2015POPC   C4B27910  14.676  30.822   7.629
 2016POPC   NC327911  41.360  35.879   9.850
 2016POPC   PO427912  41.616  35.322   9.575
 2016POPC   GL127913  41.581  35.144   9.191
 2016POPC   GL227914  41.450  35.475   9.097
 2016POPC   C1A27915  41.548  35.058   8.779
 2016POPC   D2A27916  41.504  35.324   8.423
 2016POPC   C3A27917  41.492  35.147   8.021
 2016POPC   C4A27918  41.533  35.327   7.643
 2016POPC   C1B27919  41.531  35.732   8.747
 2016POPC   C2B27920  41.447  35.846   8.317
 2016POPC   C3B27921  41.596  35.742   7.916
 2016POPC   C4B27922  41.680  35.760   7.442
 2017POPC   NC327923  41.796  39.613   9.388
 2017POPC   PO427924  41.332  39.239   9.581
 2017POPC   GL127925  41.352  39.118   9.143
 2017POPC   GL227926  41.260  39.467   9.076
 2017POPC   C1A27927  41.641  38.897   8.839
 2017POPC   D2A27928  41.687  38.769   8.401
 2017POPC   C3A27929  41.568  39.107   8.142
 2017POPC   C4A27930  41.618  39.148   7.725
 2017POPC   C1B27931  41.442  39.369   8.665
 2017POPC   C2B27932  41.229  39.504   8.291
 2017POPC   C3B27933  41.151  39.476   7.857
 2017POPC   C4B27934  41.178  39.232   7.480
 2018POPC   NC327935   8.355  42.268   9.412
 2018POPC   PO427936   7.790  42.456   9.392
 2018POPC   GL127937   7.996  42.506   9.004
 2018POPC   GL227938   8.380  42.413   8.930
 2018POPC   C1A27939   8.050  42.470   8.546
 2018POPC   D2A27940   8.482  42.533   8.380
 2018POPC   C3A27941   8.416  42.408   7.986
 2018POPC   C4A27942   8.009  42.505   7.782
 2018POPC   C1B27943   8.074  42.046   8.841
 2018POPC   C2B27944   7.912  41.929   8.458
 2018POPC   C3B27945   8.091  41.992   8.051
 2018POPC   C4B27946   7.951  41.824   7.676
 2019POPC   NC327947  27.841  22.932   9.529
 2019POPC   PO427948  27.378  23.252   9.263
 2019POPC   GL127949  27.535  22.879   9.105
 2019POPC   GL227950  27.869  22.647   9.121
 2019POPC   C1A27951  27.713  23.005   8.746
 2019POPC   D2A27952  27.573  23.244   8.384
 2019POPC   C3A27953  27.684  23.032   8.010
 2019POPC   C4A27954  27.798  23.166   7.612
 2019POPC   C1B27955  27.586  22.500   8.786
 2019POPC   C2B27956  27.542  22.685   8.394
 2019POPC   C3B27957  27.497  22.541   8.017
 2019POPC   C4B27958  27.668  22.666   7.643
 2020POPC   NC327959  35.347   9.334   9.531
 2020POPC   PO427960  35.321   8.701   9.919
 2020POPC   GL127961  35.264   8.844   9.442
 2020POPC   GL227962  35.579   8.952   9.214
 2020POPC   C1A27963  35.142   8.887   8.961
 2020POPC   D2A27964  35.295   9.064   8.549
 2020POPC   C3A27965  35.135   9.051   8.123
 2020POPC   C4A27966  35.224   8.970   7.673
 2020POPC   C1B27967  35.707   9.198   8.815
 2020POPC   C2B27968  35.705   9.334   8.371
 2020POPC   C3B27969  35.618   9.170   7.955
 2020POPC   C4B27970  35.727   9.016   7.546
 2021POPC   NC327971   8.715  24.402   9.814
 2021POPC   PO427972   8.093  24.400   9.550
 2021POPC   GL127973   8.015  24.596   9.174
 2021POPC   GL227974   8.222  24.404   9.019
 2021POPC   C1A27975   7.846  24.690   8.780
 2021POPC   D2A27976   7.961  24.516   8.380
 2021POPC   C3A27977   7.976  24.743   8.009
 2021POPC   C4A27978   7.951  24.430   7.720
 2021POPC   C1B27979   8.100  24.150   8.746
 2021POPC   C2B27980   8.273  24.067   8.395
 2021POPC   C3B27981   8.329  24.291   8.053
 2021POPC   C4B27982   8.318  24.064   7.668
 2022POPC   NC327983  19.968  27.954   9.611
 2022POPC   PO427984  19.596  27.371   9.420
 2022POPC   GL127985  19.845  27.589   9.132
 2022POPC   GL227986  19.799  27.960   9.140
 2022POPC   C1A27987  19.964  27.416   8.728
 2022POPC   D2A27988  20.110  27.246   8.337
 2022POPC   C3A27989  19.945  27.533   8.056
 2022POPC   C4A27990  19.996  27.688   7.654
 2022POPC   C1B27991  19.733  27.893   8.725
 2022POPC   C2B27992  19.604  27.823   8.312
 2022POPC   C3B27993  19.618  27.939   7.880
 2022POPC   C4B27994  19.617  27.931   7.426
 2023POPC   NC327995  31.606   0.779   9.330
 2023POPC   PO427996  31.728   1.454   9.397
 2023POPC   GL127997  31.526   1.209   9.067
 2023POPC   GL227998  31.745   0.960   8.874
 2023POPC   C1A27999  31.256   1.189   8.736
 2023POPC   D2A28000  31.498   1.139   8.390
 2023POPC   C3A28001  31.361   1.131   7.984
 2023POPC   C4A28002  31.166   1.372   7.699
 2023POPC   C1B28003  31.861   1.378   8.731
 2023POPC   C2B28004  31.760   1.591   8.366
 2023POPC   C3B28005  31.899   1.490   7.982
 2023POPC   C4B28006  31.833   1.187   7.691
 2024POPC   NC328007   7.499  36.339   9.350
 2024POPC   PO428008   7.209  35.751   9.603
 2024POPC   GL128009   7.143  35.982   9.202
 2024POPC   GL228010   7.447  35.964   9.018
 2024POPC   C1A28011   7.111  36.255   8.798
 2024POPC   D2A28012   7.211  36.484   8.399
 2024POPC   C3A28013   7.225  36.476   7.954
 2024POPC   C4A28014   7.451  36.219   7.680
 2024POPC   C1B28015   7.593  36.120   8.626
 2024POPC   C2B28016   7.589  36.078   8.167
 2024POPC   C3B28017   7.671  35.776   7.817
 2024POPC   C4B28018   7.705  35.884   7.366
 2025POPC   NC328019  16.566  21.537   9.415
 2025POPC   PO428020  16.736  20.962   9.748
 2025POPC   GL128021  16.848  21.100   9.244
 2025POPC   GL228022  16.725  20.831   9.094
 2025POPC   C1A28023  16.696  21.342   8.809
 2025POPC   D2A28024  16.608  21.622   8.431
 2025POPC   C3A28025  16.931  21.691   8.093
 2025POPC   C4A28026  16.964  21.528   7.682
 2025POPC   C1B28027  16.801  20.884   8.635
 2025POPC   C2B28028  16.659  21.117   8.245
 2025POPC   C3B28029  16.509  21.318   7.841
 2025POPC   C4B28030  16.644  21.178   7.412
 2026POPC   NC328031  12.464   2.966   9.813
 2026POPC   PO428032  12.813   2.722   9.179
 2026POPC   GL128033  13.109   2.916   8.971
 2026POPC   GL228034  13.050   3.234   9.070
 2026POPC   C1A28035  13.131   2.798   8.549
 2026POPC   D2A28036  13.042   2.497   8.254
 2026POPC   C3A28037  12.744   2.617   7.936
 2026POPC   C4A28038  12.769   2.464   7.520
 2026POPC   C1B28039  12.836   3.243   8.664
 2026POPC   C2B28040  12.816   3.069   8.252
 2026POPC   C3B28041  12.688   3.109   7.844
 2026POPC   C4B28042  13.020   3.003   7.550
 2027POPC   NC328043  41.994  41.874   9.714
 2027POPC   PO428044  41.428  41.540   9.465
 2027POPC   GL128045  41.534  41.720   9.160
 2027POPC   GL228046  41.728  41.988   9.277
 2027POPC   C1A28047  41.583  41.472   8.789
 2027POPC   D2A28048  41.741  41.335   8.375
 2027POPC   C3A28049  41.606  41.544   7.962
 2027POPC   C4A28050  41.268  41.582   7.630
 2027POPC   C1B28051  41.856  41.916   8.835
 2027POPC   C2B28052  41.731  41.853   8.440
 2027POPC   C3B28053  41.945  41.917   8.072
 2027POPC   C4B28054  42.034  41.817   7.682
 2028POPC   NC328055  31.810  30.137   9.788
 2028POPC   PO428056  31.249  30.125   9.491
 2028POPC   GL128057  31.563  29.985   9.186
 2028POPC   GL228058  31.504  29.620   9.186
 2028POPC   C1A28059  31.745  29.924   8.756
 2028POPC   D2A28060  31.570  29.821   8.363
 2028POPC   C3A28061  31.568  29.980   7.950
 2028POPC   C4A28062  31.420  30.303   7.703
 2028POPC   C1B28063  31.386  29.541   8.770
 2028POPC   C2B28064  31.217  29.475   8.360
 2028POPC   C3B28065  31.349  29.465   7.946
 2028POPC   C4B28066  31.322  29.688   7.585
 2029POPC   NC328067  30.337  33.238   9.600
 2029POPC   PO428068  30.876  32.977   9.411
 2029POPC   GL128069  30.564  32.944   9.156
 2029POPC   GL228070  30.385  32.652   9.250
 2029POPC   C1A28071  30.753  32.935   8.753
 2029POPC   D2A28072  30.678  33.199   8.448
 2029POPC   C3A28073  30.865  33.338   8.074
 2029POPC   C4A28074  30.604  33.430   7.736
 2029POPC   C1B28075  30.322  32.548   8.805
 2029POPC   C2B28076  30.583  32.587   8.437
 2029POPC   C3B28077  30.861  32.818   8.155
 2029POPC   C4B28078  30.727  32.935   7.738
 2030POPC   NC328079  31.102  40.937   9.635
 2030POPC   PO428080  30.495  40.804   9.840
 2030POPC   GL128081  30.671  40.753   9.294
 2030POPC   GL228082  30.959  40.617   9.255
 2030POPC   C1A28083  30.549  40.783   8.865
 2030POPC   D2A28084  30.349  40.874   8.469
 2030POPC   C3A28085  30.684  40.970   8.203
 2030POPC   C4A28086  30.796  41.042   7.787
 2030POPC   C1B28087  30.923  40.452   8.843
 2030POPC   C2B28088  30.706  40.506   8.466
 2030POPC   C3B28089  30.582  40.458   8.048
 2030POPC   C4B28090  30.825  40.461   7.697
 2031POPC   NC328091  18.637  33.395   9.237
 2031POPC   PO428092  18.390  33.909   9.555
 2031POPC   GL128093  18.161  33.864   9.186
 2031POPC   GL228094  18.472  33.840   9.045
 2031POPC   C1A28095  18.083  33.917   8.728
 2031POPC   D2A28096  18.244  33.708   8.343
 2031POPC   C3A28097  18.249  33.911   7.976
 2031POPC   C4A28098  17.970  34.208   7.817
 2031POPC   C1B28099  18.624  33.783   8.672
 2031POPC   C2B28100  18.723  33.892   8.279
 2031POPC   C3B28101  18.784  33.883   7.867
 2031POPC   C4B28102  18.516  33.839   7.517
 2032POPC   NC328103  42.954  44.752   9.471
 2032POPC   PO428104  43.558   0.071   9.395
 2032POPC   GL128105  43.356  44.783   9.136
 2032POPC   GL228106  43.308  44.422   9.206
 2032POPC   C1A28107  43.115  44.850   8.787
 2032POPC   D2A28108  42.852  44.810   8.449
 2032POPC   C3A28109  43.095  44.879   8.094
 2032POPC   C4A28110  42.951  44.913   7.692
 2032POPC   C1B28111  43.217  44.365   8.773
 2032POPC   C2B28112  43.055  44.372   8.356
 2032POPC   C3B28113  43.132  44.403   7.935
 2032POPC   C4B28114  43.516  44.368   7.810
 2033POPC   NC328115  36.327  21.445   9.506
 2033POPC   PO428116  35.824  21.024   9.617
 2033POPC   GL128117  36.014  21.268   9.162
 2033POPC   GL228118  36.249  21.602   9.031
 2033POPC   C1A28119  36.205  21.233   8.730
 2033POPC   D2A28120  36.187  21.552   8.404
 2033POPC   C3A28121  36.448  21.435   8.081
 2033POPC   C4A28122  36.362  21.145   7.735
 2033POPC   C1B28123  35.875  21.668   8.813
 2033POPC   C2B28124  35.640  21.614   8.431
 2033POPC   C3B28125  35.815  21.688   8.028
 2033POPC   C4B28126  36.156  21.651   7.752
 2034POPC   NC328127   8.630  31.281   9.567
 2034POPC   PO428128   9.259  31.656   9.572
 2034POPC   GL128129   8.996  31.499   9.197
 2034POPC   GL228130   8.726  31.697   9.249
 2034POPC   C1A28131   8.980  31.360   8.736
 2034POPC   D2A28132   9.014  31.211   8.302
 2034POPC   C3A28133   9.063  31.554   8.021
 2034POPC   C4A28134   8.801  31.533   7.689
 2034POPC   C1B28135   8.627  31.738   8.818
 2034POPC   C2B28136   8.667  31.628   8.392
 2034POPC   C3B28137   8.484  31.823   8.036
 2034POPC   C4B28138   8.357  31.749   7.627
 2035POPC   NC328139  32.484  22.389   9.329
 2035POPC   PO428140  33.013  22.827   9.541
 2035POPC   GL128141  33.152  22.781   9.146
 2035POPC   GL228142  33.384  22.493   9.178
 2035POPC   C1A28143  33.059  22.974   8.741
 2035POPC   D2A28144  32.862  22.889   8.362
 2035POPC   C3A28145  32.849  23.110   8.000
 2035POPC   C4A28146  32.858  22.879   7.636
 2035POPC   C1B28147  33.262  22.504   8.737
 2035POPC   C2B28148  33.356  22.755   8.355
 2035POPC   C3B28149  33.278  22.731   7.898
 2035POPC   C4B28150  33.187  22.529   7.467
 2036POPC   NC328151  38.453  30.188   9.519
 2036POPC   PO428152  38.516  29.556   9.508
 2036POPC   GL128153  38.422  29.809   9.163
 2036POPC   GL228154  38.122  29.664   9.121
 2036POPC   C1A28155  38.624  30.015   8.811
 2036POPC   D2A28156  38.727  29.899   8.398
 2036POPC   C3A28157  38.557  30.086   8.026
 2036POPC   C4A28158  38.105  30.201   7.905
 2036POPC   C1B28159  38.136  29.961   8.762
 2036POPC   C2B28160  38.201  29.889   8.336
 2036POPC   C3B28161  38.177  29.705   7.928
 2036POPC   C4B28162  38.209  29.783   7.498
 2037POPC   NC328163   3.861  42.497   9.500
 2037POPC   PO428164   3.166  42.146   9.469
 2037POPC   GL128165   3.471  42.327   9.223
 2037POPC   GL228166   3.712  42.084   9.263
 2037POPC   C1A28167   3.515  42.480   8.807
 2037POPC   D2A28168   3.789  42.594   8.456
 2037POPC   C3A28169   3.592  42.419   8.081
 2037POPC   C4A28170   3.574  42.657   7.659
 2037POPC   C1B28171   3.757  42.049   8.872
 2037POPC   C2B28172   3.796  42.088   8.472
 2037POPC   C3B28173   3.835  41.809   8.207
 2037POPC   C4B28174   3.845  41.906   7.807
 2038POPC   NC328175  44.937  40.158   9.310
 2038POPC   PO428176   0.484  39.851   9.336
 2038POPC   GL128177   0.371  40.097   9.044
 2038POPC   GL228178   0.125  39.861   8.932
 2038POPC   C1A28179   0.260  40.346   8.720
 2038POPC   D2A28180   0.302  40.171   8.332
 2038POPC   C3A28181   0.366  40.390   7.955
 2038POPC   C4A28182   0.540  40.070   7.681
 2038POPC   C1B28183   0.484  39.786   8.633
 2038POPC   C2B28184   0.429  39.574   8.206
 2038POPC   C3B28185   0.583  39.588   7.771
 2038POPC   C4B28186   0.738  39.706   7.329
 2039POPC   NC328187  13.788  21.984   9.666
 2039POPC   PO428188  13.774  22.517   9.294
 2039POPC   GL128189  13.740  22.120   9.147
 2039POPC   GL228190  13.432  22.172   9.029
 2039POPC   C1A28191  13.784  21.953   8.721
 2039POPC   D2A28192  13.912  22.082   8.307
 2039POPC   C3A28193  13.653  22.201   7.921
 2039POPC   C4A28194  13.457  22.379   7.544
 2039POPC   C1B28195  13.346  22.361   8.664
 2039POPC   C2B28196  13.244  22.260   8.235
 2039POPC   C3B28197  13.165  22.060   7.820
 2039POPC   C4B28198  13.069  21.973   7.401
 2040POPC   NC328199  21.307  43.509   9.531
 2040POPC   PO428200  21.510  44.224   9.461
 2040POPC   GL128201  21.522  43.880   9.154
 2040POPC   GL228202  21.195  43.717   9.105
 2040POPC   C1A28203  21.433  43.907   8.691
 2040POPC   D2A28204  21.304  44.091   8.304
 2040POPC   C3A28205  21.591  43.992   7.980
 2040POPC   C4A28206  21.806  43.839   7.634
 2040POPC   C1B28207  20.976  43.671   8.757
 2040POPC   C2B28208  21.142  43.570   8.360
 2040POPC   C3B28209  21.096  43.746   7.964
 2040POPC   C4B28210  21.303  43.774   7.565
 2041POPC   NC328211  40.524  36.423   9.353
 2041POPC   PO428212  40.918  35.937   9.716
 2041POPC   GL128213  40.978  36.151   9.241
 2041POPC   GL228214  41.174  36.450   9.173
 2041POPC   C1A28215  40.829  36.224   8.803
 2041POPC   D2A28216  40.606  36.039   8.428
 2041POPC   C3A28217  40.811  35.901   8.075
 2041POPC   C4A28218  40.700  36.057   7.703
 2041POPC   C1B28219  41.094  36.685   8.791
 2041POPC   C2B28220  40.893  36.550   8.411
 2041POPC   C3B28221  40.722  36.426   8.047
 2041POPC   C4B28222  40.995  36.491   7.704
 2042POPC   NC328223   7.995  40.068   9.506
 2042POPC   PO428224   8.698  40.050   9.396
 2042POPC   GL128225   8.299  39.997   9.104
 2042POPC   GL228226   7.951  39.804   9.093
 2042POPC   C1A28227   8.204  39.950   8.674
 2042POPC   D2A28228   8.528  40.103   8.419
 2042POPC   C3A28229   8.320  40.114   8.077
 2042POPC   C4A28230   8.202  39.977   7.716
 2042POPC   C1B28231   7.666  39.769   8.766
 2042POPC   C2B28232   7.683  39.595   8.394
 2042POPC   C3B28233   7.914  39.765   8.092
 2042POPC   C4B28234   7.741  39.741   7.712
 2043POPC   NC328235  35.187  19.830   9.552
 2043POPC   PO428236  35.869  20.035   9.479
 2043POPC   GL128237  35.532  20.095   9.180
 2043POPC   GL228238  35.369  19.767   9.086
 2043POPC   C1A28239  35.630  20.083   8.755
 2043POPC   D2A28240  35.538  19.789   8.433
 2043POPC   C3A28241  35.632  19.900   8.048
 2043POPC   C4A28242  35.467  19.968   7.661
 2043POPC   C1B28243  35.319  19.477   8.755
 2043POPC   C2B28244  35.104  19.516   8.328
 2043POPC   C3B28245  35.180  19.612   7.899
 2043POPC   C4B28246  35.175  19.549   7.394
 2044POPC   NC328247  41.881  30.420   9.402
 2044POPC   PO428248  41.513  30.949   9.612
 2044POPC   GL128249  41.539  30.746   9.169
 2044POPC   GL228250  41.894  30.741   9.010
 2044POPC   C1A28251  41.479  30.698   8.702
 2044POPC   D2A28252  41.219  30.580   8.337
 2044POPC   C3A28253  41.365  30.488   7.928
 2044POPC   C4A28254  41.551  30.693   7.602
 2044POPC   C1B28255  41.856  30.345   8.747
 2044POPC   C2B28256  41.729  30.384   8.323
 2044POPC   C3B28257  41.792  30.783   8.067
 2044POPC   C4B28258  42.070  30.825   7.682
 2045POPC   NC328259  10.390  35.426   9.487
 2045POPC   PO428260  10.959  35.704   9.344
 2045POPC   GL128261  10.889  35.273   9.137
 2045POPC   GL228262  10.576  35.213   9.084
 2045POPC   C1A28263  10.836  35.109   8.668
 2045POPC   D2A28264  10.814  35.371   8.297
 2045POPC   C3A28265  10.700  35.253   7.894
 2045POPC   C4A28266  10.713  35.682   7.834
 2045POPC   C1B28267  10.371  35.332   8.740
 2045POPC   C2B28268  10.379  35.150   8.360
 2045POPC   C3B28269  10.322  35.506   8.130
 2045POPC   C4B28270  10.096  35.685   7.791
 2046POPC   NC328271  17.716   3.085   9.843
 2046POPC   PO428272  17.651   3.645   9.427
 2046POPC   GL128273  17.606   3.533   9.040
 2046POPC   GL228274  17.304   3.418   9.096
 2046POPC   C1A28275  17.526   3.388   8.638
 2046POPC   D2A28276  17.358   3.437   8.247
 2046POPC   C3A28277  17.654   3.420   7.934
 2046POPC   C4A28278  17.879   3.413   7.574
 2046POPC   C1B28279  17.149   3.698   8.808
 2046POPC   C2B28280  17.152   3.872   8.420
 2046POPC   C3B28281  17.042   3.766   7.990
 2046POPC   C4B28282  17.200   3.418   7.748
 2047POPC   NC328283  34.421  21.128   9.452
 2047POPC   PO428284  34.264  21.808   9.575
 2047POPC   GL128285  34.393  21.574   9.174
 2047POPC   GL228286  34.702  21.486   9.125
 2047POPC   C1A28287  34.410  21.269   8.789
 2047POPC   D2A28288  34.348  21.509   8.412
 2047POPC   C3A28289  34.417  21.254   8.091
 2047POPC   C4A28290  34.513  21.044   7.771
 2047POPC   C1B28291  34.796  21.607   8.730
 2047POPC   C2B28292  34.820  21.291   8.437
 2047POPC   C3B28293  34.890  21.001   8.110
 2047POPC   C4B28294  35.044  21.021   7.728
 2048POPC   NC328295  31.201  23.776   9.445
 2048POPC   PO428296  30.593  23.532   9.563
 2048POPC   GL128297  30.797  23.530   9.201
 2048POPC   GL228298  31.073  23.318   9.172
 2048POPC   C1A28299  30.637  23.522   8.789
 2048POPC   D2A28300  30.334  23.672   8.489
 2048POPC   C3A28301  30.568  23.730   8.107
 2048POPC   C4A28302  30.645  23.391   7.868
 2048POPC   C1B28303  31.174  23.577   8.824
 2048POPC   C2B28304  31.044  23.716   8.427
 2048POPC   C3B28305  31.097  23.536   8.027
 2048POPC   C4B28306  30.931  23.814   7.716
 2049POPC   NC328307  43.655  30.994   9.404
 2049POPC   PO428308  44.192  30.572   9.548
 2049POPC   GL128309  44.144  30.827   9.200
 2049POPC   GL228310  43.867  30.581   9.106
 2049POPC   C1A28311  44.151  30.785   8.743
 2049POPC   D2A28312  43.959  30.626   8.433
 2049POPC   C3A28313  43.952  30.833   8.051
 2049POPC   C4A28314  44.008  30.508   7.753
 2049POPC   C1B28315  43.541  30.549   8.769
 2049POPC   C2B28316  43.470  30.732   8.359
 2049POPC   C3B28317  43.535  30.567   7.951
 2049POPC   C4B28318  43.583  30.807   7.576
 2050POPC   NC328319  42.633  41.740   9.411
 2050POPC   PO428320  42.126  41.430   9.763
 2050POPC   GL128321  42.054  41.597   9.269
 2050POPC   GL228322  42.232  41.902   9.151
 2050POPC   C1A28323  42.086  41.451   8.797
 2050POPC   D2A28324  42.194  41.601   8.387
 2050POPC   C3A28325  42.091  41.398   7.993
 2050POPC   C4A28326  42.006  41.328   7.569
 2050POPC   C1B28327  42.495  41.774   8.785
 2050POPC   C2B28328  42.646  41.402   8.541
 2050POPC   C3B28329  42.594  41.427   8.088
 2050POPC   C4B28330  42.468  41.581   7.671
 2051POPC   NC328331   7.509  37.116   9.581
 2051POPC   PO428332   7.769  36.539   9.659
 2051POPC   GL128333   7.669  36.791   9.215
 2051POPC   GL228334   7.330  37.008   9.132
 2051POPC   C1A28335   7.474  36.693   8.784
 2051POPC   D2A28336   7.343  36.972   8.454
 2051POPC   C3A28337   7.557  36.830   8.122
 2051POPC   C4A28338   7.420  36.886   7.722
 2051POPC   C1B28339   7.656  37.183   8.845
 2051POPC   C2B28340   7.739  37.273   8.415
 2051POPC   C3B28341   7.598  37.330   8.007
 2051POPC   C4B28342   7.663  37.310   7.576
 2052POPC   NC328343  40.741   3.204   9.506
 2052POPC   PO428344  40.957   2.571   9.368
 2052POPC   GL128345  40.713   2.847   9.126
 2052POPC   GL228346  40.939   3.037   8.999
 2052POPC   C1A28347  40.494   2.912   8.714
 2052POPC   D2A28348  40.558   3.136   8.306
 2052POPC   C3A28349  40.749   2.877   7.996
 2052POPC   C4A28350  40.655   2.569   7.678
 2052POPC   C1B28351  40.953   2.653   8.716
 2052POPC   C2B28352  41.051   2.620   8.303
 2052POPC   C3B28353  41.121   2.521   7.890
 2052POPC   C4B28354  41.119   2.517   7.455
 2053POPC   NC328355  42.544   9.514   9.471
 2053POPC   PO428356  42.040   9.990   9.445
 2053POPC   GL128357  42.102   9.826   9.079
 2053POPC   GL228358  42.453   9.878   9.093
 2053POPC   C1A28359  42.239   9.688   8.671
 2053POPC   D2A28360  42.053   9.661   8.286
 2053POPC   C3A28361  42.181   9.823   7.925
 2053POPC   C4A28362  42.533   9.570   7.918
 2053POPC   C1B28363  42.600  10.066   8.690
 2053POPC   C2B28364  42.520  10.013   8.249
 2053POPC   C3B28365  42.621  10.080   7.793
 2053POPC   C4B28366  42.406  10.311   7.466
 2054POPC   NC328367   9.971   7.809   9.354
 2054POPC   PO428368   9.628   8.211   9.685
 2054POPC   GL128369   9.656   8.215   9.196
 2054POPC   GL228370   9.396   8.459   9.100
 2054POPC   C1A28371   9.908   8.152   8.800
 2054POPC   D2A28372   9.846   7.897   8.447
 2054POPC   C3A28373   9.878   8.171   8.097
 2054POPC   C4A28374   9.896   8.329   7.693
 2054POPC   C1B28375   9.403   8.202   8.733
 2054POPC   C2B28376   9.448   8.332   8.300
 2054POPC   C3B28377   9.418   8.164   7.873
 2054POPC   C4B28378   9.379   8.327   7.420
 2055POPC   NC328379   1.056   1.460   9.582
 2055POPC   PO428380   1.676   1.234   9.486
 2055POPC   GL128381   1.333   1.226   9.213
 2055POPC   GL228382   1.098   0.972   9.351
 2055POPC   C1A28383   1.342   1.339   8.800
 2055POPC   D2A28384   1.536   1.188   8.430
 2055POPC   C3A28385   1.322   1.311   8.060
 2055POPC   C4A28386   1.033   1.458   7.764
 2055POPC   C1B28387   1.015   0.951   8.897
 2055POPC   C2B28388   1.041   1.084   8.459
 2055POPC   C3B28389   0.883   1.057   8.040
 2055POPC   C4B28390   1.001   0.961   7.613
 2056POPC   NC328391  15.012   7.359   9.474
 2056POPC   PO428392  15.472   6.829   9.570
 2056POPC   GL128393  15.425   7.178   9.225
 2056POPC   GL228394  15.082   7.248   8.990
 2056POPC   C1A28395  15.523   7.249   8.767
 2056POPC   D2A28396  15.509   7.332   8.356
 2056POPC   C3A28397  15.105   7.284   8.168
 2056POPC   C4A28398  15.277   7.306   7.780
 2056POPC   C1B28399  14.790   7.496   8.731
 2056POPC   C2B28400  14.664   7.577   8.308
 2056POPC   C3B28401  14.835   7.639   7.867
 2056POPC   C4B28402  14.970   7.526   7.417
 2057POPC   NC328403   3.775  18.049   9.289
 2057POPC   PO428404   4.334  18.344   9.486
 2057POPC   GL128405   4.307  18.204   9.073
 2057POPC   GL228406   4.001  18.377   8.947
 2057POPC   C1A28407   4.662  18.235   8.762
 2057POPC   D2A28408   4.751  18.444   8.366
 2057POPC   C3A28409   4.440  18.347   8.072
 2057POPC   C4A28410   4.441  18.044   7.715
 2057POPC   C1B28411   4.184  18.256   8.546
 2057POPC   C2B28412   4.135  17.966   8.209
 2057POPC   C3B28413   3.986  18.197   7.852
 2057POPC   C4B28414   3.926  18.031   7.451
 2058POPC   NC328415  30.361  12.837   9.496
 2058POPC   PO428416  29.734  12.924   9.555
 2058POPC   GL128417  29.910  12.806   9.167
 2058POPC   GL228418  30.107  13.100   9.134
 2058POPC   C1A28419  29.857  12.876   8.731
 2058POPC   D2A28420  29.982  13.061   8.365
 2058POPC   C3A28421  29.797  12.894   8.039
 2058POPC   C4A28422  29.822  12.773   7.667
 2058POPC   C1B28423  30.222  13.299   8.761
 2058POPC   C2B28424  30.440  13.277   8.369
 2058POPC   C3B28425  30.274  13.194   7.959
 2058POPC   C4B28426  30.203  13.056   7.520
 2059POPC   NC328427  32.771  29.911   9.632
 2059POPC   PO428428  33.154  30.381   9.848
 2059POPC   GL128429  33.167  30.019   9.346
 2059POPC   GL228430  32.802  29.917   9.146
 2059POPC   C1A28431  33.164  30.108   8.867
 2059POPC   D2A28432  33.150  29.854   8.479
 2059POPC   C3A28433  33.178  30.128   8.156
 2059POPC   C4A28434  33.353  30.040   7.789
 2059POPC   C1B28435  32.742  29.770   8.762
 2059POPC   C2B28436  32.642  29.869   8.338
 2059POPC   C3B28437  32.790  29.930   7.913
 2059POPC   C4B28438  32.877  30.281   7.640
 2060POPC   NC328439  25.578  29.111   9.472
 2060POPC   PO428440  24.953  29.460   9.587
 2060POPC   GL128441  25.211  29.347   9.211
 2060POPC   GL228442  25.231  28.967   9.098
 2060POPC   C1A28443  25.263  29.365   8.770
 2060POPC   D2A28444  25.302  29.451   8.348
 2060POPC   C3A28445  25.340  29.140   8.038
 2060POPC   C4A28446  25.111  29.149   7.676
 2060POPC   C1B28447  25.526  28.792   8.770
 2060POPC   C2B28448  25.654  28.913   8.383
 2060POPC   C3B28449  25.751  28.799   7.971
 2060POPC   C4B28450  25.604  28.965   7.546
 2061POPC   NC328451   5.629  28.753   9.457
 2061POPC   PO428452   6.004  29.309   9.419
 2061POPC   GL128453   5.856  29.064   9.120
 2061POPC   GL228454   5.618  29.303   9.035
 2061POPC   C1A28455   5.704  28.907   8.739
 2061POPC   D2A28456   5.685  29.193   8.415
 2061POPC   C3A28457   5.588  28.967   8.101
 2061POPC   C4A28458   5.740  28.957   7.706
 2061POPC   C1B28459   5.682  29.606   8.722
 2061POPC   C2B28460   5.624  29.751   8.289
 2061POPC   C3B28461   5.649  29.484   7.906
 2061POPC   C4B28462   5.552  29.351   7.480
 2062POPC   NC328463  40.155  11.845   9.865
 2062POPC   PO428464  39.547  12.085   9.736
 2062POPC   GL128465  39.777  12.051   9.306
 2062POPC   GL228466  40.154  11.964   9.233
 2062POPC   C1A28467  39.801  12.314   8.915
 2062POPC   D2A28468  39.747  12.436   8.474
 2062POPC   C3A28469  40.037  12.224   8.265
 2062POPC   C4A28470  40.258  12.133   7.913
 2062POPC   C1B28471  40.081  11.896   8.757
 2062POPC   C2B28472  40.040  11.717   8.287
 2062POPC   C3B28473  40.352  11.639   7.945
 2062POPC   C4B28474  40.432  11.769   7.507
 2063POPC   NC328475   1.248  14.090   9.613
 2063POPC   PO428476   1.213  14.790   9.568
 2063POPC   GL128477   1.317  14.510   9.211
 2063POPC   GL228478   1.025  14.597   9.018
 2063POPC   C1A28479   1.500  14.569   8.771
 2063POPC   D2A28480   1.387  14.532   8.327
 2063POPC   C3A28481   1.599  14.541   7.911
 2063POPC   C4A28482   1.549  14.392   7.473
 2063POPC   C1B28483   1.008  14.330   8.675
 2063POPC   C2B28484   0.870  14.381   8.262
 2063POPC   C3B28485   1.067  14.563   7.913
 2063POPC   C4B28486   1.259  14.801   7.590
 2064POPC   NC328487  20.427  38.880   9.772
 2064POPC   PO428488  20.832  38.324   9.693
 2064POPC   GL128489  20.675  38.331   9.277
 2064POPC   GL228490  20.364  38.134   9.229
 2064POPC   C1A28491  20.507  38.607   8.926
 2064POPC   D2A28492  20.299  38.475   8.534
 2064POPC   C3A28493  20.268  38.697   8.148
 2064POPC   C4A28494  20.551  38.725   7.799
 2064POPC   C1B28495  20.549  38.093   8.820
 2064POPC   C2B28496  20.496  38.009   8.425
 2064POPC   C3B28497  20.589  38.293   8.118
 2064POPC   C4B28498  20.633  38.241   7.702
 2065POPC   NC328499  21.020  24.243   9.399
 2065POPC   PO428500  21.565  24.624   9.520
 2065POPC   GL128501  21.475  24.389   9.159
 2065POPC   GL228502  21.670  24.123   9.210
 2065POPC   C1A28503  21.363  24.345   8.732
 2065POPC   D2A28504  21.362  24.723   8.533
 2065POPC   C3A28505  21.406  24.765   8.102
 2065POPC   C4A28506  21.266  24.730   7.701
 2065POPC   C1B28507  21.854  24.234   8.786
 2065POPC   C2B28508  21.786  24.446   8.377
 2065POPC   C3B28509  21.679  24.359   7.959
 2065POPC   C4B28510  21.283  24.235   7.856
 2066POPC   NC328511  15.934  43.570   9.407
 2066POPC   PO428512  16.346  44.086   9.532
 2066POPC   GL128513  16.144  44.167   9.163
 2066POPC   GL228514  15.904  43.910   9.015
 2066POPC   C1A28515  16.140  44.298   8.759
 2066POPC   D2A28516  16.097  43.957   8.474
 2066POPC   C3A28517  16.092  44.025   8.046
 2066POPC   C4A28518  16.187  43.699   7.773
 2066POPC   C1B28519  15.656  44.119   8.681
 2066POPC   C2B28520  15.587  44.043   8.239
 2066POPC   C3B28521  15.657  43.773   7.893
 2066POPC   C4B28522  15.583  43.793   7.459
 2067POPC   NC328523  11.503  14.530   9.536
 2067POPC   PO428524  10.812  14.362   9.784
 2067POPC   GL128525  11.060  14.256   9.355
 2067POPC   GL228526  10.874  14.118   9.105
 2067POPC   C1A28527  11.345  14.190   8.956
 2067POPC   D2A28528  11.401  14.143   8.484
 2067POPC   C3A28529  11.378  14.492   8.166
 2067POPC   C4A28530  11.318  14.618   7.723
 2067POPC   C1B28531  10.869  14.336   8.744
 2067POPC   C2B28532  10.901  14.191   8.340
 2067POPC   C3B28533  11.117  14.095   7.967
 2067POPC   C4B28534  10.946  14.270   7.631
 2068POPC   NC328535  42.621  39.059   9.278
 2068POPC   PO428536  42.261  39.601   9.518
 2068POPC   GL128537  42.305  39.439   9.111
 2068POPC   GL228538  42.206  39.081   8.963
 2068POPC   C1A28539  42.234  39.517   8.685
 2068POPC   D2A28540  41.976  39.191   8.471
 2068POPC   C3A28541  42.100  39.138   8.041
 2068POPC   C4A28542  42.177  39.534   7.833
 2068POPC   C1B28543  42.461  39.051   8.591
 2068POPC   C2B28544  42.533  39.361   8.288
 2068POPC   C3B28545  42.632  39.259   7.884
 2068POPC   C4B28546  42.607  38.971   7.557
 2069POPC   NC328547  37.053  44.615   9.671
 2069POPC   PO428548  36.436  44.606   9.765
 2069POPC   GL128549  36.656  44.567   9.293
 2069POPC   GL228550  37.009  44.730   9.174
 2069POPC   C1A28551  36.796  44.430   8.823
 2069POPC   D2A28552  36.802  44.275   8.369
 2069POPC   C3A28553  36.705  44.561   8.018
 2069POPC   C4A28554  36.862  44.973   7.897
 2069POPC   C1B28555  37.213  44.773   8.767
 2069POPC   C2B28556  37.129  44.752   8.331
 2069POPC   C3B28557  37.324  44.775   7.950
 2069POPC   C4B28558  37.218  44.797   7.549
 2070POPC   NC328559  32.462  36.671   9.522
 2070POPC   PO428560  32.523  37.292   9.332
 2070POPC   GL128561  32.327  36.955   9.101
 2070POPC   GL228562  32.189  36.603   9.085
 2070POPC   C1A28563  32.240  37.036   8.697
 2070POPC   D2A28564  32.029  37.051   8.344
 2070POPC   C3A28565  32.281  37.140   8.003
 2070POPC   C4A28566  32.121  37.058   7.574
 2070POPC   C1B28567  32.378  36.536   8.710
 2070POPC   C2B28568  32.403  36.709   8.289
 2070POPC   C3B28569  32.183  36.651   7.885
 2070POPC   C4B28570  32.189  36.569   7.383
 2071POPC   NC328571  31.799  19.326   9.551
 2071POPC   PO428572  31.831  18.636   9.528
 2071POPC   GL128573  31.568  18.920   9.286
 2071POPC   GL228574  31.238  18.844   9.207
 2071POPC   C1A28575  31.607  19.188   8.932
 2071POPC   D2A28576  31.497  19.210   8.506
 2071POPC   C3A28577  31.662  19.237   8.093
 2071POPC   C4A28578  31.401  19.200   7.714
 2071POPC   C1B28579  31.365  18.741   8.794
 2071POPC   C2B28580  31.247  18.747   8.374
 2071POPC   C3B28581  31.451  18.751   7.986
 2071POPC   C4B28582  31.306  18.708   7.569
 2072POPC   NC328583   1.142  27.570   9.535
 2072POPC   PO428584   1.824  27.444   9.387
 2072POPC   GL128585   1.456  27.483   9.121
 2072POPC   GL228586   1.142  27.726   9.071
 2072POPC   C1A28587   1.207  27.259   8.831
 2072POPC   D2A28588   1.067  27.387   8.450
 2072POPC   C3A28589   1.322  27.360   8.074
 2072POPC   C4A28590   1.308  27.678   7.763
 2072POPC   C1B28591   1.354  27.840   8.739
 2072POPC   C2B28592   1.076  27.898   8.429
 2072POPC   C3B28593   0.914  27.731   8.086
 2072POPC   C4B28594   0.777  27.983   7.765
 2073POPC   NC328595  19.371  27.794   9.370
 2073POPC   PO428596  18.903  27.485   9.610
 2073POPC   GL128597  18.887  27.492   9.199
 2073POPC   GL228598  19.182  27.313   9.118
 2073POPC   C1A28599  18.941  27.610   8.773
 2073POPC   D2A28600  19.110  27.590   8.375
 2073POPC   C3A28601  18.863  27.618   7.998
 2073POPC   C4A28602  18.856  27.787   7.586
 2073POPC   C1B28603  19.440  27.458   8.768
 2073POPC   C2B28604  19.553  27.322   8.358
 2073POPC   C3B28605  19.383  27.488   7.970
 2073POPC   C4B28606  19.315  27.560   7.546
 2074POPC   NC328607   9.335  12.262   9.358
 2074POPC   PO428608   9.904  12.681   9.466
 2074POPC   GL128609   9.921  12.805   9.069
 2074POPC   GL228610   9.594  12.936   8.976
 2074POPC   C1A28611  10.027  12.931   8.678
 2074POPC   D2A28612   9.788  12.893   8.297
 2074POPC   C3A28613   9.981  12.841   7.916
 2074POPC   C4A28614  10.014  13.125   7.580
 2074POPC   C1B28615   9.330  12.629   8.742
 2074POPC   C2B28616   9.413  12.496   8.325
 2074POPC   C3B28617   9.453  12.610   7.913
 2074POPC   C4B28618   9.639  12.773   7.549
 2075POPC   NC328619   6.496  40.283   9.400
 2075POPC   PO428620   6.141  40.849   9.559
 2075POPC   GL128621   6.260  41.014   9.128
 2075POPC   GL228622   6.488  40.706   9.092
 2075POPC   C1A28623   6.489  41.038   8.715
 2075POPC   D2A28624   6.525  40.864   8.333
 2075POPC   C3A28625   6.833  40.842   8.078
 2075POPC   C4A28626   6.655  40.961   7.740
 2075POPC   C1B28627   6.482  40.420   8.739
 2075POPC   C2B28628   6.680  40.373   8.339
 2075POPC   C3B28629   6.515  40.434   7.962
 2075POPC   C4B28630   6.247  40.233   7.669
 2076POPC   NC328631  44.842  37.972   9.498
 2076POPC   PO428632  44.535  37.544   9.844
 2076POPC   GL128633  44.551  37.628   9.277
 2076POPC   GL228634  44.376  37.909   9.167
 2076POPC   C1A28635  44.516  37.515   8.816
 2076POPC   D2A28636  44.863  37.600   8.497
 2076POPC   C3A28637  44.785  37.809   8.078
 2076POPC   C4A28638  44.513  37.712   7.755
 2076POPC   C1B28639  44.695  37.974   8.855
 2076POPC   C2B28640  44.518  37.982   8.482
 2076POPC   C3B28641  44.306  38.085   8.133
 2076POPC   C4B28642  44.501  38.262   7.768
 2077POPC   NC328643   2.617  12.498   9.616
 2077POPC   PO428644   3.118  12.955   9.459
 2077POPC   GL128645   2.881  12.983   9.114
 2077POPC   GL228646   2.678  12.709   9.138
 2077POPC   C1A28647   2.820  13.134   8.736
 2077POPC   D2A28648   2.695  13.049   8.347
 2077POPC   C3A28649   2.840  12.786   8.042
 2077POPC   C4A28650   2.618  13.021   7.774
 2077POPC   C1B28651   2.468  12.735   8.709
 2077POPC   C2B28652   2.268  12.791   8.268
 2077POPC   C3B28653   2.384  12.572   7.878
 2077POPC   C4B28654   2.712  12.585   7.532
 2078POPC   NC328655  32.413  34.089   9.488
 2078POPC   PO428656  32.429  33.450   9.723
 2078POPC   GL128657  32.202  33.507   9.281
 2078POPC   GL228658  32.179  33.866   9.111
 2078POPC   C1A28659  32.214  33.483   8.799
 2078POPC   D2A28660  32.172  33.793   8.469
 2078POPC   C3A28661  32.292  33.630   8.102
 2078POPC   C4A28662  32.168  33.579   7.705
 2078POPC   C1B28663  32.404  34.112   8.779
 2078POPC   C2B28664  32.412  34.249   8.334
 2078POPC   C3B28665  32.623  34.044   8.003
 2078POPC   C4B28666  32.372  34.029   7.642
 2079POPC   NC328667  29.851  24.983   9.642
 2079POPC   PO428668  30.400  25.273   9.504
 2079POPC   GL128669  30.001  25.271   9.192
 2079POPC   GL228670  29.626  25.082   9.214
 2079POPC   C1A28671  30.042  25.541   8.817
 2079POPC   D2A28672  30.236  25.511   8.428
 2079POPC   C3A28673  30.003  25.504   8.057
 2079POPC   C4A28674  29.994  25.726   7.692
 2079POPC   C1B28675  29.586  25.315   8.856
 2079POPC   C2B28676  29.754  25.282   8.465
 2079POPC   C3B28677  29.578  25.244   8.081
 2079POPC   C4B28678  29.747  25.174   7.695
 2080POPC   NC328679   2.053   1.532   9.535
 2080POPC   PO428680   2.500   0.929   9.440
 2080POPC   GL128681   2.171   1.162   9.194
 2080POPC   GL228682   2.311   1.463   9.074
 2080POPC   C1A28683   1.869   1.142   8.834
 2080POPC   D2A28684   2.031   1.034   8.410
 2080POPC   C3A28685   1.837   1.144   8.013
 2080POPC   C4A28686   1.536   1.065   7.691
 2080POPC   C1B28687   2.219   1.464   8.667
 2080POPC   C2B28688   2.379   1.403   8.289
 2080POPC   C3B28689   2.191   1.485   7.929
 2080POPC   C4B28690   2.222   1.257   7.572
 2081POPC   NC328691  32.259  18.522   9.347
 2081POPC   PO428692  32.342  19.257   9.519
 2081POPC   GL128693  32.109  19.337   9.141
 2081POPC   GL228694  32.063  18.982   9.164
 2081POPC   C1A28695  32.007  19.394   8.694
 2081POPC   D2A28696  32.193  19.242   8.310
 2081POPC   C3A28697  32.122  19.346   7.876
 2081POPC   C4A28698  32.371  19.038   7.702
 2081POPC   C1B28699  31.866  18.761   8.851
 2081POPC   C2B28700  31.880  18.871   8.441
 2081POPC   C3B28701  31.988  18.832   8.020
 2081POPC   C4B28702  31.854  18.995   7.643
 2082POPC   NC328703  24.074  37.065   9.606
 2082POPC   PO428704  24.716  37.198   9.594
 2082POPC   GL128705  24.597  36.977   9.210
 2082POPC   GL228706  24.250  36.946   9.137
 2082POPC   C1A28707  24.695  37.040   8.759
 2082POPC   D2A28708  24.862  36.992   8.318
 2082POPC   C3A28709  24.549  36.965   7.960
 2082POPC   C4A28710  24.529  36.681   7.587
 2082POPC   C1B28711  24.273  36.759   8.722
 2082POPC   C2B28712  24.115  36.881   8.321
 2082POPC   C3B28713  24.144  36.618   7.976
 2082POPC   C4B28714  24.023  36.590   7.539
 2083POPC   NC328715  14.403   1.733   9.602
 2083POPC   PO428716  14.320   2.313   9.490
 2083POPC   GL128717  14.200   1.990   9.175
 2083POPC   GL228718  14.464   1.803   9.100
 2083POPC   C1A28719  14.162   1.977   8.740
 2083POPC   D2A28720  14.418   2.072   8.389
 2083POPC   C3A28721  14.201   1.952   8.028
 2083POPC   C4A28722  14.375   2.053   7.657
 2083POPC   C1B28723  14.741   1.637   8.795
 2083POPC   C2B28724  14.849   1.790   8.406
 2083POPC   C3B28725  14.760   1.902   7.999
 2083POPC   C4B28726  14.776   1.756   7.575
 2084POPC   NC328727  25.662  15.160   9.551
 2084POPC   PO428728  26.366  15.289   9.476
 2084POPC   GL128729  26.097  15.049   9.174
 2084POPC   GL228730  25.882  15.304   9.110
 2084POPC   C1A28731  25.921  15.009   8.729
 2084POPC   D2A28732  26.041  15.199   8.351
 2084POPC   C3A28733  26.280  14.991   8.057
 2084POPC   C4A28734  26.015  14.920   7.718
 2084POPC   C1B28735  25.910  15.522   8.720
 2084POPC   C2B28736  25.662  15.561   8.332
 2084POPC   C3B28737  25.784  15.355   7.932
 2084POPC   C4B28738  26.167  15.371   7.652
 2085POPC   NC328739   3.500  13.240   9.468
 2085POPC   PO428740   3.062  13.698   9.322
 2085POPC   GL128741   3.313  13.453   9.031
 2085POPC   GL228742   3.605  13.653   9.136
 2085POPC   C1A28743   3.670  13.332   8.735
 2085POPC   D2A28744   3.884  13.462   8.320
 2085POPC   C3A28745   3.612  13.624   7.980
 2085POPC   C4A28746   3.595  13.530   7.516
 2085POPC   C1B28747   3.890  13.827   8.812
 2085POPC   C2B28748   3.785  13.960   8.407
 2085POPC   C3B28749   3.685  14.138   8.034
 2085POPC   C4B28750   3.591  14.029   7.645
 2086POPC   NC328751   5.166  39.597   9.738
 2086POPC   PO428752   5.299  40.208   9.547
 2086POPC   GL128753   5.128  40.055   9.202
 2086POPC   GL228754   4.845  39.822   9.330
 2086POPC   C1A28755   5.292  40.095   8.783
 2086POPC   D2A28756   5.216  39.872   8.401
 2086POPC   C3A28757   5.186  40.175   8.057
 2086POPC   C4A28758   5.232  40.126   7.618
 2086POPC   C1B28759   4.903  39.746   8.867
 2086POPC   C2B28760   4.842  39.473   8.519
 2086POPC   C3B28761   4.968  39.502   8.095
 2086POPC   C4B28762   4.861  39.834   7.819
 2087POPC   NC328763  14.340  33.504   9.647
 2087POPC   PO428764  14.575  34.147   9.568
 2087POPC   GL128765  14.444  33.921   9.215
 2087POPC   GL228766  14.527  33.584   9.183
 2087POPC   C1A28767  14.334  34.044   8.792
 2087POPC   D2A28768  14.309  34.131   8.333
 2087POPC   C3A28769  14.113  33.877   7.996
 2087POPC   C4A28770  13.933  34.204   7.738
 2087POPC   C1B28771  14.686  33.254   8.898
 2087POPC   C2B28772  14.823  33.228   8.476
 2087POPC   C3B28773  14.851  33.562   8.183
 2087POPC   C4B28774  14.613  33.577   7.819
 2088POPC   NC328775  35.925  14.743   9.686
 2088POPC   PO428776  36.101  15.365   9.416
 2088POPC   GL128777  36.074  15.180   9.022
 2088POPC   GL228778  36.396  15.395   8.992
 2088POPC   C1A28779  35.830  15.269   8.655
 2088POPC   D2A28780  35.931  15.478   8.271
 2088POPC   C3A28781  35.849  15.208   7.925
 2088POPC   C4A28782  35.824  15.248   7.483
 2088POPC   C1B28783  36.335  15.250   8.569
 2088POPC   C2B28784  36.146  15.010   8.278
 2088POPC   C3B28785  36.288  14.957   7.834
 2088POPC   C4B28786  36.290  15.077   7.382
 2089POPC   NC328787  26.017   9.088   9.599
 2089POPC   PO428788  26.586   8.744   9.456
 2089POPC   GL128789  26.279   8.970   9.184
 2089POPC   GL228790  25.915   8.856   9.163
 2089POPC   C1A28791  26.199   9.277   8.854
 2089POPC   D2A28792  26.431   9.145   8.506
 2089POPC   C3A28793  26.418   9.177   8.075
 2089POPC   C4A28794  26.097   9.123   7.777
 2089POPC   C1B28795  25.982   8.833   8.721
 2089POPC   C2B28796  25.868   8.920   8.267
 2089POPC   C3B28797  25.848   8.697   7.851
 2089POPC   C4B28798  25.683   8.830   7.406
 2090POPC   NC328799  23.011  14.893   9.405
 2090POPC   PO428800  22.957  15.543   9.624
 2090POPC   GL128801  23.125  15.377   9.231
 2090POPC   GL228802  22.810  15.276   9.142
 2090POPC   C1A28803  23.168  15.189   8.786
 2090POPC   D2A28804  22.962  15.255   8.385
 2090POPC   C3A28805  23.069  14.987   8.063
 2090POPC   C4A28806  23.355  15.187   7.800
 2090POPC   C1B28807  22.622  15.216   8.753
 2090POPC   C2B28808  22.429  15.191   8.347
 2090POPC   C3B28809  22.580  15.089   7.936
 2090POPC   C4B28810  22.900  15.156   7.615
 2091POPC   NC328811  19.436  44.901   9.554
 2091POPC   PO428812  18.792  44.714   9.855
 2091POPC   GL128813  18.955  44.689   9.364
 2091POPC   GL228814  19.228  44.483   9.159
 2091POPC   C1A28815  19.014  44.869   8.925
 2091POPC   D2A28816  19.195  44.781   8.499
 2091POPC   C3A28817  19.036  44.811   8.072
 2091POPC   C4A28818  18.908   0.141   7.786
 2091POPC   C1B28819  18.936  44.379   8.794
 2091POPC   C2B28820  18.817  44.399   8.332
 2091POPC   C3B28821  19.089  44.313   7.943
 2091POPC   C4B28822  19.034  44.266   7.456
 2092POPC   NC328823  17.256   2.310   9.408
 2092POPC   PO428824  17.675   1.834   9.583
 2092POPC   GL128825  17.459   1.818   9.203
 2092POPC   GL228826  17.769   1.759   9.068
 2092POPC   C1A28827  17.364   2.010   8.797
 2092POPC   D2A28828  17.552   2.281   8.448
 2092POPC   C3A28829  17.507   2.106   8.022
 2092POPC   C4A28830  17.578   2.213   7.590
 2092POPC   C1B28831  17.892   2.015   8.748
 2092POPC   C2B28832  18.038   1.803   8.414
 2092POPC   C3B28833  17.902   1.757   8.028
 2092POPC   C4B28834  17.747   1.756   7.648
 2093POPC   NC328835  16.378  42.948   9.506
 2093POPC   PO428836  15.827  43.252   9.722
 2093POPC   GL128837  15.896  43.001   9.314
 2093POPC   GL228838  16.133  43.161   9.113
 2093POPC   C1A28839  15.665  42.955   8.902
 2093POPC   D2A28840  15.648  43.164   8.502
 2093POPC   C3A28841  15.897  42.919   8.206
 2093POPC   C4A28842  16.007  42.891   7.785
 2093POPC   C1B28843  16.149  43.018   8.691
 2093POPC   C2B28844  16.204  43.307   8.340
 2093POPC   C3B28845  16.396  43.248   7.947
 2093POPC   C4B28846  16.281  43.247   7.508
 2094POPC   NC328847  19.437  28.788   9.454
 2094POPC   PO428848  20.030  29.081   9.528
 2094POPC   GL128849  19.901  28.949   9.126
 2094POPC   GL228850  19.945  29.283   9.041
 2094POPC   C1A28851  20.062  28.892   8.676
 2094POPC   D2A28852  19.895  29.054   8.270
 2094POPC   C3A28853  19.896  28.853   7.838
 2094POPC   C4A28854  20.017  28.757   7.415
 2094POPC   C1B28855  19.623  29.163   8.720
 2094POPC   C2B28856  19.492  29.350   8.313
 2094POPC   C3B28857  19.611  29.279   7.884
 2094POPC   C4B28858  19.993  29.466   7.704
 2095POPC   NC328859  37.276  36.129   9.791
 2095POPC   PO428860  37.874  36.069   9.485
 2095POPC   GL128861  37.737  36.073   9.091
 2095POPC   GL228862  37.436  36.207   9.169
 2095POPC   C1A28863  37.493  35.901   8.746
 2095POPC   D2A28864  37.517  36.090   8.372
 2095POPC   C3A28865  37.713  35.910   8.043
 2095POPC   C4A28866  37.478  35.670   7.770
 2095POPC   C1B28867  37.505  36.438   8.789
 2095POPC   C2B28868  37.404  36.586   8.395
 2095POPC   C3B28869  37.604  36.446   8.019
 2095POPC   C4B28870  37.862  36.288   7.711
 2096POPC   NC328871  42.387  31.748   9.789
 2096POPC   PO428872  42.619  31.138   9.585
 2096POPC   GL128873  42.340  31.417   9.375
 2096POPC   GL228874  42.489  31.724   9.224
 2096POPC   C1A28875  42.156  31.376   8.981
 2096POPC   D2A28876  42.265  31.450   8.555
 2096POPC   C3A28877  42.178  31.163   8.162
 2096POPC   C4A28878  42.203  31.338   7.736
 2096POPC   C1B28879  42.727  31.731   8.792
 2096POPC   C2B28880  42.552  31.857   8.411
 2096POPC   C3B28881  42.296  31.689   8.110
 2096POPC   C4B28882  42.543  31.720   7.781
 2097POPC   NC328883  30.423  18.792   9.433
 2097POPC   PO428884  30.001  18.187   9.459
 2097POPC   GL128885  30.215  18.377   9.116
 2097POPC   GL228886  30.282  18.037   8.993
 2097POPC   C1A28887  30.107  18.387   8.669
 2097POPC   D2A28888  29.936  18.157   8.321
 2097POPC   C3A28889  29.978  18.356   7.949
 2097POPC   C4A28890  29.634  18.359   7.693
 2097POPC   C1B28891  30.026  17.831   8.705
 2097POPC   C2B28892  30.131  17.679   8.305
 2097POPC   C3B28893  29.968  17.818   7.913
 2097POPC   C4B28894  30.197  18.078   7.593
 2098POPC   NC328895  29.391  14.868   9.549
 2098POPC   PO428896  29.756  15.390   9.617
 2098POPC   GL128897  29.849  15.204   9.222
 2098POPC   GL228898  29.644  14.973   9.109
 2098POPC   C1A28899  29.739  15.383   8.822
 2098POPC   D2A28900  29.804  15.546   8.429
 2098POPC   C3A28901  29.829  15.232   8.141
 2098POPC   C4A28902  29.884  15.497   7.834
 2098POPC   C1B28903  29.802  14.837   8.705
 2098POPC   C2B28904  29.687  14.601   8.327
 2098POPC   C3B28905  29.648  14.779   7.915
 2098POPC   C4B28906  29.574  15.139   7.691
 2099POPC   NC328907  14.791  10.500   9.610
 2099POPC   PO428908  15.357  10.753   9.889
 2099POPC   GL128909  15.262  10.645   9.405
 2099POPC   GL228910  14.999  10.806   9.247
 2099POPC   C1A28911  15.218  10.422   8.939
 2099POPC   D2A28912  15.413  10.517   8.506
 2099POPC   C3A28913  15.182  10.503   8.103
 2099POPC   C4A28914  14.867  10.386   7.786
 2099POPC   C1B28915  15.159  10.909   8.830
 2099POPC   C2B28916  15.010  10.827   8.473
 2099POPC   C3B28917  14.987  11.072   8.164
 2099POPC   C4B28918  14.991  10.868   7.793
 2100POPC   NC328919   0.292  28.084   9.648
 2100POPC   PO428920   0.627  28.668   9.572
 2100POPC   GL128921   0.453  28.398   9.221
 2100POPC   GL228922   0.786  28.262   9.163
 2100POPC   C1A28923   0.474  28.188   8.781
 2100POPC   D2A28924   0.720  28.276   8.420
 2100POPC   C3A28925   0.449  28.273   8.061
 2100POPC   C4A28926   0.302  28.086   7.667
 2100POPC   C1B28927   0.774  28.651   8.855
 2100POPC   C2B28928   0.923  28.768   8.429
 2100POPC   C3B28929   0.997  28.530   8.063
 2100POPC   C4B28930   0.733  28.517   7.697
 2101POPC   NC328931  27.209  42.590   9.423
 2101POPC   PO428932  27.856  42.658   9.382
 2101POPC   GL128933  27.590  42.484   9.075
 2101POPC   GL228934  27.431  42.171   9.152
 2101POPC   C1A28935  27.486  42.449   8.639
 2101POPC   D2A28936  27.433  42.598   8.213
 2101POPC   C3A28937  27.811  42.510   7.985
 2101POPC   C4A28938  27.885  42.274   7.616
 2101POPC   C1B28939  27.101  42.163   8.817
 2101POPC   C2B28940  26.974  42.241   8.418
 2101POPC   C3B28941  27.128  42.130   8.046
 2101POPC   C4B28942  27.378  42.318   7.765
 2102POPC   NC328943  15.215  26.560   9.402
 2102POPC   PO428944  14.815  27.087   9.462
 2102POPC   GL128945  15.014  26.872   9.078
 2102POPC   GL228946  14.927  26.520   8.989
 2102POPC   C1A28947  15.277  26.857   8.694
 2102POPC   D2A28948  15.413  27.120   8.326
 2102POPC   C3A28949  15.390  26.940   7.905
 2102POPC   C4A28950  14.971  26.837   7.780
 2102POPC   C1B28951  14.837  26.580   8.555
 2102POPC   C2B28952  15.128  26.644   8.236
 2102POPC   C3B28953  15.242  26.424   7.856
 2102POPC   C4B28954  15.081  26.471   7.411
 2103POPC   NC328955  23.530   3.345   9.388
 2103POPC   PO428956  23.973   3.739   9.702
 2103POPC   GL128957  23.848   3.713   9.237
 2103POPC   GL228958  23.881   3.366   9.015
 2103POPC   C1A28959  23.617   3.756   8.832
 2103POPC   D2A28960  23.678   3.510   8.492
 2103POPC   C3A28961  23.607   3.640   8.079
 2103POPC   C4A28962  23.618   3.350   7.693
 2103POPC   C1B28963  24.140   3.670   8.811
 2103POPC   C2B28964  24.109   3.859   8.429
 2103POPC   C3B28965  24.109   3.713   8.028
 2103POPC   C4B28966  23.897   3.762   7.665
 2104POPC   NC328967  15.847  18.973   9.467
 2104POPC   PO428968  15.282  18.532   9.535
 2104POPC   GL128969  15.627  18.681   9.112
 2104POPC   GL228970  16.045  18.793   9.058
 2104POPC   C1A28971  15.768  18.805   8.650
 2104POPC   D2A28972  15.900  19.183   8.359
 2104POPC   C3A28973  15.911  19.052   7.914
 2104POPC   C4A28974  15.903  18.664   7.768
 2104POPC   C1B28975  16.285  18.820   8.690
 2104POPC   C2B28976  16.243  18.802   8.221
 2104POPC   C3B28977  16.398  18.839   7.799
 2104POPC   C4B28978  16.265  18.750   7.372
 2105POPC   NC328979  28.723  18.662   9.502
 2105POPC   PO428980  28.092  18.296   9.411
 2105POPC   GL128981  28.480  18.206   9.191
 2105POPC   GL228982  28.684  18.442   9.058
 2105POPC   C1A28983  28.592  17.979   8.816
 2105POPC   D2A28984  28.362  17.892   8.402
 2105POPC   C3A28985  28.462  18.127   8.001
 2105POPC   C4A28986  28.229  18.418   7.685
 2105POPC   C1B28987  28.429  18.448   8.701
 2105POPC   C2B28988  28.134  18.444   8.379
 2105POPC   C3B28989  28.416  18.619   8.111
 2105POPC   C4B28990  28.728  18.565   7.833
 2106POPC   NC328991  29.290  21.614   9.534
 2106POPC   PO428992  29.133  22.302   9.503
 2106POPC   GL128993  29.052  22.249   9.124
 2106POPC   GL228994  28.990  21.899   9.104
 2106POPC   C1A28995  29.160  22.498   8.782
 2106POPC   D2A28996  29.351  22.365   8.429
 2106POPC   C3A28997  29.426  22.619   8.086
 2106POPC   C4A28998  29.253  22.474   7.713
 2106POPC   C1B28999  29.404  22.007   8.836
 2106POPC   C2B29000  29.579  21.914   8.369
 2106POPC   C3B29001  29.522  21.954   7.881
 2106POPC   C4B29002  29.591  21.709   7.447
 2107POPC   NC329003  36.288  38.030   9.811
 2107POPC   PO429004  36.033  38.503   9.511
 2107POPC   GL129005  35.935  38.454   9.108
 2107POPC   GL229006  35.636  38.261   9.067
 2107POPC   C1A29007  36.220  38.548   8.789
 2107POPC   D2A29008  36.439  38.536   8.425
 2107POPC   C3A29009  36.286  38.537   8.025
 2107POPC   C4A29010  36.450  38.437   7.602
 2107POPC   C1B29011  35.812  38.242   8.663
 2107POPC   C2B29012  35.884  38.558   8.394
 2107POPC   C3B29013  35.755  38.540   8.003
 2107POPC   C4B29014  35.969  38.347   7.678
 2108POPC   NC329015  36.155  37.208   9.518
 2108POPC   PO429016  36.333  36.625   9.437
 2108POPC   GL129017  36.121  36.817   9.118
 2108POPC   GL229018  35.905  37.096   9.078
 2108POPC   C1A29019  36.244  36.948   8.734
 2108POPC   D2A29020  36.319  36.716   8.370
 2108POPC   C3A29021  36.276  36.982   8.043
 2108POPC   C4A29022  36.343  36.781   7.702
 2108POPC   C1B29023  35.751  36.797   8.756
 2108POPC   C2B29024  35.826  36.901   8.340
 2108POPC   C3B29025  35.814  36.766   7.929
 2108POPC   C4B29026  35.836  36.922   7.502
 2109POPC   NC329027  29.603  12.491   9.448
 2109POPC   PO429028  30.302  12.394   9.380
 2109POPC   GL129029  29.986  12.279   9.118
 2109POPC   GL229030  29.798  11.986   9.167
 2109POPC   C1A29031  29.829  12.368   8.739
 2109POPC   D2A29032  29.937  12.525   8.360
 2109POPC   C3A29033  29.711  12.394   8.007
 2109POPC   C4A29034  29.806  12.270   7.603
 2109POPC   C1B29035  29.782  11.877   8.718
 2109POPC   C2B29036  29.906  11.977   8.280
 2109POPC   C3B29037  29.604  11.913   7.929
 2109POPC   C4B29038  29.596  11.805   7.497
 2110POPC   NC329039  14.664  34.795   9.465
 2110POPC   PO429040  15.237  34.418   9.593
 2110POPC   GL129041  15.031  34.477   9.198
 2110POPC   GL229042  14.919  34.140   9.123
 2110POPC   C1A29043  15.142  34.704   8.809
 2110POPC   D2A29044  14.980  34.878   8.435
 2110POPC   C3A29045  15.147  34.797   8.047
 2110POPC   C4A29046  15.225  34.699   7.622
 2110POPC   C1B29047  15.176  34.179   8.767
 2110POPC   C2B29048  15.157  34.369   8.354
 2110POPC   C3B29049  15.242  34.279   7.915
 2110POPC   C4B29050  15.566  34.334   7.596
 2111POPC   NC329051   5.080   6.390   9.525
 2111POPC   PO429052   5.012   6.991   9.757
 2111POPC   GL129053   5.094   6.786   9.208
 2111POPC   GL229054   5.152   6.420   9.032
 2111POPC   C1A29055   4.830   6.637   8.755
 2111POPC   D2A29056   5.014   6.506   8.341
 2111POPC   C3A29057   4.802   6.659   7.969
 2111POPC   C4A29058   4.771   6.875   7.575
 2111POPC   C1B29059   5.359   6.677   8.704
 2111POPC   C2B29060   5.531   6.543   8.288
 2111POPC   C3B29061   5.346   6.552   7.910
 2111POPC   C4B29062   5.133   6.534   7.549
 2112POPC   NC329063  29.797  43.941   9.596
 2112POPC   PO429064  30.415  44.070   9.750
 2112POPC   GL129065  30.068  44.245   9.324
 2112POPC   GL229066  29.974  43.852   9.148
 2112POPC   C1A29067  29.983  44.212   8.804
 2112POPC   D2A29068  29.682  44.248   8.424
 2112POPC   C3A29069  29.788  44.066   8.032
 2112POPC   C4A29070  30.178  44.074   7.824
 2112POPC   C1B29071  30.051  43.691   8.732
 2112POPC   C2B29072  30.134  43.856   8.347
 2112POPC   C3B29073  30.047  43.626   7.988
 2112POPC   C4B29074  29.686  43.521   7.789
 2113POPC   NC329075  10.976  21.665   9.750
 2113POPC   PO429076  11.555  21.386   9.527
 2113POPC   GL129077  11.289  21.469   9.187
 2113POPC   GL229078  11.151  21.806   9.242
 2113POPC   C1A29079  11.220  21.227   8.803
 2113POPC   D2A29080  10.979  21.264   8.441
 2113POPC   C3A29081  11.241  21.274   8.108
 2113POPC   C4A29082  11.397  21.274   7.700
 2113POPC   C1B29083  11.279  21.767   8.772
 2113POPC   C2B29084  11.324  21.750   8.316
 2113POPC   C3B29085  11.307  21.744   7.870
 2113POPC   C4B29086  11.103  21.633   7.506
 2114POPC   NC329087   9.451  40.597   9.364
 2114POPC   PO429088   8.969  41.001   9.416
 2114POPC   GL129089   8.939  40.732   9.094
 2114POPC   GL229090   8.668  40.501   9.165
 2114POPC   C1A29091   9.223  40.738   8.745
 2114POPC   D2A29092   9.209  41.044   8.418
 2114POPC   C3A29093   9.031  40.858   8.038
 2114POPC   C4A29094   9.089  40.924   7.564
 2114POPC   C1B29095   8.824  40.328   8.785
 2114POPC   C2B29096   8.930  40.485   8.408
 2114POPC   C3B29097   8.739  40.436   8.053
 2114POPC   C4B29098   8.910  40.448   7.649
 2115POPC   NC329099  10.945   5.930   9.467
 2115POPC   PO429100  11.380   5.408   9.584
 2115POPC   GL129101  11.350   5.685   9.240
 2115POPC   GL229102  11.518   5.957   9.181
 2115POPC   C1A29103  11.182   5.726   8.834
 2115POPC   D2A29104  11.332   5.682   8.416
 2115POPC   C3A29105  11.109   5.699   8.054
 2115POPC   C4A29106  11.015   5.544   7.680
 2115POPC   C1B29107  11.679   5.933   8.749
 2115POPC   C2B29108  11.609   6.097   8.331
 2115POPC   C3B29109  11.601   5.870   7.978
 2115POPC   C4B29110  11.577   6.047   7.587
 2116POPC   NC329111  20.667   6.315   9.480
 2116POPC   PO429112  20.289   5.727   9.472
 2116POPC   GL129113  20.624   5.838   9.139
 2116POPC   GL229114  20.821   6.161   9.023
 2116POPC   C1A29115  20.575   5.715   8.706
 2116POPC   D2A29116  20.322   5.520   8.385
 2116POPC   C3A29117  20.300   5.792   8.064
 2116POPC   C4A29118  20.590   5.835   7.758
 2116POPC   C1B29119  20.970   6.027   8.632
 2116POPC   C2B29120  20.818   5.953   8.221
 2116POPC   C3B29121  21.076   5.824   7.866
 2116POPC   C4B29122  21.013   5.945   7.434
 2117POPC   NC329123  20.840   7.488   9.451
 2117POPC   PO429124  20.205   7.412   9.543
 2117POPC   GL129125  20.433   7.184   9.205
 2117POPC   GL229126  20.806   7.196   9.042
 2117POPC   C1A29127  20.401   7.024   8.790
 2117POPC   D2A29128  20.645   7.097   8.428
 2117POPC   C3A29129  20.532   7.391   8.125
 2117POPC   C4A29130  20.201   7.432   7.833
 2117POPC   C1B29131  21.095   7.226   8.663
 2117POPC   C2B29132  21.114   7.093   8.221
 2117POPC   C3B29133  20.906   7.187   7.828
 2117POPC   C4B29134  21.004   7.406   7.437
 2118POPC   NC329135  44.030   2.921   9.668
 2118POPC   PO429136  44.676   2.672   9.646
 2118POPC   GL129137  44.865   2.708   9.220
 2118POPC   GL229138  44.546   2.651   9.080
 2118POPC   C1A29139  44.889   2.924   8.799
 2118POPC   D2A29140  44.714   2.910   8.380
 2118POPC   C3A29141  44.822   3.136   8.004
 2118POPC   C4A29142  44.830   2.883   7.614
 2118POPC   C1B29143  44.295   2.697   8.704
 2118POPC   C2B29144  44.216   2.775   8.282
 2118POPC   C3B29145  44.457   2.775   7.941
 2118POPC   C4B29146  44.571   2.397   7.732
 2119POPC   NC329147   5.615  22.712   9.553
 2119POPC   PO429148   5.908  22.052   9.510
 2119POPC   GL129149   5.780  22.346   9.217
 2119POPC   GL229150   6.091  22.261   9.039
 2119POPC   C1A29151   5.648  22.344   8.784
 2119POPC   D2A29152   5.912  22.173   8.452
 2119POPC   C3A29153   5.823  22.164   8.009
 2119POPC   C4A29154   6.011  22.189   7.565
 2119POPC   C1B29155   5.817  21.887   8.888
 2119POPC   C2B29156   5.703  21.712   8.497
 2119POPC   C3B29157   5.846  21.589   8.113
 2119POPC   C4B29158   5.818  21.757   7.682
 2120POPC   NC329159  41.605   4.565   9.626
 2120POPC   PO429160  41.619   3.929   9.518
 2120POPC   GL129161  41.541   4.132   9.144
 2120POPC   GL229162  41.759   4.436   9.153
 2120POPC   C1A29163  41.365   4.383   8.808
 2120POPC   D2A29164  41.471   4.361   8.372
 2120POPC   C3A29165  41.301   4.428   7.951
 2120POPC   C4A29166  41.331   4.003   7.863
 2120POPC   C1B29167  41.828   4.584   8.733
 2120POPC   C2B29168  41.965   4.501   8.333
 2120POPC   C3B29169  41.813   4.336   7.963
 2120POPC   C4B29170  41.814   4.571   7.614
 2121POPC   NC329171   9.757  41.922   9.631
 2121POPC   PO429172   9.445  41.322   9.785
 2121POPC   GL129173   9.425  41.471   9.319
 2121POPC   GL229174   9.751  41.637   9.195
 2121POPC   C1A29175   9.382  41.390   8.836
 2121POPC   D2A29176   9.614  41.372   8.416
 2121POPC   C3A29177   9.600  41.736   8.124
 2121POPC   C4A29178   9.595  41.598   7.705
 2121POPC   C1B29179   9.958  41.467   8.816
 2121POPC   C2B29180  10.069  41.637   8.404
 2121POPC   C3B29181  10.021  41.461   7.999
 2121POPC   C4B29182  10.049  41.758   7.662
 2122POPC   NC329183  36.550  17.471   9.453
 2122POPC   PO429184  36.100  17.069   9.679
 2122POPC   GL129185  36.068  17.346   9.180
 2122POPC   GL229186  36.219  17.639   9.111
 2122POPC   C1A29187  36.133  17.328   8.699
 2122POPC   D2A29188  36.407  17.176   8.324
 2122POPC   C3A29189  36.262  17.193   7.871
 2122POPC   C4A29190  35.967  17.361   7.561
 2122POPC   C1B29191  36.188  17.846   8.701
 2122POPC   C2B29192  36.226  17.708   8.327
 2122POPC   C3B29193  36.024  17.627   7.988
 2122POPC   C4B29194  35.940  17.861   7.620
 2123POPC   NC329195  25.316  27.467   9.475
 2123POPC   PO429196  25.461  28.067   9.715
 2123POPC   GL129197  25.485  27.913   9.252
 2123POPC   GL229198  25.155  27.884   9.129
 2123POPC   C1A29199  25.486  27.695   8.809
 2123POPC   D2A29200  25.240  27.755   8.421
 2123POPC   C3A29201  25.364  27.834   7.958
 2123POPC   C4A29202  25.133  27.906   7.558
 2123POPC   C1B29203  25.002  27.531   8.845
 2123POPC   C2B29204  25.103  27.226   8.503
 2123POPC   C3B29205  25.219  27.363   8.089
 2123POPC   C4B29206  24.920  27.515   7.833
 2124POPC   NC329207   6.066  32.140   9.910
 2124POPC   PO429208   5.589  32.463   9.552
 2124POPC   GL129209   5.759  32.329   9.188
 2124POPC   GL229210   5.450  32.309   9.010
 2124POPC   C1A29211   5.913  32.274   8.765
 2124POPC   D2A29212   5.628  32.227   8.421
 2124POPC   C3A29213   5.714  32.493   8.077
 2124POPC   C4A29214   5.949  32.605   7.726
 2124POPC   C1B29215   5.566  31.885   8.829
 2124POPC   C2B29216   5.480  31.728   8.374
 2124POPC   C3B29217   5.521  31.968   7.968
 2124POPC   C4B29218   5.910  32.112   7.746
 2125POPC   NC329219   5.999  31.079   9.476
 2125POPC   PO429220   5.911  31.685   9.790
 2125POPC   GL129221   5.868  31.529   9.277
 2125POPC   GL229222   5.669  31.214   9.125
 2125POPC   C1A29223   6.109  31.453   8.846
 2125POPC   D2A29224   6.010  31.520   8.378
 2125POPC   C3A29225   6.131  31.260   7.992
 2125POPC   C4A29226   6.285  31.469   7.555
 2125POPC   C1B29227   5.634  31.354   8.715
 2125POPC   C2B29228   5.626  31.188   8.326
 2125POPC   C3B29229   5.652  31.375   7.983
 2125POPC   C4B29230   5.831  31.619   7.701
 2126POPC   NC329231  39.374   8.720   9.523
 2126POPC   PO429232  39.215   9.335   9.413
 2126POPC   GL129233  39.258   8.972   9.076
 2126POPC   GL229234  39.575   8.761   9.063
 2126POPC   C1A29235  39.102   8.890   8.642
 2126POPC   D2A29236  38.923   9.146   8.294
 2126POPC   C3A29237  39.126   9.057   7.911
 2126POPC   C4A29238  39.496   9.124   7.664
 2126POPC   C1B29239  39.660   8.827   8.617
 2126POPC   C2B29240  39.420   8.638   8.281
 2126POPC   C3B29241  39.430   8.644   7.839
 2126POPC   C4B29242  39.492   8.585   7.410
 2127POPC   NC329243  37.345  26.400   9.603
 2127POPC   PO429244  36.918  25.979   9.721
 2127POPC   GL129245  36.924  26.118   9.260
 2127POPC   GL229246  36.670  26.316   9.180
 2127POPC   C1A29247  36.882  26.128   8.760
 2127POPC   D2A29248  36.960  25.982   8.318
 2127POPC   C3A29249  37.207  26.141   7.943
 2127POPC   C4A29250  37.422  25.868   7.612
 2127POPC   C1B29251  36.497  25.877   8.979
 2127POPC   C2B29252  36.606  25.689   8.555
 2127POPC   C3B29253  36.512  25.830   8.118
 2127POPC   C4B29254  36.697  26.180   7.886
 2128POPC   NC329255   4.244   8.858   9.691
 2128POPC   PO429256   4.656   9.259   9.924
 2128POPC   GL129257   4.638   8.941   9.412
 2128POPC   GL229258   4.289   8.774   9.203
 2128POPC   C1A29259   4.662   8.891   8.909
 2128POPC   D2A29260   4.443   9.076   8.559
 2128POPC   C3A29261   4.595   8.934   8.167
 2128POPC   C4A29262   4.413   8.983   7.782
 2128POPC   C1B29263   4.083   8.769   8.779
 2128POPC   C2B29264   4.047   8.834   8.294
 2128POPC   C3B29265   3.922   9.075   7.892
 2128POPC   C4B29266   3.945   8.981   7.417
 2129POPC   NC329267  42.680  30.665   9.472
 2129POPC   PO429268  43.192  31.052   9.472
 2129POPC   GL129269  43.220  30.770   9.139
 2129POPC   GL229270  43.048  30.455   9.183
 2129POPC   C1A29271  43.152  30.910   8.729
 2129POPC   D2A29272  42.955  30.812   8.356
 2129POPC   C3A29273  43.155  30.926   7.973
 2129POPC   C4A29274  43.008  30.797   7.583
 2129POPC   C1B29275  42.939  30.440   8.757
 2129POPC   C2B29276  43.145  30.340   8.374
 2129POPC   C3B29277  43.061  30.399   7.953
 2129POPC   C4B29278  43.291  30.355   7.555
 2130POPC   NC329279  15.332  11.159   9.664
 2130POPC   PO429280  15.111  11.686   9.235
 2130POPC   GL129281  15.286  11.399   9.008
 2130POPC   GL229282  15.399  11.139   9.179
 2130POPC   C1A29283  15.351  11.430   8.599
 2130POPC   D2A29284  15.477  11.774   8.378
 2130POPC   C3A29285  15.328  11.673   7.967
 2130POPC   C4A29286  15.201  11.321   7.753
 2130POPC   C1B29287  15.666  11.101   8.842
 2130POPC   C2B29288  15.556  11.000   8.425
 2130POPC   C3B29289  15.475  10.936   8.013
 2130POPC   C4B29290  15.478  10.865   7.599
 2131POPC   NC329291  21.227  35.744   9.568
 2131POPC   PO429292  21.772  35.414   9.505
 2131POPC   GL129293  21.417  35.474   9.169
 2131POPC   GL229294  21.024  35.441   9.199
 2131POPC   C1A29295  21.356  35.190   8.811
 2131POPC   D2A29296  21.592  35.045   8.430
 2131POPC   C3A29297  21.478  35.192   8.048
 2131POPC   C4A29298  21.287  35.130   7.688
 2131POPC   C1B29299  21.058  35.625   8.783
 2131POPC   C2B29300  21.164  35.525   8.344
 2131POPC   C3B29301  21.195  35.616   7.890
 2131POPC   C4B29302  21.216  35.784   7.482
 2132POPC   NC329303  13.543   8.228   9.710
 2132POPC   PO429304  13.571   8.871   9.389
 2132POPC   GL129305  13.856   8.832   9.049
 2132POPC   GL229306  13.549   8.793   8.872
 2132POPC   C1A29307  13.997   9.020   8.694
 2132POPC   D2A29308  13.638   9.229   8.516
 2132POPC   C3A29309  13.545   9.048   8.136
 2132POPC   C4A29310  13.899   9.087   7.874
 2132POPC   C1B29311  13.376   8.580   8.532
 2132POPC   C2B29312  13.323   8.566   8.113
 2132POPC   C3B29313  13.246   8.833   7.778
 2132POPC   C4B29314  13.201   8.812   7.330
 2133POPC   NC329315   3.746  40.943   9.744
 2133POPC   PO429316   3.402  40.420   9.461
 2133POPC   GL129317   3.542  40.700   9.147
 2133POPC   GL229318   3.843  40.757   9.262
 2133POPC   C1A29319   3.514  40.987   8.786
 2133POPC   D2A29320   3.673  40.870   8.392
 2133POPC   C3A29321   3.444  40.975   8.032
 2133POPC   C4A29322   3.315  40.786   7.698
 2133POPC   C1B29323   4.030  40.891   8.863
 2133POPC   C2B29324   4.173  40.886   8.425
 2133POPC   C3B29325   3.983  41.035   8.012
 2133POPC   C4B29326   3.841  40.848   7.621
 2134POPC   NC329327  11.805  20.254   9.567
 2134POPC   PO429328  12.263  20.818   9.560
 2134POPC   GL129329  12.322  20.736   9.143
 2134POPC   GL229330  11.995  20.573   9.114
 2134POPC   C1A29331  12.200  20.902   8.740
 2134POPC   D2A29332  11.945  20.818   8.380
 2134POPC   C3A29333  12.161  20.904   7.962
 2134POPC   C4A29334  12.384  20.677   7.620
 2134POPC   C1B29335  11.813  20.460   8.704
 2134POPC   C2B29336  11.893  20.308   8.266
 2134POPC   C3B29337  11.963  20.436   7.829
 2134POPC   C4B29338  11.906  20.498   7.360
 2135POPC   NC329339  29.412  13.254   9.595
 2135POPC   PO429340  28.780  13.130   9.340
 2135POPC   GL129341  29.158  13.153   9.160
 2135POPC   GL229342  29.350  12.840   9.182
 2135POPC   C1A29343  29.142  13.048   8.770
 2135POPC   D2A29344  28.921  12.963   8.450
 2135POPC   C3A29345  29.116  13.091   8.110
 2135POPC   C4A29346  28.897  13.067   7.782
 2135POPC   C1B29347  29.394  12.610   8.767
 2135POPC   C2B29348  29.401  12.704   8.309
 2135POPC   C3B29349  29.324  12.668   7.836
 2135POPC   C4B29350  29.456  12.597   7.382
 2136POPC   NC329351  20.584  25.206   9.572
 2136POPC   PO429352  20.544  25.851   9.382
 2136POPC   GL129353  20.515  25.493   9.113
 2136POPC   GL229354  20.701  25.156   9.091
 2136POPC   C1A29355  20.647  25.477   8.691
 2136POPC   D2A29356  20.830  25.375   8.324
 2136POPC   C3A29357  20.681  25.561   8.000
 2136POPC   C4A29358  20.459  25.532   7.664
 2136POPC   C1B29359  20.519  24.953   8.722
 2136POPC   C2B29360  20.384  24.730   8.364
 2136POPC   C3B29361  20.460  24.894   7.963
 2136POPC   C4B29362  20.774  24.935   7.671
 2137POPC   NC329363  38.948   4.598   9.582
 2137POPC   PO429364  39.220   4.035   9.720
 2137POPC   GL129365  39.221   4.160   9.259
 2137POPC   GL229366  39.375   4.498   9.198
 2137POPC   C1A29367  39.118   4.257   8.824
 2137POPC   D2A29368  38.913   4.267   8.439
 2137POPC   C3A29369  39.170   4.044   8.167
 2137POPC   C4A29370  39.241   4.274   7.834
 2137POPC   C1B29371  39.568   4.534   8.799
 2137POPC   C2B29372  39.465   4.405   8.393
 2137POPC   C3B29373  39.487   4.659   8.044
 2137POPC   C4B29374  39.660   4.493   7.701
 2138POPC   NC329375  44.179  37.699   9.602
 2138POPC   PO429376  43.504  37.434   9.573
 2138POPC   GL129377  43.581  37.667   9.169
 2138POPC   GL229378  43.828  37.937   9.217
 2138POPC   C1A29379  43.704  37.630   8.699
 2138POPC   D2A29380  43.716  37.538   8.250
 2138POPC   C3A29381  44.077  37.588   8.023
 2138POPC   C4A29382  43.968  37.511   7.609
 2138POPC   C1B29383  44.030  38.010   8.785
 2138POPC   C2B29384  43.781  38.057   8.385
 2138POPC   C3B29385  43.723  37.948   7.955
 2138POPC   C4B29386  44.075  37.995   7.702
 2139POPC   NC329387   9.327  35.459   9.264
 2139POPC   PO429388   9.948  35.402   9.568
 2139POPC   GL129389   9.996  35.432   9.134
 2139POPC   GL229390  10.084  35.105   9.090
 2139POPC   C1A29391   9.774  35.574   8.755
 2139POPC   D2A29392   9.466  35.338   8.514
 2139POPC   C3A29393   9.452  35.455   8.092
 2139POPC   C4A29394   9.720  35.341   7.765
 2139POPC   C1B29395   9.908  35.087   8.680
 2139POPC   C2B29396   9.907  35.203   8.219
 2139POPC   C3B29397  10.179  35.147   7.823
 2139POPC   C4B29398  10.038  35.139   7.385
 2140POPC   NC329399  18.590  13.249   9.516
 2140POPC   PO429400  17.962  13.112   9.454
 2140POPC   GL129401  17.984  13.061   9.063
 2140POPC   GL229402  18.332  12.969   9.094
 2140POPC   C1A29403  17.802  12.924   8.703
 2140POPC   D2A29404  17.847  12.839   8.294
 2140POPC   C3A29405  18.106  12.643   8.033
 2140POPC   C4A29406  18.309  12.938   7.776
 2140POPC   C1B29407  18.306  12.835   8.658
 2140POPC   C2B29408  18.335  13.070   8.280
 2140POPC   C3B29409  18.714  13.145   8.038
 2140POPC   C4B29410  18.801  12.889   7.697
 2141POPC   NC329411  12.904  38.667   9.621
 2141POPC   PO429412  13.149  38.097   9.613
 2141POPC   GL129413  13.042  38.319   9.238
 2141POPC   GL229414  12.713  38.443   9.191
 2141POPC   C1A29415  13.038  38.439   8.791
 2141POPC   D2A29416  13.142  38.295   8.393
 2141POPC   C3A29417  12.864  38.341   8.054
 2141POPC   C4A29418  13.043  38.653   7.804
 2141POPC   C1B29419  12.594  38.679   8.794
 2141POPC   C2B29420  12.787  38.716   8.401
 2141POPC   C3B29421  12.648  38.834   8.037
 2141POPC   C4B29422  12.446  38.567   7.803
 2142POPC   NC329423   9.435  21.490   9.473
 2142POPC   PO429424   8.900  21.102   9.479
 2142POPC   GL129425   9.043  21.267   9.142
 2142POPC   GL229426   9.394  21.101   9.153
 2142POPC   C1A29427   8.828  21.318   8.731
 2142POPC   D2A29428   8.592  21.112   8.340
 2142POPC   C3A29429   8.674  21.092   7.928
 2142POPC   C4A29430   8.667  21.468   7.713
 2142POPC   C1B29431   9.377  21.401   8.795
 2142POPC   C2B29432   9.181  21.583   8.454
 2142POPC   C3B29433   8.937  21.528   8.142
 2142POPC   C4B29434   9.138  21.323   7.869
 2143POPC   NC329435   0.015  21.163   9.367
 2143POPC   PO429436  44.458  21.518   9.577
 2143POPC   GL129437  44.661  21.549   9.171
 2143POPC   GL229438  44.352  21.470   9.046
 2143POPC   C1A29439  44.973  21.490   8.801
 2143POPC   D2A29440   0.056  21.660   8.400
 2143POPC   C3A29441  44.900  21.456   8.030
 2143POPC   C4A29442  44.556  21.593   7.778
 2143POPC   C1B29443  44.528  21.324   8.657
 2143POPC   C2B29444  44.619  21.116   8.315
 2143POPC   C3B29445  44.540  21.103   7.905
 2143POPC   C4B29446  44.731  21.120   7.539
 2144POPC   NC329447  13.576  20.124   9.479
 2144POPC   PO429448  13.628  19.431   9.665
 2144POPC   GL129449  13.484  19.587   9.234
 2144POPC   GL229450  13.812  19.630   9.208
 2144POPC   C1A29451  13.353  19.664   8.777
 2144POPC   D2A29452  13.222  19.728   8.296
 2144POPC   C3A29453  13.474  19.962   7.954
 2144POPC   C4A29454  13.490  19.835   7.476
 2144POPC   C1B29455  13.827  19.820   8.819
 2144POPC   C2B29456  13.671  19.966   8.434
 2144POPC   C3B29457  13.943  20.114   8.100
 2144POPC   C4B29458  13.923  19.987   7.681
 2145POPC   NC329459   3.681  34.573   9.605
 2145POPC   PO429460   4.075  34.839   9.068
 2145POPC   GL129461   3.700  34.667   9.109
 2145POPC   GL229462   3.508  34.968   9.249
 2145POPC   C1A29463   3.581  34.421   8.754
 2145POPC   D2A29464   3.634  34.561   8.304
 2145POPC   C3A29465   3.501  34.469   7.893
 2145POPC   C4A29466   3.816  34.487   7.610
 2145POPC   C1B29467   3.289  34.860   8.893
 2145POPC   C2B29468   3.199  34.673   8.524
 2145POPC   C3B29469   3.232  34.851   8.135
 2145POPC   C4B29470   3.057  34.783   7.788
 2146POPC   NC329471  10.820  11.435   9.423
 2146POPC   PO429472  10.387  10.904   9.489
 2146POPC   GL129473  10.515  11.136   9.137
 2146POPC   GL229474  10.274  11.379   9.054
 2146POPC   C1A29475  10.519  11.098   8.689
 2146POPC   D2A29476  10.479  11.235   8.263
 2146POPC   C3A29477  10.597  10.936   7.953
 2146POPC   C4A29478  10.445  10.875   7.535
 2146POPC   C1B29479  10.332  11.601   8.649
 2146POPC   C2B29480  10.532  11.749   8.242
 2146POPC   C3B29481  10.491  11.612   7.846
 2146POPC   C4B29482  10.230  11.278   7.811
 2147POPC   NC329483  37.388  43.081   9.513
 2147POPC   PO429484  37.878  43.458   9.607
 2147POPC   GL129485  37.777  43.255   9.223
 2147POPC   GL229486  37.457  43.406   9.141
 2147POPC   C1A29487  37.727  42.915   8.945
 2147POPC   D2A29488  37.639  42.831   8.528
 2147POPC   C3A29489  37.875  42.967   8.162
 2147POPC   C4A29490  37.795  42.747   7.782
 2147POPC   C1B29491  37.582  43.379   8.739
 2147POPC   C2B29492  37.407  43.371   8.352
 2147POPC   C3B29493  37.629  43.390   7.984
 2147POPC   C4B29494  37.669  43.228   7.596
 2148POPC   NC329495  21.983  24.505   9.335
 2148POPC   PO429496  22.494  24.493   9.745
 2148POPC   GL129497  22.495  24.473   9.255
 2148POPC   GL229498  22.284  24.774   9.044
 2148POPC   C1A29499  22.361  24.340   8.822
 2148POPC   D2A29500  22.246  24.646   8.509
 2148POPC   C3A29501  22.224  24.500   8.114
 2148POPC   C4A29502  22.491  24.284   7.887
 2148POPC   C1B29503  21.840  24.760   8.787
 2148POPC   C2B29504  21.812  24.951   8.367
 2148POPC   C3B29505  21.898  24.840   7.943
 2148POPC   C4B29506  22.304  24.743   7.679
 2149POPC   NC329507   0.088   0.857   9.867
 2149POPC   PO429508   0.698   1.208   9.693
 2149POPC   GL129509   0.620   1.107   9.245
 2149POPC   GL229510   0.810   1.367   9.126
 2149POPC   C1A29511   0.518   0.952   8.852
 2149POPC   D2A29512   0.533   1.174   8.481
 2149POPC   C3A29513   0.409   0.940   8.165
 2149POPC   C4A29514   0.142   1.051   7.820
 2149POPC   C1B29515   0.870   1.510   8.710
 2149POPC   C2B29516   0.864   1.525   8.257
 2149POPC   C3B29517   0.511   1.412   7.993
 2149POPC   C4B29518   0.557   1.246   7.565
 2150POPC   NC329519  11.008   0.248   9.511
 2150POPC   PO429520  11.333   0.725   9.607
 2150POPC   GL129521  11.207   0.587   9.187
 2150POPC   GL229522  11.467   0.433   9.046
 2150POPC   C1A29523  10.998   0.357   8.818
 2150POPC   D2A29524  11.095   0.242   8.370
 2150POPC   C3A29525  10.939   0.542   8.052
 2150POPC   C4A29526  10.994   0.507   7.605
 2150POPC   C1B29527  11.476   0.157   8.705
 2150POPC   C2B29528  11.488  44.867   8.371
 2150POPC   C3B29529  11.443   0.051   7.977
 2150POPC   C4B29530  11.642   0.432   7.815
 2151POPC   NC329531  16.275  20.680   9.528
 2151POPC   PO429532  15.746  20.327   9.344
 2151POPC   GL129533  15.818  20.560   9.022
 2151POPC   GL229534  15.959  20.838   9.138
 2151POPC   C1A29535  15.881  20.633   8.598
 2151POPC   D2A29536  16.010  20.435   8.240
 2151POPC   C3A29537  15.804  20.694   7.957
 2151POPC   C4A29538  15.765  20.600   7.581
 2151POPC   C1B29539  16.301  20.732   8.847
 2151POPC   C2B29540  16.371  20.726   8.432
 2151POPC   C3B29541  16.255  20.896   8.044
 2151POPC   C4B29542  16.162  20.964   7.612
 2152POPC   NC329543   7.517   5.123   9.903
 2152POPC   PO429544   7.228   5.085   9.283
 2152POPC   GL129545   7.598   5.241   9.041
 2152POPC   GL229546   7.822   4.922   8.950
 2152POPC   C1A29547   7.502   5.538   8.720
 2152POPC   D2A29548   7.407   5.689   8.312
 2152POPC   C3A29549   7.657   5.496   8.009
 2152POPC   C4A29550   7.415   5.289   7.706
 2152POPC   C1B29551   7.586   5.024   8.577
 2152POPC   C2B29552   7.598   5.005   8.127
 2152POPC   C3B29553   7.252   4.881   7.935
 2152POPC   C4B29554   7.178   4.627   7.585
 2153POPC   NC329555  34.365  39.764   9.891
 2153POPC   PO429556  34.371  39.180   9.520
 2153POPC   GL129557  34.669  39.279   9.194
 2153POPC   GL229558  34.387  39.346   9.015
 2153POPC   C1A29559  34.809  39.427   8.752
 2153POPC   D2A29560  34.854  39.194   8.329
 2153POPC   C3A29561  34.748  39.458   7.964
 2153POPC   C4A29562  34.676  39.286   7.561
 2153POPC   C1B29563  34.492  39.041   8.710
 2153POPC   C2B29564  34.344  39.206   8.337
 2153POPC   C3B29565  34.444  39.037   7.941
 2153POPC   C4B29566  34.426  38.851   7.514
 2154POPC   NC329567  10.565  27.835   9.516
 2154POPC   PO429568  10.371  27.156   9.466
 2154POPC   GL129569  10.387  27.458   9.200
 2154POPC   GL229570  10.751  27.436   9.205
 2154POPC   C1A29571  10.433  27.602   8.799
 2154POPC   D2A29572  10.303  27.660   8.381
 2154POPC   C3A29573  10.371  27.423   8.077
 2154POPC   C4A29574  10.226  27.398   7.699
 2154POPC   C1B29575  10.853  27.290   8.825
 2154POPC   C2B29576  10.766  27.405   8.407
 2154POPC   C3B29577  10.955  27.303   8.001
 2154POPC   C4B29578  10.717  27.555   7.752
 2155POPC   NC329579   7.243  33.803   9.420
 2155POPC   PO429580   7.731  34.206   9.336
 2155POPC   GL129581   7.690  33.768   9.114
 2155POPC   GL229582   7.346  33.674   8.959
 2155POPC   C1A29583   7.746  33.588   8.691
 2155POPC   D2A29584   7.499  33.575   8.282
 2155POPC   C3A29585   7.759  33.579   7.898
 2155POPC   C4A29586   7.724  33.610   7.442
 2155POPC   C1B29587   7.076  33.698   8.615
 2155POPC   C2B29588   6.991  34.032   8.320
 2155POPC   C3B29589   7.175  34.100   7.932
 2155POPC   C4B29590   7.301  33.837   7.585
 2156POPC   NC329591   2.985  11.569   9.656
 2156POPC   PO429592   2.964  12.273   9.807
 2156POPC   GL129593   2.831  12.200   9.286
 2156POPC   GL229594   2.768  11.822   9.251
 2156POPC   C1A29595   2.838  12.350   8.816
 2156POPC   D2A29596   2.635  12.419   8.356
 2156POPC   C3A29597   2.799  12.272   7.946
 2156POPC   C4A29598   3.099  12.236   7.591
 2156POPC   C1B29599   2.921  11.832   8.829
 2156POPC   C2B29600   3.006  11.691   8.401
 2156POPC   C3B29601   3.074  11.831   7.995
 2156POPC   C4B29602   2.738  11.827   7.693
 2157POPC   NC329603  20.889  12.604   9.628
 2157POPC   PO429604  20.673  13.175   9.432
 2157POPC   GL129605  20.622  12.814   9.162
 2157POPC   GL229606  20.958  12.702   9.127
 2157POPC   C1A29607  20.480  12.637   8.751
 2157POPC   D2A29608  20.539  12.518   8.315
 2157POPC   C3A29609  20.494  12.833   8.002
 2157POPC   C4A29610  20.438  12.908   7.548
 2157POPC   C1B29611  20.946  13.054   8.836
 2157POPC   C2B29612  20.816  12.924   8.446
 2157POPC   C3B29613  20.991  12.693   8.122
 2157POPC   C4B29614  20.939  12.879   7.732
 2158POPC   NC329615  34.286  39.669   9.393
 2158POPC   PO429616  34.934  39.785   9.616
 2158POPC   GL129617  34.828  40.021   9.236
 2158POPC   GL229618  34.656  39.803   9.062
 2158POPC   C1A29619  34.745  40.295   8.848
 2158POPC   D2A29620  34.837  40.475   8.430
 2158POPC   C3A29621  34.675  40.220   8.109
 2158POPC   C4A29622  34.536  39.949   7.788
 2158POPC   C1B29623  34.361  39.784   8.719
 2158POPC   C2B29624  34.403  39.743   8.279
 2158POPC   C3B29625  34.223  39.571   7.929
 2158POPC   C4B29626  34.304  39.636   7.469
 2159POPC   NC329627  13.183  10.854   9.399
 2159POPC   PO429628  12.845  10.310   9.652
 2159POPC   GL129629  12.791  10.259   9.219
 2159POPC   GL229630  12.815  10.595   9.127
 2159POPC   C1A29631  12.910  10.140   8.795
 2159POPC   D2A29632  12.773  10.152   8.370
 2159POPC   C3A29633  13.051  10.286   8.054
 2159POPC   C4A29634  12.959  10.373   7.630
 2159POPC   C1B29635  12.498  10.454   8.835
 2159POPC   C2B29636  12.256  10.671   8.549
 2159POPC   C3B29637  12.400  10.730   8.138
 2159POPC   C4B29638  12.554  10.355   7.947
 2160POPC   NC329639   8.937   9.192   9.546
 2160POPC   PO429640   9.021   8.513   9.482
 2160POPC   GL129641   8.922   8.775   9.197
 2160POPC   GL229642   9.236   8.938   9.210
 2160POPC   C1A29643   8.809   8.989   8.849
 2160POPC   D2A29644   8.945   9.020   8.410
 2160POPC   C3A29645   8.741   9.180   8.022
 2160POPC   C4A29646   8.751   9.133   7.569
 2160POPC   C1B29647   9.331   8.972   8.793
 2160POPC   C2B29648   9.415   8.826   8.390
 2160POPC   C3B29649   9.437   9.109   8.084
 2160POPC   C4B29650   9.273   9.145   7.693
 2161POPC   NC329651  10.373  25.662   9.456
 2161POPC   PO429652  10.998  25.426   9.438
 2161POPC   GL129653  10.820  25.408   9.064
 2161POPC   GL229654  10.553  25.559   8.989
 2161POPC   C1A29655  10.621  25.138   8.750
 2161POPC   D2A29656  10.383  25.217   8.407
 2161POPC   C3A29657  10.554  25.136   8.023
 2161POPC   C4A29658  10.429  24.858   7.762
 2161POPC   C1B29659  10.147  25.453   8.817
 2161POPC   C2B29660   9.983  25.561   8.401
 2161POPC   C3B29661  10.307  25.602   8.077
 2161POPC   C4B29662  10.309  25.383   7.657
 2162POPC   NC329663   2.381  23.326   9.293
 2162POPC   PO429664   2.938  23.052   9.608
 2162POPC   GL129665   2.935  22.811   9.210
 2162POPC   GL229666   2.659  22.943   9.110
 2162POPC   C1A29667   2.931  22.766   8.707
 2162POPC   D2A29668   3.018  23.101   8.357
 2162POPC   C3A29669   2.919  22.973   7.962
 2162POPC   C4A29670   2.883  22.568   7.809
 2162POPC   C1B29671   2.683  23.201   8.746
 2162POPC   C2B29672   2.506  23.140   8.377
 2162POPC   C3B29673   2.525  23.303   7.997
 2162POPC   C4B29674   2.575  23.154   7.608
 2163POPC   NC329675  20.698  23.878   9.791
 2163POPC   PO429676  20.136  23.470   9.578
 2163POPC   GL129677  20.505  23.687   9.300
 2163POPC   GL229678  20.596  24.028   9.130
 2163POPC   C1A29679  20.615  23.601   8.845
 2163POPC   D2A29680  20.670  23.818   8.432
 2163POPC   C3A29681  20.552  23.607   8.047
 2163POPC   C4A29682  20.707  23.342   7.718
 2163POPC   C1B29683  20.980  23.991   8.802
 2163POPC   C2B29684  21.138  24.040   8.353
 2163POPC   C3B29685  20.853  24.017   7.989
 2163POPC   C4B29686  20.657  23.952   7.599
 2164POPC   NC329687   7.654  38.730   9.512
 2164POPC   PO429688   7.246  38.231   9.405
 2164POPC   GL129689   7.221  38.426   9.038
 2164POPC   GL229690   7.225  38.781   9.052
 2164POPC   C1A29691   7.188  38.458   8.613
 2164POPC   D2A29692   7.130  38.732   8.297
 2164POPC   C3A29693   7.200  38.521   7.926
 2164POPC   C4A29694   7.392  38.658   7.548
 2164POPC   C1B29695   7.591  38.751   8.813
 2164POPC   C2B29696   7.623  38.645   8.400
 2164POPC   C3B29697   7.563  38.860   8.039
 2164POPC   C4B29698   7.798  38.898   7.719
 2165POPC   NC329699  26.511  11.701   9.616
 2165POPC   PO429700  26.751  12.350   9.563
 2165POPC   GL129701  26.690  12.078   9.217
 2165POPC   GL229702  26.444  12.301   9.122
 2165POPC   C1A29703  26.660  12.009   8.751
 2165POPC   D2A29704  26.561  11.813   8.361
 2165POPC   C3A29705  26.761  12.012   8.021
 2165POPC   C4A29706  26.958  12.056   7.639
 2165POPC   C1B29707  26.558  12.496   8.749
 2165POPC   C2B29708  26.747  12.424   8.376
 2165POPC   C3B29709  26.537  12.502   8.034
 2165POPC   C4B29710  26.615  12.423   7.657
 2166POPC   NC329711   0.607  21.936   9.395
 2166POPC   PO429712   0.038  22.326   9.468
 2166POPC   GL129713   0.299  22.251   9.115
 2166POPC   GL229714   0.600  22.419   9.217
 2166POPC   C1A29715   0.230  22.184   8.675
 2166POPC   D2A29716   0.337  22.075   8.250
 2166POPC   C3A29717   0.198  22.139   7.864
 2166POPC   C4A29718  44.975  21.835   7.631
 2166POPC   C1B29719   0.890  22.333   8.880
 2166POPC   C2B29720   0.740  22.174   8.522
 2166POPC   C3B29721   0.837  21.942   8.165
 2166POPC   C4B29722   0.692  22.022   7.792
 2167POPC   NC329723  19.846  31.543   9.599
 2167POPC   PO429724  19.223  31.363   9.615
 2167POPC   GL129725  19.552  31.230   9.303
 2167POPC   GL229726  19.604  31.510   9.152
 2167POPC   C1A29727  19.834  31.184   8.857
 2167POPC   D2A29728  19.956  31.031   8.427
 2167POPC   C3A29729  19.841  31.162   7.981
 2167POPC   C4A29730  20.051  31.209   7.591
 2167POPC   C1B29731  19.874  31.685   8.814
 2167POPC   C2B29732  19.990  31.556   8.396
 2167POPC   C3B29733  19.866  31.703   7.999
 2167POPC   C4B29734  19.660  31.603   7.642
 2168POPC   NC329735  26.442  40.988  10.004
 2168POPC   PO429736  26.237  41.496   9.531
 2168POPC   GL129737  26.209  41.664   9.138
 2168POPC   GL229738  26.204  41.300   9.041
 2168POPC   C1A29739  26.083  41.673   8.710
 2168POPC   D2A29740  26.165  41.316   8.465
 2168POPC   C3A29741  26.285  41.527   8.119
 2168POPC   C4A29742  26.140  41.838   7.852
 2168POPC   C1B29743  25.792  41.268   8.840
 2168POPC   C2B29744  25.590  41.326   8.455
 2168POPC   C3B29745  25.777  41.436   8.084
 2168POPC   C4B29746  25.998  41.403   7.700
 2169POPC   NC329747  13.552  37.038   9.508
 2169POPC   PO429748  14.121  36.563   9.392
 2169POPC   GL129749  13.882  36.858   9.146
 2169POPC   GL229750  13.568  36.677   9.153
 2169POPC   C1A29751  13.653  37.043   8.778
 2169POPC   D2A29752  13.782  37.091   8.349
 2169POPC   C3A29753  13.718  37.290   7.968
 2169POPC   C4A29754  13.615  37.084   7.652
 2169POPC   C1B29755  13.723  36.536   8.754
 2169POPC   C2B29756  13.583  36.584   8.340
 2169POPC   C3B29757  13.582  36.648   7.888
 2169POPC   C4B29758  13.383  36.680   7.440
 2170POPC   NC329759  42.957  16.595   9.476
 2170POPC   PO429760  43.589  16.857   9.629
 2170POPC   GL129761  43.388  16.669   9.190
 2170POPC   GL229762  43.073  16.661   8.997
 2170POPC   C1A29763  43.397  16.872   8.695
 2170POPC   D2A29764  42.968  16.892   8.519
 2170POPC   C3A29765  42.948  16.959   8.089
 2170POPC   C4A29766  43.328  16.891   7.819
 2170POPC   C1B29767  43.177  16.401   8.628
 2170POPC   C2B29768  43.018  16.443   8.199
 2170POPC   C3B29769  42.977  16.552   7.762
 2170POPC   C4B29770  42.998  16.448   7.347
 2171POPC   NC329771  22.592  14.200   9.326
 2171POPC   PO429772  23.148  14.499   9.605
 2171POPC   GL129773  23.082  14.429   9.154
 2171POPC   GL229774  23.008  14.055   9.029
 2171POPC   C1A29775  22.997  14.484   8.712
 2171POPC   D2A29776  23.141  14.214   8.384
 2171POPC   C3A29777  23.060  14.402   7.979
 2171POPC   C4A29778  22.804  14.663   7.695
 2171POPC   C1B29779  22.684  14.074   8.684
 2171POPC   C2B29780  22.621  14.235   8.287
 2171POPC   C3B29781  22.605  14.127   7.870
 2171POPC   C4B29782  22.735  14.040   7.481
 2172POPC   NC329783  11.109  30.636   9.653
 2172POPC   PO429784  11.731  30.900   9.656
 2172POPC   GL129785  11.453  30.752   9.309
 2172POPC   GL229786  11.091  30.911   9.216
 2172POPC   C1A29787  11.268  30.496   8.955
 2172POPC   D2A29788  11.170  30.681   8.545
 2172POPC   C3A29789  11.121  30.485   8.157
 2172POPC   C4A29790  11.272  30.589   7.765
 2172POPC   C1B29791  11.363  30.999   8.893
 2172POPC   C2B29792  11.477  31.111   8.492
 2172POPC   C3B29793  11.302  30.988   8.130
 2172POPC   C4B29794  11.345  31.118   7.747
 2173POPC   NC329795  23.134   5.375   9.542
 2173POPC   PO429796  22.863   4.721   9.458
 2173POPC   GL129797  22.684   4.983   9.178
 2173POPC   GL229798  22.742   5.314   9.128
 2173POPC   C1A29799  22.642   4.927   8.797
 2173POPC   D2A29800  22.799   5.106   8.473
 2173POPC   C3A29801  22.648   4.937   8.113
 2173POPC   C4A29802  22.726   5.054   7.726
 2173POPC   C1B29803  23.131   5.166   8.898
 2173POPC   C2B29804  23.315   5.109   8.482
 2173POPC   C3B29805  23.113   5.204   8.068
 2173POPC   C4B29806  23.256   5.291   7.664
 2174POPC   NC329807  14.111  32.077   9.408
 2174POPC   PO429808  14.812  32.396   9.493
 2174POPC   GL129809  14.556  32.289   9.197
 2174POPC   GL229810  14.609  31.944   9.305
 2174POPC   C1A29811  14.338  32.438   8.828
 2174POPC   D2A29812  14.351  32.231   8.443
 2174POPC   C3A29813  14.153  32.343   8.076
 2174POPC   C4A29814  14.201  32.059   7.742
 2174POPC   C1B29815  14.608  31.897   8.874
 2174POPC   C2B29816  14.795  31.968   8.495
 2174POPC   C3B29817  14.628  31.937   8.090
 2174POPC   C4B29818  14.723  32.096   7.713
 2175POPC   NC329819  24.612  29.092   9.536
 2175POPC   PO429820  24.383  29.398   8.994
 2175POPC   GL129821  24.367  28.927   9.089
 2175POPC   GL229822  24.721  28.833   9.087
 2175POPC   C1A29823  24.144  28.730   8.749
 2175POPC   D2A29824  24.183  28.977   8.358
 2175POPC   C3A29825  24.439  28.871   7.994
 2175POPC   C4A29826  24.191  28.831   7.609
 2175POPC   C1B29827  24.655  28.931   8.655
 2175POPC   C2B29828  24.829  29.275   8.454
 2175POPC   C3B29829  24.847  29.364   8.043
 2175POPC   C4B29830  24.590  29.249   7.697
 2176POPC   NC329831   9.844  36.260   9.564
 2176POPC   PO429832   9.271  35.903   9.419
 2176POPC   GL129833   9.532  36.154   9.152
 2176POPC   GL229834   9.558  36.507   9.070
 2176POPC   C1A29835   9.600  36.149   8.720
 2176POPC   D2A29836   9.454  35.876   8.430
 2176POPC   C3A29837   9.761  35.863   8.133
 2176POPC   C4A29838   9.594  35.833   7.735
 2176POPC   C1B29839  10.018  36.456   8.932
 2176POPC   C2B29840  10.265  36.311   8.565
 2176POPC   C3B29841  10.096  36.409   8.155
 2176POPC   C4B29842   9.952  36.192   7.770
 2177POPC   NC329843  42.425  28.340   9.650
 2177POPC   PO429844  42.112  27.867   9.356
 2177POPC   GL129845  42.338  28.120   9.074
 2177POPC   GL229846  42.504  28.426   9.150
 2177POPC   C1A29847  42.417  28.210   8.641
 2177POPC   D2A29848  42.576  28.527   8.380
 2177POPC   C3A29849  42.614  28.294   8.000
 2177POPC   C4A29850  42.247  28.134   7.792
 2177POPC   C1B29851  42.130  28.559   8.866
 2177POPC   C2B29852  42.065  28.747   8.465
 2177POPC   C3B29853  42.150  28.557   8.093
 2177POPC   C4B29854  42.355  28.642   7.721
 2178POPC   NC329855  14.818   9.785   9.446
 2178POPC   PO429856  14.302   9.437   9.572
 2178POPC   GL129857  14.289   9.758   9.206
 2178POPC   GL229858  14.625   9.679   9.004
 2178POPC   C1A29859  14.290   9.915   8.738
 2178POPC   D2A29860  14.665   9.748   8.478
 2178POPC   C3A29861  14.585   9.551   8.042
 2178POPC   C4A29862  14.312   9.673   7.686
 2178POPC   C1B29863  14.752  10.128   8.873
 2178POPC   C2B29864  14.860  10.258   8.451
 2178POPC   C3B29865  14.637  10.065   8.084
 2178POPC   C4B29866  14.828   9.871   7.724
 2179POPC   NC329867  29.855   7.259   9.926
 2179POPC   PO429868  30.160   7.109   9.327
 2179POPC   GL129869  29.899   7.249   8.993
 2179POPC   GL229870  29.701   7.569   8.933
 2179POPC   C1A29871  29.768   7.033   8.641
 2179POPC   D2A29872  29.515   7.071   8.297
 2179POPC   C3A29873  29.665   7.426   8.106
 2179POPC   C4A29874  29.820   7.403   7.720
 2179POPC   C1B29875  30.074   7.706   8.738
 2179POPC   C2B29876  30.167   7.931   8.387
 2179POPC   C3B29877  30.181   7.749   7.974
 2179POPC   C4B29878  29.962   7.844   7.595
 2180POPC   NC329879  18.575  26.507   9.504
 2180POPC   PO429880  18.199  27.088   9.533
 2180POPC   GL129881  18.275  27.101   9.116
 2180POPC   GL229882  18.335  26.752   9.115
 2180POPC   C1A29883  18.356  27.000   8.658
 2180POPC   D2A29884  18.121  26.709   8.460
 2180POPC   C3A29885  18.203  26.666   8.042
 2180POPC   C4A29886  18.223  26.969   7.724
 2180POPC   C1B29887  18.632  26.591   8.822
 2180POPC   C2B29888  18.752  26.674   8.377
 2180POPC   C3B29889  18.696  26.728   7.912
 2180POPC   C4B29890  18.406  26.497   7.582
 2181POPC   NC329891   1.468  20.479   9.549
 2181POPC   PO429892   2.092  20.715   9.554
 2181POPC   GL129893   2.040  20.699   9.116
 2181POPC   GL229894   1.934  21.031   9.061
 2181POPC   C1A29895   1.956  20.538   8.686
 2181POPC   D2A29896   1.802  20.702   8.273
 2181POPC   C3A29897   1.694  20.388   7.924
 2181POPC   C4A29898   1.761  20.159   7.518
 2181POPC   C1B29899   2.151  21.001   8.661
 2181POPC   C2B29900   2.303  20.819   8.252
 2181POPC   C3B29901   2.133  20.684   7.845
 2181POPC   C4B29902   2.108  20.885   7.460
 2182POPC   NC329903  20.328  14.213   9.525
 2182POPC   PO429904  20.889  14.469   9.279
 2182POPC   GL129905  20.562  14.492   9.058
 2182POPC   GL229906  20.270  14.660   9.135
 2182POPC   C1A29907  20.468  14.586   8.644
 2182POPC   D2A29908  20.616  14.345   8.337
 2182POPC   C3A29909  20.624  14.510   7.946
 2182POPC   C4A29910  20.854  14.182   7.805
 2182POPC   C1B29911  20.162  14.257   8.887
 2182POPC   C2B29912  20.109  14.230   8.460
 2182POPC   C3B29913  20.269  14.115   8.053
 2182POPC   C4B29914  20.382  14.183   7.629
 2183POPC   NC329915  43.544  20.854   9.287
 2183POPC   PO429916  43.954  20.332   9.487
 2183POPC   GL129917  43.975  20.596   9.105
 2183POPC   GL229918  44.154  20.884   9.255
 2183POPC   C1A29919  43.810  20.686   8.658
 2183POPC   D2A29920  43.703  20.714   8.220
 2183POPC   C3A29921  43.845  20.376   7.939
 2183POPC   C4A29922  43.658  20.335   7.518
 2183POPC   C1B29923  44.175  21.000   8.807
 2183POPC   C2B29924  44.073  21.085   8.356
 2183POPC   C3B29925  44.116  20.857   7.952
 2183POPC   C4B29926  43.905  20.768   7.606
 2184POPC   NC329927  27.066   0.106   9.484
 2184POPC   PO429928  27.262  44.419   9.462
 2184POPC   GL129929  26.800  44.517   9.247
 2184POPC   GL229930  26.576  44.820   9.127
 2184POPC   C1A29931  26.617  44.442   8.821
 2184POPC   D2A29932  26.880  44.477   8.460
 2184POPC   C3A29933  26.677  44.551   8.090
 2184POPC   C4A29934  26.889  44.479   7.729
 2184POPC   C1B29935  26.803  44.923   8.760
 2184POPC   C2B29936  27.079  44.999   8.397
 2184POPC   C3B29937  27.146  44.862   7.982
 2184POPC   C4B29938  26.753  44.959   7.762
 2185POPC   NC329939  29.939   8.664   9.735
 2185POPC   PO429940  29.649   9.176   9.752
 2185POPC   GL129941  29.939   9.036   9.337
 2185POPC   GL229942  29.819   8.730   9.237
 2185POPC   C1A29943  30.118   8.867   8.861
 2185POPC   D2A29944  30.238   8.964   8.423
 2185POPC   C3A29945  29.985   8.836   8.058
 2185POPC   C4A29946  29.788   9.065   7.682
 2185POPC   C1B29947  29.712   8.558   8.844
 2185POPC   C2B29948  29.646   8.688   8.425
 2185POPC   C3B29949  29.570   8.554   7.980
 2185POPC   C4B29950  29.827   8.543   7.591
 2186POPC   NC329951   8.333   5.548   9.622
 2186POPC   PO429952   7.852   5.828   9.528
 2186POPC   GL129953   8.145   5.874   9.169
 2186POPC   GL229954   8.359   6.191   9.196
 2186POPC   C1A29955   8.131   5.814   8.711
 2186POPC   D2A29956   8.070   5.971   8.291
 2186POPC   C3A29957   8.069   5.774   7.874
 2186POPC   C4A29958   7.823   5.880   7.503
 2186POPC   C1B29959   8.563   6.069   8.787
 2186POPC   C2B29960   8.552   5.835   8.387
 2186POPC   C3B29961   8.521   6.009   7.978
 2186POPC   C4B29962   8.746   6.194   7.654
 2187POPC   NC329963  20.427  33.336   9.628
 2187POPC   PO429964  20.855  32.854   9.664
 2187POPC   GL129965  20.756  33.119   9.275
 2187POPC   GL229966  20.389  33.058   9.208
 2187POPC   C1A29967  20.887  33.251   8.838
 2187POPC   D2A29968  20.832  33.070   8.415
 2187POPC   C3A29969  20.981  33.201   7.996
 2187POPC   C4A29970  20.684  33.147   7.656
 2187POPC   C1B29971  20.491  32.915   8.815
 2187POPC   C2B29972  20.313  33.001   8.438
 2187POPC   C3B29973  20.401  33.187   8.058
 2187POPC   C4B29974  20.177  33.022   7.674
 2188POPC   NC329975  24.279  30.695   9.422
 2188POPC   PO429976  24.756  31.172   9.307
 2188POPC   GL129977  24.550  30.886   9.025
 2188POPC   GL229978  24.144  30.878   8.981
 2188POPC   C1A29979  24.721  30.608   8.710
 2188POPC   D2A29980  24.553  30.408   8.330
 2188POPC   C3A29981  24.573  30.549   7.916
 2188POPC   C4A29982  24.531  30.516   7.475
 2188POPC   C1B29983  24.239  30.746   8.603
 2188POPC   C2B29984  24.455  30.929   8.288
 2188POPC   C3B29985  24.316  30.988   7.881
 2188POPC   C4B29986  24.676  30.970   7.637
 2189POPC   NC329987  17.606  21.728   9.542
 2189POPC   PO429988  17.162  22.175   9.707
 2189POPC   GL129989  17.374  22.235   9.303
 2189POPC   GL229990  17.308  22.539   9.105
 2189POPC   C1A29991  17.406  22.063   8.876
 2189POPC   D2A29992  17.317  22.198   8.436
 2189POPC   C3A29993  17.529  22.020   8.058
 2189POPC   C4A29994  17.369  21.829   7.661
 2189POPC   C1B29995  17.653  22.517   8.791
 2189POPC   C2B29996  17.740  22.470   8.359
 2189POPC   C3B29997  17.448  22.530   8.045
 2189POPC   C4B29998  17.367  22.336   7.656
 2190POPC   NC329999   9.932  43.704   9.964
 2190POPC   PO430000   9.473  43.940   9.512
 2190POPC   GL130001   9.714  43.885   9.118
 2190POPC   GL230002   9.603  44.121   8.942
 2190POPC   C1A30003   9.891  43.745   8.744
 2190POPC   D2A30004   9.739  44.019   8.425
 2190POPC   C3A30005   9.658  43.815   8.039
 2190POPC   C4A30006  10.018  43.724   7.819
 2190POPC   C1B30007   9.954  44.307   8.831
 2190POPC   C2B30008  10.177  44.364   8.456
 2190POPC   C3B30009  10.011  44.269   8.063
 2190POPC   C4B30010  10.088  44.224   7.664
 2191POPC   NC330011  29.527  10.345   9.812
 2191POPC   PO430012  28.925  10.613   9.871
 2191POPC   GL130013  29.160  10.647   9.414
 2191POPC   GL230014  29.107  10.962   9.188
 2191POPC   C1A30015  29.197  10.500   8.931
 2191POPC   D2A30016  28.949  10.367   8.551
 2191POPC   C3A30017  29.147  10.254   8.146
 2191POPC   C4A30018  29.191  10.320   7.695
 2191POPC   C1B30019  29.304  10.957   8.746
 2191POPC   C2B30020  29.239  10.737   8.347
 2191POPC   C3B30021  29.240  10.815   7.900
 2191POPC   C4B30022  29.546  10.976   7.593
 2192POPC   NC330023  28.859  34.555   9.643
 2192POPC   PO430024  29.448  34.893   9.390
 2192POPC   GL130025  29.173  34.643   9.118
 2192POPC   GL230026  29.289  34.306   9.195
 2192POPC   C1A30027  28.911  34.759   8.728
 2192POPC   D2A30028  28.664  34.842   8.334
 2192POPC   C3A30029  28.960  34.740   8.009
 2192POPC   C4A30030  29.011  34.301   7.884
 2192POPC   C1B30031  29.454  34.383   8.761
 2192POPC   C2B30032  29.521  34.192   8.348
 2192POPC   C3B30033  29.556  34.392   7.954
 2192POPC   C4B30034  29.491  34.838   7.884
 2193POPC   NC330035  40.297   0.140   9.349
 2193POPC   PO430036  39.957   0.768   9.444
 2193POPC   GL130037  39.939   0.480   9.138
 2193POPC   GL230038  39.705   0.253   9.291
 2193POPC   C1A30039  40.102   0.467   8.710
 2193POPC   D2A30040  39.838   0.591   8.336
 2193POPC   C3A30041  39.998   0.574   7.947
 2193POPC   C4A30042  39.815   0.442   7.577
 2193POPC   C1B30043  39.724   0.154   8.799
 2193POPC   C2B30044  39.936   0.094   8.339
 2193POPC   C3B30045  40.075   0.072   7.869
 2193POPC   C4B30046  39.871  44.971   7.438
 2194POPC   NC330047  12.808  17.409   9.645
 2194POPC   PO430048  12.343  17.592   9.426
 2194POPC   GL130049  12.712  17.433   9.141
 2194POPC   GL230050  13.022  17.634   9.157
 2194POPC   C1A30051  12.967  17.330   8.744
 2194POPC   D2A30052  13.028  17.480   8.319
 2194POPC   C3A30053  12.984  17.125   8.029
 2194POPC   C4A30054  13.097  17.095   7.615
 2194POPC   C1B30055  12.763  17.795   8.767
 2194POPC   C2B30056  12.563  17.723   8.340
 2194POPC   C3B30057  12.577  17.681   7.876
 2194POPC   C4B30058  12.654  17.991   7.557
 2195POPC   NC330059  35.317  14.448   9.586
 2195POPC   PO430060  35.701  14.905   9.329
 2195POPC   GL130061  35.451  14.567   9.085
 2195POPC   GL230062  35.150  14.316   9.131
 2195POPC   C1A30063  35.437  14.331   8.689
 2195POPC   D2A30064  35.592  14.230   8.272
 2195POPC   C3A30065  35.420  14.484   7.958
 2195POPC   C4A30066  35.302  14.561   7.549
 2195POPC   C1B30067  35.100  13.968   8.842
 2195POPC   C2B30068  35.173  13.917   8.398
 2195POPC   C3B30069  35.074  14.094   7.979
 2195POPC   C4B30070  35.424  14.024   7.715
 2196POPC   NC330071   1.913  12.985   9.496
 2196POPC   PO430072   2.252  12.467   9.346
 2196POPC   GL130073   2.218  12.931   9.092
 2196POPC   GL230074   1.890  13.090   8.981
 2196POPC   C1A30075   2.283  13.206   8.695
 2196POPC   D2A30076   1.922  13.296   8.435
 2196POPC   C3A30077   1.877  13.109   8.011
 2196POPC   C4A30078   2.140  12.969   7.673
 2196POPC   C1B30079   1.889  12.816   8.635
 2196POPC   C2B30080   1.777  12.637   8.218
 2196POPC   C3B30081   1.807  12.599   7.767
 2196POPC   C4B30082   1.679  12.544   7.323
 2197POPC   NC330083  29.119  30.939   9.491
 2197POPC   PO430084  28.888  30.260   9.548
 2197POPC   GL130085  29.094  30.507   9.215
 2197POPC   GL230086  29.443  30.558   9.101
 2197POPC   C1A30087  29.013  30.482   8.803
 2197POPC   D2A30088  29.040  30.684   8.438
 2197POPC   C3A30089  28.992  30.557   8.059
 2197POPC   C4A30090  28.852  30.802   7.714
 2197POPC   C1B30091  29.336  30.920   8.805
 2197POPC   C2B30092  29.167  31.164   8.416
 2197POPC   C3B30093  29.258  31.001   8.006
 2197POPC   C4B30094  29.349  30.667   7.690
 2198POPC   NC330095  12.070   9.210   9.824
 2198POPC   PO430096  12.284   9.779   9.578
 2198POPC   GL130097  12.117   9.808   9.168
 2198POPC   GL230098  12.369  10.011   9.095
 2198POPC   C1A30099  11.963   9.743   8.731
 2198POPC   D2A30100  11.992   9.464   8.374
 2198POPC   C3A30101  11.821   9.616   7.995
 2198POPC   C4A30102  12.181   9.571   7.793
 2198POPC   C1B30103  12.414   9.959   8.667
 2198POPC   C2B30104  12.259  10.171   8.346
 2198POPC   C3B30105  12.149  10.041   7.949
 2198POPC   C4B30106  12.333  10.027   7.555
 2199POPC   NC330107  17.074  44.967   9.562
 2199POPC   PO430108  16.366  44.863   9.617
 2199POPC   GL130109  16.462  44.690   9.252
 2199POPC   GL230110  16.632   0.000   9.141
 2199POPC   C1A30111  16.596  44.532   8.860
 2199POPC   D2A30112  16.829  44.622   8.494
 2199POPC   C3A30113  16.726  44.497   8.060
 2199POPC   C4A30114  17.019  44.244   7.847
 2199POPC   C1B30115  16.607   0.052   8.672
 2199POPC   C2B30116  16.662   0.006   8.220
 2199POPC   C3B30117  16.718  44.929   7.799
 2199POPC   C4B30118  16.430  44.804   7.501
 2200POPC   NC330119  21.847  13.561   9.517
 2200POPC   PO430120  22.203  14.175   9.581
 2200POPC   GL130121  22.094  13.864   9.182
 2200POPC   GL230122  22.189  13.461   9.162
 2200POPC   C1A30123  22.096  13.682   8.724
 2200POPC   D2A30124  22.382  13.783   8.362
 2200POPC   C3A30125  22.273  13.718   7.938
 2200POPC   C4A30126  21.933  13.878   7.710
 2200POPC   C1B30127  21.985  13.195   8.847
 2200POPC   C2B30128  21.808  13.203   8.442
 2200POPC   C3B30129  21.813  13.559   8.178
 2200POPC   C4B30130  21.902  13.386   7.807
 2201POPC   NC330131  21.038   0.801   9.448
 2201POPC   PO430132  20.659   0.126   9.485
 2201POPC   GL130133  20.785   0.398   9.170
 2201POPC   GL230134  20.553   0.670   9.202
 2201POPC   C1A30135  20.738   0.567   8.737
 2201POPC   D2A30136  20.811   0.764   8.337
 2201POPC   C3A30137  20.636   0.518   8.021
 2201POPC   C4A30138  20.807   0.336   7.656
 2201POPC   C1B30139  20.299   0.795   8.826
 2201POPC   C2B30140  20.308   0.595   8.433
 2201POPC   C3B30141  20.167   0.685   8.037
 2201POPC   C4B30142  20.364   0.821   7.654
 2202POPC   NC330143  29.471   4.489   9.484
 2202POPC   PO430144  30.005   4.023   9.397
 2202POPC   GL130145  30.031   4.245   9.045
 2202POPC   GL230146  29.682   4.298   9.024
 2202POPC   C1A30147  30.053   4.489   8.688
 2202POPC   D2A30148  29.805   4.514   8.334
 2202POPC   C3A30149  30.129   4.481   8.061
 2202POPC   C4A30150  30.108   4.400   7.671
 2202POPC   C1B30151  29.625   4.036   8.655
 2202POPC   C2B30152  29.560   4.059   8.198
 2202POPC   C3B30153  29.662   4.276   7.839
 2202POPC   C4B30154  29.427   4.360   7.491
 2203POPC   NC330155  30.315  21.453   9.879
 2203POPC   PO430156  30.843  21.486   9.530
 2203POPC   GL130157  30.763  21.144   9.251
 2203POPC   GL230158  30.920  21.377   9.034
 2203POPC   C1A30159  30.619  21.041   8.809
 2203POPC   D2A30160  30.479  21.326   8.473
 2203POPC   C3A30161  30.733  21.490   8.150
 2203POPC   C4A30162  30.820  21.426   7.717
 2203POPC   C1B30163  31.152  21.672   8.792
 2203POPC   C2B30164  31.089  21.820   8.395
 2203POPC   C3B30165  31.209  21.622   8.011
 2203POPC   C4B30166  31.335  21.439   7.643
 2204POPC   NC330167  29.061  10.093   9.407
 2204POPC   PO430168  29.299   9.847  10.006
 2204POPC   GL130169  29.363   9.680   9.442
 2204POPC   GL230170  29.430   9.891   9.090
 2204POPC   C1A30171  29.184   9.483   8.975
 2204POPC   D2A30172  29.108   9.775   8.554
 2204POPC   C3A30173  29.143   9.712   8.067
 2204POPC   C4A30174  29.026   9.821   7.619
 2204POPC   C1B30175  29.592   9.629   8.710
 2204POPC   C2B30176  29.616   9.616   8.268
 2204POPC   C3B30177  29.633   9.558   7.826
 2204POPC   C4B30178  29.797   9.550   7.389
 2205POPC   NC330179  11.480   9.873   9.500
 2205POPC   PO430180  10.978   9.450   9.445
 2205POPC   GL130181  11.275   9.560   9.087
 2205POPC   GL230182  11.627   9.627   9.087
 2205POPC   C1A30183  11.371   9.828   8.697
 2205POPC   D2A30184  11.173  10.066   8.358
 2205POPC   C3A30185  11.300   9.983   7.898
 2205POPC   C4A30186  11.037   9.819   7.531
 2205POPC   C1B30187  11.617   9.355   8.710
 2205POPC   C2B30188  11.483   9.327   8.299
 2205POPC   C3B30189  11.317   9.477   7.938
 2205POPC   C4B30190  11.490   9.560   7.553
 2206POPC   NC330191   9.773  32.774   9.480
 2206POPC   PO430192   9.791  32.104   9.482
 2206POPC   GL130193   9.618  32.407   9.169
 2206POPC   GL230194   9.947  32.483   9.033
 2206POPC   C1A30195   9.539  32.614   8.749
 2206POPC   D2A30196   9.538  32.380   8.369
 2206POPC   C3A30197   9.536  32.533   7.968
 2206POPC   C4A30198   9.675  32.389   7.550
 2206POPC   C1B30199   9.771  32.117   8.767
 2206POPC   C2B30200   9.714  31.903   8.351
 2206POPC   C3B30201   9.534  31.780   7.978
 2206POPC   C4B30202   9.711  31.819   7.593
 2207POPC   NC330203   9.469  24.043   9.703
 2207POPC   PO430204   9.807  23.506   9.734
 2207POPC   GL130205   9.829  23.518   9.305
 2207POPC   GL230206   9.926  23.877   9.279
 2207POPC   C1A30207   9.706  23.484   8.870
 2207POPC   D2A30208   9.716  23.760   8.523
 2207POPC   C3A30209   9.606  23.580   8.145
 2207POPC   C4A30210   9.596  23.745   7.757
 2207POPC   C1B30211  10.099  23.883   8.862
 2207POPC   C2B30212  10.277  23.795   8.484
 2207POPC   C3B30213  10.081  23.762   8.140
 2207POPC   C4B30214  10.096  23.810   7.748
 2208POPC   NC330215  31.575  28.943   9.442
 2208POPC   PO430216  31.124  29.361   9.448
 2208POPC   GL130217  31.218  29.153   9.083
 2208POPC   GL230218  31.579  29.116   8.974
 2208POPC   C1A30219  31.162  29.070   8.669
 2208POPC   D2A30220  31.436  29.025   8.284
 2208POPC   C3A30221  31.235  28.960   7.896
 2208POPC   C4A30222  31.134  29.215   7.504
 2208POPC   C1B30223  31.558  28.742   8.694
 2208POPC   C2B30224  31.820  28.686   8.326
 2208POPC   C3B30225  31.874  28.965   7.961
 2208POPC   C4B30226  31.636  29.156   7.663
 2209POPC   NC330227  15.362  38.068   9.674
 2209POPC   PO430228  14.870  38.565   9.513
 2209POPC   GL130229  14.978  38.328   9.148
 2209POPC   GL230230  14.654  38.181   9.100
 2209POPC   C1A30231  15.130  38.445   8.701
 2209POPC   D2A30232  15.242  38.606   8.257
 2209POPC   C3A30233  15.113  38.416   7.843
 2209POPC   C4A30234  14.876  38.152   7.525
 2209POPC   C1B30235  14.656  38.594   8.866
 2209POPC   C2B30236  14.807  38.791   8.469
 2209POPC   C3B30237  14.835  38.832   7.999
 2209POPC   C4B30238  14.743  38.638   7.571
 2210POPC   NC330239  40.664  26.185   9.216
 2210POPC   PO430240  40.590  26.775   9.509
 2210POPC   GL130241  40.906  26.922   9.200
 2210POPC   GL230242  40.950  26.597   9.094
 2210POPC   C1A30243  40.850  26.962   8.734
 2210POPC   D2A30244  40.797  26.739   8.332
 2210POPC   C3A30245  40.781  27.019   7.969
 2210POPC   C4A30246  40.702  26.983   7.530
 2210POPC   C1B30247  41.191  26.565   8.698
 2210POPC   C2B30248  41.217  26.229   8.407
 2210POPC   C3B30249  41.009  26.218   8.021
 2210POPC   C4B30250  40.848  26.550   7.780
 2211POPC   NC330251  13.153   9.050   9.488
 2211POPC   PO430252  13.086   8.402   9.771
 2211POPC   GL130253  12.982   8.632   9.286
 2211POPC   GL230254  12.684   8.893   9.221
 2211POPC   C1A30255  12.967   8.697   8.834
 2211POPC   D2A30256  12.915   8.754   8.371
 2211POPC   C3A30257  12.635   8.768   8.029
 2211POPC   C4A30258  12.764   8.796   7.605
 2211POPC   C1B30259  12.873   9.202   8.872
 2211POPC   C2B30260  13.113   9.239   8.459
 2211POPC   C3B30261  12.951   9.193   8.035
 2211POPC   C4B30262  12.998   9.242   7.596
 2212POPC   NC330263  42.278  32.686   9.460
 2212POPC   PO430264  41.957  33.361   9.554
 2212POPC   GL130265  42.099  33.092   9.214
 2212POPC   GL230266  42.455  33.052   9.123
 2212POPC   C1A30267  41.999  33.020   8.811
 2212POPC   D2A30268  41.935  33.041   8.387
 2212POPC   C3A30269  42.221  32.748   8.186
 2212POPC   C4A30270  42.393  32.904   7.870
 2212POPC   C1B30271  42.477  32.885   8.711
 2212POPC   C2B30272  42.463  33.147   8.382
 2212POPC   C3B30273  42.630  33.331   8.054
 2212POPC   C4B30274  42.803  33.129   7.695
 2213POPC   NC330275   9.105  24.490   9.377
 2213POPC   PO430276   8.596  24.830   9.632
 2213POPC   GL130277   8.631  24.617   9.223
 2213POPC   GL230278   8.648  24.238   9.243
 2213POPC   C1A30279   8.800  24.500   8.783
 2213POPC   D2A30280   8.937  24.548   8.321
 2213POPC   C3A30281   9.254  24.456   7.991
 2213POPC   C4A30282   9.103  24.521   7.569
 2213POPC   C1B30283   8.620  24.014   8.804
 2213POPC   C2B30284   8.785  24.059   8.347
 2213POPC   C3B30285   8.804  24.214   7.894
 2213POPC   C4B30286   8.758  24.187   7.433
 2214POPC   NC330287  14.419  39.794   9.252
 2214POPC   PO430288  14.559  39.214   9.611
 2214POPC   GL130289  14.392  39.108   9.149
 2214POPC   GL230290  14.286  39.415   8.928
 2214POPC   C1A30291  14.391  38.982   8.694
 2214POPC   D2A30292  14.377  39.327   8.409
 2214POPC   C3A30293  14.423  39.193   8.005
 2214POPC   C4A30294  14.448  39.541   7.759
 2214POPC   C1B30295  13.953  39.193   8.650
 2214POPC   C2B30296  13.979  39.052   8.248
 2214POPC   C3B30297  13.974  38.937   7.847
 2214POPC   C4B30298  14.244  39.024   7.500
 2215POPC   NC330299   1.821   9.062   9.462
 2215POPC   PO430300   2.436   8.986   9.434
 2215POPC   GL130301   2.174   8.875   9.099
 2215POPC   GL230302   1.909   8.646   9.188
 2215POPC   C1A30303   1.992   9.082   8.757
 2215POPC   D2A30304   2.201   9.272   8.415
 2215POPC   C3A30305   2.115   9.107   8.058
 2215POPC   C4A30306   2.235   8.987   7.714
 2215POPC   C1B30307   1.893   8.550   8.765
 2215POPC   C2B30308   1.851   8.767   8.371
 2215POPC   C3B30309   1.959   8.611   7.992
 2215POPC   C4B30310   1.711   8.344   7.764
 2216POPC   NC330311  24.560  17.602   9.589
 2216POPC   PO430312  24.381  16.917   9.574
 2216POPC   GL130313  24.313  17.303   9.246
 2216POPC   GL230314  24.663  17.426   9.137
 2216POPC   C1A30315  24.237  17.552   8.838
 2216POPC   D2A30316  24.423  17.485   8.442
 2216POPC   C3A30317  24.239  17.499   8.080
 2216POPC   C4A30318  24.326  17.671   7.726
 2216POPC   C1B30319  24.769  17.332   8.774
 2216POPC   C2B30320  24.932  17.559   8.422
 2216POPC   C3B30321  24.746  17.616   8.031
 2216POPC   C4B30322  24.783  17.503   7.584
 2217POPC   NC330323   7.164  12.095   9.255
 2217POPC   PO430324   6.582  11.988   9.577
 2217POPC   GL130325   6.685  12.242   9.179
 2217POPC   GL230326   6.685  11.942   8.969
 2217POPC   C1A30327   6.883  12.353   8.721
 2217POPC   D2A30328   6.783  12.027   8.406
 2217POPC   C3A30329   6.611  12.128   7.982
 2217POPC   C4A30330   6.885  12.174   7.597
 2217POPC   C1B30331   6.400  12.238   8.748
 2217POPC   C2B30332   6.271  12.386   8.361
 2217POPC   C3B30333   6.081  12.187   8.016
 2217POPC   C4B30334   6.190  12.028   7.617
 2218POPC   NC330335  42.593  20.825   9.596
 2218POPC   PO430336  43.271  20.598   9.574
 2218POPC   GL130337  43.091  20.481   9.186
 2218POPC   GL230338  42.849  20.718   9.154
 2218POPC   C1A30339  43.014  20.378   8.752
 2218POPC   D2A30340  43.260  20.485   8.364
 2218POPC   C3A30341  43.327  20.352   7.926
 2218POPC   C4A30342  43.144  20.384   7.495
 2218POPC   C1B30343  42.961  20.875   8.744
 2218POPC   C2B30344  42.798  20.727   8.354
 2218POPC   C3B30345  42.903  20.625   7.956
 2218POPC   C4B30346  43.254  20.894   7.954
 2219POPC   NC330347  33.532  20.916   9.285
 2219POPC   PO430348  33.635  20.295   9.540
 2219POPC   GL130349  33.624  20.442   9.145
 2219POPC   GL230350  33.972  20.535   9.123
 2219POPC   C1A30351  33.639  20.579   8.710
 2219POPC   D2A30352  33.973  20.501   8.417
 2219POPC   C3A30353  33.852  20.515   8.017
 2219POPC   C4A30354  33.714  20.348   7.598
 2219POPC   C1B30355  34.141  20.813   8.796
 2219POPC   C2B30356  34.091  21.029   8.406
 2219POPC   C3B30357  33.966  21.037   7.972
 2219POPC   C4B30358  33.686  20.853   7.695
 2220POPC   NC330359  22.619  16.473   9.436
 2220POPC   PO430360  21.951  16.668   9.488
 2220POPC   GL130361  22.177  16.470   9.159
 2220POPC   GL230362  21.961  16.487   8.885
 2220POPC   C1A30363  22.463  16.428   8.805
 2220POPC   D2A30364  22.514  16.642   8.413
 2220POPC   C3A30365  22.465  16.478   7.986
 2220POPC   C4A30366  22.342  16.341   7.562
 2220POPC   C1B30367  22.234  16.891   8.800
 2220POPC   C2B30368  22.342  17.110   8.401
 2220POPC   C3B30369  22.207  16.989   7.970
 2220POPC   C4B30370  21.891  17.116   7.658
 2221POPC   NC330371  43.152   3.044   9.756
 2221POPC   PO430372  43.175   3.696   9.538
 2221POPC   GL130373  43.170   3.538   9.151
 2221POPC   GL230374  43.147   3.202   9.238
 2221POPC   C1A30375  43.185   3.724   8.742
 2221POPC   D2A30376  43.134   3.555   8.366
 2221POPC   C3A30377  43.141   3.776   8.027
 2221POPC   C4A30378  43.048   3.696   7.633
 2221POPC   C1B30379  43.039   3.194   8.780
 2221POPC   C2B30380  43.063   3.060   8.345
 2221POPC   C3B30381  43.241   3.252   7.923
 2221POPC   C4B30382  43.298   3.315   7.407
 2222POPC   NC330383   5.798  23.438   9.541
 2222POPC   PO430384   6.110  24.003   9.555
 2222POPC   GL130385   6.151  23.717   9.206
 2222POPC   GL230386   5.798  23.658   9.099
 2222POPC   C1A30387   6.151  23.738   8.762
 2222POPC   D2A30388   5.988  23.703   8.370
 2222POPC   C3A30389   6.226  23.688   8.029
 2222POPC   C4A30390   6.034  23.664   7.650
 2222POPC   C1B30391   5.642  23.554   8.707
 2222POPC   C2B30392   5.697  23.264   8.400
 2222POPC   C3B30393   5.677  23.459   8.030
 2222POPC   C4B30394   5.623  23.347   7.651
 2223POPC   NC330395  17.983   6.516   9.514
 2223POPC   PO430396  18.558   6.576   9.407
 2223POPC   GL130397  18.445   6.492   9.011
 2223POPC   GL230398  18.126   6.641   9.055
 2223POPC   C1A30399  18.237   6.440   8.609
 2223POPC   D2A30400  18.338   6.775   8.321
 2223POPC   C3A30401  18.191   6.890   7.926
 2223POPC   C4A30402  18.376   6.948   7.509
 2223POPC   C1B30403  17.774   6.510   8.826
 2223POPC   C2B30404  17.791   6.644   8.401
 2223POPC   C3B30405  17.992   6.431   8.049
 2223POPC   C4B30406  18.181   6.502   7.619
 2224POPC   NC330407  24.398  23.617   9.645
 2224POPC   PO430408  25.054  23.534   9.590
 2224POPC   GL130409  24.764  23.716   9.210
 2224POPC   GL230410  24.346  23.800   9.193
 2224POPC   C1A30411  24.626  23.866   8.794
 2224POPC   D2A30412  24.756  24.035   8.410
 2224POPC   C3A30413  24.496  23.866   8.151
 2224POPC   C4A30414  24.449  23.848   7.765
 2224POPC   C1B30415  24.174  23.520   8.883
 2224POPC   C2B30416  24.194  23.403   8.476
 2224POPC   C3B30417  24.216  23.442   8.061
 2224POPC   C4B30418  24.022  23.615   7.725
 2225POPC   NC330419  33.064  22.182   9.694
 2225POPC   PO430420  32.643  21.963   9.231
 2225POPC   GL130421  32.953  22.178   9.074
 2225POPC   GL230422  33.238  21.990   9.208
 2225POPC   C1A30423  32.830  22.237   8.641
 2225POPC   D2A30424  32.649  22.449   8.305
 2225POPC   C3A30425  32.850  22.335   7.901
 2225POPC   C4A30426  32.706  21.925   7.737
 2225POPC   C1B30427  33.287  21.984   8.734
 2225POPC   C2B30428  33.249  22.215   8.318
 2225POPC   C3B30429  33.340  22.147   7.904
 2225POPC   C4B30430  33.181  22.026   7.538
 2226POPC   NC330431  34.631   3.837   9.567
 2226POPC   PO430432  34.318   3.267   9.504
 2226POPC   GL130433  34.492   3.529   9.172
 2226POPC   GL230434  34.807   3.584   9.134
 2226POPC   C1A30435  34.370   3.537   8.766
 2226POPC   D2A30436  34.360   3.295   8.387
 2226POPC   C3A30437  34.393   3.545   8.009
 2226POPC   C4A30438  34.302   3.628   7.569
 2226POPC   C1B30439  34.869   3.768   8.775
 2226POPC   C2B30440  34.737   3.689   8.398
 2226POPC   C3B30441  34.945   3.591   8.051
 2226POPC   C4B30442  34.817   3.571   7.634
 2227POPC   NC330443   7.663  37.953   9.338
 2227POPC   PO430444   7.258  37.509   9.540
 2227POPC   GL130445   7.377  37.545   9.130
 2227POPC   GL230446   7.276  37.879   8.989
 2227POPC   C1A30447   7.164  37.354   8.782
 2227POPC   D2A30448   6.970  37.371   8.387
 2227POPC   C3A30449   7.209  37.664   8.113
 2227POPC   C4A30450   7.251  37.561   7.677
 2227POPC   C1B30451   7.635  37.706   8.700
 2227POPC   C2B30452   7.884  37.759   8.301
 2227POPC   C3B30453   7.717  37.832   7.892
 2227POPC   C4B30454   7.351  38.047   7.761
 2228POPC   NC330455  23.695  24.081   9.640
 2228POPC   PO430456  23.868  24.699   9.752
 2228POPC   GL130457  24.022  24.532   9.373
 2228POPC   GL230458  23.687  24.559   9.249
 2228POPC   C1A30459  24.041  24.524   8.893
 2228POPC   D2A30460  23.819  24.358   8.510
 2228POPC   C3A30461  23.953  24.605   8.156
 2228POPC   C4A30462  23.888  24.563   7.738
 2228POPC   C1B30463  23.461  24.451   8.858
 2228POPC   C2B30464  23.285  24.406   8.458
 2228POPC   C3B30465  23.485  24.406   8.051
 2228POPC   C4B30466  23.383  24.510   7.635
 2229POPC   NC330467   0.443   1.531   9.463
 2229POPC   PO430468   0.191   2.128   9.568
 2229POPC   GL130469   0.411   2.017   9.206
 2229POPC   GL230470   0.180   1.782   9.062
 2229POPC   C1A30471   0.648   1.975   8.816
 2229POPC   D2A30472   0.477   1.782   8.454
 2229POPC   C3A30473   0.668   1.970   8.091
 2229POPC   C4A30474   0.661   1.785   7.701
 2229POPC   C1B30475   0.169   2.136   8.740
 2229POPC   C2B30476   0.214   2.181   8.282
 2229POPC   C3B30477   0.197   1.842   7.942
 2229POPC   C4B30478   0.210   1.690   7.506
 2230POPC   NC330479  16.808  42.456   9.704
 2230POPC   PO430480  16.511  41.838   9.513
 2230POPC   GL130481  16.661  42.228   9.188
 2230POPC   GL230482  16.739  42.602   9.219
 2230POPC   C1A30483  16.859  42.380   8.783
 2230POPC   D2A30484  16.945  42.512   8.367
 2230POPC   C3A30485  16.730  42.325   7.975
 2230POPC   C4A30486  17.007  42.198   7.666
 2230POPC   C1B30487  16.403  42.565   8.872
 2230POPC   C2B30488  16.438  42.459   8.455
 2230POPC   C3B30489  16.311  42.608   8.083
 2230POPC   C4B30490  16.301  42.441   7.680
 2231POPC   NC330491  41.441  31.426   9.601
 2231POPC   PO430492  41.940  31.739   9.756
 2231POPC   GL130493  41.899  31.753   9.244
 2231POPC   GL230494  41.594  31.565   9.148
 2231POPC   C1A30495  41.831  31.679   8.723
 2231POPC   D2A30496  41.786  31.421   8.325
 2231POPC   C3A30497  41.806  31.629   7.902
 2231POPC   C4A30498  41.824  31.679   7.426
 2231POPC   C1B30499  41.473  31.279   8.790
 2231POPC   C2B30500  41.324  31.096   8.403
 2231POPC   C3B30501  41.397  31.110   7.976
 2231POPC   C4B30502  41.322  31.473   7.771
 2232POPC   NC330503  13.899  23.483   9.618
 2232POPC   PO430504  13.420  23.896   9.432
 2232POPC   GL130505  13.492  23.755   9.060
 2232POPC   GL230506  13.850  23.667   9.140
 2232POPC   C1A30507  13.357  23.905   8.666
 2232POPC   D2A30508  13.535  23.677   8.329
 2232POPC   C3A30509  13.413  23.605   7.934
 2232POPC   C4A30510  13.659  23.375   7.645
 2232POPC   C1B30511  13.894  23.700   8.694
 2232POPC   C2B30512  14.153  23.924   8.388
 2232POPC   C3B30513  14.072  24.065   7.997
 2232POPC   C4B30514  14.110  23.784   7.708
 2233POPC   NC330515   4.752  42.949   9.537
 2233POPC   PO430516   5.292  43.175   9.764
 2233POPC   GL130517   5.229  43.206   9.302
 2233POPC   GL230518   4.910  43.151   9.121
 2233POPC   C1A30519   5.308  43.344   8.879
 2233POPC   D2A30520   5.181  43.074   8.529
 2233POPC   C3A30521   4.931  43.249   8.177
 2233POPC   C4A30522   5.065  43.143   7.785
 2233POPC   C1B30523   4.749  42.997   8.768
 2233POPC   C2B30524   4.745  42.826   8.368
 2233POPC   C3B30525   5.008  42.731   8.071
 2233POPC   C4B30526   4.825  42.709   7.656
 2234POPC   NC330527   7.794  35.491   9.352
 2234POPC   PO430528   8.474  35.515   9.376
 2234POPC   GL130529   8.197  35.411   9.053
 2234POPC   GL230530   7.937  35.670   8.914
 2234POPC   C1A30531   8.296  35.439   8.628
 2234POPC   D2A30532   8.488  35.230   8.308
 2234POPC   C3A30533   8.496  35.397   7.897
 2234POPC   C4A30534   8.318  35.280   7.488
 2234POPC   C1B30535   7.833  35.225   8.749
 2234POPC   C2B30536   7.940  35.145   8.347
 2234POPC   C3B30537   7.945  35.335   7.960
 2234POPC   C4B30538   7.823  34.969   7.732
 2235POPC   NC330539  17.759  12.697   9.450
 2235POPC   PO430540  17.249  13.087   9.598
 2235POPC   GL130541  17.417  13.194   9.179
 2235POPC   GL230542  17.458  12.878   9.094
 2235POPC   C1A30543  17.359  13.186   8.695
 2235POPC   D2A30544  17.321  12.979   8.273
 2235POPC   C3A30545  17.610  13.020   7.897
 2235POPC   C4A30546  17.537  13.063   7.432
 2235POPC   C1B30547  17.376  12.622   8.771
 2235POPC   C2B30548  17.490  12.523   8.417
 2235POPC   C3B30549  17.463  12.498   8.015
 2235POPC   C4B30550  17.704  12.569   7.671
 2236POPC   NC330551  24.011  41.372   9.457
 2236POPC   PO430552  23.540  41.960   9.472
 2236POPC   GL130553  23.685  41.693   9.174
 2236POPC   GL230554  24.012  41.804   9.135
 2236POPC   C1A30555  23.520  41.588   8.773
 2236POPC   D2A30556  23.676  41.490   8.375
 2236POPC   C3A30557  23.454  41.430   8.007
 2236POPC   C4A30558  23.507  41.655   7.644
 2236POPC   C1B30559  24.061  41.536   8.759
 2236POPC   C2B30560  24.175  41.410   8.311
 2236POPC   C3B30561  23.943  41.541   7.930
 2236POPC   C4B30562  23.819  41.283   7.563
 2237POPC   NC330563  28.671  22.374   9.528
 2237POPC   PO430564  28.199  21.933   9.637
 2237POPC   GL130565  28.375  21.987   9.240
 2237POPC   GL230566  28.362  22.307   9.135
 2237POPC   C1A30567  28.267  21.885   8.806
 2237POPC   D2A30568  28.518  21.907   8.410
 2237POPC   C3A30569  28.383  22.205   8.091
 2237POPC   C4A30570  28.325  21.911   7.744
 2237POPC   C1B30571  28.671  22.203   8.803
 2237POPC   C2B30572  28.832  22.327   8.381
 2237POPC   C3B30573  28.881  22.190   7.942
 2237POPC   C4B30574  28.592  22.309   7.605
 2238POPC   NC330575   0.349  15.805   9.422
 2238POPC   PO430576   0.559  15.067   9.540
 2238POPC   GL130577   0.346  15.238   9.205
 2238POPC   GL230578   0.570  15.478   9.086
 2238POPC   C1A30579   0.367  15.119   8.776
 2238POPC   D2A30580   0.566  15.118   8.375
 2238POPC   C3A30581   0.329  15.201   7.997
 2238POPC   C4A30582   0.269  14.960   7.613
 2238POPC   C1B30583   0.158  15.570   8.829
 2238POPC   C2B30584   0.160  15.526   8.394
 2238POPC   C3B30585   0.113  15.664   7.986
 2238POPC   C4B30586  44.962  15.406   7.662
 2239POPC   NC330587   3.418  41.762   9.525
 2239POPC   PO430588   3.759  41.242   9.397
 2239POPC   GL130589   3.643  41.599   9.084
 2239POPC   GL230590   3.321  41.856   9.036
 2239POPC   C1A30591   3.582  41.636   8.644
 2239POPC   D2A30592   3.539  41.368   8.335
 2239POPC   C3A30593   3.656  41.436   7.925
 2239POPC   C4A30594   3.519  41.241   7.594
 2239POPC   C1B30595   3.225  42.049   8.657
 2239POPC   C2B30596   3.322  41.872   8.270
 2239POPC   C3B30597   3.345  41.843   7.847
 2239POPC   C4B30598   3.217  41.629   7.476
 2240POPC   NC330599   9.623   5.286   9.289
 2240POPC   PO430600   9.474   4.716   9.325
 2240POPC   GL130601   9.727   4.754   8.943
 2240POPC   GL230602   9.833   5.089   8.884
 2240POPC   C1A30603   9.828   4.766   8.522
 2240POPC   D2A30604   9.765   5.206   8.375
 2240POPC   C3A30605   9.658   5.261   7.970
 2240POPC   C4A30606   9.652   4.887   7.718
 2240POPC   C1B30607  10.203   5.198   8.637
 2240POPC   C2B30608  10.321   5.590   8.448
 2240POPC   C3B30609  10.103   5.625   8.062
 2240POPC   C4B30610  10.092   5.291   7.721
 2241POPC   NC330611  10.040   0.122   9.294
 2241POPC   PO430612  10.654  44.966   9.606
 2241POPC   GL130613  10.551   0.200   9.249
 2241POPC   GL230614  10.501   0.562   9.295
 2241POPC   C1A30615  10.494   0.183   8.823
 2241POPC   D2A30616  10.596   0.360   8.445
 2241POPC   C3A30617  10.416   0.215   8.098
 2241POPC   C4A30618  10.521   0.325   7.698
 2241POPC   C1B30619  10.543   0.692   8.848
 2241POPC   C2B30620  10.497   0.860   8.396
 2241POPC   C3B30621  10.462   0.733   7.974
 2241POPC   C4B30622  10.610   0.850   7.559
 2242POPC   NC330623  14.031  34.271   9.383
 2242POPC   PO430624  13.489  34.550   9.652
 2242POPC   GL130625  13.625  34.594   9.177
 2242POPC   GL230626  13.812  34.913   9.035
 2242POPC   C1A30627  13.673  34.541   8.717
 2242POPC   D2A30628  13.345  34.386   8.458
 2242POPC   C3A30629  13.448  34.515   8.055
 2242POPC   C4A30630  13.339  34.538   7.627
 2242POPC   C1B30631  13.831  35.066   8.651
 2242POPC   C2B30632  13.673  34.911   8.293
 2242POPC   C3B30633  13.841  34.803   7.889
 2242POPC   C4B30634  14.052  35.010   7.562
 2243POPC   NC330635  33.642  34.044   9.482
 2243POPC   PO430636  33.389  34.672   9.549
 2243POPC   GL130637  33.488  34.823   9.123
 2243POPC   GL230638  33.765  34.566   9.034
 2243POPC   C1A30639  33.557  34.838   8.662
 2243POPC   D2A30640  33.490  34.513   8.335
 2243POPC   C3A30641  33.826  34.557   8.052
 2243POPC   C4A30642  33.953  34.972   7.845
 2243POPC   C1B30643  33.885  34.407   8.652
 2243POPC   C2B30644  33.833  34.035   8.439
 2243POPC   C3B30645  33.577  34.013   8.126
 2243POPC   C4B30646  33.471  34.262   7.792
 2244POPC   NC330647  35.095  30.262   9.497
 2244POPC   PO430648  35.396  29.639   9.515
 2244POPC   GL130649  35.214  29.784   9.158
 2244POPC   GL230650  35.292  30.146   9.040
 2244POPC   C1A30651  35.337  29.716   8.754
 2244POPC   D2A30652  35.376  30.019   8.430
 2244POPC   C3A30653  35.131  29.938   8.074
 2244POPC   C4A30654  35.386  29.658   7.849
 2244POPC   C1B30655  35.599  30.368   8.787
 2244POPC   C2B30656  35.699  30.497   8.390
 2244POPC   C3B30657  35.710  30.229   8.071
 2244POPC   C4B30658  35.479  30.132   7.762
 2245POPC   NC330659   9.252   3.334   9.360
 2245POPC   PO430660   8.779   3.734   9.403
 2245POPC   GL130661   8.632   3.642   9.030
 2245POPC   GL230662   8.733   3.288   9.033
 2245POPC   C1A30663   8.704   3.684   8.582
 2245POPC   D2A30664   9.071   3.826   8.404
 2245POPC   C3A30665   9.164   3.758   7.974
 2245POPC   C4A30666   8.881   3.570   7.701
 2245POPC   C1B30667   9.007   3.308   8.656
 2245POPC   C2B30668   8.949   3.353   8.206
 2245POPC   C3B30669   9.241   3.256   7.865
 2245POPC   C4B30670   9.319   3.333   7.416
 2246POPC   NC330671  39.086  10.772   9.697
 2246POPC   PO430672  39.627  10.467   9.568
 2246POPC   GL130673  39.388  10.680   9.239
 2246POPC   GL230674  39.031  10.612   9.220
 2246POPC   C1A30675  39.255  10.819   8.816
 2246POPC   D2A30676  39.029  10.708   8.443
 2246POPC   C3A30677  39.282  10.609   8.087
 2246POPC   C4A30678  39.125  10.719   7.705
 2246POPC   C1B30679  39.044  10.361   8.838
 2246POPC   C2B30680  39.114  10.193   8.413
 2246POPC   C3B30681  38.896  10.320   8.036
 2246POPC   C4B30682  38.803  10.191   7.599
 2247POPC   NC330683  13.508  40.091   9.538
 2247POPC   PO430684  14.053  39.637   9.512
 2247POPC   GL130685  13.881  39.981   9.209
 2247POPC   GL230686  13.483  39.939   9.067
 2247POPC   C1A30687  13.842  40.140   8.779
 2247POPC   D2A30688  13.570  39.927   8.473
 2247POPC   C3A30689  13.704  39.953   8.033
 2247POPC   C4A30690  13.775  40.329   7.765
 2247POPC   C1B30691  13.327  40.266   8.774
 2247POPC   C2B30692  13.385  40.396   8.338
 2247POPC   C3B30693  13.297  40.260   7.956
 2247POPC   C4B30694  13.262  39.910   7.729
 2248POPC   NC330695  38.852  15.601   9.533
 2248POPC   PO430696  39.195  16.224   9.573
 2248POPC   GL130697  39.161  16.098   9.150
 2248POPC   GL230698  39.151  16.470   9.108
 2248POPC   C1A30699  39.334  15.787   8.801
 2248POPC   D2A30700  39.669  15.603   8.477
 2248POPC   C3A30701  39.496  15.633   8.039
 2248POPC   C4A30702  39.037  15.578   7.937
 2248POPC   C1B30703  38.978  16.322   8.736
 2248POPC   C2B30704  39.215  16.342   8.406
 2248POPC   C3B30705  39.191  16.052   8.105
 2248POPC   C4B30706  39.176  16.022   7.685
 2249POPC   NC330707  41.268  18.056   9.644
 2249POPC   PO430708  41.701  18.567   9.566
 2249POPC   GL130709  41.506  18.357   9.206
 2249POPC   GL230710  41.419  17.992   9.143
 2249POPC   C1A30711  41.550  18.396   8.758
 2249POPC   D2A30712  41.768  18.194   8.409
 2249POPC   C3A30713  41.649  18.376   8.025
 2249POPC   C4A30714  41.490  18.432   7.631
 2249POPC   C1B30715  41.506  17.852   8.690
 2249POPC   C2B30716  41.323  17.992   8.247
 2249POPC   C3B30717  41.431  17.946   7.781
 2249POPC   C4B30718  41.275  18.087   7.335
 2250POPC   NC330719  36.679  27.096   9.558
 2250POPC   PO430720  36.138  26.586   9.569
 2250POPC   GL130721  36.224  26.657   9.176
 2250POPC   GL230722  36.334  26.962   9.206
 2250POPC   C1A30723  35.961  26.607   8.797
 2250POPC   D2A30724  36.065  26.447   8.391
 2250POPC   C3A30725  35.948  26.699   8.046
 2250POPC   C4A30726  35.821  26.679   7.613
 2250POPC   C1B30727  36.402  26.898   8.780
 2250POPC   C2B30728  36.249  26.942   8.393
 2250POPC   C3B30729  36.311  27.053   7.979
 2250POPC   C4B30730  36.013  27.142   7.698
 2251POPC   NC330731  29.050  43.474   9.459
 2251POPC   PO430732  29.332  42.905   9.649
 2251POPC   GL130733  29.286  43.033   9.236
 2251POPC   GL230734  28.953  42.979   9.213
 2251POPC   C1A30735  29.414  43.138   8.811
 2251POPC   D2A30736  29.224  43.104   8.410
 2251POPC   C3A30737  29.422  43.158   8.033
 2251POPC   C4A30738  29.490  43.070   7.607
 2251POPC   C1B30739  28.899  43.152   8.819
 2251POPC   C2B30740  28.792  43.373   8.433
 2251POPC   C3B30741  28.794  43.120   8.090
 2251POPC   C4B30742  28.942  43.163   7.703
 2252POPC   NC330743   3.364  22.545   9.148
 2252POPC   PO430744   3.244  22.101   9.653
 2252POPC   GL130745   3.544  22.072   9.149
 2252POPC   GL230746   3.864  22.280   9.175
 2252POPC   C1A30747   3.395  22.228   8.612
 2252POPC   D2A30748   3.264  22.483   8.225
 2252POPC   C3A30749   3.412  22.247   7.851
 2252POPC   C4A30750   3.368  21.790   7.761
 2252POPC   C1B30751   3.866  22.091   8.757
 2252POPC   C2B30752   3.804  22.185   8.322
 2252POPC   C3B30753   3.818  21.940   7.950
 2252POPC   C4B30754   3.863  22.100   7.540
 2253POPC   NC330755  34.173  14.238   9.610
 2253POPC   PO430756  33.718  14.690   9.745
 2253POPC   GL130757  33.875  14.595   9.335
 2253POPC   GL230758  33.739  14.822   9.110
 2253POPC   C1A30759  34.086  14.416   8.953
 2253POPC   D2A30760  33.936  14.340   8.526
 2253POPC   C3A30761  34.005  14.450   8.061
 2253POPC   C4A30762  33.778  14.315   7.669
 2253POPC   C1B30763  33.566  14.418   8.926
 2253POPC   C2B30764  33.424  14.276   8.523
 2253POPC   C3B30765  33.466  14.369   8.094
 2253POPC   C4B30766  33.556  14.767   7.856
 2254POPC   NC330767  19.381  24.405   9.229
 2254POPC   PO430768  18.960  24.748   9.676
 2254POPC   GL130769  18.918  24.820   9.180
 2254POPC   GL230770  18.877  24.475   9.122
 2254POPC   C1A30771  19.141  24.697   8.720
 2254POPC   D2A30772  19.367  24.307   8.500
 2254POPC   C3A30773  19.357  24.349   8.027
 2254POPC   C4A30774  19.090  24.699   7.849
 2254POPC   C1B30775  18.808  24.283   8.719
 2254POPC   C2B30776  18.873  24.425   8.291
 2254POPC   C3B30777  18.843  24.232   7.852
 2254POPC   C4B30778  18.592  24.323   7.470
 2255POPC   NC330779   3.384  16.185   9.667
 2255POPC   PO430780   3.512  16.860   9.671
 2255POPC   GL130781   3.685  16.788   9.284
 2255POPC   GL230782   3.668  16.419   9.285
 2255POPC   C1A30783   3.533  16.825   8.857
 2255POPC   D2A30784   3.314  16.682   8.482
 2255POPC   C3A30785   3.513  16.886   8.149
 2255POPC   C4A30786   3.433  16.863   7.731
 2255POPC   C1B30787   3.734  16.338   8.837
 2255POPC   C2B30788   3.695  16.220   8.391
 2255POPC   C3B30789   3.622  16.421   7.981
 2255POPC   C4B30790   3.752  16.473   7.536
 2256POPC   NC330791  40.944  43.822   9.437
 2256POPC   PO430792  40.358  43.969   9.673
 2256POPC   GL130793  40.436  43.791   9.223
 2256POPC   GL230794  40.731  43.905   9.003
 2256POPC   C1A30795  40.312  43.890   8.778
 2256POPC   D2A30796  40.569  43.995   8.424
 2256POPC   C3A30797  40.420  43.870   8.005
 2256POPC   C4A30798  40.593  43.893   7.583
 2256POPC   C1B30799  40.975  43.756   8.681
 2256POPC   C2B30800  41.060  43.888   8.294
 2256POPC   C3B30801  40.969  43.770   7.907
 2256POPC   C4B30802  41.131  44.109   7.673
 2257POPC   NC330803  36.291  23.074   9.471
 2257POPC   PO430804  35.762  22.717   9.554
 2257POPC   GL130805  36.049  22.770   9.139
 2257POPC   GL230806  36.136  23.142   9.002
 2257POPC   C1A30807  36.076  22.743   8.675
 2257POPC   D2A30808  35.792  22.566   8.354
 2257POPC   C3A30809  35.890  22.619   7.908
 2257POPC   C4A30810  36.179  22.886   7.703
 2257POPC   C1B30811  36.165  23.274   8.590
 2257POPC   C2B30812  36.192  23.060   8.195
 2257POPC   C3B30813  36.107  23.345   7.869
 2257POPC   C4B30814  36.327  23.324   7.478
 2258POPC   NC330815  13.745  37.814   9.494
 2258POPC   PO430816  13.971  37.207   9.579
 2258POPC   GL130817  13.786  37.381   9.137
 2258POPC   GL230818  13.569  37.709   9.039
 2258POPC   C1A30819  13.826  37.510   8.666
 2258POPC   D2A30820  13.957  37.892   8.494
 2258POPC   C3A30821  13.856  37.874   8.062
 2258POPC   C4A30822  13.635  37.729   7.701
 2258POPC   C1B30823  13.334  37.448   8.751
 2258POPC   C2B30824  13.394  37.448   8.300
 2258POPC   C3B30825  13.237  37.433   7.846
 2258POPC   C4B30826  13.179  37.672   7.451
 2259POPC   NC330827  30.307  22.449   9.783
 2259POPC   PO430828  30.969  22.398   9.538
 2259POPC   GL130829  30.810  22.191   9.147
 2259POPC   GL230830  30.828  21.857   9.177
 2259POPC   C1A30831  30.574  22.271   8.729
 2259POPC   D2A30832  30.451  22.550   8.393
 2259POPC   C3A30833  30.629  22.467   8.001
 2259POPC   C4A30834  30.445  22.158   7.768
 2259POPC   C1B30835  30.634  21.762   8.750
 2259POPC   C2B30836  30.601  21.969   8.311
 2259POPC   C3B30837  30.888  21.994   7.942
 2259POPC   C4B30838  31.040  21.834   7.520
 2260POPC   NC330839  21.658  18.436   9.494
 2260POPC   PO430840  21.243  18.009   9.657
 2260POPC   GL130841  21.265  17.999   9.204
 2260POPC   GL230842  21.275  18.346   9.135
 2260POPC   C1A30843  21.419  17.920   8.788
 2260POPC   D2A30844  21.657  17.867   8.418
 2260POPC   C3A30845  21.423  17.955   8.084
 2260POPC   C4A30846  21.444  18.149   7.746
 2260POPC   C1B30847  21.092  18.573   8.783
 2260POPC   C2B30848  20.931  18.533   8.346
 2260POPC   C3B30849  21.151  18.536   7.933
 2260POPC   C4B30850  21.547  18.645   7.715
 2261POPC   NC330851  13.422  44.545   9.494
 2261POPC   PO430852  14.078  44.652   9.636
 2261POPC   GL130853  13.883  44.558   9.215
 2261POPC   GL230854  13.603  44.778   9.075
 2261POPC   C1A30855  13.864  44.417   8.793
 2261POPC   D2A30856  13.640  44.628   8.502
 2261POPC   C3A30857  13.902  44.665   8.183
 2261POPC   C4A30858  13.930  44.386   7.894
 2261POPC   C1B30859  13.498   0.059   8.734
 2261POPC   C2B30860  13.310   0.021   8.361
 2261POPC   C3B30861  13.443  44.812   8.023
 2261POPC   C4B30862  13.735  44.794   7.689
 2262POPC   NC330863  34.407  42.762   9.404
 2262POPC   PO430864  34.772  43.359   9.462
 2262POPC   GL130865  34.560  43.178   9.133
 2262POPC   GL230866  34.732  42.890   9.041
 2262POPC   C1A30867  34.403  43.080   8.729
 2262POPC   D2A30868  34.591  43.086   8.339
 2262POPC   C3A30869  34.367  43.130   7.962
 2262POPC   C4A30870  34.369  43.479   7.682
 2262POPC   C1B30871  35.003  42.844   8.696
 2262POPC   C2B30872  34.981  42.781   8.263
 2262POPC   C3B30873  34.896  43.027   7.887
 2262POPC   C4B30874  34.723  43.046   7.459
 2263POPC   NC330875  15.966  11.293   9.720
 2263POPC   PO430876  15.399  11.655   9.757
 2263POPC   GL130877  15.671  11.535   9.358
 2263POPC   GL230878  16.042  11.622   9.296
 2263POPC   C1A30879  15.730  11.640   8.891
 2263POPC   D2A30880  15.856  11.440   8.517
 2263POPC   C3A30881  15.894  11.589   8.124
 2263POPC   C4A30882  15.710  11.371   7.795
 2263POPC   C1B30883  16.209  11.374   8.902
 2263POPC   C2B30884  16.283  11.192   8.453
 2263POPC   C3B30885  15.983  11.065   8.120
 2263POPC   C4B30886  15.974  10.954   7.662
 2264POPC   NC330887  13.707   0.503   9.529
 2264POPC   PO430888  13.457   1.066   9.530
 2264POPC   GL130889  13.428   0.759   9.178
 2264POPC   GL230890  13.471   0.368   9.115
 2264POPC   C1A30891  13.757   0.678   8.847
 2264POPC   D2A30892  13.988   0.641   8.474
 2264POPC   C3A30893  13.851   0.798   8.109
 2264POPC   C4A30894  13.892   0.676   7.707
 2264POPC   C1B30895  13.267   0.534   8.747
 2264POPC   C2B30896  13.510   0.504   8.390
 2264POPC   C3B30897  13.639   0.306   8.033
 2264POPC   C4B30898  13.215   0.259   7.870
 2265POPC   NC330899   1.246   6.968   9.528
 2265POPC   PO430900   1.146   7.629   9.537
 2265POPC   GL130901   1.354   7.586   9.172
 2265POPC   GL230902   1.508   7.260   9.197
 2265POPC   C1A30903   1.136   7.642   8.792
 2265POPC   D2A30904   0.866   7.620   8.459
 2265POPC   C3A30905   1.033   7.642   8.064
 2265POPC   C4A30906   1.232   7.634   7.668
 2265POPC   C1B30907   1.245   7.152   8.819
 2265POPC   C2B30908   1.288   7.309   8.393
 2265POPC   C3B30909   1.232   7.180   7.970
 2265POPC   C4B30910   1.377   6.823   7.747
 2266POPC   NC330911  43.571   0.539   9.475
 2266POPC   PO430912  43.162   0.054   9.754
 2266POPC   GL130913  43.085   0.214   9.276
 2266POPC   GL230914  43.083   0.589   9.266
 2266POPC   C1A30915  43.043   0.340   8.836
 2266POPC   D2A30916  42.933   0.289   8.422
 2266POPC   C3A30917  42.984   0.373   7.992
 2266POPC   C4A30918  43.353   0.287   7.804
 2266POPC   C1B30919  43.109   0.826   8.834
 2266POPC   C2B30920  43.206   0.951   8.427
 2266POPC   C3B30921  43.290   0.756   8.050
 2266POPC   C4B30922  43.025   0.910   7.796
 2267POPC   NC330923  38.486  39.986   9.550
 2267POPC   PO430924  39.021  40.372   9.477
 2267POPC   GL130925  38.652  40.155   9.121
 2267POPC   GL230926  38.310  39.977   9.086
 2267POPC   C1A30927  38.625  39.971   8.694
 2267POPC   D2A30928  38.793  39.928   8.292
 2267POPC   C3A30929  38.592  39.903   7.901
 2267POPC   C4A30930  38.543  40.137   7.519
 2267POPC   C1B30931  38.194  40.278   8.777
 2267POPC   C2B30932  38.366  40.294   8.353
 2267POPC   C3B30933  38.263  40.279   7.959
 2267POPC   C4B30934  38.103  39.969   7.738
 2268POPC   NC330935   6.343  28.301   9.503
 2268POPC   PO430936   5.656  28.186   9.485
 2268POPC   GL130937   5.792  28.357   9.129
 2268POPC   GL230938   6.044  28.587   9.193
 2268POPC   C1A30939   5.682  28.378   8.715
 2268POPC   D2A30940   5.862  28.567   8.369
 2268POPC   C3A30941   5.800  28.519   7.964
 2268POPC   C4A30942   5.914  28.188   7.755
 2268POPC   C1B30943   6.152  28.640   8.792
 2268POPC   C2B30944   6.377  28.403   8.494
 2268POPC   C3B30945   6.279  28.335   8.088
 2268POPC   C4B30946   6.244  28.677   7.789
 2269POPC   NC330947  33.923  20.594   9.739
 2269POPC   PO430948  34.490  20.664   9.549
 2269POPC   GL130949  34.485  20.709   9.151
 2269POPC   GL230950  34.751  20.937   9.124
 2269POPC   C1A30951  34.630  20.584   8.760
 2269POPC   D2A30952  34.560  20.854   8.455
 2269POPC   C3A30953  34.349  20.696   8.110
 2269POPC   C4A30954  34.211  20.629   7.684
 2269POPC   C1B30955  34.982  20.948   8.794
 2269POPC   C2B30956  35.075  20.692   8.480
 2269POPC   C3B30957  34.826  20.478   8.193
 2269POPC   C4B30958  34.736  20.594   7.779
 2270POPC   NC330959   8.387  37.409   9.387
 2270POPC   PO430960   8.116  38.087   9.375
 2270POPC   GL130961   8.186  37.804   9.088
 2270POPC   GL230962   7.921  37.563   9.104
 2270POPC   C1A30963   8.192  37.974   8.691
 2270POPC   D2A30964   8.479  38.066   8.358
 2270POPC   C3A30965   8.464  37.780   8.047
 2270POPC   C4A30966   8.602  37.410   7.893
 2270POPC   C1B30967   8.120  37.470   8.697
 2270POPC   C2B30968   8.210  37.350   8.240
 2270POPC   C3B30969   8.090  37.472   7.813
 2270POPC   C4B30970   8.077  37.510   7.338
 2271POPC   NC330971   4.008  43.155   9.550
 2271POPC   PO430972   4.621  43.424   9.473
 2271POPC   GL130973   4.362  43.080   9.163
 2271POPC   GL230974   3.971  42.906   9.127
 2271POPC   C1A30975   4.262  42.915   8.721
 2271POPC   D2A30976   4.406  43.211   8.390
 2271POPC   C3A30977   4.475  43.037   7.982
 2271POPC   C4A30978   4.110  42.899   7.773
 2271POPC   C1B30979   3.915  43.277   8.855
 2271POPC   C2B30980   3.786  43.314   8.404
 2271POPC   C3B30981   4.038  43.352   8.014
 2271POPC   C4B30982   4.140  43.392   7.549
 2272POPC   NC330983  19.203   2.446   9.522
 2272POPC   PO430984  18.990   2.997   9.553
 2272POPC   GL130985  19.270   2.843   9.220
 2272POPC   GL230986  18.982   2.831   9.000
 2272POPC   C1A30987  19.439   2.895   8.805
 2272POPC   D2A30988  19.122   2.816   8.493
 2272POPC   C3A30989  19.305   2.821   8.100
 2272POPC   C4A30990  19.192   2.934   7.679
 2272POPC   C1B30991  18.711   2.530   8.721
 2272POPC   C2B30992  18.624   2.389   8.286
 2272POPC   C3B30993  18.903   2.543   7.934
 2272POPC   C4B30994  18.901   2.521   7.457
 2273POPC   NC330995  37.420  13.460   9.587
 2273POPC   PO430996  38.002  13.683   9.870
 2273POPC   GL130997  37.857  13.737   9.369
 2273POPC   GL230998  37.513  13.741   9.186
 2273POPC   C1A30999  37.934  13.656   8.894
 2273POPC   D2A31000  37.849  13.696   8.440
 2273POPC   C3A31001  37.854  13.385   8.118
 2273POPC   C4A31002  37.894  13.560   7.714
 2273POPC   C1B31003  37.329  13.536   8.815
 2273POPC   C2B31004  37.344  13.515   8.373
 2273POPC   C3B31005  37.418  13.601   7.941
 2273POPC   C4B31006  37.504  13.193   7.755
 2274POPC   NC331007  11.261  37.338   9.546
 2274POPC   PO431008  11.076  36.682   9.519
 2274POPC   GL131009  11.250  36.818   9.110
 2274POPC   GL231010  11.366  37.135   9.078
 2274POPC   C1A31011  11.272  36.821   8.653
 2274POPC   D2A31012  11.437  37.110   8.394
 2274POPC   C3A31013  11.423  36.900   8.019
 2274POPC   C4A31014  11.272  37.053   7.639
 2274POPC   C1B31015  11.001  37.229   8.785
 2274POPC   C2B31016  10.852  37.076   8.413
 2274POPC   C3B31017  10.990  37.215   8.041
 2274POPC   C4B31018  10.848  37.412   7.690
 2275POPC   NC331019  28.720  12.660   9.420
 2275POPC   PO431020  28.088  12.739   9.566
 2275POPC   GL131021  28.298  12.900   9.172
 2275POPC   GL231022  28.613  12.900   8.935
 2275POPC   C1A31023  28.200  12.739   8.726
 2275POPC   D2A31024  28.502  12.671   8.416
 2275POPC   C3A31025  28.456  12.925   8.059
 2275POPC   C4A31026  28.417  13.160   7.683
 2275POPC   C1B31027  28.891  12.572   8.820
 2275POPC   C2B31028  28.990  12.430   8.454
 2275POPC   C3B31029  28.884  12.612   8.071
 2275POPC   C4B31030  28.675  12.606   7.700
 2276POPC   NC331031  29.778  35.247   9.357
 2276POPC   PO431032  29.765  35.855   9.716
 2276POPC   GL131033  29.933  35.776   9.265
 2276POPC   GL231034  30.152  35.556   9.160
 2276POPC   C1A31035  29.865  35.719   8.777
 2276POPC   D2A31036  29.742  35.355   8.530
 2276POPC   C3A31037  29.625  35.297   8.130
 2276POPC   C4A31038  29.773  35.238   7.748
 2276POPC   C1B31039  30.187  35.308   8.776
 2276POPC   C2B31040  30.234  35.528   8.404
 2276POPC   C3B31041  30.148  35.371   8.037
 2276POPC   C4B31042  30.180  35.500   7.617
 2277POPC   NC331043  16.090   8.660   9.491
 2277POPC   PO431044  15.912   9.315   9.460
 2277POPC   GL131045  15.770   8.961   9.219
 2277POPC   GL231046  15.483   9.075   9.069
 2277POPC   C1A31047  15.853   8.851   8.777
 2277POPC   D2A31048  15.973   9.200   8.492
 2277POPC   C3A31049  16.115   9.087   8.076
 2277POPC   C4A31050  16.160   8.719   7.819
 2277POPC   C1B31051  15.470   9.225   8.642
 2277POPC   C2B31052  15.550   9.144   8.200
 2277POPC   C3B31053  15.674   9.039   7.813
 2277POPC   C4B31054  15.651   9.289   7.481
 2278POPC   NC331055   5.543   1.033   9.413
 2278POPC   PO431056   6.218   1.377   9.498
 2278POPC   GL131057   6.051   1.088   9.213
 2278POPC   GL231058   5.788   1.297   9.055
 2278POPC   C1A31059   6.068   0.972   8.775
 2278POPC   D2A31060   5.828   1.019   8.400
 2278POPC   C3A31061   5.935   1.294   8.050
 2278POPC   C4A31062   6.099   1.178   7.654
 2278POPC   C1B31063   5.459   1.171   8.767
 2278POPC   C2B31064   5.318   1.009   8.364
 2278POPC   C3B31065   5.508   0.995   7.984
 2278POPC   C4B31066   5.585   1.239   7.654
 2279POPC   NC331067  13.221  15.017   9.584
 2279POPC   PO431068  12.574  14.969   9.384
 2279POPC   GL131069  12.743  15.311   9.129
 2279POPC   GL231070  13.067  15.189   9.128
 2279POPC   C1A31071  12.903  15.359   8.689
 2279POPC   D2A31072  12.639  15.126   8.415
 2279POPC   C3A31073  12.773  15.262   8.033
 2279POPC   C4A31074  12.658  15.053   7.692
 2279POPC   C1B31075  13.042  14.894   8.763
 2279POPC   C2B31076  13.118  14.998   8.360
 2279POPC   C3B31077  12.994  14.810   8.004
 2279POPC   C4B31078  13.127  14.836   7.625
 2280POPC   NC331079  40.123   5.949   9.621
 2280POPC   PO431080  39.551   6.064   9.433
 2280POPC   GL131081  39.906   5.925   9.146
 2280POPC   GL231082  40.188   6.181   9.129
 2280POPC   C1A31083  40.036   5.684   8.756
 2280POPC   D2A31084  39.777   5.542   8.389
 2280POPC   C3A31085  39.866   5.769   7.991
 2280POPC   C4A31086  40.272   5.760   7.774
 2280POPC   C1B31087  40.071   6.187   8.663
 2280POPC   C2B31088  40.257   6.001   8.258
 2280POPC   C3B31089  40.354   6.238   7.839
 2280POPC   C4B31090  40.343   6.083   7.375
 2281POPC   NC331091  14.483  28.610   9.480
 2281POPC   PO431092  13.964  28.181   9.407
 2281POPC   GL131093  14.176  28.368   9.091
 2281POPC   GL231094  14.538  28.350   9.055
 2281POPC   C1A31095  14.199  28.270   8.664
 2281POPC   D2A31096  14.354  27.979   8.370
 2281POPC   C3A31097  14.263  28.098   7.921
 2281POPC   C4A31098  14.143  28.114   7.464
 2281POPC   C1B31099  14.716  28.309   8.660
 2281POPC   C2B31100  14.858  28.125   8.295
 2281POPC   C3B31101  14.920  28.196   7.877
 2281POPC   C4B31102  14.643  28.157   7.567
 2282POPC   NC331103  22.023  33.448   9.541
 2282POPC   PO431104  22.427  33.925   9.454
 2282POPC   GL131105  22.249  33.745   9.130
 2282POPC   GL231106  22.309  33.401   9.115
 2282POPC   C1A31107  22.323  33.738   8.711
 2282POPC   D2A31108  22.255  33.899   8.334
 2282POPC   C3A31109  22.429  33.729   7.967
 2282POPC   C4A31110  22.127  33.823   7.686
 2282POPC   C1B31111  22.073  33.311   8.732
 2282POPC   C2B31112  22.157  33.358   8.259
 2282POPC   C3B31113  21.992  33.327   7.817
 2282POPC   C4B31114  21.904  33.484   7.381
 2283POPC   NC331115  17.831   0.604   9.412
 2283POPC   PO431116  18.490   0.475   9.427
 2283POPC   GL131117  18.383   0.200   9.114
 2283POPC   GL231118  17.995   0.136   9.166
 2283POPC   C1A31119  18.499   0.370   8.692
 2283POPC   D2A31120  18.185   0.575   8.419
 2283POPC   C3A31121  18.389   0.547   8.025
 2283POPC   C4A31122  18.210   0.746   7.700
 2283POPC   C1B31123  18.074   0.118   8.701
 2283POPC   C2B31124  18.156   0.104   8.243
 2283POPC   C3B31125  17.945   0.346   7.903
 2283POPC   C4B31126  17.943   0.401   7.451
 2284POPC   NC331127  39.520  28.284   9.605
 2284POPC   PO431128  39.192  28.833   9.366
 2284POPC   GL131129  39.207  28.564   9.063
 2284POPC   GL231130  39.433  28.317   9.115
 2284POPC   C1A31131  39.327  28.599   8.656
 2284POPC   D2A31132  39.041  28.749   8.351
 2284POPC   C3A31133  39.139  28.646   7.928
 2284POPC   C4A31134  39.139  28.500   7.506
 2284POPC   C1B31135  39.197  28.108   8.820
 2284POPC   C2B31136  39.347  28.110   8.425
 2284POPC   C3B31137  39.181  28.139   8.033
 2284POPC   C4B31138  39.379  28.085   7.666
 2285POPC   NC331139  41.783  41.232   9.510
 2285POPC   PO431140  41.219  40.887   9.547
 2285POPC   GL131141  41.341  40.785   9.143
 2285POPC   GL231142  41.647  40.568   9.170
 2285POPC   C1A31143  41.302  40.765   8.694
 2285POPC   D2A31144  41.289  40.723   8.256
 2285POPC   C3A31145  41.357  41.113   8.044
 2285POPC   C4A31146  41.545  41.133   7.633
 2285POPC   C1B31147  41.756  40.912   8.870
 2285POPC   C2B31148  41.828  40.818   8.455
 2285POPC   C3B31149  41.836  40.949   8.050
 2285POPC   C4B31150  41.988  40.853   7.688
 2286POPC   NC331151   8.121  32.177   9.519
 2286POPC   PO431152   8.753  32.371   9.560
 2286POPC   GL131153   8.452  32.438   9.205
 2286POPC   GL231154   8.379  32.076   9.100
 2286POPC   C1A31155   8.222  32.477   8.801
 2286POPC   D2A31156   8.211  32.263   8.394
 2286POPC   C3A31157   8.200  32.471   8.000
 2286POPC   C4A31158   8.434  32.412   7.587
 2286POPC   C1B31159   8.038  31.979   8.821
 2286POPC   C2B31160   7.725  32.134   8.530
 2286POPC   C3B31161   7.769  32.143   8.086
 2286POPC   C4B31162   8.012  32.116   7.705
 2287POPC   NC331163  32.575  30.706   9.568
 2287POPC   PO431164  31.981  30.814   9.198
 2287POPC   GL131165  32.377  30.697   9.076
 2287POPC   GL231166  32.467  30.346   9.081
 2287POPC   C1A31167  32.420  30.715   8.643
 2287POPC   D2A31168  32.381  31.055   8.370
 2287POPC   C3A31169  32.021  30.949   8.107
 2287POPC   C4A31170  32.092  30.882   7.670
 2287POPC   C1B31171  32.719  30.299   8.708
 2287POPC   C2B31172  32.731  30.459   8.286
 2287POPC   C3B31173  32.469  30.672   7.957
 2287POPC   C4B31174  32.411  30.515   7.518
 2288POPC   NC331175  24.191   1.255   9.546
 2288POPC   PO431176  24.691   1.614   9.718
 2288POPC   GL131177  24.607   1.287   9.249
 2288POPC   GL231178  24.291   1.429   9.084
 2288POPC   C1A31179  24.665   1.301   8.738
 2288POPC   D2A31180  24.372   1.519   8.462
 2288POPC   C3A31181  24.485   1.465   8.038
 2288POPC   C4A31182  24.745   1.442   7.700
 2288POPC   C1B31183  24.252   1.064   8.886
 2288POPC   C2B31184  24.299   0.978   8.467
 2288POPC   C3B31185  24.150   1.083   8.052
 2288POPC   C4B31186  24.416   1.018   7.734
 2289POPC   NC331187  34.785   8.379   9.646
 2289POPC   PO431188  34.419   7.847   9.618
 2289POPC   GL131189  34.567   7.944   9.191
 2289POPC   GL231190  34.814   7.991   8.973
 2289POPC   C1A31191  34.350   8.081   8.798
 2289POPC   D2A31192  34.225   7.960   8.393
 2289POPC   C3A31193  34.465   8.236   8.093
 2289POPC   C4A31194  34.438   8.535   7.720
 2289POPC   C1B31195  34.809   8.237   8.589
 2289POPC   C2B31196  35.063   8.219   8.213
 2289POPC   C3B31197  35.164   8.143   7.774
 2289POPC   C4B31198  34.995   8.069   7.368
 2290POPC   NC331199  44.773  31.972   9.632
 2290POPC   PO431200  44.249  32.261   9.431
 2290POPC   GL131201  44.410  32.178   9.066
 2290POPC   GL231202  44.402  31.833   9.140
 2290POPC   C1A31203  44.575  32.344   8.677
 2290POPC   D2A31204  44.671  32.588   8.321
 2290POPC   C3A31205  44.648  32.311   7.997
 2290POPC   C4A31206  44.682  32.356   7.591
 2290POPC   C1B31207  44.822  31.919   8.929
 2290POPC   C2B31208   0.004  32.066   8.557
 2290POPC   C3B31209  44.979  31.970   8.156
 2290POPC   C4B31210  44.960  31.950   7.731
 2291POPC   NC331211  34.954  22.445   9.488
 2291POPC   PO431212  35.263  21.851   9.574
 2291POPC   GL131213  35.038  22.021   9.181
 2291POPC   GL231214  35.134  21.730   9.097
 2291POPC   C1A31215  35.006  22.132   8.706
 2291POPC   D2A31216  35.410  22.224   8.468
 2291POPC   C3A31217  35.390  22.361   8.050
 2291POPC   C4A31218  35.015  22.313   7.749
 2291POPC   C1B31219  35.394  21.840   8.806
 2291POPC   C2B31220  35.161  21.764   8.397
 2291POPC   C3B31221  35.179  21.888   7.986
 2291POPC   C4B31222  35.504  21.977   7.715
 2292POPC   NC331223   2.599  14.819   9.339
 2292POPC   PO431224   3.135  15.300   9.502
 2292POPC   GL131225   2.995  15.367   9.105
 2292POPC   GL231226   2.650  15.261   9.098
 2292POPC   C1A31227   3.042  15.193   8.711
 2292POPC   D2A31228   2.868  15.067   8.363
 2292POPC   C3A31229   2.623  15.268   8.127
 2292POPC   C4A31230   2.861  15.123   7.771
 2292POPC   C1B31231   2.454  15.146   8.708
 2292POPC   C2B31232   2.419  14.804   8.424
 2292POPC   C3B31233   2.578  14.772   8.039
 2292POPC   C4B31234   2.459  14.800   7.642
 2293POPC   NC331235   7.931  12.220   9.569
 2293POPC   PO431236   7.448  11.841   9.510
 2293POPC   GL131237   7.623  11.947   9.135
 2293POPC   GL231238   7.874  11.855   9.087
 2293POPC   C1A31239   7.593  11.988   8.674
 2293POPC   D2A31240   7.303  11.876   8.324
 2293POPC   C3A31241   7.131  12.189   8.057
 2293POPC   C4A31242   7.370  11.997   7.763
 2293POPC   C1B31243   7.845  12.353   8.938
 2293POPC   C2B31244   7.614  12.485   8.559
 2293POPC   C3B31245   7.621  12.276   8.156
 2293POPC   C4B31246   7.601  12.434   7.745
 2294POPC   NC331247   4.678   1.384   9.489
 2294POPC   PO431248   5.362   1.458   9.371
 2294POPC   GL131249   5.046   1.341   9.056
 2294POPC   GL231250   4.765   1.183   9.036
 2294POPC   C1A31251   5.010   1.352   8.605
 2294POPC   D2A31252   5.371   1.542   8.406
 2294POPC   C3A31253   5.371   1.517   8.007
 2294POPC   C4A31254   5.099   1.423   7.672
 2294POPC   C1B31255   4.691   0.963   8.668
 2294POPC   C2B31256   4.822   0.982   8.286
 2294POPC   C3B31257   4.981   0.993   7.908
 2294POPC   C4B31258   4.812   0.780   7.567
 2295POPC   NC331259  40.096  22.257   9.567
 2295POPC   PO431260  39.703  21.775   9.369
 2295POPC   GL131261  39.985  22.046   9.122
 2295POPC   GL231262  39.904  22.423   9.070
 2295POPC   C1A31263  40.102  22.128   8.718
 2295POPC   D2A31264  39.852  22.198   8.381
 2295POPC   C3A31265  40.094  22.425   8.106
 2295POPC   C4A31266  40.163  22.261   7.744
 2295POPC   C1B31267  39.727  22.590   8.662
 2295POPC   C2B31268  39.627  22.621   8.205
 2295POPC   C3B31269  39.763  22.626   7.750
 2295POPC   C4B31270  39.553  22.672   7.301
 2296POPC   NC331271  21.592  26.711   9.418
 2296POPC   PO431272  21.087  27.070   9.744
 2296POPC   GL131273  21.048  26.865   9.265
 2296POPC   GL231274  21.171  26.521   9.131
 2296POPC   C1A31275  21.162  26.896   8.788
 2296POPC   D2A31276  21.498  26.948   8.458
 2296POPC   C3A31277  21.396  27.117   8.049
 2296POPC   C4A31278  21.045  26.924   7.849
 2296POPC   C1B31279  21.527  26.531   8.803
 2296POPC   C2B31280  21.501  26.423   8.369
 2296POPC   C3B31281  21.563  26.639   7.988
 2296POPC   C4B31282  21.697  26.551   7.580
 2297POPC   NC331283   4.746   5.635   9.640
 2297POPC   PO431284   5.276   6.023   9.716
 2297POPC   GL131285   5.011   5.962   9.274
 2297POPC   GL231286   5.013   5.622   9.199
 2297POPC   C1A31287   4.962   6.031   8.772
 2297POPC   D2A31288   4.723   6.101   8.331
 2297POPC   C3A31289   4.948   6.162   7.911
 2297POPC   C4A31290   5.126   5.848   7.626
 2297POPC   C1B31291   4.746   5.556   8.862
 2297POPC   C2B31292   4.617   5.598   8.416
 2297POPC   C3B31293   4.868   5.663   8.046
 2297POPC   C4B31294   5.297   5.518   7.966
 2298POPC   NC331295  15.697   1.774   9.174
 2298POPC   PO431296  16.132   2.023   9.621
 2298POPC   GL131297  16.058   2.220   9.181
 2298POPC   GL231298  15.695   2.276   9.101
 2298POPC   C1A31299  16.203   2.136   8.748
 2298POPC   D2A31300  16.148   1.782   8.482
 2298POPC   C3A31301  16.361   1.792   8.098
 2298POPC   C4A31302  16.214   1.758   7.676
 2298POPC   C1B31303  15.708   2.191   8.648
 2298POPC   C2B31304  15.892   2.150   8.229
 2298POPC   C3B31305  15.895   2.150   7.771
 2298POPC   C4B31306  15.709   2.166   7.350
 2299POPC   NC331307  32.865  10.181   9.486
 2299POPC   PO431308  33.254  10.795   9.561
 2299POPC   GL131309  33.311  10.676   9.140
 2299POPC   GL231310  33.079  10.425   9.102
 2299POPC   C1A31311  33.178  10.716   8.719
 2299POPC   D2A31312  32.949  10.555   8.410
 2299POPC   C3A31313  33.072  10.660   8.004
 2299POPC   C4A31314  32.887  10.515   7.627
 2299POPC   C1B31315  32.721  10.330   8.836
 2299POPC   C2B31316  32.554  10.221   8.444
 2299POPC   C3B31317  32.693  10.279   8.046
 2299POPC   C4B31318  32.525  10.174   7.675
 2300POPC   NC331319  15.695  32.223   9.534
 2300POPC   PO431320  16.431  32.210   9.596
 2300POPC   GL131321  16.106  32.309   9.235
 2300POPC   GL231322  15.897  32.605   9.252
 2300POPC   C1A31323  16.121  32.167   8.806
 2300POPC   D2A31324  16.269  32.039   8.401
 2300POPC   C3A31325  16.127  32.147   7.988
 2300POPC   C4A31326  16.146  31.948   7.575
 2300POPC   C1B31327  15.857  32.593   8.794
 2300POPC   C2B31328  16.039  32.504   8.375
 2300POPC   C3B31329  15.933  32.633   7.953
 2300POPC   C4B31330  15.742  32.743   7.557
 2301POPC   NC331331  33.047  34.397   9.703
 2301POPC   PO431332  32.660  34.903   9.644
 2301POPC   GL131333  32.705  34.528   9.360
 2301POPC   GL231334  32.987  34.686   9.223
 2301POPC   C1A31335  32.834  34.281   8.976
 2301POPC   D2A31336  32.872  34.225   8.531
 2301POPC   C3A31337  33.081  34.288   8.140
 2301POPC   C4A31338  32.977  34.331   7.732
 2301POPC   C1B31339  33.099  34.657   8.779
 2301POPC   C2B31340  32.955  34.726   8.360
 2301POPC   C3B31341  32.909  34.819   7.933
 2301POPC   C4B31342  33.320  34.748   7.794
 2302POPC   NC331343  34.934   6.200   9.487
 2302POPC   PO431344  34.390   5.809   9.540
 2302POPC   GL131345  34.306   5.685   9.112
 2302POPC   GL231346  34.030   5.919   9.043
 2302POPC   C1A31347  34.500   5.689   8.677
 2302POPC   D2A31348  34.470   5.980   8.318
 2302POPC   C3A31349  34.694   5.958   7.934
 2302POPC   C4A31350  34.628   5.709   7.552
 2302POPC   C1B31351  34.043   5.940   8.616
 2302POPC   C2B31352  34.085   5.635   8.308
 2302POPC   C3B31353  34.216   5.711   7.898
 2302POPC   C4B31354  34.085   5.753   7.483
 2303POPC   NC331355   5.199  37.995   9.342
 2303POPC   PO431356   5.337  37.343   9.170
 2303POPC   GL131357   5.043  37.594   9.007
 2303POPC   GL231358   5.311  37.786   8.896
 2303POPC   C1A31359   4.996  37.469   8.591
 2303POPC   D2A31360   5.211  37.573   8.260
 2303POPC   C3A31361   5.075  37.422   7.929
 2303POPC   C4A31362   4.833  37.718   7.739
 2303POPC   C1B31363   5.459  38.097   8.667
 2303POPC   C2B31364   5.384  38.043   8.254
 2303POPC   C3B31365   5.321  37.990   7.858
 2303POPC   C4B31366   5.608  38.011   7.517
 2304POPC   NC331367  42.674   2.455   9.447
 2304POPC   PO431368  43.290   2.644   9.561
 2304POPC   GL131369  43.116   2.700   9.154
 2304POPC   GL231370  42.836   2.805   9.063
 2304POPC   C1A31371  43.275   2.734   8.733
 2304POPC   D2A31372  43.342   2.539   8.372
 2304POPC   C3A31373  43.298   2.734   8.042
 2304POPC   C4A31374  43.213   2.611   7.703
 2304POPC   C1B31375  42.769   2.695   8.668
 2304POPC   C2B31376  42.850   2.592   8.235
 2304POPC   C3B31377  42.806   2.887   7.931
 2304POPC   C4B31378  42.948   3.009   7.565
 2305POPC   NC331379  28.793  29.791   9.543
 2305POPC   PO431380  28.120  30.104   9.551
 2305POPC   GL131381  28.394  29.904   9.257
 2305POPC   GL231382  28.199  30.039   9.031
 2305POPC   C1A31383  28.469  29.630   8.889
 2305POPC   D2A31384  28.564  29.646   8.444
 2305POPC   C3A31385  28.267  29.815   8.144
 2305POPC   C4A31386  28.300  29.987   7.740
 2305POPC   C1B31387  28.030  29.869   8.675
 2305POPC   C2B31388  28.007  30.194   8.385
 2305POPC   C3B31389  27.959  30.247   7.984
 2305POPC   C4B31390  28.062  30.449   7.606
 2306POPC   NC331391   6.321  24.362   9.742
 2306POPC   PO431392   6.848  24.577   9.363
 2306POPC   GL131393   6.687  24.415   9.007
 2306POPC   GL231394   6.397  24.326   9.187
 2306POPC   C1A31395   6.612  24.518   8.585
 2306POPC   D2A31396   6.302  24.552   8.287
 2306POPC   C3A31397   6.588  24.580   7.968
 2306POPC   C4A31398   6.700  24.528   7.594
 2306POPC   C1B31399   6.214  24.279   8.785
 2306POPC   C2B31400   6.365  24.054   8.432
 2306POPC   C3B31401   6.536  24.097   8.064
 2306POPC   C4B31402   6.372  24.048   7.668
 2307POPC   NC331403  37.298  41.480   9.582
 2307POPC   PO431404  36.659  41.501   9.453
 2307POPC   GL131405  36.979  41.484   9.163
 2307POPC   GL231406  36.881  41.195   9.027
 2307POPC   C1A31407  37.036  41.690   8.774
 2307POPC   D2A31408  36.964  42.004   8.435
 2307POPC   C3A31409  37.025  41.835   7.995
 2307POPC   C4A31410  36.877  41.492   7.699
 2307POPC   C1B31411  37.252  41.176   8.797
 2307POPC   C2B31412  37.271  41.387   8.422
 2307POPC   C3B31413  37.303  41.386   8.019
 2307POPC   C4B31414  37.362  41.631   7.663
 2308POPC   NC331415  34.410  22.976   9.618
 2308POPC   PO431416  35.043  22.810   9.750
 2308POPC   GL131417  34.912  22.929   9.297
 2308POPC   GL231418  34.609  23.145   9.173
 2308POPC   C1A31419  34.866  22.876   8.827
 2308POPC   D2A31420  34.592  23.059   8.504
 2308POPC   C3A31421  34.656  23.087   8.068
 2308POPC   C4A31422  34.604  22.769   7.764
 2308POPC   C1B31423  34.347  22.833   8.926
 2308POPC   C2B31424  34.111  22.825   8.509
 2308POPC   C3B31425  34.198  22.811   8.078
 2308POPC   C4B31426  34.234  23.130   7.770
 2309POPC   NC331427  16.698  15.567   9.937
 2309POPC   PO431428  16.666  15.619   9.311
 2309POPC   GL131429  16.724  15.885   9.051
 2309POPC   GL231430  16.465  16.073   9.188
 2309POPC   C1A31431  16.834  15.893   8.656
 2309POPC   D2A31432  16.755  15.848   8.273
 2309POPC   C3A31433  17.051  15.756   8.027
 2309POPC   C4A31434  17.227  15.979   7.675
 2309POPC   C1B31435  16.299  15.963   8.773
 2309POPC   C2B31436  16.132  15.875   8.363
 2309POPC   C3B31437  16.358  15.799   7.985
 2309POPC   C4B31438  16.701  16.023   7.784
 2310POPC   NC331439  39.217   1.804   9.396
 2310POPC   PO431440  39.253   1.076   9.394
 2310POPC   GL131441  39.171   1.379   9.102
 2310POPC   GL231442  38.850   1.490   9.186
 2310POPC   C1A31443  39.272   1.362   8.679
 2310POPC   D2A31444  39.055   1.076   8.432
 2310POPC   C3A31445  39.206   1.013   8.035
 2310POPC   C4A31446  39.389   1.255   7.743
 2310POPC   C1B31447  38.775   1.455   8.740
 2310POPC   C2B31448  38.774   1.511   8.298
 2310POPC   C3B31449  39.118   1.688   8.044
 2310POPC   C4B31450  39.218   1.689   7.589
 2311POPC   NC331451  37.260  11.760   9.348
 2311POPC   PO431452  36.663  11.977   9.665
 2311POPC   GL131453  36.768  12.169   9.248
 2311POPC   GL231454  36.458  12.046   9.093
 2311POPC   C1A31455  37.088  12.293   8.909
 2311POPC   D2A31456  37.165  12.477   8.487
 2311POPC   C3A31457  37.223  12.295   8.081
 2311POPC   C4A31458  37.106  12.252   7.689
 2311POPC   C1B31459  36.565  12.250   8.747
 2311POPC   C2B31460  36.800  12.147   8.420
 2311POPC   C3B31461  36.726  12.145   8.046
 2311POPC   C4B31462  36.672  11.980   7.719
 2312POPC   NC331463  21.226  34.744   9.560
 2312POPC   PO431464  21.576  34.208   9.358
 2312POPC   GL131465  21.462  34.591   9.146
 2312POPC   GL231466  21.082  34.742   9.083
 2312POPC   C1A31467  21.595  34.682   8.771
 2312POPC   D2A31468  21.497  34.445   8.437
 2312POPC   C3A31469  21.588  34.630   8.086
 2312POPC   C4A31470  21.434  34.637   7.716
 2312POPC   C1B31471  21.121  34.419   8.801
 2312POPC   C2B31472  20.958  34.493   8.420
 2312POPC   C3B31473  21.079  34.645   8.082
 2312POPC   C4B31474  21.011  34.304   7.837
 2313POPC   NC331475  16.788  44.143   9.401
 2313POPC   PO431476  16.453  43.469   9.388
 2313POPC   GL131477  16.564  43.765   9.129
 2313POPC   GL231478  16.916  43.721   9.130
 2313POPC   C1A31479  16.565  44.009   8.759
 2313POPC   D2A31480  16.790  44.110   8.378
 2313POPC   C3A31481  16.629  43.924   7.996
 2313POPC   C4A31482  16.449  44.195   7.718
 2313POPC   C1B31483  17.041  43.810   8.704
 2313POPC   C2B31484  17.033  43.687   8.227
 2313POPC   C3B31485  17.073  43.756   7.750
 2313POPC   C4B31486  17.245  43.809   7.306
 2314POPC   NC331487  30.432  30.686   9.117
 2314POPC   PO431488  31.019  31.033   9.359
 2314POPC   GL131489  30.894  30.841   9.027
 2314POPC   GL231490  30.968  30.475   8.998
 2314POPC   C1A31491  30.737  30.951   8.619
 2314POPC   D2A31492  30.375  31.004   8.367
 2314POPC   C3A31493  30.397  30.852   7.930
 2314POPC   C4A31494  30.736  30.904   7.617
 2314POPC   C1B31495  30.733  30.303   8.677
 2314POPC   C2B31496  30.509  30.485   8.342
 2314POPC   C3B31497  30.649  30.405   7.937
 2314POPC   C4B31498  30.484  30.455   7.531
 2315POPC   NC331499  22.388  41.073   9.532
 2315POPC   PO431500  22.197  41.689   9.756
 2315POPC   GL131501  22.335  41.763   9.327
 2315POPC   GL231502  22.366  41.446   9.190
 2315POPC   C1A31503  22.265  41.855   8.868
 2315POPC   D2A31504  22.217  42.044   8.443
 2315POPC   C3A31505  22.135  41.800   8.075
 2315POPC   C4A31506  22.301  41.748   7.681
 2315POPC   C1B31507  22.389  41.334   8.770
 2315POPC   C2B31508  22.171  41.137   8.417
 2315POPC   C3B31509  22.355  41.299   8.045
 2315POPC   C4B31510  22.378  41.256   7.608
 2316POPC   NC331511  23.580   9.162   9.452
 2316POPC   PO431512  24.085   8.735   9.437
 2316POPC   GL131513  23.862   8.822   9.083
 2316POPC   GL231514  23.510   8.766   9.067
 2316POPC   C1A31515  23.776   8.703   8.657
 2316POPC   D2A31516  23.604   8.835   8.300
 2316POPC   C3A31517  23.787   8.564   7.955
 2316POPC   C4A31518  23.556   8.541   7.562
 2316POPC   C1B31519  23.398   9.163   8.839
 2316POPC   C2B31520  23.299   9.335   8.466
 2316POPC   C3B31521  23.451   9.275   8.078
 2316POPC   C4B31522  23.611   9.015   7.824
 2317POPC   NC331523  44.416  21.060   9.692
 2317POPC   PO431524  43.759  21.211   9.549
 2317POPC   GL131525  43.859  21.290   9.113
 2317POPC   GL231526  43.874  21.643   9.022
 2317POPC   C1A31527  43.682  21.214   8.695
 2317POPC   D2A31528  43.623  21.351   8.269
 2317POPC   C3A31529  43.695  21.128   7.903
 2317POPC   C4A31530  43.750  21.219   7.452
 2317POPC   C1B31531  44.073  21.541   8.617
 2317POPC   C2B31532  44.210  21.548   8.186
 2317POPC   C3B31533  44.100  21.393   7.778
 2317POPC   C4B31534  44.158  21.585   7.347
 2318POPC   NC331535  44.572  44.496   9.452
 2318POPC   PO431536  44.526   0.096   9.146
 2318POPC   GL131537  44.830  44.802   9.118
 2318POPC   GL231538   0.087   0.049   9.060
 2318POPC   C1A31539  44.902  44.451   8.812
 2318POPC   D2A31540   0.058  44.405   8.372
 2318POPC   C3A31541  44.806  44.408   7.994
 2318POPC   C4A31542  44.532  44.671   7.728
 2318POPC   C1B31543  44.873  44.920   8.620
 2318POPC   C2B31544  44.785  44.900   8.173
 2318POPC   C3B31545  44.997  44.861   7.771
 2318POPC   C4B31546  44.957   0.100   7.377
 2319POPC   NC331547   9.490  13.866   9.543
 2319POPC   PO431548   9.952  13.380   9.394
 2319POPC   GL131549   9.905  13.740   9.103
 2319POPC   GL231550   9.564  13.857   9.047
 2319POPC   C1A31551   9.887  13.782   8.657
 2319POPC   D2A31552   9.842  13.376   8.447
 2319POPC   C3A31553   9.948  13.395   8.026
 2319POPC   C4A31554   9.934  13.843   7.873
 2319POPC   C1B31555   9.508  13.471   8.849
 2319POPC   C2B31556   9.347  13.483   8.414
 2319POPC   C3B31557   9.482  13.617   8.000
 2319POPC   C4B31558   9.645  13.501   7.614
 2320POPC   NC331559  27.103  15.877   9.466
 2320POPC   PO431560  26.635  16.251   9.432
 2320POPC   GL131561  26.758  15.959   9.101
 2320POPC   GL231562  26.877  15.569   9.143
 2320POPC   C1A31563  26.704  16.069   8.690
 2320POPC   D2A31564  26.621  15.875   8.307
 2320POPC   C3A31565  26.594  16.007   7.887
 2320POPC   C4A31566  26.980  16.156   7.739
 2320POPC   C1B31567  27.090  15.706   8.761
 2320POPC   C2B31568  27.005  15.520   8.355
 2320POPC   C3B31569  27.004  15.693   7.956
 2320POPC   C4B31570  27.155  15.708   7.539
 2321POPC   NC331571   5.475  42.310   9.502
 2321POPC   PO431572   6.082  42.609   9.294
 2321POPC   GL131573   5.729  42.525   9.118
 2321POPC   GL231574   5.816  42.171   9.139
 2321POPC   C1A31575   5.619  42.482   8.711
 2321POPC   D2A31576   5.931  42.405   8.415
 2321POPC   C3A31577   5.784  42.139   8.099
 2321POPC   C4A31578   5.721  42.363   7.715
 2321POPC   C1B31579   6.006  41.966   8.808
 2321POPC   C2B31580   6.193  41.944   8.428
 2321POPC   C3B31581   6.198  41.793   8.025
 2321POPC   C4B31582   6.092  42.009   7.680
 2322POPC   NC331583  34.386  36.463   9.588
 2322POPC   PO431584  34.773  35.966   9.527
 2322POPC   GL131585  34.850  36.137   9.149
 2322POPC   GL231586  34.698  36.420   9.165
 2322POPC   C1A31587  34.716  35.899   8.828
 2322POPC   D2A31588  34.573  35.944   8.451
 2322POPC   C3A31589  34.740  35.903   8.083
 2322POPC   C4A31590  34.463  35.738   7.810
 2322POPC   C1B31591  34.800  36.396   8.710
 2322POPC   C2B31592  34.683  36.431   8.273
 2322POPC   C3B31593  34.451  36.269   7.890
 2322POPC   C4B31594  34.414  36.330   7.444
 2323POPC   NC331595  39.159  20.572   9.399
 2323POPC   PO431596  39.761  20.422   9.539
 2323POPC   GL131597  39.553  20.356   9.115
 2323POPC   GL231598  39.390  20.691   8.972
 2323POPC   C1A31599  39.290  20.238   8.728
 2323POPC   D2A31600  39.087  20.369   8.300
 2323POPC   C3A31601  39.342  20.534   7.934
 2323POPC   C4A31602  39.636  20.853   7.741
 2323POPC   C1B31603  38.995  20.693   8.707
 2323POPC   C2B31604  38.904  20.924   8.308
 2323POPC   C3B31605  38.890  20.848   7.832
 2323POPC   C4B31606  38.779  20.986   7.414
 2324POPC   NC331607  41.068   8.892   9.423
 2324POPC   PO431608  40.544   9.229   9.601
 2324POPC   GL131609  40.493   9.199   9.130
 2324POPC   GL231610  40.681   8.873   9.059
 2324POPC   C1A31611  40.530   9.113   8.651
 2324POPC   D2A31612  40.734   9.065   8.246
 2324POPC   C3A31613  40.414   9.081   7.919
 2324POPC   C4A31614  40.424   9.107   7.478
 2324POPC   C1B31615  41.050   8.907   8.726
 2324POPC   C2B31616  41.371   8.896   8.376
 2324POPC   C3B31617  41.275   8.891   7.932
 2324POPC   C4B31618  40.881   9.006   7.717
 2325POPC   NC331619  33.031  15.454   9.282
 2325POPC   PO431620  33.212  16.008   9.779
 2325POPC   GL131621  33.282  15.943   9.148
 2325POPC   GL231622  33.365  15.642   8.930
 2325POPC   C1A31623  33.046  15.993   8.717
 2325POPC   D2A31624  32.638  15.987   8.466
 2325POPC   C3A31625  32.648  16.143   8.018
 2325POPC   C4A31626  33.010  16.302   7.778
 2325POPC   C1B31627  33.573  16.033   8.749
 2325POPC   C2B31628  33.480  16.237   8.387
 2325POPC   C3B31629  33.140  16.040   8.192
 2325POPC   C4B31630  33.023  15.795   7.845
 2326POPC   NC331631  41.161  13.157   9.474
 2326POPC   PO431632  40.583  13.534   9.471
 2326POPC   GL131633  40.581  13.286   9.116
 2326POPC   GL231634  40.922  13.337   9.077
 2326POPC   C1A31635  40.572  13.482   8.725
 2326POPC   D2A31636  40.712  13.860   8.614
 2326POPC   C3A31637  40.681  13.886   8.187
 2326POPC   C4A31638  40.729  13.919   7.756
 2326POPC   C1B31639  41.094  13.537   8.767
 2326POPC   C2B31640  40.997  13.490   8.384
 2326POPC   C3B31641  40.877  13.433   8.016
 2326POPC   C4B31642  41.045  13.502   7.654
 2327POPC   NC331643  31.881  17.618   9.550
 2327POPC   PO431644  31.372  17.181   9.468
 2327POPC   GL131645  31.417  17.417   9.080
 2327POPC   GL231646  31.733  17.598   9.061
 2327POPC   C1A31647  31.330  17.389   8.618
 2327POPC   D2A31648  31.161  17.143   8.250
 2327POPC   C3A31649  31.436  17.278   7.932
 2327POPC   C4A31650  31.467  17.687   7.847
 2327POPC   C1B31651  31.803  17.275   8.757
 2327POPC   C2B31652  31.831  17.408   8.340
 2327POPC   C3B31653  31.932  17.735   8.060
 2327POPC   C4B31654  31.917  17.433   7.730
 2328POPC   NC331655  17.980  18.432   9.479
 2328POPC   PO431656  18.524  18.469   9.823
 2328POPC   GL131657  18.477  18.326   9.339
 2328POPC   GL231658  18.196  18.054   9.200
 2328POPC   C1A31659  18.600  18.180   8.912
 2328POPC   D2A31660  18.620  18.330   8.502
 2328POPC   C3A31661  18.465  18.037   8.214
 2328POPC   C4A31662  18.422  18.070   7.794
 2328POPC   C1B31663  18.108  18.362   8.834
 2328POPC   C2B31664  18.154  18.574   8.450
 2328POPC   C3B31665  18.112  18.460   8.010
 2328POPC   C4B31666  17.915  18.201   7.719
 2329POPC   NC331667  30.496   1.124   9.538
 2329POPC   PO431668  31.202   1.005   9.420
 2329POPC   GL131669  30.865   1.174   9.140
 2329POPC   GL231670  30.499   1.301   9.052
 2329POPC   C1A31671  30.780   0.991   8.726
 2329POPC   D2A31672  31.039   0.903   8.354
 2329POPC   C3A31673  30.814   1.013   7.975
 2329POPC   C4A31674  30.741   1.173   7.565
 2329POPC   C1B31675  30.817   1.514   8.761
 2329POPC   C2B31676  30.846   1.396   8.332
 2329POPC   C3B31677  30.797   1.639   7.951
 2329POPC   C4B31678  30.408   1.474   7.827
 2330POPC   NC331679  42.190  15.863   9.560
 2330POPC   PO431680  42.613  16.396   9.730
 2330POPC   GL131681  42.296  16.266   9.288
 2330POPC   GL231682  42.419  15.891   9.120
 2330POPC   C1A31683  42.264  16.261   8.814
 2330POPC   D2A31684  42.458  15.899   8.566
 2330POPC   C3A31685  42.357  15.918   8.132
 2330POPC   C4A31686  42.208  16.236   7.842
 2330POPC   C1B31687  42.043  15.795   8.863
 2330POPC   C2B31688  41.982  15.686   8.417
 2330POPC   C3B31689  42.060  15.559   7.952
 2330POPC   C4B31690  42.066  15.808   7.570
 2331POPC   NC331691  43.882  32.526   9.534
 2331POPC   PO431692  43.883  33.191   9.736
 2331POPC   GL131693  43.827  33.203   9.295
 2331POPC   GL231694  44.180  33.173   9.242
 2331POPC   C1A31695  43.849  32.969   8.891
 2331POPC   D2A31696  43.794  32.734   8.488
 2331POPC   C3A31697  43.775  32.929   8.066
 2331POPC   C4A31698  43.916  32.726   7.697
 2331POPC   C1B31699  44.259  33.254   8.798
 2331POPC   C2B31700  43.969  33.241   8.468
 2331POPC   C3B31701  44.038  33.376   8.081
 2331POPC   C4B31702  44.064  33.207   7.693
 2332POPC   NC331703  13.353  22.615   9.462
 2332POPC   PO431704  13.851  23.024   9.663
 2332POPC   GL131705  13.895  23.111   9.242
 2332POPC   GL231706  14.021  22.857   9.001
 2332POPC   C1A31707  13.683  23.247   8.880
 2332POPC   D2A31708  13.722  23.007   8.519
 2332POPC   C3A31709  13.656  23.164   8.115
 2332POPC   C4A31710  13.303  23.045   7.841
 2332POPC   C1B31711  13.878  22.517   8.676
 2332POPC   C2B31712  13.696  22.546   8.287
 2332POPC   C3B31713  13.679  22.706   7.876
 2332POPC   C4B31714  13.669  22.879   7.436
 2333POPC   NC331715   3.420   6.876   9.793
 2333POPC   PO431716   3.807   6.374   9.587
 2333POPC   GL131717   3.681   6.524   9.203
 2333POPC   GL231718   3.429   6.776   9.223
 2333POPC   C1A31719   3.654   6.421   8.792
 2333POPC   D2A31720   3.780   6.233   8.455
 2333POPC   C3A31721   3.786   6.459   8.080
 2333POPC   C4A31722   3.873   6.463   7.669
 2333POPC   C1B31723   3.269   6.754   8.775
 2333POPC   C2B31724   3.427   6.764   8.330
 2333POPC   C3B31725   3.451   6.932   7.897
 2333POPC   C4B31726   3.105   6.870   7.574
 2334POPC   NC331727  24.055  28.324   9.541
 2334POPC   PO431728  24.633  28.600   9.542
 2334POPC   GL131729  24.476  28.398   9.186
 2334POPC   GL231730  24.161  28.324   9.055
 2334POPC   C1A31731  24.563  28.432   8.765
 2334POPC   D2A31732  24.462  28.541   8.390
 2334POPC   C3A31733  24.639  28.388   8.084
 2334POPC   C4A31734  24.441  28.404   7.728
 2334POPC   C1B31735  24.234  27.999   8.775
 2334POPC   C2B31736  24.426  28.012   8.380
 2334POPC   C3B31737  24.186  28.032   7.997
 2334POPC   C4B31738  24.235  27.976   7.554
 2335POPC   NC331739  27.118  22.942   9.468
 2335POPC   PO431740  26.614  22.602   9.533
 2335POPC   GL131741  26.657  22.938   9.165
 2335POPC   GL231742  26.901  23.220   9.104
 2335POPC   C1A31743  26.547  23.194   8.765
 2335POPC   D2A31744  26.498  23.142   8.315
 2335POPC   C3A31745  26.739  22.990   7.964
 2335POPC   C4A31746  27.061  22.694   7.824
 2335POPC   C1B31747  27.026  22.945   8.748
 2335POPC   C2B31748  27.127  22.964   8.305
 2335POPC   C3B31749  27.217  23.210   7.959
 2335POPC   C4B31750  26.964  23.327   7.610
 2336POPC   NC331751  23.315  31.293   9.400
 2336POPC   PO431752  22.691  31.152   9.488
 2336POPC   GL131753  22.764  31.426   9.152
 2336POPC   GL231754  22.824  31.751   9.154
 2336POPC   C1A31755  22.955  31.375   8.761
 2336POPC   D2A31756  22.921  31.022   8.478
 2336POPC   C3A31757  22.933  31.228   8.097
 2336POPC   C4A31758  23.211  31.518   7.845
 2336POPC   C1B31759  22.966  31.926   8.754
 2336POPC   C2B31760  23.029  31.708   8.348
 2336POPC   C3B31761  22.763  31.733   7.986
 2336POPC   C4B31762  22.811  31.805   7.528
 2337POPC   NC331763   7.282  17.733   9.574
 2337POPC   PO431764   7.740  17.253   9.707
 2337POPC   GL131765   7.668  17.395   9.267
 2337POPC   GL231766   7.596  17.692   9.176
 2337POPC   C1A31767   7.672  17.359   8.780
 2337POPC   D2A31768   7.362  17.327   8.471
 2337POPC   C3A31769   7.501  17.262   8.083
 2337POPC   C4A31770   7.757  17.432   7.772
 2337POPC   C1B31771   7.321  17.725   8.847
 2337POPC   C2B31772   7.305  17.855   8.409
 2337POPC   C3B31773   7.375  17.743   7.972
 2337POPC   C4B31774   7.152  17.797   7.595
 2338POPC   NC331775  39.572  44.835   9.604
 2338POPC   PO431776  38.970  44.549   9.492
 2338POPC   GL131777  39.081  44.709   9.105
 2338POPC   GL231778  39.425  44.834   9.111
 2338POPC   C1A31779  39.064  44.442   8.701
 2338POPC   D2A31780  39.254  44.547   8.287
 2338POPC   C3A31781  39.077  44.756   7.941
 2338POPC   C4A31782  39.112  44.374   7.723
 2338POPC   C1B31783  39.331  44.868   8.681
 2338POPC   C2B31784  39.431   0.051   8.299
 2338POPC   C3B31785  39.619  44.835   7.965
 2338POPC   C4B31786  39.474  44.697   7.572
 2339POPC   NC331787  21.543  10.767  10.151
 2339POPC   PO431788  21.512  10.678   9.503
 2339POPC   GL131789  21.345  10.536   9.139
 2339POPC   GL231790  21.094  10.812   9.157
 2339POPC   C1A31791  21.476  10.410   8.709
 2339POPC   D2A31792  21.242  10.451   8.309
 2339POPC   C3A31793  21.356  10.246   7.912
 2339POPC   C4A31794  21.248  10.335   7.471
 2339POPC   C1B31795  21.462  10.949   8.878
 2339POPC   C2B31796  21.583  10.834   8.446
 2339POPC   C3B31797  21.668  10.612   8.092
 2339POPC   C4B31798  21.591  10.844   7.748
 2340POPC   NC331799   1.371  18.715   9.543
 2340POPC   PO431800   0.714  18.673   9.416
 2340POPC   GL131801   1.033  18.842   9.140
 2340POPC   GL231802   1.135  19.202   9.158
 2340POPC   C1A31803   1.009  18.977   8.711
 2340POPC   D2A31804   1.261  18.936   8.344
 2340POPC   C3A31805   1.001  19.074   8.013
 2340POPC   C4A31806   0.960  18.960   7.584
 2340POPC   C1B31807   1.491  19.100   8.808
 2340POPC   C2B31808   1.761  19.021   8.423
 2340POPC   C3B31809   1.603  19.216   8.035
 2340POPC   C4B31810   1.419  18.928   7.741
 2341POPC   NC331811  27.822   0.428   9.511
 2341POPC   PO431812  27.252   0.831   9.425
 2341POPC   GL131813  27.424   0.486   9.199
 2341POPC   GL231814  27.360   0.681   8.933
 2341POPC   C1A31815  27.506   0.195   8.840
 2341POPC   D2A31816  27.746   0.167   8.458
 2341POPC   C3A31817  27.529   0.214   8.071
 2341POPC   C4A31818  27.565   0.169   7.632
 2341POPC   C1B31819  27.732   0.638   8.696
 2341POPC   C2B31820  27.757   0.651   8.244
 2341POPC   C3B31821  27.680   0.675   7.828
 2341POPC   C4B31822  27.362   0.712   7.528
 2342POPC   NC331823   7.359  43.460   9.502
 2342POPC   PO431824   7.601  42.901   9.795
 2342POPC   GL131825   7.374  42.947   9.355
 2342POPC   GL231826   7.541  42.773   9.105
 2342POPC   C1A31827   7.238  43.111   8.896
 2342POPC   D2A31828   7.493  43.293   8.551
 2342POPC   C3A31829   7.414  43.372   8.112
 2342POPC   C4A31830   7.343  43.238   7.689
 2342POPC   C1B31831   7.768  42.888   8.757
 2342POPC   C2B31832   7.866  42.971   8.319
 2342POPC   C3B31833   7.743  42.945   7.870
 2342POPC   C4B31834   7.805  42.913   7.403
 2343POPC   NC331835  14.577  36.525   9.507
 2343POPC   PO431836  14.619  35.847   9.510
 2343POPC   GL131837  14.356  35.991   9.184
 2343POPC   GL231838  14.470  36.301   9.071
 2343POPC   C1A31839  14.266  35.904   8.749
 2343POPC   D2A31840  14.481  35.737   8.388
 2343POPC   C3A31841  14.371  35.924   7.983
 2343POPC   C4A31842  14.594  35.831   7.600
 2343POPC   C1B31843  14.251  36.426   8.719
 2343POPC   C2B31844  14.444  36.319   8.320
 2343POPC   C3B31845  14.402  36.441   7.886
 2343POPC   C4B31846  14.029  36.568   7.652
 2344POPC   NC331847  35.498   4.047   9.371
 2344POPC   PO431848  35.690   4.693   9.578
 2344POPC   GL131849  35.407   4.596   9.241
 2344POPC   GL231850  35.653   4.684   9.030
 2344POPC   C1A31851  35.266   4.431   8.802
 2344POPC   D2A31852  35.392   4.608   8.393
 2344POPC   C3A31853  35.162   4.495   8.039
 2344POPC   C4A31854  35.040   4.084   7.879
 2344POPC   C1B31855  35.786   4.507   8.710
 2344POPC   C2B31856  35.676   4.151   8.458
 2344POPC   C3B31857  35.554   4.187   8.020
 2344POPC   C4B31858  35.566   4.133   7.568
 2345POPC   NC331859  21.984   3.151   9.827
 2345POPC   PO431860  21.962   3.687   9.458
 2345POPC   GL131861  22.306   3.661   9.175
 2345POPC   GL231862  22.395   3.332   9.055
 2345POPC   C1A31863  22.277   3.910   8.808
 2345POPC   D2A31864  22.141   3.855   8.352
 2345POPC   C3A31865  22.494   3.873   8.039
 2345POPC   C4A31866  22.303   3.815   7.663
 2345POPC   C1B31867  22.106   3.436   8.715
 2345POPC   C2B31868  21.943   3.343   8.306
 2345POPC   C3B31869  21.922   3.563   7.935
 2345POPC   C4B31870  22.000   3.414   7.536
 2346POPC   NC331871  13.776  17.555   9.587
 2346POPC   PO431872  13.219  17.206   9.716
 2346POPC   GL131873  13.458  17.228   9.312
 2346POPC   GL231874  13.827  17.232   9.189
 2346POPC   C1A31875  13.445  17.421   8.913
 2346POPC   D2A31876  13.598  17.485   8.515
 2346POPC   C3A31877  13.483  17.269   8.132
 2346POPC   C4A31878  13.227  17.534   7.837
 2346POPC   C1B31879  13.943  17.571   8.932
 2346POPC   C2B31880  14.098  17.628   8.555
 2346POPC   C3B31881  13.882  17.701   8.160
 2346POPC   C4B31882  13.731  17.561   7.780
 2347POPC   NC331883  36.890  11.579   9.756
 2347POPC   PO431884  37.186  11.321   9.186
 2347POPC   GL131885  36.802  11.389   9.024
 2347POPC   GL231886  36.771  11.667   9.179
 2347POPC   C1A31887  36.573  11.490   8.711
 2347POPC   D2A31888  36.831  11.559   8.361
 2347POPC   C3A31889  36.928  11.288   8.030
 2347POPC   C4A31890  36.694  11.469   7.736
 2347POPC   C1B31891  36.979  11.820   8.771
 2347POPC   C2B31892  37.229  11.858   8.361
 2347POPC   C3B31893  37.095  11.792   7.942
 2347POPC   C4B31894  37.135  11.591   7.541
 2348POPC   NC331895  26.722  30.488   9.622
 2348POPC   PO431896  26.093  30.157   9.584
 2348POPC   GL131897  25.989  29.989   9.157
 2348POPC   GL231898  26.030  29.636   9.038
 2348POPC   C1A31899  26.103  29.997   8.718
 2348POPC   D2A31900  25.822  30.008   8.414
 2348POPC   C3A31901  25.996  30.007   8.034
 2348POPC   C4A31902  26.386  30.079   7.855
 2348POPC   C1B31903  26.301  29.493   8.773
 2348POPC   C2B31904  26.358  29.674   8.387
 2348POPC   C3B31905  26.265  29.545   8.013
 2348POPC   C4B31906  26.099  29.697   7.636
 2349POPC   NC331907  19.160   4.229   9.531
 2349POPC   PO431908  18.513   4.151   9.432
 2349POPC   GL131909  18.805   4.048   9.110
 2349POPC   GL231910  19.171   3.961   9.077
 2349POPC   C1A31911  18.746   4.145   8.686
 2349POPC   D2A31912  19.019   4.275   8.340
 2349POPC   C3A31913  19.004   4.093   7.967
 2349POPC   C4A31914  18.627   4.181   7.728
 2349POPC   C1B31915  19.198   4.362   8.800
 2349POPC   C2B31916  19.490   4.479   8.446
 2349POPC   C3B31917  19.303   4.624   8.035
 2349POPC   C4B31918  19.001   4.539   7.684
 2350POPC   NC331919  12.997  15.956   9.846
 2350POPC   PO431920  12.428  15.813   9.531
 2350POPC   GL131921  12.771  15.828   9.181
 2350POPC   GL231922  13.142  15.704   9.164
 2350POPC   C1A31923  12.841  15.850   8.722
 2350POPC   D2A31924  13.154  15.702   8.389
 2350POPC   C3A31925  12.980  15.793   7.983
 2350POPC   C4A31926  12.744  16.120   7.813
 2350POPC   C1B31927  13.267  16.076   8.882
 2350POPC   C2B31928  13.094  16.217   8.445
 2350POPC   C3B31929  13.244  16.242   8.019
 2350POPC   C4B31930  13.669  16.352   7.933
 2351POPC   NC331931   7.756   4.276   9.428
 2351POPC   PO431932   7.300   4.677   9.666
 2351POPC   GL131933   7.321   4.502   9.236
 2351POPC   GL231934   7.278   4.127   9.246
 2351POPC   C1A31935   7.520   4.524   8.804
 2351POPC   D2A31936   7.419   4.578   8.346
 2351POPC   C3A31937   7.564   4.479   7.914
 2351POPC   C4A31938   7.312   4.128   7.733
 2351POPC   C1B31939   7.383   4.021   8.821
 2351POPC   C2B31940   7.656   4.123   8.474
 2351POPC   C3B31941   7.686   4.023   8.062
 2351POPC   C4B31942   7.876   4.096   7.644
 2352POPC   NC331943  32.556  42.376   9.584
 2352POPC   PO431944  31.933  42.199   9.414
 2352POPC   GL131945  32.264  42.304   9.148
 2352POPC   GL231946  32.427  42.583   9.027
 2352POPC   C1A31947  32.308  42.176   8.721
 2352POPC   D2A31948  32.163  42.365   8.316
 2352POPC   C3A31949  32.235  42.099   7.969
 2352POPC   C4A31950  32.098  42.150   7.536
 2352POPC   C1B31951  32.038  42.608   8.781
 2352POPC   C2B31952  31.754  42.649   8.443
 2352POPC   C3B31953  31.787  42.718   8.043
 2352POPC   C4B31954  32.132  42.596   7.801
 2353POPC   NC331955   0.673   0.755   9.600
 2353POPC   PO431956   0.185   0.406   9.738
 2353POPC   GL131957   0.339   0.493   9.273
 2353POPC   GL231958   0.703   0.577   9.150
 2353POPC   C1A31959   0.370   0.437   8.800
 2353POPC   D2A31960   0.588   0.198   8.473
 2353POPC   C3A31961   0.451   0.339   8.080
 2353POPC   C4A31962   0.152   0.346   7.765
 2353POPC   C1B31963   0.897   0.457   8.800
 2353POPC   C2B31964   0.758   0.665   8.423
 2353POPC   C3B31965   0.887   0.565   7.997
 2353POPC   C4B31966   0.536   0.718   7.733
 2354POPC   NC331967  41.396  11.088   9.514
 2354POPC   PO431968  41.414  11.782   9.444
 2354POPC   GL131969  41.603  11.476   9.152
 2354POPC   GL231970  41.700  11.103   9.123
 2354POPC   C1A31971  41.764  11.425   8.748
 2354POPC   D2A31972  41.672  11.137   8.423
 2354POPC   C3A31973  41.635  11.295   8.000
 2354POPC   C4A31974  41.416  11.208   7.647
 2354POPC   C1B31975  41.980  10.868   8.852
 2354POPC   C2B31976  41.891  10.676   8.437
 2354POPC   C3B31977  41.844  10.846   8.003
 2354POPC   C4B31978  41.868  10.995   7.569
 2355POPC   NC331979  18.972  18.409   9.600
 2355POPC   PO431980  19.037  17.757   9.369
 2355POPC   GL131981  19.114  18.116   9.081
 2355POPC   GL231982  18.961  18.478   9.104
 2355POPC   C1A31983  19.096  18.145   8.624
 2355POPC   D2A31984  19.016  18.119   8.182
 2355POPC   C3A31985  19.178  18.385   7.835
 2355POPC   C4A31986  19.358  18.778   7.862
 2355POPC   C1B31987  19.025  18.637   8.707
 2355POPC   C2B31988  18.986  18.612   8.266
 2355POPC   C3B31989  18.691  18.457   7.976
 2355POPC   C4B31990  18.757  18.332   7.505
 2356POPC   NC331991  28.255  23.870   9.752
 2356POPC   PO431992  28.802  23.538   9.596
 2356POPC   GL131993  28.510  23.679   9.271
 2356POPC   GL231994  28.587  24.016   9.205
 2356POPC   C1A31995  28.373  23.542   8.845
 2356POPC   D2A31996  28.583  23.230   8.565
 2356POPC   C3A31997  28.470  23.266   8.136
 2356POPC   C4A31998  28.264  23.550   7.831
 2356POPC   C1B31999  28.238  24.064   8.911
 2356POPC   C2B32000  28.148  24.102   8.468
 2356POPC   C3B32001  28.384  23.955   8.121
 2356POPC   C4B32002  28.449  24.114   7.720
 2357POPC   NC332003   2.998  10.030   9.661
 2357POPC   PO432004   3.717   9.855   9.455
 2357POPC   GL132005   3.563   9.842   9.070
 2357POPC   GL232006   3.231   9.920   9.220
 2357POPC   C1A32007   3.691   9.544   8.741
 2357POPC   D2A32008   3.881   9.349   8.375
 2357POPC   C3A32009   3.851   9.662   8.042
 2357POPC   C4A32010   3.580   9.671   7.711
 2357POPC   C1B32011   3.236  10.124   8.829
 2357POPC   C2B32012   3.485   9.964   8.513
 2357POPC   C3B32013   3.381   9.921   8.112
 2357POPC   C4B32014   3.344  10.110   7.726
 2358POPC   NC332015  33.508  11.681   9.383
 2358POPC   PO432016  33.798  12.272   9.510
 2358POPC   GL132017  33.999  12.192   9.094
 2358POPC   GL232018  33.794  11.873   9.032
 2358POPC   C1A32019  34.050  12.042   8.657
 2358POPC   D2A32020  33.771  11.830   8.390
 2358POPC   C3A32021  33.848  11.884   7.953
 2358POPC   C4A32022  33.995  12.163   7.617
 2358POPC   C1B32023  33.561  12.213   8.864
 2358POPC   C2B32024  33.595  12.350   8.461
 2358POPC   C3B32025  33.611  12.340   8.021
 2358POPC   C4B32026  33.476  12.098   7.668
 2359POPC   NC332027  29.814   6.306   9.627
 2359POPC   PO432028  30.163   5.850   9.363
 2359POPC   GL132029  29.989   5.886   8.995
 2359POPC   GL232030  29.939   5.544   8.967
 2359POPC   C1A32031  30.025   5.836   8.543
 2359POPC   D2A32032  29.763   6.124   8.287
 2359POPC   C3A32033  29.810   6.212   7.853
 2359POPC   C4A32034  29.976   5.886   7.593
 2359POPC   C1B32035  29.563   5.785   8.734
 2359POPC   C2B32036  29.359   5.808   8.316
 2359POPC   C3B32037  29.604   5.760   7.947
 2359POPC   C4B32038  29.565   5.595   7.555
 2360POPC   NC332039  14.002   1.142   9.581
 2360POPC   PO432040  14.711   1.390   9.611
 2360POPC   GL132041  14.420   1.327   9.267
 2360POPC   GL232042  14.359   1.004   9.228
 2360POPC   C1A32043  14.287   1.408   8.830
 2360POPC   D2A32044  14.261   1.592   8.422
 2360POPC   C3A32045  14.474   1.485   8.052
 2360POPC   C4A32046  14.376   1.442   7.624
 2360POPC   C1B32047  14.290   0.899   8.790
 2360POPC   C2B32048  14.222   1.077   8.339
 2360POPC   C3B32049  14.276   1.017   7.873
 2360POPC   C4B32050  14.240   0.898   7.397
 2361POPC   NC332051  36.770  39.666   9.502
 2361POPC   PO432052  36.730  39.025   9.444
 2361POPC   GL132053  36.858  39.315   9.123
 2361POPC   GL232054  37.170  39.316   9.215
 2361POPC   C1A32055  37.081  39.463   8.725
 2361POPC   D2A32056  36.947  39.360   8.350
 2361POPC   C3A32057  36.840  39.429   7.958
 2361POPC   C4A32058  36.846  39.164   7.560
 2361POPC   C1B32059  37.168  38.991   8.873
 2361POPC   C2B32060  37.255  38.966   8.425
 2361POPC   C3B32061  37.151  38.995   7.990
 2361POPC   C4B32062  37.309  38.939   7.600
 2362POPC   NC332063  11.920  41.534   9.730
 2362POPC   PO432064  12.476  41.163   9.583
 2362POPC   GL132065  12.310  41.310   9.154
 2362POPC   GL232066  11.999  41.530   9.205
 2362POPC   C1A32067  12.235  41.422   8.687
 2362POPC   D2A32068  11.987  41.617   8.367
 2362POPC   C3A32069  12.054  41.535   7.922
 2362POPC   C4A32070  11.704  41.615   7.658
 2362POPC   C1B32071  12.270  41.826   8.962
 2362POPC   C2B32072  12.354  41.961   8.553
 2362POPC   C3B32073  12.343  41.925   8.125
 2362POPC   C4B32074  12.288  42.188   7.762
 2363POPC   NC332075  30.092  14.264   9.546
 2363POPC   PO432076  29.451  14.443   9.718
 2363POPC   GL132077  29.761  14.387   9.219
 2363POPC   GL232078  29.989  14.609   9.131
 2363POPC   C1A32079  29.709  14.278   8.750
 2363POPC   D2A32080  29.760  14.057   8.346
 2363POPC   C3A32081  29.648  14.276   7.917
 2363POPC   C4A32082  29.686  14.228   7.450
 2363POPC   C1B32083  30.192  14.346   8.849
 2363POPC   C2B32084  30.154  14.351   8.407
 2363POPC   C3B32085  30.136  14.193   7.979
 2363POPC   C4B32086  30.062  14.509   7.637
 2364POPC   NC332087  28.197  42.954   9.480
 2364POPC   PO432088  27.836  43.515   9.526
 2364POPC   GL132089  28.088  43.335   9.155
 2364POPC   GL232090  28.494  43.276   9.222
 2364POPC   C1A32091  28.170  42.964   8.847
 2364POPC   D2A32092  28.508  42.893   8.554
 2364POPC   C3A32093  28.341  42.867   8.132
 2364POPC   C4A32094  28.460  42.987   7.703
 2364POPC   C1B32095  28.449  43.373   8.798
 2364POPC   C2B32096  28.209  43.299   8.423
 2364POPC   C3B32097  28.302  43.383   8.003
 2364POPC   C4B32098  28.628  43.594   7.749
 2365POPC   NC332099  34.980  12.986   9.221
 2365POPC   PO432100  34.528  12.471   9.406
 2365POPC   GL132101  34.474  12.789   9.084
 2365POPC   GL232102  34.234  13.069   9.146
 2365POPC   C1A32103  34.651  12.749   8.672
 2365POPC   D2A32104  34.630  12.463   8.334
 2365POPC   C3A32105  34.610  12.621   7.908
 2365POPC   C4A32106  34.795  13.003   7.658
 2365POPC   C1B32107  34.214  13.023   8.699
 2365POPC   C2B32108  34.325  12.874   8.281
 2365POPC   C3B32109  34.333  13.066   7.873
 2365POPC   C4B32110  34.331  13.117   7.420
 2366POPC   NC332111   9.900  29.355   9.492
 2366POPC   PO432112   9.211  29.222   9.392
 2366POPC   GL132113   9.562  29.202   9.149
 2366POPC   GL232114   9.843  28.949   9.188
 2366POPC   C1A32115   9.716  29.219   8.741
 2366POPC   D2A32116   9.954  29.132   8.395
 2366POPC   C3A32117   9.805  29.311   8.010
 2366POPC   C4A32118   9.417  29.272   7.906
 2366POPC   C1B32119   9.917  28.731   8.815
 2366POPC   C2B32120  10.053  28.621   8.408
 2366POPC   C3B32121   9.947  28.778   8.026
 2366POPC   C4B32122  10.105  28.809   7.651
 2367POPC   NC332123  40.514  11.550   9.431
 2367POPC   PO432124  40.932  11.027   9.567
 2367POPC   GL132125  40.902  11.216   9.165
 2367POPC   GL232126  41.074  11.539   9.128
 2367POPC   C1A32127  40.770  11.316   8.731
 2367POPC   D2A32128  40.439  11.413   8.415
 2367POPC   C3A32129  40.436  11.140   8.052
 2367POPC   C4A32130  40.846  11.146   7.923
 2367POPC   C1B32131  41.276  11.240   8.809
 2367POPC   C2B32132  41.166  11.285   8.368
 2367POPC   C3B32133  41.177  11.505   7.992
 2367POPC   C4B32134  41.008  11.466   7.546
 2368POPC   NC332135  10.890  10.679   9.501
 2368POPC   PO432136  11.461  10.323   9.587
 2368POPC   GL132137  11.228  10.415   9.214
 2368POPC   GL232138  11.291  10.765   9.102
 2368POPC   C1A32139  11.363  10.367   8.801
 2368POPC   D2A32140  11.336  10.665   8.489
 2368POPC   C3A32141  11.399  10.452   8.132
 2368POPC   C4A32142  11.259  10.473   7.740
 2368POPC   C1B32143  11.038  11.009   8.797
 2368POPC   C2B32144  10.900  10.934   8.381
 2368POPC   C3B32145  11.114  10.890   7.992
 2368POPC   C4B32146  10.981  10.893   7.557
 2369POPC   NC332147  31.923  13.366   9.553
 2369POPC   PO432148  31.429  13.778   9.541
 2369POPC   GL132149  31.503  13.512   9.211
 2369POPC   GL232150  31.811  13.723   9.177
 2369POPC   C1A32151  31.194  13.359   8.875
 2369POPC   D2A32152  31.005  13.402   8.447
 2369POPC   C3A32153  31.333  13.650   8.225
 2369POPC   C4A32154  31.230  13.594   7.817
 2369POPC   C1B32155  31.605  13.765   8.785
 2369POPC   C2B32156  31.832  13.782   8.418
 2369POPC   C3B32157  31.799  13.877   8.025
 2369POPC   C4B32158  31.606  13.848   7.635
 2370POPC   NC332159   7.791   9.087   9.473
 2370POPC   PO432160   8.310   8.771   9.428
 2370POPC   GL132161   8.365   9.119   9.136
 2370POPC   GL232162   8.036   9.197   9.060
 2370POPC   C1A32163   8.349   9.069   8.674
 2370POPC   D2A32164   8.510   8.751   8.389
 2370POPC   C3A32165   8.313   8.884   8.021
 2370POPC   C4A32166   8.241   9.001   7.608
 2370POPC   C1B32167   7.866   9.270   8.694
 2370POPC   C2B32168   7.995   9.223   8.276
 2370POPC   C3B32169   7.814   9.271   7.874
 2370POPC   C4B32170   7.863   9.272   7.419
 2371POPC   NC332171   3.942  31.365   9.869
 2371POPC   PO432172   3.416  31.612   9.443
 2371POPC   GL132173   3.613  31.236   9.195
 2371POPC   GL232174   3.960  31.273   9.066
 2371POPC   C1A32175   3.584  31.065   8.752
 2371POPC   D2A32176   3.279  31.306   8.466
 2371POPC   C3A32177   3.359  31.539   8.055
 2371POPC   C4A32178   3.495  31.214   7.792
 2371POPC   C1B32179   3.730  31.541   8.741
 2371POPC   C2B32180   3.779  31.766   8.335
 2371POPC   C3B32181   3.885  31.514   7.965
 2371POPC   C4B32182   3.745  31.568   7.536
 2372POPC   NC332183  43.328  31.415   9.732
 2372POPC   PO432184  43.970  31.279   9.581
 2372POPC   GL132185  43.925  31.298   9.122
 2372POPC   GL232186  43.830  31.591   9.072
 2372POPC   C1A32187  44.107  31.292   8.725
 2372POPC   D2A32188  44.183  31.500   8.345
 2372POPC   C3A32189  43.971  31.374   7.991
 2372POPC   C4A32190  44.063  31.619   7.691
 2372POPC   C1B32191  44.078  31.802   8.754
 2372POPC   C2B32192  43.870  31.972   8.405
 2372POPC   C3B32193  43.740  31.854   8.002
 2372POPC   C4B32194  43.561  31.785   7.602
 2373POPC   NC332195  39.491  12.510   9.523
 2373POPC   PO432196  40.117  12.839   9.408
 2373POPC   GL132197  40.064  12.752   9.016
 2373POPC   GL232198  40.376  12.859   8.905
 2373POPC   C1A32199  39.747  12.885   8.732
 2373POPC   D2A32200  39.806  13.008   8.312
 2373POPC   C3A32201  40.022  12.706   8.087
 2373POPC   C4A32202  39.979  12.541   7.708
 2373POPC   C1B32203  40.128  13.245   8.776
 2373POPC   C2B32204  40.187  13.452   8.365
 2373POPC   C3B32205  40.273  13.148   8.064
 2373POPC   C4B32206  40.149  13.078   7.646
 2374POPC   NC332207  31.424   3.757   9.436
 2374POPC   PO432208  32.062   3.509   9.392
 2374POPC   GL132209  31.729   3.511   9.056
 2374POPC   GL232210  31.350   3.421   9.060
 2374POPC   C1A32211  31.522   3.807   8.763
 2374POPC   D2A32212  31.274   3.651   8.438
 2374POPC   C3A32213  31.628   3.487   8.221
 2374POPC   C4A32214  31.866   3.714   7.902
 2374POPC   C1B32215  31.400   3.198   8.684
 2374POPC   C2B32216  31.161   3.145   8.335
 2374POPC   C3B32217  31.236   3.279   7.961
 2374POPC   C4B32218  31.640   3.240   7.773
 2375POPC   NC332219  20.986  30.767   9.305
 2375POPC   PO432220  21.566  30.903   9.667
 2375POPC   GL132221  21.499  30.760   9.221
 2375POPC   GL232222  21.316  31.000   9.030
 2375POPC   C1A32223  21.377  30.536   8.812
 2375POPC   D2A32224  21.140  30.752   8.469
 2375POPC   C3A32225  21.281  30.637   8.049
 2375POPC   C4A32226  21.441  30.391   7.710
 2375POPC   C1B32227  21.691  30.942   8.790
 2375POPC   C2B32228  21.664  30.768   8.411
 2375POPC   C3B32229  21.783  30.572   8.067
 2375POPC   C4B32230  21.699  30.826   7.785
 2376POPC   NC332231  17.116  13.898   9.723
 2376POPC   PO432232  16.686  13.463   9.575
 2376POPC   GL132233  16.987  13.523   9.254
 2376POPC   GL232234  17.014  13.911   9.228
 2376POPC   C1A32235  16.900  13.426   8.809
 2376POPC   D2A32236  16.559  13.470   8.509
 2376POPC   C3A32237  16.728  13.390   8.084
 2376POPC   C4A32238  16.455  13.403   7.735
 2376POPC   C1B32239  16.816  13.932   8.845
 2376POPC   C2B32240  16.946  13.825   8.435
 2376POPC   C3B32241  16.921  13.892   7.991
 2376POPC   C4B32242  16.901  13.657   7.621
 2377POPC   NC332243  25.440  17.161   9.472
 2377POPC   PO432244  25.107  16.464   9.249
 2377POPC   GL132245  25.354  16.790   9.122
 2377POPC   GL232246  25.068  17.022   9.159
 2377POPC   C1A32247  25.602  16.957   8.775
 2377POPC   D2A32248  25.596  16.815   8.347
 2377POPC   C3A32249  25.645  17.066   7.996
 2377POPC   C4A32250  25.464  16.792   7.775
 2377POPC   C1B32251  25.024  16.871   8.744
 2377POPC   C2B32252  24.927  17.035   8.389
 2377POPC   C3B32253  25.055  16.938   8.032
 2377POPC   C4B32254  25.048  17.059   7.634
 2378POPC   NC332255  40.423  44.623   9.731
 2378POPC   PO432256  40.811  44.311   9.293
 2378POPC   GL132257  40.701  44.602   9.061
 2378POPC   GL232258  40.508  44.366   8.840
 2378POPC   C1A32259  40.752  44.815   8.689
 2378POPC   D2A32260  41.058  44.876   8.382
 2378POPC   C3A32261  41.087  44.708   7.935
 2378POPC   C4A32262  40.826  44.536   7.600
 2378POPC   C1B32263  40.931  44.298   8.678
 2378POPC   C2B32264  40.973  44.386   8.305
 2378POPC   C3B32265  40.766  44.241   8.000
 2378POPC   C4B32266  40.405  44.344   7.831
 2379POPC   NC332267  25.173  29.865   9.491
 2379POPC   PO432268  25.708  29.553   9.398
 2379POPC   GL132269  25.479  29.782   9.041
 2379POPC   GL232270  25.079  29.818   9.007
 2379POPC   C1A32271  25.357  29.893   8.600
 2379POPC   D2A32272  25.376  29.985   8.173
 2379POPC   C3A32273  25.222  29.690   7.914
 2379POPC   C4A32274  25.481  29.478   7.680
 2379POPC   C1B32275  25.086  30.250   8.852
 2379POPC   C2B32276  25.078  30.347   8.423
 2379POPC   C3B32277  24.967  30.248   8.010
 2379POPC   C4B32278  25.180  30.120   7.664
 2380POPC   NC332279   7.647   2.554   9.493
 2380POPC   PO432280   8.292   2.808   9.641
 2380POPC   GL132281   8.211   2.813   9.199
 2380POPC   GL232282   8.090   2.497   9.181
 2380POPC   C1A32283   8.261   2.948   8.751
 2380POPC   D2A32284   8.519   3.103   8.377
 2380POPC   C3A32285   8.363   2.982   7.951
 2380POPC   C4A32286   8.044   2.684   7.807
 2380POPC   C1B32287   8.015   2.468   8.714
 2380POPC   C2B32288   8.195   2.640   8.317
 2380POPC   C3B32289   8.475   2.473   7.975
 2380POPC   C4B32290   8.455   2.254   7.587
 2381POPC   NC332291  23.467  34.860   9.371
 2381POPC   PO432292  23.468  35.497   9.536
 2381POPC   GL132293  23.722  35.499   9.172
 2381POPC   GL232294  24.055  35.717   9.180
 2381POPC   C1A32295  23.620  35.276   8.794
 2381POPC   D2A32296  23.392  35.273   8.401
 2381POPC   C3A32297  23.627  35.209   8.046
 2381POPC   C4A32298  23.689  35.349   7.672
 2381POPC   C1B32299  24.078  35.534   8.797
 2381POPC   C2B32300  23.931  35.416   8.412
 2381POPC   C3B32301  23.995  35.572   8.029
 2381POPC   C4B32302  24.198  35.748   7.694
 2382POPC   NC332303  44.411  42.009   9.339
 2382POPC   PO432304  44.775  41.480   9.552
 2382POPC   GL132305  44.877  41.433   9.151
 2382POPC   GL232306  44.841  41.771   9.085
 2382POPC   C1A32307  44.650  41.381   8.764
 2382POPC   D2A32308  44.651  41.214   8.354
 2382POPC   C3A32309  44.900  41.456   8.095
 2382POPC   C4A32310  44.639  41.548   7.773
 2382POPC   C1B32311  44.694  41.893   8.716
 2382POPC   C2B32312  44.557  41.740   8.351
 2382POPC   C3B32313  44.658  41.990   8.039
 2382POPC   C4B32314  44.828  41.997   7.677
 2383POPC   NC332315  22.909  24.699   9.659
 2383POPC   PO432316  23.312  24.210   9.413
 2383POPC   GL132317  23.034  24.486   9.178
 2383POPC   GL232318  23.231  24.768   9.254
 2383POPC   C1A32319  22.799  24.589   8.777
 2383POPC   D2A32320  22.669  24.369   8.392
 2383POPC   C3A32321  22.968  24.390   8.041
 2383POPC   C4A32322  22.866  24.562   7.662
 2383POPC   C1B32323  23.195  24.899   8.818
 2383POPC   C2B32324  23.070  24.870   8.368
 2383POPC   C3B32325  23.152  24.900   7.907
 2383POPC   C4B32326  23.166  24.942   7.419
 2384POPC   NC332327  35.088  37.097   9.429
 2384POPC   PO432328  35.715  36.969   9.514
 2384POPC   GL132329  35.466  36.760   9.209
 2384POPC   GL232330  35.384  37.038   9.020
 2384POPC   C1A32331  35.276  36.570   8.825
 2384POPC   D2A32332  35.042  36.772   8.481
 2384POPC   C3A32333  35.333  36.824   8.162
 2384POPC   C4A32334  35.324  36.787   7.729
 2384POPC   C1B32335  35.396  37.140   8.604
 2384POPC   C2B32336  35.624  37.375   8.303
 2384POPC   C3B32337  35.595  37.211   7.926
 2384POPC   C4B32338  35.194  37.287   7.764
 2385POPC   NC332339  32.497  27.273   9.376
 2385POPC   PO432340  32.227  26.738   9.650
 2385POPC   GL132341  32.227  26.860   9.218
 2385POPC   GL232342  32.203  26.519   9.150
 2385POPC   C1A32343  32.387  26.924   8.768
 2385POPC   D2A32344  32.329  26.784   8.324
 2385POPC   C3A32345  32.557  27.009   8.013
 2385POPC   C4A32346  32.504  27.221   7.652
 2385POPC   C1B32347  32.170  26.352   8.752
 2385POPC   C2B32348  31.953  26.400   8.385
 2385POPC   C3B32349  31.930  26.545   7.976
 2385POPC   C4B32350  32.337  26.604   7.813
 2386POPC   NC332351  20.281  44.728   9.470
 2386POPC   PO432352  19.674  44.515   9.430
 2386POPC   GL132353  19.692  44.744   9.112
 2386POPC   GL232354  20.010  44.895   9.072
 2386POPC   C1A32355  19.555  44.523   8.757
 2386POPC   D2A32356  19.726  44.400   8.382
 2386POPC   C3A32357  19.521  44.643   8.117
 2386POPC   C4A32358  19.671  44.957   7.855
 2386POPC   C1B32359  20.055  44.638   8.721
 2386POPC   C2B32360  20.146  44.665   8.283
 2386POPC   C3B32361  19.976  44.544   7.901
 2386POPC   C4B32362  20.097  44.843   7.601
 2387POPC   NC332363   5.243  12.087   9.528
 2387POPC   PO432364   4.686  11.949   9.167
 2387POPC   GL132365   5.011  11.973   8.929
 2387POPC   GL232366   5.337  11.951   9.054
 2387POPC   C1A32367   4.994  12.144   8.553
 2387POPC   D2A32368   5.267  11.902   8.371
 2387POPC   C3A32369   5.005  11.796   8.057
 2387POPC   C4A32370   5.035  11.977   7.687
 2387POPC   C1B32371   5.438  12.251   8.774
 2387POPC   C2B32372   5.398  12.400   8.377
 2387POPC   C3B32373   5.115  12.335   8.048
 2387POPC   C4B32374   5.241  12.466   7.646
 2388POPC   NC332375  29.785  42.947   9.705
 2388POPC   PO432376  30.100  43.544   9.592
 2388POPC   GL132377  30.049  43.188   9.259
 2388POPC   GL232378  30.261  42.865   9.278
 2388POPC   C1A32379  29.939  43.165   8.798
 2388POPC   D2A32380  29.776  43.368   8.412
 2388POPC   C3A32381  29.937  43.150   8.063
 2388POPC   C4A32382  30.017  43.157   7.636
 2388POPC   C1B32383  30.167  42.711   8.853
 2388POPC   C2B32384  30.200  42.861   8.415
 2388POPC   C3B32385  30.301  42.794   7.978
 2388POPC   C4B32386  30.130  42.623   7.622
 2389POPC   NC332387  33.661  35.819   9.345
 2389POPC   PO432388  33.944  36.519   9.444
 2389POPC   GL132389  33.990  36.183   9.194
 2389POPC   GL232390  34.331  36.060   9.234
 2389POPC   C1A32391  33.887  36.063   8.769
 2389POPC   D2A32392  33.683  36.291   8.463
 2389POPC   C3A32393  33.621  36.090   8.071
 2389POPC   C4A32394  33.582  36.298   7.679
 2389POPC   C1B32395  34.320  36.325   8.844
 2389POPC   C2B32396  34.211  36.283   8.425
 2389POPC   C3B32397  34.122  35.967   8.139
 2389POPC   C4B32398  34.014  35.981   7.707
 2390POPC   NC332399  28.129   9.994   9.488
 2390POPC   PO432400  28.766   9.697   9.435
 2390POPC   GL132401  28.472   9.875   9.134
 2390POPC   GL232402  28.176   9.633   9.096
 2390POPC   C1A32403  28.392   9.869   8.696
 2390POPC   D2A32404  28.421   9.578   8.370
 2390POPC   C3A32405  28.611   9.725   7.998
 2390POPC   C4A32406  28.712  10.152   7.867
 2390POPC   C1B32407  28.055   9.428   8.730
 2390POPC   C2B32408  27.907   9.651   8.369
 2390POPC   C3B32409  28.054   9.777   7.974
 2390POPC   C4B32410  28.163  10.061   7.647
 2391POPC   NC332411   4.693  14.997   9.539
 2391POPC   PO432412   3.996  14.997   9.590
 2391POPC   GL132413   4.234  15.122   9.211
 2391POPC   GL232414   4.290  14.773   9.209
 2391POPC   C1A32415   4.167  15.278   8.764
 2391POPC   D2A32416   4.425  15.206   8.377
 2391POPC   C3A32417   4.324  15.361   8.031
 2391POPC   C4A32418   4.253  15.203   7.692
 2391POPC   C1B32419   4.407  14.824   8.790
 2391POPC   C2B32420   4.383  14.680   8.408
 2391POPC   C3B32421   4.426  14.830   8.000
 2391POPC   C4B32422   4.365  14.724   7.562
 2392POPC   NC332423   3.353   3.899   9.563
 2392POPC   PO432424   3.371   3.182   9.508
 2392POPC   GL132425   3.539   3.505   9.217
 2392POPC   GL232426   3.338   3.737   9.096
 2392POPC   C1A32427   3.659   3.530   8.768
 2392POPC   D2A32428   3.770   3.718   8.348
 2392POPC   C3A32429   3.690   3.464   7.961
 2392POPC   C4A32430   3.532   3.643   7.569
 2392POPC   C1B32431   3.087   3.696   8.769
 2392POPC   C2B32432   3.171   3.801   8.392
 2392POPC   C3B32433   3.190   3.601   8.038
 2392POPC   C4B32434   3.020   3.775   7.678
 2393POPC   NC332435  24.664  15.124   9.611
 2393POPC   PO432436  24.427  15.573   9.221
 2393POPC   GL132437  24.535  15.126   9.088
 2393POPC   GL232438  24.856  14.951   9.187
 2393POPC   C1A32439  24.499  15.126   8.635
 2393POPC   D2A32440  24.152  15.146   8.353
 2393POPC   C3A32441  24.255  15.400   8.030
 2393POPC   C4A32442  24.485  15.337   7.678
 2393POPC   C1B32443  24.998  15.079   8.809
 2393POPC   C2B32444  24.992  14.961   8.399
 2393POPC   C3B32445  24.798  15.108   8.024
 2393POPC   C4B32446  24.776  14.918   7.617
 2394POPC   NC332447  41.993  12.751   9.910
 2394POPC   PO432448  42.065  12.369   9.402
 2394POPC   GL132449  42.391  12.158   9.227
 2394POPC   GL232450  42.279  11.810   9.143
 2394POPC   C1A32451  42.448  12.190   8.812
 2394POPC   D2A32452  42.107  12.294   8.572
 2394POPC   C3A32453  42.191  12.379   8.169
 2394POPC   C4A32454  42.211  12.082   7.863
 2394POPC   C1B32455  42.139  11.786   8.711
 2394POPC   C2B32456  42.376  11.865   8.310
 2394POPC   C3B32457  42.511  11.662   7.903
 2394POPC   C4B32458  42.706  11.553   7.488
 2395POPC   NC332459  14.090   4.592   9.332
 2395POPC   PO432460  14.334   3.966   9.457
 2395POPC   GL132461  14.338   4.178   9.115
 2395POPC   GL232462  13.975   4.183   9.039
 2395POPC   C1A32463  14.649   4.355   8.840
 2395POPC   D2A32464  14.580   4.693   8.570
 2395POPC   C3A32465  14.675   4.645   8.139
 2395POPC   C4A32466  14.677   4.373   7.794
 2395POPC   C1B32467  14.149   4.364   8.651
 2395POPC   C2B32468  14.237   4.355   8.200
 2395POPC   C3B32469  14.169   4.445   7.773
 2395POPC   C4B32470  13.989   4.630   7.443
 2396POPC   NC332471  25.153  25.922   9.524
 2396POPC   PO432472  25.028  26.615   9.615
 2396POPC   GL132473  25.101  26.329   9.223
 2396POPC   GL232474  25.416  26.082   9.143
 2396POPC   C1A32475  25.127  26.223   8.767
 2396POPC   D2A32476  25.067  26.172   8.325
 2396POPC   C3A32477  25.328  26.254   7.974
 2396POPC   C4A32478  25.070  26.194   7.557
 2396POPC   C1B32479  25.378  25.775   8.818
 2396POPC   C2B32480  25.487  25.803   8.413
 2396POPC   C3B32481  25.456  25.543   8.075
 2396POPC   C4B32482  25.219  25.791   7.836
 2397POPC   NC332483  10.220  32.308   9.487
 2397POPC   PO432484  10.707  31.867   9.577
 2397POPC   GL132485  10.494  32.026   9.151
 2397POPC   GL232486  10.472  32.388   9.056
 2397POPC   C1A32487  10.449  32.093   8.661
 2397POPC   D2A32488  10.742  32.349   8.385
 2397POPC   C3A32489  10.600  32.246   7.966
 2397POPC   C4A32490  10.220  32.019   7.915
 2397POPC   C1B32491  10.321  32.581   8.647
 2397POPC   C2B32492  10.046  32.561   8.260
 2397POPC   C3B32493  10.149  32.506   7.801
 2397POPC   C4B32494  10.567  32.549   7.527
 2398POPC   NC332495  27.217  17.466   9.752
 2398POPC   PO432496  27.682  17.896   9.768
 2398POPC   GL132497  27.741  17.647   9.328
 2398POPC   GL232498  27.537  17.383   9.270
 2398POPC   C1A32499  27.602  17.765   8.848
 2398POPC   D2A32500  27.471  17.636   8.449
 2398POPC   C3A32501  27.386  17.942   8.145
 2398POPC   C4A32502  27.556  17.758   7.769
 2398POPC   C1B32503  27.515  17.247   8.837
 2398POPC   C2B32504  27.572  17.072   8.435
 2398POPC   C3B32505  27.644  17.284   8.067
 2398POPC   C4B32506  27.520  17.227   7.660
 2399POPC   NC332507  18.904  25.229   9.568
 2399POPC   PO432508  19.408  24.861   9.319
 2399POPC   GL132509  19.257  25.261   9.086
 2399POPC   GL232510  18.912  25.366   9.096
 2399POPC   C1A32511  19.111  25.345   8.639
 2399POPC   D2A32512  18.991  25.017   8.341
 2399POPC   C3A32513  18.747  25.105   7.988
 2399POPC   C4A32514  18.882  25.144   7.587
 2399POPC   C1B32515  18.676  25.595   8.807
 2399POPC   C2B32516  18.803  25.721   8.348
 2399POPC   C3B32517  18.859  25.616   7.875
 2399POPC   C4B32518  18.750  25.597   7.425
 2400POPC   NC332519  22.924  11.758  10.245
 2400POPC   PO432520  23.032  11.754   9.515
 2400POPC   GL132521  22.833  11.957   9.117
 2400POPC   GL232522  22.667  12.276   9.144
 2400POPC   C1A32523  23.018  12.187   8.739
 2400POPC   D2A32524  23.191  12.202   8.315
 2400POPC   C3A32525  22.961  12.039   7.977
 2400POPC   C4A32526  23.025  12.179   7.566
 2400POPC   C1B32527  22.495  12.185   8.728
 2400POPC   C2B32528  22.696  12.332   8.337
 2400POPC   C3B32529  22.894  12.534   7.977
 2400POPC   C4B32530  22.769  12.627   7.581
 2401POPC   NC332531  34.633  37.513   9.749
 2401POPC   PO432532  34.740  36.777   9.553
 2401POPC   GL132533  34.603  36.920   9.180
 2401POPC   GL232534  34.903  36.859   9.012
 2401POPC   C1A32535  34.464  36.819   8.758
 2401POPC   D2A32536  34.538  36.948   8.358
 2401POPC   C3A32537  34.398  36.751   7.994
 2401POPC   C4A32538  34.383  36.836   7.554
 2401POPC   C1B32539  34.871  37.173   8.715
 2401POPC   C2B32540  35.019  37.244   8.283
 2401POPC   C3B32541  34.866  36.978   7.962
 2401POPC   C4B32542  34.796  37.096   7.507
 2402POPC   NC332543  28.437  30.450   9.576
 2402POPC   PO432544  28.667  31.007   9.494
 2402POPC   GL132545  28.625  30.704   9.104
 2402POPC   GL232546  28.618  30.345   9.120
 2402POPC   C1A32547  28.525  30.548   8.644
 2402POPC   D2A32548  28.557  30.724   8.217
 2402POPC   C3A32549  28.343  30.828   7.849
 2402POPC   C4A32550  28.523  31.141   7.498
 2402POPC   C1B32551  28.687  30.078   8.807
 2402POPC   C2B32552  28.848  30.143   8.414
 2402POPC   C3B32553  28.551  30.227   8.142
 2402POPC   C4B32554  28.597  30.379   7.779
 2403POPC   NC332555  16.386  32.716   9.337
 2403POPC   PO432556  16.556  33.230   9.709
 2403POPC   GL132557  16.646  33.182   9.246
 2403POPC   GL232558  16.705  32.899   9.008
 2403POPC   C1A32559  16.820  33.375   8.862
 2403POPC   D2A32560  17.123  33.384   8.522
 2403POPC   C3A32561  16.979  33.394   8.106
 2403POPC   C4A32562  16.737  33.135   7.841
 2403POPC   C1B32563  16.417  32.670   8.705
 2403POPC   C2B32564  16.437  32.816   8.284
 2403POPC   C3B32565  16.390  32.786   7.846
 2403POPC   C4B32566  16.579  32.839   7.441
 2404POPC   NC332567  15.721  14.469   9.359
 2404POPC   PO432568  15.188  14.548   9.765
 2404POPC   GL132569  15.155  14.552   9.281
 2404POPC   GL232570  15.307  14.245   9.154
 2404POPC   C1A32571  14.970  14.487   8.829
 2404POPC   D2A32572  15.081  14.259   8.415
 2404POPC   C3A32573  15.117  14.483   8.021
 2404POPC   C4A32574  14.973  14.450   7.614
 2404POPC   C1B32575  15.479  14.420   8.762
 2404POPC   C2B32576  15.722  14.489   8.405
 2404POPC   C3B32577  15.617  14.277   8.053
 2404POPC   C4B32578  15.495  14.389   7.665
 2405POPC   NC332579   9.613  25.620   9.464
 2405POPC   PO432580  10.042  25.142   9.507
 2405POPC   GL132581   9.809  25.193   9.125
 2405POPC   GL232582   9.464  25.253   9.112
 2405POPC   C1A32583   9.777  25.113   8.682
 2405POPC   D2A32584  10.009  24.869   8.383
 2405POPC   C3A32585   9.965  25.122   8.026
 2405POPC   C4A32586   9.510  25.111   7.881
 2405POPC   C1B32587   9.613  25.602   8.806
 2405POPC   C2B32588   9.492  25.792   8.419
 2405POPC   C3B32589   9.546  25.589   8.037
 2405POPC   C4B32590   9.887  25.600   7.812
 2406POPC   NC332591   2.830  21.934   9.473
 2406POPC   PO432592   2.627  21.327   9.513
 2406POPC   GL132593   2.649  21.552   9.143
 2406POPC   GL232594   2.366  21.342   9.055
 2406POPC   C1A32595   2.991  21.505   8.821
 2406POPC   D2A32596   3.152  21.404   8.389
 2406POPC   C3A32597   2.970  21.553   7.973
 2406POPC   C4A32598   2.516  21.661   7.877
 2406POPC   C1B32599   2.541  21.323   8.692
 2406POPC   C2B32600   2.631  21.498   8.354
 2406POPC   C3B32601   2.651  21.184   8.091
 2406POPC   C4B32602   2.420  21.119   7.767
 2407POPC   NC332603  39.176   2.429   9.865
 2407POPC   PO432604  39.405   2.204   9.296
 2407POPC   GL132605  38.949   2.208   9.156
 2407POPC   GL232606  38.973   1.904   8.938
 2407POPC   C1A32607  38.778   2.299   8.727
 2407POPC   D2A32608  38.838   2.024   8.360
 2407POPC   C3A32609  38.938   2.234   8.005
 2407POPC   C4A32610  39.344   2.141   7.960
 2407POPC   C1B32611  39.286   1.881   8.595
 2407POPC   C2B32612  39.567   1.635   8.305
 2407POPC   C3B32613  39.629   1.711   7.869
 2407POPC   C4B32614  39.717   1.607   7.418
 2408POPC   NC332615  27.088  29.628   9.268
 2408POPC   PO432616  27.131  30.233   9.630
 2408POPC   GL132617  26.907  30.105   9.216
 2408POPC   GL232618  26.599  29.848   9.147
 2408POPC   C1A32619  27.055  30.122   8.772
 2408POPC   D2A32620  26.982  30.061   8.341
 2408POPC   C3A32621  27.147  29.974   7.909
 2408POPC   C4A32622  26.835  30.079   7.613
 2408POPC   C1B32623  26.769  29.695   8.722
 2408POPC   C2B32624  26.952  29.564   8.334
 2408POPC   C3B32625  26.728  29.739   8.023
 2408POPC   C4B32626  26.613  29.626   7.644
 2409POPC   NC332627   1.929  32.766   9.365
 2409POPC   PO432628   2.540  33.014   9.529
 2409POPC   GL132629   2.291  33.077   9.148
 2409POPC   GL232630   1.960  33.144   9.007
 2409POPC   C1A32631   2.347  32.958   8.702
 2409POPC   D2A32632   2.107  32.957   8.292
 2409POPC   C3A32633   2.258  33.200   7.933
 2409POPC   C4A32634   2.031  33.373   7.598
 2409POPC   C1B32635   1.803  32.859   8.685
 2409POPC   C2B32636   1.549  32.946   8.291
 2409POPC   C3B32637   1.730  33.093   7.944
 2409POPC   C4B32638   1.969  32.732   7.834
 2410POPC   NC332639  30.831  20.661   9.551
 2410POPC   PO432640  30.281  21.091   9.576
 2410POPC   GL132641  30.328  20.834   9.198
 2410POPC   GL232642  30.541  20.526   9.154
 2410POPC   C1A32643  30.212  20.689   8.787
 2410POPC   D2A32644  30.072  20.721   8.366
 2410POPC   C3A32645  30.422  20.827   8.143
 2410POPC   C4A32646  30.478  20.733   7.735
 2410POPC   C1B32647  30.792  20.550   8.770
 2410POPC   C2B32648  30.894  20.718   8.344
 2410POPC   C3B32649  30.932  20.599   7.908
 2410POPC   C4B32650  31.040  20.406   7.479
 2411POPC   NC332651  23.948  10.726   9.619
 2411POPC   PO432652  23.420  10.325   9.657
 2411POPC   GL132653  23.609  10.478   9.282
 2411POPC   GL232654  23.957  10.339   9.264
 2411POPC   C1A32655  23.414  10.635   8.905
 2411POPC   D2A32656  23.519  10.845   8.508
 2411POPC   C3A32657  23.547  10.603   8.125
 2411POPC   C4A32658  23.368  10.661   7.721
 2411POPC   C1B32659  23.924  10.636   8.885
 2411POPC   C2B32660  23.959  10.553   8.426
 2411POPC   C3B32661  24.094  10.660   7.978
 2411POPC   C4B32662  24.054  10.693   7.468
 2412POPC   NC332663  23.292  15.867   9.487
 2412POPC   PO432664  23.970  15.678   9.549
 2412POPC   GL132665  23.772  16.022   9.250
 2412POPC   GL232666  23.435  16.094   9.088
 2412POPC   C1A32667  23.812  15.965   8.791
 2412POPC   D2A32668  23.860  16.115   8.378
 2412POPC   C3A32669  23.910  15.808   8.070
 2412POPC   C4A32670  24.152  15.765   7.680
 2412POPC   C1B32671  23.284  16.144   8.708
 2412POPC   C2B32672  23.391  16.290   8.326
 2412POPC   C3B32673  23.452  16.141   7.950
 2412POPC   C4B32674  23.757  16.102   7.680
 2413POPC   NC332675  42.817  15.085   9.631
 2413POPC   PO432676  42.342  15.441   9.609
 2413POPC   GL132677  42.144  15.416   9.193
 2413POPC   GL232678  42.456  15.287   9.128
 2413POPC   C1A32679  42.098  15.302   8.737
 2413POPC   D2A32680  42.396  15.407   8.381
 2413POPC   C3A32681  42.478  15.254   7.994
 2413POPC   C4A32682  42.585  15.619   7.717
 2413POPC   C1B32683  42.576  15.164   8.775
 2413POPC   C2B32684  42.324  14.896   8.488
 2413POPC   C3B32685  42.377  14.654   8.137
 2413POPC   C4B32686  42.441  14.758   7.732
 2414POPC   NC332687   5.704  40.516   9.584
 2414POPC   PO432688   5.525  41.145   9.504
 2414POPC   GL132689   5.755  40.932   9.186
 2414POPC   GL232690   5.963  40.601   9.162
 2414POPC   C1A32691   5.859  41.132   8.802
 2414POPC   D2A32692   6.068  41.078   8.419
 2414POPC   C3A32693   5.810  41.115   8.088
 2414POPC   C4A32694   5.558  41.112   7.729
 2414POPC   C1B32695   6.075  40.693   8.766
 2414POPC   C2B32696   6.136  40.553   8.357
 2414POPC   C3B32697   6.116  40.738   7.936
 2414POPC   C4B32698   5.838  40.741   7.559
 2415POPC   NC332699   6.997  10.673   9.326
 2415POPC   PO432700   7.495  10.450   9.740
 2415POPC   GL132701   7.474  10.501   9.199
 2415POPC   GL232702   7.129  10.484   8.898
 2415POPC   C1A32703   7.574  10.326   8.774
 2415POPC   D2A32704   7.298  10.320   8.419
 2415POPC   C3A32705   7.509  10.364   8.026
 2415POPC   C4A32706   7.307  10.375   7.645
 2415POPC   C1B32707   7.325  10.804   8.675
 2415POPC   C2B32708   7.475  10.809   8.253
 2415POPC   C3B32709   7.222  10.829   7.883
 2415POPC   C4B32710   6.890  11.112   7.758
 2416POPC   NC332711  22.995  32.820   9.512
 2416POPC   PO432712  22.418  33.214   9.605
 2416POPC   GL132713  22.723  33.136   9.216
 2416POPC   GL232714  22.776  32.766   9.078
 2416POPC   C1A32715  22.734  33.372   8.807
 2416POPC   D2A32716  22.637  33.507   8.386
 2416POPC   C3A32717  22.732  33.296   8.003
 2416POPC   C4A32718  22.955  33.131   7.644
 2416POPC   C1B32719  22.998  32.941   8.784
 2416POPC   C2B32720  23.024  33.091   8.397
 2416POPC   C3B32721  22.985  32.838   8.063
 2416POPC   C4B32722  23.013  32.611   7.734
 2417POPC   NC332723  17.836  17.631   9.644
 2417POPC   PO432724  18.275  17.275   9.332
 2417POPC   GL132725  18.303  17.550   8.990
 2417POPC   GL232726  18.657  17.679   9.001
 2417POPC   C1A32727  18.045  17.852   8.732
 2417POPC   D2A32728  17.957  18.089   8.357
 2417POPC   C3A32729  17.925  17.787   8.044
 2417POPC   C4A32730  18.096  17.714   7.681
 2417POPC   C1B32731  18.662  17.359   8.684
 2417POPC   C2B32732  18.315  17.493   8.430
 2417POPC   C3B32733  18.411  17.538   8.027
 2417POPC   C4B32734  18.631  17.209   7.784
 2418POPC   NC332735  23.640  17.868   9.551
 2418POPC   PO432736  23.424  17.174   9.484
 2418POPC   GL132737  23.634  17.391   9.137
 2418POPC   GL232738  23.895  17.605   9.193
 2418POPC   C1A32739  23.803  17.242   8.729
 2418POPC   D2A32740  23.937  17.161   8.302
 2418POPC   C3A32741  23.750  17.380   7.926
 2418POPC   C4A32742  23.430  17.720   7.833
 2418POPC   C1B32743  23.736  17.760   8.785
 2418POPC   C2B32744  23.852  17.701   8.361
 2418POPC   C3B32745  23.916  17.872   7.943
 2418POPC   C4B32746  23.850  17.684   7.517
 2419POPC   NC332747  23.921  16.836   9.524
 2419POPC   PO432748  23.465  16.313   9.613
 2419POPC   GL132749  23.662  16.534   9.143
 2419POPC   GL232750  23.643  16.892   9.118
 2419POPC   C1A32751  23.891  16.685   8.745
 2419POPC   D2A32752  24.062  16.660   8.365
 2419POPC   C3A32753  23.804  16.509   8.052
 2419POPC   C4A32754  23.972  16.577   7.679
 2419POPC   C1B32755  23.359  16.933   8.815
 2419POPC   C2B32756  23.468  16.766   8.463
 2419POPC   C3B32757  23.525  16.923   8.118
 2419POPC   C4B32758  23.618  16.924   7.734
 2420POPC   NC332759  11.635  10.861   9.493
 2420POPC   PO432760  12.061  11.480   9.582
 2420POPC   GL132761  12.244  11.397   9.127
 2420POPC   GL232762  12.199  11.044   8.976
 2420POPC   C1A32763  12.505  11.412   8.736
 2420POPC   D2A32764  12.351  11.209   8.353
 2420POPC   C3A32765  12.227  11.541   8.026
 2420POPC   C4A32766  12.261  11.469   7.572
 2420POPC   C1B32767  11.980  11.344   8.688
 2420POPC   C2B32768  11.842  11.322   8.262
 2420POPC   C3B32769  11.886  11.247   7.824
 2420POPC   C4B32770  11.670  11.558   7.598
 2421POPC   NC332771   1.980  18.670   9.414
 2421POPC   PO432772   1.523  19.143   9.467
 2421POPC   GL132773   1.899  19.111   9.134
 2421POPC   GL232774   2.264  18.948   9.098
 2421POPC   C1A32775   2.111  19.244   8.733
 2421POPC   D2A32776   2.307  19.033   8.383
 2421POPC   C3A32777   2.129  19.193   8.000
 2421POPC   C4A32778   2.191  19.522   7.680
 2421POPC   C1B32779   2.111  18.708   8.739
 2421POPC   C2B32780   2.291  18.527   8.333
 2421POPC   C3B32781   2.205  18.653   7.958
 2421POPC   C4B32782   1.835  18.760   7.926
 2422POPC   NC332783   1.076  32.732   9.539
 2422POPC   PO432784   1.558  33.039   9.339
 2422POPC   GL132785   1.467  32.726   9.040
 2422POPC   GL232786   1.113  32.757   9.037
 2422POPC   C1A32787   1.303  32.611   8.591
 2422POPC   D2A32788   1.110  32.593   8.169
 2422POPC   C3A32789   1.252  32.934   7.829
 2422POPC   C4A32790   1.281  33.274   7.482
 2422POPC   C1B32791   0.939  32.959   8.680
 2422POPC   C2B32792   1.020  33.084   8.261
 2422POPC   C3B32793   0.767  33.130   7.886
 2422POPC   C4B32794   0.775  33.433   7.518
 2423POPC   NC332795  11.912  21.123   9.657
 2423POPC   PO432796  12.283  21.700   9.576
 2423POPC   GL132797  12.192  21.537   9.182
 2423POPC   GL232798  12.073  21.193   9.170
 2423POPC   C1A32799  12.244  21.435   8.749
 2423POPC   D2A32800  12.119  21.282   8.347
 2423POPC   C3A32801  12.257  21.514   8.006
 2423POPC   C4A32802  12.383  21.397   7.584
 2423POPC   C1B32803  11.753  21.434   8.892
 2423POPC   C2B32804  11.614  21.363   8.468
 2423POPC   C3B32805  11.726  21.513   8.043
 2423POPC   C4B32806  11.909  21.304   7.702
 2424POPC   NC332807   3.366  36.769   9.218
 2424POPC   PO432808   3.737  37.262   9.573
 2424POPC   GL132809   3.824  37.218   9.138
 2424POPC   GL232810   3.780  36.945   9.030
 2424POPC   C1A32811   3.780  37.389   8.716
 2424POPC   D2A32812   3.481  37.356   8.417
 2424POPC   C3A32813   3.530  37.127   8.034
 2424POPC   C4A32814   3.391  37.086   7.636
 2424POPC   C1B32815   3.909  36.712   8.702
 2424POPC   C2B32816   3.843  36.836   8.333
 2424POPC   C3B32817   3.771  36.670   7.950
 2424POPC   C4B32818   3.354  36.586   7.915
 2425POPC   NC332819  32.291   6.590   9.493
 2425POPC   PO432820  31.665   6.714   9.549
 2425POPC   GL132821  32.054   6.853   9.162
 2425POPC   GL232822  32.486   6.950   9.228
 2425POPC   C1A32823  32.339   6.569   8.860
 2425POPC   D2A32824  32.153   6.515   8.496
 2425POPC   C3A32825  32.385   6.669   8.175
 2425POPC   C4A32826  32.352   6.429   7.811
 2425POPC   C1B32827  32.434   7.051   8.832
 2425POPC   C2B32828  32.641   7.064   8.472
 2425POPC   C3B32829  32.566   7.169   8.074
 2425POPC   C4B32830  32.477   6.926   7.747
 2426POPC   NC332831  34.845   7.559   9.521
 2426POPC   PO432832  34.216   7.286   9.464
 2426POPC   GL132833  34.422   7.197   9.099
 2426POPC   GL232834  34.640   7.454   9.083
 2426POPC   C1A32835  34.726   7.028   8.810
 2426POPC   D2A32836  34.872   7.135   8.400
 2426POPC   C3A32837  34.582   7.351   8.143
 2426POPC   C4A32838  34.490   7.344   7.719
 2426POPC   C1B32839  34.826   7.544   8.716
 2426POPC   C2B32840  34.701   7.786   8.392
 2426POPC   C3B32841  34.782   7.840   7.981
 2426POPC   C4B32842  34.984   7.619   7.708
 2427POPC   NC332843  36.011  32.598   9.445
 2427POPC   PO432844  36.348  33.224   9.547
 2427POPC   GL132845  36.227  33.345   9.138
 2427POPC   GL232846  36.581  33.303   9.051
 2427POPC   C1A32847  35.838  33.272   8.873
 2427POPC   D2A32848  35.782  33.119   8.449
 2427POPC   C3A32849  36.066  33.193   8.100
 2427POPC   C4A32850  36.272  32.832   7.887
 2427POPC   C1B32851  36.394  33.165   8.658
 2427POPC   C2B32852  36.567  33.135   8.232
 2427POPC   C3B32853  36.559  33.240   7.803
 2427POPC   C4B32854  36.595  32.945   7.471
 2428POPC   NC332855  42.663   6.823   9.591
 2428POPC   PO432856  43.135   6.278   9.555
 2428POPC   GL132857  43.071   6.647   9.265
 2428POPC   GL232858  43.114   6.437   9.015
 2428POPC   C1A32859  43.045   6.863   8.787
 2428POPC   D2A32860  43.069   6.652   8.353
 2428POPC   C3A32861  43.055   6.860   7.982
 2428POPC   C4A32862  43.229   6.806   7.573
 2428POPC   C1B32863  42.794   6.420   8.702
 2428POPC   C2B32864  42.609   6.290   8.378
 2428POPC   C3B32865  42.692   6.453   7.988
 2428POPC   C4B32866  42.763   6.597   7.611
 2429POPC   NC332867  19.426  20.153   9.797
 2429POPC   PO432868  18.964  20.571   9.564
 2429POPC   GL132869  19.054  20.419   9.165
 2429POPC   GL232870  19.312  20.662   9.193
 2429POPC   C1A32871  19.235  20.373   8.731
 2429POPC   D2A32872  19.070  20.368   8.330
 2429POPC   C3A32873  19.171  20.419   7.930
 2429POPC   C4A32874  18.822  20.554   7.710
 2429POPC   C1B32875  19.128  20.855   8.845
 2429POPC   C2B32876  19.287  20.831   8.424
 2429POPC   C3B32877  19.169  20.925   8.006
 2429POPC   C4B32878  19.297  20.794   7.620
 2430POPC   NC332879  35.390  13.400   9.516
 2430POPC   PO432880  35.568  14.063   9.565
 2430POPC   GL132881  35.491  13.835   9.165
 2430POPC   GL232882  35.573  13.463   9.047
 2430POPC   C1A32883  35.620  13.855   8.736
 2430POPC   D2A32884  35.679  13.535   8.460
 2430POPC   C3A32885  35.612  13.729   8.090
 2430POPC   C4A32886  35.596  13.501   7.705
 2430POPC   C1B32887  35.237  13.466   8.721
 2430POPC   C2B32888  35.211  13.328   8.308
 2430POPC   C3B32889  35.149  13.581   7.957
 2430POPC   C4B32890  35.011  13.706   7.574
 2431POPC   NC332891  41.828  24.014   9.421
 2431POPC   PO432892  41.386  23.547   9.459
 2431POPC   GL132893  41.308  23.735   9.086
 2431POPC   GL232894  41.654  23.815   8.992
 2431POPC   C1A32895  41.330  23.635   8.654
 2431POPC   D2A32896  41.655  23.611   8.321
 2431POPC   C3A32897  41.464  23.702   7.952
 2431POPC   C4A32898  41.402  23.487   7.551
 2431POPC   C1B32899  41.796  24.019   8.589
 2431POPC   C2B32900  41.811  24.121   8.145
 2431POPC   C3B32901  41.977  23.985   7.735
 2431POPC   C4B32902  41.927  24.183   7.287
 2432POPC   NC332903  13.640  31.195   9.404
 2432POPC   PO432904  13.575  30.439   9.508
 2432POPC   GL132905  13.736  30.696   9.193
 2432POPC   GL232906  13.409  30.812   9.139
 2432POPC   C1A32907  13.788  30.873   8.765
 2432POPC   D2A32908  13.858  30.597   8.397
 2432POPC   C3A32909  13.852  30.796   8.024
 2432POPC   C4A32910  13.643  30.836   7.678
 2432POPC   C1B32911  13.293  30.998   8.771
 2432POPC   C2B32912  13.495  31.030   8.357
 2432POPC   C3B32913  13.261  30.925   8.005
 2432POPC   C4B32914  13.158  31.049   7.615
 2433POPC   NC332915   0.896   8.771   9.671
 2433POPC   PO432916   1.491   8.735   9.517
 2433POPC   GL132917   1.420   8.846   9.119
 2433POPC   GL232918   1.065   8.828   9.052
 2433POPC   C1A32919   1.443   8.780   8.700
 2433POPC   D2A32920   1.339   8.880   8.286
 2433POPC   C3A32921   1.618   9.153   8.089
 2433POPC   C4A32922   1.708   8.942   7.723
 2433POPC   C1B32923   0.920   8.744   8.602
 2433POPC   C2B32924   0.667   8.649   8.238
 2433POPC   C3B32925   0.799   8.824   7.848
 2433POPC   C4B32926   1.185   9.113   7.826
 2434POPC   NC332927  40.021  33.888   9.669
 2434POPC   PO432928  40.456  34.232   9.337
 2434POPC   GL132929  40.187  33.878   9.177
 2434POPC   GL232930  39.852  33.758   9.190
 2434POPC   C1A32931  40.155  33.730   8.765
 2434POPC   D2A32932  40.099  33.544   8.381
 2434POPC   C3A32933  39.877  33.752   8.072
 2434POPC   C4A32934  40.016  33.991   7.702
 2434POPC   C1B32935  39.685  33.500   8.854
 2434POPC   C2B32936  39.529  33.560   8.439
 2434POPC   C3B32937  39.450  33.414   8.039
 2434POPC   C4B32938  39.640  33.490   7.689
 2435POPC   NC332939   2.655   5.678   9.563
 2435POPC   PO432940   2.803   6.309   9.499
 2435POPC   GL132941   2.684   6.084   9.144
 2435POPC   GL232942   2.424   5.844   9.133
 2435POPC   C1A32943   2.857   5.833   8.811
 2435POPC   D2A32944   3.035   5.788   8.401
 2435POPC   C3A32945   2.880   6.082   8.107
 2435POPC   C4A32946   3.088   5.984   7.719
 2435POPC   C1B32947   2.373   5.654   8.750
 2435POPC   C2B32948   2.495   5.865   8.416
 2435POPC   C3B32949   2.511   5.737   8.030
 2435POPC   C4B32950   2.558   6.008   7.706
 2436POPC   NC332951  27.038  43.959   9.465
 2436POPC   PO432952  26.372  44.163   9.515
 2436POPC   GL132953  26.635  44.033   9.153
 2436POPC   GL232954  26.626  43.687   8.979
 2436POPC   C1A32955  26.928  44.054   8.792
 2436POPC   D2A32956  26.825  43.865   8.413
 2436POPC   C3A32957  26.865  44.065   8.044
 2436POPC   C4A32958  26.804  43.853   7.640
 2436POPC   C1B32959  27.049  43.550   8.775
 2436POPC   C2B32960  27.278  43.637   8.422
 2436POPC   C3B32961  27.160  43.647   7.994
 2436POPC   C4B32962  27.286  43.664   7.548
 2437POPC   NC332963   7.048  19.779   9.497
 2437POPC   PO432964   7.496  20.215   9.645
 2437POPC   GL132965   7.314  20.104   9.210
 2437POPC   GL232966   7.393  19.765   9.134
 2437POPC   C1A32967   7.363  20.121   8.750
 2437POPC   D2A32968   7.521  20.271   8.346
 2437POPC   C3A32969   7.447  20.052   7.970
 2437POPC   C4A32970   7.027  19.913   7.851
 2437POPC   C1B32971   7.459  19.580   8.779
 2437POPC   C2B32972   7.429  19.737   8.381
 2437POPC   C3B32973   7.344  19.546   8.010
 2437POPC   C4B32974   7.626  19.548   7.754
 2438POPC   NC332975  31.786  16.873   9.517
 2438POPC   PO432976  31.336  16.311   9.482
 2438POPC   GL132977  31.423  16.590   9.063
 2438POPC   GL232978  31.573  16.922   9.077
 2438POPC   C1A32979  31.307  16.868   8.664
 2438POPC   D2A32980  31.483  16.676   8.290
 2438POPC   C3A32981  31.322  16.783   7.875
 2438POPC   C4A32982  31.155  17.076   7.547
 2438POPC   C1B32983  31.784  16.741   8.741
 2438POPC   C2B32984  31.995  16.917   8.409
 2438POPC   C3B32985  31.823  16.952   8.027
 2438POPC   C4B32986  31.750  16.532   7.852
 2439POPC   NC332987   2.525  28.035   9.542
 2439POPC   PO432988   2.920  28.548   9.600
 2439POPC   GL132989   2.905  28.541   9.178
 2439POPC   GL232990   2.873  28.194   9.191
 2439POPC   C1A32991   3.000  28.386   8.744
 2439POPC   D2A32992   2.918  28.531   8.352
 2439POPC   C3A32993   3.061  28.319   8.003
 2439POPC   C4A32994   2.787  28.426   7.682
 2439POPC   C1B32995   2.533  28.307   8.925
 2439POPC   C2B32996   2.512  28.228   8.485
 2439POPC   C3B32997   2.467  28.349   8.067
 2439POPC   C4B32998   2.263  28.336   7.665
 2440POPC   NC332999  19.471  12.617   9.483
 2440POPC   PO433000  19.806  13.181   9.569
 2440POPC   GL133001  19.832  13.101   9.149
 2440POPC   GL233002  19.497  13.133   9.153
 2440POPC   C1A33003  19.985  12.857   8.801
 2440POPC   D2A33004  20.108  12.776   8.374
 2440POPC   C3A33005  20.095  12.503   8.000
 2440POPC   C4A33006  19.957  12.736   7.628
 2440POPC   C1B33007  19.481  13.036   8.747
 2440POPC   C2B33008  19.593  12.705   8.473
 2440POPC   C3B33009  19.680  12.785   8.059
 2440POPC   C4B33010  19.580  13.077   7.756
 2441POPC   NC333011  17.347  18.744   9.471
 2441POPC   PO433012  17.672  18.057   9.500
 2441POPC   GL133013  17.695  18.211   9.086
 2441POPC   GL233014  17.662  18.576   9.086
 2441POPC   C1A33015  17.564  18.226   8.652
 2441POPC   D2A33016  17.192  18.013   8.460
 2441POPC   C3A33017  17.099  18.153   8.044
 2441POPC   C4A33018  17.212  18.463   7.782
 2441POPC   C1B33019  17.275  18.620   8.831
 2441POPC   C2B33020  17.217  18.548   8.388
 2441POPC   C3B33021  17.585  18.449   8.129
 2441POPC   C4B33022  17.631  18.723   7.768
 2442POPC   NC333023  34.329   5.344   9.532
 2442POPC   PO433024  34.885   4.940   9.503
 2442POPC   GL133025  34.639   5.164   9.175
 2442POPC   GL233026  34.415   4.906   9.171
 2442POPC   C1A33027  34.391   5.168   8.744
 2442POPC   D2A33028  34.374   4.870   8.351
 2442POPC   C3A33029  34.464   4.959   7.890
 2442POPC   C4A33030  34.342   5.303   7.607
 2442POPC   C1B33031  34.755   4.800   8.844
 2442POPC   C2B33032  34.886   4.745   8.432
 2442POPC   C3B33033  34.947   4.958   8.048
 2442POPC   C4B33034  35.207   4.882   7.692
 2443POPC   NC333035  34.402  30.736   9.512
 2443POPC   PO433036  35.022  30.712   9.596
 2443POPC   GL133037  34.800  30.603   9.213
 2443POPC   GL233038  34.568  30.887   9.070
 2443POPC   C1A33039  34.693  30.477   8.815
 2443POPC   D2A33040  34.727  30.789   8.518
 2443POPC   C3A33041  34.714  30.642   8.108
 2443POPC   C4A33042  34.745  30.930   7.775
 2443POPC   C1B33043  34.252  30.912   8.746
 2443POPC   C2B33044  34.260  30.827   8.309
 2443POPC   C3B33045  34.279  31.011   7.901
 2443POPC   C4B33046  34.311  30.962   7.427
 2444POPC   NC333047  34.855  23.879   9.549
 2444POPC   PO433048  34.308  23.440   9.499
 2444POPC   GL133049  34.442  23.649   9.112
 2444POPC   GL233050  34.712  23.914   9.075
 2444POPC   C1A33051  34.398  23.476   8.702
 2444POPC   D2A33052  34.184  23.316   8.306
 2444POPC   C3A33053  34.357  23.584   7.984
 2444POPC   C4A33054  34.240  23.978   7.779
 2444POPC   C1B33055  34.496  24.000   8.723
 2444POPC   C2B33056  34.462  23.991   8.289
 2444POPC   C3B33057  34.686  24.182   7.938
 2444POPC   C4B33058  34.906  23.937   7.639
 2445POPC   NC333059  20.700  41.820   9.667
 2445POPC   PO433060  20.814  42.510   9.714
 2445POPC   GL133061  20.726  42.352   9.265
 2445POPC   GL233062  20.734  42.635   9.045
 2445POPC   C1A33063  20.469  42.283   8.843
 2445POPC   D2A33064  20.517  42.295   8.373
 2445POPC   C3A33065  20.387  42.456   7.938
 2445POPC   C4A33066  20.506  42.181   7.607
 2445POPC   C1B33067  20.587  42.772   8.627
 2445POPC   C2B33068  20.600  42.932   8.194
 2445POPC   C3B33069  20.876  42.837   7.854
 2445POPC   C4B33070  20.716  42.614   7.510
 2446POPC   NC333071  21.874  26.076   9.530
 2446POPC   PO433072  22.515  25.811   9.538
 2446POPC   GL133073  22.293  25.915   9.125
 2446POPC   GL233074  22.046  26.179   9.051
 2446POPC   C1A33075  22.389  26.082   8.697
 2446POPC   D2A33076  22.257  26.284   8.286
 2446POPC   C3A33077  22.501  26.221   7.945
 2446POPC   C4A33078  22.445  25.970   7.563
 2446POPC   C1B33079  21.801  26.100   8.683
 2446POPC   C2B33080  21.589  25.882   8.347
 2446POPC   C3B33081  21.798  25.896   7.958
 2446POPC   C4B33082  22.037  26.212   7.737
 2447POPC   NC333083  44.359  33.175   9.746
 2447POPC   PO433084  44.743  32.847   9.467
 2447POPC   GL133085  44.559  32.864   9.047
 2447POPC   GL233086  44.241  32.673   9.095
 2447POPC   C1A33087  44.696  33.022   8.616
 2447POPC   D2A33088  44.509  33.321   8.324
 2447POPC   C3A33089  44.551  33.209   7.909
 2447POPC   C4A33090  44.872  32.866   7.895
 2447POPC   C1B33091  44.267  32.770   8.649
 2447POPC   C2B33092  44.257  32.887   8.230
 2447POPC   C3B33093  44.390  32.730   7.858
 2447POPC   C4B33094  44.387  32.736   7.405
 2448POPC   NC333095  33.181  30.852   9.684
 2448POPC   PO433096  32.809  30.333   9.452
 2448POPC   GL133097  32.893  30.688   9.165
 2448POPC   GL233098  33.200  30.900   9.172
 2448POPC   C1A33099  32.884  30.852   8.744
 2448POPC   D2A33100  32.919  31.020   8.321
 2448POPC   C3A33101  32.965  30.777   7.952
 2448POPC   C4A33102  32.843  30.783   7.532
 2448POPC   C1B33103  33.318  30.604   8.883
 2448POPC   C2B33104  33.225  30.561   8.458
 2448POPC   C3B33105  33.417  30.565   8.067
 2448POPC   C4B33106  33.313  30.537   7.649
 2449POPC   NC333107  44.306  27.022   9.341
 2449POPC   PO433108  44.643  26.575   9.716
 2449POPC   GL133109  44.937  26.748   9.353
 2449POPC   GL233110   0.094  26.512   9.147
 2449POPC   C1A33111  44.864  26.903   8.891
 2449POPC   D2A33112  44.526  27.027   8.591
 2449POPC   C3A33113  44.603  27.080   8.154
 2449POPC   C4A33114  44.545  26.761   7.835
 2449POPC   C1B33115  44.882  26.374   8.755
 2449POPC   C2B33116  44.763  26.544   8.342
 2449POPC   C3B33117  44.947  26.490   7.937
 2449POPC   C4B33118  44.847  26.524   7.476
 2450POPC   NC333119   3.680   1.323   9.524
 2450POPC   PO433120   3.465   0.668   9.483
 2450POPC   GL133121   3.488   0.957   9.137
 2450POPC   GL233122   3.467   1.314   9.078
 2450POPC   C1A33123   3.476   0.926   8.729
 2450POPC   D2A33124   3.752   0.939   8.415
 2450POPC   C3A33125   3.550   0.875   8.051
 2450POPC   C4A33126   3.674   1.033   7.652
 2450POPC   C1B33127   3.206   1.352   8.768
 2450POPC   C2B33128   3.308   1.253   8.353
 2450POPC   C3B33129   3.599   1.437   8.137
 2450POPC   C4B33130   3.745   1.620   7.797
 2451POPC   NC333131  30.436  24.027   9.532
 2451POPC   PO433132  29.803  23.699   9.537
 2451POPC   GL133133  29.914  23.762   9.119
 2451POPC   GL233134  30.276  23.672   9.147
 2451POPC   C1A33135  29.783  23.777   8.665
 2451POPC   D2A33136  29.520  23.715   8.257
 2451POPC   C3A33137  29.718  23.545   7.857
 2451POPC   C4A33138  29.890  23.845   7.517
 2451POPC   C1B33139  30.263  24.046   8.855
 2451POPC   C2B33140  30.110  24.125   8.429
 2451POPC   C3B33141  30.094  23.915   8.005
 2451POPC   C4B33142  30.390  23.954   7.633
 2452POPC   NC333143  33.238  12.138   9.676
 2452POPC   PO433144  32.728  12.169   9.319
 2452POPC   GL133145  33.067  12.266   9.102
 2452POPC   GL233146  33.168  11.942   9.116
 2452POPC   C1A33147  33.109  12.316   8.662
 2452POPC   D2A33148  33.132  12.408   8.213
 2452POPC   C3A33149  32.999  12.128   7.902
 2452POPC   C4A33150  32.753  12.397   7.634
 2452POPC   C1B33151  33.300  11.789   8.728
 2452POPC   C2B33152  33.275  11.932   8.311
 2452POPC   C3B33153  33.307  11.694   7.942
 2452POPC   C4B33154  33.279  11.672   7.465
 2453POPC   NC333155  11.163  32.862   9.447
 2453POPC   PO433156  11.606  33.381   9.572
 2453POPC   GL133157  11.381  33.254   9.215
 2453POPC   GL233158  11.604  32.973   9.179
 2453POPC   C1A33159  11.255  33.003   8.802
 2453POPC   D2A33160  11.478  32.942   8.412
 2453POPC   C3A33161  11.245  32.886   8.035
 2453POPC   C4A33162  11.235  32.673   7.647
 2453POPC   C1B33163  11.682  33.266   8.820
 2453POPC   C2B33164  11.672  33.456   8.425
 2453POPC   C3B33165  11.515  33.329   8.078
 2453POPC   C4B33166  11.560  33.125   7.730
 2454POPC   NC333167   9.638  40.924   9.864
 2454POPC   PO433168   9.921  40.547   9.400
 2454POPC   GL133169   9.835  40.617   9.014
 2454POPC   GL233170  10.153  40.446   8.953
 2454POPC   C1A33171   9.739  40.947   8.722
 2454POPC   D2A33172   9.891  40.928   8.321
 2454POPC   C3A33173   9.534  40.811   8.117
 2454POPC   C4A33174   9.367  41.200   7.909
 2454POPC   C1B33175   9.948  40.459   8.551
 2454POPC   C2B33176  10.029  40.317   8.144
 2454POPC   C3B33177   9.839  40.542   7.810
 2454POPC   C4B33178   9.843  41.010   7.790
 2455POPC   NC333179   8.263  39.218   9.958
 2455POPC   PO433180   8.234  39.636   9.488
 2455POPC   GL133181   8.234  39.349   9.156
 2455POPC   GL233182   8.466  39.092   9.249
 2455POPC   C1A33183   8.041  39.418   8.778
 2455POPC   D2A33184   8.197  39.436   8.387
 2455POPC   C3A33185   7.964  39.266   8.050
 2455POPC   C4A33186   8.180  39.463   7.703
 2455POPC   C1B33187   8.308  38.980   8.822
 2455POPC   C2B33188   7.975  38.977   8.519
 2455POPC   C3B33189   8.062  38.753   8.152
 2455POPC   C4B33190   8.345  38.968   7.900
 2456POPC   NC333191  23.622  29.212   9.608
 2456POPC   PO433192  24.229  29.417   9.659
 2456POPC   GL133193  23.963  29.235   9.223
 2456POPC   GL233194  23.597  29.288   9.129
 2456POPC   C1A33195  23.856  29.169   8.734
 2456POPC   D2A33196  23.751  29.326   8.333
 2456POPC   C3A33197  23.727  28.950   8.122
 2456POPC   C4A33198  23.708  28.833   7.734
 2456POPC   C1B33199  23.284  29.403   8.880
 2456POPC   C2B33200  23.245  29.336   8.471
 2456POPC   C3B33201  23.220  29.285   8.052
 2456POPC   C4B33202  23.581  29.342   7.828
 2457POPC   NC333203  30.151  19.928   9.510
 2457POPC   PO433204  30.786  20.043   9.531
 2457POPC   GL133205  30.653  19.713   9.219
 2457POPC   GL233206  30.451  19.946   9.104
 2457POPC   C1A33207  30.780  19.721   8.780
 2457POPC   D2A33208  30.591  19.671   8.373
 2457POPC   C3A33209  30.707  19.811   7.984
 2457POPC   C4A33210  31.114  19.626   7.874
 2457POPC   C1B33211  30.395  20.199   8.786
 2457POPC   C2B33212  30.453  20.386   8.418
 2457POPC   C3B33213  30.389  20.293   8.022
 2457POPC   C4B33214  30.601  20.244   7.663
 2458POPC   NC333215   7.407   7.763   9.734
 2458POPC   PO433216   7.140   7.245   9.465
 2458POPC   GL133217   7.355   7.436   9.130
 2458POPC   GL233218   7.564   7.211   9.071
 2458POPC   C1A33219   7.273   7.412   8.676
 2458POPC   D2A33220   7.116   7.556   8.281
 2458POPC   C3A33221   7.313   7.395   7.921
 2458POPC   C4A33222   7.247   7.507   7.459
 2458POPC   C1B33223   7.731   7.169   8.717
 2458POPC   C2B33224   7.646   7.299   8.314
 2458POPC   C3B33225   7.721   7.046   7.953
 2458POPC   C4B33226   7.528   7.100   7.570
 2459POPC   NC333227  13.942  16.101   9.565
 2459POPC   PO433228  13.396  15.644   9.671
 2459POPC   GL133229  13.643  15.824   9.255
 2459POPC   GL233230  13.796  16.160   9.078
 2459POPC   C1A33231  13.667  15.775   8.784
 2459POPC   D2A33232  13.583  16.071   8.446
 2459POPC   C3A33233  13.568  15.857   8.089
 2459POPC   C4A33234  13.521  15.807   7.696
 2459POPC   C1B33235  13.939  16.369   8.670
 2459POPC   C2B33236  14.086  16.310   8.230
 2459POPC   C3B33237  14.035  16.006   7.882
 2459POPC   C4B33238  13.839  16.130   7.466
 2460POPC   NC333239  40.802  37.246   9.507
 2460POPC   PO433240  40.509  37.888   9.545
 2460POPC   GL133241  40.669  37.649   9.189
 2460POPC   GL233242  40.431  37.387   9.196
 2460POPC   C1A33243  40.799  37.558   8.755
 2460POPC   D2A33244  41.015  37.502   8.340
 2460POPC   C3A33245  40.834  37.617   7.974
 2460POPC   C4A33246  40.928  37.887   7.620
 2460POPC   C1B33247  40.416  37.222   8.790
 2460POPC   C2B33248  40.280  37.257   8.388
 2460POPC   C3B33249  40.471  37.223   8.009
 2460POPC   C4B33250  40.594  37.364   7.601
 2461POPC   NC333251  21.746   6.524   9.375
 2461POPC   PO433252  22.465   6.755   9.472
 2461POPC   GL133253  22.236   6.545   9.188
 2461POPC   GL233254  22.055   6.824   9.123
 2461POPC   C1A33255  22.301   6.502   8.763
 2461POPC   D2A33256  22.349   6.264   8.410
 2461POPC   C3A33257  22.166   6.484   8.062
 2461POPC   C4A33258  22.364   6.683   7.727
 2461POPC   C1B33259  21.974   6.899   8.711
 2461POPC   C2B33260  22.243   6.940   8.356
 2461POPC   C3B33261  22.076   7.022   7.966
 2461POPC   C4B33262  21.902   6.836   7.583
 2462POPC   NC333263   4.489   7.919   9.933
 2462POPC   PO433264   4.264   8.413   9.562
 2462POPC   GL133265   4.245   8.153   9.192
 2462POPC   GL233266   4.519   7.934   9.045
 2462POPC   C1A33267   4.275   8.271   8.764
 2462POPC   D2A33268   4.469   8.559   8.495
 2462POPC   C3A33269   4.505   8.429   8.060
 2462POPC   C4A33270   4.308   8.519   7.646
 2462POPC   C1B33271   4.729   7.966   8.674
 2462POPC   C2B33272   4.830   7.920   8.263
 2462POPC   C3B33273   4.888   8.115   7.892
 2462POPC   C4B33274   4.552   8.087   7.652
 2463POPC   NC333275  11.391  38.494   9.553
 2463POPC   PO433276  10.840  38.288   9.395
 2463POPC   GL133277  11.050  38.563   9.128
 2463POPC   GL233278  11.397  38.481   9.057
 2463POPC   C1A33279  11.104  38.757   8.740
 2463POPC   D2A33280  11.199  38.554   8.383
 2463POPC   C3A33281  10.887  38.508   8.106
 2463POPC   C4A33282  10.958  38.543   7.720
 2463POPC   C1B33283  11.667  38.286   8.800
 2463POPC   C2B33284  11.668  38.368   8.396
 2463POPC   C3B33285  11.476  38.289   7.978
 2463POPC   C4B33286  11.450  38.454   7.537
 2464POPC   NC333287  16.726  23.947   9.362
 2464POPC   PO433288  16.332  23.429   9.603
 2464POPC   GL133289  16.438  23.526   9.190
 2464POPC   GL233290  16.804  23.481   9.185
 2464POPC   C1A33291  16.571  23.701   8.788
 2464POPC   D2A33292  16.805  23.680   8.430
 2464POPC   C3A33293  16.561  23.914   8.133
 2464POPC   C4A33294  16.680  23.953   7.721
 2464POPC   C1B33295  17.113  23.328   8.945
 2464POPC   C2B33296  17.237  23.329   8.527
 2464POPC   C3B33297  17.213  23.532   8.143
 2464POPC   C4B33298  17.156  23.367   7.754
 2465POPC   NC333299   2.355  43.396   9.689
 2465POPC   PO433300   2.897  43.109   9.448
 2465POPC   GL133301   2.608  43.037   9.138
 2465POPC   GL233302   2.462  43.357   9.170
 2465POPC   C1A33303   2.611  43.000   8.688
 2465POPC   D2A33304   2.863  42.957   8.357
 2465POPC   C3A33305   2.721  42.812   7.993
 2465POPC   C4A33306   3.008  42.959   7.693
 2465POPC   C1B33307   2.541  43.513   8.784
 2465POPC   C2B33308   2.693  43.444   8.399
 2465POPC   C3B33309   2.800  43.328   8.005
 2465POPC   C4B33310   2.668  43.469   7.660
 2466POPC   NC333311   0.297  31.514   9.562
 2466POPC   PO433312   0.753  31.056   9.718
 2466POPC   GL133313   0.404  31.047   9.258
 2466POPC   GL233314   0.234  31.357   9.107
 2466POPC   C1A33315   0.552  31.208   8.765
 2466POPC   D2A33316   0.403  31.242   8.354
 2466POPC   C3A33317   0.691  31.238   8.013
 2466POPC   C4A33318   0.652  31.442   7.626
 2466POPC   C1B33319   0.148  31.573   8.729
 2466POPC   C2B33320  44.935  31.494   8.354
 2466POPC   C3B33321   0.147  31.502   7.957
 2466POPC   C4B33322  44.998  31.462   7.559
 2467POPC   NC333323  11.083  13.271   9.515
 2467POPC   PO433324  11.260  12.638   9.695
 2467POPC   GL133325  11.075  12.800   9.322
 2467POPC   GL233326  11.430  12.801   9.233
 2467POPC   C1A33327  11.088  12.881   8.866
 2467POPC   D2A33328  11.421  12.780   8.573
 2467POPC   C3A33329  11.320  12.824   8.134
 2467POPC   C4A33330  11.446  12.921   7.751
 2467POPC   C1B33331  11.632  13.115   9.010
 2467POPC   C2B33332  11.700  13.248   8.606
 2467POPC   C3B33333  11.724  13.098   8.222
 2467POPC   C4B33334  11.789  13.319   7.814
 2468POPC   NC333335  13.258  16.755   9.891
 2468POPC   PO433336  13.808  16.538   9.494
 2468POPC   GL133337  13.474  16.532   9.178
 2468POPC   GL233338  13.625  16.797   9.056
 2468POPC   C1A33339  13.446  16.530   8.666
 2468POPC   D2A33340  13.279  16.720   8.240
 2468POPC   C3A33341  13.497  16.820   7.828
 2468POPC   C4A33342  13.799  16.624   7.516
 2468POPC   C1B33343  13.693  16.987   8.661
 2468POPC   C2B33344  13.799  16.745   8.296
 2468POPC   C3B33345  14.030  16.835   7.931
 2468POPC   C4B33346  13.896  17.110   7.589
 2469POPC   NC333347  29.253   9.384   9.837
 2469POPC   PO433348  29.102   8.764   9.564
 2469POPC   GL133349  29.297   8.843   9.167
 2469POPC   GL233350  29.426   9.147   9.283
 2469POPC   C1A33351  29.236   8.899   8.728
 2469POPC   D2A33352  29.173   8.807   8.298
 2469POPC   C3A33353  29.011   9.186   8.152
 2469POPC   C4A33354  28.926   9.341   7.757
 2469POPC   C1B33355  29.665   9.099   8.903
 2469POPC   C2B33356  29.780   9.179   8.504
 2469POPC   C3B33357  29.550   9.123   8.125
 2469POPC   C4B33358  29.293   8.947   7.795
 2470POPC   NC333359   0.850   5.799   9.717
 2470POPC   PO433360   1.469   5.852   9.610
 2470POPC   GL133361   1.172   5.932   9.287
 2470POPC   GL233362   1.144   5.570   9.252
 2470POPC   C1A33363   1.080   6.253   8.959
 2470POPC   D2A33364   1.125   6.202   8.503
 2470POPC   C3A33365   0.802   6.166   8.165
 2470POPC   C4A33366   0.871   5.978   7.775
 2470POPC   C1B33367   1.317   5.562   8.833
 2470POPC   C2B33368   1.119   5.606   8.456
 2470POPC   C3B33369   1.197   5.701   8.063
 2470POPC   C4B33370   1.099   5.559   7.647
 2471POPC   NC333371   0.724   7.466   9.522
 2471POPC   PO433372   0.171   7.695   9.748
 2471POPC   GL133373   0.402   7.607   9.187
 2471POPC   GL233374   0.253   7.319   8.976
 2471POPC   C1A33375   0.374   7.729   8.721
 2471POPC   D2A33376   0.394   7.506   8.339
 2471POPC   C3A33377   0.369   7.714   7.944
 2471POPC   C4A33378   0.106   7.407   7.733
 2471POPC   C1B33379   0.689   7.289   8.819
 2471POPC   C2B33380   0.808   7.121   8.422
 2471POPC   C3B33381   0.711   7.227   7.999
 2471POPC   C4B33382   0.882   6.928   7.713
 2472POPC   NC333383  10.197  10.488   9.372
 2472POPC   PO433384  10.783  10.219   9.437
 2472POPC   GL133385  10.615  10.399   9.098
 2472POPC   GL233386  10.734  10.684   9.012
 2472POPC   C1A33387  10.360  10.387   8.731
 2472POPC   D2A33388  10.445  10.630   8.370
 2472POPC   C3A33389  10.357  10.337   8.050
 2472POPC   C4A33390  10.257  10.437   7.665
 2472POPC   C1B33391  10.876  10.462   8.633
 2472POPC   C2B33392  10.886  10.464   8.171
 2472POPC   C3B33393  10.758  10.483   7.743
 2472POPC   C4B33394  10.959  10.316   7.343
 2473POPC   NC333395  33.339  44.748   9.732
 2473POPC   PO433396  32.967   0.377   9.549
 2473POPC   GL133397  32.988   0.388   9.129
 2473POPC   GL233398  32.648   0.420   9.112
 2473POPC   C1A33399  32.964   0.349   8.701
 2473POPC   D2A33400  33.147   0.260   8.362
 2473POPC   C3A33401  33.010   0.237   8.005
 2473POPC   C4A33402  33.215   0.019   7.716
 2473POPC   C1B33403  32.723   0.773   8.796
 2473POPC   C2B33404  33.002   0.796   8.405
 2473POPC   C3B33405  32.934   0.724   7.945
 2473POPC   C4B33406  32.821   0.463   7.542
 2474POPC   NC333407  33.913  32.874   9.900
 2474POPC   PO433408  33.470  32.611   9.413
 2474POPC   GL133409  33.812  32.810   9.093
 2474POPC   GL233410  33.990  33.182   9.180
 2474POPC   C1A33411  33.787  32.704   8.677
 2474POPC   D2A33412  34.075  32.611   8.370
 2474POPC   C3A33413  33.920  32.782   8.009
 2474POPC   C4A33414  33.848  32.716   7.579
 2474POPC   C1B33415  33.811  33.233   8.810
 2474POPC   C2B33416  33.911  33.134   8.422
 2474POPC   C3B33417  33.899  33.297   8.040
 2474POPC   C4B33418  33.764  33.203   7.677
 2475POPC   NC333419  16.254  25.475   9.354
 2475POPC   PO433420  16.903  25.507   9.557
 2475POPC   GL133421  16.692  25.366   9.128
 2475POPC   GL233422  16.992  25.422   9.053
 2475POPC   C1A33423  16.462  25.408   8.715
 2475POPC   D2A33424  16.236  25.290   8.323
 2475POPC   C3A33425  16.451  25.435   7.973
 2475POPC   C4A33426  16.727  25.272   7.706
 2475POPC   C1B33427  16.977  25.366   8.626
 2475POPC   C2B33428  16.757  25.181   8.329
 2475POPC   C3B33429  16.950  24.986   8.047
 2475POPC   C4B33430  17.197  25.141   7.739
 2476POPC   NC333431   0.919  41.220   9.303
 2476POPC   PO433432   1.484  41.600   9.390
 2476POPC   GL133433   1.200  41.589   9.082
 2476POPC   GL233434   1.362  41.270   8.994
 2476POPC   C1A33435   1.133  41.682   8.664
 2476POPC   D2A33436   1.354  41.612   8.284
 2476POPC   C3A33437   1.161  41.882   8.002
 2476POPC   C4A33438   1.111  41.894   7.547
 2476POPC   C1B33439   1.058  41.164   8.686
 2476POPC   C2B33440   1.191  41.081   8.306
 2476POPC   C3B33441   1.501  41.171   8.007
 2476POPC   C4B33442   1.325  41.481   7.738
 2477POPC   NC333443  33.134  35.101   9.513
 2477POPC   PO433444  32.528  35.491   9.567
 2477POPC   GL133445  32.811  35.416   9.154
 2477POPC   GL233446  33.067  35.156   9.023
 2477POPC   C1A33447  32.899  35.616   8.716
 2477POPC   D2A33448  32.792  35.825   8.274
 2477POPC   C3A33449  33.041  35.657   7.939
 2477POPC   C4A33450  33.225  35.255   7.813
 2477POPC   C1B33451  32.814  35.103   8.684
 2477POPC   C2B33452  32.912  35.251   8.254
 2477POPC   C3B33453  32.689  35.306   7.862
 2477POPC   C4B33454  32.715  35.179   7.445
 2478POPC   NC333455  25.167  11.096   9.366
 2478POPC   PO433456  25.404  11.685   9.518
 2478POPC   GL133457  25.442  11.438   9.135
 2478POPC   GL233458  25.653  11.117   9.193
 2478POPC   C1A33459  25.223  11.489   8.736
 2478POPC   D2A33460  25.222  11.633   8.305
 2478POPC   C3A33461  25.158  11.320   7.992
 2478POPC   C4A33462  24.831  11.229   7.714
 2478POPC   C1B33463  25.590  11.127   8.743
 2478POPC   C2B33464  25.720  11.210   8.315
 2478POPC   C3B33465  25.541  10.992   7.970
 2478POPC   C4B33466  25.317  11.028   7.589
 2479POPC   NC333467  33.448  36.602   9.371
 2479POPC   PO433468  32.857  36.435   9.613
 2479POPC   GL133469  32.859  36.818   9.243
 2479POPC   GL233470  33.170  36.885   9.050
 2479POPC   C1A33471  32.751  36.969   8.786
 2479POPC   D2A33472  32.973  36.841   8.387
 2479POPC   C3A33473  32.765  36.955   8.023
 2479POPC   C4A33474  32.580  36.858   7.640
 2479POPC   C1B33475  33.422  36.717   8.690
 2479POPC   C2B33476  33.509  36.742   8.245
 2479POPC   C3B33477  33.202  36.694   7.917
 2479POPC   C4B33478  33.123  37.020   7.651
 2480POPC   NC333479  33.678   2.373   9.463
 2480POPC   PO433480  34.016   1.755   9.461
 2480POPC   GL133481  33.902   2.016   9.157
 2480POPC   GL233482  34.085   2.303   9.087
 2480POPC   C1A33483  33.581   1.969   8.877
 2480POPC   D2A33484  33.644   1.825   8.506
 2480POPC   C3A33485  33.458   1.990   8.179
 2480POPC   C4A33486  33.747   1.807   7.882
 2480POPC   C1B33487  34.029   2.169   8.678
 2480POPC   C2B33488  33.882   2.268   8.284
 2480POPC   C3B33489  34.079   2.188   7.898
 2480POPC   C4B33490  34.023   2.339   7.497
 2481POPC   NC333491  44.581   6.015   9.549
 2481POPC   PO433492  44.803   5.398   9.507
 2481POPC   GL133493  44.619   5.688   9.170
 2481POPC   GL233494  44.917   5.848   9.147
 2481POPC   C1A33495  44.605   5.910   8.762
 2481POPC   D2A33496  44.702   5.689   8.391
 2481POPC   C3A33497  44.810   5.956   8.074
 2481POPC   C4A33498  44.485   5.978   7.826
 2481POPC   C1B33499  44.977   5.519   8.816
 2481POPC   C2B33500   0.207   5.490   8.419
 2481POPC   C3B33501   0.140   5.467   7.981
 2481POPC   C4B33502  44.890   5.699   7.651
 2482POPC   NC333503  29.088  37.800   9.587
 2482POPC   PO433504  29.389  37.229   9.548
 2482POPC   GL133505  29.179  37.459   9.209
 2482POPC   GL233506  29.383  37.795   9.170
 2482POPC   C1A33507  28.995  37.386   8.790
 2482POPC   D2A33508  29.188  37.244   8.402
 2482POPC   C3A33509  28.950  37.279   8.040
 2482POPC   C4A33510  29.083  37.446   7.666
 2482POPC   C1B33511  29.322  37.887   8.738
 2482POPC   C2B33512  29.146  37.774   8.315
 2482POPC   C3B33513  29.188  37.917   7.892
 2482POPC   C4B33514  29.114  37.991   7.456
 2483POPC   NC333515  19.485  20.157   9.288
 2483POPC   PO433516  18.878  19.997   9.538
 2483POPC   GL133517  19.101  19.791   9.234
 2483POPC   GL233518  18.867  19.528   9.214
 2483POPC   C1A33519  19.182  19.854   8.800
 2483POPC   D2A33520  18.932  19.889   8.416
 2483POPC   C3A33521  19.151  19.918   8.011
 2483POPC   C4A33522  19.106  20.059   7.564
 2483POPC   C1B33523  18.747  19.594   8.807
 2483POPC   C2B33524  18.687  19.387   8.421
 2483POPC   C3B33525  18.727  19.598   8.055
 2483POPC   C4B33526  18.853  19.624   7.663
 2484POPC   NC333527  43.267  20.094   9.488
 2484POPC   PO433528  42.703  19.769   9.606
 2484POPC   GL133529  42.921  19.789   9.173
 2484POPC   GL233530  43.217  19.991   9.006
 2484POPC   C1A33531  43.005  19.618   8.753
 2484POPC   D2A33532  43.122  19.971   8.471
 2484POPC   C3A33533  42.991  19.975   8.076
 2484POPC   C4A33534  43.202  19.891   7.726
 2484POPC   C1B33535  43.494  19.740   8.727
 2484POPC   C2B33536  43.332  19.516   8.343
 2484POPC   C3B33537  43.260  19.395   7.906
 2484POPC   C4B33538  43.368  19.471   7.475
 2485POPC   NC333539  12.843  33.529   9.442
 2485POPC   PO433540  12.909  34.173   9.596
 2485POPC   GL133541  12.789  34.020   9.116
 2485POPC   GL233542  12.748  33.682   8.976
 2485POPC   C1A33543  12.914  34.015   8.631
 2485POPC   D2A33544  13.271  33.848   8.384
 2485POPC   C3A33545  13.058  33.572   8.100
 2485POPC   C4A33546  12.785  33.821   7.839
 2485POPC   C1B33547  12.745  33.450   8.619
 2485POPC   C2B33548  12.555  33.581   8.258
 2485POPC   C3B33549  12.515  33.406   7.878
 2485POPC   C4B33550  12.310  33.692   7.645
 2486POPC   NC333551   3.813  38.643   9.444
 2486POPC   PO433552   3.943  37.947   9.493
 2486POPC   GL133553   3.684  38.199   9.218
 2486POPC   GL233554   3.355  38.086   9.197
 2486POPC   C1A33555   3.755  38.369   8.811
 2486POPC   D2A33556   3.948  38.326   8.429
 2486POPC   C3A33557   3.675  38.421   8.078
 2486POPC   C4A33558   3.781  38.407   7.642
 2486POPC   C1B33559   3.298  38.491   8.971
 2486POPC   C2B33560   3.340  38.619   8.572
 2486POPC   C3B33561   3.248  38.673   8.162
 2486POPC   C4B33562   3.243  38.521   7.757
 2487POPC   NC333563  38.237  32.630   9.467
 2487POPC   PO433564  38.603  32.056   9.505
 2487POPC   GL133565  38.480  32.298   9.149
 2487POPC   GL233566  38.613  32.640   9.129
 2487POPC   C1A33567  38.313  32.225   8.735
 2487POPC   D2A33568  38.089  32.053   8.353
 2487POPC   C3A33569  38.191  32.326   8.002
 2487POPC   C4A33570  38.555  32.168   7.816
 2487POPC   C1B33571  38.557  32.751   8.747
 2487POPC   C2B33572  38.404  32.640   8.372
 2487POPC   C3B33573  38.560  32.723   7.993
 2487POPC   C4B33574  38.898  32.593   7.753
 2488POPC   NC333575   3.432   0.245   9.674
 2488POPC   PO433576   4.105   0.268   9.754
 2488POPC   GL133577   3.876   0.350   9.320
 2488POPC   GL233578   3.587   0.108   9.206
 2488POPC   C1A33579   3.770   0.509   8.868
 2488POPC   D2A33580   3.494   0.483   8.474
 2488POPC   C3A33581   3.589   0.326   8.066
 2488POPC   C4A33582   3.561   0.527   7.669
 2488POPC   C1B33583   3.338   0.086   8.815
 2488POPC   C2B33584   3.348  44.995   8.396
 2488POPC   C3B33585   3.118   0.046   8.031
 2488POPC   C4B33586   3.279   0.112   7.628
 2489POPC   NC333587  12.581  21.211   9.477
 2489POPC   PO433588  13.196  21.485   9.590
 2489POPC   GL133589  12.881  21.510   9.189
 2489POPC   GL233590  12.680  21.174   8.983
 2489POPC   C1A33591  12.726  21.608   8.775
 2489POPC   D2A33592  12.640  21.287   8.457
 2489POPC   C3A33593  12.759  21.428   8.072
 2489POPC   C4A33594  12.826  21.209   7.722
 2489POPC   C1B33595  13.062  21.087   8.680
 2489POPC   C2B33596  13.188  21.144   8.217
 2489POPC   C3B33597  13.295  21.062   7.752
 2489POPC   C4B33598  13.148  21.133   7.301
 2490POPC   NC333599   7.165   2.024   9.565
 2490POPC   PO433600   6.434   2.103   9.487
 2490POPC   GL133601   6.773   2.143   9.193
 2490POPC   GL233602   6.882   1.799   9.175
 2490POPC   C1A33603   6.671   2.054   8.755
 2490POPC   D2A33604   6.652   1.817   8.338
 2490POPC   C3A33605   6.602   2.025   7.926
 2490POPC   C4A33606   6.523   2.015   7.472
 2490POPC   C1B33607   6.947   1.604   8.762
 2490POPC   C2B33608   7.113   1.553   8.342
 2490POPC   C3B33609   6.880   1.526   7.962
 2490POPC   C4B33610   6.841   1.619   7.534
 2491POPC   NC333611  34.698  41.302   9.505
 2491POPC   PO433612  34.359  41.926   9.691
 2491POPC   GL133613  34.475  41.752   9.274
 2491POPC   GL233614  34.703  41.915   9.102
 2491POPC   C1A33615  34.464  41.492   8.895
 2491POPC   D2A33616  34.397  41.534   8.446
 2491POPC   C3A33617  34.675  41.342   8.184
 2491POPC   C4A33618  34.692  41.411   7.765
 2491POPC   C1B33619  34.687  41.935   8.700
 2491POPC   C2B33620  34.891  41.784   8.379
 2491POPC   C3B33621  34.719  41.849   8.054
 2491POPC   C4B33622  34.733  41.924   7.667
 2492POPC   NC333623  21.153  14.146   9.457
 2492POPC   PO433624  21.475  14.808   9.559
 2492POPC   GL133625  21.455  14.559   9.180
 2492POPC   GL233626  21.757  14.304   9.210
 2492POPC   C1A33627  21.328  14.706   8.753
 2492POPC   D2A33628  21.463  14.748   8.307
 2492POPC   C3A33629  21.168  14.493   8.029
 2492POPC   C4A33630  20.982  14.602   7.583
 2492POPC   C1B33631  21.618  14.095   8.824
 2492POPC   C2B33632  21.447  14.251   8.459
 2492POPC   C3B33633  21.631  14.289   8.087
 2492POPC   C4B33634  21.555  14.214   7.713
 2493POPC   NC333635   4.428  35.966   9.502
 2493POPC   PO433636   3.903  36.349   9.484
 2493POPC   GL133637   4.061  36.094   9.160
 2493POPC   GL233638   4.426  36.226   9.074
 2493POPC   C1A33639   4.049  36.194   8.739
 2493POPC   D2A33640   4.379  36.238   8.481
 2493POPC   C3A33641   4.204  36.292   8.078
 2493POPC   C4A33642   4.170  36.111   7.661
 2493POPC   C1B33643   4.834  36.443   8.907
 2493POPC   C2B33644   4.824  36.547   8.469
 2493POPC   C3B33645   4.745  36.265   8.141
 2493POPC   C4B33646   4.623  36.303   7.745
 2494POPC   NC333647   7.511   6.945   9.480
 2494POPC   PO433648   7.056   6.432   9.493
 2494POPC   GL133649   7.337   6.578   9.181
 2494POPC   GL233650   7.117   6.842   9.137
 2494POPC   C1A33651   7.653   6.610   8.820
 2494POPC   D2A33652   7.647   6.765   8.404
 2494POPC   C3A33653   7.663   6.537   8.037
 2494POPC   C4A33654   7.705   6.375   7.621
 2494POPC   C1B33655   7.256   6.912   8.743
 2494POPC   C2B33656   7.216   7.015   8.301
 2494POPC   C3B33657   7.259   6.792   7.902
 2494POPC   C4B33658   7.315   6.669   7.461
 2495POPC   NC333659  38.810  37.972   9.480
 2495POPC   PO433660  38.149  37.830   9.501
 2495POPC   GL133661  38.438  37.730   9.181
 2495POPC   GL233662  38.344  37.388   9.174
 2495POPC   C1A33663  38.681  37.779   8.806
 2495POPC   D2A33664  38.624  38.004   8.420
 2495POPC   C3A33665  38.674  37.804   8.023
 2495POPC   C4A33666  38.373  37.942   7.726
 2495POPC   C1B33667  38.367  37.384   8.766
 2495POPC   C2B33668  38.449  37.520   8.400
 2495POPC   C3B33669  38.189  37.729   8.148
 2495POPC   C4B33670  38.256  37.463   7.822
 2496POPC   NC333671  27.888  12.273   9.552
 2496POPC   PO433672  28.556  12.209   9.414
 2496POPC   GL133673  28.447  12.406   9.052
 2496POPC   GL233674  28.088  12.435   9.122
 2496POPC   C1A33675  28.546  12.225   8.661
 2496POPC   D2A33676  28.358  11.864   8.445
 2496POPC   C3A33677  28.187  11.933   8.033
 2496POPC   C4A33678  28.285  11.878   7.596
 2496POPC   C1B33679  28.044  12.185   8.775
 2496POPC   C2B33680  28.128  12.319   8.378
 2496POPC   C3B33681  28.278  12.453   7.995
 2496POPC   C4B33682  28.168  12.706   7.640
 2497POPC   NC333683  37.750  30.900   9.517
 2497POPC   PO433684  37.232  30.433   9.653
 2497POPC   GL133685  37.446  30.610   9.239
 2497POPC   GL233686  37.801  30.604   9.093
 2497POPC   C1A33687  37.361  30.799   8.799
 2497POPC   D2A33688  37.465  30.600   8.405
 2497POPC   C3A33689  37.437  30.738   7.984
 2497POPC   C4A33690  37.794  30.575   7.736
 2497POPC   C1B33691  37.861  30.832   8.679
 2497POPC   C2B33692  37.907  30.776   8.241
 2497POPC   C3B33693  37.984  31.009   7.901
 2497POPC   C4B33694  38.067  30.964   7.457
 2498POPC   NC333695  31.282  21.544   9.428
 2498POPC   PO433696  31.924  21.303   9.447
 2498POPC   GL133697  31.597  21.210   9.150
 2498POPC   GL233698  31.296  21.046   9.275
 2498POPC   C1A33699  31.582  21.363   8.752
 2498POPC   D2A33700  31.553  21.612   8.404
 2498POPC   C3A33701  31.632  21.355   8.057
 2498POPC   C4A33702  31.847  21.507   7.735
 2498POPC   C1B33703  31.194  21.024   8.836
 2498POPC   C2B33704  31.114  21.260   8.443
 2498POPC   C3B33705  31.129  21.103   8.013
 2498POPC   C4B33706  31.473  20.968   7.746
 2499POPC   NC333707  40.431  18.291   9.505
 2499POPC   PO433708  39.833  18.656   9.531
 2499POPC   GL133709  39.980  18.385   9.188
 2499POPC   GL233710  40.287  18.434   9.049
 2499POPC   C1A33711  39.801  18.178   8.819
 2499POPC   D2A33712  39.922  17.959   8.457
 2499POPC   C3A33713  39.817  18.066   8.051
 2499POPC   C4A33714  40.110  18.023   7.732
 2499POPC   C1B33715  40.287  18.269   8.647
 2499POPC   C2B33716  40.266  18.291   8.214
 2499POPC   C3B33717  40.073  18.545   7.926
 2499POPC   C4B33718  40.146  18.517   7.500
 2500POPC   NC333719  38.201  15.623   9.549
 2500POPC   PO433720  38.236  16.191   9.289
 2500POPC   GL133721  38.074  15.952   9.010
 2500POPC   GL233722  37.760  15.858   9.062
 2500POPC   C1A33723  38.064  16.003   8.594
 2500POPC   D2A33724  37.786  15.924   8.282
 2500POPC   C3A33725  37.887  15.920   7.843
 2500POPC   C4A33726  37.497  16.077   7.609
 2500POPC   C1B33727  37.484  15.784   8.702
 2500POPC   C2B33728  37.488  15.528   8.370
 2500POPC   C3B33729  37.405  15.745   7.990
 2500POPC   C4B33730  37.254  15.610   7.605
 2501POPC   NC333731  44.410  26.082   9.666
 2501POPC   PO433732   0.051  25.797   9.567
 2501POPC   GL133733  44.787  25.924   9.261
 2501POPC   GL233734   0.082  26.012   9.099
 2501POPC   C1A33735  44.530  25.968   8.865
 2501POPC   D2A33736  44.435  26.140   8.439
 2501POPC   C3A33737  44.526  25.891   8.066
 2501POPC   C4A33738  44.582  26.140   7.696
 2501POPC   C1B33739  44.951  25.703   8.816
 2501POPC   C2B33740  44.879  25.868   8.450
 2501POPC   C3B33741   0.009  26.001   8.082
 2501POPC   C4B33742  44.947  25.781   7.714
 2502POPC   NC333743  39.551  42.000   9.429
 2502POPC   PO433744  40.124  42.396   9.613
 2502POPC   GL133745  39.965  42.285   9.234
 2502POPC   GL233746  39.703  42.498   9.298
 2502POPC   C1A33747  40.088  42.283   8.805
 2502POPC   D2A33748  40.099  42.122   8.376
 2502POPC   C3A33749  40.027  42.385   8.033
 2502POPC   C4A33750  40.342  42.474   7.784
 2502POPC   C1B33751  39.715  42.639   8.893
 2502POPC   C2B33752  39.819  42.659   8.457
 2502POPC   C3B33753  39.587  42.690   8.072
 2502POPC   C4B33754  39.579  42.570   7.651
 2503POPC   NC333755  38.548   2.245   9.510
 2503POPC   PO433756  38.093   2.706   9.687
 2503POPC   GL133757  38.195   2.605   9.258
 2503POPC   GL233758  38.533   2.653   9.183
 2503POPC   C1A33759  38.216   2.608   8.793
 2503POPC   D2A33760  37.939   2.526   8.451
 2503POPC   C3A33761  38.102   2.503   8.027
 2503POPC   C4A33762  38.245   2.405   7.619
 2503POPC   C1B33763  38.707   2.795   8.782
 2503POPC   C2B33764  38.790   2.689   8.337
 2503POPC   C3B33765  38.617   2.723   7.905
 2503POPC   C4B33766  38.477   2.949   7.492
 2504POPC   NC333767  25.458  16.316   9.509
 2504POPC   PO433768  25.634  15.626   9.391
 2504POPC   GL133769  25.461  16.013   9.098
 2504POPC   GL233770  25.623  16.328   9.041
 2504POPC   C1A33771  25.180  16.029   8.739
 2504POPC   D2A33772  25.294  15.961   8.310
 2504POPC   C3A33773  25.064  15.907   7.951
 2504POPC   C4A33774  25.177  15.656   7.603
 2504POPC   C1B33775  25.473  16.462   8.690
 2504POPC   C2B33776  25.167  16.487   8.393
 2504POPC   C3B33777  25.119  16.428   7.947
 2504POPC   C4B33778  25.457  16.289   7.690
 2505POPC   NC333779  27.988  22.324   9.552
 2505POPC   PO433780  27.469  22.623   9.540
 2505POPC   GL133781  27.540  22.243   9.237
 2505POPC   GL233782  27.880  22.134   9.091
 2505POPC   C1A33783  27.461  21.997   8.821
 2505POPC   D2A33784  27.383  22.192   8.412
 2505POPC   C3A33785  27.483  22.022   8.030
 2505POPC   C4A33786  27.395  22.187   7.635
 2505POPC   C1B33787  28.077  22.373   8.728
 2505POPC   C2B33788  27.889  22.305   8.332
 2505POPC   C3B33789  27.906  22.251   7.890
 2505POPC   C4B33790  27.859  21.975   7.563
 2506POPC   NC333791  36.690  14.183   9.613
 2506POPC   PO433792  36.815  14.867   9.537
 2506POPC   GL133793  36.894  14.529   9.260
 2506POPC   GL233794  36.980  14.194   9.161
 2506POPC   C1A33795  36.851  14.584   8.829
 2506POPC   D2A33796  36.972  14.784   8.472
 2506POPC   C3A33797  37.029  14.627   8.088
 2506POPC   C4A33798  36.816  14.712   7.724
 2506POPC   C1B33799  36.758  14.093   8.757
 2506POPC   C2B33800  36.671  14.221   8.307
 2506POPC   C3B33801  36.840  14.204   7.867
 2506POPC   C4B33802  37.244  14.128   7.702
 2507POPC   NC333803  18.017   2.186   9.524
 2507POPC   PO433804  18.338   1.718   9.263
 2507POPC   GL133805  18.273   2.091   9.074
 2507POPC   GL233806  18.396   2.409   9.165
 2507POPC   C1A33807  18.417   2.085   8.668
 2507POPC   D2A33808  18.553   1.786   8.397
 2507POPC   C3A33809  18.388   1.964   8.062
 2507POPC   C4A33810  18.517   2.252   7.772
 2507POPC   C1B33811  18.176   2.512   8.749
 2507POPC   C2B33812  18.076   2.316   8.323
 2507POPC   C3B33813  18.008   2.229   7.867
 2507POPC   C4B33814  18.036   2.158   7.408
 2508POPC   NC333815   8.180  34.253   9.407
 2508POPC   PO433816   8.313  33.599   9.664
 2508POPC   GL133817   8.200  33.750   9.253
 2508POPC   GL233818   8.304  33.462   9.099
 2508POPC   C1A33819   8.174  33.855   8.787
 2508POPC   D2A33820   8.081  33.690   8.336
 2508POPC   C3A33821   8.194  33.917   7.977
 2508POPC   C4A33822   8.154  33.825   7.559
 2508POPC   C1B33823   8.175  33.295   8.681
 2508POPC   C2B33824   8.353  33.251   8.265
 2508POPC   C3B33825   8.244  33.377   7.840
 2508POPC   C4B33826   8.161  33.350   7.401
 2509POPC   NC333827  31.474  34.276   9.375
 2509POPC   PO433828  31.201  34.904   9.445
 2509POPC   GL133829  31.310  34.689   9.069
 2509POPC   GL233830  31.645  34.531   8.969
 2509POPC   C1A33831  31.226  34.642   8.651
 2509POPC   D2A33832  31.524  34.669   8.343
 2509POPC   C3A33833  31.380  34.529   7.966
 2509POPC   C4A33834  31.492  34.622   7.564
 2509POPC   C1B33835  31.479  34.183   8.714
 2509POPC   C2B33836  31.222  34.185   8.337
 2509POPC   C3B33837  31.316  34.013   7.917
 2509POPC   C4B33838  31.659  34.154   7.670
 2510POPC   NC333839  12.547  41.934   9.551
 2510POPC   PO433840  12.771  42.524   9.568
 2510POPC   GL133841  12.760  42.383   9.136
 2510POPC   GL233842  12.710  42.035   9.096
 2510POPC   C1A33843  12.787  42.604   8.686
 2510POPC   D2A33844  13.047  42.746   8.311
 2510POPC   C3A33845  13.157  42.524   7.913
 2510POPC   C4A33846  13.056  42.614   7.418
 2510POPC   C1B33847  12.858  42.107   8.729
 2510POPC   C2B33848  12.984  42.234   8.357
 2510POPC   C3B33849  12.775  42.177   8.007
 2510POPC   C4B33850  12.906  42.186   7.617
 2511POPC   NC333851  43.957  16.627   9.467
 2511POPC   PO433852  43.470  16.117   9.389
 2511POPC   GL133853  43.765  16.379   9.048
 2511POPC   GL233854  43.825  16.788   8.998
 2511POPC   C1A33855  43.744  16.521   8.602
 2511POPC   D2A33856  43.833  16.898   8.387
 2511POPC   C3A33857  43.796  16.784   7.974
 2511POPC   C4A33858  43.948  16.449   7.767
 2511POPC   C1B33859  44.199  16.726   8.745
 2511POPC   C2B33860  44.364  16.949   8.393
 2511POPC   C3B33861  44.312  16.760   8.010
 2511POPC   C4B33862  44.171  16.885   7.624
 2512POPC   NC333863   5.998   4.392   9.654
 2512POPC   PO433864   5.973   3.899   9.205
 2512POPC   GL133865   5.718   4.245   9.127
 2512POPC   GL233866   5.986   4.449   9.157
 2512POPC   C1A33867   5.710   4.292   8.680
 2512POPC   D2A33868   6.045   4.077   8.434
 2512POPC   C3A33869   5.925   4.132   8.036
 2512POPC   C4A33870   5.674   4.421   7.857
 2512POPC   C1B33871   6.062   4.643   8.791
 2512POPC   C2B33872   6.239   4.560   8.399
 2512POPC   C3B33873   6.149   4.593   7.977
 2512POPC   C4B33874   6.475   4.588   7.672
 2513POPC   NC333875  11.040  22.366   9.879
 2513POPC   PO433876  10.518  21.929   9.729
 2513POPC   GL133877  10.446  21.952   9.289
 2513POPC   GL233878  10.478  22.311   9.257
 2513POPC   C1A33879  10.585  22.018   8.848
 2513POPC   D2A33880  10.543  22.222   8.427
 2513POPC   C3A33881  10.488  21.951   8.061
 2513POPC   C4A33882  10.718  21.901   7.673
 2513POPC   C1B33883  10.245  22.423   8.859
 2513POPC   C2B33884  10.042  22.347   8.440
 2513POPC   C3B33885  10.174  22.369   8.003
 2513POPC   C4B33886  10.293  22.176   7.637
 2514POPC   NC333887   2.935  25.773   9.646
 2514POPC   PO433888   2.253  25.657   9.549
 2514POPC   GL133889   2.566  25.839   9.209
 2514POPC   GL233890   2.831  26.082   9.231
 2514POPC   C1A33891   2.839  25.795   8.813
 2514POPC   D2A33892   3.070  25.772   8.419
 2514POPC   C3A33893   2.813  25.911   8.084
 2514POPC   C4A33894   2.959  25.929   7.690
 2514POPC   C1B33895   3.075  26.258   8.860
 2514POPC   C2B33896   3.031  26.289   8.422
 2514POPC   C3B33897   3.200  26.274   8.015
 2514POPC   C4B33898   3.043  26.416   7.635
 2515POPC   NC333899  29.532  25.929   9.592
 2515POPC   PO433900  28.887  25.982   9.487
 2515POPC   GL133901  29.206  26.014   9.155
 2515POPC   GL233902  29.419  26.299   9.228
 2515POPC   C1A33903  29.160  26.101   8.701
 2515POPC   D2A33904  29.274  25.814   8.323
 2515POPC   C3A33905  28.995  25.873   7.942
 2515POPC   C4A33906  28.736  26.211   7.884
 2515POPC   C1B33907  29.645  26.344   8.839
 2515POPC   C2B33908  29.539  26.287   8.407
 2515POPC   C3B33909  29.330  26.266   8.014
 2515POPC   C4B33910  29.586  26.493   7.748
 2516POPC   NC333911   2.325   2.278   9.363
 2516POPC   PO433912   2.994   2.387   9.474
 2516POPC   GL133913   2.995   2.703   9.132
 2516POPC   GL233914   2.691   2.948   9.157
 2516POPC   C1A33915   3.073   2.646   8.691
 2516POPC   D2A33916   2.821   2.819   8.342
 2516POPC   C3A33917   2.872   2.670   7.910
 2516POPC   C4A33918   2.918   2.564   7.466
 2516POPC   C1B33919   2.576   2.688   8.806
 2516POPC   C2B33920   2.571   2.358   8.476
 2516POPC   C3B33921   2.466   2.357   8.028
 2516POPC   C4B33922   2.434   2.608   7.611
 2517POPC   NC333923  29.568  18.476   9.432
 2517POPC   PO433924  28.902  18.231   9.488
 2517POPC   GL133925  29.069  18.111   9.096
 2517POPC   GL233926  29.217  18.435   9.048
 2517POPC   C1A33927  29.108  18.096   8.639
 2517POPC   D2A33928  29.402  18.128   8.271
 2517POPC   C3A33929  29.459  17.917   7.853
 2517POPC   C4A33930  29.431  17.971   7.380
 2517POPC   C1B33931  28.996  18.591   8.709
 2517POPC   C2B33932  28.934  18.487   8.305
 2517POPC   C3B33933  29.214  18.499   7.963
 2517POPC   C4B33934  29.110  18.259   7.617
 2518POPC   NC333935  24.474  14.134   9.472
 2518POPC   PO433936  24.300  14.857   9.506
 2518POPC   GL133937  24.333  14.568   9.170
 2518POPC   GL233938  24.675  14.481   9.175
 2518POPC   C1A33939  24.326  14.289   8.803
 2518POPC   D2A33940  24.449  13.975   8.498
 2518POPC   C3A33941  24.370  14.167   8.087
 2518POPC   C4A33942  24.104  14.171   7.718
 2518POPC   C1B33943  24.669  14.679   8.777
 2518POPC   C2B33944  24.379  14.669   8.425
 2518POPC   C3B33945  24.369  14.784   8.010
 2518POPC   C4B33946  24.499  14.493   7.718
 2519POPC   NC333947  21.390  41.012   9.560
 2519POPC   PO433948  21.677  40.513   9.785
 2519POPC   GL133949  21.586  40.702   9.246
 2519POPC   GL233950  21.211  40.695   9.201
 2519POPC   C1A33951  21.502  40.887   8.827
 2519POPC   D2A33952  21.556  40.743   8.429
 2519POPC   C3A33953  21.677  41.034   8.112
 2519POPC   C4A33954  21.610  40.910   7.680
 2519POPC   C1B33955  20.998  40.795   8.817
 2519POPC   C2B33956  21.066  40.622   8.407
 2519POPC   C3B33957  21.260  40.714   8.002
 2519POPC   C4B33958  21.137  40.756   7.567
 2520POPC   NC333959   2.419  16.186   9.931
 2520POPC   PO433960   1.982  15.922   9.492
 2520POPC   GL133961   1.835  16.206   9.197
 2520POPC   GL233962   2.119  16.165   8.974
 2520POPC   C1A33963   1.648  16.184   8.786
 2520POPC   D2A33964   1.945  16.026   8.469
 2520POPC   C3A33965   1.913  16.086   8.025
 2520POPC   C4A33966   1.566  16.257   7.802
 2520POPC   C1B33967   2.298  15.834   8.774
 2520POPC   C2B33968   2.333  15.627   8.394
 2520POPC   C3B33969   2.501  15.752   8.007
 2520POPC   C4B33970   2.315  15.864   7.633
 2521POPC   NC333971  32.202  28.550   9.739
 2521POPC   PO433972  31.762  28.057   9.604
 2521POPC   GL133973  32.101  28.289   9.234
 2521POPC   GL233974  32.325  28.600   9.255
 2521POPC   C1A33975  32.306  28.044   8.862
 2521POPC   D2A33976  32.217  27.850   8.439
 2521POPC   C3A33977  32.240  28.095   8.079
 2521POPC   C4A33978  32.099  28.182   7.651
 2521POPC   C1B33979  32.485  28.523   8.853
 2521POPC   C2B33980  32.320  28.492   8.439
 2521POPC   C3B33981  32.218  28.595   8.019
 2521POPC   C4B33982  32.226  28.741   7.623
 2522POPC   NC333983  21.157  17.571   9.500
 2522POPC   PO433984  21.750  17.288   9.368
 2522POPC   GL133985  21.453  17.476   9.098
 2522POPC   GL233986  21.102  17.298   9.084
 2522POPC   C1A33987  21.487  17.350   8.702
 2522POPC   D2A33988  21.489  17.149   8.316
 2522POPC   C3A33989  21.615  17.483   8.054
 2522POPC   C4A33990  21.814  17.629   7.677
 2522POPC   C1B33991  21.047  17.597   8.777
 2522POPC   C2B33992  21.193  17.591   8.381
 2522POPC   C3B33993  21.040  17.615   8.011
 2522POPC   C4B33994  21.276  17.633   7.696
 2523POPC   NC333995  35.803  43.661   9.331
 2523POPC   PO433996  35.265  43.563   9.757
 2523POPC   GL133997  35.292  43.572   9.256
 2523POPC   GL233998  35.570  43.339   9.054
 2523POPC   C1A33999  35.213  43.818   8.842
 2523POPC   D2A34000  35.329  44.072   8.465
 2523POPC   C3A34001  35.077  44.006   8.080
 2523POPC   C4A34002  35.124  44.113   7.641
 2523POPC   C1B34003  35.646  43.575   8.710
 2523POPC   C2B34004  35.473  43.602   8.335
 2523POPC   C3B34005  35.548  43.834   7.968
 2523POPC   C4B34006  35.483  43.764   7.563
 2524POPC   NC334007  11.984  23.689   9.559
 2524POPC   PO434008  11.583  23.193   9.321
 2524POPC   GL134009  11.783  23.573   9.081
 2524POPC   GL234010  12.154  23.702   9.085
 2524POPC   C1A34011  11.902  23.721   8.653
 2524POPC   D2A34012  12.229  23.937   8.422
 2524POPC   C3A34013  12.060  23.868   8.011
 2524POPC   C4A34014  11.904  23.448   7.887
 2524POPC   C1B34015  12.328  23.410   8.779
 2524POPC   C2B34016  12.221  23.437   8.337
 2524POPC   C3B34017  12.531  23.692   8.070
 2524POPC   C4B34018  12.500  23.597   7.646
 2525POPC   NC334019  36.159  42.747   9.528
 2525POPC   PO434020  35.836  42.143   9.443
 2525POPC   GL134021  35.931  42.435   9.146
 2525POPC   GL234022  36.270  42.390   9.179
 2525POPC   C1A34023  36.013  42.243   8.766
 2525POPC   D2A34024  35.808  42.153   8.416
 2525POPC   C3A34025  35.969  42.290   8.060
 2525POPC   C4A34026  36.204  42.113   7.790
 2525POPC   C1B34027  36.430  42.552   8.797
 2525POPC   C2B34028  36.268  42.499   8.404
 2525POPC   C3B34029  36.349  42.638   8.014
 2525POPC   C4B34030  36.482  42.774   7.655
 2526POPC   NC334031  25.759  28.420   9.695
 2526POPC   PO434032  26.366  28.137   9.490
 2526POPC   GL134033  26.192  28.247   9.137
 2526POPC   GL234034  25.848  28.301   9.196
 2526POPC   C1A34035  26.137  28.491   8.783
 2526POPC   D2A34036  25.910  28.457   8.422
 2526POPC   C3A34037  26.157  28.463   8.079
 2526POPC   C4A34038  26.173  28.661   7.717
 2526POPC   C1B34039  25.826  28.078   8.800
 2526POPC   C2B34040  25.721  27.961   8.381
 2526POPC   C3B34041  25.715  28.206   7.995
 2526POPC   C4B34042  25.609  28.102   7.571
 2527POPC   NC334043  40.601   5.516   9.465
 2527POPC   PO434044  40.908   4.890   9.459
 2527POPC   GL134045  40.897   5.244   9.143
 2527POPC   GL234046  41.198   5.318   8.947
 2527POPC   C1A34047  40.673   5.214   8.769
 2527POPC   D2A34048  40.648   4.944   8.398
 2527POPC   C3A34049  40.645   5.190   8.044
 2527POPC   C4A34050  40.649   5.412   7.682
 2527POPC   C1B34051  41.093   4.877   8.802
 2527POPC   C2B34052  41.080   4.665   8.422
 2527POPC   C3B34053  41.085   4.919   8.088
 2527POPC   C4B34054  40.960   4.983   7.670
 2528POPC   NC334055  33.838   4.667   9.566
 2528POPC   PO434056  34.288   4.138   9.470
 2528POPC   GL134057  33.929   4.262   9.226
 2528POPC   GL234058  33.679   3.995   9.238
 2528POPC   C1A34059  33.926   4.387   8.810
 2528POPC   D2A34060  33.901   4.244   8.425
 2528POPC   C3A34061  34.063   4.491   8.100
 2528POPC   C4A34062  33.911   4.355   7.718
 2528POPC   C1B34063  33.528   4.065   8.829
 2528POPC   C2B34064  33.531   3.895   8.413
 2528POPC   C3B34065  33.580   4.119   8.037
 2528POPC   C4B34066  33.320   4.175   7.702
 2529POPC   NC334067  39.200  12.274  10.022
 2529POPC   PO434068  39.139  12.812   9.613
 2529POPC   GL134069  39.150  12.770   9.207
 2529POPC   GL234070  39.168  12.405   9.165
 2529POPC   C1A34071  39.171  13.043   8.833
 2529POPC   D2A34072  38.929  13.051   8.452
 2529POPC   C3A34073  39.149  13.071   8.033
 2529POPC   C4A34074  38.915  13.123   7.638
 2529POPC   C1B34075  39.355  12.542   8.795
 2529POPC   C2B34076  39.346  12.753   8.416
 2529POPC   C3B34077  39.506  12.643   8.042
 2529POPC   C4B34078  39.678  12.981   7.806
 2530POPC   NC334079  43.560   2.895   9.295
 2530POPC   PO434080  43.998   2.432   9.460
 2530POPC   GL134081  44.053   2.801   9.171
 2530POPC   GL234082  43.844   2.601   8.965
 2530POPC   C1A34083  43.936   3.068   8.801
 2530POPC   D2A34084  43.757   2.801   8.501
 2530POPC   C3A34085  43.739   2.948   8.107
 2530POPC   C4A34086  43.574   2.974   7.685
 2530POPC   C1B34087  44.086   2.242   8.763
 2530POPC   C2B34088  44.316   2.262   8.350
 2530POPC   C3B34089  44.117   2.371   7.970
 2530POPC   C4B34090  43.995   2.697   7.760
 2531POPC   NC334091  11.591  36.643   9.481
 2531POPC   PO434092  11.425  35.988   9.603
 2531POPC   GL134093  11.357  36.014   9.185
 2531POPC   GL234094  11.336  36.329   9.181
 2531POPC   C1A34095  11.388  35.864   8.791
 2531POPC   D2A34096  11.559  35.899   8.382
 2531POPC   C3A34097  11.203  35.807   8.102
 2531POPC   C4A34098  11.118  35.974   7.717
 2531POPC   C1B34099  11.483  36.373   8.780
 2531POPC   C2B34100  11.562  36.479   8.367
 2531POPC   C3B34101  11.350  36.314   8.042
 2531POPC   C4B34102  11.296  36.514   7.694
 2532POPC   NC334103   8.646   2.519   9.503
 2532POPC   PO434104   9.273   2.865   9.452
 2532POPC   GL134105   8.960   2.778   9.154
 2532POPC   GL234106   9.111   2.535   8.950
 2532POPC   C1A34107   8.787   2.864   8.740
 2532POPC   D2A34108   9.023   2.865   8.368
 2532POPC   C3A34109   8.875   2.891   7.949
 2532POPC   C4A34110   9.096   2.876   7.547
 2532POPC   C1B34111   8.659   2.403   8.871
 2532POPC   C2B34112   8.629   2.374   8.453
 2532POPC   C3B34113   8.968   2.409   8.141
 2532POPC   C4B34114   8.957   2.408   7.704
 2533POPC   NC334115  19.029  41.290   9.519
 2533POPC   PO434116  19.535  41.688   9.499
 2533POPC   GL134117  19.291  41.695   9.130
 2533POPC   GL234118  19.376  41.345   9.105
 2533POPC   C1A34119  18.926  41.669   8.803
 2533POPC   D2A34120  18.894  41.421   8.392
 2533POPC   C3A34121  18.824  41.602   7.953
 2533POPC   C4A34122  18.735  41.554   7.473
 2533POPC   C1B34123  19.363  41.445   8.660
 2533POPC   C2B34124  19.338  41.657   8.263
 2533POPC   C3B34125  19.318  41.569   7.819
 2533POPC   C4B34126  19.253  41.568   7.372
 2534POPC   NC334127  21.718  30.436   9.540
 2534POPC   PO434128  22.369  30.509   9.587
 2534POPC   GL134129  22.188  30.547   9.205
 2534POPC   GL234130  22.015  30.873   9.185
 2534POPC   C1A34131  22.283  30.363   8.815
 2534POPC   D2A34132  22.062  30.440   8.471
 2534POPC   C3A34133  22.255  30.382   8.082
 2534POPC   C4A34134  22.149  30.577   7.704
 2534POPC   C1B34135  22.199  30.900   8.732
 2534POPC   C2B34136  22.154  30.900   8.267
 2534POPC   C3B34137  22.152  31.045   7.851
 2534POPC   C4B34138  22.342  31.044   7.450
 2535POPC   NC334139  23.028  13.353   9.513
 2535POPC   PO434140  22.619  13.725   9.257
 2535POPC   GL134141  22.825  13.476   8.992
 2535POPC   GL234142  23.145  13.534   9.066
 2535POPC   C1A34143  22.980  13.660   8.622
 2535POPC   D2A34144  22.898  13.795   8.243
 2535POPC   C3A34145  22.714  13.496   8.055
 2535POPC   C4A34146  22.703  13.578   7.656
 2535POPC   C1B34147  23.395  13.346   8.735
 2535POPC   C2B34148  23.200  13.343   8.297
 2535POPC   C3B34149  23.194  13.522   7.886
 2535POPC   C4B34150  23.375  13.562   7.487
 2536POPC   NC334151  36.062   1.947   9.393
 2536POPC   PO434152  36.475   2.426   9.501
 2536POPC   GL134153  36.321   2.202   9.060
 2536POPC   GL234154  35.941   2.217   8.974
 2536POPC   C1A34155  36.183   1.803   8.781
 2536POPC   D2A34156  35.965   1.692   8.402
 2536POPC   C3A34157  36.151   1.822   8.010
 2536POPC   C4A34158  35.924   1.804   7.633
 2536POPC   C1B34159  36.095   2.276   8.612
 2536POPC   C2B34160  36.235   2.329   8.273
 2536POPC   C3B34161  35.931   2.293   7.990
 2536POPC   C4B34162  36.134   2.298   7.637
 2537POPC   NC334163  11.972  30.480   9.652
 2537POPC   PO434164  12.321  31.001   9.430
 2537POPC   GL134165  12.237  30.647   9.176
 2537POPC   GL234166  11.892  30.546   9.142
 2537POPC   C1A34167  12.210  30.729   8.741
 2537POPC   D2A34168  12.150  30.920   8.351
 2537POPC   C3A34169  12.213  30.656   7.988
 2537POPC   C4A34170  12.562  30.391   7.852
 2537POPC   C1B34171  11.705  30.661   8.721
 2537POPC   C2B34172  11.703  30.696   8.251
 2537POPC   C3B34173  11.810  30.978   7.882
 2537POPC   C4B34174  11.675  30.983   7.386
 2538POPC   NC334175  40.140  21.630   9.397
 2538POPC   PO434176  39.824  21.058   9.447
 2538POPC   GL134177  39.923  21.227   9.060
 2538POPC   GL234178  40.267  21.380   8.991
 2538POPC   C1A34179  39.752  21.146   8.646
 2538POPC   D2A34180  39.661  21.034   8.222
 2538POPC   C3A34181  39.713  21.361   7.928
 2538POPC   C4A34182  40.067  21.508   7.736
 2538POPC   C1B34183  39.963  21.615   8.739
 2538POPC   C2B34184  39.981  21.513   8.330
 2538POPC   C3B34185  40.065  21.851   8.090
 2538POPC   C4B34186  39.753  21.966   7.835
 2539POPC   NC334187  13.984  25.134   9.313
 2539POPC   PO434188  13.339  25.428   9.444
 2539POPC   GL134189  13.405  25.157   9.020
 2539POPC   GL234190  13.683  25.335   8.960
 2539POPC   C1A34191  13.491  25.117   8.559
 2539POPC   D2A34192  13.824  25.422   8.437
 2539POPC   C3A34193  13.762  25.666   8.079
 2539POPC   C4A34194  13.669  25.435   7.747
 2539POPC   C1B34195  13.959  25.015   8.718
 2539POPC   C2B34196  13.907  24.881   8.349
 2539POPC   C3B34197  13.640  25.029   8.041
 2539POPC   C4B34198  13.874  24.978   7.657
 2540POPC   NC334199   2.945  22.506   9.671
 2540POPC   PO434200   3.071  22.173   9.150
 2540POPC   GL134201   2.677  22.105   9.038
 2540POPC   GL234202   2.595  22.429   9.166
 2540POPC   C1A34203   2.656  21.862   8.713
 2540POPC   D2A34204   2.997  21.885   8.425
 2540POPC   C3A34205   2.966  22.064   8.020
 2540POPC   C4A34206   2.941  22.114   7.573
 2540POPC   C1B34207   2.501  22.426   8.711
 2540POPC   C2B34208   2.672  22.393   8.284
 2540POPC   C3B34209   2.508  22.235   7.853
 2540POPC   C4B34210   2.491  22.294   7.384
 2541POPC   NC334211  12.401  10.222   9.572
 2541POPC   PO434212  12.104  10.839   9.444
 2541POPC   GL134213  12.117  10.476   9.195
 2541POPC   GL234214  11.752  10.430   9.188
 2541POPC   C1A34215  12.022  10.250   8.811
 2541POPC   D2A34216  11.768  10.330   8.473
 2541POPC   C3A34217  11.940  10.478   8.092
 2541POPC   C4A34218  11.734  10.277   7.777
 2541POPC   C1B34219  11.802  10.706   8.839
 2541POPC   C2B34220  11.805  10.849   8.413
 2541POPC   C3B34221  11.632  10.866   8.009
 2541POPC   C4B34222  11.849  10.754   7.606
 2542POPC   NC334223  25.128   3.813   9.552
 2542POPC   PO434224  25.053   3.161   9.283
 2542POPC   GL134225  25.233   3.315   9.035
 2542POPC   GL234226  25.542   3.106   9.083
 2542POPC   C1A34227  25.055   3.460   8.669
 2542POPC   D2A34228  25.024   3.661   8.278
 2542POPC   C3A34229  25.029   3.369   7.939
 2542POPC   C4A34230  25.267   3.342   7.549
 2542POPC   C1B34231  25.571   3.317   8.678
 2542POPC   C2B34232  25.391   3.292   8.305
 2542POPC   C3B34233  25.574   3.410   7.928
 2542POPC   C4B34234  25.847   3.451   7.568
 2543POPC   NC334235  35.997  30.290   9.365
 2543POPC   PO434236  36.232  29.631   9.557
 2543POPC   GL134237  36.104  29.801   9.213
 2543POPC   GL234238  36.417  29.988   9.206
 2543POPC   C1A34239  35.785  29.874   8.909
 2543POPC   D2A34240  35.876  30.011   8.503
 2543POPC   C3A34241  36.006  29.815   8.114
 2543POPC   C4A34242  35.870  29.826   7.732
 2543POPC   C1B34243  36.300  30.028   8.787
 2543POPC   C2B34244  36.388  29.820   8.424
 2543POPC   C3B34245  36.493  29.604   8.045
 2543POPC   C4B34246  36.400  29.861   7.696
 2544POPC   NC334247   8.081  17.711   9.528
 2544POPC   PO434248   8.126  17.182   9.196
 2544POPC   GL134249   8.087  17.571   9.016
 2544POPC   GL234250   8.023  17.926   9.067
 2544POPC   C1A34251   8.197  17.586   8.624
 2544POPC   D2A34252   8.441  17.563   8.303
 2544POPC   C3A34253   8.214  17.485   7.955
 2544POPC   C4A34254   8.394  17.465   7.550
 2544POPC   C1B34255   7.781  17.849   8.700
 2544POPC   C2B34256   7.786  17.667   8.292
 2544POPC   C3B34257   7.886  17.894   7.925
 2544POPC   C4B34258   8.100  17.869   7.551
 2545POPC   NC334259  32.987  33.420   9.908
 2545POPC   PO434260  32.910  33.978   9.568
 2545POPC   GL134261  33.195  33.975   9.189
 2545POPC   GL234262  33.338  34.304   9.122
 2545POPC   C1A34263  32.988  33.794   8.817
 2545POPC   D2A34264  32.674  33.748   8.487
 2545POPC   C3A34265  32.795  33.554   8.105
 2545POPC   C4A34266  32.670  33.581   7.703
 2545POPC   C1B34267  33.364  34.128   8.674
 2545POPC   C2B34268  33.167  33.832   8.339
 2545POPC   C3B34269  33.130  33.844   7.840
 2545POPC   C4B34270  33.337  33.950   7.403
 2546POPC   NC334271   2.677  41.852   9.513
 2546POPC   PO434272   3.179  41.374   9.630
 2546POPC   GL134273   3.005  41.551   9.277
 2546POPC   GL234274   3.200  41.354   9.089
 2546POPC   C1A34275   2.841  41.744   8.886
 2546POPC   D2A34276   2.817  41.691   8.438
 2546POPC   C3A34277   2.860  41.925   8.046
 2546POPC   C4A34278   2.752  41.644   7.701
 2546POPC   C1B34279   3.157  41.377   8.706
 2546POPC   C2B34280   3.030  41.220   8.364
 2546POPC   C3B34281   3.122  41.409   8.007
 2546POPC   C4B34282   3.019  41.202   7.676
 2547POPC   NC334283   1.762  25.453   9.584
 2547POPC   PO434284   2.030  24.899   9.482
 2547POPC   GL134285   1.768  25.100   9.211
 2547POPC   GL234286   2.001  25.395   9.137
 2547POPC   C1A34287   1.657  25.193   8.797
 2547POPC   D2A34288   1.907  25.337   8.459
 2547POPC   C3A34289   1.743  25.166   8.080
 2547POPC   C4A34290   1.902  24.997   7.711
 2547POPC   C1B34291   1.798  25.684   8.838
 2547POPC   C2B34292   1.743  25.847   8.449
 2547POPC   C3B34293   1.846  25.677   8.080
 2547POPC   C4B34294   2.219  25.546   7.873
 2548POPC   NC334295  35.855   5.854   9.589
 2548POPC   PO434296  35.337   6.300   9.696
 2548POPC   GL134297  35.348   5.977   9.279
 2548POPC   GL234298  35.625   5.744   9.136
 2548POPC   C1A34299  35.334   6.019   8.796
 2548POPC   D2A34300  35.030   6.107   8.440
 2548POPC   C3A34301  35.192   6.098   7.998
 2548POPC   C4A34302  35.444   5.924   7.646
 2548POPC   C1B34303  35.446   5.491   8.795
 2548POPC   C2B34304  35.226   5.635   8.425
 2548POPC   C3B34305  35.161   5.568   7.987
 2548POPC   C4B34306  35.400   5.359   7.691
 2549POPC   NC334307  20.096  28.656   9.754
 2549POPC   PO434308  19.577  28.224   9.587
 2549POPC   GL134309  19.852  28.455   9.303
 2549POPC   GL234310  20.173  28.298   9.272
 2549POPC   C1A34311  19.897  28.417   8.835
 2549POPC   D2A34312  19.845  28.268   8.391
 2549POPC   C3A34313  19.632  28.443   8.006
 2549POPC   C4A34314  19.301  28.310   7.680
 2549POPC   C1B34315  20.240  28.001   8.881
 2549POPC   C2B34316  20.164  27.838   8.436
 2549POPC   C3B34317  20.121  28.047   8.024
 2549POPC   C4B34318  19.956  28.274   7.635
 2550POPC   NC334319   7.568  44.405   9.750
 2550POPC   PO434320   7.001  44.704   9.561
 2550POPC   GL134321   7.215  44.593   9.187
 2550POPC   GL234322   7.456  44.340   9.253
 2550POPC   C1A34323   7.157  44.671   8.758
 2550POPC   D2A34324   7.497  44.697   8.461
 2550POPC   C3A34325   7.383  44.851   8.079
 2550POPC   C4A34326   7.156  44.854   7.719
 2550POPC   C1B34327   7.566  44.324   8.815
 2550POPC   C2B34328   7.697  44.150   8.426
 2550POPC   C3B34329   7.614  44.388   8.068
 2550POPC   C4B34330   7.613  44.597   7.659
 2551POPC   NC334331  24.828  26.831   9.263
 2551POPC   PO434332  24.229  26.941   9.571
 2551POPC   GL134333  24.307  26.744   9.159
 2551POPC   GL234334  24.503  26.434   9.175
 2551POPC   C1A34335  24.440  26.914   8.736
 2551POPC   D2A34336  24.366  27.185   8.391
 2551POPC   C3A34337  24.680  27.129   8.099
 2551POPC   C4A34338  24.565  26.860   7.778
 2551POPC   C1B34339  24.648  26.434   8.735
 2551POPC   C2B34340  24.716  26.646   8.313
 2551POPC   C3B34341  24.873  26.496   7.901
 2551POPC   C4B34342  24.838  26.626   7.422
 2552POPC   NC334343  28.291   0.947   9.333
 2552POPC   PO434344  28.287   0.293   9.491
 2552POPC   GL134345  28.407   0.468   9.094
 2552POPC   GL234346  28.648   0.714   9.033
 2552POPC   C1A34347  28.234   0.660   8.728
 2552POPC   D2A34348  28.199   0.858   8.337
 2552POPC   C3A34349  28.276   0.589   7.977
 2552POPC   C4A34350  28.035   0.402   7.602
 2552POPC   C1B34351  28.733   0.644   8.635
 2552POPC   C2B34352  28.805   0.415   8.256
 2552POPC   C3B34353  28.801   0.568   7.827
 2552POPC   C4B34354  28.510   0.518   7.519
 2553POPC   NC334355  24.488  44.314   9.637
 2553POPC   PO434356  24.736  43.738   9.501
 2553POPC   GL134357  24.471  43.732   9.146
 2553POPC   GL234358  24.516  44.099   9.111
 2553POPC   C1A34359  24.564  43.562   8.713
 2553POPC   D2A34360  24.681  43.790   8.344
 2553POPC   C3A34361  24.589  43.654   7.931
 2553POPC   C4A34362  24.900  43.832   7.691
 2553POPC   C1B34363  24.327  43.998   8.692
 2553POPC   C2B34364  24.313  44.185   8.271
 2553POPC   C3B34365  24.411  44.123   7.824
 2553POPC   C4B34366  24.258  43.802   7.523
 2554POPC   NC334367  38.245   6.645   9.606
 2554POPC   PO434368  38.819   6.518   9.274
 2554POPC   GL134369  38.469   6.637   8.947
 2554POPC   GL234370  38.116   6.660   9.055
 2554POPC   C1A34371  38.229   6.357   8.635
 2554POPC   D2A34372  38.198   6.189   8.205
 2554POPC   C3A34373  38.506   6.301   7.855
 2554POPC   C4A34374  38.455   6.356   7.410
 2554POPC   C1B34375  38.042   6.830   8.622
 2554POPC   C2B34376  38.307   6.728   8.220
 2554POPC   C3B34377  38.470   6.804   7.758
 2554POPC   C4B34378  38.200   6.775   7.362
 2555POPC   NC334379   2.077   3.892   9.529
 2555POPC   PO434380   1.791   3.306   9.712
 2555POPC   GL134381   1.842   3.499   9.246
 2555POPC   GL234382   1.753   3.839   9.151
 2555POPC   C1A34383   2.043   3.550   8.815
 2555POPC   D2A34384   2.048   3.267   8.423
 2555POPC   C3A34385   1.866   3.406   8.057
 2555POPC   C4A34386   2.100   3.695   7.844
 2555POPC   C1B34387   1.576   3.808   8.774
 2555POPC   C2B34388   1.659   4.046   8.407
 2555POPC   C3B34389   1.571   3.857   8.011
 2555POPC   C4B34390   1.677   3.796   7.581
 2556POPC   NC334391  39.522  29.151   9.492
 2556POPC   PO434392  40.203  29.192   9.526
 2556POPC   GL134393  40.034  29.127   9.157
 2556POPC   GL234394  40.373  29.163   9.045
 2556POPC   C1A34395  39.820  29.394   8.875
 2556POPC   D2A34396  39.878  29.463   8.437
 2556POPC   C3A34397  39.830  29.122   8.185
 2556POPC   C4A34398  39.747  29.324   7.823
 2556POPC   C1B34399  40.229  29.148   8.650
 2556POPC   C2B34400  40.334  29.261   8.271
 2556POPC   C3B34401  40.295  28.996   7.962
 2556POPC   C4B34402  39.961  28.850   7.742
 2557POPC   NC334403  38.712  30.882   9.486
 2557POPC   PO434404  38.132  30.523   9.510
 2557POPC   GL134405  38.330  30.579   9.175
 2557POPC   GL234406  38.632  30.433   9.116
 2557POPC   C1A34407  38.235  30.472   8.778
 2557POPC   D2A34408  38.476  30.351   8.454
 2557POPC   C3A34409  38.349  30.565   8.139
 2557POPC   C4A34410  38.347  30.672   7.741
 2557POPC   C1B34411  38.728  30.658   8.774
 2557POPC   C2B34412  38.814  30.777   8.357
 2557POPC   C3B34413  38.814  30.564   7.971
 2557POPC   C4B34414  38.799  30.595   7.521
 2558POPC   NC334415  23.148  37.252   9.557
 2558POPC   PO434416  22.900  36.616   9.484
 2558POPC   GL134417  22.865  36.968   9.177
 2558POPC   GL234418  22.927  36.726   8.957
 2558POPC   C1A34419  22.595  37.066   8.782
 2558POPC   D2A34420  22.722  37.116   8.331
 2558POPC   C3A34421  22.536  37.111   7.939
 2558POPC   C4A34422  22.707  37.126   7.531
 2558POPC   C1B34423  23.112  37.078   8.685
 2558POPC   C2B34424  23.217  37.288   8.279
 2558POPC   C3B34425  23.075  37.152   7.898
 2558POPC   C4B34426  23.059  36.730   7.742
 2559POPC   NC334427  14.219  20.412   9.565
 2559POPC   PO434428  14.695  20.793   9.491
 2559POPC   GL134429  14.526  20.885   9.086
 2559POPC   GL234430  14.203  20.741   9.179
 2559POPC   C1A34431  14.405  20.671   8.701
 2559POPC   D2A34432  14.431  20.452   8.313
 2559POPC   C3A34433  14.496  20.817   8.056
 2559POPC   C4A34434  14.303  20.902   7.673
 2559POPC   C1B34435  13.943  20.541   8.875
 2559POPC   C2B34436  13.935  20.710   8.456
 2559POPC   C3B34437  14.032  20.625   8.039
 2559POPC   C4B34438  14.249  20.386   7.768
 2560POPC   NC334439  38.580  18.922   9.508
 2560POPC   PO434440  38.324  19.543   9.551
 2560POPC   GL134441  38.367  19.309   9.175
 2560POPC   GL234442  38.254  18.931   9.141
 2560POPC   C1A34443  38.583  19.326   8.780
 2560POPC   D2A34444  38.479  19.139   8.398
 2560POPC   C3A34445  38.601  19.147   7.993
 2560POPC   C4A34446  38.784  18.833   7.802
 2560POPC   C1B34447  38.110  19.066   8.770
 2560POPC   C2B34448  37.900  18.994   8.418
 2560POPC   C3B34449  38.122  18.952   8.063
 2560POPC   C4B34450  38.281  18.815   7.655
 2561POPC   NC334451  10.440   5.415   9.519
 2561POPC   PO434452  10.423   6.133   9.547
 2561POPC   GL134453  10.489   5.906   9.209
 2561POPC   GL234454  10.210   5.714   9.153
 2561POPC   C1A34455  10.636   5.757   8.841
 2561POPC   D2A34456  10.823   5.771   8.474
 2561POPC   C3A34457  10.615   5.841   8.074
 2561POPC   C4A34458  10.514   5.570   7.770
 2561POPC   C1B34459  10.186   5.984   8.786
 2561POPC   C2B34460  10.028   6.041   8.383
 2561POPC   C3B34461  10.221   6.191   7.990
 2561POPC   C4B34462  10.418   6.061   7.596
 2562POPC   NC334463  35.469   1.496   9.489
 2562POPC   PO434464  35.179   0.843   9.504
 2562POPC   GL134465  35.451   1.073   9.194
 2562POPC   GL234466  35.165   1.259   9.168
 2562POPC   C1A34467  35.479   1.392   8.807
 2562POPC   D2A34468  35.321   1.622   8.428
 2562POPC   C3A34469  35.335   1.356   8.013
 2562POPC   C4A34470  35.362   1.260   7.524
 2562POPC   C1B34471  35.127   1.015   8.801
 2562POPC   C2B34472  35.086   1.169   8.426
 2562POPC   C3B34473  34.804   1.091   8.137
 2562POPC   C4B34474  34.976   0.948   7.801
 2563POPC   NC334475  17.731  26.089   9.357
 2563POPC   PO434476  17.730  25.580   9.807
 2563POPC   GL134477  17.374  25.671   9.333
 2563POPC   GL234478  17.216  26.011   9.160
 2563POPC   C1A34479  17.368  25.664   8.835
 2563POPC   D2A34480  17.195  25.823   8.454
 2563POPC   C3A34481  17.379  25.852   8.068
 2563POPC   C4A34482  17.450  25.564   7.793
 2563POPC   C1B34483  17.491  26.166   8.757
 2563POPC   C2B34484  17.701  26.145   8.319
 2563POPC   C3B34485  17.524  26.328   7.922
 2563POPC   C4B34486  17.215  26.403   7.569
 2564POPC   NC334487   1.920  37.364   9.162
 2564POPC   PO434488   1.866  37.967   9.528
 2564POPC   GL134489   1.840  37.866   9.120
 2564POPC   GL234490   2.111  38.069   9.075
 2564POPC   C1A34491   1.972  37.776   8.662
 2564POPC   D2A34492   2.253  37.588   8.344
 2564POPC   C3A34493   2.090  37.480   7.940
 2564POPC   C4A34494   2.141  37.609   7.526
 2564POPC   C1B34495   1.777  38.238   8.792
 2564POPC   C2B34496   1.629  38.071   8.427
 2564POPC   C3B34497   1.829  37.851   8.156
 2564POPC   C4B34498   1.987  38.040   7.820
 2565POPC   NC334499  34.520  10.715   9.600
 2565POPC   PO434500  34.017  10.278   9.473
 2565POPC   GL134501  34.318  10.449   9.142
 2565POPC   GL234502  34.510  10.759   9.112
 2565POPC   C1A34503  34.421  10.462   8.701
 2565POPC   D2A34504  34.424  10.498   8.243
 2565POPC   C3A34505  34.512  10.256   7.889
 2565POPC   C4A34506  34.384  10.344   7.414
 2565POPC   C1B34507  34.844  10.747   8.825
 2565POPC   C2B34508  34.918  10.524   8.435
 2565POPC   C3B34509  34.842  10.649   8.006
 2565POPC   C4B34510  34.599  10.744   7.662
 2566POPC   NC334511  22.302  28.639   9.463
 2566POPC   PO434512  21.951  28.119   9.512
 2566POPC   GL134513  22.113  28.294   9.117
 2566POPC   GL234514  22.458  28.288   9.156
 2566POPC   C1A34515  22.215  28.688   8.825
 2566POPC   D2A34516  22.344  28.931   8.474
 2566POPC   C3A34517  22.335  28.729   8.095
 2566POPC   C4A34518  22.143  28.552   7.727
 2566POPC   C1B34519  22.556  28.323   8.749
 2566POPC   C2B34520  22.324  28.264   8.417
 2566POPC   C3B34521  22.397  28.238   8.022
 2566POPC   C4B34522  22.324  28.026   7.671
 2567POPC   NC334523   2.487   0.454   9.421
 2567POPC   PO434524   1.873   0.255   9.520
 2567POPC   GL134525   2.062   0.315   9.160
 2567POPC   GL234526   2.339   0.044   9.128
 2567POPC   C1A34527   1.998   0.645   8.882
 2567POPC   D2A34528   2.170   0.540   8.549
 2567POPC   C3A34529   2.108   0.604   8.120
 2567POPC   C4A34530   1.812   0.672   7.852
 2567POPC   C1B34531   2.171   0.043   8.698
 2567POPC   C2B34532   1.995   0.031   8.263
 2567POPC   C3B34533   2.043   0.199   7.825
 2567POPC   C4B34534   2.168   0.124   7.381
 2568POPC   NC334535  25.493   0.376   9.604
 2568POPC   PO434536  24.887   0.068   9.571
 2568POPC   GL134537  25.110   0.330   9.253
 2568POPC   GL234538  25.383   0.132   9.139
 2568POPC   C1A34539  25.196   0.606   8.875
 2568POPC   D2A34540  25.044   0.498   8.411
 2568POPC   C3A34541  25.297   0.604   8.021
 2568POPC   C4A34542  25.703   0.854   7.914
 2568POPC   C1B34543  25.370   0.182   8.705
 2568POPC   C2B34544  25.580   0.363   8.363
 2568POPC   C3B34545  25.562   0.188   7.927
 2568POPC   C4B34546  25.322  44.964   7.618
 2569POPC   NC334547  37.972  10.422   9.406
 2569POPC   PO434548  38.644  10.650   9.584
 2569POPC   GL134549  38.435  10.597   9.210
 2569POPC   GL234550  38.612  10.343   9.127
 2569POPC   C1A34551  38.326  10.779   8.808
 2569POPC   D2A34552  38.006  10.646   8.490
 2569POPC   C3A34553  38.130  10.797   8.101
 2569POPC   C4A34554  38.114  10.659   7.700
 2569POPC   C1B34555  38.419  10.287   8.758
 2569POPC   C2B34556  38.487  10.489   8.395
 2569POPC   C3B34557  38.405  10.372   8.007
 2569POPC   C4B34558  38.614  10.633   7.743
 2570POPC   NC334559  39.212  31.701   9.543
 2570POPC   PO434560  38.926  31.161   9.197
 2570POPC   GL134561  39.290  31.258   8.998
 2570POPC   GL234562  39.221  31.620   8.991
 2570POPC   C1A34563  39.309  31.226   8.611
 2570POPC   D2A34564  39.040  31.456   8.359
 2570POPC   C3A34565  38.963  31.175   8.060
 2570POPC   C4A34566  38.914  31.233   7.659
 2570POPC   C1B34567  39.562  31.653   8.684
 2570POPC   C2B34568  39.544  31.475   8.248
 2570POPC   C3B34569  39.350  31.490   7.875
 2570POPC   C4B34570  39.688  31.370   7.625
 2571POPC   NC334571   6.269  31.798   9.487
 2571POPC   PO434572   6.834  31.518   9.445
 2571POPC   GL134573   6.649  31.567   9.097
 2571POPC   GL234574   6.400  31.318   9.230
 2571POPC   C1A34575   6.783  31.522   8.659
 2571POPC   D2A34576   6.504  31.370   8.359
 2571POPC   C3A34577   6.416  31.676   8.047
 2571POPC   C4A34578   6.691  31.762   7.720
 2571POPC   C1B34579   6.636  31.103   8.891
 2571POPC   C2B34580   6.831  30.988   8.514
 2571POPC   C3B34581   6.856  31.078   8.121
 2571POPC   C4B34582   6.612  31.235   7.846
 2572POPC   NC334583  26.029  34.774   9.340
 2572POPC   PO434584  25.634  34.321   9.514
 2572POPC   GL134585  25.746  34.427   9.081
 2572POPC   GL234586  26.092  34.345   9.060
 2572POPC   C1A34587  25.766  34.719   8.702
 2572POPC   D2A34588  25.816  34.585   8.268
 2572POPC   C3A34589  25.865  34.676   7.838
 2572POPC   C4A34590  25.961  34.580   7.385
 2572POPC   C1B34591  26.251  34.555   8.673
 2572POPC   C2B34592  26.329  34.459   8.231
 2572POPC   C3B34593  26.395  34.718   7.850
 2572POPC   C4B34594  26.527  34.619   7.433
 2573POPC   NC334595   4.140  30.415   9.512
 2573POPC   PO434596   4.257  29.707   9.487
 2573POPC   GL134597   4.305  29.983   9.198
 2573POPC   GL234598   4.431  29.684   9.010
 2573POPC   C1A34599   4.151  30.089   8.839
 2573POPC   D2A34600   4.150  29.761   8.536
 2573POPC   C3A34601   4.008  29.900   8.138
 2573POPC   C4A34602   4.268  29.998   7.792
 2573POPC   C1B34603   4.800  29.507   8.805
 2573POPC   C2B34604   4.768  29.684   8.419
 2573POPC   C3B34605   4.458  29.612   8.113
 2573POPC   C4B34606   4.567  29.592   7.690
 2574POPC   NC334607  28.562  25.677   9.590
 2574POPC   PO434608  28.713  25.016   9.429
 2574POPC   GL134609  28.481  25.373   9.192
 2574POPC   GL234610  28.775  25.596   9.133
 2574POPC   C1A34611  28.176  25.446   8.828
 2574POPC   D2A34612  28.263  25.228   8.465
 2574POPC   C3A34613  28.087  25.254   8.065
 2574POPC   C4A34614  28.211  24.947   7.798
 2574POPC   C1B34615  28.725  25.322   8.756
 2574POPC   C2B34616  28.711  25.442   8.349
 2574POPC   C3B34617  28.619  25.238   7.968
 2574POPC   C4B34618  28.807  25.460   7.622
 2575POPC   NC334619  13.670  39.378   9.579
 2575POPC   PO434620  13.320  38.852   9.545
 2575POPC   GL134621  13.524  39.059   9.189
 2575POPC   GL234622  13.860  39.216   9.146
 2575POPC   C1A34623  13.459  39.249   8.783
 2575POPC   D2A34624  13.592  39.417   8.381
 2575POPC   C3A34625  13.567  39.214   7.993
 2575POPC   C4A34626  13.484  39.457   7.665
 2575POPC   C1B34627  13.811  39.610   8.876
 2575POPC   C2B34628  14.021  39.695   8.483
 2575POPC   C3B34629  14.014  39.530   8.047
 2575POPC   C4B34630  13.991  39.458   7.588
 2576POPC   NC334631   6.576  18.058   9.658
 2576POPC   PO434632   6.975  18.601   9.452
 2576POPC   GL134633   6.746  18.305   9.182
 2576POPC   GL234634   6.542  18.005   9.166
 2576POPC   C1A34635   6.573  18.328   8.770
 2576POPC   D2A34636   6.709  18.540   8.413
 2576POPC   C3A34637   6.651  18.298   8.027
 2576POPC   C4A34638   6.607  18.416   7.608
 2576POPC   C1B34639   6.344  17.838   8.812
 2576POPC   C2B34640   6.279  17.954   8.424
 2576POPC   C3B34641   6.197  18.045   8.039
 2576POPC   C4B34642   6.224  18.084   7.629
 2577POPC   NC334643  42.455  38.269   9.603
 2577POPC   PO434644  42.180  38.914   9.442
 2577POPC   GL134645  42.355  38.597   9.157
 2577POPC   GL234646  42.216  38.268   9.163
 2577POPC   C1A34647  42.300  38.576   8.720
 2577POPC   D2A34648  42.196  38.700   8.323
 2577POPC   C3A34649  42.472  38.740   8.001
 2577POPC   C4A34650  42.253  38.629   7.620
 2577POPC   C1B34651  42.260  38.050   8.775
 2577POPC   C2B34652  42.385  38.167   8.380
 2577POPC   C3B34653  42.347  38.228   7.969
 2577POPC   C4B34654  42.314  37.908   7.680
 2578POPC   NC334655  12.324  28.845   9.419
 2578POPC   PO434656  11.790  29.293   9.566
 2578POPC   GL134657  11.974  29.149   9.154
 2578POPC   GL234658  12.279  29.252   9.039
 2578POPC   C1A34659  11.955  29.323   8.678
 2578POPC   D2A34660  12.229  29.162   8.325
 2578POPC   C3A34661  11.963  29.023   7.991
 2578POPC   C4A34662  11.647  29.316   7.842
 2578POPC   C1B34663  12.160  28.860   8.753
 2578POPC   C2B34664  12.328  28.649   8.383
 2578POPC   C3B34665  12.462  28.808   7.977
 2578POPC   C4B34666  12.372  29.239   7.814
 2579POPC   NC334667  23.286  42.389   9.567
 2579POPC   PO434668  23.872  42.577   9.695
 2579POPC   GL134669  23.698  42.419   9.269
 2579POPC   GL234670  23.472  42.704   9.218
 2579POPC   C1A34671  23.699  42.127   8.862
 2579POPC   D2A34672  23.528  42.001   8.447
 2579POPC   C3A34673  23.669  42.017   7.999
 2579POPC   C4A34674  23.539  42.143   7.560
 2579POPC   C1B34675  23.687  42.627   8.809
 2579POPC   C2B34676  23.754  42.723   8.374
 2579POPC   C3B34677  23.601  42.612   7.976
 2579POPC   C4B34678  23.935  42.414   7.771
 2580POPC   NC334679  21.164  44.334   9.784
 2580POPC   PO434680  20.648  44.377   9.387
 2580POPC   GL134681  20.438  44.500   9.030
 2580POPC   GL234682  20.545  44.840   9.055
 2580POPC   C1A34683  20.563  44.576   8.606
 2580POPC   D2A34684  20.946  44.454   8.402
 2580POPC   C3A34685  20.849  44.417   7.981
 2580POPC   C4A34686  20.437  44.381   7.785
 2580POPC   C1B34687  20.759   0.052   8.758
 2580POPC   C2B34688  20.615   0.171   8.395
 2580POPC   C3B34689  20.832   0.036   8.072
 2580POPC   C4B34690  20.613  44.860   7.749
 2581POPC   NC334691  34.189  16.808   9.706
 2581POPC   PO434692  33.671  16.464   9.389
 2581POPC   GL134693  33.781  16.817   9.201
 2581POPC   GL234694  33.519  16.849   9.017
 2581POPC   C1A34695  34.006  16.971   8.848
 2581POPC   D2A34696  33.878  16.924   8.423
 2581POPC   C3A34697  33.831  17.058   7.988
 2581POPC   C4A34698  33.609  16.938   7.598
 2581POPC   C1B34699  33.781  16.514   8.757
 2581POPC   C2B34700  34.002  16.421   8.371
 2581POPC   C3B34701  33.774  16.549   8.026
 2581POPC   C4B34702  33.508  16.240   7.823
 2582POPC   NC334703  29.590  36.906   9.272
 2582POPC   PO434704  30.164  37.091   9.578
 2582POPC   GL134705  30.122  37.046   9.167
 2582POPC   GL234706  30.072  36.699   9.243
 2582POPC   C1A34707  29.969  37.187   8.755
 2582POPC   D2A34708  29.749  37.114   8.327
 2582POPC   C3A34709  30.018  36.928   7.999
 2582POPC   C4A34710  30.348  37.047   7.713
 2582POPC   C1B34711  30.117  36.653   8.846
 2582POPC   C2B34712  29.851  36.680   8.554
 2582POPC   C3B34713  29.752  36.534   8.187
 2582POPC   C4B34714  30.053  36.427   7.941
 2583POPC   NC334715   3.281  32.948   9.703
 2583POPC   PO434716   3.871  33.150   9.436
 2583POPC   GL134717   3.609  32.984   9.114
 2583POPC   GL234718   3.254  32.967   9.061
 2583POPC   C1A34719   3.566  33.151   8.691
 2583POPC   D2A34720   3.531  33.077   8.269
 2583POPC   C3A34721   3.828  33.367   8.082
 2583POPC   C4A34722   3.991  33.355   7.661
 2583POPC   C1B34723   3.335  32.703   8.692
 2583POPC   C2B34724   3.295  32.607   8.258
 2583POPC   C3B34725   3.461  32.743   7.875
 2583POPC   C4B34726   3.601  32.870   7.459
 2584POPC   NC334727  21.976  40.468   9.433
 2584POPC   PO434728  21.834  41.166   9.425
 2584POPC   GL134729  22.089  40.912   9.163
 2584POPC   GL234730  21.963  41.086   8.908
 2584POPC   C1A34731  22.444  40.834   8.844
 2584POPC   D2A34732  22.655  40.971   8.445
 2584POPC   C3A34733  22.441  40.791   8.114
 2584POPC   C4A34734  22.108  40.889   7.854
 2584POPC   C1B34735  21.958  40.647   8.759
 2584POPC   C2B34736  22.034  40.607   8.349
 2584POPC   C3B34737  21.777  40.539   8.000
 2584POPC   C4B34738  21.920  40.501   7.569
 2585POPC   NC334739  34.928  20.795   9.578
 2585POPC   PO434740  35.440  20.470   9.545
 2585POPC   GL134741  35.272  20.616   9.175
 2585POPC   GL234742  35.565  20.868   9.136
 2585POPC   C1A34743  35.150  20.326   8.830
 2585POPC   D2A34744  35.332  20.260   8.402
 2585POPC   C3A34745  35.147  20.108   8.050
 2585POPC   C4A34746  35.202  20.401   7.717
 2585POPC   C1B34747  35.569  20.623   8.746
 2585POPC   C2B34748  35.589  20.721   8.324
 2585POPC   C3B34749  35.487  20.875   7.928
 2585POPC   C4B34750  35.643  20.674   7.569
 2586POPC   NC334751  29.528  22.558   9.418
 2586POPC   PO434752  29.169  23.087   9.381
 2586POPC   GL134753  29.324  23.127   9.021
 2586POPC   GL234754  29.514  22.836   8.993
 2586POPC   C1A34755  29.074  23.056   8.693
 2586POPC   D2A34756  29.040  22.806   8.365
 2586POPC   C3A34757  28.957  23.040   8.044
 2586POPC   C4A34758  29.012  22.910   7.655
 2586POPC   C1B34759  29.535  22.862   8.553
 2586POPC   C2B34760  29.429  23.166   8.251
 2586POPC   C3B34761  29.458  23.072   7.830
 2586POPC   C4B34762  29.683  22.708   7.626
 2587POPC   NC334763  17.646  44.149   9.507
 2587POPC   PO434764  17.246  43.651   9.546
 2587POPC   GL134765  17.417  43.855   9.156
 2587POPC   GL234766  17.786  43.808   9.135
 2587POPC   C1A34767  17.518  43.951   8.720
 2587POPC   D2A34768  17.316  44.117   8.392
 2587POPC   C3A34769  17.445  43.929   8.047
 2587POPC   C4A34770  17.492  44.100   7.670
 2587POPC   C1B34771  17.949  44.137   8.865
 2587POPC   C2B34772  17.860  44.279   8.419
 2587POPC   C3B34773  17.890  44.151   7.986
 2587POPC   C4B34774  17.999  43.876   7.658
 2588POPC   NC334775  37.104  31.494   9.507
 2588POPC   PO434776  36.446  31.440   9.610
 2588POPC   GL134777  36.727  31.334   9.184
 2588POPC   GL234778  37.124  31.387   9.021
 2588POPC   C1A34779  36.741  31.258   8.737
 2588POPC   D2A34780  37.090  31.339   8.504
 2588POPC   C3A34781  37.066  31.291   8.056
 2588POPC   C4A34782  36.801  31.395   7.680
 2588POPC   C1B34783  37.326  31.742   8.752
 2588POPC   C2B34784  37.275  31.747   8.280
 2588POPC   C3B34785  37.188  31.758   7.861
 2588POPC   C4B34786  37.072  31.748   7.381
 2589POPC   NC334787  12.651  31.336   9.474
 2589POPC   PO434788  13.033  31.895   9.544
 2589POPC   GL134789  12.963  31.627   9.203
 2589POPC   GL234790  12.663  31.742   9.129
 2589POPC   C1A34791  12.874  31.364   8.806
 2589POPC   D2A34792  12.996  31.180   8.380
 2589POPC   C3A34793  12.866  31.335   7.955
 2589POPC   C4A34794  12.977  31.511   7.523
 2589POPC   C1B34795  12.474  31.832   8.744
 2589POPC   C2B34796  12.285  31.982   8.353
 2589POPC   C3B34797  12.500  31.744   8.054
 2589POPC   C4B34798  12.499  31.556   7.675
 2590POPC   NC334799  24.261  27.575   9.610
 2590POPC   PO434800  24.905  27.688   9.516
 2590POPC   GL134801  24.602  27.602   9.205
 2590POPC   GL234802  24.430  27.900   9.235
 2590POPC   C1A34803  24.497  27.549   8.765
 2590POPC   D2A34804  24.727  27.576   8.387
 2590POPC   C3A34805  24.465  27.590   8.030
 2590POPC   C4A34806  24.403  27.325   7.692
 2590POPC   C1B34807  24.739  27.983   8.877
 2590POPC   C2B34808  24.906  28.158   8.486
 2590POPC   C3B34809  24.894  27.955   8.103
 2590POPC   C4B34810  24.676  27.966   7.781
 2591POPC   NC334811  30.243  27.994   9.482
 2591POPC   PO434812  30.182  27.270   9.550
 2591POPC   GL134813  30.114  27.341   9.134
 2591POPC   GL234814  29.787  27.387   9.112
 2591POPC   C1A34815  30.198  27.454   8.707
 2591POPC   D2A34816  30.048  27.753   8.402
 2591POPC   C3A34817  30.191  27.662   8.007
 2591POPC   C4A34818  29.990  27.778   7.639
 2591POPC   C1B34819  29.732  27.660   8.807
 2591POPC   C2B34820  29.568  27.505   8.450
 2591POPC   C3B34821  29.701  27.547   8.048
 2591POPC   C4B34822  29.714  27.279   7.719
 2592POPC   NC334823  41.316   2.842   9.277
 2592POPC   PO434824  41.885   2.471   9.382
 2592POPC   GL134825  41.748   2.741   8.995
 2592POPC   GL234826  41.636   3.120   9.022
 2592POPC   C1A34827  41.455   2.830   8.623
 2592POPC   D2A34828  41.429   2.931   8.180
 2592POPC   C3A34829  41.607   2.569   8.020
 2592POPC   C4A34830  41.877   2.489   7.695
 2592POPC   C1B34831  41.867   3.131   8.666
 2592POPC   C2B34832  41.936   2.948   8.293
 2592POPC   C3B34833  41.864   2.983   7.874
 2592POPC   C4B34834  41.796   3.312   7.582
 2593POPC   NC334835  34.775  42.123   9.561
 2593POPC   PO434836  34.244  42.359   9.252
 2593POPC   GL134837  34.528  42.410   8.983
 2593POPC   GL234838  34.810  42.405   9.119
 2593POPC   C1A34839  34.560  42.595   8.609
 2593POPC   D2A34840  34.418  42.401   8.269
 2593POPC   C3A34841  34.548  42.618   7.948
 2593POPC   C4A34842  34.616  42.409   7.536
 2593POPC   C1B34843  35.001  42.335   8.702
 2593POPC   C2B34844  34.911  42.298   8.243
 2593POPC   C3B34845  35.030  42.505   7.819
 2593POPC   C4B34846  35.086  42.428   7.343
 2594POPC   NC334847  20.750  37.259   9.513
 2594POPC   PO434848  20.559  36.634   9.735
 2594POPC   GL134849  20.623  36.813   9.289
 2594POPC   GL234850  20.357  37.021   9.186
 2594POPC   C1A34851  20.730  37.007   8.849
 2594POPC   D2A34852  20.491  36.908   8.465
 2594POPC   C3A34853  20.751  37.003   8.151
 2594POPC   C4A34854  20.767  36.904   7.744
 2594POPC   C1B34855  20.249  37.224   8.778
 2594POPC   C2B34856  20.359  37.384   8.322
 2594POPC   C3B34857  20.482  37.331   7.886
 2594POPC   C4B34858  20.909  37.404   7.807
 2595POPC   NC334859  33.852   8.771   9.673
 2595POPC   PO434860  34.073   9.401   9.463
 2595POPC   GL134861  33.778   9.089   9.233
 2595POPC   GL234862  33.727   8.698   9.197
 2595POPC   C1A34863  33.655   9.032   8.805
 2595POPC   D2A34864  33.842   8.929   8.421
 2595POPC   C3A34865  33.678   9.017   8.024
 2595POPC   C4A34866  33.511   9.105   7.642
 2595POPC   C1B34867  33.856   8.501   8.803
 2595POPC   C2B34868  34.114   8.478   8.440
 2595POPC   C3B34869  34.106   8.701   8.053
 2595POPC   C4B34870  33.850   8.675   7.684
 2596POPC   NC334871  12.900   3.844   9.616
 2596POPC   PO434872  12.410   3.421   9.717
 2596POPC   GL134873  12.660   3.513   9.287
 2596POPC   GL234874  12.993   3.736   9.120
 2596POPC   C1A34875  12.550   3.645   8.869
 2596POPC   D2A34876  12.812   3.740   8.527
 2596POPC   C3A34877  12.649   3.543   8.170
 2596POPC   C4A34878  12.584   3.704   7.775
 2596POPC   C1B34879  13.251   3.575   8.727
 2596POPC   C2B34880  13.202   3.558   8.244
 2596POPC   C3B34881  13.066   3.433   7.826
 2596POPC   C4B34882  13.267   3.423   7.377
 2597POPC   NC334883  22.643  36.225   9.534
 2597POPC   PO434884  23.319  36.072   9.500
 2597POPC   GL134885  23.118  35.942   9.105
 2597POPC   GL234886  22.923  36.220   9.114
 2597POPC   C1A34887  23.138  36.091   8.647
 2597POPC   D2A34888  22.816  36.115   8.279
 2597POPC   C3A34889  22.888  35.844   7.876
 2597POPC   C4A34890  22.867  35.991   7.423
 2597POPC   C1B34891  22.695  36.309   8.767
 2597POPC   C2B34892  22.769  36.627   8.493
 2597POPC   C3B34893  22.727  36.620   8.083
 2597POPC   C4B34894  22.660  36.288   7.790
 2598POPC   NC334895  32.374  26.313   9.630
 2598POPC   PO434896  32.102  25.750   9.559
 2598POPC   GL134897  32.134  25.975   9.179
 2598POPC   GL234898  32.476  26.060   9.165
 2598POPC   C1A34899  31.892  25.923   8.797
 2598POPC   D2A34900  32.107  25.898   8.414
 2598POPC   C3A34901  31.940  26.014   8.033
 2598POPC   C4A34902  32.136  26.152   7.708
 2598POPC   C1B34903  32.661  26.186   8.774
 2598POPC   C2B34904  32.511  26.298   8.339
 2598POPC   C3B34905  32.588  26.128   7.918
 2598POPC   C4B34906  32.567  26.285   7.463
 2599POPC   NC334907  24.283  38.274   9.496
 2599POPC   PO434908  24.941  38.160   9.441
 2599POPC   GL134909  24.668  38.384   9.158
 2599POPC   GL234910  24.443  38.680   9.176
 2599POPC   C1A34911  24.472  38.352   8.760
 2599POPC   D2A34912  24.501  38.500   8.340
 2599POPC   C3A34913  24.414  38.278   7.955
 2599POPC   C4A34914  24.632  38.435   7.622
 2599POPC   C1B34915  24.350  38.854   8.755
 2599POPC   C2B34916  24.155  38.881   8.322
 2599POPC   C3B34917  24.315  38.794   7.892
 2599POPC   C4B34918  24.195  38.635   7.489
 2600POPC   NC334919  25.547   7.726   9.450
 2600POPC   PO434920  25.651   7.023   9.560
 2600POPC   GL134921  25.400   7.297   9.225
 2600POPC   GL234922  25.044   7.452   9.261
 2600POPC   C1A34923  25.422   7.573   8.825
 2600POPC   D2A34924  25.523   7.499   8.390
 2600POPC   C3A34925  25.548   7.710   8.033
 2600POPC   C4A34926  25.525   7.540   7.691
 2600POPC   C1B34927  24.926   7.640   8.838
 2600POPC   C2B34928  25.021   7.411   8.442
 2600POPC   C3B34929  25.055   7.476   7.985
 2600POPC   C4B34930  24.978   7.123   7.708
 2601POPC   NC334931   5.186  21.073   9.555
 2601POPC   PO434932   4.746  21.596   9.521
 2601POPC   GL134933   4.939  21.401   9.197
 2601POPC   GL234934   5.256  21.507   9.175
 2601POPC   C1A34935   5.021  21.270   8.777
 2601POPC   D2A34936   4.819  21.005   8.473
 2601POPC   C3A34937   4.864  21.212   8.134
 2601POPC   C4A34938   5.217  21.339   7.910
 2601POPC   C1B34939   5.268  21.750   8.800
 2601POPC   C2B34940   5.210  21.616   8.372
 2601POPC   C3B34941   5.402  21.803   7.991
 2601POPC   C4B34942   5.348  21.674   7.536
 2602POPC   NC334943  39.552  17.470   9.378
 2602POPC   PO434944  38.889  17.618   9.389
 2602POPC   GL134945  39.180  17.720   9.062
 2602POPC   GL234946  39.492  17.912   9.133
 2602POPC   C1A34947  39.124  17.687   8.623
 2602POPC   D2A34948  39.111  17.355   8.294
 2602POPC   C3A34949  39.082  17.468   7.841
 2602POPC   C4A34950  39.006  17.194   7.456
 2602POPC   C1B34951  39.619  17.677   8.753
 2602POPC   C2B34952  39.527  17.678   8.286
 2602POPC   C3B34953  39.570  17.650   7.838
 2602POPC   C4B34954  39.420  17.484   7.454
 2603POPC   NC334955  31.855   9.907   9.401
 2603POPC   PO434956  31.860   9.367   9.785
 2603POPC   GL134957  31.618   9.436   9.360
 2603POPC   GL234958  31.393   9.731   9.241
 2603POPC   C1A34959  31.628   9.466   8.874
 2603POPC   D2A34960  31.666   9.750   8.504
 2603POPC   C3A34961  31.756   9.686   8.059
 2603POPC   C4A34962  31.460   9.545   7.738
 2603POPC   C1B34963  31.273   9.852   8.815
 2603POPC   C2B34964  31.229  10.004   8.362
 2603POPC   C3B34965  31.348  10.028   7.917
 2603POPC   C4B34966  31.288  10.377   7.611
 2604POPC   NC334967  25.626  12.134   9.519
 2604POPC   PO434968  24.989  12.244   9.330
 2604POPC   GL134969  25.198  11.924   9.087
 2604POPC   GL234970  25.564  11.918   9.059
 2604POPC   C1A34971  25.226  12.002   8.660
 2604POPC   D2A34972  25.348  12.272   8.321
 2604POPC   C3A34973  25.303  12.129   7.958
 2604POPC   C4A34974  25.193  11.772   7.806
 2604POPC   C1B34975  25.688  12.185   8.714
 2604POPC   C2B34976  25.805  12.031   8.303
 2604POPC   C3B34977  25.780  12.051   7.854
 2604POPC   C4B34978  25.563  12.394   7.583
 2605POPC   NC334979  24.468  24.716   9.653
 2605POPC   PO434980  24.605  24.052   9.556
 2605POPC   GL134981  24.474  24.318   9.193
 2605POPC   GL234982  24.474  24.702   9.147
 2605POPC   C1A34983  24.515  24.357   8.754
 2605POPC   D2A34984  24.300  24.307   8.395
 2605POPC   C3A34985  24.384  24.337   7.983
 2605POPC   C4A34986  24.762  24.256   7.830
 2605POPC   C1B34987  24.566  24.854   8.737
 2605POPC   C2B34988  24.791  24.650   8.375
 2605POPC   C3B34989  24.816  24.773   7.938
 2605POPC   C4B34990  24.465  24.719   7.676
 2606POPC   NC334991  19.069  31.902  10.116
 2606POPC   PO434992  19.013  32.432   9.675
 2606POPC   GL134993  18.984  32.474   9.249
 2606POPC   GL234994  19.324  32.587   9.238
 2606POPC   C1A34995  18.911  32.154   8.925
 2606POPC   D2A34996  19.118  32.090   8.519
 2606POPC   C3A34997  18.887  32.045   8.209
 2606POPC   C4A34998  18.928  32.156   7.800
 2606POPC   C1B34999  19.323  32.432   8.836
 2606POPC   C2B35000  19.277  32.590   8.443
 2606POPC   C3B35001  19.279  32.374   8.097
 2606POPC   C4B35002  19.251  32.560   7.710
 2607POPC   NC335003  18.868  13.773   9.730
 2607POPC   PO435004  19.334  13.958   9.298
 2607POPC   GL135005  19.114  13.638   9.160
 2607POPC   GL235006  18.782  13.661   9.232
 2607POPC   C1A35007  19.180  13.445   8.788
 2607POPC   D2A35008  19.435  13.633   8.481
 2607POPC   C3A35009  19.303  13.521   8.074
 2607POPC   C4A35010  19.118  13.311   7.762
 2607POPC   C1B35011  18.709  13.668   8.795
 2607POPC   C2B35012  18.578  13.854   8.400
 2607POPC   C3B35013  18.527  13.949   7.986
 2607POPC   C4B35014  18.843  13.724   7.798
 2608POPC   NC335015  13.023   7.978   9.532
 2608POPC   PO435016  12.824   7.251   9.491
 2608POPC   GL135017  12.888   7.349   9.083
 2608POPC   GL235018  12.818   7.699   9.139
 2608POPC   C1A35019  12.776   7.200   8.675
 2608POPC   D2A35020  12.639   7.371   8.287
 2608POPC   C3A35021  12.863   7.227   7.981
 2608POPC   C4A35022  12.762   6.901   7.755
 2608POPC   C1B35023  12.962   7.703   8.707
 2608POPC   C2B35024  13.084   7.641   8.279
 2608POPC   C3B35025  12.862   7.740   7.913
 2608POPC   C4B35026  12.499   7.561   7.758
 2609POPC   NC335027  15.400  36.646   9.547
 2609POPC   PO435028  15.621  37.173   9.218
 2609POPC   GL135029  15.454  36.949   8.943
 2609POPC   GL235030  15.106  36.936   9.032
 2609POPC   C1A35031  15.286  36.745   8.601
 2609POPC   D2A35032  15.028  36.844   8.289
 2609POPC   C3A35033  15.336  36.737   8.044
 2609POPC   C4A35034  15.457  36.930   7.728
 2609POPC   C1B35035  14.926  36.498   8.841
 2609POPC   C2B35036  14.948  36.348   8.421
 2609POPC   C3B35037  14.935  36.430   7.965
 2609POPC   C4B35038  15.000  36.726   7.599
 2610POPC   NC335039  13.082   9.914   9.725
 2610POPC   PO435040  12.769   9.320   9.530
 2610POPC   GL135041  12.763   9.738   9.348
 2610POPC   GL235042  13.118   9.857   9.223
 2610POPC   C1A35043  12.731   9.694   8.937
 2610POPC   D2A35044  12.801   9.643   8.511
 2610POPC   C3A35045  12.527   9.730   8.172
 2610POPC   C4A35046  12.685   9.619   7.751
 2610POPC   C1B35047  13.239   9.707   8.802
 2610POPC   C2B35048  13.221   9.929   8.430
 2610POPC   C3B35049  13.058   9.783   8.070
 2610POPC   C4B35050  13.350   9.506   8.026
 2611POPC   NC335051   3.200  40.970   9.406
 2611POPC   PO435052   2.636  40.542   9.515
 2611POPC   GL135053   2.729  40.799   9.162
 2611POPC   GL235054   2.742  41.135   9.200
 2611POPC   C1A35055   2.997  40.861   8.784
 2611POPC   D2A35056   3.176  40.727   8.391
 2611POPC   C3A35057   2.911  40.831   8.020
 2611POPC   C4A35058   2.633  40.673   7.689
 2611POPC   C1B35059   2.666  41.252   8.792
 2611POPC   C2B35060   2.580  40.953   8.473
 2611POPC   C3B35061   2.396  40.909   8.088
 2611POPC   C4B35062   2.484  41.175   7.717
 2612POPC   NC335063   3.300  28.769   9.452
 2612POPC   PO435064   3.551  29.424   9.427
 2612POPC   GL135065   3.376  29.290   9.062
 2612POPC   GL235066   3.532  28.992   9.048
 2612POPC   C1A35067   3.459  29.241   8.608
 2612POPC   D2A35068   3.699  29.520   8.395
 2612POPC   C3A35069   3.683  29.484   7.963
 2612POPC   C4A35070   4.072  29.473   7.801
 2612POPC   C1B35071   3.174  28.861   8.763
 2612POPC   C2B35072   3.062  29.012   8.348
 2612POPC   C3B35073   3.098  28.834   7.948
 2612POPC   C4B35074   3.387  29.046   7.673
 2613POPC   NC335075  44.705  37.211   9.569
 2613POPC   PO435076  44.797  36.594   9.673
 2613POPC   GL135077  44.541  36.706   9.252
 2613POPC   GL235078  44.505  37.042   9.064
 2613POPC   C1A35079  44.566  36.561   8.794
 2613POPC   D2A35080  44.843  36.651   8.428
 2613POPC   C3A35081  44.632  36.843   8.092
 2613POPC   C4A35082  44.708  36.698   7.675
 2613POPC   C1B35083  44.563  37.051   8.602
 2613POPC   C2B35084  44.376  37.259   8.261
 2613POPC   C3B35085  44.424  37.215   7.803
 2613POPC   C4B35086  44.762  37.171   7.529
 2614POPC   NC335087   3.417   4.640   9.476
 2614POPC   PO435088   3.774   4.094   9.592
 2614POPC   GL135089   3.618   4.160   9.168
 2614POPC   GL235090   3.426   4.430   9.030
 2614POPC   C1A35091   3.554   4.035   8.727
 2614POPC   D2A35092   3.480   4.201   8.329
 2614POPC   C3A35093   3.509   3.982   7.953
 2614POPC   C4A35094   3.366   4.159   7.571
 2614POPC   C1B35095   3.503   4.699   8.667
 2614POPC   C2B35096   3.633   4.671   8.235
 2614POPC   C3B35097   3.345   4.538   7.911
 2614POPC   C4B35098   3.303   4.664   7.465
 2615POPC   NC335099  19.561  25.262   9.507
 2615POPC   PO435100  20.183  25.028   9.701
 2615POPC   GL135101  20.136  25.138   9.220
 2615POPC   GL235102  19.798  25.153   9.082
 2615POPC   C1A35103  20.147  25.306   8.757
 2615POPC   D2A35104  20.340  25.269   8.319
 2615POPC   C3A35105  20.055  25.297   7.950
 2615POPC   C4A35106  19.705  25.304   7.645
 2615POPC   C1B35107  19.565  25.087   8.707
 2615POPC   C2B35108  19.495  25.290   8.299
 2615POPC   C3B35109  19.274  25.202   7.910
 2615POPC   C4B35110  19.345  24.978   7.479
 2616POPC   NC335111  24.330   1.999   9.614
 2616POPC   PO435112  24.666   1.754   9.151
 2616POPC   GL135113  24.535   2.157   9.108
 2616POPC   GL235114  24.806   2.369   9.033
 2616POPC   C1A35115  24.465   2.292   8.683
 2616POPC   D2A35116  24.222   2.130   8.360
 2616POPC   C3A35117  24.398   1.969   7.997
 2616POPC   C4A35118  24.297   2.250   7.664
 2616POPC   C1B35119  24.993   2.145   8.722
 2616POPC   C2B35120  24.771   1.959   8.407
 2616POPC   C3B35121  24.964   1.978   8.039
 2616POPC   C4B35122  24.793   2.005   7.667
 2617POPC   NC335123  13.120  42.716   9.796
 2617POPC   PO435124  13.633  42.298   9.504
 2617POPC   GL135125  13.336  42.343   9.171
 2617POPC   GL235126  13.223  42.089   9.071
 2617POPC   C1A35127  13.325  42.491   8.714
 2617POPC   D2A35128  13.477  42.317   8.324
 2617POPC   C3A35129  13.662  42.469   7.969
 2617POPC   C4A35130  13.522  42.477   7.545
 2617POPC   C1B35131  13.625  42.056   8.817
 2617POPC   C2B35132  13.908  42.104   8.456
 2617POPC   C3B35133  13.836  41.952   8.074
 2617POPC   C4B35134  13.804  42.084   7.686
 2618POPC   NC335135  10.135  28.502   9.541
 2618POPC   PO435136  10.803  28.224   9.580
 2618POPC   GL135137  10.573  28.321   9.219
 2618POPC   GL235138  10.469  28.682   9.196
 2618POPC   C1A35139  10.718  28.250   8.800
 2618POPC   D2A35140  10.694  27.928   8.512
 2618POPC   C3A35141  10.573  27.991   8.093
 2618POPC   C4A35142  10.745  28.285   7.830
 2618POPC   C1B35143  10.428  28.659   8.753
 2618POPC   C2B35144  10.541  28.462   8.337
 2618POPC   C3B35145  10.495  28.699   7.945
 2618POPC   C4B35146  10.767  28.812   7.566
 2619POPC   NC335147   7.623   4.898   9.406
 2619POPC   PO435148   8.077   5.190   9.802
 2619POPC   GL135149   8.097   5.168   9.324
 2619POPC   GL235150   8.350   4.946   9.153
 2619POPC   C1A35151   8.125   5.325   8.873
 2619POPC   D2A35152   8.386   5.277   8.458
 2619POPC   C3A35153   8.183   5.251   8.027
 2619POPC   C4A35154   8.364   5.354   7.624
 2619POPC   C1B35155   8.268   4.849   8.742
 2619POPC   C2B35156   8.032   4.871   8.378
 2619POPC   C3B35157   8.034   4.737   7.945
 2619POPC   C4B35158   8.374   4.847   7.672
 2620POPC   NC335159  37.314  28.627   9.439
 2620POPC   PO435160  37.149  28.081   9.807
 2620POPC   GL135161  36.983  28.247   9.354
 2620POPC   GL235162  36.787  28.570   9.279
 2620POPC   C1A35163  36.991  28.271   8.881
 2620POPC   D2A35164  37.217  28.336   8.472
 2620POPC   C3A35165  37.073  28.541   8.068
 2620POPC   C4A35166  36.991  28.337   7.656
 2620POPC   C1B35167  36.592  28.623   8.853
 2620POPC   C2B35168  36.665  28.439   8.410
 2620POPC   C3B35169  36.563  28.384   7.943
 2620POPC   C4B35170  36.627  28.679   7.594
 2621POPC   NC335171  34.443  10.112   9.503
 2621POPC   PO435172  34.939   9.714   9.853
 2621POPC   GL135173  34.834   9.865   9.343
 2621POPC   GL235174  34.496   9.720   9.186
 2621POPC   C1A35175  34.836   9.908   8.863
 2621POPC   D2A35176  34.642  10.075   8.479
 2621POPC   C3A35177  34.694   9.873   8.152
 2621POPC   C4A35178  34.766   9.801   7.762
 2621POPC   C1B35179  34.345   9.783   8.768
 2621POPC   C2B35180  34.285   9.638   8.352
 2621POPC   C3B35181  34.216   9.798   7.949
 2621POPC   C4B35182  34.168   9.553   7.610
 2622POPC   NC335183  12.507  23.293   9.798
 2622POPC   PO435184  12.824  22.719   9.533
 2622POPC   GL135185  12.946  22.940   9.178
 2622POPC   GL235186  12.621  23.124   9.152
 2622POPC   C1A35187  13.260  22.904   8.821
 2622POPC   D2A35188  13.253  22.777   8.391
 2622POPC   C3A35189  12.891  22.853   8.195
 2622POPC   C4A35190  12.824  22.821   7.802
 2622POPC   C1B35191  12.779  23.128   8.731
 2622POPC   C2B35192  12.693  23.297   8.357
 2622POPC   C3B35193  12.494  23.186   7.953
 2622POPC   C4B35194  12.678  23.155   7.484
 2623POPC   NC335195  34.227  12.112   9.530
 2623POPC   PO435196  34.842  11.889   9.554
 2623POPC   GL135197  34.585  12.000   9.182
 2623POPC   GL235198  34.297  11.774   9.077
 2623POPC   C1A35199  34.552  12.158   8.772
 2623POPC   D2A35200  34.619  11.947   8.382
 2623POPC   C3A35201  34.867  12.130   8.039
 2623POPC   C4A35202  35.074  12.452   7.774
 2623POPC   C1B35203  34.212  11.570   8.660
 2623POPC   C2B35204  34.234  11.652   8.216
 2623POPC   C3B35205  34.363  11.990   7.942
 2623POPC   C4B35206  34.513  12.204   7.592
 2624POPC   NC335207  15.071  35.706   9.459
 2624POPC   PO435208  15.460  36.192   9.550
 2624POPC   GL135209  15.125  36.223   9.235
 2624POPC   GL235210  15.330  36.474   9.095
 2624POPC   C1A35211  14.871  36.000   8.884
 2624POPC   D2A35212  15.065  35.858   8.494
 2624POPC   C3A35213  14.885  35.918   8.086
 2624POPC   C4A35214  15.098  35.978   7.699
 2624POPC   C1B35215  15.359  36.196   8.778
 2624POPC   C2B35216  15.467  36.295   8.380
 2624POPC   C3B35217  15.468  36.222   7.994
 2624POPC   C4B35218  15.395  36.397   7.643
 2625POPC   NC335219  33.825  24.710   9.671
 2625POPC   PO435220  33.712  24.146   9.488
 2625POPC   GL135221  33.713  24.545   9.205
 2625POPC   GL235222  34.017  24.452   8.998
 2625POPC   C1A35223  33.748  24.836   8.826
 2625POPC   D2A35224  33.961  24.682   8.422
 2625POPC   C3A35225  33.851  24.808   7.957
 2625POPC   C4A35226  33.972  24.912   7.493
 2625POPC   C1B35227  34.035  24.185   8.597
 2625POPC   C2B35228  33.948  23.974   8.194
 2625POPC   C3B35229  33.799  24.245   7.852
 2625POPC   C4B35230  33.637  24.548   7.562
 2626POPC   NC335231  34.086   3.713   9.396
 2626POPC   PO435232  33.577   3.436   9.521
 2626POPC   GL135233  33.721   3.377   9.120
 2626POPC   GL235234  34.040   3.282   9.098
 2626POPC   C1A35235  33.840   3.664   8.788
 2626POPC   D2A35236  34.045   3.707   8.418
 2626POPC   C3A35237  33.870   3.689   8.048
 2626POPC   C4A35238  33.818   3.855   7.677
 2626POPC   C1B35239  33.958   3.172   8.713
 2626POPC   C2B35240  33.736   3.296   8.383
 2626POPC   C3B35241  33.968   3.193   8.032
 2626POPC   C4B35242  33.827   3.317   7.642
 2627POPC   NC335243  20.282   0.566   9.624
 2627POPC   PO435244  19.912   0.021   9.593
 2627POPC   GL135245  19.748   0.295   9.254
 2627POPC   GL235246  20.049   0.511   9.188
 2627POPC   C1A35247  19.676   0.575   8.871
 2627POPC   D2A35248  19.840   0.802   8.502
 2627POPC   C3A35249  19.669   0.617   8.116
 2627POPC   C4A35250  19.831   0.411   7.749
 2627POPC   C1B35251  20.310   0.286   8.905
 2627POPC   C2B35252  20.139   0.111   8.546
 2627POPC   C3B35253  20.132   0.150   8.090
 2627POPC   C4B35254  20.310   0.291   7.700
 2628POPC   NC335255  20.365   2.120   9.428
 2628POPC   PO435256  20.801   1.610   9.609
 2628POPC   GL135257  20.693   1.684   9.194
 2628POPC   GL235258  20.997   1.874   9.126
 2628POPC   C1A35259  20.514   1.831   8.795
 2628POPC   D2A35260  20.568   2.173   8.463
 2628POPC   C3A35261  20.388   1.998   8.068
 2628POPC   C4A35262  20.210   2.258   7.741
 2628POPC   C1B35263  21.012   1.968   8.713
 2628POPC   C2B35264  20.830   1.745   8.387
 2628POPC   C3B35265  20.887   2.005   8.076
 2628POPC   C4B35266  20.883   1.938   7.703
 2629POPC   NC335267   1.961  42.536   9.651
 2629POPC   PO435268   1.430  42.810   9.265
 2629POPC   GL135269   1.861  42.652   9.144
 2629POPC   GL235270   1.975  42.283   9.200
 2629POPC   C1A35271   2.112  42.510   8.769
 2629POPC   D2A35272   2.002  42.451   8.352
 2629POPC   C3A35273   2.143  42.683   7.996
 2629POPC   C4A35274   1.802  42.716   7.730
 2629POPC   C1B35275   1.961  41.988   8.838
 2629POPC   C2B35276   2.059  41.950   8.396
 2629POPC   C3B35277   2.025  42.117   7.964
 2629POPC   C4B35278   2.300  42.112   7.611
 2630POPC   NC335279  12.103  33.172   9.485
 2630POPC   PO435280  12.276  32.465   9.477
 2630POPC   GL135281  12.076  32.728   9.214
 2630POPC   GL235282  11.845  32.529   9.101
 2630POPC   C1A35283  12.130  33.035   8.879
 2630POPC   D2A35284  12.009  33.056   8.459
 2630POPC   C3A35285  12.080  33.313   8.129
 2630POPC   C4A35286  12.072  33.234   7.694
 2630POPC   C1B35287  11.769  32.711   8.763
 2630POPC   C2B35288  11.863  32.584   8.363
 2630POPC   C3B35289  11.902  32.825   7.985
 2630POPC   C4B35290  11.775  32.717   7.559
 2631POPC   NC335291  26.239   2.806   9.561
 2631POPC   PO435292  26.395   2.217   9.493
 2631POPC   GL135293  26.094   2.414   9.167
 2631POPC   GL235294  25.977   2.777   9.110
 2631POPC   C1A35295  26.095   2.456   8.730
 2631POPC   D2A35296  25.953   2.507   8.314
 2631POPC   C3A35297  26.223   2.666   7.976
 2631POPC   C4A35298  26.548   2.562   7.666
 2631POPC   C1B35299  25.784   2.863   8.677
 2631POPC   C2B35300  25.838   3.046   8.247
 2631POPC   C3B35301  25.843   2.976   7.786
 2631POPC   C4B35302  25.634   3.018   7.365
 2632POPC   NC335303  34.196  44.665   9.629
 2632POPC   PO435304  33.533  44.361   9.565
 2632POPC   GL135305  33.865  44.463   9.255
 2632POPC   GL235306  34.055  44.807   9.179
 2632POPC   C1A35307  33.881  44.514   8.810
 2632POPC   D2A35308  33.710  44.789   8.519
 2632POPC   C3A35309  33.789  44.576   8.152
 2632POPC   C4A35310  33.595  44.673   7.770
 2632POPC   C1B35311  34.146  44.996   8.796
 2632POPC   C2B35312  34.205  44.862   8.367
 2632POPC   C3B35313  34.036  44.967   7.954
 2632POPC   C4B35314  34.177  44.942   7.536
 2633POPC   NC335315   8.045   3.192   9.564
 2633POPC   PO435316   7.790   3.822   9.492
 2633POPC   GL135317   8.092   3.553   9.197
 2633POPC   GL235318   7.947   3.244   9.078
 2633POPC   C1A35319   8.253   3.480   8.754
 2633POPC   D2A35320   8.246   3.750   8.401
 2633POPC   C3A35321   8.423   3.514   8.076
 2633POPC   C4A35322   8.345   3.406   7.668
 2633POPC   C1B35323   7.801   3.200   8.679
 2633POPC   C2B35324   8.003   3.145   8.275
 2633POPC   C3B35325   7.826   3.132   7.850
 2633POPC   C4B35326   7.849   3.355   7.464
 2634POPC   NC335327  11.182  23.410   9.462
 2634POPC   PO435328  11.076  22.753   9.632
 2634POPC   GL135329  11.151  22.903   9.224
 2634POPC   GL235330  11.450  22.786   9.051
 2634POPC   C1A35331  11.121  23.115   8.825
 2634POPC   D2A35332  11.067  22.965   8.405
 2634POPC   C3A35333  11.427  23.075   8.149
 2634POPC   C4A35334  11.343  23.036   7.752
 2634POPC   C1B35335  11.313  22.620   8.728
 2634POPC   C2B35336  11.413  22.599   8.335
 2634POPC   C3B35337  11.178  22.605   7.981
 2634POPC   C4B35338  11.494  22.556   7.703
 2635POPC   NC335339   8.445   1.648   9.395
 2635POPC   PO435340   8.100   1.115   9.508
 2635POPC   GL135341   8.054   1.119   9.086
 2635POPC   GL235342   8.039   1.487   9.098
 2635POPC   C1A35343   7.942   1.210   8.661
 2635POPC   D2A35344   7.924   1.420   8.274
 2635POPC   C3A35345   7.892   1.069   8.021
 2635POPC   C4A35346   8.110   0.848   7.738
 2635POPC   C1B35347   8.409   1.379   8.786
 2635POPC   C2B35348   8.386   1.199   8.352
 2635POPC   C3B35349   8.372   1.294   7.914
 2635POPC   C4B35350   8.632   1.462   7.566
 2636POPC   NC335351  41.494  14.309   9.429
 2636POPC   PO435352  42.130  14.512   9.510
 2636POPC   GL135353  41.795  14.593   9.143
 2636POPC   GL235354  41.403  14.724   9.151
 2636POPC   C1A35355  41.585  14.415   8.765
 2636POPC   D2A35356  41.663  14.131   8.435
 2636POPC   C3A35357  41.474  14.302   8.078
 2636POPC   C4A35358  41.580  14.418   7.679
 2636POPC   C1B35359  41.333  14.872   8.728
 2636POPC   C2B35360  41.446  14.907   8.279
 2636POPC   C3B35361  41.181  14.904   7.915
 2636POPC   C4B35362  41.192  14.712   7.515
 2637POPC   NC335363  30.921  39.533   9.576
 2637POPC   PO435364  30.343  39.422   9.263
 2637POPC   GL135365  30.751  39.251   9.179
 2637POPC   GL235366  30.970  39.512   9.050
 2637POPC   C1A35367  30.903  39.038   8.827
 2637POPC   D2A35368  30.696  39.016   8.424
 2637POPC   C3A35369  30.859  39.113   8.035
 2637POPC   C4A35370  30.476  39.145   7.853
 2637POPC   C1B35371  30.693  39.489   8.658
 2637POPC   C2B35372  30.581  39.550   8.218
 2637POPC   C3B35373  30.618  39.630   7.804
 2637POPC   C4B35374  30.995  39.565   7.806
 2638POPC   NC335375  40.542  14.004   9.411
 2638POPC   PO435376  41.048  14.418   9.496
 2638POPC   GL135377  40.744  14.430   9.164
 2638POPC   GL235378  40.858  14.779   9.033
 2638POPC   C1A35379  40.474  14.503   8.808
 2638POPC   D2A35380  40.611  14.325   8.431
 2638POPC   C3A35381  40.415  14.318   8.029
 2638POPC   C4A35382  40.590  14.403   7.646
 2638POPC   C1B35383  41.047  14.450   8.771
 2638POPC   C2B35384  41.090  14.548   8.358
 2638POPC   C3B35385  40.943  14.348   8.018
 2638POPC   C4B35386  41.111  14.228   7.647
 2639POPC   NC335387  31.823  42.650   9.393
 2639POPC   PO435388  31.241  42.164   9.442
 2639POPC   GL135389  31.401  42.412   9.144
 2639POPC   GL235390  31.070  42.521   9.053
 2639POPC   C1A35391  31.620  42.284   8.773
 2639POPC   D2A35392  31.527  42.164   8.341
 2639POPC   C3A35393  31.732  42.228   7.942
 2639POPC   C4A35394  31.614  42.341   7.519
 2639POPC   C1B35395  31.102  42.302   8.658
 2639POPC   C2B35396  31.032  42.260   8.217
 2639POPC   C3B35397  31.179  42.216   7.810
 2639POPC   C4B35398  31.120  42.450   7.400
 2640POPC   NC335399  30.319  15.233   9.473
 2640POPC   PO435400  30.922  14.916   9.233
 2640POPC   GL135401  30.615  15.250   9.052
 2640POPC   GL235402  30.283  15.067   8.985
 2640POPC   C1A35403  30.654  15.559   8.696
 2640POPC   D2A35404  30.780  15.342   8.349
 2640POPC   C3A35405  30.795  15.429   7.933
 2640POPC   C4A35406  30.857  15.017   7.775
 2640POPC   C1B35407  30.187  15.229   8.582
 2640POPC   C2B35408  30.303  15.418   8.208
 2640POPC   C3B35409  30.356  15.159   7.881
 2640POPC   C4B35410  30.058  15.018   7.644
 2641POPC   NC335411  25.616  43.242   9.465
 2641POPC   PO435412  26.166  42.930   9.489
 2641POPC   GL135413  26.094  42.692   9.131
 2641POPC   GL235414  25.749  42.849   9.060
 2641POPC   C1A35415  26.116  42.740   8.690
 2641POPC   D2A35416  25.770  42.956   8.462
 2641POPC   C3A35417  25.867  43.072   8.056
 2641POPC   C4A35418  26.139  42.790   7.829
 2641POPC   C1B35419  25.957  43.222   8.872
 2641POPC   C2B35420  26.000  43.440   8.459
 2641POPC   C3B35421  26.103  43.544   8.019
 2641POPC   C4B35422  25.949  43.348   7.624
 2642POPC   NC335423  39.077  34.108   9.504
 2642POPC   PO435424  39.577  33.638   9.601
 2642POPC   GL135425  39.314  33.722   9.219
 2642POPC   GL235426  39.387  34.050   9.095
 2642POPC   C1A35427  39.140  33.634   8.782
 2642POPC   D2A35428  39.003  33.491   8.343
 2642POPC   C3A35429  39.074  33.734   7.945
 2642POPC   C4A35430  39.495  33.960   7.803
 2642POPC   C1B35431  38.958  34.104   8.857
 2642POPC   C2B35432  39.041  34.025   8.412
 2642POPC   C3B35433  39.128  34.230   8.022
 2642POPC   C4B35434  39.146  34.211   7.538
 2643POPC   NC335435  15.410   8.111   9.673
 2643POPC   PO435436  14.911   8.604   9.530
 2643POPC   GL135437  15.100   8.256   9.251
 2643POPC   GL235438  15.408   8.051   9.174
 2643POPC   C1A35439  15.159   8.265   8.793
 2643POPC   D2A35440  15.036   8.462   8.409
 2643POPC   C3A35441  15.034   8.238   8.024
 2643POPC   C4A35442  15.077   8.377   7.594
 2643POPC   C1B35443  15.221   7.754   8.886
 2643POPC   C2B35444  15.174   7.705   8.458
 2643POPC   C3B35445  15.325   7.741   8.053
 2643POPC   C4B35446  15.245   7.889   7.658
 2644POPC   NC335447  32.951   9.186   9.547
 2644POPC   PO435448  32.923   9.811   9.761
 2644POPC   GL135449  32.880   9.710   9.281
 2644POPC   GL235450  33.053   9.446   9.109
 2644POPC   C1A35451  32.985   9.872   8.815
 2644POPC   D2A35452  33.040  10.056   8.401
 2644POPC   C3A35453  32.794   9.786   8.146
 2644POPC   C4A35454  32.784   9.582   7.756
 2644POPC   C1B35455  33.390   9.526   8.785
 2644POPC   C2B35456  33.368   9.680   8.351
 2644POPC   C3B35457  33.263   9.776   7.936
 2644POPC   C4B35458  33.265   9.573   7.555
 2645POPC   NC335459   4.952  20.441   9.890
 2645POPC   PO435460   5.430  20.666   9.533
 2645POPC   GL135461   5.078  20.680   9.249
 2645POPC   GL235462   4.815  20.492   9.131
 2645POPC   C1A35463   5.099  20.748   8.803
 2645POPC   D2A35464   5.124  20.587   8.383
 2645POPC   C3A35465   5.220  20.806   8.027
 2645POPC   C4A35466   5.460  20.831   7.686
 2645POPC   C1B35467   4.796  20.330   8.690
 2645POPC   C2B35468   4.939  20.124   8.307
 2645POPC   C3B35469   5.047  20.317   7.917
 2645POPC   C4B35470   5.046  20.560   7.518
 2646POPC   NC335471  44.848   3.134   9.500
 2646POPC   PO435472  44.179   3.409   9.575
 2646POPC   GL135473  44.512   3.445   9.231
 2646POPC   GL235474  44.428   3.157   9.078
 2646POPC   C1A35475  44.679   3.565   8.810
 2646POPC   D2A35476  44.462   3.641   8.407
 2646POPC   C3A35477  44.624   3.633   7.971
 2646POPC   C4A35478  44.911   3.917   7.759
 2646POPC   C1B35479  44.399   3.183   8.638
 2646POPC   C2B35480  44.106   3.263   8.311
 2646POPC   C3B35481  44.119   3.194   7.869
 2646POPC   C4B35482  44.444   3.225   7.595
 2647POPC   NC335483  21.998   8.762   9.550
 2647POPC   PO435484  22.265   9.341   9.643
 2647POPC   GL135485  22.292   9.040   9.218
 2647POPC   GL235486  22.038   8.746   9.057
 2647POPC   C1A35487  22.333   8.975   8.750
 2647POPC   D2A35488  22.335   8.878   8.324
 2647POPC   C3A35489  22.532   9.072   8.021
 2647POPC   C4A35490  22.453   8.913   7.617
 2647POPC   C1B35491  21.866   8.784   8.617
 2647POPC   C2B35492  21.892   9.108   8.282
 2647POPC   C3B35493  22.046   8.996   7.885
 2647POPC   C4B35494  21.996   9.080   7.422
 2648POPC   NC335495  42.557  23.291   9.379
 2648POPC   PO435496  42.293  23.940   9.608
 2648POPC   GL135497  42.375  23.769   9.197
 2648POPC   GL235498  42.120  23.511   9.226
 2648POPC   C1A35499  42.546  23.754   8.747
 2648POPC   D2A35500  42.745  23.635   8.368
 2648POPC   C3A35501  42.473  23.574   8.027
 2648POPC   C4A35502  42.672  23.662   7.654
 2648POPC   C1B35503  42.062  23.604   8.806
 2648POPC   C2B35504  42.170  23.488   8.429
 2648POPC   C3B35505  42.038  23.220   8.140
 2648POPC   C4B35506  41.853  23.421   7.802
 2649POPC   NC335507   4.456  35.065   9.208
 2649POPC   PO435508   4.086  35.633   9.418
 2649POPC   GL135509   4.168  35.488   9.061
 2649POPC   GL235510   4.523  35.568   9.145
 2649POPC   C1A35511   4.266  35.350   8.651
 2649POPC   D2A35512   4.565  35.167   8.409
 2649POPC   C3A35513   4.363  35.170   8.000
 2649POPC   C4A35514   4.332  35.139   7.539
 2649POPC   C1B35515   4.429  35.815   8.780
 2649POPC   C2B35516   4.529  35.729   8.369
 2649POPC   C3B35517   4.466  35.820   7.974
 2649POPC   C4B35518   4.224  35.609   7.660
 2650POPC   NC335519  37.807  21.270   9.610
 2650POPC   PO435520  37.135  21.323   9.392
 2650POPC   GL135521  37.534  21.316   9.155
 2650POPC   GL235522  37.896  21.440   9.127
 2650POPC   C1A35523  37.557  21.363   8.723
 2650POPC   D2A35524  37.455  21.548   8.356
 2650POPC   C3A35525  37.527  21.289   8.012
 2650POPC   C4A35526  37.594  21.588   7.705
 2650POPC   C1B35527  37.967  21.077   8.815
 2650POPC   C2B35528  37.901  20.912   8.369
 2650POPC   C3B35529  37.970  20.947   7.911
 2650POPC   C4B35530  37.846  21.172   7.537
 2651POPC   NC335531  41.756  32.148   9.616
 2651POPC   PO435532  42.547  32.135   9.582
 2651POPC   GL135533  42.459  32.250   9.201
 2651POPC   GL235534  42.109  32.239   9.247
 2651POPC   C1A35535  42.310  32.023   8.834
 2651POPC   D2A35536  42.088  32.056   8.455
 2651POPC   C3A35537  42.286  32.201   8.082
 2651POPC   C4A35538  42.131  31.990   7.704
 2651POPC   C1B35539  42.148  32.510   8.856
 2651POPC   C2B35540  41.894  32.538   8.511
 2651POPC   C3B35541  41.730  32.650   8.121
 2651POPC   C4B35542  42.038  32.515   7.736
 2652POPC   NC335543   6.394   2.586   9.474
 2652POPC   PO435544   6.703   3.261   9.449
 2652POPC   GL135545   6.592   2.979   9.146
 2652POPC   GL235546   6.815   2.677   9.146
 2652POPC   C1A35547   6.717   2.947   8.710
 2652POPC   D2A35548   6.542   2.907   8.292
 2652POPC   C3A35549   6.815   2.782   7.954
 2652POPC   C4A35550   6.826   2.903   7.524
 2652POPC   C1B35551   6.960   2.490   8.741
 2652POPC   C2B35552   6.710   2.389   8.349
 2652POPC   C3B35553   6.376   2.482   8.059
 2652POPC   C4B35554   6.500   2.475   7.659
 2653POPC   NC335555  32.802  21.581   9.443
 2653POPC   PO435556  33.354  21.202   9.595
 2653POPC   GL135557  33.125  21.279   9.163
 2653POPC   GL235558  32.963  21.617   8.978
 2653POPC   C1A35559  33.263  21.327   8.721
 2653POPC   D2A35560  33.038  21.269   8.356
 2653POPC   C3A35561  32.892  21.601   8.109
 2653POPC   C4A35562  33.124  21.558   7.731
 2653POPC   C1B35563  32.729  21.268   8.771
 2653POPC   C2B35564  32.514  21.287   8.378
 2653POPC   C3B35565  32.669  21.152   7.990
 2653POPC   C4B35566  32.712  21.263   7.549
 2654POPC   NC335567  21.177  33.975   9.459
 2654POPC   PO435568  21.575  33.412   9.563
 2654POPC   GL135569  21.541  33.674   9.237
 2654POPC   GL235570  21.794  33.521   9.100
 2654POPC   C1A35571  21.306  33.678   8.840
 2654POPC   D2A35572  21.167  33.515   8.433
 2654POPC   C3A35573  21.266  33.791   8.079
 2654POPC   C4A35574  21.142  33.657   7.684
 2654POPC   C1B35575  21.820  33.830   8.818
 2654POPC   C2B35576  21.629  33.930   8.458
 2654POPC   C3B35577  21.807  33.783   8.092
 2654POPC   C4B35578  21.640  33.718   7.726
 2655POPC   NC335579  10.016  15.388   9.531
 2655POPC   PO435580   9.483  15.047   9.611
 2655POPC   GL135581   9.639  15.212   9.209
 2655POPC   GL235582   9.382  15.476   9.248
 2655POPC   C1A35583   9.855  15.265   8.788
 2655POPC   D2A35584   9.813  15.405   8.342
 2655POPC   C3A35585   9.928  15.182   7.982
 2655POPC   C4A35586   9.999  15.412   7.597
 2655POPC   C1B35587   9.257  15.270   8.859
 2655POPC   C2B35588   9.457  15.100   8.501
 2655POPC   C3B35589   9.383  15.235   8.086
 2655POPC   C4B35590   9.505  15.201   7.689
 2656POPC   NC335591  41.391  29.002   9.563
 2656POPC   PO435592  41.825  29.578   9.434
 2656POPC   GL135593  41.741  29.181   9.168
 2656POPC   GL235594  41.383  29.094   9.065
 2656POPC   C1A35595  41.724  29.241   8.721
 2656POPC   D2A35596  41.985  29.332   8.435
 2656POPC   C3A35597  41.783  29.377   8.106
 2656POPC   C4A35598  41.682  29.062   7.835
 2656POPC   C1B35599  41.204  29.257   8.711
 2656POPC   C2B35600  41.343  29.169   8.336
 2656POPC   C3B35601  41.293  29.349   7.993
 2656POPC   C4B35602  41.262  29.291   7.600
 2657POPC   NC335603   3.145   1.810   9.692
 2657POPC   PO435604   2.476   1.825   9.375
 2657POPC   GL135605   2.829   2.000   9.146
 2657POPC   GL235606   2.703   2.266   9.019
 2657POPC   C1A35607   3.045   2.131   8.679
 2657POPC   D2A35608   3.068   2.342   8.269
 2657POPC   C3A35609   2.953   2.094   7.934
 2657POPC   C4A35610   3.134   1.706   7.755
 2657POPC   C1B35611   2.612   1.892   8.719
 2657POPC   C2B35612   2.753   1.777   8.298
 2657POPC   C3B35613   2.528   1.852   7.910
 2657POPC   C4B35614   2.583   2.131   7.555
 2658POPC   NC335615  26.983   8.501   9.560
 2658POPC   PO435616  27.359   9.061   9.444
 2658POPC   GL135617  27.161   8.855   9.078
 2658POPC   GL235618  26.909   8.663   9.092
 2658POPC   C1A35619  27.014   8.737   8.632
 2658POPC   D2A35620  26.764   8.807   8.306
 2658POPC   C3A35621  26.878   8.862   7.913
 2658POPC   C4A35622  26.632   9.029   7.580
 2658POPC   C1B35623  26.527   8.714   8.787
 2658POPC   C2B35624  26.293   8.662   8.365
 2658POPC   C3B35625  26.376   8.691   7.926
 2658POPC   C4B35626  26.603   8.524   7.581
 2659POPC   NC335627  19.246  11.888   9.697
 2659POPC   PO435628  19.071  12.515   9.693
 2659POPC   GL135629  19.179  12.252   9.279
 2659POPC   GL235630  18.910  12.340   9.014
 2659POPC   C1A35631  19.130  11.897   8.941
 2659POPC   D2A35632  19.013  12.043   8.517
 2659POPC   C3A35633  19.247  11.964   8.119
 2659POPC   C4A35634  19.307  11.802   7.701
 2659POPC   C1B35635  18.690  12.471   8.594
 2659POPC   C2B35636  18.641  12.628   8.148
 2659POPC   C3B35637  18.644  12.407   7.743
 2659POPC   C4B35638  18.888  12.054   7.549
 2660POPC   NC335639  23.225   1.075   9.364
 2660POPC   PO435640  23.734   1.450   9.538
 2660POPC   GL135641  23.812   1.225   9.194
 2660POPC   GL235642  23.942   0.887   9.264
 2660POPC   C1A35643  23.856   1.393   8.814
 2660POPC   D2A35644  23.859   1.218   8.438
 2660POPC   C3A35645  23.591   1.331   8.113
 2660POPC   C4A35646  23.605   1.217   7.686
 2660POPC   C1B35647  23.803   0.833   8.839
 2660POPC   C2B35648  23.864   0.693   8.443
 2660POPC   C3B35649  23.704   0.828   8.049
 2660POPC   C4B35650  23.987   0.703   7.730
 2661POPC   NC335651   0.759  40.234   9.351
 2661POPC   PO435652   1.429  40.040   9.403
 2661POPC   GL135653   1.257  39.814   9.079
 2661POPC   GL235654   0.873  39.819   9.028
 2661POPC   C1A35655   1.208  39.705   8.680
 2661POPC   D2A35656   0.916  39.747   8.336
 2661POPC   C3A35657   1.148  39.815   7.937
 2661POPC   C4A35658   1.599  39.805   7.790
 2661POPC   C1B35659   0.965  40.137   8.691
 2661POPC   C2B35660   1.308  40.086   8.364
 2661POPC   C3B35661   1.461  40.257   7.979
 2661POPC   C4B35662   1.410  40.278   7.502
 2662POPC   NC335663  25.614  10.191   9.533
 2662POPC   PO435664  25.221  10.684   9.536
 2662POPC   GL135665  25.119  10.638   9.129
 2662POPC   GL235666  24.833  10.800   9.132
 2662POPC   C1A35667  25.272  10.572   8.723
 2662POPC   D2A35668  25.442  10.249   8.461
 2662POPC   C3A35669  25.329  10.398   8.064
 2662POPC   C4A35670  25.563  10.446   7.699
 2662POPC   C1B35671  24.983  11.031   8.768
 2662POPC   C2B35672  25.226  10.986   8.384
 2662POPC   C3B35673  25.054  10.819   7.977
 2662POPC   C4B35674  25.096  10.558   7.591
 2663POPC   NC335675   4.197  26.568   9.563
 2663POPC   PO435676   4.579  27.037   9.498
 2663POPC   GL135677   4.634  26.907   9.104
 2663POPC   GL235678   4.526  26.568   9.161
 2663POPC   C1A35679   4.411  27.025   8.750
 2663POPC   D2A35680   4.317  27.177   8.349
 2663POPC   C3A35681   4.542  26.982   8.040
 2663POPC   C4A35682   4.361  26.912   7.650
 2663POPC   C1B35683   4.574  26.426   8.762
 2663POPC   C2B35684   4.453  26.596   8.373
 2663POPC   C3B35685   4.225  26.540   8.005
 2663POPC   C4B35686   4.281  26.406   7.605
 2664POPC   NC335687  37.364   5.298   9.705
 2664POPC   PO435688  37.849   4.879   9.643
 2664POPC   GL135689  37.543   4.984   9.297
 2664POPC   GL235690  37.448   5.381   9.205
 2664POPC   C1A35691  37.555   4.712   8.930
 2664POPC   D2A35692  37.780   4.677   8.533
 2664POPC   C3A35693  37.669   4.848   8.128
 2664POPC   C4A35694  37.689   4.789   7.689
 2664POPC   C1B35695  37.586   5.478   8.777
 2664POPC   C2B35696  37.709   5.296   8.395
 2664POPC   C3B35697  37.597   5.342   7.984
 2664POPC   C4B35698  37.490   5.521   7.569
 2665POPC   NC335699  36.810  30.593   9.520
 2665POPC   PO435700  37.324  31.102   9.401
 2665POPC   GL135701  36.989  30.866   9.138
 2665POPC   GL235702  36.999  30.452   9.084
 2665POPC   C1A35703  36.821  30.762   8.734
 2665POPC   D2A35704  37.028  30.850   8.372
 2665POPC   C3A35705  36.835  30.824   7.997
 2665POPC   C4A35706  37.055  30.961   7.646
 2665POPC   C1B35707  36.761  30.254   8.767
 2665POPC   C2B35708  36.712  30.417   8.337
 2665POPC   C3B35709  36.651  30.335   7.888
 2665POPC   C4B35710  36.887  30.345   7.497
 2666POPC   NC335711  26.146  29.635   9.521
 2666POPC   PO435712  25.979  28.917   9.622
 2666POPC   GL135713  26.034  29.132   9.211
 2666POPC   GL235714  25.710  29.232   8.994
 2666POPC   C1A35715  26.114  29.012   8.775
 2666POPC   D2A35716  26.076  29.208   8.377
 2666POPC   C3A35717  26.289  29.003   8.067
 2666POPC   C4A35718  26.381  29.173   7.671
 2666POPC   C1B35719  25.749  29.529   8.624
 2666POPC   C2B35720  25.757  29.552   8.147
 2666POPC   C3B35721  25.901  29.264   7.816
 2666POPC   C4B35722  25.851  29.379   7.341
 2667POPC   NC335723  26.529  37.635   9.494
 2667POPC   PO435724  27.099  37.297   9.668
 2667POPC   GL135725  26.901  37.403   9.250
 2667POPC   GL235726  27.096  37.562   9.048
 2667POPC   C1A35727  26.612  37.518   8.876
 2667POPC   D2A35728  26.520  37.809   8.559
 2667POPC   C3A35729  26.449  37.658   8.121
 2667POPC   C4A35730  26.708  37.528   7.774
 2667POPC   C1B35731  27.030  37.750   8.663
 2667POPC   C2B35732  26.950  37.652   8.236
 2667POPC   C3B35733  27.200  37.579   7.895
 2667POPC   C4B35734  27.081  37.757   7.521
 2668POPC   NC335735  37.333  20.442   9.647
 2668POPC   PO435736  37.855  20.826   9.770
 2668POPC   GL135737  37.778  20.853   9.280
 2668POPC   GL235738  37.750  20.512   9.187
 2668POPC   C1A35739  37.491  20.867   8.872
 2668POPC   D2A35740  37.455  20.602   8.458
 2668POPC   C3A35741  37.520  20.749   8.021
 2668POPC   C4A35742  37.666  20.686   7.571
 2668POPC   C1B35743  37.876  20.565   8.746
 2668POPC   C2B35744  37.968  20.376   8.341
 2668POPC   C3B35745  37.835  20.335   7.906
 2668POPC   C4B35746  37.741  20.162   7.493
 2669POPC   NC335747  21.070  44.179   9.296
 2669POPC   PO435748  21.451  44.723   9.670
 2669POPC   GL135749  21.295  44.656   9.228
 2669POPC   GL235750  21.094  44.951   9.117
 2669POPC   C1A35751  21.371  44.456   8.779
 2669POPC   D2A35752  21.642  44.564   8.421
 2669POPC   C3A35753  21.462  44.497   8.012
 2669POPC   C4A35754  21.243  44.270   7.676
 2669POPC   C1B35755  21.408  44.965   8.801
 2669POPC   C2B35756  21.252  44.869   8.422
 2669POPC   C3B35757  21.365  44.996   8.057
 2669POPC   C4B35758  21.125  44.786   7.740
 2670POPC   NC335759  27.750  44.391   9.393
 2670POPC   PO435760  27.403  43.934   9.769
 2670POPC   GL135761  27.518  43.865   9.317
 2670POPC   GL235762  27.843  43.934   9.154
 2670POPC   C1A35763  27.432  43.929   8.864
 2670POPC   D2A35764  27.729  43.846   8.518
 2670POPC   C3A35765  27.619  43.841   8.074
 2670POPC   C4A35766  27.682  43.445   7.836
 2670POPC   C1B35767  27.918  44.233   8.776
 2670POPC   C2B35768  27.802  44.318   8.352
 2670POPC   C3B35769  27.863  44.271   7.938
 2670POPC   C4B35770  27.714  44.086   7.590
 2671POPC   NC335771  29.314  35.827   9.762
 2671POPC   PO435772  28.715  35.938   9.628
 2671POPC   GL135773  28.920  36.148   9.242
 2671POPC   GL235774  29.122  35.904   9.109
 2671POPC   C1A35775  29.001  36.279   8.790
 2671POPC   D2A35776  28.981  36.036   8.435
 2671POPC   C3A35777  29.005  36.224   8.058
 2671POPC   C4A35778  29.171  36.366   7.702
 2671POPC   C1B35779  29.358  35.832   8.725
 2671POPC   C2B35780  29.303  35.623   8.351
 2671POPC   C3B35781  29.348  35.715   7.918
 2671POPC   C4B35782  29.346  35.743   7.489
 2672POPC   NC335783  18.774   1.565   9.321
 2672POPC   PO435784  19.154   2.023   9.710
 2672POPC   GL135785  19.046   2.013   9.243
 2672POPC   GL235786  18.901   2.330   9.150
 2672POPC   C1A35787  18.896   1.979   8.781
 2672POPC   D2A35788  19.057   1.818   8.383
 2672POPC   C3A35789  18.902   1.997   8.059
 2672POPC   C4A35790  19.016   2.106   7.696
 2672POPC   C1B35791  19.219   2.410   8.839
 2672POPC   C2B35792  19.116   2.317   8.424
 2672POPC   C3B35793  19.335   2.277   8.068
 2672POPC   C4B35794  19.383   2.476   7.718
 2673POPC   NC335795  22.674   9.119   9.606
 2673POPC   PO435796  23.235   8.842   9.469
 2673POPC   GL135797  23.009   8.914   9.096
 2673POPC   GL235798  23.018   9.265   9.207
 2673POPC   C1A35799  23.156   8.738   8.675
 2673POPC   D2A35800  23.286   8.454   8.349
 2673POPC   C3A35801  23.257   8.635   7.954
 2673POPC   C4A35802  22.897   8.759   7.783
 2673POPC   C1B35803  22.697   9.306   8.898
 2673POPC   C2B35804  22.776   9.065   8.539
 2673POPC   C3B35805  23.019   8.991   8.224
 2673POPC   C4B35806  22.982   9.260   7.901
 2674POPC   NC335807  27.364   7.859   9.644
 2674POPC   PO435808  26.795   8.102   9.708
 2674POPC   GL135809  26.855   8.132   9.243
 2674POPC   GL235810  26.553   8.315   9.167
 2674POPC   C1A35811  26.944   8.248   8.800
 2674POPC   D2A35812  26.652   8.323   8.467
 2674POPC   C3A35813  26.751   8.330   8.023
 2674POPC   C4A35814  27.073   8.187   7.733
 2674POPC   C1B35815  26.462   7.974   8.885
 2674POPC   C2B35816  26.468   7.842   8.459
 2674POPC   C3B35817  26.598   7.795   8.019
 2674POPC   C4B35818  26.574   8.019   7.630
 2675POPC   NC335819  15.148   1.560   9.618
 2675POPC   PO435820  15.313   2.194   9.484
 2675POPC   GL135821  15.235   1.982   9.135
 2675POPC   GL235822  14.950   1.862   9.205
 2675POPC   C1A35823  15.241   1.867   8.718
 2675POPC   D2A35824  15.319   2.071   8.329
 2675POPC   C3A35825  15.522   1.858   8.037
 2675POPC   C4A35826  15.199   1.701   7.834
 2675POPC   C1B35827  14.802   2.143   8.823
 2675POPC   C2B35828  14.861   2.332   8.369
 2675POPC   C3B35829  14.694   2.391   7.927
 2675POPC   C4B35830  14.805   2.276   7.495
 2676POPC   NC335831  11.555  41.912   9.430
 2676POPC   PO435832  11.049  42.340   9.550
 2676POPC   GL135833  11.270  42.289   9.186
 2676POPC   GL235834  10.964  42.103   9.104
 2676POPC   C1A35835  11.513  42.513   8.854
 2676POPC   D2A35836  11.771  42.620   8.480
 2676POPC   C3A35837  11.610  42.460   8.058
 2676POPC   C4A35838  11.218  42.475   7.825
 2676POPC   C1B35839  11.144  42.172   8.709
 2676POPC   C2B35840  11.178  42.360   8.336
 2676POPC   C3B35841  10.896  42.156   8.054
 2676POPC   C4B35842  10.923  42.127   7.589
 2677POPC   NC335843  10.214   8.948   9.315
 2677POPC   PO435844  10.846   8.672   9.383
 2677POPC   GL135845  10.608   8.862   9.009
 2677POPC   GL235846  10.222   8.753   8.862
 2677POPC   C1A35847  10.499   9.111   8.632
 2677POPC   D2A35848  10.330   8.931   8.238
 2677POPC   C3A35849  10.423   9.188   7.899
 2677POPC   C4A35850  10.822   9.424   7.900
 2677POPC   C1B35851  10.532   8.600   8.581
 2677POPC   C2B35852  10.803   8.523   8.247
 2677POPC   C3B35853  10.694   8.737   7.888
 2677POPC   C4B35854  10.285   8.708   7.669
 2678POPC   NC335855  36.573  22.028   9.382
 2678POPC   PO435856  37.047  22.353   9.324
 2678POPC   GL135857  36.979  21.986   9.046
 2678POPC   GL235858  36.630  21.957   8.881
 2678POPC   C1A35859  37.048  21.799   8.635
 2678POPC   D2A35860  36.711  21.890   8.328
 2678POPC   C3A35861  36.841  22.154   7.970
 2678POPC   C4A35862  37.056  22.035   7.582
 2678POPC   C1B35863  36.868  22.303   8.657
 2678POPC   C2B35864  37.062  22.466   8.283
 2678POPC   C3B35865  36.856  22.672   7.888
 2678POPC   C4B35866  36.782  22.440   7.512
 2679POPC   NC335867   0.555   2.427   9.514
 2679POPC   PO435868   0.286   3.050   9.359
 2679POPC   GL135869   0.389   2.694   9.090
 2679POPC   GL235870   0.740   2.661   9.106
 2679POPC   C1A35871   0.505   2.554   8.663
 2679POPC   D2A35872   0.188   2.700   8.392
 2679POPC   C3A35873   0.209   2.797   7.952
 2679POPC   C4A35874   0.269   2.679   7.470
 2679POPC   C1B35875   1.012   2.370   8.862
 2679POPC   C2B35876   0.963   2.293   8.413
 2679POPC   C3B35877   0.622   2.485   8.145
 2679POPC   C4B35878   0.669   2.730   7.781
 2680POPC   NC335879   8.551   8.392   9.411
 2680POPC   PO435880   7.822   8.451   9.427
 2680POPC   GL135881   8.144   8.361   9.095
 2680POPC   GL235882   8.393   8.632   8.957
 2680POPC   C1A35883   8.053   8.179   8.693
 2680POPC   D2A35884   7.795   8.266   8.353
 2680POPC   C3A35885   8.034   8.281   8.006
 2680POPC   C4A35886   8.182   7.903   7.960
 2680POPC   C1B35887   8.538   8.330   8.732
 2680POPC   C2B35888   8.464   8.212   8.341
 2680POPC   C3B35889   8.530   8.386   7.977
 2680POPC   C4B35890   8.599   8.654   7.676
 2681POPC   NC335891  19.281  15.423   9.572
 2681POPC   PO435892  19.197  14.805   9.320
 2681POPC   GL135893  19.207  15.181   9.122
 2681POPC   GL235894  18.896  15.323   9.213
 2681POPC   C1A35895  19.076  15.268   8.716
 2681POPC   D2A35896  18.978  15.155   8.318
 2681POPC   C3A35897  19.194  15.281   7.987
 2681POPC   C4A35898  19.251  14.996   7.653
 2681POPC   C1B35899  18.566  15.466   8.912
 2681POPC   C2B35900  18.540  15.344   8.467
 2681POPC   C3B35901  18.666  15.513   8.067
 2681POPC   C4B35902  18.772  15.260   7.705
 2682POPC   NC335903  24.205  43.365   9.494
 2682POPC   PO435904  24.756  43.022   9.550
 2682POPC   GL135905  24.485  43.033   9.169
 2682POPC   GL235906  24.265  43.275   9.004
 2682POPC   C1A35907  24.622  43.019   8.743
 2682POPC   D2A35908  24.622  42.873   8.360
 2682POPC   C3A35909  24.619  43.168   8.084
 2682POPC   C4A35910  24.664  42.937   7.733
 2682POPC   C1B35911  24.068  43.527   8.679
 2682POPC   C2B35912  24.166  43.669   8.288
 2682POPC   C3B35913  24.040  43.493   7.919
 2682POPC   C4B35914  24.315  43.298   7.650
 2683POPC   NC335915  25.009   1.821   9.443
 2683POPC   PO435916  24.900   2.488   9.498
 2683POPC   GL135917  25.265   2.170   9.152
 2683POPC   GL235918  25.251   1.815   9.024
 2683POPC   C1A35919  25.528   1.989   8.677
 2683POPC   D2A35920  25.479   1.818   8.235
 2683POPC   C3A35921  25.450   2.108   7.880
 2683POPC   C4A35922  25.149   2.452   7.884
 2683POPC   C1B35923  25.095   1.623   8.658
 2683POPC   C2B35924  24.978   1.497   8.248
 2683POPC   C3B35925  25.197   1.569   7.849
 2683POPC   C4B35926  25.214   1.836   7.464
 2684POPC   NC335927  29.433  44.909   9.553
 2684POPC   PO435928  28.840  44.649   9.609
 2684POPC   GL135929  28.930  44.744   9.187
 2684POPC   GL235930  29.258  44.857   9.089
 2684POPC   C1A35931  28.899  44.643   8.755
 2684POPC   D2A35932  29.241  44.523   8.510
 2684POPC   C3A35933  29.146  44.564   8.105
 2684POPC   C4A35934  29.298  44.423   7.739
 2684POPC   C1B35935  29.348  45.000   8.710
 2684POPC   C2B35936  29.198   0.032   8.319
 2684POPC   C3B35937  29.426  44.971   7.938
 2684POPC   C4B35938  29.604   0.003   7.532
 2685POPC   NC335939  17.975  15.149   9.754
 2685POPC   PO435940  17.416  14.958   9.341
 2685POPC   GL135941  17.599  15.259   9.075
 2685POPC   GL235942  17.652  14.963   8.827
 2685POPC   C1A35943  17.680  15.456   8.689
 2685POPC   D2A35944  17.491  15.310   8.318
 2685POPC   C3A35945  17.668  15.250   7.921
 2685POPC   C4A35946  17.754  14.893   7.682
 2685POPC   C1B35947  17.216  15.147   8.740
 2685POPC   C2B35948  17.003  15.408   8.428
 2685POPC   C3B35949  17.054  15.225   8.040
 2685POPC   C4B35950  17.238  15.443   7.697
 2686POPC   NC335951  12.651  21.998   9.620
 2686POPC   PO435952  13.339  22.117   9.532
 2686POPC   GL135953  13.001  22.034   9.243
 2686POPC   GL235954  12.957  22.387   9.175
 2686POPC   C1A35955  12.922  22.075   8.786
 2686POPC   D2A35956  12.917  21.882   8.377
 2686POPC   C3A35957  12.554  21.923   8.117
 2686POPC   C4A35958  12.684  21.806   7.713
 2686POPC   C1B35959  12.833  22.604   8.791
 2686POPC   C2B35960  12.734  22.407   8.416
 2686POPC   C3B35961  12.795  22.350   7.991
 2686POPC   C4B35962  12.497  22.283   7.665
 2687POPC   NC335963   8.484  26.807   9.609
 2687POPC   PO435964   7.814  27.032   9.528
 2687POPC   GL135965   8.057  27.133   9.159
 2687POPC   GL235966   8.396  26.998   9.118
 2687POPC   C1A35967   8.113  27.112   8.705
 2687POPC   D2A35968   8.167  26.843   8.321
 2687POPC   C3A35969   8.131  27.071   7.931
 2687POPC   C4A35970   7.786  27.281   7.687
 2687POPC   C1B35971   8.251  26.628   8.807
 2687POPC   C2B35972   8.034  26.358   8.469
 2687POPC   C3B35973   8.242  26.318   8.051
 2687POPC   C4B35974   8.434  26.503   7.656
 2688POPC   NC335975  21.888  39.483   9.482
 2688POPC   PO435976  22.328  38.999   9.514
 2688POPC   GL135977  22.074  39.117   9.162
 2688POPC   GL235978  22.157  39.462   9.061
 2688POPC   C1A35979  21.950  39.046   8.739
 2688POPC   D2A35980  22.175  38.963   8.359
 2688POPC   C3A35981  22.181  39.165   7.982
 2688POPC   C4A35982  22.406  38.914   7.708
 2688POPC   C1B35983  21.856  39.530   8.746
 2688POPC   C2B35984  21.729  39.305   8.342
 2688POPC   C3B35985  21.805  39.574   7.999
 2688POPC   C4B35986  21.985  39.527   7.604
 2689POPC   NC335987  11.000  34.634   9.523
 2689POPC   PO435988  10.444  34.964   9.527
 2689POPC   GL135989  10.441  34.722   9.177
 2689POPC   GL235990  10.785  34.743   9.069
 2689POPC   C1A35991  10.364  34.799   8.755
 2689POPC   D2A35992  10.115  34.712   8.404
 2689POPC   C3A35993  10.359  34.728   8.055
 2689POPC   C4A35994  10.376  34.385   7.856
 2689POPC   C1B35995  10.815  34.458   8.715
 2689POPC   C2B35996  10.743  34.356   8.252
 2689POPC   C3B35997  10.865  34.301   7.785
 2689POPC   C4B35998  10.862  34.582   7.396
 2690POPC   NC335999  43.510  40.528   9.448
 2690POPC   PO436000  44.123  40.747   9.551
 2690POPC   GL136001  43.892  40.768   9.219
 2690POPC   GL236002  43.952  40.422   9.144
 2690POPC   C1A36003  43.688  41.036   8.935
 2690POPC   D2A36004  43.798  41.075   8.501
 2690POPC   C3A36005  43.741  41.042   8.057
 2690POPC   C4A36006  44.007  40.957   7.685
 2690POPC   C1B36007  43.889  40.606   8.739
 2690POPC   C2B36008  43.837  40.601   8.332
 2690POPC   C3B36009  43.854  40.533   7.937
 2690POPC   C4B36010  43.538  40.280   7.763
 2691POPC   NC336011  27.857  11.374   9.605
 2691POPC   PO436012  27.332  10.911   9.441
 2691POPC   GL136013  27.581  11.218   9.168
 2691POPC   GL236014  27.462  11.556   9.165
 2691POPC   C1A36015  27.818  11.257   8.736
 2691POPC   D2A36016  27.840  11.492   8.343
 2691POPC   C3A36017  27.827  11.226   7.989
 2691POPC   C4A36018  27.505  10.941   7.799
 2691POPC   C1B36019  27.320  11.379   8.745
 2691POPC   C2B36020  27.115  11.397   8.366
 2691POPC   C3B36021  27.358  11.435   7.989
 2691POPC   C4B36022  27.727  11.739   7.885
 2692POPC   NC336023   5.300   7.348   9.641
 2692POPC   PO436024   4.811   7.729   9.684
 2692POPC   GL136025   4.908   7.591   9.191
 2692POPC   GL236026   5.212   7.384   9.146
 2692POPC   C1A36027   5.089   7.609   8.712
 2692POPC   D2A36028   5.269   7.413   8.312
 2692POPC   C3A36029   5.121   7.630   7.931
 2692POPC   C4A36030   4.686   7.635   7.849
 2692POPC   C1B36031   4.990   7.124   8.835
 2692POPC   C2B36032   4.947   7.006   8.414
 2692POPC   C3B36033   4.926   7.158   7.992
 2692POPC   C4B36034   5.249   7.041   7.714
 2693POPC   NC336035   0.218   5.601   9.467
 2693POPC   PO436036   0.502   6.090   9.695
 2693POPC   GL136037   0.462   6.032   9.268
 2693POPC   GL236038   0.663   5.759   9.237
 2693POPC   C1A36039   0.325   5.921   8.863
 2693POPC   D2A36040   0.074   6.013   8.526
 2693POPC   C3A36041   0.311   5.971   8.149
 2693POPC   C4A36042   0.387   5.835   7.756
 2693POPC   C1B36043   0.854   5.819   8.856
 2693POPC   C2B36044   0.649   5.796   8.477
 2693POPC   C3B36045   0.689   5.595   8.081
 2693POPC   C4B36046   0.618   5.367   7.704
 2694POPC   NC336047   9.681   7.330   9.883
 2694POPC   PO436048  10.078   7.366   9.379
 2694POPC   GL136049  10.019   7.446   8.977
 2694POPC   GL236050   9.707   7.645   8.941
 2694POPC   C1A36051   9.982   7.399   8.568
 2694POPC   D2A36052   9.791   7.354   8.184
 2694POPC   C3A36053   9.632   7.714   8.004
 2694POPC   C4A36054   9.892   7.792   7.649
 2694POPC   C1B36055   9.493   7.334   8.645
 2694POPC   C2B36056   9.251   7.176   8.340
 2694POPC   C3B36057   9.250   7.228   7.894
 2694POPC   C4B36058   9.613   7.342   7.659
 2695POPC   NC336059  24.788  10.742   9.656
 2695POPC   PO436060  24.273  10.390   9.660
 2695POPC   GL136061  24.496  10.455   9.280
 2695POPC   GL236062  24.556  10.129   9.237
 2695POPC   C1A36063  24.756  10.411   8.849
 2695POPC   D2A36064  24.821  10.671   8.460
 2695POPC   C3A36065  24.609  10.614   8.072
 2695POPC   C4A36066  24.796  10.294   7.898
 2695POPC   C1B36067  24.274  10.269   8.871
 2695POPC   C2B36068  24.419  10.334   8.475
 2695POPC   C3B36069  24.342  10.184   8.105
 2695POPC   C4B36070  24.283  10.277   7.687
 2696POPC   NC336071   6.141  15.249   9.335
 2696POPC   PO436072   5.403  15.455   9.362
 2696POPC   GL136073   5.686  15.326   9.102
 2696POPC   GL236074   5.614  15.048   8.982
 2696POPC   C1A36075   5.901  15.451   8.733
 2696POPC   D2A36076   6.114  15.352   8.325
 2696POPC   C3A36077   5.889  15.439   7.951
 2696POPC   C4A36078   5.539  15.249   7.750
 2696POPC   C1B36079   6.001  14.955   8.772
 2696POPC   C2B36080   5.944  14.837   8.379
 2696POPC   C3B36081   5.817  14.894   7.979
 2696POPC   C4B36082   6.025  14.755   7.629
 2697POPC   NC336083   7.544  15.352   9.394
 2697POPC   PO436084   6.996  15.014   9.478
 2697POPC   GL136085   7.229  15.138   9.082
 2697POPC   GL236086   7.625  15.054   8.958
 2697POPC   C1A36087   7.276  15.224   8.648
 2697POPC   D2A36088   7.636  15.062   8.451
 2697POPC   C3A36089   7.650  15.215   8.065
 2697POPC   C4A36090   7.227  15.165   7.895
 2697POPC   C1B36091   7.716  15.467   8.749
 2697POPC   C2B36092   7.457  15.611   8.371
 2697POPC   C3B36093   7.344  15.659   7.923
 2697POPC   C4B36094   7.759  15.699   7.786
 2698POPC   NC336095  39.295  27.323   9.445
 2698POPC   PO436096  39.148  28.024   9.518
 2698POPC   GL136097  39.333  27.787   9.192
 2698POPC   GL236098  39.025  27.669   9.121
 2698POPC   C1A36099  39.358  27.602   8.747
 2698POPC   D2A36100  39.231  27.626   8.287
 2698POPC   C3A36101  39.472  27.406   7.947
 2698POPC   C4A36102  39.336  27.354   7.522
 2698POPC   C1B36103  38.857  27.446   8.742
 2698POPC   C2B36104  38.726  27.422   8.295
 2698POPC   C3B36105  38.914  27.335   7.906
 2698POPC   C4B36106  39.077  27.700   7.775
 2699POPC   NC336107  19.580  34.250   9.408
 2699POPC   PO436108  20.125  34.471   9.721
 2699POPC   GL136109  19.983  34.606   9.275
 2699POPC   GL236110  20.175  34.824   9.066
 2699POPC   C1A36111  19.716  34.575   8.867
 2699POPC   D2A36112  19.612  34.736   8.455
 2699POPC   C3A36113  19.560  34.470   8.109
 2699POPC   C4A36114  19.602  34.533   7.683
 2699POPC   C1B36115  20.196  34.447   8.808
 2699POPC   C2B36116  19.933  34.272   8.459
 2699POPC   C3B36117  20.030  34.264   8.022
 2699POPC   C4B36118  20.149  34.508   7.676
 2700POPC   NC336119  14.936  18.700   9.229
 2700POPC   PO436120  14.858  17.993   9.426
 2700POPC   GL136121  14.959  18.184   9.061
 2700POPC   GL236122  15.265  18.326   9.061
 2700POPC   C1A36123  15.018  18.142   8.635
 2700POPC   D2A36124  15.115  18.000   8.232
 2700POPC   C3A36125  15.015  18.210   7.828
 2700POPC   C4A36126  14.955  18.650   7.714
 2700POPC   C1B36127  15.276  18.571   8.694
 2700POPC   C2B36128  15.089  18.553   8.261
 2700POPC   C3B36129  15.402  18.647   7.942
 2700POPC   C4B36130  15.454  18.594   7.502
 2701POPC   NC336131  16.796  13.014   9.552
 2701POPC   PO436132  16.506  12.433   9.450
 2701POPC   GL136133  16.558  12.781   9.146
 2701POPC   GL236134  16.921  12.984   9.069
 2701POPC   C1A36135  16.432  12.931   8.746
 2701POPC   D2A36136  16.691  12.969   8.386
 2701POPC   C3A36137  16.490  12.866   8.003
 2701POPC   C4A36138  16.706  12.927   7.655
 2701POPC   C1B36139  16.882  12.668   8.763
 2701POPC   C2B36140  16.995  12.496   8.381
 2701POPC   C3B36141  16.973  12.688   8.020
 2701POPC   C4B36142  17.209  12.763   7.677
 2702POPC   NC336143  29.819  37.343   9.730
 2702POPC   PO436144  30.161  37.865   9.542
 2702POPC   GL136145  30.068  37.572   9.214
 2702POPC   GL236146  29.743  37.404   9.214
 2702POPC   C1A36147  29.876  37.753   8.843
 2702POPC   D2A36148  29.993  37.931   8.444
 2702POPC   C3A36149  29.643  38.007   8.147
 2702POPC   C4A36150  29.892  37.752   7.890
 2702POPC   C1B36151  29.507  37.398   8.820
 2702POPC   C2B36152  29.596  37.581   8.431
 2702POPC   C3B36153  29.474  37.484   8.016
 2702POPC   C4B36154  29.780  37.282   7.743
 2703POPC   NC336155  15.868  21.520   9.540
 2703POPC   PO436156  16.369  21.110   9.358
 2703POPC   GL136157  16.104  21.324   9.101
 2703POPC   GL236158  16.140  21.665   9.135
 2703POPC   C1A36159  16.147  21.193   8.687
 2703POPC   D2A36160  16.182  21.338   8.290
 2703POPC   C3A36161  15.798  21.204   8.106
 2703POPC   C4A36162  15.718  21.236   7.674
 2703POPC   C1B36163  16.114  21.713   8.700
 2703POPC   C2B36164  15.839  21.716   8.344
 2703POPC   C3B36165  15.904  21.672   7.908
 2703POPC   C4B36166  15.743  21.726   7.494
 2704POPC   NC336167  19.688  43.119   9.570
 2704POPC   PO436168  20.386  43.090   9.614
 2704POPC   GL136169  20.041  43.087   9.216
 2704POPC   GL236170  19.859  43.379   9.120
 2704POPC   C1A36171  19.774  43.020   8.792
 2704POPC   D2A36172  19.679  42.734   8.475
 2704POPC   C3A36173  19.527  42.950   8.146
 2704POPC   C4A36174  19.644  43.125   7.797
 2704POPC   C1B36175  19.848  43.516   8.678
 2704POPC   C2B36176  19.739  43.415   8.234
 2704POPC   C3B36177  19.726  43.626   7.826
 2704POPC   C4B36178  20.009  43.350   7.540
 2705POPC   NC336179  22.660   0.828   9.446
 2705POPC   PO436180  23.011   1.478   9.431
 2705POPC   GL136181  22.749   1.494   9.083
 2705POPC   GL236182  22.751   1.131   9.031
 2705POPC   C1A36183  22.857   1.480   8.648
 2705POPC   D2A36184  22.774   1.179   8.301
 2705POPC   C3A36185  23.096   1.109   7.982
 2705POPC   C4A36186  23.181   1.485   7.802
 2705POPC   C1B36187  22.550   0.909   8.679
 2705POPC   C2B36188  22.419   0.825   8.222
 2705POPC   C3B36189  22.694   0.801   7.865
 2705POPC   C4B36190  22.592   0.725   7.425
 2706POPC   NC336191   9.581   0.938   9.509
 2706POPC   PO436192  10.090   1.361   9.561
 2706POPC   GL136193   9.844   1.324   9.190
 2706POPC   GL236194   9.756   1.032   9.063
 2706POPC   C1A36195   9.833   1.428   8.744
 2706POPC   D2A36196   9.871   1.722   8.428
 2706POPC   C3A36197   9.960   1.550   8.057
 2706POPC   C4A36198   9.758   1.189   7.897
 2706POPC   C1B36199   9.659   0.801   8.718
 2706POPC   C2B36200   9.780   0.734   8.314
 2706POPC   C3B36201   9.497   0.766   8.003
 2706POPC   C4B36202   9.305   0.978   7.722
 2707POPC   NC336203  14.326  21.131   9.487
 2707POPC   PO436204  14.806  21.531   9.323
 2707POPC   GL136205  14.471  21.422   9.042
 2707POPC   GL236206  14.140  21.498   9.160
 2707POPC   C1A36207  14.230  21.617   8.688
 2707POPC   D2A36208  14.015  21.587   8.312
 2707POPC   C3A36209  14.378  21.578   8.074
 2707POPC   C4A36210  14.585  21.299   7.763
 2707POPC   C1B36211  14.103  21.117   8.856
 2707POPC   C2B36212  14.274  21.114   8.457
 2707POPC   C3B36213  14.106  21.138   8.074
 2707POPC   C4B36214  14.072  21.391   7.710
 2708POPC   NC336215  27.559  29.982   9.685
 2708POPC   PO436216  27.529  29.550   9.161
 2708POPC   GL136217  27.407  29.801   8.915
 2708POPC   GL236218  27.431  30.082   9.138
 2708POPC   C1A36219  27.402  29.753   8.493
 2708POPC   D2A36220  27.764  29.757   8.248
 2708POPC   C3A36221  27.643  29.873   7.849
 2708POPC   C4A36222  27.873  29.969   7.490
 2708POPC   C1B36223  27.571  30.213   8.683
 2708POPC   C2B36224  27.491  30.190   8.229
 2708POPC   C3B36225  27.490  30.341   7.799
 2708POPC   C4B36226  27.389  30.104   7.404
 2709POPC   NC336227  43.795  31.984   9.425
 2709POPC   PO436228  43.482  32.641   9.316
 2709POPC   GL136229  43.802  32.372   9.074
 2709POPC   GL236230  43.687  32.060   8.934
 2709POPC   C1A36231  44.057  32.322   8.728
 2709POPC   D2A36232  44.207  32.373   8.322
 2709POPC   C3A36233  44.193  32.077   8.024
 2709POPC   C4A36234  44.196  32.307   7.674
 2709POPC   C1B36235  43.442  32.388   8.731
 2709POPC   C2B36236  43.452  32.385   8.354
 2709POPC   C3B36237  43.759  32.389   8.065
 2709POPC   C4B36238  43.691  32.266   7.668
 2710POPC   NC336239  31.301  36.966   9.445
 2710POPC   PO436240  32.002  36.838   9.507
 2710POPC   GL136241  31.752  36.864   9.136
 2710POPC   GL236242  31.399  36.800   8.995
 2710POPC   C1A36243  31.723  37.090   8.759
 2710POPC   D2A36244  31.433  36.961   8.451
 2710POPC   C3A36245  31.673  36.780   8.112
 2710POPC   C4A36246  31.766  37.120   7.907
 2710POPC   C1B36247  31.064  37.074   8.800
 2710POPC   C2B36248  30.891  36.927   8.410
 2710POPC   C3B36249  31.139  36.717   8.106
 2710POPC   C4B36250  31.325  36.876   7.758
 2711POPC   NC336251  34.821  28.206   9.538
 2711POPC   PO436252  34.250  28.427   9.577
 2711POPC   GL136253  34.428  28.471   9.177
 2711POPC   GL236254  34.138  28.311   8.982
 2711POPC   C1A36255  34.626  28.349   8.787
 2711POPC   D2A36256  34.393  28.292   8.404
 2711POPC   C3A36257  34.611  28.337   8.018
 2711POPC   C4A36258  34.654  28.564   7.607
 2711POPC   C1B36259  34.255  28.714   8.761
 2711POPC   C2B36260  34.403  28.846   8.360
 2711POPC   C3B36261  34.288  28.735   7.946
 2711POPC   C4B36262  34.203  28.357   7.704
 2712POPC   NC336263  10.799  27.111   9.634
 2712POPC   PO436264  10.357  26.639   9.754
 2712POPC   GL136265  10.464  26.675   9.295
 2712POPC   GL236266  10.648  26.447   9.154
 2712POPC   C1A36267  10.538  26.872   8.858
 2712POPC   D2A36268  10.832  26.897   8.490
 2712POPC   C3A36269  10.616  26.968   8.126
 2712POPC   C4A36270  10.592  27.047   7.721
 2712POPC   C1B36271  10.534  26.376   8.712
 2712POPC   C2B36272  10.457  26.534   8.323
 2712POPC   C3B36273  10.354  26.587   7.898
 2712POPC   C4B36274  10.598  26.430   7.544
 2713POPC   NC336275  42.588  11.177   9.601
 2713POPC   PO436276  41.971  11.378   9.499
 2713POPC   GL136277  42.181  11.296   9.091
 2713POPC   GL236278  42.541  11.339   9.087
 2713POPC   C1A36279  42.227  11.271   8.637
 2713POPC   D2A36280  42.040  11.478   8.282
 2713POPC   C3A36281  42.153  11.277   7.911
 2713POPC   C4A36282  42.315  11.222   7.511
 2713POPC   C1B36283  42.739  11.256   8.667
 2713POPC   C2B36284  42.567  11.272   8.249
 2713POPC   C3B36285  42.704  11.178   7.848
 2713POPC   C4B36286  42.794  11.041   7.421
 2714POPC   NC336287  34.107  32.307   9.540
 2714POPC   PO436288  34.709  31.959   9.577
 2714POPC   GL136289  34.555  32.233   9.237
 2714POPC   GL236290  34.284  32.064   9.120
 2714POPC   C1A36291  34.452  32.485   8.811
 2714POPC   D2A36292  34.615  32.658   8.386
 2714POPC   C3A36293  34.421  32.538   7.984
 2714POPC   C4A36294  34.295  32.458   7.539
 2714POPC   C1B36295  34.611  31.995   8.775
 2714POPC   C2B36296  34.705  32.139   8.369
 2714POPC   C3B36297  34.538  32.039   7.990
 2714POPC   C4B36298  34.714  32.225   7.651
 2715POPC   NC336299  20.613  37.926   9.635
 2715POPC   PO436300  20.269  37.461   9.465
 2715POPC   GL136301  20.499  37.594   9.115
 2715POPC   GL236302  20.769  37.814   9.161
 2715POPC   C1A36303  20.663  37.572   8.696
 2715POPC   D2A36304  20.825  37.633   8.266
 2715POPC   C3A36305  20.542  37.812   7.955
 2715POPC   C4A36306  20.150  37.720   7.742
 2715POPC   C1B36307  21.044  37.910   8.808
 2715POPC   C2B36308  21.005  38.087   8.421
 2715POPC   C3B36309  21.022  38.050   7.991
 2715POPC   C4B36310  20.965  37.869   7.604
 2716POPC   NC336311   2.882  32.705   9.512
 2716POPC   PO436312   3.070  33.378   9.635
 2716POPC   GL136313   2.852  33.248   9.190
 2716POPC   GL236314   2.745  32.888   9.081
 2716POPC   C1A36315   2.870  33.206   8.737
 2716POPC   D2A36316   3.019  33.127   8.378
 2716POPC   C3A36317   2.763  33.335   8.035
 2716POPC   C4A36318   2.782  33.353   7.576
 2716POPC   C1B36319   2.809  32.644   8.751
 2716POPC   C2B36320   2.790  32.618   8.317
 2716POPC   C3B36321   2.958  32.852   7.969
 2716POPC   C4B36322   2.652  32.899   7.725
 2717POPC   NC336323   5.501  20.130   9.451
 2717POPC   PO436324   5.665  19.465   9.515
 2717POPC   GL136325   5.930  19.637   9.171
 2717POPC   GL236326   5.961  19.982   9.060
 2717POPC   C1A36327   6.003  19.592   8.730
 2717POPC   D2A36328   5.735  19.650   8.373
 2717POPC   C3A36329   5.911  19.732   7.990
 2717POPC   C4A36330   5.610  19.860   7.706
 2717POPC   C1B36331   5.712  20.065   8.713
 2717POPC   C2B36332   5.985  20.130   8.366
 2717POPC   C3B36333   6.221  20.168   8.000
 2717POPC   C4B36334   6.012  20.169   7.609
 2718POPC   NC336335  14.488  35.444   9.670
 2718POPC   PO436336  14.396  34.908   9.823
 2718POPC   GL136337  14.341  35.131   9.306
 2718POPC   GL236338  14.251  35.474   9.216
 2718POPC   C1A36339  14.303  35.074   8.835
 2718POPC   D2A36340  14.478  35.149   8.402
 2718POPC   C3A36341  14.438  34.994   7.976
 2718POPC   C4A36342  14.480  35.353   7.746
 2718POPC   C1B36343  13.907  35.524   8.924
 2718POPC   C2B36344  13.861  35.631   8.479
 2718POPC   C3B36345  14.095  35.502   8.105
 2718POPC   C4B36346  14.074  35.648   7.663
 2719POPC   NC336347  24.498   0.313   9.676
 2719POPC   PO436348  24.559   0.970   9.633
 2719POPC   GL136349  24.426   0.697   9.261
 2719POPC   GL236350  24.576   0.353   9.173
 2719POPC   C1A36351  24.262   0.562   8.840
 2719POPC   D2A36352  24.504   0.506   8.496
 2719POPC   C3A36353  24.308   0.574   8.114
 2719POPC   C4A36354  24.517   0.509   7.732
 2719POPC   C1B36355  24.848   0.216   8.817
 2719POPC   C2B36356  24.981  44.990   8.426
 2719POPC   C3B36357  24.990   0.108   8.009
 2719POPC   C4B36358  24.707   0.037   7.654
 2720POPC   NC336359  19.609   6.756   9.513
 2720POPC   PO436360  20.177   6.413   9.532
 2720POPC   GL136361  20.010   6.342   9.106
 2720POPC   GL236362  19.667   6.462   9.055
 2720POPC   C1A36363  19.956   6.369   8.640
 2720POPC   D2A36364  19.853   6.577   8.247
 2720POPC   C3A36365  19.823   6.317   7.915
 2720POPC   C4A36366  19.422   6.122   7.781
 2720POPC   C1B36367  19.468   6.509   8.604
 2720POPC   C2B36368  19.128   6.581   8.280
 2720POPC   C3B36369  19.235   6.790   7.880
 2720POPC   C4B36370  19.623   6.699   7.669
 2721POPC   NC336371  25.006   6.891   9.622
 2721POPC   PO436372  24.328   6.674   9.570
 2721POPC   GL136373  24.373   6.718   9.168
 2721POPC   GL236374  24.733   6.655   9.188
 2721POPC   C1A36375  24.352   6.848   8.745
 2721POPC   D2A36376  24.238   6.967   8.330
 2721POPC   C3A36377  24.270   6.672   8.028
 2721POPC   C4A36378  24.122   6.327   7.850
 2721POPC   C1B36379  24.704   6.462   8.752
 2721POPC   C2B36380  24.685   6.510   8.284
 2721POPC   C3B36381  24.634   6.260   7.882
 2721POPC   C4B36382  24.867   6.340   7.488
 2722POPC   NC336383  15.535   9.597   9.556
 2722POPC   PO436384  15.114  10.139   9.536
 2722POPC   GL136385  15.277   9.910   9.176
 2722POPC   GL236386  15.269   9.549   9.095
 2722POPC   C1A36387  15.191   9.909   8.742
 2722POPC   D2A36388  15.384  10.023   8.408
 2722POPC   C3A36389  15.170   9.993   8.071
 2722POPC   C4A36390  15.306  10.124   7.682
 2722POPC   C1B36391  15.009   9.424   8.739
 2722POPC   C2B36392  15.146   9.523   8.318
 2722POPC   C3B36393  15.355   9.538   7.897
 2722POPC   C4B36394  15.216   9.629   7.458
 2723POPC   NC336395  34.171   6.834   9.377
 2723POPC   PO436396  34.857   6.643   9.374
 2723POPC   GL136397  34.546   6.597   9.065
 2723POPC   GL236398  34.283   6.361   9.158
 2723POPC   C1A36399  34.539   6.342   8.695
 2723POPC   D2A36400  34.687   6.448   8.298
 2723POPC   C3A36401  34.639   6.777   8.028
 2723POPC   C4A36402  34.733   6.530   7.676
 2723POPC   C1B36403  34.092   6.577   8.784
 2723POPC   C2B36404  34.115   6.393   8.387
 2723POPC   C3B36405  34.292   6.346   8.002
 2723POPC   C4B36406  34.229   6.610   7.689
 2724POPC   NC336407  10.822  26.539   9.626
 2724POPC   PO436408  10.280  26.112   9.558
 2724POPC   GL136409  10.417  26.015   9.116
 2724POPC   GL236410  10.780  25.955   9.229
 2724POPC   C1A36411  10.330  25.907   8.654
 2724POPC   D2A36412  10.611  26.028   8.281
 2724POPC   C3A36413  10.474  26.042   7.860
 2724POPC   C4A36414  10.103  26.209   7.696
 2724POPC   C1B36415  10.813  25.962   8.771
 2724POPC   C2B36416  10.737  25.594   8.507
 2724POPC   C3B36417  10.828  25.563   8.085
 2724POPC   C4B36418  10.966  25.878   7.802
 2725POPC   NC336419   6.343  13.470   9.588
 2725POPC   PO436420   5.796  13.960   9.548
 2725POPC   GL136421   5.998  13.732   9.243
 2725POPC   GL236422   6.287  13.927   9.338
 2725POPC   C1A36423   5.937  13.611   8.812
 2725POPC   D2A36424   5.796  13.600   8.391
 2725POPC   C3A36425   6.027  13.491   7.997
 2725POPC   C4A36426   6.106  13.445   7.560
 2725POPC   C1B36427   6.346  13.901   8.889
 2725POPC   C2B36428   6.144  14.001   8.513
 2725POPC   C3B36429   6.006  13.990   8.091
 2725POPC   C4B36430   5.854  13.871   7.683
 2726POPC   NC336431  35.866  31.741   9.777
 2726POPC   PO436432  36.177  32.185   9.283
 2726POPC   GL136433  36.348  32.514   9.034
 2726POPC   GL236434  36.620  32.381   8.822
 2726POPC   C1A36435  36.083  32.512   8.691
 2726POPC   D2A36436  35.825  32.152   8.555
 2726POPC   C3A36437  35.854  32.196   8.127
 2726POPC   C4A36438  35.975  32.428   7.715
 2726POPC   C1B36439  36.346  32.036   8.673
 2726POPC   C2B36440  36.218  31.847   8.280
 2726POPC   C3B36441  36.327  32.122   7.949
 2726POPC   C4B36442  36.581  32.438   7.700
 2727POPC   NC336443   7.575  29.015   9.529
 2727POPC   PO436444   7.763  29.613   9.359
 2727POPC   GL136445   7.510  29.336   9.122
 2727POPC   GL236446   7.164  29.460   9.033
 2727POPC   C1A36447   7.535  29.026   8.807
 2727POPC   D2A36448   7.727  29.109   8.398
 2727POPC   C3A36449   7.569  28.904   8.055
 2727POPC   C4A36450   7.914  28.926   7.749
 2727POPC   C1B36451   7.315  29.487   8.669
 2727POPC   C2B36452   7.221  29.189   8.413
 2727POPC   C3B36453   7.349  29.400   8.054
 2727POPC   C4B36454   7.530  29.254   7.703
 2728POPC   NC336455  42.654  27.764   9.288
 2728POPC   PO436456  42.295  27.682   9.815
 2728POPC   GL136457  42.301  27.424   9.264
 2728POPC   GL236458  42.024  27.140   9.212
 2728POPC   C1A36459  42.223  27.641   8.782
 2728POPC   D2A36460  42.221  27.828   8.335
 2728POPC   C3A36461  42.562  27.757   8.042
 2728POPC   C4A36462  42.529  27.538   7.666
 2728POPC   C1B36463  42.324  27.158   8.847
 2728POPC   C2B36464  42.455  27.347   8.441
 2728POPC   C3B36465  42.221  27.346   8.102
 2728POPC   C4B36466  42.152  27.145   7.746
 2729POPC   NC336467   5.042  34.734   9.598
 2729POPC   PO436468   4.829  34.129   9.724
 2729POPC   GL136469   4.956  34.326   9.282
 2729POPC   GL236470   5.230  34.580   9.153
 2729POPC   C1A36471   4.990  34.284   8.813
 2729POPC   D2A36472   5.008  34.527   8.432
 2729POPC   C3A36473   5.000  34.377   8.014
 2729POPC   C4A36474   4.760  34.467   7.648
 2729POPC   C1B36475   5.325  34.814   8.768
 2729POPC   C2B36476   5.095  35.017   8.422
 2729POPC   C3B36477   5.137  34.874   8.001
 2729POPC   C4B36478   5.457  34.980   7.740
 2730POPC   NC336479  14.056  14.429   9.535
 2730POPC   PO436480  13.469  14.647   9.694
 2730POPC   GL136481  13.640  14.333   9.268
 2730POPC   GL236482  13.949  14.167   9.119
 2730POPC   C1A36483  13.534  14.227   8.811
 2730POPC   D2A36484  13.343  14.486   8.466
 2730POPC   C3A36485  13.641  14.558   8.140
 2730POPC   C4A36486  13.578  14.544   7.716
 2730POPC   C1B36487  14.105  14.055   8.702
 2730POPC   C2B36488  13.888  14.130   8.337
 2730POPC   C3B36489  13.715  14.107   7.946
 2730POPC   C4B36490  13.876  14.151   7.540
 2731POPC   NC336491  25.425  36.279   9.500
 2731POPC   PO436492  24.891  36.563   9.174
 2731POPC   GL136493  25.274  36.412   9.024
 2731POPC   GL236494  25.401  36.056   9.050
 2731POPC   C1A36495  25.381  36.316   8.629
 2731POPC   D2A36496  25.470  35.976   8.386
 2731POPC   C3A36497  25.290  36.145   8.020
 2731POPC   C4A36498  25.356  36.330   7.629
 2731POPC   C1B36499  25.155  35.753   8.862
 2731POPC   C2B36500  25.193  35.508   8.514
 2731POPC   C3B36501  25.293  35.586   8.093
 2731POPC   C4B36502  25.100  35.767   7.736
 2732POPC   NC336503  44.052   7.345   9.381
 2732POPC   PO436504  43.480   7.718   9.497
 2732POPC   GL136505  43.662   7.509   9.102
 2732POPC   GL236506  43.775   7.151   9.029
 2732POPC   C1A36507  43.873   7.507   8.677
 2732POPC   D2A36508  43.678   7.476   8.279
 2732POPC   C3A36509  43.842   7.699   7.931
 2732POPC   C4A36510  44.144   7.750   7.554
 2732POPC   C1B36511  43.806   6.912   8.707
 2732POPC   C2B36512  43.938   7.021   8.331
 2732POPC   C3B36513  44.013   6.868   7.944
 2732POPC   C4B36514  44.041   7.262   7.774
 2733POPC   NC336515   3.042   7.830   9.476
 2733POPC   PO436516   2.715   8.361   9.706
 2733POPC   GL136517   2.862   8.298   9.286
 2733POPC   GL236518   2.670   8.032   9.158
 2733POPC   C1A36519   2.926   8.385   8.842
 2733POPC   D2A36520   2.771   8.429   8.421
 2733POPC   C3A36521   2.843   8.135   8.095
 2733POPC   C4A36522   2.779   8.243   7.659
 2733POPC   C1B36523   2.473   7.854   8.822
 2733POPC   C2B36524   2.438   7.977   8.420
 2733POPC   C3B36525   2.365   7.800   8.050
 2733POPC   C4B36526   2.544   7.805   7.670
 2734POPC   NC336527  22.711   3.539   9.518
 2734POPC   PO436528  23.314   3.775   9.409
 2734POPC   GL136529  23.086   3.454   9.173
 2734POPC   GL236530  22.835   3.660   9.042
 2734POPC   C1A36531  23.215   3.401   8.770
 2734POPC   D2A36532  23.168   3.701   8.467
 2734POPC   C3A36533  23.111   3.485   8.098
 2734POPC   C4A36534  23.201   3.655   7.756
 2734POPC   C1B36535  22.648   3.580   8.671
 2734POPC   C2B36536  22.440   3.448   8.312
 2734POPC   C3B36537  22.461   3.379   7.882
 2734POPC   C4B36538  22.829   3.322   7.649
 2735POPC   NC336539  27.183  23.598   9.477
 2735POPC   PO436540  27.827  23.758   9.629
 2735POPC   GL136541  27.703  23.793   9.171
 2735POPC   GL236542  27.377  23.715   9.035
 2735POPC   C1A36543  27.843  23.745   8.732
 2735POPC   D2A36544  28.044  23.517   8.371
 2735POPC   C3A36545  27.782  23.537   8.000
 2735POPC   C4A36546  27.793  23.960   7.914
 2735POPC   C1B36547  27.342  23.941   8.700
 2735POPC   C2B36548  27.502  23.824   8.332
 2735POPC   C3B36549  27.263  23.746   7.995
 2735POPC   C4B36550  27.132  23.919   7.616
 2736POPC   NC336551  13.937   9.154   9.462
 2736POPC   PO436552  13.630   9.826   9.586
 2736POPC   GL136553  13.641   9.765   9.135
 2736POPC   GL236554  13.525  10.089   8.981
 2736POPC   C1A36555  13.929   9.522   8.864
 2736POPC   D2A36556  14.194   9.471   8.499
 2736POPC   C3A36557  14.138   9.756   8.166
 2736POPC   C4A36558  13.821   9.627   7.858
 2736POPC   C1B36559  13.777   9.976   8.674
 2736POPC   C2B36560  13.683   9.723   8.368
 2736POPC   C3B36561  13.604  10.041   8.079
 2736POPC   C4B36562  13.424  10.154   7.713
 2737POPC   NC336563  14.195   0.006   9.929
 2737POPC   PO436564  14.805  44.906   9.735
 2737POPC   GL136565  14.596  44.720   9.288
 2737POPC   GL236566  14.438  44.993   9.050
 2737POPC   C1A36567  14.337  44.536   8.930
 2737POPC   D2A36568  14.317  44.729   8.507
 2737POPC   C3A36569  14.411  44.581   8.081
 2737POPC   C4A36570  14.275  44.690   7.659
 2737POPC   C1B36571  14.021  44.969   8.861
 2737POPC   C2B36572  13.942   0.112   8.445
 2737POPC   C3B36573  14.223   0.058   8.092
 2737POPC   C4B36574  14.089   0.197   7.714
 2738POPC   NC336575  44.004  18.134   9.676
 2738POPC   PO436576  43.804  18.671   9.497
 2738POPC   GL136577  43.877  18.378   9.183
 2738POPC   GL236578  43.650  18.102   9.310
 2738POPC   C1A36579  43.988  18.335   8.705
 2738POPC   D2A36580  44.214  18.477   8.301
 2738POPC   C3A36581  44.076  18.372   7.866
 2738POPC   C4A36582  43.655  18.541   7.775
 2738POPC   C1B36583  43.541  18.166   8.894
 2738POPC   C2B36584  43.480  18.211   8.492
 2738POPC   C3B36585  43.716  18.177   8.154
 2738POPC   C4B36586  44.035  17.858   8.115
 2739POPC   NC336587  26.969  40.438   9.665
 2739POPC   PO436588  26.926  39.746   9.556
 2739POPC   GL136589  27.025  39.987   9.191
 2739POPC   GL236590  27.167  40.300   9.171
 2739POPC   C1A36591  27.001  39.876   8.769
 2739POPC   D2A36592  26.956  39.615   8.409
 2739POPC   C3A36593  26.814  39.806   8.049
 2739POPC   C4A36594  27.129  39.875   7.766
 2739POPC   C1B36595  27.306  40.303   8.726
 2739POPC   C2B36596  27.113  40.131   8.327
 2739POPC   C3B36597  26.765  40.313   8.084
 2739POPC   C4B36598  26.770  40.201   7.682
 2740POPC   NC336599  25.934   2.178   9.577
 2740POPC   PO436600  26.200   1.639   9.705
 2740POPC   GL136601  26.120   1.816   9.277
 2740POPC   GL236602  25.778   1.948   9.143
 2740POPC   C1A36603  26.257   1.975   8.866
 2740POPC   D2A36604  26.034   2.016   8.475
 2740POPC   C3A36605  26.254   2.152   8.078
 2740POPC   C4A36606  25.982   2.272   7.736
 2740POPC   C1B36607  25.906   1.598   8.858
 2740POPC   C2B36608  25.993   1.510   8.439
 2740POPC   C3B36609  25.970   1.734   8.052
 2740POPC   C4B36610  26.098   1.788   7.662
 2741POPC   NC336611  25.479  26.701   9.681
 2741POPC   PO436612  26.166  26.739   9.533
 2741POPC   GL136613  26.290  26.939   9.179
 2741POPC   GL236614  26.284  26.607   9.037
 2741POPC   C1A36615  26.141  27.040   8.753
 2741POPC   D2A36616  26.034  26.891   8.323
 2741POPC   C3A36617  26.102  27.122   7.946
 2741POPC   C4A36618  26.070  26.873   7.586
 2741POPC   C1B36619  26.013  26.536   8.702
 2741POPC   C2B36620  25.766  26.452   8.326
 2741POPC   C3B36621  25.795  26.510   7.864
 2741POPC   C4B36622  25.890  26.419   7.395
 2742POPC   NC336623  11.475  28.939   9.452
 2742POPC   PO436624  11.053  29.388   9.532
 2742POPC   GL136625  11.183  29.359   9.128
 2742POPC   GL236626  11.521  29.349   9.105
 2742POPC   C1A36627  11.213  29.284   8.697
 2742POPC   D2A36628  11.102  29.055   8.382
 2742POPC   C3A36629  11.209  29.281   8.069
 2742POPC   C4A36630  11.180  29.113   7.655
 2742POPC   C1B36631  11.612  28.978   8.815
 2742POPC   C2B36632  11.618  29.051   8.371
 2742POPC   C3B36633  11.485  28.866   7.981
 2742POPC   C4B36634  11.627  28.853   7.524
 2743POPC   NC336635  12.495  24.545   9.631
 2743POPC   PO436636  13.066  24.435   9.438
 2743POPC   GL136637  12.883  24.457   9.072
 2743POPC   GL236638  12.778  24.795   9.096
 2743POPC   C1A36639  12.911  24.256   8.654
 2743POPC   D2A36640  12.611  24.253   8.300
 2743POPC   C3A36641  12.734  24.440   7.914
 2743POPC   C4A36642  13.135  24.334   7.697
 2743POPC   C1B36643  13.085  24.762   8.736
 2743POPC   C2B36644  12.968  24.658   8.319
 2743POPC   C3B36645  13.164  24.791   7.932
 2743POPC   C4B36646  12.933  24.793   7.562
 2744POPC   NC336647  17.586  20.357   9.427
 2744POPC   PO436648  17.257  19.873   9.856
 2744POPC   GL136649  17.360  19.805   9.324
 2744POPC   GL236650  17.531  20.040   9.040
 2744POPC   C1A36651  17.234  19.708   8.837
 2744POPC   D2A36652  17.506  19.926   8.474
 2744POPC   C3A36653  17.445  19.856   8.035
 2744POPC   C4A36654  17.138  19.564   7.914
 2744POPC   C1B36655  17.743  19.676   8.830
 2744POPC   C2B36656  17.907  19.610   8.396
 2744POPC   C3B36657  17.841  19.553   7.945
 2744POPC   C4B36658  18.005  19.508   7.525
 2745POPC   NC336659  13.906  36.104   9.456
 2745POPC   PO436660  13.297  36.188   9.612
 2745POPC   GL136661  13.461  36.165   9.184
 2745POPC   GL236662  13.166  36.365   9.067
 2745POPC   C1A36663  13.759  36.033   8.816
 2745POPC   D2A36664  13.938  36.161   8.399
 2745POPC   C3A36665  13.799  35.952   8.009
 2745POPC   C4A36666  13.871  36.102   7.589
 2745POPC   C1B36667  13.265  36.155   8.718
 2745POPC   C2B36668  13.437  36.007   8.378
 2745POPC   C3B36669  13.291  36.255   8.067
 2745POPC   C4B36670  13.392  36.222   7.700
 2746POPC   NC336671  38.551  16.515   9.261
 2746POPC   PO436672  38.558  15.921   9.687
 2746POPC   GL136673  38.539  15.793   9.185
 2746POPC   GL236674  38.589  16.085   8.956
 2746POPC   C1A36675  38.432  15.662   8.718
 2746POPC   D2A36676  38.451  15.901   8.283
 2746POPC   C3A36677  38.504  15.653   7.895
 2746POPC   C4A36678  38.774  15.752   7.521
 2746POPC   C1B36679  38.461  16.363   8.607
 2746POPC   C2B36680  38.730  16.434   8.243
 2746POPC   C3B36681  38.709  16.174   7.878
 2746POPC   C4B36682  38.365  16.055   7.589
 2747POPC   NC336683  40.930  39.063   9.457
 2747POPC   PO436684  40.418  39.603   9.401
 2747POPC   GL136685  40.705  39.383   9.106
 2747POPC   GL236686  40.624  39.029   8.994
 2747POPC   C1A36687  40.911  39.321   8.703
 2747POPC   D2A36688  40.694  38.998   8.475
 2747POPC   C3A36689  40.498  39.146   8.143
 2747POPC   C4A36690  40.687  39.286   7.810
 2747POPC   C1B36691  40.998  38.806   8.843
 2747POPC   C2B36692  41.216  38.936   8.498
 2747POPC   C3B36693  41.055  39.031   8.110
 2747POPC   C4B36694  40.937  38.859   7.748
 2748POPC   NC336695  14.686  11.635   9.405
 2748POPC   PO436696  14.610  10.961   9.574
 2748POPC   GL136697  14.508  11.151   9.216
 2748POPC   GL236698  14.812  11.251   9.098
 2748POPC   C1A36699  14.362  11.314   8.820
 2748POPC   D2A36700  14.431  11.482   8.397
 2748POPC   C3A36701  14.220  11.392   7.962
 2748POPC   C4A36702  14.058  11.526   7.561
 2748POPC   C1B36703  14.862  11.316   8.670
 2748POPC   C2B36704  14.937  11.592   8.329
 2748POPC   C3B36705  14.729  11.469   7.973
 2748POPC   C4B36706  14.661  11.210   7.635
 2749POPC   NC336707  26.898  24.556   9.527
 2749POPC   PO436708  26.296  24.226   9.580
 2749POPC   GL136709  26.624  24.273   9.188
 2749POPC   GL236710  26.813  24.589   9.037
 2749POPC   C1A36711  26.793  24.151   8.762
 2749POPC   D2A36712  26.987  24.138   8.364
 2749POPC   C3A36713  26.986  24.513   8.109
 2749POPC   C4A36714  26.920  24.374   7.687
 2749POPC   C1B36715  26.805  24.627   8.592
 2749POPC   C2B36716  26.593  24.856   8.314
 2749POPC   C3B36717  26.653  24.979   7.924
 2749POPC   C4B36718  26.944  24.876   7.626
 2750POPC   NC336719  39.880  33.312   9.481
 2750POPC   PO436720  40.147  32.771   9.527
 2750POPC   GL136721  40.141  32.968   9.121
 2750POPC   GL236722  40.170  33.335   9.079
 2750POPC   C1A36723  40.062  32.843   8.718
 2750POPC   D2A36724  39.828  33.127   8.472
 2750POPC   C3A36725  39.913  33.193   8.036
 2750POPC   C4A36726  39.779  33.014   7.619
 2750POPC   C1B36727  40.401  33.259   8.747
 2750POPC   C2B36728  40.332  33.090   8.358
 2750POPC   C3B36729  40.498  33.350   8.103
 2750POPC   C4B36730  40.268  33.557   7.821
 2751POPC   NC336731   7.500  32.690   9.435
 2751POPC   PO436732   7.492  33.396   9.443
 2751POPC   GL136733   7.309  33.182   9.124
 2751POPC   GL236734   7.167  32.858   9.058
 2751POPC   C1A36735   7.399  33.232   8.707
 2751POPC   D2A36736   7.715  33.142   8.398
 2751POPC   C3A36737   7.474  33.063   8.038
 2751POPC   C4A36738   7.336  33.330   7.703
 2751POPC   C1B36739   7.326  32.743   8.619
 2751POPC   C2B36740   7.649  32.614   8.306
 2751POPC   C3B36741   7.625  32.585   7.865
 2751POPC   C4B36742   7.172  32.637   7.763
 2752POPC   NC336743  13.470  41.854   9.479
 2752POPC   PO436744  13.387  41.169   9.742
 2752POPC   GL136745  13.413  41.374   9.317
 2752POPC   GL236746  13.212  41.589   9.134
 2752POPC   C1A36747  13.657  41.528   8.913
 2752POPC   D2A36748  13.570  41.336   8.561
 2752POPC   C3A36749  13.616  41.384   8.118
 2752POPC   C4A36750  13.583  41.613   7.746
 2752POPC   C1B36751  13.219  41.733   8.712
 2752POPC   C2B36752  13.403  41.812   8.327
 2752POPC   C3B36753  13.308  42.019   7.922
 2752POPC   C4B36754  13.366  42.011   7.451
 2753POPC   NC336755  27.602  19.922   9.460
 2753POPC   PO436756  27.116  19.495   9.725
 2753POPC   GL136757  27.374  19.458   9.225
 2753POPC   GL236758  27.690  19.576   9.126
 2753POPC   C1A36759  27.430  19.804   8.797
 2753POPC   D2A36760  27.735  19.957   8.537
 2753POPC   C3A36761  27.713  19.831   8.123
 2753POPC   C4A36762  27.461  19.935   7.766
 2753POPC   C1B36763  27.851  19.482   8.753
 2753POPC   C2B36764  27.879  19.397   8.373
 2753POPC   C3B36765  27.783  19.292   7.971
 2753POPC   C4B36766  27.963  19.583   7.751
 2754POPC   NC336767   9.064   0.082   9.510
 2754POPC   PO436768   8.824  44.513   9.606
 2754POPC   GL136769   8.876  44.480   9.185
 2754POPC   GL236770   8.779  44.840   9.146
 2754POPC   C1A36771   8.905  44.546   8.752
 2754POPC   D2A36772   8.890  44.771   8.442
 2754POPC   C3A36773   8.966  44.466   8.155
 2754POPC   C4A36774   8.984  44.523   7.745
 2754POPC   C1B36775   9.116   0.016   8.860
 2754POPC   C2B36776   9.365  44.909   8.494
 2754POPC   C3B36777   9.220  44.893   8.069
 2754POPC   C4B36778   9.355  44.936   7.660
 2755POPC   NC336779  21.568  16.916   9.540
 2755POPC   PO436780  20.916  17.071   9.534
 2755POPC   GL136781  21.166  16.797   9.220
 2755POPC   GL236782  21.465  16.950   9.053
 2755POPC   C1A36783  21.273  16.560   8.795
 2755POPC   D2A36784  21.443  16.507   8.356
 2755POPC   C3A36785  21.199  16.677   7.986
 2755POPC   C4A36786  20.913  16.517   7.655
 2755POPC   C1B36787  21.728  16.903   8.715
 2755POPC   C2B36788  21.935  16.755   8.360
 2755POPC   C3B36789  21.696  16.791   7.987
 2755POPC   C4B36790  21.407  17.109   7.806
 2756POPC   NC336791  23.238  28.308   9.422
 2756POPC   PO436792  22.704  28.724   9.278
 2756POPC   GL136793  22.982  28.533   9.045
 2756POPC   GL236794  22.940  28.183   9.049
 2756POPC   C1A36795  23.040  28.501   8.657
 2756POPC   D2A36796  22.805  28.644   8.330
 2756POPC   C3A36797  22.888  28.421   7.967
 2756POPC   C4A36798  22.622  28.482   7.624
 2756POPC   C1B36799  23.267  28.030   8.796
 2756POPC   C2B36800  23.251  27.797   8.416
 2756POPC   C3B36801  23.217  27.959   7.996
 2756POPC   C4B36802  23.301  27.850   7.565
 2757POPC   NC336803  11.162  31.862   9.472
 2757POPC   PO436804  11.484  32.490   9.487
 2757POPC   GL136805  11.436  32.221   9.169
 2757POPC   GL236806  11.292  32.539   9.023
 2757POPC   C1A36807  11.345  31.922   8.855
 2757POPC   D2A36808  11.133  31.981   8.481
 2757POPC   C3A36809  11.309  31.969   8.108
 2757POPC   C4A36810  11.051  32.086   7.788
 2757POPC   C1B36811  11.416  32.382   8.660
 2757POPC   C2B36812  11.299  32.452   8.287
 2757POPC   C3B36813  11.560  32.434   7.960
 2757POPC   C4B36814  11.509  32.239   7.582
 2758POPC   NC336815   3.914  29.490   9.737
 2758POPC   PO436816   3.633  30.131   9.545
 2758POPC   GL136817   3.698  30.128   9.117
 2758POPC   GL236818   3.497  29.837   9.108
 2758POPC   C1A36819   3.694  30.019   8.652
 2758POPC   D2A36820   3.439  29.941   8.310
 2758POPC   C3A36821   3.567  30.000   7.893
 2758POPC   C4A36822   3.821  30.278   7.706
 2758POPC   C1B36823   3.300  29.695   8.749
 2758POPC   C2B36824   3.084  29.570   8.374
 2758POPC   C3B36825   3.180  29.662   7.969
 2758POPC   C4B36826   3.369  29.639   7.581
 2759POPC   NC336827  20.968  15.787   9.413
 2759POPC   PO436828  21.645  15.794   9.539
 2759POPC   GL136829  21.526  15.964   9.149
 2759POPC   GL236830  21.351  15.678   9.097
 2759POPC   C1A36831  21.362  15.964   8.685
 2759POPC   D2A36832  21.044  16.112   8.354
 2759POPC   C3A36833  21.208  16.160   7.927
 2759POPC   C4A36834  21.162  16.093   7.478
 2759POPC   C1B36835  21.670  15.529   8.906
 2759POPC   C2B36836  21.652  15.550   8.492
 2759POPC   C3B36837  21.397  15.726   8.190
 2759POPC   C4B36838  21.417  15.712   7.755
 2760POPC   NC336839  32.399  29.504   9.516
 2760POPC   PO436840  32.039  28.939   9.553
 2760POPC   GL136841  32.182  29.106   9.128
 2760POPC   GL236842  32.478  29.390   9.037
 2760POPC   C1A36843  32.069  28.916   8.732
 2760POPC   D2A36844  32.176  29.092   8.352
 2760POPC   C3A36845  32.385  29.116   7.978
 2760POPC   C4A36846  32.182  29.236   7.588
 2760POPC   C1B36847  32.344  29.483   8.641
 2760POPC   C2B36848  32.147  29.728   8.308
 2760POPC   C3B36849  32.343  29.664   7.916
 2760POPC   C4B36850  32.676  29.467   7.717
 2761POPC   NC336851  24.262  39.809   9.349
 2761POPC   PO436852  24.908  39.771   9.538
 2761POPC   GL136853  24.770  39.822   9.144
 2761POPC   GL236854  24.653  40.170   9.094
 2761POPC   C1A36855  24.535  39.743   8.777
 2761POPC   D2A36856  24.331  40.073   8.598
 2761POPC   C3A36857  24.399  40.017   8.183
 2761POPC   C4A36858  24.319  40.055   7.753
 2761POPC   C1B36859  24.862  40.107   8.691
 2761POPC   C2B36860  24.958  40.146   8.260
 2761POPC   C3B36861  24.818  39.934   7.892
 2761POPC   C4B36862  24.760  40.079   7.469
 2762POPC   NC336863   0.227  25.564   9.918
 2762POPC   PO436864   0.401  25.102   9.460
 2762POPC   GL136865   0.449  25.252   9.064
 2762POPC   GL236866   0.777  25.366   9.078
 2762POPC   C1A36867   0.530  25.094   8.684
 2762POPC   D2A36868   0.808  25.101   8.341
 2762POPC   C3A36869   0.538  25.175   7.998
 2762POPC   C4A36870   0.469  24.888   7.664
 2762POPC   C1B36871   0.823  25.511   8.638
 2762POPC   C2B36872   0.795  25.601   8.219
 2762POPC   C3B36873   0.884  25.523   7.807
 2762POPC   C4B36874   0.645  25.339   7.473
 2763POPC   NC336875  27.631   8.735   9.242
 2763POPC   PO436876  27.941   9.360   9.444
 2763POPC   GL136877  27.985   9.086   9.123
 2763POPC   GL236878  27.646   9.217   9.033
 2763POPC   C1A36879  27.894   8.919   8.697
 2763POPC   D2A36880  27.759   9.156   8.354
 2763POPC   C3A36881  27.773   8.891   8.017
 2763POPC   C4A36882  27.796   9.085   7.656
 2763POPC   C1B36883  27.395   9.073   8.696
 2763POPC   C2B36884  27.276   8.987   8.268
 2763POPC   C3B36885  27.306   9.138   7.857
 2763POPC   C4B36886  27.351   9.084   7.426
 2764POPC   NC336887  38.707  12.947   9.469
 2764POPC   PO436888  38.183  12.523   9.568
 2764POPC   GL136889  38.362  12.684   9.195
 2764POPC   GL236890  38.672  12.496   9.218
 2764POPC   C1A36891  38.468  12.953   8.809
 2764POPC   D2A36892  38.463  12.767   8.398
 2764POPC   C3A36893  38.603  12.989   8.049
 2764POPC   C4A36894  38.517  12.804   7.670
 2764POPC   C1B36895  38.856  12.641   8.823
 2764POPC   C2B36896  38.890  12.539   8.414
 2764POPC   C3B36897  38.970  12.612   8.001
 2764POPC   C4B36898  38.957  12.371   7.632
 2765POPC   NC336899  10.747  13.875   9.553
 2765POPC   PO436900  11.405  13.610   9.511
 2765POPC   GL136901  11.227  13.702   9.160
 2765POPC   GL236902  10.887  13.608   9.110
 2765POPC   C1A36903  11.233  13.382   8.821
 2765POPC   D2A36904  11.193  13.213   8.434
 2765POPC   C3A36905  11.329  13.343   8.045
 2765POPC   C4A36906  11.416  13.688   7.795
 2765POPC   C1B36907  11.037  13.835   8.718
 2765POPC   C2B36908  11.100  13.713   8.316
 2765POPC   C3B36909  10.915  13.604   7.920
 2765POPC   C4B36910  10.979  13.786   7.523
 2766POPC   NC336911  41.345  32.550   9.334
 2766POPC   PO436912  41.328  31.932   9.604
 2766POPC   GL136913  41.496  32.088   9.190
 2766POPC   GL236914  41.311  32.247   8.896
 2766POPC   C1A36915  41.786  32.154   8.864
 2766POPC   D2A36916  41.582  32.123   8.460
 2766POPC   C3A36917  41.781  32.163   8.042
 2766POPC   C4A36918  41.537  32.404   7.735
 2766POPC   C1B36919  41.326  31.806   8.807
 2766POPC   C2B36920  41.358  31.640   8.427
 2766POPC   C3B36921  41.384  31.876   8.061
 2766POPC   C4B36922  41.432  31.934   7.619
 2767POPC   NC336923  25.030  43.393   9.554
 2767POPC   PO436924  25.387  42.851   9.477
 2767POPC   GL136925  25.282  43.058   9.146
 2767POPC   GL236926  24.983  42.979   9.101
 2767POPC   C1A36927  25.320  42.947   8.718
 2767POPC   D2A36928  25.142  42.868   8.327
 2767POPC   C3A36929  25.354  43.075   8.016
 2767POPC   C4A36930  25.446  43.049   7.591
 2767POPC   C1B36931  24.982  43.361   8.894
 2767POPC   C2B36932  24.962  43.349   8.468
 2767POPC   C3B36933  25.069  43.505   8.098
 2767POPC   C4B36934  24.988  43.322   7.735
 2768POPC   NC336935  27.883   8.134   9.325
 2768POPC   PO436936  27.718   7.549   9.617
 2768POPC   GL136937  27.750   7.419   9.190
 2768POPC   GL236938  27.897   7.694   9.027
 2768POPC   C1A36939  27.608   7.370   8.731
 2768POPC   D2A36940  27.427   7.480   8.303
 2768POPC   C3A36941  27.654   7.341   7.913
 2768POPC   C4A36942  27.815   6.965   7.686
 2768POPC   C1B36943  27.594   7.905   8.728
 2768POPC   C2B36944  27.479   8.022   8.277
 2768POPC   C3B36945  27.379   7.790   7.885
 2768POPC   C4B36946  27.527   7.816   7.473
 2769POPC   NC336947   9.517  29.074   9.697
 2769POPC   PO436948   8.809  28.893   9.589
 2769POPC   GL136949   8.814  29.016   9.164
 2769POPC   GL236950   8.786  29.381   9.170
 2769POPC   C1A36951   8.922  29.056   8.737
 2769POPC   D2A36952   8.762  28.895   8.345
 2769POPC   C3A36953   8.947  29.109   7.992
 2769POPC   C4A36954   9.234  28.840   7.699
 2769POPC   C1B36955   8.779  29.564   8.775
 2769POPC   C2B36956   8.606  29.385   8.401
 2769POPC   C3B36957   8.623  29.517   7.984
 2769POPC   C4B36958   9.042  29.565   7.768
 2770POPC   NC336959  35.526   3.429   9.748
 2770POPC   PO436960  35.976   3.269   9.302
 2770POPC   GL136961  35.596   3.544   9.192
 2770POPC   GL236962  35.271   3.499   9.324
 2770POPC   C1A36963  35.409   3.794   8.816
 2770POPC   D2A36964  35.228   3.929   8.439
 2770POPC   C3A36965  35.460   3.728   8.160
 2770POPC   C4A36966  35.344   3.678   7.751
 2770POPC   C1B36967  35.242   3.300   8.930
 2770POPC   C2B36968  35.251   3.426   8.512
 2770POPC   C3B36969  35.355   3.249   8.115
 2770POPC   C4B36970  35.173   3.180   7.731
 2771POPC   NC336971  37.565   1.517   9.294
 2771POPC   PO436972  38.061   2.041   9.398
 2771POPC   GL136973  37.773   1.943   9.135
 2771POPC   GL236974  37.980   1.666   9.001
 2771POPC   C1A36975  37.558   1.990   8.754
 2771POPC   D2A36976  37.607   2.152   8.364
 2771POPC   C3A36977  37.471   2.121   7.952
 2771POPC   C4A36978  37.708   2.246   7.597
 2771POPC   C1B36979  37.728   1.523   8.645
 2771POPC   C2B36980  37.614   1.640   8.205
 2771POPC   C3B36981  37.647   1.666   7.756
 2771POPC   C4B36982  37.667   1.812   7.332
 2772POPC   NC336983   2.519  40.994   9.639
 2772POPC   PO436984   1.905  40.738   9.507
 2772POPC   GL136985   1.896  40.905   9.125
 2772POPC   GL236986   2.229  41.061   9.173
 2772POPC   C1A36987   1.919  40.693   8.749
 2772POPC   D2A36988   1.723  40.415   8.440
 2772POPC   C3A36989   1.772  40.661   8.063
 2772POPC   C4A36990   1.616  40.715   7.651
 2772POPC   C1B36991   2.162  41.142   8.729
 2772POPC   C2B36992   1.951  41.090   8.317
 2772POPC   C3B36993   1.981  41.123   7.851
 2772POPC   C4B36994   2.130  40.756   7.668
 2773POPC   NC336995  22.488  43.699   9.449
 2773POPC   PO436996  23.166  43.967   9.576
 2773POPC   GL136997  22.880  43.960   9.230
 2773POPC   GL236998  22.888  43.606   9.144
 2773POPC   C1A36999  22.773  44.052   8.815
 2773POPC   D2A37000  23.033  43.908   8.484
 2773POPC   C3A37001  22.964  44.112   8.091
 2773POPC   C4A37002  22.808  43.968   7.688
 2773POPC   C1B37003  23.039  43.444   8.768
 2773POPC   C2B37004  22.868  43.307   8.388
 2773POPC   C3B37005  23.056  43.561   8.092
 2773POPC   C4B37006  23.055  43.529   7.686
 2774POPC   NC337007   1.761   4.548   9.861
 2774POPC   PO437008   2.056   5.060   9.445
 2774POPC   GL137009   2.065   5.141   9.061
 2774POPC   GL237010   2.060   5.474   9.113
 2774POPC   C1A37011   2.071   4.960   8.686
 2774POPC   D2A37012   2.152   5.211   8.366
 2774POPC   C3A37013   1.919   5.091   8.050
 2774POPC   C4A37014   2.026   5.148   7.652
 2774POPC   C1B37015   1.863   5.557   8.729
 2774POPC   C2B37016   2.010   5.695   8.341
 2774POPC   C3B37017   1.983   5.602   7.907
 2774POPC   C4B37018   1.856   5.574   7.455
 2775POPC   NC337019  38.805  34.936   9.409
 2775POPC   PO437020  38.418  34.553   9.822
 2775POPC   GL137021  38.389  34.543   9.340
 2775POPC   GL237022  38.682  34.557   9.091
 2775POPC   C1A37023  38.170  34.678   8.952
 2775POPC   D2A37024  38.128  34.820   8.511
 2775POPC   C3A37025  38.300  34.520   8.188
 2775POPC   C4A37026  38.507  34.465   7.777
 2775POPC   C1B37027  38.901  34.635   8.687
 2775POPC   C2B37028  38.877  34.634   8.224
 2775POPC   C3B37029  38.981  34.641   7.774
 2775POPC   C4B37030  38.802  34.547   7.353
 2776POPC   NC337031  32.122  32.459   9.455
 2776POPC   PO437032  32.292  31.804   9.511
 2776POPC   GL137033  32.088  32.017   9.143
 2776POPC   GL237034  32.277  32.342   8.983
 2776POPC   C1A37035  32.109  31.943   8.700
 2776POPC   D2A37036  32.420  32.145   8.433
 2776POPC   C3A37037  32.206  32.321   8.075
 2776POPC   C4A37038  31.837  32.169   7.837
 2776POPC   C1B37039  32.594  32.553   8.707
 2776POPC   C2B37040  32.589  32.668   8.265
 2776POPC   C3B37041  32.526  32.620   7.809
 2776POPC   C4B37042  32.681  32.675   7.378
 2777POPC   NC337043  33.626  33.044   9.483
 2777POPC   PO437044  33.857  33.663   9.627
 2777POPC   GL137045  33.763  33.668   9.172
 2777POPC   GL237046  33.782  34.017   8.990
 2777POPC   C1A37047  33.479  33.629   8.821
 2777POPC   D2A37048  33.623  33.553   8.429
 2777POPC   C3A37049  33.408  33.459   8.089
 2777POPC   C4A37050  33.606  33.675   7.754
 2777POPC   C1B37051  34.033  33.687   8.754
 2777POPC   C2B37052  34.153  33.606   8.364
 2777POPC   C3B37053  34.071  33.783   7.993
 2777POPC   C4B37054  33.951  34.098   7.783
 2778POPC   NC337055  11.511  15.299   9.482
 2778POPC   PO437056  11.186  14.773   9.281
 2778POPC   GL137057  11.404  15.041   9.064
 2778POPC   GL237058  11.159  15.302   9.086
 2778POPC   C1A37059  11.480  15.192   8.681
 2778POPC   D2A37060  11.451  14.999   8.301
 2778POPC   C3A37061  11.563  15.313   7.992
 2778POPC   C4A37062  11.445  15.574   7.624
 2778POPC   C1B37063  10.982  15.142   8.684
 2778POPC   C2B37064  11.068  15.323   8.242
 2778POPC   C3B37065  10.987  15.296   7.787
 2778POPC   C4B37066  11.008  15.499   7.348
 2779POPC   NC337067  14.850  27.737   9.805
 2779POPC   PO437068  14.864  28.358   9.485
 2779POPC   GL137069  14.927  27.985   9.166
 2779POPC   GL237070  14.871  27.589   9.214
 2779POPC   C1A37071  14.897  27.823   8.729
 2779POPC   D2A37072  15.074  27.581   8.401
 2779POPC   C3A37073  15.174  27.774   8.024
 2779POPC   C4A37074  15.292  27.925   7.612
 2779POPC   C1B37075  14.995  27.306   8.829
 2779POPC   C2B37076  14.897  27.092   8.420
 2779POPC   C3B37077  14.993  27.285   8.002
 2779POPC   C4B37078  15.289  27.402   7.665
 2780POPC   NC337079  42.373  43.292   9.324
 2780POPC   PO437080  42.145  43.874   9.578
 2780POPC   GL137081  42.469  43.792   9.237
 2780POPC   GL237082  42.494  44.084   9.065
 2780POPC   C1A37083  42.592  43.605   8.813
 2780POPC   D2A37084  42.384  43.740   8.463
 2780POPC   C3A37085  42.402  43.681   8.018
 2780POPC   C4A37086  42.613  44.006   7.782
 2780POPC   C1B37087  42.171  44.271   8.882
 2780POPC   C2B37088  42.066  44.153   8.497
 2780POPC   C3B37089  42.253  44.144   8.137
 2780POPC   C4B37090  42.179  44.384   7.825
 2781POPC   NC337091  11.598  11.619   9.516
 2781POPC   PO437092  11.159  11.074   9.495
 2781POPC   GL137093  11.356  11.279   9.160
 2781POPC   GL237094  11.733  11.235   9.151
 2781POPC   C1A37095  11.205  11.497   8.746
 2781POPC   D2A37096  10.919  11.456   8.385
 2781POPC   C3A37097  10.920  11.358   7.912
 2781POPC   C4A37098  11.163  11.463   7.494
 2781POPC   C1B37099  11.534  11.109   8.742
 2781POPC   C2B37100  11.358  11.175   8.362
 2781POPC   C3B37101  11.409  11.330   7.966
 2781POPC   C4B37102  11.457  11.075   7.577
 2782POPC   NC337103  18.826   1.711   9.881
 2782POPC   PO437104  19.172   1.205   9.467
 2782POPC   GL137105  19.214   1.428   9.133
 2782POPC   GL237106  18.912   1.163   9.037
 2782POPC   C1A37107  19.127   1.479   8.728
 2782POPC   D2A37108  18.824   1.332   8.421
 2782POPC   C3A37109  19.099   1.390   8.085
 2782POPC   C4A37110  19.132   1.620   7.700
 2782POPC   C1B37111  18.803   0.816   8.780
 2782POPC   C2B37112  18.624   0.827   8.389
 2782POPC   C3B37113  18.584   1.044   8.013
 2782POPC   C4B37114  18.873   1.160   7.685
 2783POPC   NC337115  38.342  27.026   9.497
 2783POPC   PO437116  37.748  26.622   9.553
 2783POPC   GL137117  37.805  26.795   9.141
 2783POPC   GL237118  37.904  27.109   9.154
 2783POPC   C1A37119  37.628  26.903   8.732
 2783POPC   D2A37120  37.707  26.653   8.315
 2783POPC   C3A37121  37.505  26.608   7.899
 2783POPC   C4A37122  37.720  26.717   7.462
 2783POPC   C1B37123  37.940  27.308   8.739
 2783POPC   C2B37124  37.843  27.151   8.309
 2783POPC   C3B37125  37.822  27.006   7.897
 2783POPC   C4B37126  38.019  27.152   7.545
 2784POPC   NC337127   6.934  32.286   9.803
 2784POPC   PO437128   7.484  32.184   9.547
 2784POPC   GL137129   7.325  32.223   9.189
 2784POPC   GL237130   7.574  31.955   9.085
 2784POPC   C1A37131   7.288  32.263   8.790
 2784POPC   D2A37132   7.026  32.313   8.484
 2784POPC   C3A37133   7.267  32.278   8.125
 2784POPC   C4A37134   7.076  32.080   7.820
 2784POPC   C1B37135   7.299  31.739   8.804
 2784POPC   C2B37136   7.297  31.855   8.411
 2784POPC   C3B37137   7.429  31.732   8.030
 2784POPC   C4B37138   7.539  31.926   7.666
 2785POPC   NC337139  39.514   0.709   9.602
 2785POPC   PO437140  39.183   0.087   9.517
 2785POPC   GL137141  39.214   0.307   9.126
 2785POPC   GL237142  39.397   0.621   9.118
 2785POPC   C1A37143  39.087   0.306   8.709
 2785POPC   D2A37144  38.920   0.100   8.368
 2785POPC   C3A37145  39.072   0.279   7.996
 2785POPC   C4A37146  39.397   0.185   7.691
 2785POPC   C1B37147  39.375   0.749   8.712
 2785POPC   C2B37148  39.325   0.588   8.327
 2785POPC   C3B37149  39.486   0.614   7.930
 2785POPC   C4B37150  39.361   0.735   7.508
 2786POPC   NC337151  14.450  38.756   9.517
 2786POPC   PO437152  14.007  38.244   9.707
 2786POPC   GL137153  14.169  38.476   9.226
 2786POPC   GL237154  13.935  38.733   9.328
 2786POPC   C1A37155  14.309  38.264   8.735
 2786POPC   D2A37156  14.708  38.285   8.449
 2786POPC   C3A37157  14.645  38.244   7.994
 2786POPC   C4A37158  14.268  38.056   7.812
 2786POPC   C1B37159  13.943  38.751   8.885
 2786POPC   C2B37160  14.076  38.620   8.489
 2786POPC   C3B37161  14.368  38.685   8.185
 2786POPC   C4B37162  14.306  38.571   7.772
 2787POPC   NC337163  12.208  19.322   9.484
 2787POPC   PO437164  12.231  19.989   9.573
 2787POPC   GL137165  12.305  20.059   9.189
 2787POPC   GL237166  12.278  19.674   9.125
 2787POPC   C1A37167  12.008  20.029   8.876
 2787POPC   D2A37168  11.993  19.800   8.515
 2787POPC   C3A37169  12.190  19.895   8.126
 2787POPC   C4A37170  11.984  19.927   7.725
 2787POPC   C1B37171  12.401  19.404   8.751
 2787POPC   C2B37172  12.210  19.391   8.312
 2787POPC   C3B37173  12.261  19.428   7.855
 2787POPC   C4B37174  12.215  19.178   7.450
 2788POPC   NC337175  39.646  14.154   9.467
 2788POPC   PO437176  40.297  14.406   9.453
 2788POPC   GL137177  39.943  14.571   9.239
 2788POPC   GL237178  39.941  14.260   9.071
 2788POPC   C1A37179  39.939  14.690   8.807
 2788POPC   D2A37180  40.126  14.530   8.428
 2788POPC   C3A37181  40.118  14.737   8.038
 2788POPC   C4A37182  40.114  14.543   7.638
 2788POPC   C1B37183  39.786  14.210   8.667
 2788POPC   C2B37184  39.695  14.283   8.237
 2788POPC   C3B37185  39.873  14.170   7.863
 2788POPC   C4B37186  39.784  14.214   7.406
 2789POPC   NC337187  43.337  38.719   9.461
 2789POPC   PO437188  42.661  38.685   9.559
 2789POPC   GL137189  42.897  38.532   9.209
 2789POPC   GL237190  42.750  38.188   9.203
 2789POPC   C1A37191  43.180  38.511   8.809
 2789POPC   D2A37192  43.237  38.299   8.389
 2789POPC   C3A37193  43.352  38.457   7.953
 2789POPC   C4A37194  43.184  38.310   7.551
 2789POPC   C1B37195  42.711  38.306   8.795
 2789POPC   C2B37196  42.750  38.530   8.422
 2789POPC   C3B37197  42.850  38.347   8.031
 2789POPC   C4B37198  42.712  38.448   7.628
 2790POPC   NC337199  26.127  15.681   9.374
 2790POPC   PO437200  25.911  16.221   9.457
 2790POPC   GL137201  26.130  16.206   9.056
 2790POPC   GL237202  25.944  15.929   8.993
 2790POPC   C1A37203  26.196  16.072   8.591
 2790POPC   D2A37204  26.144  15.712   8.310
 2790POPC   C3A37205  26.094  15.799   7.901
 2790POPC   C4A37206  26.272  15.841   7.501
 2790POPC   C1B37207  25.698  15.996   8.637
 2790POPC   C2B37208  25.772  16.087   8.200
 2790POPC   C3B37209  25.586  15.834   7.868
 2790POPC   C4B37210  25.757  15.631   7.501
 2791POPC   NC337211  33.222   8.542   9.460
 2791POPC   PO437212  32.734   8.044   9.585
 2791POPC   GL137213  32.922   8.191   9.200
 2791POPC   GL237214  32.680   8.408   9.129
 2791POPC   C1A37215  33.050   8.246   8.752
 2791POPC   D2A37216  33.230   8.214   8.335
 2791POPC   C3A37217  33.057   8.080   7.938
 2791POPC   C4A37218  33.350   7.872   7.625
 2791POPC   C1B37219  32.555   8.192   8.744
 2791POPC   C2B37220  32.722   8.366   8.376
 2791POPC   C3B37221  32.547   8.483   8.035
 2791POPC   C4B37222  32.764   8.449   7.660
 2792POPC   NC337223   3.829   8.441   9.393
 2792POPC   PO437224   3.450   7.928   9.304
 2792POPC   GL137225   3.460   8.203   9.050
 2792POPC   GL237226   3.784   8.162   8.963
 2792POPC   C1A37227   3.351   8.165   8.666
 2792POPC   D2A37228   3.299   8.471   8.447
 2792POPC   C3A37229   3.537   8.389   8.119
 2792POPC   C4A37230   3.283   8.299   7.787
 2792POPC   C1B37231   3.797   8.391   8.595
 2792POPC   C2B37232   4.065   8.292   8.278
 2792POPC   C3B37233   3.982   8.213   7.872
 2792POPC   C4B37234   3.790   8.591   7.723
 2793POPC   NC337235  24.084  15.272   9.347
 2793POPC   PO437236  23.473  14.969   9.344
 2793POPC   GL137237  23.630  15.221   9.079
 2793POPC   GL237238  23.613  15.537   9.214
 2793POPC   C1A37239  23.710  15.174   8.676
 2793POPC   D2A37240  23.467  15.200   8.339
 2793POPC   C3A37241  23.745  15.322   8.083
 2793POPC   C4A37242  23.946  15.036   7.860
 2793POPC   C1B37243  23.403  15.640   8.840
 2793POPC   C2B37244  23.472  15.741   8.412
 2793POPC   C3B37245  23.342  15.646   8.006
 2793POPC   C4B37246  23.640  15.593   7.655
 2794POPC   NC337247  14.603  43.291   9.504
 2794POPC   PO437248  13.982  43.014   9.392
 2794POPC   GL137249  14.210  43.199   9.128
 2794POPC   GL237250  14.255  43.551   9.124
 2794POPC   C1A37251  14.119  43.236   8.719
 2794POPC   D2A37252  14.341  43.032   8.424
 2794POPC   C3A37253  14.338  43.208   8.052
 2794POPC   C4A37254  14.382  42.961   7.723
 2794POPC   C1B37255  14.597  43.416   8.824
 2794POPC   C2B37256  14.663  43.454   8.380
 2794POPC   C3B37257  14.778  43.434   7.929
 2794POPC   C4B37258  14.856  43.013   7.895
 2795POPC   NC337259  16.547   1.758   9.422
 2795POPC   PO437260  16.895   1.209   9.601
 2795POPC   GL137261  16.930   1.452   9.192
 2795POPC   GL237262  16.627   1.330   9.107
 2795POPC   C1A37263  16.938   1.445   8.713
 2795POPC   D2A37264  16.741   1.478   8.266
 2795POPC   C3A37265  16.978   1.399   7.872
 2795POPC   C4A37266  16.999   1.442   7.409
 2795POPC   C1B37267  16.705   1.004   8.780
 2795POPC   C2B37268  16.716   0.982   8.380
 2795POPC   C3B37269  16.650   1.022   7.974
 2795POPC   C4B37270  16.570   0.795   7.639
 2796POPC   NC337271  15.330   3.251   9.587
 2796POPC   PO437272  14.954   3.814   9.520
 2796POPC   GL137273  15.209   3.612   9.243
 2796POPC   GL237274  15.054   3.288   9.143
 2796POPC   C1A37275  15.214   3.666   8.815
 2796POPC   D2A37276  15.366   3.574   8.426
 2796POPC   C3A37277  15.018   3.586   8.141
 2796POPC   C4A37278  15.210   3.577   7.748
 2796POPC   C1B37279  15.446   3.201   8.895
 2796POPC   C2B37280  15.448   3.055   8.473
 2796POPC   C3B37281  15.281   3.165   8.084
 2796POPC   C4B37282  14.853   3.163   7.873
 2797POPC   NC337283  16.897  35.821   9.431
 2797POPC   PO437284  16.302  36.125   9.328
 2797POPC   GL137285  16.561  36.000   9.047
 2797POPC   GL237286  16.851  36.207   9.051
 2797POPC   C1A37287  16.548  36.146   8.638
 2797POPC   D2A37288  16.774  36.003   8.319
 2797POPC   C3A37289  16.756  36.219   7.961
 2797POPC   C4A37290  16.653  36.357   7.562
 2797POPC   C1B37291  17.061  36.052   8.750
 2797POPC   C2B37292  17.249  36.174   8.400
 2797POPC   C3B37293  17.231  36.005   7.992
 2797POPC   C4B37294  17.091  36.105   7.592
 2798POPC   NC337295  43.300  21.954   9.586
 2798POPC   PO437296  43.071  22.558   9.568
 2798POPC   GL137297  43.110  22.260   9.227
 2798POPC   GL237298  43.452  22.343   9.139
 2798POPC   C1A37299  43.005  21.994   8.843
 2798POPC   D2A37300  43.177  21.974   8.397
 2798POPC   C3A37301  42.903  22.099   8.065
 2798POPC   C4A37302  42.878  22.424   7.742
 2798POPC   C1B37303  43.507  21.960   8.917
 2798POPC   C2B37304  43.648  21.799   8.512
 2798POPC   C3B37305  43.580  21.816   8.049
 2798POPC   C4B37306  43.284  21.989   7.746
 2799POPC   NC337307  13.280   1.498   9.479
 2799POPC   PO437308  13.965   1.628   9.530
 2799POPC   GL137309  13.884   1.343   9.147
 2799POPC   GL237310  13.533   1.300   9.082
 2799POPC   C1A37311  13.857   1.163   8.713
 2799POPC   D2A37312  13.783   1.407   8.373
 2799POPC   C3A37313  13.981   1.429   7.973
 2799POPC   C4A37314  13.878   1.199   7.593
 2799POPC   C1B37315  13.352   1.048   8.762
 2799POPC   C2B37316  13.456   1.014   8.371
 2799POPC   C3B37317  13.544   1.166   7.982
 2799POPC   C4B37318  13.395   0.785   7.811
 2800POPC   NC337319   6.377  22.296   9.510
 2800POPC   PO437320   6.981  22.486   9.201
 2800POPC   GL137321   6.613  22.290   9.016
 2800POPC   GL237322   6.536  21.958   8.955
 2800POPC   C1A37323   6.391  22.290   8.615
 2800POPC   D2A37324   6.215  22.579   8.345
 2800POPC   C3A37325   6.323  22.384   7.951
 2800POPC   C4A37326   6.786  22.434   7.908
 2800POPC   C1B37327   6.819  21.993   8.603
 2800POPC   C2B37328   6.703  22.020   8.196
 2800POPC   C3B37329   6.728  21.954   7.774
 2800POPC   C4B37330   6.433  21.905   7.423
 2801POPC   NC337331  28.243  40.252   9.603
 2801POPC   PO437332  28.668  39.661   9.654
 2801POPC   GL137333  28.515  39.982   9.264
 2801POPC   GL237334  28.603  40.340   9.246
 2801POPC   C1A37335  28.248  40.033   8.847
 2801POPC   D2A37336  28.143  40.087   8.382
 2801POPC   C3A37337  28.218  39.804   8.003
 2801POPC   C4A37338  28.029  39.882   7.592
 2801POPC   C1B37339  28.651  40.360   8.796
 2801POPC   C2B37340  28.540  40.403   8.391
 2801POPC   C3B37341  28.422  40.261   7.992
 2801POPC   C4B37342  28.282  40.346   7.611
 2802POPC   NC337343  12.325   9.362   9.385
 2802POPC   PO437344  12.165   8.776   9.659
 2802POPC   GL137345  12.049   8.963   9.222
 2802POPC   GL237346  12.011   9.301   9.017
 2802POPC   C1A37347  11.995   8.867   8.773
 2802POPC   D2A37348  12.129   8.960   8.366
 2802POPC   C3A37349  11.920   9.092   7.976
 2802POPC   C4A37350  11.892   8.841   7.596
 2802POPC   C1B37351  12.365   9.390   8.737
 2802POPC   C2B37352  12.592   9.177   8.431
 2802POPC   C3B37353  12.438   9.234   8.052
 2802POPC   C4B37354  12.353   9.092   7.666
 2803POPC   NC337355  40.136  17.280   9.576
 2803POPC   PO437356  39.860  17.822   9.469
 2803POPC   GL137357  40.032  17.575   9.123
 2803POPC   GL237358  40.339  17.324   9.111
 2803POPC   C1A37359  40.295  17.733   8.783
 2803POPC   D2A37360  40.427  17.834   8.379
 2803POPC   C3A37361  40.156  17.645   8.108
 2803POPC   C4A37362  40.031  17.493   7.737
 2803POPC   C1B37363  40.236  17.083   8.749
 2803POPC   C2B37364  40.083  17.152   8.331
 2803POPC   C3B37365  40.259  17.061   7.944
 2803POPC   C4B37366  40.310  17.134   7.483
 2804POPC   NC337367  36.757   4.505   9.655
 2804POPC   PO437368  36.774   3.779   9.576
 2804POPC   GL137369  36.823   4.127   9.232
 2804POPC   GL237370  36.883   4.485   9.173
 2804POPC   C1A37371  36.673   4.210   8.796
 2804POPC   D2A37372  36.568   4.270   8.362
 2804POPC   C3A37373  36.751   4.251   7.997
 2804POPC   C4A37374  37.098   4.297   7.803
 2804POPC   C1B37375  37.089   4.533   8.818
 2804POPC   C2B37376  36.920   4.624   8.468
 2804POPC   C3B37377  36.663   4.753   8.185
 2804POPC   C4B37378  36.848   4.739   7.792
 2805POPC   NC337379  41.838  18.962   9.789
 2805POPC   PO437380  41.319  19.124   9.457
 2805POPC   GL137381  41.588  18.961   9.159
 2805POPC   GL237382  41.859  18.718   9.100
 2805POPC   C1A37383  41.461  18.939   8.755
 2805POPC   D2A37384  41.563  18.763   8.365
 2805POPC   C3A37385  41.380  19.048   8.059
 2805POPC   C4A37386  41.379  18.922   7.651
 2805POPC   C1B37387  41.966  18.959   8.704
 2805POPC   C2B37388  41.931  19.101   8.291
 2805POPC   C3B37389  41.847  18.902   7.909
 2805POPC   C4B37390  41.866  19.196   7.574
 2806POPC   NC337391  16.508   6.319   9.528
 2806POPC   PO437392  16.960   6.811   9.616
 2806POPC   GL137393  16.904   6.573   9.237
 2806POPC   GL237394  16.717   6.868   9.136
 2806POPC   C1A37395  16.803   6.458   8.788
 2806POPC   D2A37396  17.032   6.271   8.421
 2806POPC   C3A37397  16.948   6.409   8.034
 2806POPC   C4A37398  16.614   6.489   7.803
 2806POPC   C1B37399  16.596   6.974   8.721
 2806POPC   C2B37400  16.666   6.730   8.361
 2806POPC   C3B37401  16.688   6.946   8.009
 2806POPC   C4B37402  16.630   7.067   7.628
 2807POPC   NC337403  44.814   0.258   9.467
 2807POPC   PO437404  44.305   0.695   9.645
 2807POPC   GL137405  44.489   0.689   9.240
 2807POPC   GL237406  44.850   0.669   9.155
 2807POPC   C1A37407  44.428   0.729   8.820
 2807POPC   D2A37408  44.595   0.793   8.415
 2807POPC   C3A37409  44.555   0.401   8.184
 2807POPC   C4A37410  44.603   0.202   7.778
 2807POPC   C1B37411  44.861   0.439   8.752
 2807POPC   C2B37412   0.055   0.336   8.393
 2807POPC   C3B37413   0.009   0.652   8.140
 2807POPC   C4B37414  44.768   0.691   7.808
 2808POPC   NC337415   0.668  19.152   9.415
 2808POPC   PO437416  44.988  18.999   9.464
 2808POPC   GL137417   0.266  19.098   9.120
 2808POPC   GL237418   0.248  19.453   9.104
 2808POPC   C1A37419   0.491  18.941   8.728
 2808POPC   D2A37420   0.370  18.886   8.251
 2808POPC   C3A37421   0.423  19.016   7.795
 2808POPC   C4A37422   0.198  18.817   7.428
 2808POPC   C1B37423   0.587  19.473   8.809
 2808POPC   C2B37424   0.709  19.301   8.421
 2808POPC   C3B37425   0.615  19.463   8.049
 2808POPC   C4B37426   0.760  19.408   7.678
 2809POPC   NC337427  36.722  40.304   9.418
 2809POPC   PO437428  37.090  39.915   9.760
 2809POPC   GL137429  37.082  40.039   9.248
 2809POPC   GL237430  36.987  39.814   9.055
 2809POPC   C1A37431  37.077  40.273   8.827
 2809POPC   D2A37432  36.954  40.340   8.390
 2809POPC   C3A37433  37.268  40.318   8.109
 2809POPC   C4A37434  37.294  40.346   7.666
 2809POPC   C1B37435  36.762  39.885   8.652
 2809POPC   C2B37436  36.561  40.001   8.269
 2809POPC   C3B37437  36.613  39.889   7.848
 2809POPC   C4B37438  36.622  39.601   7.528
 2810POPC   NC337439  18.540  24.666   9.517
 2810POPC   PO437440  17.866  24.343   9.570
 2810POPC   GL137441  18.102  24.306   9.180
 2810POPC   GL237442  18.373  24.562   9.052
 2810POPC   C1A37443  18.002  24.340   8.792
 2810POPC   D2A37444  18.303  24.388   8.506
 2810POPC   C3A37445  18.096  24.261   8.158
 2810POPC   C4A37446  18.349  24.080   7.877
 2810POPC   C1B37447  18.636  24.745   8.716
 2810POPC   C2B37448  18.512  24.811   8.325
 2810POPC   C3B37449  18.485  24.558   7.986
 2810POPC   C4B37450  18.137  24.510   7.698
 2811POPC   NC337451  15.504  22.316   9.246
 2811POPC   PO437452  15.283  21.816   9.656
 2811POPC   GL137453  15.231  21.859   9.153
 2811POPC   GL237454  15.104  22.189   8.938
 2811POPC   C1A37455  15.275  21.790   8.689
 2811POPC   D2A37456  15.129  22.136   8.446
 2811POPC   C3A37457  15.105  22.107   8.060
 2811POPC   C4A37458  14.930  22.125   7.713
 2811POPC   C1B37459  15.396  22.503   8.665
 2811POPC   C2B37460  15.436  22.686   8.286
 2811POPC   C3B37461  15.356  22.533   7.903
 2811POPC   C4B37462  15.529  22.469   7.520
 2812POPC   NC337463   4.216  33.492   9.479
 2812POPC   PO437464   4.865  33.249   9.392
 2812POPC   GL137465   4.571  33.469   9.068
 2812POPC   GL237466   4.176  33.565   8.983
 2812POPC   C1A37467   4.558  33.721   8.685
 2812POPC   D2A37468   4.240  33.829   8.387
 2812POPC   C3A37469   4.278  33.630   8.002
 2812POPC   C4A37470   4.556  33.640   7.678
 2812POPC   C1B37471   3.976  33.977   8.825
 2812POPC   C2B37472   4.020  34.285   8.481
 2812POPC   C3B37473   3.945  34.201   8.032
 2812POPC   C4B37474   3.943  33.878   7.694
 2813POPC   NC337475   9.292  11.584   9.495
 2813POPC   PO437476   9.705  11.001   9.537
 2813POPC   GL137477   9.846  11.101   9.136
 2813POPC   GL237478  10.061  10.901   9.111
 2813POPC   C1A37479   9.900  11.297   8.714
 2813POPC   D2A37480   9.984  11.473   8.270
 2813POPC   C3A37481   9.731  11.303   7.883
 2813POPC   C4A37482   9.719  11.400   7.427
 2813POPC   C1B37483  10.090  10.829   8.726
 2813POPC   C2B37484  10.051  10.972   8.327
 2813POPC   C3B37485  10.095  10.810   7.946
 2813POPC   C4B37486   9.924  10.920   7.523
 2814POPC   NC337487  36.829   5.633   9.639
 2814POPC   PO437488  36.795   6.234   9.398
 2814POPC   GL137489  37.038   6.083   9.096
 2814POPC   GL237490  37.075   5.745   9.186
 2814POPC   C1A37491  36.987   5.979   8.656
 2814POPC   D2A37492  36.786   5.691   8.400
 2814POPC   C3A37493  36.680   5.801   7.976
 2814POPC   C4A37494  36.852   6.104   7.695
 2814POPC   C1B37495  37.083   5.508   8.807
 2814POPC   C2B37496  37.222   5.443   8.373
 2814POPC   C3B37497  37.109   5.506   7.946
 2814POPC   C4B37498  36.983   5.630   7.524
 2815POPC   NC337499  12.298  15.371   9.435
 2815POPC   PO437500  11.784  14.926   9.587
 2815POPC   GL137501  11.899  15.135   9.207
 2815POPC   GL237502  12.170  15.010   9.092
 2815POPC   C1A37503  11.959  15.344   8.802
 2815POPC   D2A37504  11.936  15.222   8.405
 2815POPC   C3A37505  12.245  15.243   8.089
 2815POPC   C4A37506  12.027  15.335   7.725
 2815POPC   C1B37507  11.812  14.837   8.807
 2815POPC   C2B37508  11.827  14.637   8.401
 2815POPC   C3B37509  11.870  14.887   8.041
 2815POPC   C4B37510  11.700  14.960   7.631
 2816POPC   NC337511  12.079  39.216   9.487
 2816POPC   PO437512  11.558  39.614   9.228
 2816POPC   GL137513  11.849  39.411   9.050
 2816POPC   GL237514  11.847  39.078   9.068
 2816POPC   C1A37515  12.185  39.553   8.859
 2816POPC   D2A37516  12.336  39.500   8.477
 2816POPC   C3A37517  12.020  39.408   8.190
 2816POPC   C4A37518  11.912  39.454   7.765
 2816POPC   C1B37519  12.214  39.043   8.804
 2816POPC   C2B37520  12.290  38.967   8.364
 2816POPC   C3B37521  12.157  38.995   7.915
 2816POPC   C4B37522  11.767  38.956   7.707
 2817POPC   NC337523   4.674  29.895   9.557
 2817POPC   PO437524   5.316  30.035   9.418
 2817POPC   GL137525   5.215  29.726   9.130
 2817POPC   GL237526   4.891  29.908   9.092
 2817POPC   C1A37527   5.215  29.804   8.698
 2817POPC   D2A37528   5.163  30.044   8.330
 2817POPC   C3A37529   5.234  29.833   7.948
 2817POPC   C4A37530   5.089  29.608   7.600
 2817POPC   C1B37531   4.651  30.093   8.748
 2817POPC   C2B37532   4.476  30.107   8.328
 2817POPC   C3B37533   4.755  30.009   7.997
 2817POPC   C4B37534   4.794  30.028   7.573
 2818POPC   NC337535  27.239  21.273   9.488
 2818POPC   PO437536  27.913  21.193   9.388
 2818POPC   GL137537  27.573  21.355   9.121
 2818POPC   GL237538  27.366  21.065   9.042
 2818POPC   C1A37539  27.369  21.482   8.737
 2818POPC   D2A37540  27.562  21.639   8.361
 2818POPC   C3A37541  27.531  21.411   7.961
 2818POPC   C4A37542  27.480  21.678   7.639
 2818POPC   C1B37543  27.723  21.051   8.740
 2818POPC   C2B37544  27.826  21.203   8.339
 2818POPC   C3B37545  27.815  20.975   7.961
 2818POPC   C4B37546  27.828  21.066   7.562
 2819POPC   NC337547   7.342   0.872   9.438
 2819POPC   PO437548   7.190   1.529   9.486
 2819POPC   GL137549   7.365   1.567   9.081
 2819POPC   GL237550   7.550   1.245   9.106
 2819POPC   C1A37551   7.522   1.510   8.672
 2819POPC   D2A37552   7.484   1.171   8.384
 2819POPC   C3A37553   7.451   1.325   7.995
 2819POPC   C4A37554   7.341   1.622   7.764
 2819POPC   C1B37555   7.613   0.858   8.846
 2819POPC   C2B37556   7.576   0.671   8.435
 2819POPC   C3B37557   7.431   0.818   7.994
 2819POPC   C4B37558   7.582   0.903   7.566
 2820POPC   NC337559  17.217   6.433   9.642
 2820POPC   PO437560  17.691   6.873   9.612
 2820POPC   GL137561  17.486   6.676   9.265
 2820POPC   GL237562  17.277   6.958   9.233
 2820POPC   C1A37563  17.277   6.587   8.864
 2820POPC   D2A37564  17.256   6.719   8.423
 2820POPC   C3A37565  17.443   6.556   8.043
 2820POPC   C4A37566  17.680   6.614   7.671
 2820POPC   C1B37567  17.564   6.997   8.825
 2820POPC   C2B37568  17.533   7.153   8.393
 2820POPC   C3B37569  17.677   7.014   7.996
 2820POPC   C4B37570  17.509   7.101   7.582
 2821POPC   NC337571  29.549  36.092   9.336
 2821POPC   PO437572  30.246  36.237   9.355
 2821POPC   GL137573  30.253  36.060   9.006
 2821POPC   GL237574  29.907  36.198   8.937
 2821POPC   C1A37575  30.289  36.002   8.612
 2821POPC   D2A37576  29.945  36.096   8.396
 2821POPC   C3A37577  29.850  35.789   8.114
 2821POPC   C4A37578  30.110  35.949   7.796
 2821POPC   C1B37579  29.536  36.296   8.657
 2821POPC   C2B37580  29.457  36.108   8.251
 2821POPC   C3B37581  29.618  36.166   7.830
 2821POPC   C4B37582  29.611  36.613   7.678
 2822POPC   NC337583  14.171  19.408   9.530
 2822POPC   PO437584  14.046  20.040   9.379
 2822POPC   GL137585  14.312  19.721   9.158
 2822POPC   GL237586  14.656  19.627   9.180
 2822POPC   C1A37587  14.253  19.497   8.799
 2822POPC   D2A37588  14.128  19.735   8.417
 2822POPC   C3A37589  14.161  19.625   7.990
 2822POPC   C4A37590  14.310  19.700   7.557
 2822POPC   C1B37591  14.634  19.892   8.780
 2822POPC   C2B37592  14.629  19.784   8.334
 2822POPC   C3B37593  14.497  20.020   7.996
 2822POPC   C4B37594  14.646  20.108   7.567
 2823POPC   NC337595  28.122  17.879   9.651
 2823POPC   PO437596  28.547  17.432   9.512
 2823POPC   GL137597  28.473  17.555   9.130
 2823POPC   GL237598  28.204  17.786   9.145
 2823POPC   C1A37599  28.461  17.494   8.721
 2823POPC   D2A37600  28.458  17.328   8.345
 2823POPC   C3A37601  28.585  17.619   8.032
 2823POPC   C4A37602  28.491  17.438   7.725
 2823POPC   C1B37603  27.995  17.470   8.909
 2823POPC   C2B37604  27.957  17.434   8.471
 2823POPC   C3B37605  28.076  17.558   8.048
 2823POPC   C4B37606  28.001  17.574   7.591
 2824POPC   NC337607  33.349  25.854   9.489
 2824POPC   PO437608  32.807  26.211   9.528
 2824POPC   GL137609  33.048  26.153   9.177
 2824POPC   GL237610  32.946  25.816   9.141
 2824POPC   C1A37611  33.218  26.156   8.770
 2824POPC   D2A37612  33.034  26.298   8.404
 2824POPC   C3A37613  33.192  26.198   8.020
 2824POPC   C4A37614  33.010  26.082   7.641
 2824POPC   C1B37615  33.112  25.650   8.766
 2824POPC   C2B37616  33.105  25.757   8.325
 2824POPC   C3B37617  33.304  25.707   7.918
 2824POPC   C4B37618  33.559  26.002   7.692
 2825POPC   NC337619  10.939  24.364   9.638
 2825POPC   PO437620  11.241  23.837   9.618
 2825POPC   GL137621  11.078  23.862   9.204
 2825POPC   GL237622  11.415  23.926   9.134
 2825POPC   C1A37623  11.144  23.643   8.786
 2825POPC   D2A37624  10.920  23.452   8.426
 2825POPC   C3A37625  11.016  23.593   8.005
 2825POPC   C4A37626  11.392  23.532   7.777
 2825POPC   C1B37627  11.483  24.030   8.717
 2825POPC   C2B37628  11.411  23.868   8.291
 2825POPC   C3B37629  11.570  23.999   7.869
 2825POPC   C4B37630  11.581  23.847   7.416
 2826POPC   NC337631  39.602   5.507   9.412
 2826POPC   PO437632  39.454   4.779   9.612
 2826POPC   GL137633  39.304   5.072   9.308
 2826POPC   GL237634  39.475   4.984   9.039
 2826POPC   C1A37635  39.068   5.293   8.951
 2826POPC   D2A37636  39.015   5.301   8.495
 2826POPC   C3A37637  39.381   5.174   8.240
 2826POPC   C4A37638  39.198   5.091   7.852
 2826POPC   C1B37639  39.128   4.797   8.824
 2826POPC   C2B37640  39.115   4.765   8.396
 2826POPC   C3B37641  38.973   4.652   8.011
 2826POPC   C4B37642  39.144   4.696   7.544
 2827POPC   NC337643   1.358   2.321   9.480
 2827POPC   PO437644   0.876   1.841   9.421
 2827POPC   GL137645   1.179   1.737   9.121
 2827POPC   GL237646   1.455   1.958   9.150
 2827POPC   C1A37647   1.211   1.891   8.708
 2827POPC   D2A37648   1.335   1.698   8.361
 2827POPC   C3A37649   1.186   1.915   8.008
 2827POPC   C4A37650   1.023   2.320   7.882
 2827POPC   C1B37651   1.654   2.145   8.802
 2827POPC   C2B37652   1.571   2.146   8.395
 2827POPC   C3B37653   1.456   2.429   8.126
 2827POPC   C4B37654   1.599   2.194   7.796
 2828POPC   NC337655   2.589   4.165   9.749
 2828POPC   PO437656   2.966   4.649   9.394
 2828POPC   GL137657   2.893   4.406   9.072
 2828POPC   GL237658   3.005   4.103   9.192
 2828POPC   C1A37659   3.089   4.260   8.703
 2828POPC   D2A37660   3.035   4.435   8.326
 2828POPC   C3A37661   3.028   4.141   8.022
 2828POPC   C4A37662   2.881   4.287   7.647
 2828POPC   C1B37663   2.672   3.979   8.878
 2828POPC   C2B37664   2.713   4.053   8.437
 2828POPC   C3B37665   2.558   4.318   8.102
 2828POPC   C4B37666   2.430   4.076   7.779
 2829POPC   NC337667  35.163  35.802   9.346
 2829POPC   PO437668  34.941  35.192   9.465
 2829POPC   GL137669  35.243  35.320   9.156
 2829POPC   GL237670  35.546  35.493   9.195
 2829POPC   C1A37671  35.412  35.277   8.727
 2829POPC   D2A37672  35.364  34.921   8.464
 2829POPC   C3A37673  35.256  34.945   8.044
 2829POPC   C4A37674  35.404  35.266   7.806
 2829POPC   C1B37675  35.669  35.729   8.839
 2829POPC   C2B37676  35.836  35.743   8.445
 2829POPC   C3B37677  35.571  35.629   8.132
 2829POPC   C4B37678  35.689  35.673   7.728
 2830POPC   NC337679  33.522  41.062   9.415
 2830POPC   PO437680  33.349  40.429   9.409
 2830POPC   GL137681  33.170  40.707   9.096
 2830POPC   GL237682  33.287  40.975   8.975
 2830POPC   C1A37683  32.937  40.651   8.730
 2830POPC   D2A37684  33.026  40.402   8.392
 2830POPC   C3A37685  33.010  40.670   8.078
 2830POPC   C4A37686  32.863  40.888   7.753
 2830POPC   C1B37687  33.518  41.072   8.654
 2830POPC   C2B37688  33.438  40.944   8.234
 2830POPC   C3B37689  33.402  40.850   7.794
 2830POPC   C4B37690  33.640  40.856   7.390
 2831POPC   NC337691  10.601  29.394   9.620
 2831POPC   PO437692  10.145  28.976   9.615
 2831POPC   GL137693  10.315  29.175   9.250
 2831POPC   GL237694  10.676  29.181   9.171
 2831POPC   C1A37695  10.231  29.186   8.838
 2831POPC   D2A37696  10.331  29.445   8.499
 2831POPC   C3A37697  10.303  29.279   8.058
 2831POPC   C4A37698  10.180  29.306   7.628
 2831POPC   C1B37699  10.736  29.085   8.757
 2831POPC   C2B37700  10.590  28.987   8.360
 2831POPC   C3B37701  10.757  29.133   7.952
 2831POPC   C4B37702  10.720  29.330   7.532
 2832POPC   NC337703  31.437  22.517   9.567
 2832POPC   PO437704  31.395  23.265   9.586
 2832POPC   GL137705  31.441  22.962   9.245
 2832POPC   GL237706  31.703  22.702   9.194
 2832POPC   C1A37707  31.486  22.972   8.805
 2832POPC   D2A37708  31.363  22.727   8.459
 2832POPC   C3A37709  31.450  22.984   8.103
 2832POPC   C4A37710  31.363  22.896   7.685
 2832POPC   C1B37711  31.823  22.556   8.808
 2832POPC   C2B37712  31.857  22.751   8.406
 2832POPC   C3B37713  31.741  22.571   8.018
 2832POPC   C4B37714  31.960  22.517   7.651
 2833POPC   NC337715  44.951   4.127   9.546
 2833POPC   PO437716   0.563   4.414   9.738
 2833POPC   GL137717   0.454   4.163   9.331
 2833POPC   GL237718   0.748   4.059   9.134
 2833POPC   C1A37719   0.372   4.173   8.849
 2833POPC   D2A37720   0.658   4.078   8.473
 2833POPC   C3A37721   0.415   4.115   8.087
 2833POPC   C4A37722   0.344   4.497   7.887
 2833POPC   C1B37723   0.865   4.423   8.867
 2833POPC   C2B37724   0.799   4.693   8.480
 2833POPC   C3B37725   0.815   4.469   8.083
 2833POPC   C4B37726   0.817   4.256   7.684
 2834POPC   NC337727  43.569  19.034   9.628
 2834POPC   PO437728  43.704  19.647   9.819
 2834POPC   GL137729  43.819  19.344   9.315
 2834POPC   GL237730  43.713  19.033   9.138
 2834POPC   C1A37731  43.937  19.385   8.842
 2834POPC   D2A37732  43.874  19.613   8.441
 2834POPC   C3A37733  43.765  19.422   8.061
 2834POPC   C4A37734  43.752  19.218   7.676
 2834POPC   C1B37735  43.969  18.860   8.790
 2834POPC   C2B37736  44.109  18.989   8.352
 2834POPC   C3B37737  44.016  18.872   7.939
 2834POPC   C4B37738  44.215  18.747   7.539
 2835POPC   NC337739  35.522   8.359   9.671
 2835POPC   PO437740  35.016   8.002   9.474
 2835POPC   GL137741  35.250   8.177   9.148
 2835POPC   GL237742  35.390   8.470   9.139
 2835POPC   C1A37743  35.311   8.206   8.709
 2835POPC   D2A37744  35.641   8.086   8.468
 2835POPC   C3A37745  35.567   8.180   8.079
 2835POPC   C4A37746  35.716   8.165   7.656
 2835POPC   C1B37747  35.558   8.660   8.757
 2835POPC   C2B37748  35.404   8.605   8.333
 2835POPC   C3B37749  35.518   8.638   7.894
 2835POPC   C4B37750  35.467   8.580   7.449
 2836POPC   NC337751   1.096  25.835   9.975
 2836POPC   PO437752   0.978  26.139   9.413
 2836POPC   GL137753   1.197  25.993   9.106
 2836POPC   GL237754   0.948  25.839   8.995
 2836POPC   C1A37755   1.379  26.089   8.730
 2836POPC   D2A37756   1.332  26.377   8.375
 2836POPC   C3A37757   1.316  26.218   7.943
 2836POPC   C4A37758   1.557  26.238   7.544
 2836POPC   C1B37759   0.851  26.030   8.649
 2836POPC   C2B37760   0.899  26.106   8.249
 2836POPC   C3B37761   0.837  26.059   7.836
 2836POPC   C4B37762   0.686  26.352   7.524
 2837POPC   NC337763  30.966  19.611   9.599
 2837POPC   PO437764  30.422  19.294   9.463
 2837POPC   GL137765  30.610  19.148   9.114
 2837POPC   GL237766  30.906  19.236   9.231
 2837POPC   C1A37767  30.623  19.233   8.691
 2837POPC   D2A37768  30.674  19.068   8.303
 2837POPC   C3A37769  30.558  19.303   7.961
 2837POPC   C4A37770  30.420  18.985   7.668
 2837POPC   C1B37771  31.103  19.291   8.849
 2837POPC   C2B37772  31.039  19.427   8.442
 2837POPC   C3B37773  31.136  19.187   8.130
 2837POPC   C4B37774  30.942  18.981   7.815
 2838POPC   NC337775  21.905  44.670   9.545
 2838POPC   PO437776  22.435  44.201   9.410
 2838POPC   GL137777  22.176  44.504   9.132
 2838POPC   GL237778  22.161  44.897   9.163
 2838POPC   C1A37779  22.088  44.612   8.718
 2838POPC   D2A37780  22.292  44.519   8.343
 2838POPC   C3A37781  21.992  44.559   8.022
 2838POPC   C4A37782  22.089  44.697   7.641
 2838POPC   C1B37783  22.452   0.064   8.893
 2838POPC   C2B37784  22.517  44.999   8.460
 2838POPC   C3B37785  22.370  44.945   8.053
 2838POPC   C4B37786  22.542  44.925   7.688
 2839POPC   NC337787   8.919  10.192   9.562
 2839POPC   PO437788   8.736   9.581   9.727
 2839POPC   GL137789   8.720   9.554   9.240
 2839POPC   GL237790   8.924   9.832   9.152
 2839POPC   C1A37791   8.823   9.497   8.765
 2839POPC   D2A37792   9.194   9.472   8.445
 2839POPC   C3A37793   9.109   9.554   7.991
 2839POPC   C4A37794   8.776   9.626   7.669
 2839POPC   C1B37795   9.064   9.958   8.719
 2839POPC   C2B37796   9.070  10.026   8.273
 2839POPC   C3B37797   8.950  10.079   7.839
 2839POPC   C4B37798   8.676  10.311   7.560
 2840POPC   NC337799  35.107  32.324   9.575
 2840POPC   PO437800  35.788  32.193   9.615
 2840POPC   GL137801  35.493  32.195   9.249
 2840POPC   GL237802  35.188  31.919   9.246
 2840POPC   C1A37803  35.523  32.468   8.850
 2840POPC   D2A37804  35.654  32.625   8.423
 2840POPC   C3A37805  35.471  32.502   8.037
 2840POPC   C4A37806  35.522  32.206   7.738
 2840POPC   C1B37807  35.339  31.993   8.805
 2840POPC   C2B37808  35.257  32.212   8.407
 2840POPC   C3B37809  35.089  32.113   7.975
 2840POPC   C4B37810  35.154  32.055   7.444
 2841POPC   NC337811  16.920   3.217   9.342
 2841POPC   PO437812  16.862   2.556   9.412
 2841POPC   GL137813  16.608   2.838   9.175
 2841POPC   GL237814  16.415   3.139   9.226
 2841POPC   C1A37815  16.744   2.896   8.771
 2841POPC   D2A37816  16.655   2.745   8.387
 2841POPC   C3A37817  16.903   2.668   8.057
 2841POPC   C4A37818  16.921   2.959   7.716
 2841POPC   C1B37819  16.297   3.136   8.769
 2841POPC   C2B37820  16.191   2.976   8.324
 2841POPC   C3B37821  16.470   2.938   7.949
 2841POPC   C4B37822  16.469   3.079   7.498
 2842POPC   NC337823  20.897  36.429   9.502
 2842POPC   PO437824  21.540  36.108   9.679
 2842POPC   GL137825  21.559  36.010   9.229
 2842POPC   GL237826  21.199  35.982   9.131
 2842POPC   C1A37827  21.506  36.245   8.809
 2842POPC   D2A37828  21.313  36.309   8.389
 2842POPC   C3A37829  21.609  36.320   8.011
 2842POPC   C4A37830  21.650  35.971   7.696
 2842POPC   C1B37831  20.987  36.123   8.781
 2842POPC   C2B37832  20.826  35.926   8.409
 2842POPC   C3B37833  20.925  36.148   8.096
 2842POPC   C4B37834  21.185  36.180   7.774
 2843POPC   NC337835  21.990  38.665   9.530
 2843POPC   PO437836  21.780  38.022   9.594
 2843POPC   GL137837  22.101  38.242   9.254
 2843POPC   GL237838  22.235  38.605   9.100
 2843POPC   C1A37839  22.377  38.196   8.848
 2843POPC   D2A37840  22.225  38.431   8.484
 2843POPC   C3A37841  22.386  38.360   8.061
 2843POPC   C4A37842  22.301  38.419   7.637
 2843POPC   C1B37843  21.851  38.566   8.826
 2843POPC   C2B37844  21.747  38.714   8.368
 2843POPC   C3B37845  21.943  38.686   7.932
 2843POPC   C4B37846  21.958  38.781   7.462
 2844POPC   NC337847   7.937  20.237   9.520
 2844POPC   PO437848   8.304  19.759   9.407
 2844POPC   GL137849   8.165  19.989   9.084
 2844POPC   GL237850   7.812  20.078   9.054
 2844POPC   C1A37851   8.335  19.860   8.694
 2844POPC   D2A37852   8.205  19.865   8.264
 2844POPC   C3A37853   8.487  19.733   7.954
 2844POPC   C4A37854   8.404  19.599   7.494
 2844POPC   C1B37855   7.834  19.898   8.643
 2844POPC   C2B37856   7.905  19.470   8.422
 2844POPC   C3B37857   8.068  19.429   7.996
 2844POPC   C4B37858   8.028  19.852   7.793
 2845POPC   NC337859   1.660   0.677   9.468
 2845POPC   PO437860   0.954   0.331   9.519
 2845POPC   GL137861   1.239   0.489   9.207
 2845POPC   GL237862   1.474   0.225   9.196
 2845POPC   C1A37863   1.448   0.689   8.840
 2845POPC   D2A37864   1.251   0.613   8.460
 2845POPC   C3A37865   1.362   0.794   8.096
 2845POPC   C4A37866   1.332   0.576   7.715
 2845POPC   C1B37867   1.694   0.230   8.804
 2845POPC   C2B37868   1.705   0.425   8.394
 2845POPC   C3B37869   1.574   0.241   8.004
 2845POPC   C4B37870   1.620  44.995   7.609
 2846POPC   NC337871  17.228  36.668   9.670
 2846POPC   PO437872  17.466  37.238   9.492
 2846POPC   GL137873  17.421  36.877   9.154
 2846POPC   GL237874  17.106  36.643   9.183
 2846POPC   C1A37875  17.715  36.705   8.785
 2846POPC   D2A37876  17.973  36.794   8.377
 2846POPC   C3A37877  17.755  36.877   8.045
 2846POPC   C4A37878  17.576  37.143   7.776
 2846POPC   C1B37879  17.220  36.539   8.783
 2846POPC   C2B37880  17.365  36.725   8.405
 2846POPC   C3B37881  17.247  36.776   7.986
 2846POPC   C4B37882  17.076  36.607   7.639
 2847POPC   NC337883  22.116   8.130   9.752
 2847POPC   PO437884  22.513   8.646   9.514
 2847POPC   GL137885  22.268   8.365   9.285
 2847POPC   GL237886  22.191   8.016   9.230
 2847POPC   C1A37887  22.260   8.318   8.838
 2847POPC   D2A37888  22.209   8.418   8.436
 2847POPC   C3A37889  21.997   8.203   8.125
 2847POPC   C4A37890  22.000   8.492   7.790
 2847POPC   C1B37891  22.402   7.816   8.886
 2847POPC   C2B37892  22.331   7.936   8.479
 2847POPC   C3B37893  22.471   7.907   8.070
 2847POPC   C4B37894  22.277   8.030   7.728
 2848POPC   NC337895   2.816  24.100   9.395
 2848POPC   PO437896   2.688  24.758   9.411
 2848POPC   GL137897   2.714  24.579   9.056
 2848POPC   GL237898   2.534  24.284   9.026
 2848POPC   C1A37899   2.903  24.474   8.682
 2848POPC   D2A37900   3.197  24.441   8.373
 2848POPC   C3A37901   2.987  24.397   8.000
 2848POPC   C4A37902   2.831  24.581   7.628
 2848POPC   C1B37903   2.375  24.527   8.687
 2848POPC   C2B37904   2.530  24.574   8.296
 2848POPC   C3B37905   2.437  24.396   7.910
 2848POPC   C4B37906   2.357  24.748   7.684
 2849POPC   NC337907  30.006  29.485   9.805
 2849POPC   PO437908  30.294  29.137   9.303
 2849POPC   GL137909  30.117  28.976   8.996
 2849POPC   GL237910  29.805  29.029   9.043
 2849POPC   C1A37911  30.113  28.793   8.658
 2849POPC   D2A37912  30.267  29.154   8.439
 2849POPC   C3A37913  30.309  29.193   8.021
 2849POPC   C4A37914  29.980  29.074   7.763
 2849POPC   C1B37915  29.805  29.218   8.647
 2849POPC   C2B37916  29.549  29.312   8.288
 2849POPC   C3B37917  29.679  29.448   7.887
 2849POPC   C4B37918  29.490  29.616   7.486
 2850POPC   NC337919  40.951  23.573   9.612
 2850POPC   PO437920  40.494  23.971   9.615
 2850POPC   GL137921  40.790  23.849   9.218
 2850POPC   GL237922  40.846  23.481   9.101
 2850POPC   C1A37923  40.912  23.933   8.778
 2850POPC   D2A37924  40.630  23.891   8.402
 2850POPC   C3A37925  40.759  23.690   8.026
 2850POPC   C4A37926  41.044  23.839   7.707
 2850POPC   C1B37927  40.791  23.467   8.634
 2850POPC   C2B37928  41.071  23.370   8.296
 2850POPC   C3B37929  41.071  23.331   7.874
 2850POPC   C4B37930  40.851  23.432   7.497
 2851POPC   NC337931  31.280  18.417   9.521
 2851POPC   PO437932  31.878  18.050   9.716
 2851POPC   GL137933  31.595  18.057   9.331
 2851POPC   GL237934  31.619  18.384   9.146
 2851POPC   C1A37935  31.387  17.930   8.941
 2851POPC   D2A37936  31.564  17.828   8.534
 2851POPC   C3A37937  31.417  18.041   8.195
 2851POPC   C4A37938  31.335  18.231   7.807
 2851POPC   C1B37939  31.700  18.286   8.758
 2851POPC   C2B37940  31.651  18.434   8.391
 2851POPC   C3B37941  31.802  18.343   8.012
 2851POPC   C4B37942  31.770  18.508   7.638
 2852POPC   NC337943  38.010  37.375   9.546
 2852POPC   PO437944  37.520  37.790   9.612
 2852POPC   GL137945  37.629  37.769   9.161
 2852POPC   GL237946  37.952  37.834   9.029
 2852POPC   C1A37947  37.504  37.746   8.718
 2852POPC   D2A37948  37.726  37.833   8.342
 2852POPC   C3A37949  37.566  37.816   7.908
 2852POPC   C4A37950  37.421  37.580   7.542
 2852POPC   C1B37951  37.870  37.405   8.885
 2852POPC   C2B37952  37.946  37.289   8.459
 2852POPC   C3B37953  37.804  37.406   8.056
 2852POPC   C4B37954  37.787  37.259   7.646
 2853POPC   NC337955  26.937  28.088   9.609
 2853POPC   PO437956  26.676  27.437   9.728
 2853POPC   GL137957  26.885  27.643   9.330
 2853POPC   GL237958  26.652  27.847   9.191
 2853POPC   C1A37959  27.068  27.739   8.868
 2853POPC   D2A37960  27.197  27.893   8.427
 2853POPC   C3A37961  26.908  27.744   8.115
 2853POPC   C4A37962  26.907  27.492   7.729
 2853POPC   C1B37963  26.582  27.465   8.919
 2853POPC   C2B37964  26.538  27.587   8.476
 2853POPC   C3B37965  26.463  27.503   8.036
 2853POPC   C4B37966  26.531  27.824   7.722
 2854POPC   NC337967  25.937   9.802   9.852
 2854POPC   PO437968  26.447   9.490   9.598
 2854POPC   GL137969  26.234   9.711   9.271
 2854POPC   GL237970  25.891   9.807   9.321
 2854POPC   C1A37971  26.280   9.797   8.830
 2854POPC   D2A37972  26.356   9.644   8.402
 2854POPC   C3A37973  26.006   9.446   8.229
 2854POPC   C4A37974  25.966   9.627   7.846
 2854POPC   C1B37975  25.797   9.999   8.901
 2854POPC   C2B37976  25.878   9.935   8.445
 2854POPC   C3B37977  25.715  10.062   8.031
 2854POPC   C4B37978  25.721   9.983   7.584
 2855POPC   NC337979  41.928   5.751   9.540
 2855POPC   PO437980  41.263   5.554   9.413
 2855POPC   GL137981  41.415   5.814   9.095
 2855POPC   GL237982  41.730   5.882   9.110
 2855POPC   C1A37983  41.318   6.001   8.731
 2855POPC   D2A37984  41.293   5.755   8.353
 2855POPC   C3A37985  41.559   5.799   8.011
 2855POPC   C4A37986  41.458   5.936   7.630
 2855POPC   C1B37987  41.836   6.133   8.797
 2855POPC   C2B37988  41.701   6.089   8.415
 2855POPC   C3B37989  41.705   6.313   8.089
 2855POPC   C4B37990  41.797   6.327   7.685
 2856POPC   NC337991  14.146  44.171   9.432
 2856POPC   PO437992  13.522  43.837   9.473
 2856POPC   GL137993  13.708  44.042   9.138
 2856POPC   GL237994  13.439  44.284   9.062
 2856POPC   C1A37995  13.883  43.838   8.765
 2856POPC   D2A37996  13.693  43.629   8.402
 2856POPC   C3A37997  13.842  43.726   7.984
 2856POPC   C4A37998  13.897  43.960   7.607
 2856POPC   C1B37999  13.472  44.115   8.672
 2856POPC   C2B38000  13.713  44.138   8.312
 2856POPC   C3B38001  13.512  44.124   7.923
 2856POPC   C4B38002  13.550  44.332   7.523
 2857POPC   NC338003  37.668  33.378   9.561
 2857POPC   PO438004  37.189  32.898   9.601
 2857POPC   GL138005  37.507  32.892   9.238
 2857POPC   GL238006  37.676  33.171   9.089
 2857POPC   C1A38007  37.765  32.680   8.907
 2857POPC   D2A38008  37.926  32.501   8.517
 2857POPC   C3A38009  37.949  32.772   8.135
 2857POPC   C4A38010  37.885  32.823   7.668
 2857POPC   C1B38011  37.454  33.057   8.747
 2857POPC   C2B38012  37.669  33.204   8.380
 2857POPC   C3B38013  37.521  33.374   8.007
 2857POPC   C4B38014  37.546  33.232   7.620
 2858POPC   NC338015  31.076  30.576   9.466
 2858POPC   PO438016  31.810  30.570   9.631
 2858POPC   GL138017  31.510  30.524   9.239
 2858POPC   GL238018  31.412  30.819   9.095
 2858POPC   C1A38019  31.460  30.351   8.817
 2858POPC   D2A38020  31.413  30.310   8.350
 2858POPC   C3A38021  31.775  30.441   8.076
 2858POPC   C4A38022  31.640  30.745   7.793
 2858POPC   C1B38023  31.224  30.765   8.679
 2858POPC   C2B38024  31.008  30.636   8.315
 2858POPC   C3B38025  31.116  30.672   7.895
 2858POPC   C4B38026  31.247  30.901   7.530
 2859POPC   NC338027  10.611  22.781   9.491
 2859POPC   PO438028  10.672  23.486   9.500
 2859POPC   GL138029  10.655  23.163   9.143
 2859POPC   GL238030  10.303  22.967   9.080
 2859POPC   C1A38031  10.632  23.118   8.697
 2859POPC   D2A38032  10.463  23.253   8.308
 2859POPC   C3A38033  10.789  23.110   7.982
 2859POPC   C4A38034  10.896  22.920   7.556
 2859POPC   C1B38035  10.207  22.859   8.607
 2859POPC   C2B38036  10.449  22.739   8.254
 2859POPC   C3B38037  10.370  22.834   7.829
 2859POPC   C4B38038  10.249  22.642   7.435
 2860POPC   NC338039  34.104  36.992   9.404
 2860POPC   PO438040  33.497  37.122   9.446
 2860POPC   GL138041  33.641  37.101   9.023
 2860POPC   GL238042  33.984  37.213   8.977
 2860POPC   C1A38043  33.691  37.171   8.560
 2860POPC   D2A38044  34.061  37.225   8.292
 2860POPC   C3A38045  33.980  37.009   7.902
 2860POPC   C4A38046  33.624  36.815   7.708
 2860POPC   C1B38047  33.953  36.778   8.790
 2860POPC   C2B38048  34.015  36.734   8.378
 2860POPC   C3B38049  33.933  36.491   8.046
 2860POPC   C4B38050  34.030  36.517   7.677
 2861POPC   NC338051   5.566  39.835   9.454
 2861POPC   PO438052   6.089  40.222   9.646
 2861POPC   GL138053   5.975  40.074   9.237
 2861POPC   GL238054   5.636  40.219   9.149
 2861POPC   C1A38055   5.917  39.750   8.883
 2861POPC   D2A38056   5.720  39.753   8.483
 2861POPC   C3A38057   5.950  39.658   8.144
 2861POPC   C4A38058   5.944  39.829   7.775
 2861POPC   C1B38059   5.854  40.238   8.773
 2861POPC   C2B38060   5.684  40.257   8.414
 2861POPC   C3B38061   5.908  40.211   8.081
 2861POPC   C4B38062   5.723  40.280   7.714
 2862POPC   NC338063   1.841  41.307   9.451
 2862POPC   PO438064   2.466  41.433   9.513
 2862POPC   GL138065   2.250  41.587   9.146
 2862POPC   GL238066   1.906  41.490   8.998
 2862POPC   C1A38067   2.336  41.642   8.721
 2862POPC   D2A38068   2.372  41.422   8.347
 2862POPC   C3A38069   2.381  41.723   8.053
 2862POPC   C4A38070   2.189  41.630   7.706
 2862POPC   C1B38071   1.810  41.523   8.565
 2862POPC   C2B38072   1.855  41.581   8.111
 2862POPC   C3B38073   1.712  41.791   7.729
 2862POPC   C4B38074   1.705  41.486   7.399
 2863POPC   NC338075  20.416  43.588   9.504
 2863POPC   PO438076  21.020  43.872   9.644
 2863POPC   GL138077  20.714  43.862   9.199
 2863POPC   GL238078  20.383  43.981   9.182
 2863POPC   C1A38079  20.682  44.093   8.771
 2863POPC   D2A38080  20.795  43.951   8.378
 2863POPC   C3A38081  20.613  43.942   8.016
 2863POPC   C4A38082  20.803  44.017   7.646
 2863POPC   C1B38083  20.402  43.667   8.827
 2863POPC   C2B38084  20.236  43.695   8.406
 2863POPC   C3B38085  20.206  43.539   7.987
 2863POPC   C4B38086  20.396  43.708   7.625
 2864POPC   NC338087   4.489  21.975   9.499
 2864POPC   PO438088   4.465  22.600   9.555
 2864POPC   GL138089   4.675  22.366   9.193
 2864POPC   GL238090   4.373  22.137   9.046
 2864POPC   C1A38091   4.642  22.428   8.730
 2864POPC   D2A38092   4.402  22.263   8.372
 2864POPC   C3A38093   4.586  22.350   7.946
 2864POPC   C4A38094   4.349  22.242   7.553
 2864POPC   C1B38095   4.282  21.810   8.767
 2864POPC   C2B38096   4.143  21.808   8.367
 2864POPC   C3B38097   4.318  21.924   7.961
 2864POPC   C4B38098   4.166  21.692   7.622
 2865POPC   NC338099  38.584  17.243   9.478
 2865POPC   PO438100  38.412  17.846   9.727
 2865POPC   GL138101  38.402  17.695   9.250
 2865POPC   GL238102  38.257  17.395   9.095
 2865POPC   C1A38103  38.621  17.606   8.812
 2865POPC   D2A38104  38.514  17.715   8.387
 2865POPC   C3A38105  38.610  17.439   8.031
 2865POPC   C4A38106  38.607  17.551   7.582
 2865POPC   C1B38107  38.132  17.782   8.782
 2865POPC   C2B38108  38.056  17.978   8.350
 2865POPC   C3B38109  38.248  17.819   7.949
 2865POPC   C4B38110  38.158  17.373   7.762
 2866POPC   NC338111  38.909  39.304   9.585
 2866POPC   PO438112  38.277  39.222   9.680
 2866POPC   GL138113  38.371  39.415   9.227
 2866POPC   GL238114  38.670  39.620   9.146
 2866POPC   C1A38115  38.332  39.563   8.764
 2866POPC   D2A38116  38.263  39.777   8.335
 2866POPC   C3A38117  38.264  39.523   7.943
 2866POPC   C4A38118  38.575  39.196   7.799
 2866POPC   C1B38119  38.882  39.526   8.752
 2866POPC   C2B38120  38.815  39.403   8.307
 2866POPC   C3B38121  38.945  39.532   7.892
 2866POPC   C4B38122  38.954  39.399   7.458
 2867POPC   NC338123  27.360  29.009   9.571
 2867POPC   PO438124  27.643  29.517   9.675
 2867POPC   GL138125  27.803  29.157   9.257
 2867POPC   GL238126  27.525  28.976   9.101
 2867POPC   C1A38127  27.760  29.187   8.714
 2867POPC   D2A38128  27.411  29.207   8.380
 2867POPC   C3A38129  27.572  29.379   7.992
 2867POPC   C4A38130  27.986  29.523   7.808
 2867POPC   C1B38131  27.329  28.825   8.739
 2867POPC   C2B38132  27.454  28.648   8.345
 2867POPC   C3B38133  27.534  28.873   7.959
 2867POPC   C4B38134  27.695  29.118   7.583
 2868POPC   NC338135  30.907   0.402   9.501
 2868POPC   PO438136  30.289   0.645   9.565
 2868POPC   GL138137  30.497   0.559   9.198
 2868POPC   GL238138  30.464   0.213   9.291
 2868POPC   C1A38139  30.748   0.474   8.823
 2868POPC   D2A38140  30.630   0.580   8.400
 2868POPC   C3A38141  30.922   0.498   8.057
 2868POPC   C4A38142  30.731   0.481   7.679
 2868POPC   C1B38143  30.422   0.078   8.891
 2868POPC   C2B38144  30.646  44.940   8.553
 2868POPC   C3B38145  30.594   0.118   8.163
 2868POPC   C4B38146  30.577  44.991   7.764
 2869POPC   NC338147   9.167  42.360   9.512
 2869POPC   PO438148   8.628  41.932   9.543
 2869POPC   GL138149   8.808  42.199   9.175
 2869POPC   GL238150   8.933  42.563   9.097
 2869POPC   C1A38151   9.007  42.127   8.782
 2869POPC   D2A38152   9.172  42.046   8.386
 2869POPC   C3A38153   8.881  42.232   8.142
 2869POPC   C4A38154   8.784  42.094   7.771
 2869POPC   C1B38155   8.950  42.604   8.635
 2869POPC   C2B38156   9.239  42.573   8.260
 2869POPC   C3B38157   9.193  42.471   7.793
 2869POPC   C4B38158   9.168  42.676   7.367
 2870POPC   NC338159   2.332  37.861   9.497
 2870POPC   PO438160   2.999  37.733   9.628
 2870POPC   GL138161   2.949  37.760   9.187
 2870POPC   GL238162   2.641  37.906   9.120
 2870POPC   C1A38163   2.957  37.622   8.754
 2870POPC   D2A38164   3.134  37.702   8.332
 2870POPC   C3A38165   3.022  37.498   7.972
 2870POPC   C4A38166   2.614  37.573   7.810
 2870POPC   C1B38167   2.474  37.855   8.746
 2870POPC   C2B38168   2.676  37.902   8.383
 2870POPC   C3B38169   2.705  38.073   8.010
 2870POPC   C4B38170   2.449  38.014   7.648
 2871POPC   NC338171  14.501   8.373   9.484
 2871POPC   PO438172  13.967   8.025   9.536
 2871POPC   GL138173  14.210   8.049   9.161
 2871POPC   GL238174  14.194   8.395   9.039
 2871POPC   C1A38175  14.623   7.942   8.954
 2871POPC   D2A38176  14.786   8.026   8.529
 2871POPC   C3A38177  14.560   8.057   8.129
 2871POPC   C4A38178  14.584   8.291   7.737
 2871POPC   C1B38179  14.266   8.129   8.648
 2871POPC   C2B38180  14.075   7.960   8.266
 2871POPC   C3B38181  14.096   8.208   7.893
 2871POPC   C4B38182  14.256   8.659   7.851
 2872POPC   NC338183  12.425  34.119   9.453
 2872POPC   PO438184  12.225  34.772   9.482
 2872POPC   GL138185  12.120  34.716   9.065
 2872POPC   GL238186  12.145  34.370   9.084
 2872POPC   C1A38187  12.016  34.641   8.627
 2872POPC   D2A38188  12.046  34.706   8.161
 2872POPC   C3A38189  12.322  34.536   7.824
 2872POPC   C4A38190  12.288  34.594   7.377
 2872POPC   C1B38191  11.933  34.157   8.769
 2872POPC   C2B38192  11.736  34.153   8.390
 2872POPC   C3B38193  11.727  34.265   7.976
 2872POPC   C4B38194  11.821  34.569   7.675
 2873POPC   NC338195  44.121   1.964   9.391
 2873POPC   PO438196  43.421   1.692   9.451
 2873POPC   GL138197  43.519   1.826   9.068
 2873POPC   GL238198  43.696   2.132   9.140
 2873POPC   C1A38199  43.779   1.792   8.710
 2873POPC   D2A38200  44.133   1.799   8.460
 2873POPC   C3A38201  43.996   1.884   8.050
 2873POPC   C4A38202  44.278   1.963   7.716
 2873POPC   C1B38203  43.553   2.256   8.745
 2873POPC   C2B38204  43.770   2.271   8.349
 2873POPC   C3B38205  43.592   2.300   7.937
 2873POPC   C4B38206  43.691   2.031   7.595
 2874POPC   NC338207   2.910  20.942   9.548
 2874POPC   PO438208   2.625  20.367   9.255
 2874POPC   GL138209   2.560  20.821   9.117
 2874POPC   GL238210   2.829  21.074   9.067
 2874POPC   C1A38211   2.627  20.805   8.658
 2874POPC   D2A38212   2.731  20.442   8.386
 2874POPC   C3A38213   2.913  20.430   7.987
 2874POPC   C4A38214   2.560  20.403   7.732
 2874POPC   C1B38215   3.082  21.014   8.698
 2874POPC   C2B38216   3.029  20.863   8.252
 2874POPC   C3B38217   2.949  20.901   7.775
 2874POPC   C4B38218   3.102  20.886   7.310
 2875POPC   NC338219   2.589  10.892   9.651
 2875POPC   PO438220   3.168  10.467   9.601
 2875POPC   GL138221   3.056  10.464   9.202
 2875POPC   GL238222   2.685  10.529   9.256
 2875POPC   C1A38223   2.962  10.553   8.771
 2875POPC   D2A38224   2.836  10.590   8.349
 2875POPC   C3A38225   2.917  10.268   8.028
 2875POPC   C4A38226   2.806  10.442   7.615
 2875POPC   C1B38227   2.471  10.414   8.825
 2875POPC   C2B38228   2.484  10.238   8.383
 2875POPC   C3B38229   2.428  10.413   7.958
 2875POPC   C4B38230   2.129  10.449   7.598
 2876POPC   NC338231  20.172  22.347   9.385
 2876POPC   PO438232  20.690  22.054   9.681
 2876POPC   GL138233  20.590  22.063   9.244
 2876POPC   GL238234  20.678  22.402   9.188
 2876POPC   C1A38235  20.700  22.046   8.795
 2876POPC   D2A38236  20.539  22.162   8.383
 2876POPC   C3A38237  20.778  22.097   8.014
 2876POPC   C4A38238  20.536  21.951   7.647
 2876POPC   C1B38239  20.435  22.487   8.780
 2876POPC   C2B38240  20.355  22.662   8.338
 2876POPC   C3B38241  20.406  22.442   7.922
 2876POPC   C4B38242  20.623  22.453   7.523
 2877POPC   NC338243  19.661   1.360   9.457
 2877POPC   PO438244  20.148   0.985   9.472
 2877POPC   GL138245  19.934   1.053   9.074
 2877POPC   GL238246  19.564   1.057   9.056
 2877POPC   C1A38247  20.049   1.254   8.673
 2877POPC   D2A38248  20.118   1.514   8.288
 2877POPC   C3A38249  20.146   1.199   7.953
 2877POPC   C4A38250  19.841   0.921   7.714
 2877POPC   C1B38251  19.633   1.481   8.845
 2877POPC   C2B38252  19.610   1.500   8.433
 2877POPC   C3B38253  19.645   1.282   8.061
 2877POPC   C4B38254  19.395   1.176   7.719
 2878POPC   NC338255  23.690  11.724   9.553
 2878POPC   PO438256  23.566  12.395   9.470
 2878POPC   GL138257  23.526  12.210   9.074
 2878POPC   GL238258  23.866  12.160   9.074
 2878POPC   C1A38259  23.502  11.987   8.669
 2878POPC   D2A38260  23.600  11.809   8.239
 2878POPC   C3A38261  23.454  11.966   7.855
 2878POPC   C4A38262  23.540  12.171   7.481
 2878POPC   C1B38263  23.908  12.361   8.696
 2878POPC   C2B38264  23.938  12.195   8.306
 2878POPC   C3B38265  23.864  12.290   7.885
 2878POPC   C4B38266  24.043  12.374   7.482
 2879POPC   NC338267  25.168  38.564   9.588
 2879POPC   PO438268  25.379  37.956   9.796
 2879POPC   GL138269  25.440  38.257   9.311
 2879POPC   GL238270  25.184  38.473   9.099
 2879POPC   C1A38271  25.532  38.229   8.834
 2879POPC   D2A38272  25.560  38.489   8.467
 2879POPC   C3A38273  25.409  38.362   8.068
 2879POPC   C4A38274  25.153  38.198   7.728
 2879POPC   C1B38275  24.893  38.729   8.850
 2879POPC   C2B38276  25.013  38.648   8.432
 2879POPC   C3B38277  24.911  38.575   8.019
 2879POPC   C4B38278  25.043  38.703   7.617
 2880POPC   NC338279  18.056  43.240   9.587
 2880POPC   PO438280  18.342  42.606   9.587
 2880POPC   GL138281  18.257  42.904   9.196
 2880POPC   GL238282  18.052  43.248   9.097
 2880POPC   C1A38283  18.393  43.065   8.779
 2880POPC   D2A38284  18.410  42.920   8.364
 2880POPC   C3A38285  18.444  43.171   8.003
 2880POPC   C4A38286  18.783  43.219   7.697
 2880POPC   C1B38287  17.871  43.207   8.693
 2880POPC   C2B38288  17.972  43.214   8.253
 2880POPC   C3B38289  17.961  43.322   7.821
 2880POPC   C4B38290  17.984  43.410   7.370
 2881POPC   NC338291   4.962  28.040   9.669
 2881POPC   PO438292   4.682  28.598   9.566
 2881POPC   GL138293   4.898  28.330   9.228
 2881POPC   GL238294   5.251  28.301   9.195
 2881POPC   C1A38295   4.723  28.250   8.811
 2881POPC   D2A38296   4.867  28.066   8.419
 2881POPC   C3A38297   4.926  28.383   8.105
 2881POPC   C4A38298   4.773  28.257   7.714
 2881POPC   C1B38299   5.197  28.557   8.820
 2881POPC   C2B38300   5.343  28.587   8.395
 2881POPC   C3B38301   5.443  28.239   8.153
 2881POPC   C4B38302   5.236  28.085   7.825
 2882POPC   NC338303  25.978  19.868   9.584
 2882POPC   PO438304  26.633  20.174   9.623
 2882POPC   GL138305  26.296  20.101   9.284
 2882POPC   GL238306  26.362  19.754   9.191
 2882POPC   C1A38307  26.064  20.008   8.882
 2882POPC   D2A38308  26.110  19.926   8.426
 2882POPC   C3A38309  25.941  20.206   8.101
 2882POPC   C4A38310  25.722  20.167   7.699
 2882POPC   C1B38311  26.467  19.580   8.795
 2882POPC   C2B38312  26.398  19.363   8.414
 2882POPC   C3B38313  26.056  19.452   8.163
 2882POPC   C4B38314  25.927  19.714   7.847
 2883POPC   NC338315  36.925  34.184   9.613
 2883POPC   PO438316  37.260  33.634   9.510
 2883POPC   GL138317  37.122  33.904   9.200
 2883POPC   GL238318  36.760  33.944   9.198
 2883POPC   C1A38319  37.235  34.057   8.808
 2883POPC   D2A38320  36.924  33.988   8.525
 2883POPC   C3A38321  36.814  34.020   8.104
 2883POPC   C4A38322  37.013  34.010   7.690
 2883POPC   C1B38323  36.502  33.837   8.851
 2883POPC   C2B38324  36.411  33.952   8.433
 2883POPC   C3B38325  36.411  33.657   8.101
 2883POPC   C4B38326  36.596  33.739   7.727
 2884POPC   NC338327  26.916  25.952   9.681
 2884POPC   PO438328  26.309  25.793   9.451
 2884POPC   GL138329  26.693  25.951   9.220
 2884POPC   GL238330  26.967  25.696   9.234
 2884POPC   C1A38331  26.950  26.014   8.828
 2884POPC   D2A38332  26.762  26.077   8.422
 2884POPC   C3A38333  26.796  26.356   8.109
 2884POPC   C4A38334  26.691  26.192   7.721
 2884POPC   C1B38335  27.128  25.540   8.839
 2884POPC   C2B38336  27.101  25.703   8.429
 2884POPC   C3B38337  26.964  25.839   8.012
 2884POPC   C4B38338  27.042  25.848   7.560
 2885POPC   NC338339   3.966  35.145   9.399
 2885POPC   PO438340   3.448  35.449   9.551
 2885POPC   GL138341   3.635  35.472   9.144
 2885POPC   GL238342   3.330  35.610   9.059
 2885POPC   C1A38343   3.754  35.319   8.728
 2885POPC   D2A38344   3.908  35.051   8.359
 2885POPC   C3A38345   3.847  35.244   7.931
 2885POPC   C4A38346   3.731  35.378   7.521
 2885POPC   C1B38347   3.250  35.338   8.695
 2885POPC   C2B38348   3.434  35.293   8.266
 2885POPC   C3B38349   3.289  35.275   7.808
 2885POPC   C4B38350   2.977  35.129   7.435
 2886POPC   NC338351  31.564  25.176   9.552
 2886POPC   PO438352  31.409  25.643   9.268
 2886POPC   GL138353  31.332  25.248   9.075
 2886POPC   GL238354  31.659  25.062   9.064
 2886POPC   C1A38355  31.269  25.008   8.679
 2886POPC   D2A38356  31.351  24.869   8.223
 2886POPC   C3A38357  31.358  25.206   7.882
 2886POPC   C4A38358  31.172  25.075   7.448
 2886POPC   C1B38359  31.700  25.401   8.747
 2886POPC   C2B38360  31.602  25.292   8.342
 2886POPC   C3B38361  31.831  25.028   8.026
 2886POPC   C4B38362  31.812  25.250   7.624
 2887POPC   NC338363  15.349   8.794   9.484
 2887POPC   PO438364  15.039   9.367   9.488
 2887POPC   GL138365  14.972   9.072   9.113
 2887POPC   GL238366  15.103   8.721   9.063
 2887POPC   C1A38367  14.867   8.891   8.685
 2887POPC   D2A38368  15.094   8.984   8.338
 2887POPC   C3A38369  14.944   9.176   7.991
 2887POPC   C4A38370  15.180   9.145   7.638
 2887POPC   C1B38371  15.363   8.733   8.687
 2887POPC   C2B38372  15.510   8.637   8.271
 2887POPC   C3B38373  15.268   8.721   7.907
 2887POPC   C4B38374  15.374   8.741   7.420
 2888POPC   NC338375  20.866  19.016   9.516
 2888POPC   PO438376  20.267  18.793   9.238
 2888POPC   GL138377  20.647  18.826   9.082
 2888POPC   GL238378  20.646  19.182   9.075
 2888POPC   C1A38379  20.686  18.865   8.660
 2888POPC   D2A38380  20.454  18.687   8.318
 2888POPC   C3A38381  20.484  18.923   7.954
 2888POPC   C4A38382  20.648  18.900   7.526
 2888POPC   C1B38383  20.366  19.263   8.726
 2888POPC   C2B38384  20.465  19.382   8.285
 2888POPC   C3B38385  20.669  19.388   7.871
 2888POPC   C4B38386  20.341  19.289   7.547
 2889POPC   NC338387  38.197  13.395   9.540
 2889POPC   PO438388  38.831  13.761   9.632
 2889POPC   GL138389  38.627  13.886   9.170
 2889POPC   GL238390  38.278  13.958   9.119
 2889POPC   C1A38391  38.532  13.709   8.743
 2889POPC   D2A38392  38.611  13.445   8.374
 2889POPC   C3A38393  38.361  13.453   8.005
 2889POPC   C4A38394  38.551  13.548   7.636
 2889POPC   C1B38395  38.211  14.109   8.690
 2889POPC   C2B38396  38.312  13.906   8.290
 2889POPC   C3B38397  38.222  13.929   7.839
 2889POPC   C4B38398  38.068  14.051   7.415
 2890POPC   NC338399  42.007  42.597   9.407
 2890POPC   PO438400  42.454  42.150   9.542
 2890POPC   GL138401  42.414  42.401   9.181
 2890POPC   GL238402  42.598  42.705   9.242
 2890POPC   C1A38403  42.208  42.303   8.801
 2890POPC   D2A38404  42.300  42.107   8.418
 2890POPC   C3A38405  42.268  42.357   8.060
 2890POPC   C4A38406  41.970  42.322   7.737
 2890POPC   C1B38407  42.551  42.707   8.781
 2890POPC   C2B38408  42.647  42.857   8.346
 2890POPC   C3B38409  42.658  42.687   7.926
 2890POPC   C4B38410  42.765  42.341   7.659
 2891POPC   NC338411  26.422  14.764   9.453
 2891POPC   PO438412  25.784  14.649   9.547
 2891POPC   GL138413  25.763  14.377   9.174
 2891POPC   GL238414  26.072  14.517   9.140
 2891POPC   C1A38415  25.793  14.469   8.714
 2891POPC   D2A38416  25.906  14.704   8.339
 2891POPC   C3A38417  25.967  14.513   7.975
 2891POPC   C4A38418  25.667  14.381   7.717
 2891POPC   C1B38419  26.259  14.650   8.794
 2891POPC   C2B38420  26.395  14.602   8.423
 2891POPC   C3B38421  26.465  14.435   8.053
 2891POPC   C4B38422  26.424  14.626   7.692
 2892POPC   NC338423  38.115  12.128   9.784
 2892POPC   PO438424  37.421  12.172   9.523
 2892POPC   GL138425  37.643  12.068   9.153
 2892POPC   GL238426  37.699  12.357   8.964
 2892POPC   C1A38427  37.550  11.928   8.748
 2892POPC   D2A38428  37.613  12.195   8.376
 2892POPC   C3A38429  37.659  11.976   8.008
 2892POPC   C4A38430  37.499  11.937   7.635
 2892POPC   C1B38431  38.000  12.176   8.684
 2892POPC   C2B38432  38.096  12.393   8.280
 2892POPC   C3B38433  38.114  12.231   7.831
 2892POPC   C4B38434  37.932  12.133   7.413
 2893POPC   NC338435   3.814  18.048   9.796
 2893POPC   PO438436   3.415  18.491   9.479
 2893POPC   GL138437   3.462  18.353   9.057
 2893POPC   GL238438   3.390  17.980   8.971
 2893POPC   C1A38439   3.579  18.526   8.675
 2893POPC   D2A38440   3.849  18.603   8.318
 2893POPC   C3A38441   3.597  18.541   7.967
 2893POPC   C4A38442   3.475  18.186   7.739
 2893POPC   C1B38443   3.716  18.037   8.649
 2893POPC   C2B38444   3.652  18.102   8.225
 2893POPC   C3B38445   3.693  17.774   7.889
 2893POPC   C4B38446   3.519  17.740   7.435
 2894POPC   NC338447  36.633  43.575   9.382
 2894POPC   PO438448  36.082  43.786   9.675
 2894POPC   GL138449  36.238  43.833   9.171
 2894POPC   GL238450  36.241  43.473   9.074
 2894POPC   C1A38451  36.125  43.799   8.701
 2894POPC   D2A38452  35.851  43.944   8.370
 2894POPC   C3A38453  36.052  43.777   7.992
 2894POPC   C4A38454  36.402  43.933   7.805
 2894POPC   C1B38455  36.111  43.273   8.699
 2894POPC   C2B38456  35.971  43.428   8.347
 2894POPC   C3B38457  35.781  43.336   7.992
 2894POPC   C4B38458  35.906  43.499   7.598
 2895POPC   NC338459  13.367   6.633   9.555
 2895POPC   PO438460  14.021   6.377   9.544
 2895POPC   GL138461  13.719   6.625   9.191
 2895POPC   GL238462  13.601   6.420   8.935
 2895POPC   C1A38463  13.670   6.892   8.790
 2895POPC   D2A38464  13.702   7.051   8.336
 2895POPC   C3A38465  13.739   6.738   8.010
 2895POPC   C4A38466  14.013   6.411   7.905
 2895POPC   C1B38467  13.997   6.334   8.815
 2895POPC   C2B38468  13.929   6.491   8.425
 2895POPC   C3B38469  13.639   6.218   8.188
 2895POPC   C4B38470  13.414   6.353   7.829
 2896POPC   NC338471  38.057  18.070   9.537
 2896POPC   PO438472  37.387  18.368   9.530
 2896POPC   GL138473  37.580  18.393   9.162
 2896POPC   GL238474  37.917  18.418   9.174
 2896POPC   C1A38475  37.709  18.185   8.781
 2896POPC   D2A38476  37.467  18.092   8.453
 2896POPC   C3A38477  37.636  18.206   8.104
 2896POPC   C4A38478  37.454  18.115   7.731
 2896POPC   C1B38479  38.105  18.549   8.822
 2896POPC   C2B38480  37.972  18.487   8.417
 2896POPC   C3B38481  38.063  18.461   8.008
 2896POPC   C4B38482  37.970  18.188   7.707
 2897POPC   NC338483   8.580  22.827   9.420
 2897POPC   PO438484   9.192  22.965   9.592
 2897POPC   GL138485   9.014  22.963   9.213
 2897POPC   GL238486   8.996  22.593   9.229
 2897POPC   C1A38487   8.813  22.924   8.818
 2897POPC   D2A38488   8.873  23.158   8.456
 2897POPC   C3A38489   9.024  23.009   8.090
 2897POPC   C4A38490   8.864  23.088   7.714
 2897POPC   C1B38491   9.310  22.683   8.920
 2897POPC   C2B38492   9.180  22.735   8.510
 2897POPC   C3B38493   9.097  22.502   8.137
 2897POPC   C4B38494   9.311  22.627   7.796
 2898POPC   NC338495  22.793   2.626   9.563
 2898POPC   PO438496  22.373   3.206   9.560
 2898POPC   GL138497  22.754   3.016   9.239
 2898POPC   GL238498  23.032   2.669   9.141
 2898POPC   C1A38499  22.885   3.007   8.813
 2898POPC   D2A38500  22.858   3.186   8.431
 2898POPC   C3A38501  22.880   3.030   8.049
 2898POPC   C4A38502  23.234   3.022   7.797
 2898POPC   C1B38503  22.743   2.488   8.862
 2898POPC   C2B38504  22.716   2.662   8.461
 2898POPC   C3B38505  22.734   2.562   8.053
 2898POPC   C4B38506  22.864   2.697   7.629
 2899POPC   NC338507  32.376   8.368   9.531
 2899POPC   PO438508  31.974   7.760   9.539
 2899POPC   GL138509  32.030   8.068   9.244
 2899POPC   GL238510  32.386   7.984   9.184
 2899POPC   C1A38511  32.074   8.322   8.868
 2899POPC   D2A38512  32.211   8.477   8.446
 2899POPC   C3A38513  32.026   8.298   8.067
 2899POPC   C4A38514  32.034   7.923   7.817
 2899POPC   C1B38515  32.196   7.802   8.834
 2899POPC   C2B38516  32.051   7.919   8.447
 2899POPC   C3B38517  32.407   8.009   8.212
 2899POPC   C4B38518  32.539   8.014   7.804
 2900POPC   NC338519  19.233  27.146   9.604
 2900POPC   PO438520  19.022  26.526   9.623
 2900POPC   GL138521  18.970  26.764   9.271
 2900POPC   GL238522  18.729  27.024   9.380
 2900POPC   C1A38523  19.131  26.700   8.854
 2900POPC   D2A38524  19.248  26.815   8.461
 2900POPC   C3A38525  19.190  26.577   8.084
 2900POPC   C4A38526  19.157  26.735   7.661
 2900POPC   C1B38527  18.775  27.077   8.932
 2900POPC   C2B38528  18.836  27.169   8.510
 2900POPC   C3B38529  19.042  27.119   8.123
 2900POPC   C4B38530  19.013  27.202   7.716
 2901POPC   NC338531  10.000  26.494   9.468
 2901POPC   PO438532   9.595  27.058   9.261
 2901POPC   GL138533   9.733  26.707   9.081
 2901POPC   GL238534  10.054  26.894   9.129
 2901POPC   C1A38535   9.601  26.620   8.676
 2901POPC   D2A38536   9.717  26.980   8.466
 2901POPC   C3A38537   9.561  27.023   8.077
 2901POPC   C4A38538   9.375  26.801   7.749
 2901POPC   C1B38539  10.104  27.190   8.811
 2901POPC   C2B38540  10.236  27.094   8.430
 2901POPC   C3B38541  10.073  27.005   8.013
 2901POPC   C4B38542  10.125  26.915   7.564
 2902POPC   NC338543  30.450  44.523   9.636
 2902POPC   PO438544  29.839  44.689   9.607
 2902POPC   GL138545  29.798  44.764   9.188
 2902POPC   GL238546  29.988   0.037   9.166
 2902POPC   C1A38547  29.692  44.629   8.783
 2902POPC   D2A38548  29.687  44.784   8.366
 2902POPC   C3A38549  29.725  44.566   7.987
 2902POPC   C4A38550  29.808  44.360   7.594
 2902POPC   C1B38551  29.897   0.098   8.768
 2902POPC   C2B38552  30.145   0.069   8.438
 2902POPC   C3B38553  30.060  44.990   8.057
 2902POPC   C4B38554  30.092   0.055   7.644
 2903POPC   NC338555  18.066  35.314  10.007
 2903POPC   PO438556  17.549  35.304   9.561
 2903POPC   GL138557  17.488  35.290   9.179
 2903POPC   GL238558  17.149  35.393   9.230
 2903POPC   C1A38559  17.442  35.155   8.811
 2903POPC   D2A38560  17.450  35.224   8.396
 2903POPC   C3A38561  17.708  35.406   8.074
 2903POPC   C4A38562  17.528  35.270   7.697
 2903POPC   C1B38563  17.173  35.570   8.844
 2903POPC   C2B38564  17.175  35.662   8.421
 2903POPC   C3B38565  17.191  35.487   8.027
 2903POPC   C4B38566  17.155  35.616   7.614
 2904POPC   NC338567  32.954   8.557  10.056
 2904POPC   PO438568  33.367   8.954   9.610
 2904POPC   GL138569  33.268   8.982   9.183
 2904POPC   GL238570  32.944   8.852   9.153
 2904POPC   C1A38571  33.160   9.073   8.750
 2904POPC   D2A38572  33.355   9.179   8.374
 2904POPC   C3A38573  33.153   9.250   7.975
 2904POPC   C4A38574  32.996   9.146   7.539
 2904POPC   C1B38575  32.806   8.710   8.750
 2904POPC   C2B38576  32.920   8.852   8.345
 2904POPC   C3B38577  33.075   8.612   8.052
 2904POPC   C4B38578  33.194   8.721   7.701
 2905POPC   NC338579   3.388  44.250   9.762
 2905POPC   PO438580   3.650  43.665   9.489
 2905POPC   GL138581   3.423  43.738   9.120
 2905POPC   GL238582   3.288  44.052   9.088
 2905POPC   C1A38583   3.511  43.616   8.735
 2905POPC   D2A38584   3.454  43.856   8.385
 2905POPC   C3A38585   3.623  43.681   8.036
 2905POPC   C4A38586   3.494  43.874   7.721
 2905POPC   C1B38587   3.507  44.212   8.747
 2905POPC   C2B38588   3.604  44.427   8.403
 2905POPC   C3B38589   3.808  44.237   8.100
 2905POPC   C4B38590   3.754  44.315   7.705
 2906POPC   NC338591  21.581  10.227   9.470
 2906POPC   PO438592  21.228   9.741   9.788
 2906POPC   GL138593  21.401   9.767   9.289
 2906POPC   GL238594  21.588  10.016   9.016
 2906POPC   C1A38595  21.286   9.678   8.820
 2906POPC   D2A38596  21.317   9.937   8.417
 2906POPC   C3A38597  21.110   9.685   8.088
 2906POPC   C4A38598  21.149   9.319   7.784
 2906POPC   C1B38599  21.756   9.748   8.639
 2906POPC   C2B38600  21.617   9.551   8.256
 2906POPC   C3B38601  21.561   9.796   7.900
 2906POPC   C4B38602  21.624   9.990   7.515
 2907POPC   NC338603   2.999  35.305   9.597
 2907POPC   PO438604   2.488  34.860   9.531
 2907POPC   GL138605   2.668  35.157   9.160
 2907POPC   GL238606   2.842  35.487   9.141
 2907POPC   C1A38607   2.735  35.271   8.689
 2907POPC   D2A38608   2.937  35.428   8.286
 2907POPC   C3A38609   2.786  35.195   7.927
 2907POPC   C4A38610   2.503  35.290   7.585
 2907POPC   C1B38611   2.934  35.739   8.750
 2907POPC   C2B38612   2.872  35.962   8.349
 2907POPC   C3B38613   3.055  35.891   7.947
 2907POPC   C4B38614   2.948  35.595   7.615
 2908POPC   NC338615  37.881   8.913   9.537
 2908POPC   PO438616  37.381   9.326   9.455
 2908POPC   GL138617  37.526   9.041   9.177
 2908POPC   GL238618  37.833   9.223   9.131
 2908POPC   C1A38619  37.575   8.797   8.795
 2908POPC   D2A38620  37.383   8.753   8.382
 2908POPC   C3A38621  37.534   8.849   7.923
 2908POPC   C4A38622  37.492   8.857   7.441
 2908POPC   C1B38623  37.644   9.279   8.729
 2908POPC   C2B38624  37.674   9.176   8.337
 2908POPC   C3B38625  37.840   9.319   7.994
 2908POPC   C4B38626  37.630   9.288   7.643
 2909POPC   NC338627  28.967   6.866   9.635
 2909POPC   PO438628  29.475   6.607   9.599
 2909POPC   GL138629  29.284   6.764   9.210
 2909POPC   GL238630  28.939   6.702   9.122
 2909POPC   C1A38631  29.320   6.785   8.753
 2909POPC   D2A38632  29.218   6.637   8.330
 2909POPC   C3A38633  29.108   6.898   7.971
 2909POPC   C4A38634  29.451   7.056   7.757
 2909POPC   C1B38635  28.809   6.630   8.687
 2909POPC   C2B38636  28.792   6.361   8.309
 2909POPC   C3B38637  28.999   6.393   7.898
 2909POPC   C4B38638  28.915   6.600   7.492
 2910POPC   NC338639  33.528  43.196   9.601
 2910POPC   PO438640  33.996  42.773   9.642
 2910POPC   GL138641  33.962  43.064   9.265
 2910POPC   GL238642  33.632  43.041   9.128
 2910POPC   C1A38643  33.947  43.316   8.837
 2910POPC   D2A38644  34.108  43.325   8.400
 2910POPC   C3A38645  33.965  43.462   8.016
 2910POPC   C4A38646  33.918  43.208   7.625
 2910POPC   C1B38647  33.455  42.810   8.775
 2910POPC   C2B38648  33.562  42.699   8.338
 2910POPC   C3B38649  33.397  42.652   7.906
 2910POPC   C4B38650  33.555  42.839   7.555
 2911POPC   NC338651  42.129  10.413   9.605
 2911POPC   PO438652  42.675  10.740   9.632
 2911POPC   GL138653  42.374  10.819   9.268
 2911POPC   GL238654  42.269  10.485   9.119
 2911POPC   C1A38655  42.479  10.835   8.819
 2911POPC   D2A38656  42.382  10.561   8.470
 2911POPC   C3A38657  42.333  10.827   8.112
 2911POPC   C4A38658  42.454  10.754   7.702
 2911POPC   C1B38659  42.130  10.230   8.776
 2911POPC   C2B38660  42.026  10.169   8.357
 2911POPC   C3B38661  42.184  10.343   7.978
 2911POPC   C4B38662  41.957  10.496   7.639
 2912POPC   NC338663   8.951  39.915   9.753
 2912POPC   PO438664   9.508  40.325   9.744
 2912POPC   GL138665   9.304  40.032   9.366
 2912POPC   GL238666   9.146  40.257   9.157
 2912POPC   C1A38667   9.138  39.829   8.910
 2912POPC   D2A38668   9.094  39.990   8.476
 2912POPC   C3A38669   8.864  39.787   8.149
 2912POPC   C4A38670   8.723  39.993   7.780
 2912POPC   C1B38671   9.456  40.233   8.794
 2912POPC   C2B38672   9.530  40.239   8.351
 2912POPC   C3B38673   9.279  40.370   8.014
 2912POPC   C4B38674   9.397  40.317   7.589
 2913POPC   NC338675  24.060  40.632   9.417
 2913POPC   PO438676  23.565  41.067   9.472
 2913POPC   GL138677  23.826  40.982   9.125
 2913POPC   GL238678  23.752  40.614   9.014
 2913POPC   C1A38679  23.771  41.091   8.706
 2913POPC   D2A38680  23.669  40.840   8.354
 2913POPC   C3A38681  23.793  40.987   7.971
 2913POPC   C4A38682  24.041  40.732   7.689
 2913POPC   C1B38683  23.625  40.304   8.703
 2913POPC   C2B38684  23.458  40.374   8.307
 2913POPC   C3B38685  23.640  40.482   7.937
 2913POPC   C4B38686  23.419  40.395   7.605
 2914POPC   NC338687  14.863  21.975   9.476
 2914POPC   PO438688  14.186  22.214   9.639
 2914POPC   GL138689  14.238  22.231   9.187
 2914POPC   GL238690  14.460  21.933   9.144
 2914POPC   C1A38691  14.275  22.147   8.726
 2914POPC   D2A38692  14.651  22.270   8.475
 2914POPC   C3A38693  14.565  22.128   8.081
 2914POPC   C4A38694  14.163  22.143   7.867
 2914POPC   C1B38695  14.725  21.851   8.766
 2914POPC   C2B38696  14.853  21.717   8.359
 2914POPC   C3B38697  14.854  21.680   7.932
 2914POPC   C4B38698  14.509  21.849   7.653
 2915POPC   NC338699   3.516  14.984   9.611
 2915POPC   PO438700   3.053  14.619   9.326
 2915POPC   GL138701   3.339  14.983   9.131
 2915POPC   GL238702   3.727  14.989   9.164
 2915POPC   C1A38703   3.537  15.161   8.750
 2915POPC   D2A38704   3.474  15.017   8.382
 2915POPC   C3A38705   3.290  15.265   8.113
 2915POPC   C4A38706   3.406  15.110   7.736
 2915POPC   C1B38707   3.918  14.826   8.818
 2915POPC   C2B38708   3.972  14.967   8.395
 2915POPC   C3B38709   3.854  15.117   8.002
 2915POPC   C4B38710   3.852  14.891   7.618
 2916POPC   NC338711  13.410  21.066   9.546
 2916POPC   PO438712  13.788  20.513   9.657
 2916POPC   GL138713  13.693  20.762   9.268
 2916POPC   GL238714  13.339  20.668   9.199
 2916POPC   C1A38715  13.600  20.915   8.835
 2916POPC   D2A38716  13.415  20.756   8.476
 2916POPC   C3A38717  13.575  20.816   8.083
 2916POPC   C4A38718  13.796  20.948   7.714
 2916POPC   C1B38719  13.192  20.442   8.809
 2916POPC   C2B38720  13.256  20.279   8.374
 2916POPC   C3B38721  13.242  20.443   7.968
 2916POPC   C4B38722  13.658  20.429   7.751
 2917POPC   NC338723   8.717  33.789   9.551
 2917POPC   PO438724   9.329  33.786   9.496
 2917POPC   GL138725   9.046  33.816   9.126
 2917POPC   GL238726   8.664  33.881   9.067
 2917POPC   C1A38727   8.997  33.939   8.695
 2917POPC   D2A38728   9.151  33.625   8.433
 2917POPC   C3A38729   9.120  33.773   8.070
 2917POPC   C4A38730   9.082  34.079   7.781
 2917POPC   C1B38731   8.616  33.592   8.708
 2917POPC   C2B38732   8.621  33.722   8.295
 2917POPC   C3B38733   8.671  33.650   7.881
 2917POPC   C4B38734   8.601  33.590   7.460
 2918POPC   NC338735  35.718  23.859   9.425
 2918POPC   PO438736  35.147  23.481   9.576
 2918POPC   GL138737  35.188  23.700   9.211
 2918POPC   GL238738  35.445  23.531   9.133
 2918POPC   C1A38739  35.189  23.943   8.854
 2918POPC   D2A38740  35.318  23.873   8.452
 2918POPC   C3A38741  35.029  23.784   8.132
 2918POPC   C4A38742  35.348  23.868   7.876
 2918POPC   C1B38743  35.190  23.388   8.780
 2918POPC   C2B38744  35.294  23.354   8.330
 2918POPC   C3B38745  35.635  23.480   8.051
 2918POPC   C4B38746  35.703  23.598   7.611
 2919POPC   NC338747   7.002  18.959   9.739
 2919POPC   PO438748   7.365  19.439   9.526
 2919POPC   GL138749   7.431  19.169   9.187
 2919POPC   GL238750   7.149  18.956   9.152
 2919POPC   C1A38751   7.516  19.054   8.779
 2919POPC   D2A38752   7.445  19.229   8.404
 2919POPC   C3A38753   7.648  19.131   8.061
 2919POPC   C4A38754   7.393  19.094   7.714
 2919POPC   C1B38755   7.015  18.707   8.817
 2919POPC   C2B38756   7.104  18.867   8.468
 2919POPC   C3B38757   7.092  18.949   8.083
 2919POPC   C4B38758   7.032  18.667   7.729
 2920POPC   NC338759  10.081   1.928   9.595
 2920POPC   PO438760   9.419   2.070   9.653
 2920POPC   GL138761   9.671   2.088   9.208
 2920POPC   GL238762   9.831   1.826   9.106
 2920POPC   C1A38763   9.519   2.264   8.762
 2920POPC   D2A38764   9.554   2.094   8.321
 2920POPC   C3A38765   9.473   2.273   7.908
 2920POPC   C4A38766   9.435   2.496   7.523
 2920POPC   C1B38767   9.999   2.168   8.800
 2920POPC   C2B38768  10.211   2.225   8.451
 2920POPC   C3B38769  10.213   1.992   8.122
 2920POPC   C4B38770   9.898   1.980   7.804
 2921POPC   NC338771  24.243  25.796   9.433
 2921POPC   PO438772  24.366  25.110   9.456
 2921POPC   GL138773  24.448  25.243   9.071
 2921POPC   GL238774  24.195  25.461   9.066
 2921POPC   C1A38775  24.506  25.386   8.660
 2921POPC   D2A38776  24.692  25.169   8.344
 2921POPC   C3A38777  24.409  25.078   8.042
 2921POPC   C4A38778  24.490  25.263   7.648
 2921POPC   C1B38779  24.041  25.684   8.745
 2921POPC   C2B38780  24.278  25.763   8.410
 2921POPC   C3B38781  24.455  25.598   8.066
 2921POPC   C4B38782  24.281  25.746   7.687
 2922POPC   NC338783  22.655  29.198   9.354
 2922POPC   PO438784  23.227  29.433   9.617
 2922POPC   GL138785  23.132  29.079   9.232
 2922POPC   GL238786  23.371  28.817   9.245
 2922POPC   C1A38787  22.932  29.026   8.748
 2922POPC   D2A38788  22.685  29.318   8.464
 2922POPC   C3A38789  22.669  29.396   8.000
 2922POPC   C4A38790  22.941  29.410   7.634
 2922POPC   C1B38791  23.418  28.913   8.813
 2922POPC   C2B38792  23.322  28.825   8.390
 2922POPC   C3B38793  23.254  28.769   7.965
 2922POPC   C4B38794  22.857  28.927   7.853
 2923POPC   NC338795  34.050  41.627   9.522
 2923POPC   PO438796  33.556  41.336   9.776
 2923POPC   GL138797  33.650  41.508   9.246
 2923POPC   GL238798  33.974  41.659   9.040
 2923POPC   C1A38799  33.547  41.588   8.802
 2923POPC   D2A38800  33.477  41.478   8.359
 2923POPC   C3A38801  33.767  41.577   8.020
 2923POPC   C4A38802  33.752  41.231   7.733
 2923POPC   C1B38803  33.992  41.319   8.726
 2923POPC   C2B38804  33.904  41.190   8.324
 2923POPC   C3B38805  34.202  41.249   7.981
 2923POPC   C4B38806  34.274  41.686   7.879
 2924POPC   NC338807   9.725  10.584   9.738
 2924POPC   PO438808  10.054  10.064   9.516
 2924POPC   GL138809   9.786  10.281   9.180
 2924POPC   GL238810   9.658  10.604   9.210
 2924POPC   C1A38811   9.796  10.420   8.759
 2924POPC   D2A38812   9.961  10.478   8.384
 2924POPC   C3A38813   9.812  10.325   8.071
 2924POPC   C4A38814   9.763  10.480   7.717
 2924POPC   C1B38815   9.535  10.856   8.829
 2924POPC   C2B38816   9.547  11.049   8.430
 2924POPC   C3B38817   9.605  10.838   8.055
 2924POPC   C4B38818   9.408  10.859   7.656
 2925POPC   NC338819  14.603   3.633   9.272
 2925POPC   PO438820  14.140   3.252   9.653
 2925POPC   GL138821  14.112   3.293   9.225
 2925POPC   GL238822  14.062   3.654   9.140
 2925POPC   C1A38823  14.302   3.320   8.809
 2925POPC   D2A38824  14.615   3.538   8.542
 2925POPC   C3A38825  14.328   3.642   8.206
 2925POPC   C4A38826  14.215   3.473   7.820
 2925POPC   C1B38827  14.240   3.834   8.751
 2925POPC   C2B38828  14.540   4.039   8.469
 2925POPC   C3B38829  14.690   3.966   8.067
 2925POPC   C4B38830  14.325   3.968   7.799
 2926POPC   NC338831  35.516  24.627   9.601
 2926POPC   PO438832  35.300  24.110   9.503
 2926POPC   GL138833  35.030  24.309   9.224
 2926POPC   GL238834  35.191  24.628   9.188
 2926POPC   C1A38835  34.918  24.396   8.795
 2926POPC   D2A38836  34.918  24.179   8.441
 2926POPC   C3A38837  35.144  24.338   8.099
 2926POPC   C4A38838  35.248  24.312   7.662
 2926POPC   C1B38839  35.417  24.416   8.848
 2926POPC   C2B38840  35.522  24.518   8.427
 2926POPC   C3B38841  35.590  24.559   7.999
 2926POPC   C4B38842  35.308  24.787   7.755
 2927POPC   NC338843  30.938  23.229   9.664
 2927POPC   PO438844  30.382  22.886   9.608
 2927POPC   GL138845  30.593  23.042   9.250
 2927POPC   GL238846  30.907  22.848   9.309
 2927POPC   C1A38847  30.489  23.023   8.790
 2927POPC   D2A38848  30.556  23.214   8.358
 2927POPC   C3A38849  30.432  22.951   7.977
 2927POPC   C4A38850  30.456  23.071   7.493
 2927POPC   C1B38851  30.987  22.877   8.886
 2927POPC   C2B38852  30.872  22.825   8.458
 2927POPC   C3B38853  30.941  22.998   8.055
 2927POPC   C4B38854  30.848  22.809   7.683
 2928POPC   NC338855  17.260  16.898   9.685
 2928POPC   PO438856  17.372  16.323   9.389
 2928POPC   GL138857  17.593  16.672   9.194
 2928POPC   GL238858  17.909  16.551   9.032
 2928POPC   C1A38859  17.409  16.907   8.839
 2928POPC   D2A38860  17.218  16.721   8.440
 2928POPC   C3A38861  17.302  16.838   7.988
 2928POPC   C4A38862  17.322  17.121   7.633
 2928POPC   C1B38863  17.856  16.744   8.651
 2928POPC   C2B38864  17.714  16.717   8.259
 2928POPC   C3B38865  17.842  16.734   7.853
 2928POPC   C4B38866  18.047  16.577   7.481
 2929POPC   NC338867  38.039   0.630   9.312
 2929POPC   PO438868  37.540   0.287   9.570
 2929POPC   GL138869  37.555   0.360   9.152
 2929POPC   GL238870  37.481   0.025   9.104
 2929POPC   C1A38871  37.701   0.515   8.723
 2929POPC   D2A38872  37.920   0.505   8.335
 2929POPC   C3A38873  37.651   0.518   7.976
 2929POPC   C4A38874  37.748   0.468   7.547
 2929POPC   C1B38875  37.846   0.042   8.847
 2929POPC   C2B38876  37.885  44.899   8.448
 2929POPC   C3B38877  37.745   0.047   8.086
 2929POPC   C4B38878  37.747  44.933   7.687
 2930POPC   NC338879  42.780   3.442   9.523
 2930POPC   PO438880  42.190   3.706   9.612
 2930POPC   GL138881  42.374   3.548   9.199
 2930POPC   GL238882  42.622   3.278   9.093
 2930POPC   C1A38883  42.181   3.515   8.797
 2930POPC   D2A38884  42.114   3.460   8.358
 2930POPC   C3A38885  42.381   3.694   8.058
 2930POPC   C4A38886  42.232   3.586   7.692
 2930POPC   C1B38887  42.687   3.577   8.764
 2930POPC   C2B38888  42.645   3.393   8.372
 2930POPC   C3B38889  42.768   3.402   7.933
 2930POPC   C4B38890  42.641   3.382   7.483
 2931POPC   NC338891  22.632  40.103   9.524
 2931POPC   PO438892  23.100  39.632   9.568
 2931POPC   GL138893  22.966  39.796   9.224
 2931POPC   GL238894  22.915  40.136   9.098
 2931POPC   C1A38895  22.909  39.590   8.905
 2931POPC   D2A38896  22.989  39.524   8.516
 2931POPC   C3A38897  22.745  39.693   8.224
 2931POPC   C4A38898  22.999  39.706   7.845
 2931POPC   C1B38899  22.817  40.023   8.663
 2931POPC   C2B38900  23.097  40.028   8.323
 2931POPC   C3B38901  23.037  40.216   7.927
 2931POPC   C4B38902  22.701  40.473   7.834
 2932POPC   NC338903  35.859  31.833   9.289
 2932POPC   PO438904  35.788  31.294   9.865
 2932POPC   GL138905  35.927  31.290   9.354
 2932POPC   GL238906  36.212  31.447   9.163
 2932POPC   C1A38907  35.865  31.290   8.848
 2932POPC   D2A38908  35.726  31.193   8.378
 2932POPC   C3A38909  35.894  31.487   8.063
 2932POPC   C4A38910  35.894  31.851   7.763
 2932POPC   C1B38911  36.308  31.514   8.697
 2932POPC   C2B38912  36.492  31.367   8.275
 2932POPC   C3B38913  36.380  31.128   7.884
 2932POPC   C4B38914  36.336  31.209   7.408
 2933POPC   NC338915  15.646  18.282   9.667
 2933POPC   PO438916  16.172  18.591   9.540
 2933POPC   GL138917  16.009  18.329   9.228
 2933POPC   GL238918  15.743  18.177   9.133
 2933POPC   C1A38919  16.200  18.321   8.849
 2933POPC   D2A38920  16.382  18.376   8.461
 2933POPC   C3A38921  16.173  18.295   8.076
 2933POPC   C4A38922  16.262  18.331   7.648
 2933POPC   C1B38923  15.703  18.298   8.729
 2933POPC   C2B38924  15.536  18.315   8.330
 2933POPC   C3B38925  15.500  18.140   7.942
 2933POPC   C4B38926  15.799  18.181   7.709
 2934POPC   NC338927  37.794  44.885   9.505
 2934POPC   PO438928  38.304  44.400   9.583
 2934POPC   GL138929  37.887  44.410   9.274
 2934POPC   GL238930  37.499  44.539   9.293
 2934POPC   C1A38931  37.718  44.548   8.851
 2934POPC   D2A38932  37.762  44.360   8.475
 2934POPC   C3A38933  37.738  44.537   8.099
 2934POPC   C4A38934  37.891  44.438   7.714
 2934POPC   C1B38935  37.243  44.291   9.028
 2934POPC   C2B38936  37.267  44.284   8.592
 2934POPC   C3B38937  37.302  44.282   8.157
 2934POPC   C4B38938  37.386  44.320   7.722
 2935POPC   NC338939   9.593  13.084   9.479
 2935POPC   PO438940   9.062  12.591   9.569
 2935POPC   GL138941   8.952  12.758   9.159
 2935POPC   GL238942   9.135  13.071   9.190
 2935POPC   C1A38943   8.748  12.814   8.727
 2935POPC   D2A38944   8.903  12.662   8.314
 2935POPC   C3A38945   8.921  12.944   7.927
 2935POPC   C4A38946   8.727  12.979   7.499
 2935POPC   C1B38947   9.162  13.116   8.749
 2935POPC   C2B38948   9.294  12.991   8.326
 2935POPC   C3B38949   9.470  13.115   7.933
 2935POPC   C4B38950   9.231  13.196   7.562
 2936POPC   NC338951  30.903   7.578   9.591
 2936POPC   PO438952  30.234   7.519   9.710
 2936POPC   GL138953  30.431   7.518   9.233
 2936POPC   GL238954  30.710   7.313   9.191
 2936POPC   C1A38955  30.441   7.375   8.754
 2936POPC   D2A38956  30.606   7.600   8.361
 2936POPC   C3A38957  30.561   7.350   7.982
 2936POPC   C4A38958  30.271   7.206   7.672
 2936POPC   C1B38959  30.930   7.477   8.826
 2936POPC   C2B38960  31.025   7.269   8.444
 2936POPC   C3B38961  31.070   7.475   8.080
 2936POPC   C4B38962  30.906   7.605   7.702
 2937POPC   NC338963  37.553   3.181   9.440
 2937POPC   PO438964  37.763   3.916   9.519
 2937POPC   GL138965  37.706   3.677   9.139
 2937POPC   GL238966  37.375   3.538   9.126
 2937POPC   C1A38967  37.913   3.519   8.751
 2937POPC   D2A38968  37.804   3.306   8.348
 2937POPC   C3A38969  37.618   3.540   8.015
 2937POPC   C4A38970  37.791   3.884   7.802
 2937POPC   C1B38971  37.412   3.412   8.712
 2937POPC   C2B38972  37.547   3.774   8.473
 2937POPC   C3B38973  37.382   3.970   8.124
 2937POPC   C4B38974  37.131   3.782   7.822
 2938POPC   NC338975  15.979   7.858   9.448
 2938POPC   PO438976  15.671   8.472   9.568
 2938POPC   GL138977  15.844   8.319   9.181
 2938POPC   GL238978  15.579   8.514   9.067
 2938POPC   C1A38979  16.061   8.042   8.856
 2938POPC   D2A38980  16.210   8.074   8.461
 2938POPC   C3A38981  15.959   8.336   8.204
 2938POPC   C4A38982  16.146   8.211   7.830
 2938POPC   C1B38983  15.671   8.314   8.683
 2938POPC   C2B38984  15.449   8.133   8.361
 2938POPC   C3B38985  15.536   8.199   7.935
 2938POPC   C4B38986  15.708   8.519   7.750
 2939POPC   NC338987  17.906  26.753   9.447
 2939POPC   PO438988  17.275  26.431   9.467
 2939POPC   GL138989  17.450  26.769   9.208
 2939POPC   GL238990  17.478  27.101   9.354
 2939POPC   C1A38991  17.724  26.839   8.837
 2939POPC   D2A38992  17.621  26.615   8.475
 2939POPC   C3A38993  17.708  26.794   8.094
 2939POPC   C4A38994  17.497  26.806   7.711
 2939POPC   C1B38995  17.346  27.188   8.889
 2939POPC   C2B38996  17.540  27.142   8.468
 2939POPC   C3B38997  17.398  27.187   8.032
 2939POPC   C4B38998  17.768  27.230   7.759
 2940POPC   NC338999  40.338  16.597   9.406
 2940POPC   PO439000  39.743  17.042   9.486
 2940POPC   GL139001  39.970  16.920   9.160
 2940POPC   GL239002  39.771  17.161   8.981
 2940POPC   C1A39003  40.037  16.590   8.825
 2940POPC   D2A39004  40.208  16.651   8.409
 2940POPC   C3A39005  40.164  16.405   8.068
 2940POPC   C4A39006  40.166  16.598   7.676
 2940POPC   C1B39007  39.564  16.782   8.830
 2940POPC   C2B39008  39.693  16.600   8.432
 2940POPC   C3B39009  39.773  16.733   8.020
 2940POPC   C4B39010  39.838  17.033   7.674
 2941POPC   NC339011  26.105  24.671   9.559
 2941POPC   PO439012  25.537  24.400   9.461
 2941POPC   GL139013  25.795  24.498   9.128
 2941POPC   GL239014  26.116  24.348   9.127
 2941POPC   C1A39015  25.933  24.739   8.793
 2941POPC   D2A39016  26.097  24.817   8.402
 2941POPC   C3A39017  26.031  24.530   8.097
 2941POPC   C4A39018  26.086  24.396   7.660
 2941POPC   C1B39019  26.352  24.428   8.774
 2941POPC   C2B39020  26.451  24.344   8.368
 2941POPC   C3B39021  26.507  24.495   7.952
 2941POPC   C4B39022  26.498  24.653   7.537
 2942POPC   NC339023   9.278  33.337   9.348
 2942POPC   PO439024   9.958  33.198   9.442
 2942POPC   GL139025   9.733  33.138   9.101
 2942POPC   GL239026  10.015  33.273   8.937
 2942POPC   C1A39027   9.535  33.260   8.696
 2942POPC   D2A39028   9.335  32.981   8.381
 2942POPC   C3A39029   9.477  33.063   7.959
 2942POPC   C4A39030   9.799  32.869   7.683
 2942POPC   C1B39031   9.950  32.925   8.695
 2942POPC   C2B39032   9.843  33.031   8.299
 2942POPC   C3B39033   9.971  33.254   7.936
 2942POPC   C4B39034  10.072  33.287   7.488
 2943POPC   NC339035  10.029   3.824   9.656
 2943POPC   PO439036   9.715   3.291   9.411
 2943POPC   GL139037   9.648   3.536   9.084
 2943POPC   GL239038   9.831   3.827   9.108
 2943POPC   C1A39039   9.469   3.516   8.700
 2943POPC   D2A39040   9.450   3.478   8.287
 2943POPC   C3A39041   9.736   3.320   7.979
 2943POPC   C4A39042   9.627   3.641   7.724
 2943POPC   C1B39043   9.955   3.688   8.672
 2943POPC   C2B39044   9.906   3.735   8.237
 2943POPC   C3B39045  10.044   3.970   7.899
 2943POPC   C4B39046  10.142   3.662   7.633
 2944POPC   NC339047  34.597  35.508   9.510
 2944POPC   PO439048  34.286  35.023   9.371
 2944POPC   GL139049  34.569  35.181   9.083
 2944POPC   GL239050  34.844  34.992   8.967
 2944POPC   C1A39051  34.458  35.271   8.664
 2944POPC   D2A39052  34.542  35.443   8.245
 2944POPC   C3A39053  34.478  35.216   7.835
 2944POPC   C4A39054  34.258  35.410   7.489
 2944POPC   C1B39055  34.926  35.429   8.780
 2944POPC   C2B39056  35.051  35.615   8.373
 2944POPC   C3B39057  34.955  35.467   7.929
 2944POPC   C4B39058  34.947  35.099   7.646
 2945POPC   NC339059   3.814  17.240   9.608
 2945POPC   PO439060   3.444  17.851   9.558
 2945POPC   GL139061   3.378  17.538   9.258
 2945POPC   GL239062   3.698  17.540   9.151
 2945POPC   C1A39063   3.280  17.487   8.800
 2945POPC   D2A39064   3.467  17.657   8.411
 2945POPC   C3A39065   3.228  17.831   8.074
 2945POPC   C4A39066   3.274  17.483   7.809
 2945POPC   C1B39067   3.883  17.539   8.740
 2945POPC   C2B39068   3.890  17.296   8.347
 2945POPC   C3B39069   3.761  17.266   7.903
 2945POPC   C4B39070   3.934  16.958   7.648
 2946POPC   NC339071   9.336   2.415   9.379
 2946POPC   PO439072   8.737   2.026   9.542
 2946POPC   GL139073   8.920   2.080   9.162
 2946POPC   GL239074   9.205   1.935   9.195
 2946POPC   C1A39075   9.041   2.088   8.715
 2946POPC   D2A39076   8.891   1.932   8.360
 2946POPC   C3A39077   9.091   1.937   8.002
 2946POPC   C4A39078   8.836   1.907   7.695
 2946POPC   C1B39079   9.420   1.762   8.845
 2946POPC   C2B39080   9.314   1.655   8.449
 2946POPC   C3B39081   9.472   1.612   8.055
 2946POPC   C4B39082   9.436   1.781   7.647
 2947POPC   NC339083   5.734  15.502   9.663
 2947POPC   PO439084   5.534  16.159   9.580
 2947POPC   GL139085   5.810  16.066   9.229
 2947POPC   GL239086   5.934  15.748   9.228
 2947POPC   C1A39087   5.691  15.955   8.793
 2947POPC   D2A39088   5.674  15.738   8.393
 2947POPC   C3A39089   5.821  15.966   8.085
 2947POPC   C4A39090   5.713  15.876   7.709
 2947POPC   C1B39091   6.179  15.863   8.869
 2947POPC   C2B39092   6.227  15.823   8.449
 2947POPC   C3B39093   6.295  15.775   8.011
 2947POPC   C4B39094   6.230  16.046   7.665
 2948POPC   NC339095   7.465  20.630   9.818
 2948POPC   PO439096   7.027  20.986   9.785
 2948POPC   GL139097   7.352  20.817   9.361
 2948POPC   GL239098   7.590  20.534   9.233
 2948POPC   C1A39099   7.300  20.754   8.877
 2948POPC   D2A39100   7.058  20.514   8.538
 2948POPC   C3A39101   7.136  20.635   8.098
 2948POPC   C4A39102   7.290  20.868   7.736
 2948POPC   C1B39103   7.722  20.487   8.779
 2948POPC   C2B39104   7.752  20.729   8.364
 2948POPC   C3B39105   7.673  20.570   7.914
 2948POPC   C4B39106   7.757  20.224   7.580
 2949POPC   NC339107   5.048  12.894   9.443
 2949POPC   PO439108   4.813  12.244   9.682
 2949POPC   GL139109   4.972  12.382   9.228
 2949POPC   GL239110   5.313  12.489   9.209
 2949POPC   C1A39111   5.022  12.600   8.811
 2949POPC   D2A39112   4.902  12.667   8.386
 2949POPC   C3A39113   4.853  12.988   8.073
 2949POPC   C4A39114   4.829  12.761   7.704
 2949POPC   C1B39115   5.519  12.743   8.891
 2949POPC   C2B39116   5.391  12.912   8.492
 2949POPC   C3B39117   5.335  12.799   8.053
 2949POPC   C4B39118   5.324  13.005   7.665
 2950POPC   NC339119  20.229  15.741   9.579
 2950POPC   PO439120  20.726  16.180   9.463
 2950POPC   GL139121  20.548  15.859   9.131
 2950POPC   GL239122  20.253  15.607   9.098
 2950POPC   C1A39123  20.642  16.034   8.719
 2950POPC   D2A39124  20.472  16.258   8.368
 2950POPC   C3A39125  20.634  16.198   7.967
 2950POPC   C4A39126  20.427  16.383   7.614
 2950POPC   C1B39127  20.414  15.591   8.682
 2950POPC   C2B39128  20.639  15.739   8.291
 2950POPC   C3B39129  20.439  15.728   7.895
 2950POPC   C4B39130  20.593  15.476   7.586
 2951POPC   NC339131   3.488   9.434   9.381
 2951POPC   PO439132   3.829   8.884   9.484
 2951POPC   GL139133   3.601   8.736   9.059
 2951POPC   GL239134   3.245   8.654   9.186
 2951POPC   C1A39135   3.584   8.882   8.610
 2951POPC   D2A39136   3.352   9.263   8.453
 2951POPC   C3A39137   3.450   9.304   8.040
 2951POPC   C4A39138   3.441   9.007   7.708
 2951POPC   C1B39139   3.144   8.940   8.855
 2951POPC   C2B39140   3.006   8.884   8.457
 2951POPC   C3B39141   3.144   8.737   8.035
 2951POPC   C4B39142   3.036   8.692   7.580
 2952POPC   NC339143  15.759  40.603   9.600
 2952POPC   PO439144  16.315  40.869   9.664
 2952POPC   GL139145  15.986  41.007   9.276
 2952POPC   GL239146  15.739  40.748   9.110
 2952POPC   C1A39147  15.852  41.144   8.812
 2952POPC   D2A39148  16.027  41.157   8.354
 2952POPC   C3A39149  16.072  40.835   7.998
 2952POPC   C4A39150  16.337  40.499   7.755
 2952POPC   C1B39151  15.533  40.454   8.825
 2952POPC   C2B39152  15.554  40.568   8.379
 2952POPC   C3B39153  15.636  40.535   7.967
 2952POPC   C4B39154  15.843  40.526   7.584
 2953POPC   NC339155  21.454  37.254   9.408
 2953POPC   PO439156  20.996  37.674   9.591
 2953POPC   GL139157  21.243  37.652   9.189
 2953POPC   GL239158  21.517  37.884   9.183
 2953POPC   C1A39159  21.164  37.396   8.780
 2953POPC   D2A39160  21.172  37.263   8.312
 2953POPC   C3A39161  21.397  37.455   7.963
 2953POPC   C4A39162  21.330  37.547   7.511
 2953POPC   C1B39163  21.659  37.579   8.859
 2953POPC   C2B39164  21.513  37.621   8.466
 2953POPC   C3B39165  21.464  37.914   8.192
 2953POPC   C4B39166  21.518  37.935   7.769
 2954POPC   NC339167  14.991  38.995   9.612
 2954POPC   PO439168  15.558  39.245   9.642
 2954POPC   GL139169  15.280  39.105   9.197
 2954POPC   GL239170  14.929  38.924   9.123
 2954POPC   C1A39171  15.236  38.992   8.713
 2954POPC   D2A39172  15.358  39.206   8.327
 2954POPC   C3A39173  15.336  39.033   7.929
 2954POPC   C4A39174  15.452  39.298   7.584
 2954POPC   C1B39175  14.802  39.244   8.824
 2954POPC   C2B39176  14.866  39.279   8.367
 2954POPC   C3B39177  14.925  39.347   7.928
 2954POPC   C4B39178  14.727  39.141   7.588
 2955POPC   NC339179  17.280   5.659   9.481
 2955POPC   PO439180  17.906   5.979   9.557
 2955POPC   GL139181  17.639   5.908   9.187
 2955POPC   GL239182  17.347   6.148   9.224
 2955POPC   C1A39183  17.544   5.641   8.795
 2955POPC   D2A39184  17.655   5.688   8.365
 2955POPC   C3A39185  17.405   5.544   8.015
 2955POPC   C4A39186  17.662   5.628   7.700
 2955POPC   C1B39187  17.333   6.093   8.791
 2955POPC   C2B39188  17.547   6.183   8.399
 2955POPC   C3B39189  17.465   6.058   7.958
 2955POPC   C4B39190  17.378   6.233   7.517
 2956POPC   NC339191  21.043  14.899   9.388
 2956POPC   PO439192  20.466  15.344   9.518
 2956POPC   GL139193  20.497  15.131   9.153
 2956POPC   GL239194  20.744  15.345   8.982
 2956POPC   C1A39195  20.386  15.085   8.732
 2956POPC   D2A39196  20.696  15.240   8.418
 2956POPC   C3A39197  20.508  15.252   8.052
 2956POPC   C4A39198  20.426  14.971   7.750
 2956POPC   C1B39199  20.862  14.931   8.782
 2956POPC   C2B39200  20.922  14.773   8.377
 2956POPC   C3B39201  20.919  14.942   7.955
 2956POPC   C4B39202  20.881  15.082   7.512
 2957POPC   NC339203   4.580  17.289   9.438
 2957POPC   PO439204   4.007  17.708   9.540
 2957POPC   GL139205   4.214  17.683   9.156
 2957POPC   GL239206   4.173  17.336   9.124
 2957POPC   C1A39207   4.351  17.811   8.730
 2957POPC   D2A39208   4.636  17.912   8.363
 2957POPC   C3A39209   4.523  17.645   8.041
 2957POPC   C4A39210   4.148  17.636   7.752
 2957POPC   C1B39211   4.509  17.330   8.803
 2957POPC   C2B39212   4.489  17.218   8.384
 2957POPC   C3B39213   4.270  17.208   7.986
 2957POPC   C4B39214   4.335  17.231   7.499
 2958POPC   NC339215   7.413  42.497   9.656
 2958POPC   PO439216   7.549  41.908   9.629
 2958POPC   GL139217   7.492  42.082   9.209
 2958POPC   GL239218   7.260  42.335   9.180
 2958POPC   C1A39219   7.587  42.240   8.787
 2958POPC   D2A39220   7.310  42.215   8.459
 2958POPC   C3A39221   7.379  42.392   8.066
 2958POPC   C4A39222   7.608  42.161   7.805
 2958POPC   C1B39223   7.184  42.593   8.811
 2958POPC   C2B39224   7.372  42.787   8.462
 2958POPC   C3B39225   7.263  42.886   8.074
 2958POPC   C4B39226   7.116  42.711   7.719
 2959POPC   NC339227  40.171  13.299   9.448
 2959POPC   PO439228  39.596  13.693   9.486
 2959POPC   GL139229  39.862  13.754   9.114
 2959POPC   GL239230  40.230  13.693   9.104
 2959POPC   C1A39231  39.850  13.696   8.667
 2959POPC   D2A39232  39.651  13.487   8.317
 2959POPC   C3A39233  39.865  13.448   7.918
 2959POPC   C4A39234  39.867  13.735   7.585
 2959POPC   C1B39235  40.257  14.004   8.772
 2959POPC   C2B39236  40.149  14.007   8.340
 2959POPC   C3B39237  40.234  13.817   7.948
 2959POPC   C4B39238  40.456  13.493   7.760
 2960POPC   NC339239  38.388  27.690   9.612
 2960POPC   PO439240  38.785  27.196   9.453
 2960POPC   GL139241  38.563  27.484   9.171
 2960POPC   GL239242  38.253  27.469   9.156
 2960POPC   C1A39243  38.379  27.636   8.715
 2960POPC   D2A39244  38.112  27.604   8.356
 2960POPC   C3A39245  38.359  27.722   8.040
 2960POPC   C4A39246  38.567  27.651   7.691
 2960POPC   C1B39247  38.410  27.142   8.846
 2960POPC   C2B39248  38.339  27.141   8.422
 2960POPC   C3B39249  38.295  27.231   7.980
 2960POPC   C4B39250  38.531  27.099   7.623
 2961POPC   NC339251  14.462  37.945   9.515
 2961POPC   PO439252  14.723  37.260   9.349
 2961POPC   GL139253  14.510  37.619   9.127
 2961POPC   GL239254  14.215  37.605   8.980
 2961POPC   C1A39255  14.616  37.833   8.729
 2961POPC   D2A39256  14.423  37.886   8.300
 2961POPC   C3A39257  14.564  37.658   7.926
 2961POPC   C4A39258  14.535  37.742   7.453
 2961POPC   C1B39259  14.315  37.450   8.572
 2961POPC   C2B39260  14.157  37.444   8.161
 2961POPC   C3B39261  14.102  37.514   7.692
 2961POPC   C4B39262  14.156  37.475   7.216
 2962POPC   NC339263  17.907  14.917   9.284
 2962POPC   PO439264  18.014  15.577   9.563
 2962POPC   GL139265  18.131  15.361   9.178
 2962POPC   GL239266  18.402  15.119   9.228
 2962POPC   C1A39267  18.134  15.222   8.742
 2962POPC   D2A39268  18.051  15.483   8.353
 2962POPC   C3A39269  18.173  15.371   7.961
 2962POPC   C4A39270  17.994  15.324   7.522
 2962POPC   C1B39271  18.620  14.972   8.833
 2962POPC   C2B39272  18.585  14.804   8.438
 2962POPC   C3B39273  18.540  14.988   8.065
 2962POPC   C4B39274  18.299  14.952   7.721
 2963POPC   NC339275  12.892  41.246   9.768
 2963POPC   PO439276  13.006  41.877   9.508
 2963POPC   GL139277  12.743  41.543   9.282
 2963POPC   GL239278  12.886  41.196   9.225
 2963POPC   C1A39279  12.721  41.581   8.816
 2963POPC   D2A39280  12.799  41.758   8.386
 2963POPC   C3A39281  12.841  41.624   7.989
 2963POPC   C4A39282  12.588  41.804   7.693
 2963POPC   C1B39283  13.124  41.231   8.807
 2963POPC   C2B39284  13.121  41.367   8.362
 2963POPC   C3B39285  13.152  41.202   7.969
 2963POPC   C4B39286  12.960  41.320   7.569
 2964POPC   NC339287   4.717  32.879   9.627
 2964POPC   PO439288   5.339  33.327   9.636
 2964POPC   GL139289   5.310  33.114   9.185
 2964POPC   GL239290   5.110  32.815   9.228
 2964POPC   C1A39291   5.282  33.019   8.752
 2964POPC   D2A39292   5.182  32.996   8.287
 2964POPC   C3A39293   5.413  32.908   7.889
 2964POPC   C4A39294   5.432  33.214   7.507
 2964POPC   C1B39295   4.759  32.896   8.903
 2964POPC   C2B39296   4.726  32.894   8.480
 2964POPC   C3B39297   4.782  32.751   8.080
 2964POPC   C4B39298   4.890  33.019   7.784
 2965POPC   NC339299  19.436  16.127   9.377
 2965POPC   PO439300  18.937  15.707   9.667
 2965POPC   GL139301  18.868  15.826   9.184
 2965POPC   GL239302  19.068  16.086   9.039
 2965POPC   C1A39303  18.922  15.739   8.725
 2965POPC   D2A39304  18.940  15.903   8.362
 2965POPC   C3A39305  19.098  15.802   7.976
 2965POPC   C4A39306  18.841  15.749   7.608
 2965POPC   C1B39307  19.091  16.312   8.673
 2965POPC   C2B39308  19.229  16.308   8.266
 2965POPC   C3B39309  18.971  16.397   7.956
 2965POPC   C4B39310  18.852  16.248   7.566
 2966POPC   NC339311   4.238   9.860   9.548
 2966POPC   PO439312   4.666   9.455   9.425
 2966POPC   GL139313   4.478   9.750   9.112
 2966POPC   GL239314   4.095   9.866   9.070
 2966POPC   C1A39315   4.372   9.620   8.712
 2966POPC   D2A39316   4.268   9.692   8.331
 2966POPC   C3A39317   4.304   9.387   8.066
 2966POPC   C4A39318   4.526   9.546   7.755
 2966POPC   C1B39319   3.981   9.991   8.669
 2966POPC   C2B39320   4.207  10.187   8.353
 2966POPC   C3B39321   4.261  10.044   7.927
 2966POPC   C4B39322   3.939  10.002   7.640
 2967POPC   NC339323  44.626  17.813   9.425
 2967POPC   PO439324  44.409  18.386   9.694
 2967POPC   GL139325  44.399  18.392   9.207
 2967POPC   GL239326  44.498  18.075   8.991
 2967POPC   C1A39327  44.459  18.603   8.771
 2967POPC   D2A39328  44.737  18.522   8.376
 2967POPC   C3A39329  44.581  18.370   7.952
 2967POPC   C4A39330  44.405  17.967   7.790
 2967POPC   C1B39331  44.813  17.841   8.675
 2967POPC   C2B39332   0.142  17.914   8.373
 2967POPC   C3B39333   0.005  18.067   7.996
 2967POPC   C4B39334  44.871  18.172   7.582
 2968POPC   NC339335   2.687  34.460   9.610
 2968POPC   PO439336   3.275  34.797   9.665
 2968POPC   GL139337   3.217  34.522   9.327
 2968POPC   GL239338   2.946  34.732   9.246
 2968POPC   C1A39339   3.086  34.340   8.916
 2968POPC   D2A39340   2.821  34.310   8.518
 2968POPC   C3A39341   3.037  34.368   8.122
 2968POPC   C4A39342   3.072  34.293   7.690
 2968POPC   C1B39343   2.786  34.770   8.818
 2968POPC   C2B39344   2.765  34.866   8.362
 2968POPC   C3B39345   2.618  34.653   8.009
 2968POPC   C4B39346   2.564  34.759   7.588
 2969POPC   NC339347  34.410  28.873   9.494
 2969POPC   PO439348  34.594  29.564   9.590
 2969POPC   GL139349  34.581  29.287   9.193
 2969POPC   GL239350  34.287  29.106   9.076
 2969POPC   C1A39351  34.697  29.041   8.794
 2969POPC   D2A39352  34.812  29.150   8.376
 2969POPC   C3A39353  34.839  28.828   8.029
 2969POPC   C4A39354  34.876  29.002   7.601
 2969POPC   C1B39355  34.256  29.290   8.701
 2969POPC   C2B39356  34.330  29.345   8.279
 2969POPC   C3B39357  34.514  29.214   7.922
 2969POPC   C4B39358  34.366  29.080   7.522
 2970POPC   NC339359  26.935  14.338   9.338
 2970POPC   PO439360  27.536  14.332   9.743
 2970POPC   GL139361  27.594  14.336   9.277
 2970POPC   GL239362  27.366  14.242   9.137
 2970POPC   C1A39363  27.645  14.526   8.827
 2970POPC   D2A39364  27.735  14.761   8.437
 2970POPC   C3A39365  27.771  14.532   8.054
 2970POPC   C4A39366  27.470  14.459   7.752
 2970POPC   C1B39367  27.203  14.168   8.768
 2970POPC   C2B39368  27.215  13.998   8.421
 2970POPC   C3B39369  27.384  14.062   8.056
 2970POPC   C4B39370  27.183  14.041   7.681
 2971POPC   NC339371  16.700  22.130   9.700
 2971POPC   PO439372  17.035  21.624   9.409
 2971POPC   GL139373  16.906  22.043   9.193
 2971POPC   GL239374  16.852  22.391   9.293
 2971POPC   C1A39375  16.950  22.296   8.794
 2971POPC   D2A39376  16.777  22.235   8.377
 2971POPC   C3A39377  17.022  22.201   8.001
 2971POPC   C4A39378  16.900  22.034   7.590
 2971POPC   C1B39379  16.559  22.556   8.991
 2971POPC   C2B39380  16.569  22.690   8.554
 2971POPC   C3B39381  16.394  22.516   8.197
 2971POPC   C4B39382  16.524  22.241   7.863
 2972POPC   NC339383   4.547  42.084   9.206
 2972POPC   PO439384   5.044  42.518   9.486
 2972POPC   GL139385   5.212  42.441   9.096
 2972POPC   GL239386   5.226  42.767   9.007
 2972POPC   C1A39387   5.252  42.108   8.803
 2972POPC   D2A39388   4.892  42.073   8.526
 2972POPC   C3A39389   4.844  42.241   8.102
 2972POPC   C4A39390   5.194  42.348   7.791
 2972POPC   C1B39391   5.095  42.564   8.622
 2972POPC   C2B39392   5.312  42.343   8.314
 2972POPC   C3B39393   5.556  42.635   8.114
 2972POPC   C4B39394   5.429  42.806   7.742
 2973POPC   NC339395  23.644  27.932   9.870
 2973POPC   PO439396  23.636  28.522   9.573
 2973POPC   GL139397  23.664  28.391   9.143
 2973POPC   GL239398  23.721  28.044   9.056
 2973POPC   C1A39399  23.590  28.453   8.715
 2973POPC   D2A39400  23.388  28.295   8.360
 2973POPC   C3A39401  23.601  28.321   8.021
 2973POPC   C4A39402  23.406  28.329   7.664
 2973POPC   C1B39403  23.757  27.983   8.599
 2973POPC   C2B39404  23.992  28.317   8.402
 2973POPC   C3B39405  24.053  28.544   8.028
 2973POPC   C4B39406  23.918  28.377   7.603
 2974POPC   NC339407  33.502  31.298   9.357
 2974POPC   PO439408  33.875  31.855   9.402
 2974POPC   GL139409  33.964  31.508   9.142
 2974POPC   GL239410  34.154  31.647   8.870
 2974POPC   C1A39411  33.819  31.257   8.766
 2974POPC   D2A39412  34.045  31.281   8.398
 2974POPC   C3A39413  33.838  31.249   8.032
 2974POPC   C4A39414  34.000  31.357   7.678
 2974POPC   C1B39415  33.728  31.785   8.743
 2974POPC   C2B39416  33.528  31.730   8.336
 2974POPC   C3B39417  33.697  31.764   7.906
 2974POPC   C4B39418  33.771  31.738   7.462
 2975POPC   NC339419  17.808  19.606   9.576
 2975POPC   PO439420  17.812  18.863   9.516
 2975POPC   GL139421  17.643  19.173   9.279
 2975POPC   GL239422  17.937  19.330   9.140
 2975POPC   C1A39423  17.466  19.218   8.877
 2975POPC   D2A39424  17.435  19.387   8.468
 2975POPC   C3A39425  17.368  19.069   8.170
 2975POPC   C4A39426  17.485  19.216   7.776
 2975POPC   C1B39427  17.932  18.949   8.884
 2975POPC   C2B39428  17.690  18.793   8.548
 2975POPC   C3B39429  17.867  18.918   8.166
 2975POPC   C4B39430  18.002  19.070   7.778
 2976POPC   NC339431  26.463  27.022   9.747
 2976POPC   PO439432  26.801  26.412   9.659
 2976POPC   GL139433  26.728  26.664   9.290
 2976POPC   GL239434  26.871  26.432   9.089
 2976POPC   C1A39435  26.668  26.877   8.834
 2976POPC   D2A39436  26.498  27.087   8.407
 2976POPC   C3A39437  26.500  26.820   8.035
 2976POPC   C4A39438  26.804  26.713   7.729
 2976POPC   C1B39439  27.012  26.482   8.650
 2976POPC   C2B39440  26.896  26.785   8.379
 2976POPC   C3B39441  26.924  27.109   8.064
 2976POPC   C4B39442  27.173  27.066   7.678
 2977POPC   NC339443  31.045  26.369   9.519
 2977POPC   PO439444  30.560  25.905   9.306
 2977POPC   GL139445  30.803  26.118   9.096
 2977POPC   GL239446  30.891  25.864   8.906
 2977POPC   C1A39447  31.031  26.348   8.773
 2977POPC   D2A39448  30.849  26.185   8.408
 2977POPC   C3A39449  31.006  26.284   8.015
 2977POPC   C4A39450  30.807  26.219   7.648
 2977POPC   C1B39451  30.572  25.815   8.651
 2977POPC   C2B39452  30.721  25.661   8.279
 2977POPC   C3B39453  30.912  25.629   7.881
 2977POPC   C4B39454  30.509  25.686   7.779
 2978POPC   NC339455  14.209   5.957   9.478
 2978POPC   PO439456  14.616   5.446   9.560
 2978POPC   GL139457  14.549   5.666   9.192
 2978POPC   GL239458  14.224   5.557   9.160
 2978POPC   C1A39459  14.661   5.816   8.778
 2978POPC   D2A39460  14.572   5.688   8.379
 2978POPC   C3A39461  14.678   5.994   8.053
 2978POPC   C4A39462  14.472   6.225   7.727
 2978POPC   C1B39463  14.160   5.807   8.781
 2978POPC   C2B39464  14.083   6.006   8.391
 2978POPC   C3B39465  14.109   5.907   7.978
 2978POPC   C4B39466  14.393   5.589   7.920
 2979POPC   NC339467  14.826   6.003   9.507
 2979POPC   PO439468  15.487   5.911   9.463
 2979POPC   GL139469  15.252   6.055   9.185
 2979POPC   GL239470  15.530   6.160   9.008
 2979POPC   C1A39471  15.168   5.830   8.823
 2979POPC   D2A39472  15.045   5.965   8.423
 2979POPC   C3A39473  15.291   5.805   8.101
 2979POPC   C4A39474  15.066   5.858   7.745
 2979POPC   C1B39475  15.265   6.327   8.734
 2979POPC   C2B39476  15.390   6.384   8.351
 2979POPC   C3B39477  15.356   6.293   7.918
 2979POPC   C4B39478  15.584   6.007   7.708
 2980POPC   NC339479   3.466  37.710   9.547
 2980POPC   PO439480   3.315  37.210   9.196
 2980POPC   GL139481   3.421  37.591   9.038
 2980POPC   GL239482   3.737  37.708   9.108
 2980POPC   C1A39483   3.407  37.902   8.723
 2980POPC   D2A39484   3.571  37.976   8.325
 2980POPC   C3A39485   3.539  37.654   7.995
 2980POPC   C4A39486   3.348  37.611   7.566
 2980POPC   C1B39487   3.914  37.883   8.760
 2980POPC   C2B39488   4.045  37.807   8.377
 2980POPC   C3B39489   3.955  38.002   7.977
 2980POPC   C4B39490   3.772  37.889   7.598
 2981POPC   NC339491   5.443  25.904   9.560
 2981POPC   PO439492   6.063  26.172   9.561
 2981POPC   GL139493   5.886  25.866   9.272
 2981POPC   GL239494   5.679  26.118   9.141
 2981POPC   C1A39495   5.992  25.693   8.845
 2981POPC   D2A39496   5.875  25.706   8.381
 2981POPC   C3A39497   6.146  25.952   8.094
 2981POPC   C4A39498   6.115  26.325   7.794
 2981POPC   C1B39499   5.555  25.974   8.740
 2981POPC   C2B39500   5.432  26.096   8.326
 2981POPC   C3B39501   5.649  26.001   7.915
 2981POPC   C4B39502   5.550  25.770   7.539
 2982POPC   NC339503  32.447  14.194   9.351
 2982POPC   PO439504  31.960  14.623   9.476
 2982POPC   GL139505  32.252  14.641   9.128
 2982POPC   GL239506  32.347  15.007   9.117
 2982POPC   C1A39507  32.424  14.420   8.726
 2982POPC   D2A39508  32.271  14.120   8.370
 2982POPC   C3A39509  32.335  14.213   7.899
 2982POPC   C4A39510  32.508  14.128   7.455
 2982POPC   C1B39511  32.209  14.912   8.712
 2982POPC   C2B39512  32.109  14.863   8.282
 2982POPC   C3B39513  32.052  14.758   7.882
 2982POPC   C4B39514  32.244  14.563   7.523
 2983POPC   NC339515  42.021  17.388   9.441
 2983POPC   PO439516  42.583  17.088   9.534
 2983POPC   GL139517  42.615  17.243   9.092
 2983POPC   GL239518  42.302  17.439   8.996
 2983POPC   C1A39519  42.591  17.263   8.619
 2983POPC   D2A39520  42.210  17.384   8.390
 2983POPC   C3A39521  42.168  17.465   7.960
 2983POPC   C4A39522  42.514  17.461   7.723
 2983POPC   C1B39523  42.152  17.782   8.695
 2983POPC   C2B39524  42.162  17.913   8.263
 2983POPC   C3B39525  42.481  17.938   7.944
 2983POPC   C4B39526  42.535  17.919   7.507
 2984POPC   NC339527  13.050   0.837   9.580
 2984POPC   PO439528  12.757   1.445   9.551
 2984POPC   GL139529  12.740   1.120   9.273
 2984POPC   GL239530  13.054   1.130   9.163
 2984POPC   C1A39531  12.681   0.953   8.853
 2984POPC   D2A39532  12.855   1.077   8.464
 2984POPC   C3A39533  12.712   1.460   8.224
 2984POPC   C4A39534  12.699   1.462   7.773
 2984POPC   C1B39535  13.035   1.449   8.822
 2984POPC   C2B39536  13.204   1.458   8.377
 2984POPC   C3B39537  13.058   1.178   8.000
 2984POPC   C4B39538  13.193   1.228   7.576
 2985POPC   NC339539  40.324  29.725   9.478
 2985POPC   PO439540  39.800  30.106   9.474
 2985POPC   GL139541  40.061  30.017   9.138
 2985POPC   GL239542  40.283  30.243   9.087
 2985POPC   C1A39543  40.021  29.852   8.731
 2985POPC   D2A39544  39.826  29.980   8.353
 2985POPC   C3A39545  39.996  29.786   7.986
 2985POPC   C4A39546  40.366  29.587   7.854
 2985POPC   C1B39547  40.098  30.346   8.694
 2985POPC   C2B39548  40.273  30.215   8.305
 2985POPC   C3B39549  40.194  30.270   7.864
 2985POPC   C4B39550  40.207  30.318   7.417
 2986POPC   NC339551   2.226  13.935   9.470
 2986POPC   PO439552   2.334  13.212   9.508
 2986POPC   GL139553   2.088  13.474   9.253
 2986POPC   GL239554   1.712  13.464   9.298
 2986POPC   C1A39555   2.076  13.664   8.858
 2986POPC   D2A39556   2.232  13.695   8.453
 2986POPC   C3A39557   2.211  13.807   8.042
 2986POPC   C4A39558   2.261  13.428   7.836
 2986POPC   C1B39559   1.587  13.556   8.859
 2986POPC   C2B39560   1.727  13.762   8.469
 2986POPC   C3B39561   1.706  13.618   8.048
 2986POPC   C4B39562   1.823  13.643   7.623
 2987POPC   NC339563  32.697  43.172   9.471
 2987POPC   PO439564  33.287  42.828   9.450
 2987POPC   GL139565  33.133  43.175   9.201
 2987POPC   GL239566  33.336  43.483   9.184
 2987POPC   C1A39567  32.937  43.330   8.838
 2987POPC   D2A39568  33.006  43.394   8.410
 2987POPC   C3A39569  33.102  43.086   8.105
 2987POPC   C4A39570  32.866  43.054   7.726
 2987POPC   C1B39571  33.434  43.327   8.767
 2987POPC   C2B39572  33.565  43.316   8.367
 2987POPC   C3B39573  33.593  43.120   8.005
 2987POPC   C4B39574  33.376  43.287   7.677
 2988POPC   NC339575  27.859  25.799   9.384
 2988POPC   PO439576  27.270  26.069   9.424
 2988POPC   GL139577  27.504  26.005   9.058
 2988POPC   GL239578  27.828  26.224   9.061
 2988POPC   C1A39579  27.446  26.030   8.626
 2988POPC   D2A39580  27.267  26.189   8.255
 2988POPC   C3A39581  27.595  26.330   8.009
 2988POPC   C4A39582  27.841  26.185   7.763
 2988POPC   C1B39583  27.959  25.947   8.714
 2988POPC   C2B39584  27.845  25.978   8.277
 2988POPC   C3B39585  27.966  25.728   7.913
 2988POPC   C4B39586  27.887  25.779   7.460
 2989POPC   NC339587  13.034  32.811   9.536
 2989POPC   PO439588  12.530  33.249   9.645
 2989POPC   GL139589  12.743  33.090   9.202
 2989POPC   GL239590  12.594  32.766   9.153
 2989POPC   C1A39591  13.059  32.942   8.817
 2989POPC   D2A39592  12.929  32.723   8.370
 2989POPC   C3A39593  12.950  32.996   7.992
 2989POPC   C4A39594  12.930  33.265   7.627
 2989POPC   C1B39595  12.583  32.948   8.715
 2989POPC   C2B39596  12.515  33.073   8.304
 2989POPC   C3B39597  12.436  32.905   7.905
 2989POPC   C4B39598  12.606  32.889   7.467
 2990POPC   NC339599  23.361  33.740   9.369
 2990POPC   PO439600  24.013  33.869   9.562
 2990POPC   GL139601  23.901  33.876   9.140
 2990POPC   GL239602  23.575  34.014   9.004
 2990POPC   C1A39603  23.915  33.714   8.739
 2990POPC   D2A39604  23.605  33.828   8.487
 2990POPC   C3A39605  23.656  33.787   8.053
 2990POPC   C4A39606  23.869  33.625   7.705
 2990POPC   C1B39607  23.380  34.280   8.672
 2990POPC   C2B39608  23.234  34.112   8.312
 2990POPC   C3B39609  23.317  34.170   7.941
 2990POPC   C4B39610  23.537  34.457   7.744
 2991POPC   NC339611  30.488  18.094   9.447
 2991POPC   PO439612  30.871  18.676   9.525
 2991POPC   GL139613  30.772  18.487   9.152
 2991POPC   GL239614  31.099  18.373   9.029
 2991POPC   C1A39615  30.644  18.347   8.747
 2991POPC   D2A39616  30.470  18.030   8.483
 2991POPC   C3A39617  30.445  18.046   8.044
 2991POPC   C4A39618  30.714  17.999   7.697
 2991POPC   C1B39619  31.187  18.267   8.612
 2991POPC   C2B39620  30.942  18.260   8.247
 2991POPC   C3B39621  30.902  18.477   7.868
 2991POPC   C4B39622  30.965  18.352   7.441
 2992POPC   NC339623   9.342  12.294   9.904
 2992POPC   PO439624   8.979  11.952   9.443
 2992POPC   GL139625   9.158  11.892   9.068
 2992POPC   GL239626   9.018  12.252   8.970
 2992POPC   C1A39627   9.016  11.831   8.676
 2992POPC   D2A39628   9.058  12.176   8.434
 2992POPC   C3A39629   9.214  12.067   8.051
 2992POPC   C4A39630   9.059  11.672   7.899
 2992POPC   C1B39631   8.645  12.304   8.735
 2992POPC   C2B39632   8.565  12.123   8.357
 2992POPC   C3B39633   8.605  12.283   7.935
 2992POPC   C4B39634   8.972  12.450   7.850
 2993POPC   NC339635   6.470  29.293   9.508
 2993POPC   PO439636   7.148  29.176   9.449
 2993POPC   GL139637   6.767  29.159   9.124
 2993POPC   GL239638   6.388  29.064   9.078
 2993POPC   C1A39639   6.758  29.278   8.708
 2993POPC   D2A39640   6.662  29.122   8.303
 2993POPC   C3A39641   7.011  29.016   7.996
 2993POPC   C4A39642   7.032  29.261   7.654
 2993POPC   C1B39643   6.190  29.157   8.717
 2993POPC   C2B39644   6.155  28.962   8.337
 2993POPC   C3B39645   6.138  29.166   7.970
 2993POPC   C4B39646   6.540  29.116   7.796
 2994POPC   NC339647   8.470  20.932   9.575
 2994POPC   PO439648   7.867  20.704   9.618
 2994POPC   GL139649   8.034  20.832   9.266
 2994POPC   GL239650   8.222  20.547   9.199
 2994POPC   C1A39651   8.032  20.867   8.824
 2994POPC   D2A39652   8.265  20.762   8.461
 2994POPC   C3A39653   8.158  20.857   8.044
 2994POPC   C4A39654   8.370  20.711   7.674
 2994POPC   C1B39655   8.263  20.382   8.794
 2994POPC   C2B39656   8.043  20.312   8.413
 2994POPC   C3B39657   8.126  20.333   7.991
 2994POPC   C4B39658   8.452  20.196   7.762
 2995POPC   NC339659  11.041   6.798   9.394
 2995POPC   PO439660  11.532   6.366   9.472
 2995POPC   GL139661  11.396   6.554   9.100
 2995POPC   GL239662  11.122   6.323   9.142
 2995POPC   C1A39663  11.350   6.734   8.658
 2995POPC   D2A39664  11.245   6.620   8.214
 2995POPC   C3A39665  11.139   6.680   7.772
 2995POPC   C4A39666  11.420   6.835   7.444
 2995POPC   C1B39667  11.261   6.226   8.734
 2995POPC   C2B39668  11.104   6.157   8.349
 2995POPC   C3B39669  11.199   6.191   7.928
 2995POPC   C4B39670  10.921   6.037   7.660
 2996POPC   NC339671   1.113  30.299   9.612
 2996POPC   PO439672   0.860  29.701   9.460
 2996POPC   GL139673   1.002  29.990   9.158
 2996POPC   GL239674   1.355  30.003   9.112
 2996POPC   C1A39675   1.029  29.803   8.752
 2996POPC   D2A39676   0.817  29.710   8.370
 2996POPC   C3A39677   1.118  29.812   8.068
 2996POPC   C4A39678   1.184  29.806   7.627
 2996POPC   C1B39679   1.426  30.189   8.703
 2996POPC   C2B39680   1.443  30.163   8.259
 2996POPC   C3B39681   1.393  30.206   7.831
 2996POPC   C4B39682   1.016  30.298   7.551
 2997POPC   NC339683  32.274  21.593   9.523
 2997POPC   PO439684  32.702  21.053   9.427
 2997POPC   GL139685  32.360  21.203   9.146
 2997POPC   GL239686  32.439  21.550   9.061
 2997POPC   C1A39687  32.127  21.349   8.758
 2997POPC   D2A39688  31.954  21.195   8.407
 2997POPC   C3A39689  32.157  21.187   8.006
 2997POPC   C4A39690  32.139  21.119   7.556
 2997POPC   C1B39691  32.537  21.738   8.660
 2997POPC   C2B39692  32.513  21.945   8.307
 2997POPC   C3B39693  32.352  21.676   8.044
 2997POPC   C4B39694  32.338  21.569   7.660
 2998POPC   NC339695  26.025  18.968   9.705
 2998POPC   PO439696  26.346  19.518   9.630
 2998POPC   GL139697  26.216  19.231   9.256
 2998POPC   GL239698  26.017  18.894   9.200
 2998POPC   C1A39699  26.146  19.170   8.800
 2998POPC   D2A39700  26.084  18.925   8.413
 2998POPC   C3A39701  26.319  19.037   8.032
 2998POPC   C4A39702  26.049  19.158   7.733
 2998POPC   C1B39703  25.842  18.684   8.831
 2998POPC   C2B39704  25.632  18.662   8.427
 2998POPC   C3B39705  25.810  18.682   8.020
 2998POPC   C4B39706  25.676  18.849   7.638
 2999POPC   NC339707   3.432  30.549   9.596
 2999POPC   PO439708   3.998  30.833   9.679
 2999POPC   GL139709   3.803  30.720   9.234
 2999POPC   GL239710   3.426  30.744   9.131
 2999POPC   C1A39711   3.738  30.529   8.802
 2999POPC   D2A39712   3.491  30.448   8.416
 2999POPC   C3A39713   3.656  30.637   8.040
 2999POPC   C4A39714   3.897  30.800   7.687
 2999POPC   C1B39715   3.198  30.736   8.740
 2999POPC   C2B39716   2.995  30.679   8.345
 2999POPC   C3B39717   3.172  30.839   7.948
 2999POPC   C4B39718   3.280  30.884   7.485
 3000POPC   NC339719  41.345  34.837   9.531
 3000POPC   PO439720  41.869  34.357   9.534
 3000POPC   GL139721  41.767  34.632   9.168
 3000POPC   GL239722  41.420  34.632   9.073
 3000POPC   C1A39723  41.755  34.598   8.693
 3000POPC   D2A39724  41.799  34.884   8.365
 3000POPC   C3A39725  41.683  34.668   8.025
 3000POPC   C4A39726  41.455  34.353   7.880
 3000POPC   C1B39727  41.229  34.638   8.657
 3000POPC   C2B39728  41.168  34.612   8.231
 3000POPC   C3B39729  41.184  34.788   7.849
 3000POPC   C4B39730  41.037  35.138   7.627
 3001POPC   NC339731  41.272   8.371   9.812
 3001POPC   PO439732  41.781   7.967   9.593
 3001POPC   GL139733  41.664   8.042   9.143
 3001POPC   GL239734  41.370   8.284   9.184
 3001POPC   C1A39735  41.699   8.046   8.666
 3001POPC   D2A39736  41.432   7.832   8.326
 3001POPC   C3A39737  41.412   8.025   7.904
 3001POPC   C4A39738  41.753   8.102   7.595
 3001POPC   C1B39739  41.264   8.397   8.737
 3001POPC   C2B39740  41.417   8.354   8.310
 3001POPC   C3B39741  41.602   8.486   7.926
 3001POPC   C4B39742  41.496   8.550   7.490
 3002POPC   NC339743   6.643  23.029   9.646
 3002POPC   PO439744   5.977  23.012   9.574
 3002POPC   GL139745   5.844  22.906   9.143
 3002POPC   GL239746   5.634  23.169   9.027
 3002POPC   C1A39747   5.846  22.798   8.693
 3002POPC   D2A39748   5.677  22.608   8.331
 3002POPC   C3A39749   5.885  22.748   8.007
 3002POPC   C4A39750   5.732  22.567   7.699
 3002POPC   C1B39751   6.037  23.247   8.796
 3002POPC   C2B39752   6.192  23.128   8.354
 3002POPC   C3B39753   6.100  23.200   7.881
 3002POPC   C4B39754   6.108  23.257   7.388
 3003POPC   NC339755   0.521  16.147   9.974
 3003POPC   PO439756   0.304  16.316   9.392
 3003POPC   GL139757   0.331  16.172   9.019
 3003POPC   GL239758   0.643  16.004   9.036
 3003POPC   C1A39759   0.487  16.248   8.610
 3003POPC   D2A39760   0.342  16.023   8.265
 3003POPC   C3A39761   0.571  16.021   7.864
 3003POPC   C4A39762   0.573  16.207   7.435
 3003POPC   C1B39763   0.594  15.742   8.648
 3003POPC   C2B39764   0.646  15.603   8.221
 3003POPC   C3B39765   0.942  15.601   7.905
 3003POPC   C4B39766   0.853  15.518   7.470
 3004POPC   NC339767  31.511   8.033   9.495
 3004POPC   PO439768  31.818   8.662   9.522
 3004POPC   GL139769  31.614   8.433   9.207
 3004POPC   GL239770  31.247   8.404   9.236
 3004POPC   C1A39771  31.564   8.211   8.854
 3004POPC   D2A39772  31.716   8.322   8.483
 3004POPC   C3A39773  31.496   8.298   8.129
 3004POPC   C4A39774  31.619   8.184   7.704
 3004POPC   C1B39775  31.248   8.602   8.845
 3004POPC   C2B39776  31.124   8.456   8.450
 3004POPC   C3B39777  30.965   8.437   8.050
 3004POPC   C4B39778  31.242   8.517   7.709
 3005POPC   NC339779  35.952  28.443   9.568
 3005POPC   PO439780  36.471  28.116   9.345
 3005POPC   GL139781  36.189  28.380   9.112
 3005POPC   GL239782  35.823  28.306   9.084
 3005POPC   C1A39783  36.084  28.519   8.703
 3005POPC   D2A39784  36.202  28.676   8.307
 3005POPC   C3A39785  36.040  28.437   7.957
 3005POPC   C4A39786  36.141  28.486   7.537
 3005POPC   C1B39787  35.887  28.015   8.712
 3005POPC   C2B39788  35.742  27.863   8.299
 3005POPC   C3B39789  35.529  28.010   7.923
 3005POPC   C4B39790  35.809  28.044   7.571
 3006POPC   NC339791  13.890  10.148   9.358
 3006POPC   PO439792  13.663  10.866   9.505
 3006POPC   GL139793  13.580  10.561   9.211
 3006POPC   GL239794  13.277  10.365   9.311
 3006POPC   C1A39795  13.751  10.523   8.798
 3006POPC   D2A39796  13.886  10.414   8.402
 3006POPC   C3A39797  13.977  10.748   8.115
 3006POPC   C4A39798  13.877  10.625   7.718
 3006POPC   C1B39799  13.232  10.521   8.841
 3006POPC   C2B39800  13.370  10.411   8.438
 3006POPC   C3B39801  13.478  10.569   8.028
 3006POPC   C4B39802  13.364  10.694   7.589
 3007POPC   NC339803   4.658  38.859   9.557
 3007POPC   PO439804   4.131  39.141   9.281
 3007POPC   GL139805   4.500  39.047   9.074
 3007POPC   GL239806   4.724  39.314   9.026
 3007POPC   C1A39807   4.490  39.070   8.637
 3007POPC   D2A39808   4.559  39.150   8.210
 3007POPC   C3A39809   4.175  39.207   7.979
 3007POPC   C4A39810   4.393  38.974   7.696
 3007POPC   C1B39811   4.406  39.572   8.798
 3007POPC   C2B39812   4.251  39.498   8.425
 3007POPC   C3B39813   4.461  39.632   8.087
 3007POPC   C4B39814   4.324  39.757   7.723
 3008POPC   NC339815  42.723  25.913   9.452
 3008POPC   PO439816  42.046  26.177   9.438
 3008POPC   GL139817  42.364  26.002   9.135
 3008POPC   GL239818  42.518  26.298   9.069
 3008POPC   C1A39819  42.409  25.788   8.749
 3008POPC   D2A39820  42.381  26.031   8.380
 3008POPC   C3A39821  42.290  25.817   8.023
 3008POPC   C4A39822  42.555  25.725   7.728
 3008POPC   C1B39823  42.107  26.215   8.784
 3008POPC   C2B39824  41.995  26.429   8.431
 3008POPC   C3B39825  42.036  26.265   8.059
 3008POPC   C4B39826  42.340  26.237   7.757
 3009POPC   NC339827  36.789  21.007   9.492
 3009POPC   PO439828  36.733  21.662   9.593
 3009POPC   GL139829  36.732  21.527   9.154
 3009POPC   GL239830  36.587  21.184   9.072
 3009POPC   C1A39831  36.645  21.480   8.688
 3009POPC   D2A39832  36.719  21.148   8.394
 3009POPC   C3A39833  36.968  21.435   8.164
 3009POPC   C4A39834  36.826  21.669   7.837
 3009POPC   C1B39835  36.994  21.077   8.812
 3009POPC   C2B39836  37.241  21.068   8.403
 3009POPC   C3B39837  37.090  20.999   7.943
 3009POPC   C4B39838  37.332  21.115   7.538
 3010POPC   NC339839   8.423  35.992   9.415
 3010POPC   PO439840   7.776  35.955   9.388
 3010POPC   GL139841   7.966  36.164   9.085
 3010POPC   GL239842   8.299  36.301   9.063
 3010POPC   C1A39843   8.110  36.094   8.663
 3010POPC   D2A39844   7.997  35.807   8.380
 3010POPC   C3A39845   8.110  35.972   8.001
 3010POPC   C4A39846   8.161  35.724   7.656
 3010POPC   C1B39847   8.479  36.499   8.708
 3010POPC   C2B39848   8.353  36.398   8.294
 3010POPC   C3B39849   8.469  36.335   7.888
 3010POPC   C4B39850   8.615  35.917   7.793
 3011POPC   NC339851  20.073  24.617   9.541
 3011POPC   PO439852  20.607  24.278   9.581
 3011POPC   GL139853  20.679  24.573   9.203
 3011POPC   GL239854  20.365  24.690   9.123
 3011POPC   C1A39855  20.868  24.562   8.770
 3011POPC   D2A39856  20.734  24.351   8.384
 3011POPC   C3A39857  20.851  24.521   7.976
 3011POPC   C4A39858  20.879  24.443   7.532
 3011POPC   C1B39859  20.377  24.380   8.791
 3011POPC   C2B39860  20.254  24.151   8.429
 3011POPC   C3B39861  20.331  24.079   8.019
 3011POPC   C4B39862  20.398  24.413   7.728
 3012POPC   NC339863   4.865  26.267   9.405
 3012POPC   PO439864   5.052  25.635   9.502
 3012POPC   GL139865   5.278  25.718   9.130
 3012POPC   GL239866   5.175  26.027   9.094
 3012POPC   C1A39867   5.128  25.700   8.701
 3012POPC   D2A39868   4.963  25.835   8.343
 3012POPC   C3A39869   5.207  25.752   8.023
 3012POPC   C4A39870   4.932  25.863   7.724
 3012POPC   C1B39871   5.084  26.241   8.724
 3012POPC   C2B39872   4.914  26.352   8.331
 3012POPC   C3B39873   5.103  26.273   7.950
 3012POPC   C4B39874   5.288  26.185   7.549
 3013POPC   NC339875  36.244  34.643   9.515
 3013POPC   PO439876  35.547  34.543   9.406
 3013POPC   GL139877  35.935  34.502   9.158
 3013POPC   GL239878  36.146  34.813   9.047
 3013POPC   C1A39879  36.184  34.370   8.821
 3013POPC   D2A39880  36.205  34.667   8.511
 3013POPC   C3A39881  36.248  34.434   8.175
 3013POPC   C4A39882  36.121  34.550   7.772
 3013POPC   C1B39883  36.572  34.808   8.837
 3013POPC   C2B39884  36.674  34.909   8.400
 3013POPC   C3B39885  36.341  34.948   8.086
 3013POPC   C4B39886  36.305  35.011   7.648
 3014POPC   NC339887  21.163  33.208   9.636
 3014POPC   PO439888  21.660  32.679   9.647
 3014POPC   GL139889  21.449  32.895   9.263
 3014POPC   GL239890  21.293  33.223   9.151
 3014POPC   C1A39891  21.317  32.782   8.811
 3014POPC   D2A39892  21.350  32.999   8.385
 3014POPC   C3A39893  21.338  32.816   7.945
 3014POPC   C4A39894  21.042  32.792   7.570
 3014POPC   C1B39895  21.560  33.224   8.797
 3014POPC   C2B39896  21.671  33.411   8.427
 3014POPC   C3B39897  21.496  33.336   8.030
 3014POPC   C4B39898  21.510  33.230   7.612
 3015POPC   NC339899  22.242  11.913   9.742
 3015POPC   PO439900  22.293  12.426   9.453
 3015POPC   GL139901  22.139  12.182   9.134
 3015POPC   GL239902  22.313  11.872   9.183
 3015POPC   C1A39903  21.980  12.047   8.730
 3015POPC   D2A39904  22.039  11.727   8.392
 3015POPC   C3A39905  21.921  11.896   7.978
 3015POPC   C4A39906  21.942  12.364   7.875
 3015POPC   C1B39907  22.516  11.679   8.825
 3015POPC   C2B39908  22.582  11.610   8.385
 3015POPC   C3B39909  22.441  11.944   8.113
 3015POPC   C4B39910  22.458  12.305   7.855
 3016POPC   NC339911   9.072  26.122   9.492
 3016POPC   PO439912   8.517  25.686   9.284
 3016POPC   GL139913   8.865  25.888   9.045
 3016POPC   GL239914   9.251  25.839   9.088
 3016POPC   C1A39915   8.989  25.913   8.608
 3016POPC   D2A39916   8.910  26.241   8.327
 3016POPC   C3A39917   8.710  26.090   7.972
 3016POPC   C4A39918   8.750  25.727   7.664
 3016POPC   C1B39919   9.391  26.168   8.782
 3016POPC   C2B39920   9.415  26.279   8.307
 3016POPC   C3B39921   9.233  25.985   7.940
 3016POPC   C4B39922   9.194  25.877   7.479
 3017POPC   NC339923  26.343   8.143   9.603
 3017POPC   PO439924  25.915   8.651   9.713
 3017POPC   GL139925  26.000   8.377   9.311
 3017POPC   GL239926  25.816   8.068   9.142
 3017POPC   C1A39927  26.143   8.379   8.881
 3017POPC   D2A39928  26.109   8.199   8.494
 3017POPC   C3A39929  26.272   8.198   8.112
 3017POPC   C4A39930  26.146   8.276   7.724
 3017POPC   C1B39931  25.932   7.819   8.771
 3017POPC   C2B39932  25.997   7.702   8.331
 3017POPC   C3B39933  26.087   7.763   7.892
 3017POPC   C4B39934  25.872   7.856   7.522
 3018POPC   NC339935  33.542  39.892   9.798
 3018POPC   PO439936  34.227  40.124   9.587
 3018POPC   GL139937  33.924  40.220   9.269
 3018POPC   GL239938  33.878  39.912   9.206
 3018POPC   C1A39939  33.836  40.230   8.803
 3018POPC   D2A39940  33.996  40.046   8.425
 3018POPC   C3A39941  33.819  40.027   8.020
 3018POPC   C4A39942  34.059  40.089   7.647
 3018POPC   C1B39943  33.848  39.683   8.812
 3018POPC   C2B39944  33.914  39.538   8.392
 3018POPC   C3B39945  33.655  39.542   8.023
 3018POPC   C4B39946  33.812  39.645   7.630
 3019POPC   NC339947   3.094  16.762   9.474
 3019POPC   PO439948   2.812  16.146   9.682
 3019POPC   GL139949   2.734  16.478   9.233
 3019POPC   GL239950   2.726  16.776   9.145
 3019POPC   C1A39951   2.906  16.505   8.767
 3019POPC   D2A39952   2.785  16.555   8.354
 3019POPC   C3A39953   3.031  16.624   7.990
 3019POPC   C4A39954   2.763  16.612   7.609
 3019POPC   C1B39955   2.968  17.011   8.859
 3019POPC   C2B39956   2.870  17.055   8.455
 3019POPC   C3B39957   3.074  17.134   8.122
 3019POPC   C4B39958   2.968  17.070   7.720
 3020POPC   NC339959  39.885  35.918   9.314
 3020POPC   PO439960  40.535  35.883   9.334
 3020POPC   GL139961  40.316  36.073   8.988
 3020POPC   GL239962  39.945  36.087   8.854
 3020POPC   C1A39963  40.307  36.363   8.666
 3020POPC   D2A39964  40.019  36.361   8.348
 3020POPC   C3A39965  40.237  36.231   8.026
 3020POPC   C4A39966  40.348  36.409   7.669
 3020POPC   C1B39967  39.721  36.461   8.771
 3020POPC   C2B39968  39.598  36.654   8.378
 3020POPC   C3B39969  39.405  36.461   8.023
 3020POPC   C4B39970  39.736  36.199   7.831
 3021POPC   NC339971  24.579  18.401   9.592
 3021POPC   PO439972  24.128  17.884   9.557
 3021POPC   GL139973  24.441  17.891   9.186
 3021POPC   GL239974  24.511  18.230   9.087
 3021POPC   C1A39975  24.610  17.880   8.723
 3021POPC   D2A39976  24.330  17.957   8.340
 3021POPC   C3A39977  24.498  18.089   7.982
 3021POPC   C4A39978  24.754  17.989   7.684
 3021POPC   C1B39979  24.135  18.079   8.829
 3021POPC   C2B39980  23.913  18.219   8.450
 3021POPC   C3B39981  24.068  18.351   8.046
 3021POPC   C4B39982  24.320  18.498   7.742
 3022POPC   NC339983  26.801   0.863   9.311
 3022POPC   PO439984  26.557   0.146   9.499
 3022POPC   GL139985  26.629   0.354   9.109
 3022POPC   GL239986  26.930   0.421   9.119
 3022POPC   C1A39987  26.563   0.570   8.708
 3022POPC   D2A39988  26.814   0.636   8.317
 3022POPC   C3A39989  26.694   0.613   7.853
 3022POPC   C4A39990  26.414   0.524   7.458
 3022POPC   C1B39991  27.030   0.372   8.733
 3022POPC   C2B39992  27.305   0.500   8.437
 3022POPC   C3B39993  27.220   0.617   8.019
 3022POPC   C4B39994  27.086   0.326   7.708
 3023POPC   NC339995   0.939   4.168   9.581
 3023POPC   PO439996   1.663   4.147   9.556
 3023POPC   GL139997   1.574   4.331   9.160
 3023POPC   GL239998   1.256   4.493   9.258
 3023POPC   C1A39999   1.381   4.272   8.784
 3023POPC   D2A40000   1.154   4.322   8.438
 3023POPC   C3A40001   1.424   4.373   8.093
 3023POPC   C4A40002   1.424   4.260   7.696
 3023POPC   C1B40003   1.281   4.750   8.872
 3023POPC   C2B40004   1.488   4.717   8.477
 3023POPC   C3B40005   1.435   4.888   8.081
 3023POPC   C4B40006   1.155   4.700   7.784
 3024POPC   NC340007  34.099   0.498   9.574
 3024POPC   PO440008  33.790  44.876   9.630
 3024POPC   GL140009  33.781   0.234   9.275
 3024POPC   GL240010  33.505   0.491   9.262
 3024POPC   C1A40011  33.926   0.464   8.882
 3024POPC   D2A40012  34.101   0.380   8.461
 3024POPC   C3A40013  33.971   0.617   8.116
 3024POPC   C4A40014  33.982   0.412   7.704
 3024POPC   C1B40015  33.448   0.266   8.862
 3024POPC   C2B40016  33.598   0.436   8.466
 3024POPC   C3B40017  33.570   0.291   8.034
 3024POPC   C4B40018  33.370   0.519   7.723
 3025POPC   NC340019  25.759  42.577   9.504
 3025POPC   PO440020  26.228  42.156   9.561
 3025POPC   GL140021  25.997  42.147   9.172
 3025POPC   GL240022  25.732  42.332   9.073
 3025POPC   C1A40023  26.086  42.204   8.724
 3025POPC   D2A40024  26.203  42.022   8.330
 3025POPC   C3A40025  26.241  42.304   7.966
 3025POPC   C4A40026  25.917  42.265   7.676
 3025POPC   C1B40027  25.663  42.499   8.675
 3025POPC   C2B40028  25.856  42.490   8.255
 3025POPC   C3B40029  25.631  42.637   7.869
 3025POPC   C4B40030  25.751  42.676   7.418
 3026POPC   NC340031  18.967   6.381   9.392
 3026POPC   PO440032  19.398   6.904   9.143
 3026POPC   GL140033  19.085   6.636   8.961
 3026POPC   GL240034  19.201   6.287   8.956
 3026POPC   C1A40035  18.759   6.737   8.642
 3026POPC   D2A40036  18.815   7.000   8.285
 3026POPC   C3A40037  18.730   6.909   7.874
 3026POPC   C4A40038  18.866   7.117   7.481
 3026POPC   C1B40039  18.809   6.259   8.761
 3026POPC   C2B40040  18.640   6.290   8.371
 3026POPC   C3B40041  18.539   6.434   7.994
 3026POPC   C4B40042  18.858   6.457   7.702
 3027POPC   NC340043   5.053  30.373   9.252
 3027POPC   PO440044   4.814  30.899   9.405
 3027POPC   GL140045   4.914  30.818   9.044
 3027POPC   GL240046   5.275  30.842   9.162
 3027POPC   C1A40047   4.814  30.820   8.595
 3027POPC   D2A40048   4.842  30.464   8.309
 3027POPC   C3A40049   5.129  30.438   7.954
 3027POPC   C4A40050   5.044  30.715   7.584
 3027POPC   C1B40051   5.281  31.006   8.782
 3027POPC   C2B40052   5.307  30.792   8.386
 3027POPC   C3B40053   5.291  30.941   7.977
 3027POPC   C4B40054   5.387  31.101   7.571
 3028POPC   NC340055  26.833  35.184   9.401
 3028POPC   PO440056  27.123  35.635   9.738
 3028POPC   GL140057  27.003  35.844   9.322
 3028POPC   GL240058  26.662  35.731   9.230
 3028POPC   C1A40059  26.986  35.798   8.841
 3028POPC   D2A40060  27.179  35.557   8.509
 3028POPC   C3A40061  27.001  35.530   8.098
 3028POPC   C4A40062  27.166  35.277   7.760
 3028POPC   C1B40063  26.557  35.483   8.824
 3028POPC   C2B40064  26.582  35.284   8.398
 3028POPC   C3B40065  26.588  35.238   7.943
 3028POPC   C4B40066  26.732  35.559   7.655
 3029POPC   NC340067  41.862  33.873   9.518
 3029POPC   PO440068  41.206  33.615   9.447
 3029POPC   GL140069  41.490  33.806   9.169
 3029POPC   GL240070  41.734  33.535   9.081
 3029POPC   C1A40071  41.529  34.148   8.848
 3029POPC   D2A40072  41.519  34.246   8.390
 3029POPC   C3A40073  41.620  33.908   8.080
 3029POPC   C4A40074  41.612  33.934   7.616
 3029POPC   C1B40075  41.403  33.641   8.702
 3029POPC   C2B40076  41.154  33.645   8.286
 3029POPC   C3B40077  41.308  33.557   7.834
 3029POPC   C4B40078  41.750  33.476   7.736
 3030POPC   NC340079  28.528  28.004   9.474
 3030POPC   PO440080  28.000  27.611   9.523
 3030POPC   GL140081  28.252  27.707   9.141
 3030POPC   GL240082  28.655  27.672   9.113
 3030POPC   C1A40083  28.252  27.791   8.701
 3030POPC   D2A40084  28.437  27.937   8.307
 3030POPC   C3A40085  28.097  27.892   8.009
 3030POPC   C4A40086  28.104  27.784   7.585
 3030POPC   C1B40087  28.534  27.352   8.813
 3030POPC   C2B40088  28.390  27.400   8.389
 3030POPC   C3B40089  28.509  27.527   7.988
 3030POPC   C4B40090  28.470  27.389   7.573
 3031POPC   NC340091  12.827  37.722   9.583
 3031POPC   PO440092  13.408  37.480   9.466
 3031POPC   GL140093  13.035  37.564   9.153
 3031POPC   GL240094  12.781  37.893   9.113
 3031POPC   C1A40095  12.833  37.557   8.740
 3031POPC   D2A40096  12.961  37.691   8.351
 3031POPC   C3A40097  12.768  37.430   8.058
 3031POPC   C4A40098  12.479  37.618   7.771
 3031POPC   C1B40099  13.156  37.956   8.854
 3031POPC   C2B40100  13.438  37.895   8.523
 3031POPC   C3B40101  13.328  37.922   8.071
 3031POPC   C4B40102  12.919  37.880   7.837
 3032POPC   NC340103  26.534  39.940   9.370
 3032POPC   PO440104  25.938  39.826   9.683
 3032POPC   GL140105  25.977  39.850   9.211
 3032POPC   GL240106  26.114  40.163   9.111
 3032POPC   C1A40107  25.834  39.822   8.741
 3032POPC   D2A40108  25.942  39.591   8.330
 3032POPC   C3A40109  25.921  39.785   7.903
 3032POPC   C4A40110  25.702  39.815   7.499
 3032POPC   C1B40111  26.332  39.938   8.776
 3032POPC   C2B40112  26.599  40.066   8.487
 3032POPC   C3B40113  26.349  40.027   8.121
 3032POPC   C4B40114  26.292  40.075   7.696
 3033POPC   NC340115  23.371  29.874   9.531
 3033POPC   PO440116  22.696  29.724   9.268
 3033POPC   GL140117  23.089  29.813   9.084
 3033POPC   GL240118  23.134  30.134   9.142
 3033POPC   C1A40119  23.193  29.845   8.634
 3033POPC   D2A40120  22.958  29.709   8.280
 3033POPC   C3A40121  23.027  29.863   7.891
 3033POPC   C4A40122  23.249  30.255   7.844
 3033POPC   C1B40123  22.822  30.192   8.792
 3033POPC   C2B40124  22.905  30.226   8.359
 3033POPC   C3B40125  22.737  30.281   7.941
 3033POPC   C4B40126  22.855  30.182   7.502
 3034POPC   NC340127  19.391  14.395   9.458
 3034POPC   PO440128  20.016  14.630   9.586
 3034POPC   GL140129  19.817  14.445   9.211
 3034POPC   GL240130  19.805  14.094   9.203
 3034POPC   C1A40131  19.761  14.553   8.790
 3034POPC   D2A40132  19.979  14.841   8.533
 3034POPC   C3A40133  20.210  14.696   8.188
 3034POPC   C4A40134  20.090  14.572   7.782
 3034POPC   C1B40135  19.693  14.045   8.767
 3034POPC   C2B40136  19.500  14.177   8.422
 3034POPC   C3B40137  19.538  14.023   8.026
 3034POPC   C4B40138  19.871  14.089   7.748
 3035POPC   NC340139   9.121  22.222   9.567
 3035POPC   PO440140   9.085  21.540   9.759
 3035POPC   GL140141   9.121  21.791   9.247
 3035POPC   GL240142   9.252  22.116   9.083
 3035POPC   C1A40143   8.939  21.822   8.817
 3035POPC   D2A40144   8.910  22.028   8.397
 3035POPC   C3A40145   9.165  21.989   8.041
 3035POPC   C4A40146   8.880  22.179   7.764
 3035POPC   C1B40147   8.956  22.341   8.798
 3035POPC   C2B40148   8.714  22.531   8.490
 3035POPC   C3B40149   8.589  22.391   8.120
 3035POPC   C4B40150   8.647  22.648   7.769
 3036POPC   NC340151   7.197  31.802   9.453
 3036POPC   PO440152   7.436  31.134   9.526
 3036POPC   GL140153   7.265  31.335   9.218
 3036POPC   GL240154   7.554  31.447   9.137
 3036POPC   C1A40155   7.156  31.241   8.836
 3036POPC   D2A40156   7.217  31.347   8.415
 3036POPC   C3A40157   6.937  31.590   8.155
 3036POPC   C4A40158   7.082  31.430   7.773
 3036POPC   C1B40159   7.653  31.338   8.726
 3036POPC   C2B40160   7.731  31.407   8.315
 3036POPC   C3B40161   7.792  31.198   7.957
 3036POPC   C4B40162   7.565  31.423   7.636
 3037POPC   NC340163  40.521  42.637   9.527
 3037POPC   PO440164  41.177  42.507   9.484
 3037POPC   GL140165  40.851  42.341   9.208
 3037POPC   GL240166  40.495  42.235   9.211
 3037POPC   C1A40167  40.876  42.220   8.790
 3037POPC   D2A40168  40.647  42.167   8.423
 3037POPC   C3A40169  40.902  42.123   8.067
 3037POPC   C4A40170  41.147  42.299   7.742
 3037POPC   C1B40171  40.500  42.564   8.865
 3037POPC   C2B40172  40.367  42.602   8.420
 3037POPC   C3B40173  40.703  42.589   8.113
 3037POPC   C4B40174  40.829  42.701   7.695
 3038POPC   NC340175  24.911  41.803   9.399
 3038POPC   PO440176  24.293  41.725   9.568
 3038POPC   GL140177  24.454  41.517   9.192
 3038POPC   GL240178  24.527  41.824   9.031
 3038POPC   C1A40179  24.569  41.427   8.738
 3038POPC   D2A40180  24.590  41.698   8.370
 3038POPC   C3A40181  24.723  41.462   8.032
 3038POPC   C4A40182  24.381  41.339   7.814
 3038POPC   C1B40183  24.893  41.858   8.738
 3038POPC   C2B40184  25.058  41.926   8.295
 3038POPC   C3B40185  24.745  42.023   7.992
 3038POPC   C4B40186  24.547  41.803   7.662
 3039POPC   NC340187   9.993  34.941   9.558
 3039POPC   PO440188   9.620  34.419   9.681
 3039POPC   GL140189   9.617  34.373   9.226
 3039POPC   GL240190   9.778  34.690   9.115
 3039POPC   C1A40191   9.924  34.220   8.913
 3039POPC   D2A40192   9.900  34.143   8.436
 3039POPC   C3A40193   9.849  34.426   8.076
 3039POPC   C4A40194   9.723  34.351   7.643
 3039POPC   C1B40195   9.693  34.596   8.676
 3039POPC   C2B40196   9.588  34.837   8.359
 3039POPC   C3B40197   9.489  34.959   7.999
 3039POPC   C4B40198   9.799  34.832   7.733
 3040POPC   NC340199  12.281  14.676   9.614
 3040POPC   PO440200  11.836  14.196   9.606
 3040POPC   GL140201  12.182  14.260   9.289
 3040POPC   GL240202  11.946  14.554   9.225
 3040POPC   C1A40203  12.292  14.091   8.829
 3040POPC   D2A40204  11.990  14.100   8.473
 3040POPC   C3A40205  12.117  14.266   8.068
 3040POPC   C4A40206  11.795  14.457   7.815
 3040POPC   C1B40207  12.223  14.573   8.880
 3040POPC   C2B40208  12.323  14.513   8.468
 3040POPC   C3B40209  12.411  14.732   8.079
 3040POPC   C4B40210  12.210  14.833   7.686
 3041POPC   NC340211  33.002  15.606   9.741
 3041POPC   PO440212  33.385  15.091   9.418
 3041POPC   GL140213  33.264  15.079   9.027
 3041POPC   GL240214  33.215  14.751   9.058
 3041POPC   C1A40215  33.009  15.235   8.686
 3041POPC   D2A40216  32.890  15.546   8.407
 3041POPC   C3A40217  33.243  15.495   8.182
 3041POPC   C4A40218  33.217  15.256   7.835
 3041POPC   C1B40219  33.251  14.770   8.620
 3041POPC   C2B40220  33.063  14.961   8.266
 3041POPC   C3B40221  33.044  14.787   7.911
 3041POPC   C4B40222  33.155  14.882   7.493
 3042POPC   NC340223  35.146  15.338   9.883
 3042POPC   PO440224  34.494  15.304   9.583
 3042POPC   GL140225  34.526  15.151   9.170
 3042POPC   GL240226  34.290  14.878   9.194
 3042POPC   C1A40227  34.750  15.136   8.802
 3042POPC   D2A40228  34.582  15.294   8.439
 3042POPC   C3A40229  34.842  15.152   8.150
 3042POPC   C4A40230  35.032  15.287   7.831
 3042POPC   C1B40231  34.417  14.749   8.776
 3042POPC   C2B40232  34.636  14.778   8.424
 3042POPC   C3B40233  34.432  14.824   8.042
 3042POPC   C4B40234  34.612  15.004   7.699
 3043POPC   NC340235   2.046  27.169   9.686
 3043POPC   PO440236   1.878  26.575   9.418
 3043POPC   GL140237   2.113  26.617   9.084
 3043POPC   GL240238   2.253  26.938   9.135
 3043POPC   C1A40239   1.939  26.744   8.688
 3043POPC   D2A40240   1.738  26.704   8.294
 3043POPC   C3A40241   1.725  27.018   7.977
 3043POPC   C4A40242   1.695  26.694   7.691
 3043POPC   C1B40243   2.440  26.792   8.738
 3043POPC   C2B40244   2.294  26.681   8.327
 3043POPC   C3B40245   2.173  26.743   7.934
 3043POPC   C4B40246   2.475  27.016   7.781
 3044POPC   NC340247  34.227   8.224   9.436
 3044POPC   PO440248  33.615   8.365   9.626
 3044POPC   GL140249  33.746   8.138   9.253
 3044POPC   GL240250  33.449   8.227   9.088
 3044POPC   C1A40251  33.850   7.981   8.821
 3044POPC   D2A40252  33.725   8.112   8.408
 3044POPC   C3A40253  33.956   8.189   8.020
 3044POPC   C4A40254  33.866   7.955   7.666
 3044POPC   C1B40255  33.361   8.612   8.853
 3044POPC   C2B40256  33.395   8.686   8.469
 3044POPC   C3B40257  33.603   8.539   8.143
 3044POPC   C4B40258  33.505   8.318   7.798
 3045POPC   NC340259   9.881  20.128   9.562
 3045POPC   PO440260   9.794  19.504   9.527
 3045POPC   GL140261   9.641  19.714   9.131
 3045POPC   GL240262   9.859  20.000   9.071
 3045POPC   C1A40263   9.643  19.724   8.644
 3045POPC   D2A40264   9.455  19.683   8.204
 3045POPC   C3A40265   9.734  19.485   7.875
 3045POPC   C4A40266  10.006  19.625   7.519
 3045POPC   C1B40267  10.015  20.145   8.683
 3045POPC   C2B40268   9.879  20.152   8.257
 3045POPC   C3B40269   9.804  20.007   7.856
 3045POPC   C4B40270  10.071  20.158   7.522
 3046POPC   NC340271  18.843  22.620   9.269
 3046POPC   PO440272  19.153  23.194   9.426
 3046POPC   GL140273  18.928  23.100   9.086
 3046POPC   GL240274  18.698  23.401   9.071
 3046POPC   C1A40275  19.055  22.865   8.675
 3046POPC   D2A40276  19.356  22.974   8.325
 3046POPC   C3A40277  19.448  22.887   7.849
 3046POPC   C4A40278  19.241  23.065   7.453
 3046POPC   C1B40279  18.616  23.158   8.704
 3046POPC   C2B40280  18.827  23.168   8.319
 3046POPC   C3B40281  18.954  23.030   7.933
 3046POPC   C4B40282  18.690  23.020   7.579
 3047POPC   NC340283  29.317   2.465   9.416
 3047POPC   PO440284  28.720   2.896   9.599
 3047POPC   GL140285  28.966   2.772   9.201
 3047POPC   GL240286  28.851   2.449   9.112
 3047POPC   C1A40287  29.209   2.727   8.804
 3047POPC   D2A40288  29.033   2.882   8.420
 3047POPC   C3A40289  29.201   2.871   8.013
 3047POPC   C4A40290  29.178   2.759   7.559
 3047POPC   C1B40291  28.788   2.455   8.678
 3047POPC   C2B40292  28.828   2.451   8.239
 3047POPC   C3B40293  28.947   2.429   7.842
 3047POPC   C4B40294  28.845   2.371   7.419
 3048POPC   NC340295  11.485  40.914   9.454
 3048POPC   PO440296  10.918  40.595   9.463
 3048POPC   GL140297  11.158  40.775   9.091
 3048POPC   GL240298  11.504  40.652   9.030
 3048POPC   C1A40299  11.171  40.709   8.646
 3048POPC   D2A40300  11.260  40.392   8.354
 3048POPC   C3A40301  11.152  40.605   8.024
 3048POPC   C4A40302  11.313  40.891   7.806
 3048POPC   C1B40303  11.605  40.971   8.733
 3048POPC   C2B40304  11.530  40.905   8.285
 3048POPC   C3B40305  11.719  41.148   7.943
 3048POPC   C4B40306  11.671  41.044   7.501
 3049POPC   NC340307  41.866  26.628   9.428
 3049POPC   PO440308  42.425  27.053   9.573
 3049POPC   GL140309  42.355  26.758   9.239
 3049POPC   GL240310  42.640  26.830   9.100
 3049POPC   C1A40311  42.273  26.681   8.779
 3049POPC   D2A40312  42.086  26.941   8.427
 3049POPC   C3A40313  42.213  26.738   8.042
 3049POPC   C4A40314  42.393  26.714   7.619
 3049POPC   C1B40315  42.780  26.820   8.723
 3049POPC   C2B40316  42.586  26.864   8.357
 3049POPC   C3B40317  42.625  27.047   7.959
 3049POPC   C4B40318  42.916  26.926   7.648
 3050POPC   NC340319   8.775  32.799   9.426
 3050POPC   PO440320   8.810  33.397   9.325
 3050POPC   GL140321   8.925  33.099   9.046
 3050POPC   GL240322   9.254  32.962   8.975
 3050POPC   C1A40323   8.961  33.216   8.664
 3050POPC   D2A40324   8.835  33.070   8.334
 3050POPC   C3A40325   9.006  33.266   8.025
 3050POPC   C4A40326   8.770  33.184   7.690
 3050POPC   C1B40327   9.006  32.705   8.707
 3050POPC   C2B40328   9.061  32.537   8.325
 3050POPC   C3B40329   9.053  32.745   7.947
 3050POPC   C4B40330   9.305  32.805   7.575
 3051POPC   NC340331  23.844  27.298   9.904
 3051POPC   PO440332  23.926  27.892   9.510
 3051POPC   GL140333  23.755  27.590   9.289
 3051POPC   GL240334  24.064  27.566   9.124
 3051POPC   C1A40335  23.551  27.588   8.871
 3051POPC   D2A40336  23.643  27.481   8.439
 3051POPC   C3A40337  23.689  27.801   8.114
 3051POPC   C4A40338  23.465  27.494   7.892
 3051POPC   C1B40339  24.023  27.401   8.752
 3051POPC   C2B40340  24.106  27.622   8.370
 3051POPC   C3B40341  23.980  27.408   7.959
 3051POPC   C4B40342  23.892  27.228   7.522
 3052POPC   NC340343  28.729  23.156   9.354
 3052POPC   PO440344  28.254  22.702   9.504
 3052POPC   GL140345  28.440  22.800   9.145
 3052POPC   GL240346  28.822  22.703   9.147
 3052POPC   C1A40347  28.225  22.920   8.779
 3052POPC   D2A40348  28.054  23.001   8.379
 3052POPC   C3A40349  28.073  22.703   8.075
 3052POPC   C4A40350  28.202  22.976   7.809
 3052POPC   C1B40351  28.689  22.708   8.723
 3052POPC   C2B40352  28.519  22.766   8.332
 3052POPC   C3B40353  28.607  22.691   7.920
 3052POPC   C4B40354  28.547  22.842   7.483
 3053POPC   NC340355  21.196  32.552   9.589
 3053POPC   PO440356  21.338  31.877   9.683
 3053POPC   GL140357  21.404  32.036   9.209
 3053POPC   GL240358  21.103  31.989   8.983
 3053POPC   C1A40359  21.581  32.308   8.806
 3053POPC   D2A40360  21.579  32.526   8.369
 3053POPC   C3A40361  21.605  32.347   7.900
 3053POPC   C4A40362  21.336  32.349   7.503
 3053POPC   C1B40363  21.133  32.192   8.608
 3053POPC   C2B40364  21.275  32.122   8.203
 3053POPC   C3B40365  21.061  32.043   7.820
 3053POPC   C4B40366  21.064  31.927   7.369
 3054POPC   NC340367   2.387  44.165   9.485
 3054POPC   PO440368   3.097  43.949   9.566
 3054POPC   GL140369   2.891  43.741   9.207
 3054POPC   GL240370   2.567  43.854   9.152
 3054POPC   C1A40371   3.008  43.723   8.781
 3054POPC   D2A40372   2.910  43.914   8.418
 3054POPC   C3A40373   3.078  43.751   8.062
 3054POPC   C4A40374   2.978  43.906   7.711
 3054POPC   C1B40375   2.399  44.029   8.788
 3054POPC   C2B40376   2.339  43.829   8.405
 3054POPC   C3B40377   2.542  43.789   8.034
 3054POPC   C4B40378   2.496  43.971   7.647
 3055POPC   NC340379   6.895  14.592   9.370
 3055POPC   PO440380   7.362  14.165   9.661
 3055POPC   GL140381   7.447  14.285   9.233
 3055POPC   GL240382   7.405  14.649   9.199
 3055POPC   C1A40383   7.281  14.232   8.817
 3055POPC   D2A40384   7.178  14.129   8.398
 3055POPC   C3A40385   7.517  14.199   8.148
 3055POPC   C4A40386   7.473  14.295   7.749
 3055POPC   C1B40387   7.224  14.733   8.796
 3055POPC   C2B40388   7.295  14.645   8.409
 3055POPC   C3B40389   7.250  14.670   8.009
 3055POPC   C4B40390   7.585  14.805   7.757
 3056POPC   NC340391  42.932   1.527   9.407
 3056POPC   PO440392  43.343   0.953   9.559
 3056POPC   GL140393  43.211   1.149   9.201
 3056POPC   GL240394  42.845   1.040   9.196
 3056POPC   C1A40395  43.241   1.352   8.799
 3056POPC   D2A40396  43.520   1.384   8.433
 3056POPC   C3A40397  43.293   1.286   8.052
 3056POPC   C4A40398  43.274   1.345   7.629
 3056POPC   C1B40399  42.736   1.179   8.773
 3056POPC   C2B40400  42.832   1.320   8.402
 3056POPC   C3B40401  42.668   1.229   8.029
 3056POPC   C4B40402  42.784   1.350   7.656
 3057POPC   NC340403  16.438  11.964   9.542
 3057POPC   PO440404  17.044  11.570   9.430
 3057POPC   GL140405  16.946  11.946   9.177
 3057POPC   GL240406  16.611  12.046   9.080
 3057POPC   C1A40407  16.998  12.134   8.755
 3057POPC   D2A40408  16.716  12.005   8.422
 3057POPC   C3A40409  16.850  11.889   8.022
 3057POPC   C4A40410  17.039  12.222   7.822
 3057POPC   C1B40411  16.508  12.337   8.760
 3057POPC   C2B40412  16.502  12.487   8.374
 3057POPC   C3B40413  16.574  12.356   7.966
 3057POPC   C4B40414  16.561  12.062   7.616
 3058POPC   NC340415   4.638  19.631   9.375
 3058POPC   PO440416   4.956  20.170   9.524
 3058POPC   GL140417   5.098  19.881   9.214
 3058POPC   GL240418   5.140  20.112   8.973
 3058POPC   C1A40419   5.368  19.676   8.861
 3058POPC   D2A40420   5.218  19.512   8.466
 3058POPC   C3A40421   5.289  19.715   8.075
 3058POPC   C4A40422   5.183  19.583   7.634
 3058POPC   C1B40423   4.848  19.808   8.724
 3058POPC   C2B40424   4.742  19.649   8.282
 3058POPC   C3B40425   4.836  19.850   7.872
 3058POPC   C4B40426   5.141  20.054   7.482
 3059POPC   NC340427   1.191  22.256   9.665
 3059POPC   PO440428   1.759  22.534   9.619
 3059POPC   GL140429   1.466  22.468   9.253
 3059POPC   GL240430   1.433  22.104   9.246
 3059POPC   C1A40431   1.410  22.384   8.776
 3059POPC   D2A40432   1.142  22.442   8.370
 3059POPC   C3A40433   1.098  22.331   7.907
 3059POPC   C4A40434   1.152  22.347   7.426
 3059POPC   C1B40435   1.184  21.903   8.935
 3059POPC   C2B40436   1.201  21.962   8.536
 3059POPC   C3B40437   1.359  21.967   8.141
 3059POPC   C4B40438   1.168  21.848   7.736
 3060POPC   NC340439  11.915   6.145   9.579
 3060POPC   PO440440  12.267   5.605   9.542
 3060POPC   GL140441  12.293   5.982   9.250
 3060POPC   GL240442  12.014   5.854   9.114
 3060POPC   C1A40443  12.264   6.227   8.816
 3060POPC   D2A40444  12.104   6.052   8.426
 3060POPC   C3A40445  12.025   6.196   7.981
 3060POPC   C4A40446  12.129   6.217   7.527
 3060POPC   C1B40447  12.314   5.719   8.793
 3060POPC   C2B40448  12.509   5.714   8.412
 3060POPC   C3B40449  12.240   5.716   8.061
 3060POPC   C4B40450  11.990   5.764   7.655
 3061POPC   NC340451  13.462  31.995   9.782
 3061POPC   PO440452  13.791  31.648   9.248
 3061POPC   GL140453  13.725  31.384   8.950
 3061POPC   GL240454  13.384  31.423   9.022
 3061POPC   C1A40455  13.868  31.347   8.567
 3061POPC   D2A40456  14.114  31.126   8.298
 3061POPC   C3A40457  13.844  31.289   7.945
 3061POPC   C4A40458  13.781  31.733   7.841
 3061POPC   C1B40459  13.348  31.485   8.611
 3061POPC   C2B40460  13.428  31.619   8.233
 3061POPC   C3B40461  13.362  31.433   7.865
 3061POPC   C4B40462  13.597  31.362   7.496
 3062POPC   NC340463   3.219  43.465   9.494
 3062POPC   PO440464   3.631  42.894   9.539
 3062POPC   GL140465   3.440  42.881   9.153
 3062POPC   GL240466   3.489  43.229   9.136
 3062POPC   C1A40467   3.522  42.972   8.704
 3062POPC   D2A40468   3.360  42.846   8.322
 3062POPC   C3A40469   3.686  42.942   8.056
 3062POPC   C4A40470   3.683  43.190   7.677
 3062POPC   C1B40471   3.116  43.230   8.836
 3062POPC   C2B40472   3.198  43.364   8.413
 3062POPC   C3B40473   3.301  43.277   8.003
 3062POPC   C4B40474   3.205  43.454   7.599
 3063POPC   NC340475  42.803   6.154   9.274
 3063POPC   PO440476  43.361   5.787   9.512
 3063POPC   GL140477  43.242   5.952   9.142
 3063POPC   GL240478  42.987   5.710   9.087
 3063POPC   C1A40479  43.142   6.047   8.698
 3063POPC   D2A40480  43.192   6.161   8.297
 3063POPC   C3A40481  42.866   5.988   8.049
 3063POPC   C4A40482  42.716   6.049   7.665
 3063POPC   C1B40483  43.284   5.568   8.781
 3063POPC   C2B40484  43.273   5.358   8.381
 3063POPC   C3B40485  43.269   5.686   8.093
 3063POPC   C4B40486  43.168   5.804   7.684
 3064POPC   NC340487  29.005  20.860   9.327
 3064POPC   PO440488  28.861  21.438   9.592
 3064POPC   GL140489  29.045  21.355   9.170
 3064POPC   GL240490  28.867  21.154   8.949
 3064POPC   C1A40491  29.196  21.549   8.800
 3064POPC   D2A40492  29.037  21.871   8.521
 3064POPC   C3A40493  29.130  21.719   8.135
 3064POPC   C4A40494  29.169  21.600   7.719
 3064POPC   C1B40495  29.269  21.049   8.766
 3064POPC   C2B40496  29.221  20.957   8.357
 3064POPC   C3B40497  29.159  21.139   7.958
 3064POPC   C4B40498  28.984  21.160   7.519
 3065POPC   NC340499  40.850  33.981   9.412
 3065POPC   PO440500  40.293  33.509   9.539
 3065POPC   GL140501  40.646  33.535   9.210
 3065POPC   GL240502  40.638  33.849   8.982
 3065POPC   C1A40503  40.896  33.469   8.811
 3065POPC   D2A40504  40.608  33.687   8.497
 3065POPC   C3A40505  40.619  33.855   8.092
 3065POPC   C4A40506  40.788  33.607   7.775
 3065POPC   C1B40507  41.002  33.976   8.740
 3065POPC   C2B40508  41.010  34.129   8.339
 3065POPC   C3B40509  41.082  34.014   7.923
 3065POPC   C4B40510  41.031  34.303   7.633
 3066POPC   NC340511  24.972  41.029   9.497
 3066POPC   PO440512  24.326  41.026   9.391
 3066POPC   GL140513  24.473  40.687   9.133
 3066POPC   GL240514  24.828  40.666   9.172
 3066POPC   C1A40515  24.249  40.586   8.760
 3066POPC   D2A40516  24.182  40.908   8.441
 3066POPC   C3A40517  24.370  40.886   8.036
 3066POPC   C4A40518  24.520  40.938   7.568
 3066POPC   C1B40519  24.785  40.611   8.738
 3066POPC   C2B40520  24.571  40.501   8.365
 3066POPC   C3B40521  24.615  40.430   7.941
 3066POPC   C4B40522  24.863  40.593   7.649
 3067POPC   NC340523  35.921  35.665   9.489
 3067POPC   PO440524  36.356  35.123   9.493
 3067POPC   GL140525  36.392  35.255   9.079
 3067POPC   GL240526  36.208  35.520   9.094
 3067POPC   C1A40527  36.322  35.199   8.630
 3067POPC   D2A40528  36.242  35.421   8.274
 3067POPC   C3A40529  36.519  35.412   7.918
 3067POPC   C4A40530  36.251  35.509   7.600
 3067POPC   C1B40531  35.895  35.247   8.891
 3067POPC   C2B40532  35.843  35.126   8.437
 3067POPC   C3B40533  35.897  35.223   7.965
 3067POPC   C4B40534  35.828  35.219   7.521
 3068POPC   NC340535  32.255  27.985   9.573
 3068POPC   PO440536  32.032  27.335   9.472
 3068POPC   GL140537  32.084  27.499   9.122
 3068POPC   GL240538  31.971  27.803   9.186
 3068POPC   C1A40539  32.309  27.472   8.765
 3068POPC   D2A40540  32.136  27.319   8.403
 3068POPC   C3A40541  32.317  27.461   8.058
 3068POPC   C4A40542  32.328  27.726   7.737
 3068POPC   C1B40543  31.821  27.836   8.788
 3068POPC   C2B40544  31.710  27.670   8.385
 3068POPC   C3B40545  31.887  27.706   8.029
 3068POPC   C4B40546  31.923  27.452   7.651
 3069POPC   NC340547  38.101  14.657   9.536
 3069POPC   PO440548  38.520  15.254   9.497
 3069POPC   GL140549  38.528  14.956   9.139
 3069POPC   GL240550  38.188  14.962   9.129
 3069POPC   C1A40551  38.681  14.988   8.702
 3069POPC   D2A40552  38.739  15.323   8.371
 3069POPC   C3A40553  38.745  15.159   7.950
 3069POPC   C4A40554  38.594  15.278   7.538
 3069POPC   C1B40555  38.230  15.163   8.712
 3069POPC   C2B40556  38.310  15.049   8.265
 3069POPC   C3B40557  38.199  15.123   7.826
 3069POPC   C4B40558  38.112  15.100   7.371
 3070POPC   NC340559   3.512  18.973   9.566
 3070POPC   PO440560   3.294  19.619   9.441
 3070POPC   GL140561   3.293  19.220   9.149
 3070POPC   GL240562   3.249  18.833   9.148
 3070POPC   C1A40563   3.628  19.028   8.847
 3070POPC   D2A40564   3.900  19.103   8.464
 3070POPC   C3A40565   3.620  19.045   8.114
 3070POPC   C4A40566   3.436  19.211   7.733
 3070POPC   C1B40567   3.101  18.905   8.751
 3070POPC   C2B40568   3.268  18.783   8.374
 3070POPC   C3B40569   3.171  18.832   7.961
 3070POPC   C4B40570   3.331  18.725   7.565
 3071POPC   NC340571  39.329  30.121   9.483
 3071POPC   PO440572  39.250  29.507   9.479
 3071POPC   GL140573  38.938  29.654   9.202
 3071POPC   GL240574  38.890  30.006   9.245
 3071POPC   C1A40575  38.980  29.634   8.761
 3071POPC   D2A40576  39.301  29.852   8.516
 3071POPC   C3A40577  39.495  29.673   8.143
 3071POPC   C4A40578  39.546  30.023   7.847
 3071POPC   C1B40579  39.071  30.240   8.873
 3071POPC   C2B40580  39.016  30.319   8.441
 3071POPC   C3B40581  39.093  30.074   8.091
 3071POPC   C4B40582  38.981  30.153   7.696
 3072POPC   NC340583  34.144  40.586   9.558
 3072POPC   PO440584  34.013  41.177   9.385
 3072POPC   GL140585  33.852  40.959   9.044
 3072POPC   GL240586  33.695  40.657   9.104
 3072POPC   C1A40587  33.946  40.777   8.668
 3072POPC   D2A40588  33.814  40.579   8.318
 3072POPC   C3A40589  33.898  40.817   8.002
 3072POPC   C4A40590  34.088  40.807   7.653
 3072POPC   C1B40591  33.470  40.565   8.705
 3072POPC   C2B40592  33.487  40.214   8.413
 3072POPC   C3B40593  33.400  40.333   8.001
 3072POPC   C4B40594  33.708  40.451   7.721
 3073POPC   NC340595   6.001  44.199   9.534
 3073POPC   PO440596   5.856  43.530   9.611
 3073POPC   GL140597   5.784  43.690   9.207
 3073POPC   GL240598   5.644  44.044   9.185
 3073POPC   C1A40599   5.718  43.684   8.765
 3073POPC   D2A40600   5.576  43.935   8.399
 3073POPC   C3A40601   5.626  43.719   8.004
 3073POPC   C4A40602   6.052  43.556   7.852
 3073POPC   C1B40603   5.824  44.218   8.809
 3073POPC   C2B40604   5.794  44.394   8.393
 3073POPC   C3B40605   5.709  44.223   7.964
 3073POPC   C4B40606   5.638  44.204   7.482
 3074POPC   NC340607  32.005  22.137   9.768
 3074POPC   PO440608  32.566  21.910   9.718
 3074POPC   GL140609  32.161  22.017   9.292
 3074POPC   GL240610  31.836  22.177   9.216
 3074POPC   C1A40611  32.189  22.157   8.794
 3074POPC   D2A40612  32.123  22.323   8.363
 3074POPC   C3A40613  32.329  22.280   7.955
 3074POPC   C4A40614  32.473  22.552   7.616
 3074POPC   C1B40615  31.881  21.778   8.933
 3074POPC   C2B40616  32.034  21.767   8.482
 3074POPC   C3B40617  31.907  21.926   8.081
 3074POPC   C4B40618  32.057  21.994   7.655
 3075POPC   NC340619  33.917  17.740   9.467
 3075POPC   PO440620  33.838  17.114   9.610
 3075POPC   GL140621  33.804  17.321   9.182
 3075POPC   GL240622  34.175  17.369   9.145
 3075POPC   C1A40623  33.596  17.270   8.751
 3075POPC   D2A40624  33.738  17.414   8.348
 3075POPC   C3A40625  33.517  17.605   8.014
 3075POPC   C4A40626  33.727  17.471   7.698
 3075POPC   C1B40627  34.095  17.448   8.720
 3075POPC   C2B40628  34.087  17.784   8.452
 3075POPC   C3B40629  34.095  17.687   8.029
 3075POPC   C4B40630  34.244  17.607   7.632
 3076POPC   NC340631  19.526  42.148   9.392
 3076POPC   PO440632  18.921  42.349   9.453
 3076POPC   GL140633  19.132  42.576   9.162
 3076POPC   GL240634  19.245  42.300   9.003
 3076POPC   C1A40635  19.250  42.781   8.769
 3076POPC   D2A40636  19.248  42.469   8.525
 3076POPC   C3A40637  19.317  42.488   8.141
 3076POPC   C4A40638  19.024  42.483   7.805
 3076POPC   C1B40639  19.276  41.998   8.699
 3076POPC   C2B40640  19.008  42.031   8.366
 3076POPC   C3B40641  19.162  42.034   7.979
 3076POPC   C4B40642  18.996  41.958   7.629
 3077POPC   NC340643   6.863  12.367   9.687
 3077POPC   PO440644   6.442  12.978   9.540
 3077POPC   GL140645   6.566  12.747   9.182
 3077POPC   GL240646   6.902  12.714   9.074
 3077POPC   C1A40647   6.496  12.738   8.766
 3077POPC   D2A40648   6.484  12.904   8.402
 3077POPC   C3A40649   6.684  12.614   8.165
 3077POPC   C4A40650   6.712  12.625   7.746
 3077POPC   C1B40651   6.860  13.078   8.806
 3077POPC   C2B40652   6.928  13.159   8.396
 3077POPC   C3B40653   6.896  13.047   7.992
 3077POPC   C4B40654   7.020  13.051   7.599
 3078POPC   NC340655  41.309   1.229   9.552
 3078POPC   PO440656  41.970   1.490   9.555
 3078POPC   GL140657  41.694   1.231   9.228
 3078POPC   GL240658  41.396   1.414   9.086
 3078POPC   C1A40659  41.638   1.059   8.821
 3078POPC   D2A40660  41.601   1.350   8.456
 3078POPC   C3A40661  41.676   1.174   8.059
 3078POPC   C4A40662  41.810   1.002   7.664
 3078POPC   C1B40663  41.168   1.248   8.703
 3078POPC   C2B40664  41.085   1.196   8.256
 3078POPC   C3B40665  41.191   1.064   7.862
 3078POPC   C4B40666  41.402   1.380   7.676
 3079POPC   NC340667  23.322  38.477   9.450
 3079POPC   PO440668  23.984  38.697   9.544
 3079POPC   GL140669  23.887  38.701   9.140
 3079POPC   GL240670  23.540  38.801   9.121
 3079POPC   C1A40671  23.961  38.503   8.752
 3079POPC   D2A40672  23.764  38.509   8.377
 3079POPC   C3A40673  23.924  38.429   7.991
 3079POPC   C4A40674  23.722  38.652   7.697
 3079POPC   C1B40675  23.416  38.703   8.728
 3079POPC   C2B40676  23.238  38.488   8.392
 3079POPC   C3B40677  23.412  38.191   8.162
 3079POPC   C4B40678  23.501  38.191   7.798
 3080POPC   NC340679  40.183  31.295   9.481
 3080POPC   PO440680  39.569  31.511   9.348
 3080POPC   GL140681  39.822  31.366   9.101
 3080POPC   GL240682  40.065  31.645   9.124
 3080POPC   C1A40683  39.961  31.334   8.717
 3080POPC   D2A40684  40.214  31.180   8.466
 3080POPC   C3A40685  40.048  31.258   8.125
 3080POPC   C4A40686  40.211  31.279   7.761
 3080POPC   C1B40687  40.037  31.872   8.749
 3080POPC   C2B40688  39.957  31.722   8.345
 3080POPC   C3B40689  39.929  31.693   7.910
 3080POPC   C4B40690  40.074  31.661   7.477
 3081POPC   NC340691  19.581  30.619   9.437
 3081POPC   PO440692  20.004  31.123   9.482
 3081POPC   GL140693  19.953  30.819   9.178
 3081POPC   GL240694  20.040  30.488   9.249
 3081POPC   C1A40695  19.841  30.656   8.770
 3081POPC   D2A40696  19.646  30.535   8.411
 3081POPC   C3A40697  19.870  30.647   8.089
 3081POPC   C4A40698  19.975  30.717   7.710
 3081POPC   C1B40699  20.235  30.361   8.859
 3081POPC   C2B40700  20.231  30.491   8.415
 3081POPC   C3B40701  20.351  30.402   7.944
 3081POPC   C4B40702  20.229  30.367   7.460
 3082POPC   NC340703  37.344  29.378   9.506
 3082POPC   PO440704  37.778  28.880   9.489
 3082POPC   GL140705  37.526  29.032   9.157
 3082POPC   GL240706  37.779  29.264   9.144
 3082POPC   C1A40707  37.579  29.178   8.709
 3082POPC   D2A40708  37.420  29.255   8.357
 3082POPC   C3A40709  37.581  29.241   7.993
 3082POPC   C4A40710  37.597  28.902   7.775
 3082POPC   C1B40711  38.077  29.248   8.819
 3082POPC   C2B40712  38.014  29.396   8.397
 3082POPC   C3B40713  38.085  29.212   7.991
 3082POPC   C4B40714  37.879  29.393   7.615
 3083POPC   NC340715  24.210  29.709   9.271
 3083POPC   PO440716  24.801  30.183   9.452
 3083POPC   GL140717  24.474  30.106   9.111
 3083POPC   GL240718  24.356  30.391   8.975
 3083POPC   C1A40719  24.165  30.027   8.702
 3083POPC   D2A40720  24.202  30.042   8.241
 3083POPC   C3A40721  23.997  29.688   8.011
 3083POPC   C4A40722  24.084  29.251   7.880
 3083POPC   C1B40723  24.668  30.060   8.669
 3083POPC   C2B40724  24.886  29.831   8.320
 3083POPC   C3B40725  24.656  29.828   7.913
 3083POPC   C4B40726  24.308  30.118   7.751
 3084POPC   NC340727  41.189  44.544   9.438
 3084POPC   PO440728  41.676  44.939   9.397
 3084POPC   GL140729  41.754  44.732   9.046
 3084POPC   GL240730  41.646  44.420   9.183
 3084POPC   C1A40731  41.421  44.693   8.739
 3084POPC   D2A40732  41.497  44.631   8.311
 3084POPC   C3A40733  41.459   0.045   8.099
 3084POPC   C4A40734  41.246   0.158   7.726
 3084POPC   C1B40735  41.655  44.240   8.777
 3084POPC   C2B40736  41.547  44.080   8.369
 3084POPC   C3B40737  41.521  44.261   7.960
 3084POPC   C4B40738  41.697  44.668   7.823
 3085POPC   NC340739  10.484  31.127   9.442
 3085POPC   PO440740  10.321  30.447   9.502
 3085POPC   GL140741  10.349  30.696   9.176
 3085POPC   GL240742  10.694  30.608   9.134
 3085POPC   C1A40743  10.305  30.556   8.779
 3085POPC   D2A40744  10.532  30.555   8.392
 3085POPC   C3A40745  10.406  30.807   8.054
 3085POPC   C4A40746  10.537  30.548   7.744
 3085POPC   C1B40747  10.728  30.865   8.766
 3085POPC   C2B40748  10.820  30.993   8.322
 3085POPC   C3B40749  10.870  30.906   7.854
 3085POPC   C4B40750  10.641  30.916   7.419
 3086POPC   NC340751  37.508  17.184   9.462
 3086POPC   PO440752  37.891  17.677   9.370
 3086POPC   GL140753  37.753  17.454   9.055
 3086POPC   GL240754  37.831  17.085   9.098
 3086POPC   C1A40755  37.614  17.639   8.685
 3086POPC   D2A40756  37.258  17.608   8.430
 3086POPC   C3A40757  37.441  17.707   8.040
 3086POPC   C4A40758  37.775  17.707   7.742
 3086POPC   C1B40759  37.505  17.126   8.773
 3086POPC   C2B40760  37.601  17.224   8.356
 3086POPC   C3B40761  37.536  17.208   7.929
 3086POPC   C4B40762  37.694  17.256   7.517
 3087POPC   NC340763  29.353  20.144   9.303
 3087POPC   PO440764  29.757  19.736   9.695
 3087POPC   GL140765  29.754  19.739   9.222
 3087POPC   GL240766  29.410  19.648   9.161
 3087POPC   C1A40767  30.021  19.819   8.830
 3087POPC   D2A40768  30.172  19.939   8.401
 3087POPC   C3A40769  30.173  19.696   8.032
 3087POPC   C4A40770  30.190  19.932   7.679
 3087POPC   C1B40771  29.522  19.808   8.745
 3087POPC   C2B40772  29.747  19.638   8.406
 3087POPC   C3B40773  29.657  19.740   8.013
 3087POPC   C4B40774  29.625  19.965   7.638
 3088POPC   NC340775   7.532  30.675   9.555
 3088POPC   PO440776   6.920  30.558   9.394
 3088POPC   GL140777   7.222  30.814   9.135
 3088POPC   GL240778   7.583  30.900   9.094
 3088POPC   C1A40779   7.230  30.758   8.724
 3088POPC   D2A40780   7.158  30.607   8.323
 3088POPC   C3A40781   7.435  30.532   8.015
 3088POPC   C4A40782   7.202  30.480   7.645
 3088POPC   C1B40783   7.722  30.677   8.702
 3088POPC   C2B40784   7.543  30.936   8.371
 3088POPC   C3B40785   7.329  31.033   8.014
 3088POPC   C4B40786   7.459  30.931   7.642
 3089POPC   NC340787  20.191  19.217   9.371
 3089POPC   PO440788  19.597  19.022   9.536
 3089POPC   GL140789  19.722  19.139   9.155
 3089POPC   GL240790  19.752  18.791   9.060
 3089POPC   C1A40791  19.855  19.218   8.742
 3089POPC   D2A40792  20.088  19.033   8.373
 3089POPC   C3A40793  20.054  19.216   7.973
 3089POPC   C4A40794  19.641  19.209   7.833
 3089POPC   C1B40795  19.484  18.873   8.698
 3089POPC   C2B40796  19.584  18.975   8.282
 3089POPC   C3B40797  19.858  18.734   7.977
 3089POPC   C4B40798  20.134  18.764   7.612
 3090POPC   NC340799  15.446  32.981   9.553
 3090POPC   PO440800  14.796  33.342   9.549
 3090POPC   GL140801  15.077  33.123   9.209
 3090POPC   GL240802  15.134  32.755   9.203
 3090POPC   C1A40803  15.230  33.249   8.777
 3090POPC   D2A40804  15.337  33.279   8.316
 3090POPC   C3A40805  15.051  33.158   7.953
 3090POPC   C4A40806  15.029  33.353   7.516
 3090POPC   C1B40807  15.315  32.752   8.789
 3090POPC   C2B40808  15.128  32.825   8.370
 3090POPC   C3B40809  15.183  32.639   7.962
 3090POPC   C4B40810  14.911  32.561   7.604
 3091POPC   NC340811   3.550  10.291   9.410
 3091POPC   PO440812   3.958  10.736   9.650
 3091POPC   GL140813   3.822  10.693   9.236
 3091POPC   GL240814   3.491  10.775   9.254
 3091POPC   C1A40815   3.974  10.473   8.858
 3091POPC   D2A40816   3.873  10.586   8.433
 3091POPC   C3A40817   3.768  10.273   8.111
 3091POPC   C4A40818   3.752  10.464   7.718
 3091POPC   C1B40819   3.480  10.580   8.810
 3091POPC   C2B40820   3.330  10.434   8.399
 3091POPC   C3B40821   3.342  10.547   7.980
 3091POPC   C4B40822   3.274  10.540   7.490
 3092POPC   NC340823  21.876  16.195   9.505
 3092POPC   PO440824  22.522  15.979   9.606
 3092POPC   GL140825  22.342  15.987   9.217
 3092POPC   GL240826  22.052  15.783   9.199
 3092POPC   C1A40827  22.403  15.894   8.795
 3092POPC   D2A40828  22.309  16.136   8.399
 3092POPC   C3A40829  22.448  15.955   8.006
 3092POPC   C4A40830  22.336  15.839   7.580
 3092POPC   C1B40831  21.907  15.976   8.814
 3092POPC   C2B40832  21.787  16.054   8.407
 3092POPC   C3B40833  21.870  15.897   8.015
 3092POPC   C4B40834  21.703  16.118   7.677
 3093POPC   NC340835   3.350  23.409   9.524
 3093POPC   PO440836   3.693  22.853   9.274
 3093POPC   GL140837   3.368  23.076   9.104
 3093POPC   GL240838   3.545  23.357   9.024
 3093POPC   C1A40839   3.390  23.030   8.676
 3093POPC   D2A40840   3.618  22.956   8.332
 3093POPC   C3A40841   3.409  23.142   7.971
 3093POPC   C4A40842   3.367  22.749   7.769
 3093POPC   C1B40843   3.912  23.214   8.708
 3093POPC   C2B40844   4.128  23.128   8.277
 3093POPC   C3B40845   3.895  22.987   7.907
 3093POPC   C4B40846   3.665  23.053   7.513
 3094POPC   NC340847  38.422   2.998   9.540
 3094POPC   PO440848  38.695   3.596   9.469
 3094POPC   GL140849  38.481   3.500   9.133
 3094POPC   GL240850  38.656   3.177   9.122
 3094POPC   C1A40851  38.379   3.749   8.745
 3094POPC   D2A40852  38.276   3.557   8.346
 3094POPC   C3A40853  38.397   3.730   7.955
 3094POPC   C4A40854  38.216   3.718   7.566
 3094POPC   C1B40855  38.539   3.262   8.706
 3094POPC   C2B40856  38.731   3.243   8.356
 3094POPC   C3B40857  38.552   3.237   7.963
 3094POPC   C4B40858  38.728   3.374   7.599
 3095POPC   NC340859  23.632  25.010   9.524
 3095POPC   PO440860  23.777  25.627   9.382
 3095POPC   GL140861  23.729  25.265   9.089
 3095POPC   GL240862  23.981  24.987   9.142
 3095POPC   C1A40863  23.580  25.231   8.672
 3095POPC   D2A40864  23.419  25.234   8.254
 3095POPC   C3A40865  23.645  24.995   7.945
 3095POPC   C4A40866  23.584  25.253   7.589
 3095POPC   C1B40867  24.084  25.074   8.719
 3095POPC   C2B40868  24.010  25.332   8.348
 3095POPC   C3B40869  24.003  25.369   7.904
 3095POPC   C4B40870  24.055  25.015   7.624
 3096POPC   NC340871  20.993  29.787   9.438
 3096POPC   PO440872  21.224  30.393   9.467
 3096POPC   GL140873  21.427  30.110   9.172
 3096POPC   GL240874  21.480  29.717   9.151
 3096POPC   C1A40875  21.295  30.006   8.761
 3096POPC   D2A40876  21.256  30.246   8.388
 3096POPC   C3A40877  21.324  29.999   8.040
 3096POPC   C4A40878  21.123  30.008   7.675
 3096POPC   C1B40879  21.683  29.589   8.729
 3096POPC   C2B40880  21.698  29.589   8.244
 3096POPC   C3B40881  21.672  29.642   7.769
 3096POPC   C4B40882  21.680  29.511   7.294
 3097POPC   NC340883  12.753   5.734   9.585
 3097POPC   PO440884  13.078   6.319   9.749
 3097POPC   GL140885  12.784   6.149   9.318
 3097POPC   GL240886  13.017   5.842   9.187
 3097POPC   C1A40887  12.740   6.052   8.839
 3097POPC   D2A40888  12.783   6.276   8.455
 3097POPC   C3A40889  12.537   6.125   8.102
 3097POPC   C4A40890  12.520   5.913   7.691
 3097POPC   C1B40891  13.113   5.606   8.808
 3097POPC   C2B40892  12.963   5.480   8.412
 3097POPC   C3B40893  12.839   5.587   7.984
 3097POPC   C4B40894  13.114   5.596   7.615
 3098POPC   NC340895  10.710   4.289   9.629
 3098POPC   PO440896  10.396   4.848   9.496
 3098POPC   GL140897  10.667   4.563   9.203
 3098POPC   GL240898  10.483   4.270   9.111
 3098POPC   C1A40899  10.929   4.361   8.895
 3098POPC   D2A40900  10.663   4.280   8.574
 3098POPC   C3A40901  10.815   4.141   8.181
 3098POPC   C4A40902  10.674   4.060   7.773
 3098POPC   C1B40903  10.278   4.589   8.811
 3098POPC   C2B40904  10.319   4.653   8.366
 3098POPC   C3B40905  10.361   4.368   8.013
 3098POPC   C4B40906  10.438   4.451   7.523
 3099POPC   NC340907  11.340   1.188   9.595
 3099POPC   PO440908  11.534   1.826   9.519
 3099POPC   GL140909  11.544   1.447   9.181
 3099POPC   GL240910  11.432   1.048   9.134
 3099POPC   C1A40911  11.354   1.372   8.757
 3099POPC   D2A40912  11.419   1.132   8.388
 3099POPC   C3A40913  11.284   1.327   8.031
 3099POPC   C4A40914  11.222   1.507   7.641
 3099POPC   C1B40915  11.591   0.828   8.777
 3099POPC   C2B40916  11.470   0.614   8.361
 3099POPC   C3B40917  11.370   0.827   7.950
 3099POPC   C4B40918  11.080   1.004   7.657
 3100POPC   NC340919  16.837  25.049   9.486
 3100POPC   PO440920  16.852  24.356   9.527
 3100POPC   GL140921  16.721  24.402   9.128
 3100POPC   GL240922  16.683  24.729   9.125
 3100POPC   C1A40923  16.702  24.400   8.707
 3100POPC   D2A40924  16.910  24.643   8.433
 3100POPC   C3A40925  16.831  24.487   8.050
 3100POPC   C4A40926  16.987  24.361   7.679
 3100POPC   C1B40927  16.650  24.933   8.773
 3100POPC   C2B40928  16.418  24.806   8.420
 3100POPC   C3B40929  16.440  24.864   8.002
 3100POPC   C4B40930  16.658  24.759   7.627
 3101POPC   NC340931   8.381   9.867   9.635
 3101POPC   PO440932   7.834   9.554   9.453
 3101POPC   GL140933   8.219   9.643   9.200
 3101POPC   GL240934   8.401   9.968   9.149
 3101POPC   C1A40935   8.285   9.586   8.765
 3101POPC   D2A40936   8.000   9.802   8.467
 3101POPC   C3A40937   7.992   9.729   8.018
 3101POPC   C4A40938   8.305   9.447   7.824
 3101POPC   C1B40939   8.570  10.032   8.780
 3101POPC   C2B40940   8.499  10.225   8.412
 3101POPC   C3B40941   8.354  10.309   8.037
 3101POPC   C4B40942   8.390   9.961   7.782
 3102POPC   NC340943  42.218  14.997   9.478
 3102POPC   PO440944  41.681  15.400   9.418
 3102POPC   GL140945  41.478  15.331   9.036
 3102POPC   GL240946  41.743  15.087   9.019
 3102POPC   C1A40947  41.588  15.303   8.593
 3102POPC   D2A40948  41.879  15.192   8.276
 3102POPC   C3A40949  41.616  15.322   7.958
 3102POPC   C4A40950  41.729  15.420   7.526
 3102POPC   C1B40951  41.831  14.854   8.664
 3102POPC   C2B40952  41.866  14.609   8.324
 3102POPC   C3B40953  41.880  14.771   7.958
 3102POPC   C4B40954  41.632  14.926   7.649
 3103POPC   NC340955  16.229  31.826   9.766
 3103POPC   PO440956  15.584  31.766   9.587
 3103POPC   GL140957  15.872  31.846   9.193
 3103POPC   GL240958  16.268  31.831   9.235
 3103POPC   C1A40959  15.903  31.699   8.732
 3103POPC   D2A40960  15.743  31.581   8.312
 3103POPC   C3A40961  15.773  31.762   7.898
 3103POPC   C4A40962  15.955  31.475   7.547
 3103POPC   C1B40963  16.407  31.720   8.801
 3103POPC   C2B40964  16.280  31.537   8.384
 3103POPC   C3B40965  16.277  31.626   7.947
 3103POPC   C4B40966  16.491  31.470   7.556
 3104POPC   NC340967  33.756  21.575   9.643
 3104POPC   PO440968  33.974  20.942   9.440
 3104POPC   GL140969  33.962  21.293   9.174
 3104POPC   GL240970  33.624  21.407   9.118
 3104POPC   C1A40971  33.981  21.530   8.773
 3104POPC   D2A40972  33.822  21.450   8.301
 3104POPC   C3A40973  34.032  21.551   7.867
 3104POPC   C4A40974  33.950  21.556   7.394
 3104POPC   C1B40975  33.714  21.105   8.725
 3104POPC   C2B40976  33.576  20.929   8.326
 3104POPC   C3B40977  33.434  21.191   8.000
 3104POPC   C4B40978  33.568  21.329   7.610
 3105POPC   NC340979  34.015  26.222   9.778
 3105POPC   PO440980  33.743  25.596   9.572
 3105POPC   GL140981  33.807  25.805   9.176
 3105POPC   GL240982  33.623  26.126   9.126
 3105POPC   C1A40983  33.612  25.793   8.746
 3105POPC   D2A40984  33.587  25.993   8.324
 3105POPC   C3A40985  33.822  25.727   8.020
 3105POPC   C4A40986  34.051  25.773   7.624
 3105POPC   C1B40987  33.640  26.452   8.816
 3105POPC   C2B40988  33.800  26.495   8.381
 3105POPC   C3B40989  33.632  26.466   7.978
 3105POPC   C4B40990  33.620  26.482   7.554
 3106POPC   NC340991  36.030   2.568   9.672
 3106POPC   PO440992  36.302   3.077   9.726
 3106POPC   GL140993  36.305   2.881   9.241
 3106POPC   GL240994  36.126   2.638   9.167
 3106POPC   C1A40995  36.428   2.681   8.782
 3106POPC   D2A40996  36.345   2.860   8.399
 3106POPC   C3A40997  36.141   2.769   8.037
 3106POPC   C4A40998  36.112   3.006   7.689
 3106POPC   C1B40999  35.929   2.738   8.724
 3106POPC   C2B41000  35.724   2.625   8.364
 3106POPC   C3B41001  35.632   2.825   7.998
 3106POPC   C4B41002  35.766   2.649   7.639
 3107POPC   NC341003  20.996  23.244   9.438
 3107POPC   PO441004  21.660  23.115   9.566
 3107POPC   GL141005  21.362  22.864   9.302
 3107POPC   GL241006  21.047  22.892   9.092
 3107POPC   C1A41007  21.457  22.761   8.849
 3107POPC   D2A41008  21.386  22.589   8.449
 3107POPC   C3A41009  21.534  22.749   8.046
 3107POPC   C4A41010  21.446  22.789   7.610
 3107POPC   C1B41011  21.041  23.002   8.677
 3107POPC   C2B41012  21.239  23.070   8.318
 3107POPC   C3B41013  21.216  23.149   7.894
 3107POPC   C4B41014  21.153  23.185   7.453
 3108POPC   NC341015  18.573  36.667   9.430
 3108POPC   PO441016  19.264  36.735   9.502
 3108POPC   GL141017  19.097  36.713   9.103
 3108POPC   GL241018  18.880  36.978   9.034
 3108POPC   C1A41019  19.228  36.758   8.652
 3108POPC   D2A41020  19.030  36.848   8.227
 3108POPC   C3A41021  19.292  37.013   7.885
 3108POPC   C4A41022  19.499  37.351   7.672
 3108POPC   C1B41023  18.744  36.642   8.752
 3108POPC   C2B41024  18.788  36.431   8.354
 3108POPC   C3B41025  18.758  36.547   7.873
 3108POPC   C4B41026  18.642  36.620   7.404
 3109POPC   NC341027  33.277   0.742   9.648
 3109POPC   PO441028  33.121   1.308   9.510
 3109POPC   GL141029  33.140   1.151   9.163
 3109POPC   GL241030  32.952   0.880   9.229
 3109POPC   C1A41031  32.998   1.190   8.775
 3109POPC   D2A41032  32.684   1.202   8.466
 3109POPC   C3A41033  32.912   1.224   8.086
 3109POPC   C4A41034  32.973   1.443   7.710
 3109POPC   C1B41035  33.241   0.746   8.880
 3109POPC   C2B41036  33.478   0.941   8.558
 3109POPC   C3B41037  33.444   0.860   8.121
 3109POPC   C4B41038  33.287   1.042   7.737
 3110POPC   NC341039  15.254   0.004   9.608
 3110POPC   PO441040  15.026  44.412   9.430
 3110POPC   GL141041  15.183  44.662   9.128
 3110POPC   GL241042  15.025  44.984   9.137
 3110POPC   C1A41043  15.252  44.528   8.719
 3110POPC   D2A41044  15.146  44.222   8.421
 3110POPC   C3A41045  15.289  44.468   8.113
 3110POPC   C4A41046  15.287  44.609   7.728
 3110POPC   C1B41047  14.800  44.760   8.792
 3110POPC   C2B41048  14.876  44.656   8.369
 3110POPC   C3B41049  14.856  44.759   7.969
 3110POPC   C4B41050  14.792  44.617   7.598
 3111POPC   NC341051   3.935  14.530   9.591
 3111POPC   PO441052   4.399  14.113   9.577
 3111POPC   GL141053   4.240  14.244   9.211
 3111POPC   GL241054   4.551  14.349   9.090
 3111POPC   C1A41055   4.128  14.353   8.791
 3111POPC   D2A41056   4.243  14.194   8.412
 3111POPC   C3A41057   4.113  14.420   8.056
 3111POPC   C4A41058   3.970  14.380   7.647
 3111POPC   C1B41059   4.627  14.038   8.781
 3111POPC   C2B41060   4.793  14.085   8.378
 3111POPC   C3B41061   4.596  14.201   8.036
 3111POPC   C4B41062   4.520  13.990   7.704
 3112POPC   NC341063  35.119  11.516   9.592
 3112POPC   PO441064  35.595  11.241   9.435
 3112POPC   GL141065  35.217  11.218   9.180
 3112POPC   GL241066  35.439  11.035   8.972
 3112POPC   C1A41067  35.004  11.242   8.766
 3112POPC   D2A41068  34.973  11.020   8.367
 3112POPC   C3A41069  35.027  11.141   7.939
 3112POPC   C4A41070  35.259  11.039   7.549
 3112POPC   C1B41071  35.435  11.505   8.844
 3112POPC   C2B41072  35.571  11.584   8.448
 3112POPC   C3B41073  35.500  11.277   8.122
 3112POPC   C4B41074  35.401  11.458   7.749
 3113POPC   NC341075  24.353  29.870   9.720
 3113POPC   PO441076  23.763  29.638   9.463
 3113POPC   GL141077  23.653  29.792   9.120
 3113POPC   GL241078  23.865  30.054   9.104
 3113POPC   C1A41079  23.705  29.665   8.749
 3113POPC   D2A41080  23.755  29.861   8.424
 3113POPC   C3A41081  23.469  29.744   8.149
 3113POPC   C4A41082  23.513  29.826   7.734
 3113POPC   C1B41083  23.536  30.176   8.803
 3113POPC   C2B41084  23.417  30.223   8.345
 3113POPC   C3B41085  23.744  30.191   8.001
 3113POPC   C4B41086  23.706  30.260   7.557
 3114POPC   NC341087  13.517  19.347  10.105
 3114POPC   PO441088  13.591  18.848   9.623
 3114POPC   GL141089  13.777  19.119   9.267
 3114POPC   GL241090  13.757  18.848   9.072
 3114POPC   C1A41091  13.724  19.310   8.844
 3114POPC   D2A41092  13.483  19.273   8.473
 3114POPC   C3A41093  13.661  19.474   8.120
 3114POPC   C4A41094  13.364  19.485   7.808
 3114POPC   C1B41095  13.581  18.789   8.661
 3114POPC   C2B41096  13.474  18.812   8.221
 3114POPC   C3B41097  13.539  18.993   7.816
 3114POPC   C4B41098  13.813  18.901   7.464
 3115POPC   NC341099  10.537  38.979   5.320
 3115POPC   PO441100  10.611  38.349   5.388
 3115POPC   GL141101  10.526  38.481   5.793
 3115POPC   GL241102  10.674  38.796   5.786
 3115POPC   C1A41103  10.594  38.358   6.227
 3115POPC   D2A41104  10.588  38.595   6.619
 3115POPC   C3A41105  10.553  38.433   7.034
 3115POPC   C4A41106  10.255  38.542   7.370
 3115POPC   C1B41107  10.853  38.786   6.192
 3115POPC   C2B41108  11.056  38.808   6.597
 3115POPC   C3B41109  10.865  38.917   6.985
 3115POPC   C4B41110  10.709  38.814   7.372
 3116POPC   NC341111  35.836   3.892   5.377
 3116POPC   PO441112  36.423   3.591   5.296
 3116POPC   GL141113  36.239   3.537   5.732
 3116POPC   GL241114  36.179   3.872   5.801
 3116POPC   C1A41115  36.176   3.345   6.173
 3116POPC   D2A41116  36.186   3.490   6.608
 3116POPC   C3A41117  36.243   3.217   6.959
 3116POPC   C4A41118  36.040   3.339   7.328
 3116POPC   C1B41119  36.342   3.842   6.219
 3116POPC   C2B41120  36.163   4.001   6.608
 3116POPC   C3B41121  35.983   3.850   6.998
 3116POPC   C4B41122  36.140   3.866   7.433
 3117POPC   NC341123  20.353  39.533   5.293
 3117POPC   PO441124  20.857  39.158   5.134
 3117POPC   GL141125  20.816  39.153   5.593
 3117POPC   GL241126  20.476  39.034   5.628
 3117POPC   C1A41127  20.802  39.301   6.045
 3117POPC   D2A41128  20.787  39.107   6.500
 3117POPC   C3A41129  20.861  39.251   6.931
 3117POPC   C4A41130  20.582  39.583   7.056
 3117POPC   C1B41131  20.464  38.930   6.098
 3117POPC   C2B41132  20.345  38.842   6.558
 3117POPC   C3B41133  20.476  38.914   7.010
 3117POPC   C4B41134  20.279  38.975   7.438
 3118POPC   NC341135  28.461  41.419   5.508
 3118POPC   PO441136  27.937  41.852   5.635
 3118POPC   GL141137  28.117  41.472   5.891
 3118POPC   GL241138  28.414  41.585   5.984
 3118POPC   C1A41139  28.220  41.266   6.312
 3118POPC   D2A41140  28.337  41.534   6.668
 3118POPC   C3A41141  28.067  41.489   7.033
 3118POPC   C4A41142  28.083  41.297   7.450
 3118POPC   C1B41143  28.715  41.699   6.276
 3118POPC   C2B41144  28.750  41.870   6.683
 3118POPC   C3B41145  28.703  41.708   7.100
 3118POPC   C4B41146  28.358  41.722   7.384
 3119POPC   NC341147   0.466  28.712   5.687
 3119POPC   PO441148   0.348  29.311   5.377
 3119POPC   GL141149   0.298  29.192   5.831
 3119POPC   GL241150   0.057  28.945   5.894
 3119POPC   C1A41151   0.428  29.025   6.267
 3119POPC   D2A41152   0.652  29.014   6.684
 3119POPC   C3A41153   0.632  29.379   6.956
 3119POPC   C4A41154   0.478  29.359   7.375
 3119POPC   C1B41155  44.952  29.144   6.286
 3119POPC   C2B41156   0.187  29.236   6.671
 3119POPC   C3B41157   0.227  29.034   7.044
 3119POPC   C4B41158   0.086  29.034   7.456
 3120POPC   NC341159   6.757   8.349   5.451
 3120POPC   PO441160   6.252   8.100   5.161
 3120POPC   GL141161   6.432   8.073   5.717
 3120POPC   GL241162   6.775   8.047   5.872
 3120POPC   C1A41163   6.414   8.281   6.166
 3120POPC   D2A41164   6.526   8.460   6.580
 3120POPC   C3A41165   6.458   8.252   7.000
 3120POPC   C4A41166   6.576   8.238   7.486
 3120POPC   C1B41167   6.890   8.214   6.281
 3120POPC   C2B41168   6.984   8.048   6.698
 3120POPC   C3B41169   6.922   8.045   7.140
 3120POPC   C4B41170   6.938   7.916   7.602
 3121POPC   NC341171  34.961  19.145   5.371
 3121POPC   PO441172  34.555  18.640   5.210
 3121POPC   GL141173  34.642  18.638   5.709
 3121POPC   GL241174  34.692  18.999   5.789
 3121POPC   C1A41175  34.821  18.680   6.184
 3121POPC   D2A41176  34.894  19.002   6.550
 3121POPC   C3A41177  34.547  19.140   6.810
 3121POPC   C4A41178  34.484  18.910   7.173
 3121POPC   C1B41179  35.003  19.179   6.087
 3121POPC   C2B41180  35.050  19.483   6.429
 3121POPC   C3B41181  34.970  19.438   6.902
 3121POPC   C4B41182  34.690  19.378   7.275
 3122POPC   NC341183   1.530  38.633   5.171
 3122POPC   PO441184   0.951  38.323   5.509
 3122POPC   GL141185   1.206  38.413   5.902
 3122POPC   GL241186   1.395  38.703   5.794
 3122POPC   C1A41187   1.302  38.526   6.377
 3122POPC   D2A41188   1.025  38.725   6.726
 3122POPC   C3A41189   1.118  38.621   7.161
 3122POPC   C4A41190   1.243  38.423   7.572
 3122POPC   C1B41191   1.174  38.944   6.131
 3122POPC   C2B41192   1.375  39.042   6.537
 3122POPC   C3B41193   1.551  38.732   6.844
 3122POPC   C4B41194   1.604  38.700   7.300
 3123POPC   NC341195   8.236  28.546   5.510
 3123POPC   PO441196   7.584  28.220   5.476
 3123POPC   GL141197   7.900  28.263   5.879
 3123POPC   GL241198   8.301  28.319   5.952
 3123POPC   C1A41199   7.997  28.445   6.326
 3123POPC   D2A41200   8.327  28.552   6.650
 3123POPC   C3A41201   8.155  28.461   7.066
 3123POPC   C4A41202   8.061  28.200   7.475
 3123POPC   C1B41203   8.576  28.193   6.298
 3123POPC   C2B41204   8.670  28.065   6.735
 3123POPC   C3B41205   8.619  28.237   7.186
 3123POPC   C4B41206   8.716  28.222   7.660
 3124POPC   NC341207  37.004  44.070   5.587
 3124POPC   PO441208  36.654  43.536   5.425
 3124POPC   GL141209  36.666  43.704   5.804
 3124POPC   GL241210  37.018  43.606   5.861
 3124POPC   C1A41211  36.687  43.894   6.213
 3124POPC   D2A41212  36.859  43.774   6.628
 3124POPC   C3A41213  36.623  43.963   6.987
 3124POPC   C4A41214  36.669  44.115   7.407
 3124POPC   C1B41215  37.211  43.834   6.216
 3124POPC   C2B41216  37.389  43.754   6.639
 3124POPC   C3B41217  37.161  43.709   7.052
 3124POPC   C4B41218  37.192  43.923   7.467
 3125POPC   NC341219  19.304  27.056   5.508
 3125POPC   PO441220  18.836  26.558   5.477
 3125POPC   GL141221  19.117  26.662   5.839
 3125POPC   GL241222  18.922  26.944   5.933
 3125POPC   C1A41223  19.458  26.626   6.181
 3125POPC   D2A41224  19.585  26.640   6.638
 3125POPC   C3A41225  19.474  26.998   6.936
 3125POPC   C4A41226  19.391  27.082   7.369
 3125POPC   C1B41227  18.939  26.691   6.320
 3125POPC   C2B41228  19.064  26.668   6.757
 3125POPC   C3B41229  18.984  26.905   7.125
 3125POPC   C4B41230  18.663  26.932   7.439
 3126POPC   NC341231  22.255  38.949   5.390
 3126POPC   PO441232  21.932  39.523   5.131
 3126POPC   GL141233  22.125  39.430   5.633
 3126POPC   GL241234  22.351  39.209   5.812
 3126POPC   C1A41235  22.111  39.479   6.144
 3126POPC   D2A41236  22.321  39.256   6.500
 3126POPC   C3A41237  22.144  39.310   6.905
 3126POPC   C4A41238  22.229  39.206   7.309
 3126POPC   C1B41239  22.218  38.919   6.120
 3126POPC   C2B41240  22.400  38.717   6.465
 3126POPC   C3B41241  22.458  38.872   6.841
 3126POPC   C4B41242  22.403  38.733   7.234
 3127POPC   NC341243  29.421  28.194   5.465
 3127POPC   PO441244  29.085  28.746   5.471
 3127POPC   GL141245  29.000  28.580   5.892
 3127POPC   GL241246  29.343  28.438   5.947
 3127POPC   C1A41247  29.016  28.568   6.376
 3127POPC   D2A41248  28.896  28.445   6.824
 3127POPC   C3A41249  28.899  28.803   7.147
 3127POPC   C4A41250  29.127  28.835   7.538
 3127POPC   C1B41251  29.333  28.076   6.245
 3127POPC   C2B41252  29.264  27.927   6.672
 3127POPC   C3B41253  29.386  28.015   7.101
 3127POPC   C4B41254  29.268  28.425   7.258
 3128POPC   NC341255  12.577   9.155   5.536
 3128POPC   PO441256  13.040   8.695   5.202
 3128POPC   GL141257  12.960   8.845   5.679
 3128POPC   GL241258  12.654   8.673   5.795
 3128POPC   C1A41259  12.971   9.045   6.120
 3128POPC   D2A41260  12.752   9.179   6.531
 3128POPC   C3A41261  12.924   9.081   6.925
 3128POPC   C4A41262  12.655   9.134   7.247
 3128POPC   C1B41263  12.584   8.766   6.252
 3128POPC   C2B41264  12.953   8.715   6.533
 3128POPC   C3B41265  13.002   8.563   6.939
 3128POPC   C4B41266  12.617   8.614   7.152
 3129POPC   NC341267   5.411  37.340   5.501
 3129POPC   PO441268   6.065  37.450   5.637
 3129POPC   GL141269   6.096  37.571   6.035
 3129POPC   GL241270   5.746  37.710   6.035
 3129POPC   C1A41271   6.052  37.598   6.448
 3129POPC   D2A41272   5.697  37.733   6.687
 3129POPC   C3A41273   5.840  37.817   7.094
 3129POPC   C4A41274   6.261  37.700   7.210
 3129POPC   C1B41275   5.637  37.343   6.305
 3129POPC   C2B41276   5.562  37.198   6.744
 3129POPC   C3B41277   5.579  37.364   7.195
 3129POPC   C4B41278   5.440  37.562   7.618
 3130POPC   NC341279  18.878  41.249   5.437
 3130POPC   PO441280  19.014  41.871   5.393
 3130POPC   GL141281  19.119  41.969   5.803
 3130POPC   GL241282  19.336  41.675   5.881
 3130POPC   C1A41283  19.032  41.894   6.235
 3130POPC   D2A41284  19.247  41.737   6.605
 3130POPC   C3A41285  19.026  41.602   6.922
 3130POPC   C4A41286  18.899  41.942   7.149
 3130POPC   C1B41287  19.260  41.371   6.252
 3130POPC   C2B41288  19.358  41.209   6.712
 3130POPC   C3B41289  19.271  41.057   7.163
 3130POPC   C4B41290  19.068  41.142   7.592
 3131POPC   NC341291  31.644   9.885   5.408
 3131POPC   PO441292  30.921   9.845   5.503
 3131POPC   GL141293  31.130   9.802   5.843
 3131POPC   GL241294  31.434   9.623   5.795
 3131POPC   C1A41295  31.378   9.871   6.219
 3131POPC   D2A41296  31.577   9.907   6.585
 3131POPC   C3A41297  31.307   9.947   6.954
 3131POPC   C4A41298  31.206   9.915   7.406
 3131POPC   C1B41299  31.756   9.525   6.106
 3131POPC   C2B41300  31.766   9.422   6.544
 3131POPC   C3B41301  31.763   9.632   6.955
 3131POPC   C4B41302  31.488   9.541   7.236
 3132POPC   NC341303  32.225  41.562   5.226
 3132POPC   PO441304  32.609  41.180   5.548
 3132POPC   GL141305  32.329  41.360   5.793
 3132POPC   GL241306  32.218  41.683   5.751
 3132POPC   C1A41307  32.482  41.509   6.183
 3132POPC   D2A41308  32.679  41.435   6.536
 3132POPC   C3A41309  32.456  41.548   6.887
 3132POPC   C4A41310  32.570  41.499   7.298
 3132POPC   C1B41311  31.978  41.508   6.141
 3132POPC   C2B41312  32.060  41.486   6.576
 3132POPC   C3B41313  31.981  41.698   6.999
 3132POPC   C4B41314  31.686  42.017   7.108
 3133POPC   NC341315  27.802  26.261   5.161
 3133POPC   PO441316  28.276  25.987   5.594
 3133POPC   GL141317  28.571  26.100   5.860
 3133POPC   GL241318  28.450  26.444   5.821
 3133POPC   C1A41319  28.675  25.943   6.287
 3133POPC   D2A41320  28.713  26.098   6.723
 3133POPC   C3A41321  28.478  25.940   7.102
 3133POPC   C4A41322  28.742  25.933   7.470
 3133POPC   C1B41323  28.323  26.312   6.240
 3133POPC   C2B41324  28.200  26.135   6.624
 3133POPC   C3B41325  28.294  26.384   6.959
 3133POPC   C4B41326  28.259  26.641   7.306
 3134POPC   NC341327  43.761   0.680   5.520
 3134POPC   PO441328  44.171   0.237   5.565
 3134POPC   GL141329  44.084   0.466   5.901
 3134POPC   GL241330  43.743   0.375   5.926
 3134POPC   C1A41331  44.014   0.657   6.307
 3134POPC   D2A41332  43.766   0.525   6.643
 3134POPC   C3A41333  43.961   0.528   7.017
 3134POPC   C4A41334  43.864   0.773   7.354
 3134POPC   C1B41335  43.461   0.105   6.177
 3134POPC   C2B41336  43.321   0.152   6.590
 3134POPC   C3B41337  43.571   0.135   6.965
 3134POPC   C4B41338  43.697   0.284   7.394
 3135POPC   NC341339   1.391   9.298   5.443
 3135POPC   PO441340   1.502   8.625   5.367
 3135POPC   GL141341   1.404   8.861   5.738
 3135POPC   GL241342   1.049   8.967   5.820
 3135POPC   C1A41343   1.430   8.867   6.205
 3135POPC   D2A41344   1.315   8.682   6.630
 3135POPC   C3A41345   1.217   8.968   6.980
 3135POPC   C4A41346   1.041   8.876   7.394
 3135POPC   C1B41347   0.917   8.787   6.253
 3135POPC   C2B41348   0.803   8.807   6.727
 3135POPC   C3B41349   0.720   9.116   7.115
 3135POPC   C4B41350   0.767   9.273   7.583
 3136POPC   NC341351  14.833  30.625   5.503
 3136POPC   PO441352  14.131  30.945   5.446
 3136POPC   GL141353  14.068  30.725   5.788
 3136POPC   GL241354  14.394  30.536   5.839
 3136POPC   C1A41355  14.107  30.823   6.203
 3136POPC   D2A41356  14.351  30.871   6.543
 3136POPC   C3A41357  14.166  30.989   6.893
 3136POPC   C4A41358  14.348  30.773   7.195
 3136POPC   C1B41359  14.543  30.469   6.290
 3136POPC   C2B41360  14.587  30.474   6.782
 3136POPC   C3B41361  14.606  30.369   7.242
 3136POPC   C4B41362  14.262  30.172   7.500
 3137POPC   NC341363   3.133  39.854   5.472
 3137POPC   PO441364   3.532  40.459   5.449
 3137POPC   GL141365   3.685  40.161   5.717
 3137POPC   GL241366   3.399  40.008   5.880
 3137POPC   C1A41367   3.807  40.106   6.146
 3137POPC   D2A41368   3.526  40.012   6.489
 3137POPC   C3A41369   3.690  40.066   6.916
 3137POPC   C4A41370   3.715  39.794   7.242
 3137POPC   C1B41371   3.161  39.763   6.163
 3137POPC   C2B41372   3.055  39.793   6.599
 3137POPC   C3B41373   3.247  39.773   7.022
 3137POPC   C4B41374   3.286  39.606   7.478
 3138POPC   NC341375  37.382   6.616   5.369
 3138POPC   PO441376  37.820   7.134   5.412
 3138POPC   GL141377  37.569   6.880   5.792
 3138POPC   GL241378  37.521   6.493   5.842
 3138POPC   C1A41379  37.579   6.785   6.275
 3138POPC   D2A41380  37.479   6.939   6.719
 3138POPC   C3A41381  37.793   6.775   7.010
 3138POPC   C4A41382  37.691   6.664   7.449
 3138POPC   C1B41383  37.405   6.284   6.225
 3138POPC   C2B41384  37.324   6.444   6.634
 3138POPC   C3B41385  37.485   6.344   7.051
 3138POPC   C4B41386  37.300   6.330   7.456
 3139POPC   NC341387  33.523  24.180   5.519
 3139POPC   PO441388  33.924  24.671   5.390
 3139POPC   GL141389  33.872  24.422   5.808
 3139POPC   GL241390  34.022  24.059   5.753
 3139POPC   C1A41391  33.556  24.394   6.219
 3139POPC   D2A41392  33.473  24.290   6.699
 3139POPC   C3A41393  33.475  24.668   7.027
 3139POPC   C4A41394  33.464  24.986   7.364
 3139POPC   C1B41395  34.007  24.137   6.202
 3139POPC   C2B41396  33.965  24.422   6.555
 3139POPC   C3B41397  33.944  24.476   6.989
 3139POPC   C4B41398  34.019  24.254   7.365
 3140POPC   NC341399   8.212  13.574   5.092
 3140POPC   PO441400   7.734  13.817   5.495
 3140POPC   GL141401   8.082  13.861   5.820
 3140POPC   GL241402   8.410  14.015   5.736
 3140POPC   C1A41403   8.292  13.589   6.165
 3140POPC   D2A41404   8.417  13.459   6.599
 3140POPC   C3A41405   8.114  13.455   6.919
 3140POPC   C4A41406   8.334  13.475   7.264
 3140POPC   C1B41407   8.350  14.096   6.195
 3140POPC   C2B41408   8.160  13.925   6.554
 3140POPC   C3B41409   8.287  13.944   6.962
 3140POPC   C4B41410   8.082  13.896   7.334
 3141POPC   NC341411   2.518  42.738   5.632
 3141POPC   PO441412   2.870  43.359   5.510
 3141POPC   GL141413   2.871  43.082   5.832
 3141POPC   GL241414   2.561  43.182   5.920
 3141POPC   C1A41415   2.960  43.068   6.252
 3141POPC   D2A41416   3.044  43.340   6.571
 3141POPC   C3A41417   2.977  43.093   6.909
 3141POPC   C4A41418   2.881  43.240   7.272
 3141POPC   C1B41419   2.410  43.045   6.283
 3141POPC   C2B41420   2.464  43.154   6.703
 3141POPC   C3B41421   2.460  42.862   7.022
 3141POPC   C4B41422   2.700  42.779   7.334
 3142POPC   NC341423   0.135  17.326   5.438
 3142POPC   PO441424   0.681  17.026   5.673
 3142POPC   GL141425   0.423  17.166   5.910
 3142POPC   GL241426   0.516  17.497   5.838
 3142POPC   C1A41427   0.446  17.172   6.360
 3142POPC   D2A41428   0.587  17.444   6.665
 3142POPC   C3A41429   0.664  17.300   7.065
 3142POPC   C4A41430   0.408  17.487   7.321
 3142POPC   C1B41431   0.371  17.697   6.203
 3142POPC   C2B41432   0.149  17.730   6.547
 3142POPC   C3B41433   0.283  17.874   6.918
 3142POPC   C4B41434   0.088  17.853   7.284
 3143POPC   NC341435  41.272  10.186   5.409
 3143POPC   PO441436  41.342  10.778   5.341
 3143POPC   GL141437  41.528  10.629   5.715
 3143POPC   GL241438  41.681  10.316   5.703
 3143POPC   C1A41439  41.714  10.814   6.082
 3143POPC   D2A41440  41.470  10.820   6.444
 3143POPC   C3A41441  41.694  10.827   6.813
 3143POPC   C4A41442  41.724  10.653   7.222
 3143POPC   C1B41443  41.629  10.300   6.158
 3143POPC   C2B41444  41.687  10.362   6.595
 3143POPC   C3B41445  41.677  10.200   7.017
 3143POPC   C4B41446  41.501  10.216   7.460
 3144POPC   NC341447  35.872  11.898   5.529
 3144POPC   PO441448  36.498  12.113   5.377
 3144POPC   GL141449  36.301  12.083   5.771
 3144POPC   GL241450  36.334  11.758   5.817
 3144POPC   C1A41451  36.230  12.142   6.200
 3144POPC   D2A41452  36.043  12.177   6.610
 3144POPC   C3A41453  36.169  11.993   6.982
 3144POPC   C4A41454  36.108  12.090   7.413
 3144POPC   C1B41455  36.194  11.642   6.220
 3144POPC   C2B41456  36.002  11.657   6.594
 3144POPC   C3B41457  35.921  11.526   6.931
 3144POPC   C4B41458  36.029  11.604   7.284
 3145POPC   NC341459  29.622   4.462   5.571
 3145POPC   PO441460  29.994   4.056   5.154
 3145POPC   GL141461  30.075   4.239   5.587
 3145POPC   GL241462  30.117   4.642   5.642
 3145POPC   C1A41463  30.024   4.194   6.072
 3145POPC   D2A41464  30.074   4.074   6.529
 3145POPC   C3A41465  29.860   4.291   6.883
 3145POPC   C4A41466  29.858   4.153   7.307
 3145POPC   C1B41467  29.958   4.761   6.070
 3145POPC   C2B41468  29.883   4.719   6.511
 3145POPC   C3B41469  29.918   4.822   6.957
 3145POPC   C4B41470  29.836   4.673   7.366
 3146POPC   NC341471  17.958  34.927   5.378
 3146POPC   PO441472  18.691  34.875   5.512
 3146POPC   GL141473  18.388  34.829   5.849
 3146POPC   GL241474  18.202  34.515   5.819
 3146POPC   C1A41475  18.287  34.705   6.290
 3146POPC   D2A41476  18.117  34.704   6.695
 3146POPC   C3A41477  18.448  34.620   6.979
 3146POPC   C4A41478  18.644  34.882   7.290
 3146POPC   C1B41479  18.079  34.241   6.168
 3146POPC   C2B41480  18.234  34.198   6.579
 3146POPC   C3B41481  18.054  34.277   6.965
 3146POPC   C4B41482  18.163  34.165   7.361
 3147POPC   NC341483  11.097  23.105   5.287
 3147POPC   PO441484  11.601  22.654   5.460
 3147POPC   GL141485  11.307  22.835   5.801
 3147POPC   GL241486  11.271  23.204   5.783
 3147POPC   C1A41487  11.275  22.977   6.251
 3147POPC   D2A41488  11.067  23.112   6.658
 3147POPC   C3A41489  11.107  22.881   7.031
 3147POPC   C4A41490  11.175  22.527   7.301
 3147POPC   C1B41491  11.575  23.350   6.133
 3147POPC   C2B41492  11.679  23.069   6.516
 3147POPC   C3B41493  11.576  23.082   6.936
 3147POPC   C4B41494  11.547  22.879   7.316
 3148POPC   NC341495  15.738  20.251   5.462
 3148POPC   PO441496  16.371  20.416   5.485
 3148POPC   GL141497  16.240  20.548   5.827
 3148POPC   GL241498  15.888  20.631   5.779
 3148POPC   C1A41499  16.139  20.440   6.242
 3148POPC   D2A41500  15.971  20.712   6.580
 3148POPC   C3A41501  16.168  20.554   6.933
 3148POPC   C4A41502  16.093  20.397   7.289
 3148POPC   C1B41503  15.644  20.539   6.153
 3148POPC   C2B41504  15.483  20.531   6.578
 3148POPC   C3B41505  15.655  20.586   7.005
 3148POPC   C4B41506  15.768  20.969   7.232
 3149POPC   NC341507  19.320   7.126   5.485
 3149POPC   PO441508  19.350   6.386   5.403
 3149POPC   GL141509  19.235   6.684   5.765
 3149POPC   GL241510  19.462   6.884   5.908
 3149POPC   C1A41511  19.034   6.809   6.167
 3149POPC   D2A41512  18.745   6.686   6.482
 3149POPC   C3A41513  18.903   6.615   6.870
 3149POPC   C4A41514  18.738   6.667   7.261
 3149POPC   C1B41515  19.569   6.868   6.293
 3149POPC   C2B41516  19.289   6.856   6.611
 3149POPC   C3B41517  19.196   7.054   6.971
 3149POPC   C4B41518  19.316   6.929   7.346
 3150POPC   NC341519   1.299  42.163   5.669
 3150POPC   PO441520   1.444  41.619   5.376
 3150POPC   GL141521   1.272  41.616   5.799
 3150POPC   GL241522   0.948  41.790   5.857
 3150POPC   C1A41523   1.338  41.751   6.237
 3150POPC   D2A41524   1.554  41.866   6.630
 3150POPC   C3A41525   1.425  41.761   7.052
 3150POPC   C4A41526   1.118  41.483   7.233
 3150POPC   C1B41527   0.827  41.886   6.289
 3150POPC   C2B41528   1.032  41.808   6.676
 3150POPC   C3B41529   0.946  41.971   7.063
 3150POPC   C4B41530   0.705  42.148   7.381
 3151POPC   NC341531  42.937   2.442   5.448
 3151POPC   PO441532  43.401   2.987   5.441
 3151POPC   GL141533  43.207   2.955   5.846
 3151POPC   GL241534  43.054   2.692   5.872
 3151POPC   C1A41535  43.206   3.047   6.250
 3151POPC   D2A41536  43.119   2.914   6.631
 3151POPC   C3A41537  43.442   3.022   6.908
 3151POPC   C4A41538  43.318   2.828   7.256
 3151POPC   C1B41539  43.076   2.521   6.281
 3151POPC   C2B41540  42.808   2.498   6.644
 3151POPC   C3B41541  42.918   2.542   7.097
 3151POPC   C4B41542  42.738   2.542   7.540
 3152POPC   NC341543  42.567  23.025   5.534
 3152POPC   PO441544  42.039  22.673   5.454
 3152POPC   GL141545  42.229  22.837   5.856
 3152POPC   GL241546  42.288  23.195   5.922
 3152POPC   C1A41547  42.423  22.740   6.239
 3152POPC   D2A41548  42.537  22.973   6.586
 3152POPC   C3A41549  42.442  22.773   6.940
 3152POPC   C4A41550  42.362  22.957   7.277
 3152POPC   C1B41551  42.648  23.254   6.173
 3152POPC   C2B41552  42.770  23.434   6.587
 3152POPC   C3B41553  42.610  23.317   6.995
 3152POPC   C4B41554  42.773  23.224   7.409
 3153POPC   NC341555  34.065  10.656   5.337
 3153POPC   PO441556  33.389  10.475   5.555
 3153POPC   GL141557  33.655  10.528   5.881
 3153POPC   GL241558  33.894  10.801   5.793
 3153POPC   C1A41559  33.566  10.308   6.286
 3153POPC   D2A41560  33.699  10.030   6.608
 3153POPC   C3A41561  33.721  10.253   6.990
 3153POPC   C4A41562  33.721  10.400   7.433
 3153POPC   C1B41563  33.892  10.810   6.246
 3153POPC   C2B41564  33.856  10.625   6.660
 3153POPC   C3B41565  34.011  10.679   7.103
 3153POPC   C4B41566  34.105  10.743   7.560
 3154POPC   NC341567  42.829   5.858   5.427
 3154POPC   PO441568  43.418   6.207   5.432
 3154POPC   GL141569  43.186   5.991   5.785
 3154POPC   GL241570  43.131   5.613   5.800
 3154POPC   C1A41571  43.065   5.944   6.227
 3154POPC   D2A41572  43.132   5.877   6.680
 3154POPC   C3A41573  43.030   6.202   6.941
 3154POPC   C4A41574  43.072   6.270   7.341
 3154POPC   C1B41575  42.812   5.516   6.107
 3154POPC   C2B41576  42.738   5.556   6.558
 3154POPC   C3B41577  42.892   5.513   6.959
 3154POPC   C4B41578  42.870   5.779   7.284
 3155POPC   NC341579  20.524  16.676   5.073
 3155POPC   PO441580  20.430  16.895   5.680
 3155POPC   GL141581  20.517  16.663   6.018
 3155POPC   GL241582  20.859  16.650   5.980
 3155POPC   C1A41583  20.619  16.403   6.375
 3155POPC   D2A41584  20.432  16.314   6.781
 3155POPC   C3A41585  20.405  16.720   7.007
 3155POPC   C4A41586  20.676  16.830   7.316
 3155POPC   C1B41587  20.774  16.887   6.386
 3155POPC   C2B41588  20.855  16.657   6.773
 3155POPC   C3B41589  21.165  16.653   7.107
 3155POPC   C4B41590  21.164  16.914   7.429
 3156POPC   NC341591   3.740  31.845   5.107
 3156POPC   PO441592   3.809  31.345   5.501
 3156POPC   GL141593   3.561  31.560   5.796
 3156POPC   GL241594   3.268  31.333   5.812
 3156POPC   C1A41595   3.456  31.709   6.206
 3156POPC   D2A41596   3.383  31.892   6.595
 3156POPC   C3A41597   3.624  31.753   6.953
 3156POPC   C4A41598   3.416  31.888   7.333
 3156POPC   C1B41599   3.405  31.188   6.215
 3156POPC   C2B41600   3.292  31.331   6.629
 3156POPC   C3B41601   3.153  31.560   6.972
 3156POPC   C4B41602   3.275  31.393   7.355
 3157POPC   NC341603  16.018  19.294   5.395
 3157POPC   PO441604  16.128  18.675   5.600
 3157POPC   GL141605  15.997  19.035   5.839
 3157POPC   GL241606  16.229  19.342   5.890
 3157POPC   C1A41607  15.975  19.024   6.273
 3157POPC   D2A41608  16.190  18.787   6.583
 3157POPC   C3A41609  15.975  18.814   6.961
 3157POPC   C4A41610  15.789  18.949   7.363
 3157POPC   C1B41611  16.307  19.400   6.340
 3157POPC   C2B41612  16.165  19.273   6.731
 3157POPC   C3B41613  16.146  19.251   7.151
 3157POPC   C4B41614  16.196  19.250   7.555
 3158POPC   NC341615  10.228  20.920   5.429
 3158POPC   PO441616  10.597  20.264   5.513
 3158POPC   GL141617  10.442  20.449   5.899
 3158POPC   GL241618  10.537  20.783   5.907
 3158POPC   C1A41619  10.437  20.402   6.377
 3158POPC   D2A41620  10.295  20.569   6.786
 3158POPC   C3A41621  10.465  20.337   7.148
 3158POPC   C4A41622  10.586  20.241   7.593
 3158POPC   C1B41623  10.301  20.892   6.305
 3158POPC   C2B41624  10.312  21.110   6.724
 3158POPC   C3B41625  10.423  20.964   7.150
 3158POPC   C4B41626  10.355  21.102   7.615
 3159POPC   NC341627   9.890  21.856   5.529
 3159POPC   PO441628   9.979  22.509   5.436
 3159POPC   GL141629   9.926  22.316   5.827
 3159POPC   GL241630   9.610  22.220   5.760
 3159POPC   C1A41631   9.947  22.028   6.207
 3159POPC   D2A41632  10.159  22.062   6.620
 3159POPC   C3A41633   9.911  21.993   6.997
 3159POPC   C4A41634   9.900  22.284   7.349
 3159POPC   C1B41635   9.503  22.332   6.171
 3159POPC   C2B41636   9.613  22.185   6.584
 3159POPC   C3B41637   9.679  22.460   6.930
 3159POPC   C4B41638   9.485  22.558   7.316
 3160POPC   NC341639   3.969  40.583   5.586
 3160POPC   PO441640   4.207  41.196   5.443
 3160POPC   GL141641   4.349  40.953   5.851
 3160POPC   GL241642   4.415  40.587   5.880
 3160POPC   C1A41643   4.487  40.867   6.301
 3160POPC   D2A41644   4.522  40.866   6.725
 3160POPC   C3A41645   4.231  41.134   6.871
 3160POPC   C4A41646   4.141  40.898   7.215
 3160POPC   C1B41647   4.059  40.586   6.210
 3160POPC   C2B41648   3.918  40.392   6.584
 3160POPC   C3B41649   4.087  40.411   6.992
 3160POPC   C4B41650   4.508  40.432   7.111
 3161POPC   NC341651  35.896   4.625   5.297
 3161POPC   PO441652  36.261   4.113   5.332
 3161POPC   GL141653  36.283   4.377   5.727
 3161POPC   GL241654  35.940   4.436   5.765
 3161POPC   C1A41655  36.435   4.354   6.202
 3161POPC   D2A41656  36.631   4.243   6.623
 3161POPC   C3A41657  36.443   4.384   7.034
 3161POPC   C4A41658  36.429   4.298   7.501
 3161POPC   C1B41659  35.937   4.236   6.141
 3161POPC   C2B41660  35.877   4.411   6.526
 3161POPC   C3B41661  35.804   4.445   6.923
 3161POPC   C4B41662  35.962   4.306   7.267
 3162POPC   NC341663  15.511  37.225   5.257
 3162POPC   PO441664  16.000  37.719   5.486
 3162POPC   GL141665  16.079  37.599   5.902
 3162POPC   GL241666  15.857  37.303   5.911
 3162POPC   C1A41667  15.878  37.642   6.319
 3162POPC   D2A41668  15.661  37.440   6.651
 3162POPC   C3A41669  15.793  37.591   7.063
 3162POPC   C4A41670  16.074  37.947   7.190
 3162POPC   C1B41671  16.178  37.203   6.251
 3162POPC   C2B41672  16.225  37.173   6.708
 3162POPC   C3B41673  16.280  37.477   7.047
 3162POPC   C4B41674  16.198  37.468   7.484
 3163POPC   NC341675   8.061  44.948   5.647
 3163POPC   PO441676   8.501  44.506   5.468
 3163POPC   GL141677   8.489  44.724   5.830
 3163POPC   GL241678   8.605  44.457   5.984
 3163POPC   C1A41679   8.283  44.800   6.259
 3163POPC   D2A41680   7.955  44.809   6.600
 3163POPC   C3A41681   8.189  44.738   6.996
 3163POPC   C4A41682   8.032  44.704   7.424
 3163POPC   C1B41683   8.331  44.265   6.319
 3163POPC   C2B41684   8.083  44.321   6.706
 3163POPC   C3B41685   8.063  44.257   7.166
 3163POPC   C4B41686   8.280  44.284   7.590
 3164POPC   NC341687  13.501  28.522   5.397
 3164POPC   PO441688  13.933  27.881   5.539
 3164POPC   GL141689  13.581  28.090   5.801
 3164POPC   GL241690  13.594  28.450   5.877
 3164POPC   C1A41691  13.493  28.164   6.269
 3164POPC   D2A41692  13.837  28.206   6.569
 3164POPC   C3A41693  13.708  28.315   6.960
 3164POPC   C4A41694  13.448  28.631   7.068
 3164POPC   C1B41695  13.867  28.602   6.217
 3164POPC   C2B41696  14.035  28.690   6.644
 3164POPC   C3B41697  13.931  28.779   7.065
 3164POPC   C4B41698  13.818  28.584   7.445
 3165POPC   NC341699  43.019  14.135   5.498
 3165POPC   PO441700  43.643  14.486   5.599
 3165POPC   GL141701  43.234  14.481   5.789
 3165POPC   GL241702  43.081  14.812   5.810
 3165POPC   C1A41703  43.033  14.268   6.167
 3165POPC   D2A41704  42.697  14.304   6.525
 3165POPC   C3A41705  42.920  14.326   6.959
 3165POPC   C4A41706  43.303  14.108   7.131
 3165POPC   C1B41707  43.412  14.761   6.161
 3165POPC   C2B41708  43.377  14.732   6.588
 3165POPC   C3B41709  43.435  14.833   6.994
 3165POPC   C4B41710  43.298  14.581   7.302
 3166POPC   NC341711   6.065  34.114   5.478
 3166POPC   PO441712   5.575  33.711   5.354
 3166POPC   GL141713   5.809  33.788   5.762
 3166POPC   GL241714   5.656  34.123   5.873
 3166POPC   C1A41715   5.919  33.659   6.177
 3166POPC   D2A41716   6.143  33.751   6.543
 3166POPC   C3A41717   6.128  33.648   6.969
 3166POPC   C4A41718   5.898  33.757   7.302
 3166POPC   C1B41719   5.865  34.171   6.273
 3166POPC   C2B41720   5.861  34.309   6.693
 3166POPC   C3B41721   6.019  34.253   7.129
 3166POPC   C4B41722   5.870  34.193   7.576
 3167POPC   NC341723  25.738  24.092   5.622
 3167POPC   PO441724  26.133  23.788   5.260
 3167POPC   GL141725  26.165  23.701   5.696
 3167POPC   GL241726  25.845  23.623   5.808
 3167POPC   C1A41727  26.237  23.607   6.153
 3167POPC   D2A41728  26.421  23.833   6.492
 3167POPC   C3A41729  26.233  23.731   6.887
 3167POPC   C4A41730  26.390  23.733   7.310
 3167POPC   C1B41731  25.749  23.437   6.202
 3167POPC   C2B41732  25.915  23.373   6.615
 3167POPC   C3B41733  25.678  23.417   6.970
 3167POPC   C4B41734  25.714  23.622   7.354
 3168POPC   NC341735  34.508   9.765   5.432
 3168POPC   PO441736  35.025  10.266   5.512
 3168POPC   GL141737  34.909   9.944   5.892
 3168POPC   GL241738  34.742   9.584   5.875
 3168POPC   C1A41739  34.891   9.749   6.335
 3168POPC   D2A41740  34.889   9.682   6.779
 3168POPC   C3A41741  34.519   9.756   6.955
 3168POPC   C4A41742  34.488   9.850   7.358
 3168POPC   C1B41743  34.453   9.390   6.232
 3168POPC   C2B41744  34.262   9.367   6.684
 3168POPC   C3B41745  34.301   9.337   7.167
 3168POPC   C4B41746  34.633   9.374   7.498
 3169POPC   NC341747   7.652   9.766   5.404
 3169POPC   PO441748   6.937   9.949   5.517
 3169POPC   GL141749   7.341   9.931   5.800
 3169POPC   GL241750   7.478   9.591   5.842
 3169POPC   C1A41751   7.619   9.932   6.167
 3169POPC   D2A41752   7.631   9.729   6.568
 3169POPC   C3A41753   7.490   9.905   6.965
 3169POPC   C4A41754   7.489   9.582   7.263
 3169POPC   C1B41755   7.157   9.410   6.079
 3169POPC   C2B41756   7.127   9.355   6.522
 3169POPC   C3B41757   7.098   9.555   6.912
 3169POPC   C4B41758   6.988   9.428   7.325
 3170POPC   NC341759  44.790  31.005   5.428
 3170POPC   PO441760  44.551  30.311   5.347
 3170POPC   GL141761  44.813  30.524   5.672
 3170POPC   GL241762  44.534  30.684   5.821
 3170POPC   C1A41763  44.867  30.512   6.163
 3170POPC   D2A41764  44.637  30.708   6.536
 3170POPC   C3A41765  44.789  30.899   6.911
 3170POPC   C4A41766  44.761  30.540   7.227
 3170POPC   C1B41767  44.343  30.438   6.207
 3170POPC   C2B41768  44.128  30.601   6.584
 3170POPC   C3B41769  44.305  30.733   6.967
 3170POPC   C4B41770  44.249  30.512   7.322
 3171POPC   NC341771  24.706   8.670   5.440
 3171POPC   PO441772  24.258   9.119   5.428
 3171POPC   GL141773  24.306   8.867   5.766
 3171POPC   GL241774  24.628   8.991   5.856
 3171POPC   C1A41775  24.167   8.925   6.175
 3171POPC   D2A41776  24.345   9.014   6.569
 3171POPC   C3A41777  24.330   8.726   6.893
 3171POPC   C4A41778  24.251   8.978   7.207
 3171POPC   C1B41779  24.856   9.103   6.223
 3171POPC   C2B41780  24.783   9.324   6.592
 3171POPC   C3B41781  24.690   9.101   6.951
 3171POPC   C4B41782  24.712   9.149   7.360
 3172POPC   NC341783  12.042  41.789   5.547
 3172POPC   PO441784  12.139  42.394   5.266
 3172POPC   GL141785  12.004  42.310   5.710
 3172POPC   GL241786  11.681  42.101   5.719
 3172POPC   C1A41787  11.964  42.404   6.161
 3172POPC   D2A41788  12.212  42.486   6.527
 3172POPC   C3A41789  12.062  42.605   6.928
 3172POPC   C4A41790  12.125  42.369   7.306
 3172POPC   C1B41791  11.644  41.986   6.151
 3172POPC   C2B41792  11.502  42.126   6.567
 3172POPC   C3B41793  11.683  42.241   6.956
 3172POPC   C4B41794  11.700  41.904   7.200
 3173POPC   NC341795  42.843  11.047   5.079
 3173POPC   PO441796  42.134  11.157   5.308
 3173POPC   GL141797  42.077  11.207   5.756
 3173POPC   GL241798  42.284  11.495   5.895
 3173POPC   C1A41799  42.236  11.027   6.137
 3173POPC   D2A41800  42.441  10.965   6.552
 3173POPC   C3A41801  42.177  11.101   6.871
 3173POPC   C4A41802  42.340  11.454   7.069
 3173POPC   C1B41803  42.317  11.471   6.397
 3173POPC   C2B41804  42.006  11.635   6.695
 3173POPC   C3B41805  41.841  11.699   7.124
 3173POPC   C4B41806  41.845  11.507   7.550
 3174POPC   NC341807  25.037   3.383   5.497
 3174POPC   PO441808  25.651   3.560   5.507
 3174POPC   GL141809  25.311   3.615   5.854
 3174POPC   GL241810  24.989   3.835   5.774
 3174POPC   C1A41811  25.247   3.335   6.229
 3174POPC   D2A41812  25.429   3.437   6.661
 3174POPC   C3A41813  25.490   3.547   7.129
 3174POPC   C4A41814  25.557   3.863   7.478
 3174POPC   C1B41815  24.823   3.629   6.145
 3174POPC   C2B41816  24.913   3.533   6.551
 3174POPC   C3B41817  25.005   3.561   6.947
 3174POPC   C4B41818  24.930   3.225   7.211
 3175POPC   NC341819  15.697  18.652   5.436
 3175POPC   PO441820  16.100  18.266   5.096
 3175POPC   GL141821  16.187  18.179   5.604
 3175POPC   GL241822  15.848  18.239   5.718
 3175POPC   C1A41823  16.190  18.140   6.096
 3175POPC   D2A41824  16.018  18.310   6.510
 3175POPC   C3A41825  16.196  18.356   6.931
 3175POPC   C4A41826  15.881  18.418   7.273
 3175POPC   C1B41827  15.689  18.385   6.123
 3175POPC   C2B41828  15.522  18.192   6.531
 3175POPC   C3B41829  15.446  18.280   6.985
 3175POPC   C4B41830  15.382  18.112   7.416
 3176POPC   NC341831  13.304  36.856   5.508
 3176POPC   PO441832  12.669  36.860   5.545
 3176POPC   GL141833  12.768  37.138   5.866
 3176POPC   GL241834  13.076  37.284   5.789
 3176POPC   C1A41835  12.619  37.126   6.295
 3176POPC   D2A41836  12.454  37.183   6.716
 3176POPC   C3A41837  12.635  36.858   6.976
 3176POPC   C4A41838  12.777  36.868   7.385
 3176POPC   C1B41839  13.189  37.056   6.165
 3176POPC   C2B41840  13.306  36.924   6.573
 3176POPC   C3B41841  13.162  36.965   6.997
 3176POPC   C4B41842  13.225  37.164   7.357
 3177POPC   NC341843  37.692  44.171   5.259
 3177POPC   PO441844  37.438  44.817   5.584
 3177POPC   GL141845  37.522  44.823   5.990
 3177POPC   GL241846  37.803  44.972   6.036
 3177POPC   C1A41847  37.534  44.523   6.293
 3177POPC   D2A41848  37.723  44.570   6.627
 3177POPC   C3A41849  37.507  44.461   6.947
 3177POPC   C4A41850  37.613  44.559   7.326
 3177POPC   C1B41851  38.055  44.644   6.252
 3177POPC   C2B41852  38.259  44.473   6.624
 3177POPC   C3B41853  38.038  44.453   7.016
 3177POPC   C4B41854  38.298  44.384   7.358
 3178POPC   NC341855  20.828   8.246   5.348
 3178POPC   PO441856  20.495   7.694   5.488
 3178POPC   GL141857  20.794   7.966   5.776
 3178POPC   GL241858  20.724   8.352   5.822
 3178POPC   C1A41859  20.932   8.082   6.198
 3178POPC   D2A41860  20.728   8.157   6.610
 3178POPC   C3A41861  20.906   8.174   7.045
 3178POPC   C4A41862  20.688   8.140   7.462
 3178POPC   C1B41863  20.566   8.488   6.213
 3178POPC   C2B41864  20.518   8.625   6.635
 3178POPC   C3B41865  20.426   8.376   6.988
 3178POPC   C4B41866  20.311   8.494   7.379
 3179POPC   NC341867  35.923   0.746   4.984
 3179POPC   PO441868  36.217   0.297   5.441
 3179POPC   GL141869  36.156   0.140   5.852
 3179POPC   GL241870  36.400   0.340   6.047
 3179POPC   C1A41871  35.961   0.195   6.269
 3179POPC   D2A41872  35.876   0.495   6.647
 3179POPC   C3A41873  35.971   0.415   7.061
 3179POPC   C4A41874  36.010   0.182   7.443
 3179POPC   C1B41875  36.288   0.640   6.380
 3179POPC   C2B41876  36.393   0.488   6.773
 3179POPC   C3B41877  36.421   0.213   7.131
 3179POPC   C4B41878  36.453   0.475   7.518
 3180POPC   NC341879   6.162   6.564   5.549
 3180POPC   PO441880   5.555   6.577   5.228
 3180POPC   GL141881   5.744   6.373   5.752
 3180POPC   GL241882   5.974   6.722   5.978
 3180POPC   C1A41883   5.827   6.353   6.254
 3180POPC   D2A41884   5.960   6.645   6.572
 3180POPC   C3A41885   6.151   6.540   6.950
 3180POPC   C4A41886   5.930   6.385   7.280
 3180POPC   C1B41887   5.763   7.013   6.300
 3180POPC   C2B41888   5.534   6.966   6.683
 3180POPC   C3B41889   5.739   6.818   7.048
 3180POPC   C4B41890   5.608   6.738   7.502
 3181POPC   NC341891  20.983   3.047   5.457
 3181POPC   PO441892  20.301   3.120   5.360
 3181POPC   GL141893  20.461   2.784   5.664
 3181POPC   GL241894  20.780   2.610   5.677
 3181POPC   C1A41895  20.519   2.732   6.127
 3181POPC   D2A41896  20.369   2.721   6.563
 3181POPC   C3A41897  20.500   2.681   7.003
 3181POPC   C4A41898  20.330   2.667   7.436
 3181POPC   C1B41899  20.932   2.423   6.074
 3181POPC   C2B41900  20.869   2.357   6.507
 3181POPC   C3B41901  20.956   2.423   6.934
 3181POPC   C4B41902  20.923   2.664   7.310
 3182POPC   NC341903  14.280  20.994   5.437
 3182POPC   PO441904  14.268  20.336   5.498
 3182POPC   GL141905  14.657  20.453   5.778
 3182POPC   GL241906  14.633  20.826   5.816
 3182POPC   C1A41907  14.721  20.249   6.221
 3182POPC   D2A41908  14.487  20.366   6.649
 3182POPC   C3A41909  14.642  20.278   7.036
 3182POPC   C4A41910  14.506  20.557   7.374
 3182POPC   C1B41911  14.461  20.677   6.208
 3182POPC   C2B41912  14.711  20.795   6.548
 3182POPC   C3B41913  14.752  20.795   6.973
 3182POPC   C4B41914  14.620  21.061   7.300
 3183POPC   NC341915  34.956  13.569   5.451
 3183POPC   PO441916  35.639  13.795   5.419
 3183POPC   GL141917  35.400  13.655   5.809
 3183POPC   GL241918  35.112  13.413   5.887
 3183POPC   C1A41919  35.497  13.819   6.210
 3183POPC   D2A41920  35.330  13.802   6.598
 3183POPC   C3A41921  35.566  13.907   6.911
 3183POPC   C4A41922  35.456  13.760   7.287
 3183POPC   C1B41923  35.291  13.328   6.226
 3183POPC   C2B41924  35.178  13.303   6.622
 3183POPC   C3B41925  35.112  13.520   6.989
 3183POPC   C4B41926  35.255  13.293   7.357
 3184POPC   NC341927  30.047  30.559   5.396
 3184POPC   PO441928  30.407  31.065   5.510
 3184POPC   GL141929  29.980  30.897   5.777
 3184POPC   GL241930  29.986  30.532   5.898
 3184POPC   C1A41931  29.719  30.814   6.205
 3184POPC   D2A41932  29.788  30.650   6.630
 3184POPC   C3A41933  29.637  30.865   6.999
 3184POPC   C4A41934  29.933  31.148   7.156
 3184POPC   C1B41935  30.173  30.543   6.303
 3184POPC   C2B41936  30.203  30.345   6.702
 3184POPC   C3B41937  29.924  30.429   7.069
 3184POPC   C4B41938  29.502  30.436   7.264
 3185POPC   NC341939  35.297   0.197   5.537
 3185POPC   PO441940  35.789   0.707   5.428
 3185POPC   GL141941  35.561   0.601   5.814
 3185POPC   GL241942  35.200   0.511   5.935
 3185POPC   C1A41943  35.576   0.516   6.253
 3185POPC   D2A41944  35.340   0.367   6.586
 3185POPC   C3A41945  35.476   0.495   6.992
 3185POPC   C4A41946  35.623   0.507   7.433
 3185POPC   C1B41947  34.992   0.164   6.145
 3185POPC   C2B41948  34.913   0.055   6.558
 3185POPC   C3B41949  35.031   0.224   6.960
 3185POPC   C4B41950  35.124   0.305   7.364
 3186POPC   NC341951  34.630  28.121   5.634
 3186POPC   PO441952  34.628  27.423   5.513
 3186POPC   GL141953  34.452  27.570   5.892
 3186POPC   GL241954  34.758  27.733   5.968
 3186POPC   C1A41955  34.337  27.304   6.245
 3186POPC   D2A41956  34.520  27.169   6.589
 3186POPC   C3A41957  34.469  27.483   6.882
 3186POPC   C4A41958  34.596  27.362   7.264
 3186POPC   C1B41959  34.651  27.695   6.393
 3186POPC   C2B41960  34.273  27.872   6.566
 3186POPC   C3B41961  34.150  27.892   6.995
 3186POPC   C4B41962  34.377  27.801   7.375
 3187POPC   NC341963  19.392  25.281   5.536
 3187POPC   PO441964  18.852  24.888   5.578
 3187POPC   GL141965  18.953  25.244   5.876
 3187POPC   GL241966  19.277  25.398   6.007
 3187POPC   C1A41967  18.963  25.219   6.330
 3187POPC   D2A41968  19.227  25.319   6.681
 3187POPC   C3A41969  19.035  25.182   7.072
 3187POPC   C4A41970  18.583  25.170   7.171
 3187POPC   C1B41971  19.458  25.692   6.305
 3187POPC   C2B41972  19.628  25.631   6.731
 3187POPC   C3B41973  19.554  25.556   7.176
 3187POPC   C4B41974  19.238  25.472   7.470
 3188POPC   NC341975   5.250  23.215   5.602
 3188POPC   PO441976   4.999  22.562   5.462
 3188POPC   GL141977   5.128  22.701   5.845
 3188POPC   GL241978   4.798  22.804   5.932
 3188POPC   C1A41979   5.337  22.701   6.246
 3188POPC   D2A41980   5.298  22.958   6.605
 3188POPC   C3A41981   5.386  22.845   7.005
 3188POPC   C4A41982   5.231  23.117   7.355
 3188POPC   C1B41983   4.833  23.029   6.369
 3188POPC   C2B41984   4.811  23.156   6.838
 3188POPC   C3B41985   4.691  23.168   7.303
 3188POPC   C4B41986   4.855  22.970   7.705
 3189POPC   NC341987  11.737  38.635   5.453
 3189POPC   PO441988  12.391  38.421   5.376
 3189POPC   GL141989  12.190  38.403   5.786
 3189POPC   GL241990  11.912  38.621   5.922
 3189POPC   C1A41991  12.241  38.184   6.188
 3189POPC   D2A41992  12.382  38.330   6.594
 3189POPC   C3A41993  12.238  38.141   6.968
 3189POPC   C4A41994  12.297  38.307   7.355
 3189POPC   C1B41995  11.750  38.308   6.191
 3189POPC   C2B41996  11.856  38.169   6.604
 3189POPC   C3B41997  11.834  38.454   6.952
 3189POPC   C4B41998  11.709  38.781   7.227
 3190POPC   NC341999  41.509  24.150   5.186
 3190POPC   PO442000  41.566  23.554   5.446
 3190POPC   GL142001  41.563  23.663   5.885
 3190POPC   GL242002  41.867  23.469   5.964
 3190POPC   C1A42003  41.443  24.022   6.203
 3190POPC   D2A42004  41.614  24.244   6.583
 3190POPC   C3A42005  41.496  24.069   7.008
 3190POPC   C4A42006  41.202  23.758   7.180
 3190POPC   C1B42007  41.802  23.695   6.333
 3190POPC   C2B42008  41.524  23.674   6.676
 3190POPC   C3B42009  41.589  23.437   7.053
 3190POPC   C4B42010  41.818  23.681   7.358
 3191POPC   NC342011  14.008  21.482   5.551
 3191POPC   PO442012  14.699  21.204   5.470
 3191POPC   GL142013  14.492  21.422   5.786
 3191POPC   GL242014  14.224  21.173   5.895
 3191POPC   C1A42015  14.270  21.613   6.149
 3191POPC   D2A42016  14.394  21.599   6.573
 3191POPC   C3A42017  14.153  21.670   6.940
 3191POPC   C4A42018  14.363  21.515   7.316
 3191POPC   C1B42019  14.500  21.175   6.218
 3191POPC   C2B42020  14.312  21.088   6.544
 3191POPC   C3B42021  14.315  21.178   6.925
 3191POPC   C4B42022  14.053  21.108   7.275
 3192POPC   NC342023  29.367  25.386   5.504
 3192POPC   PO442024  30.045  25.354   5.521
 3192POPC   GL142025  29.783  25.509   5.832
 3192POPC   GL242026  29.595  25.207   5.919
 3192POPC   C1A42027  29.910  25.575   6.264
 3192POPC   D2A42028  29.769  25.397   6.651
 3192POPC   C3A42029  29.914  25.608   7.000
 3192POPC   C4A42030  29.659  25.558   7.361
 3192POPC   C1B42031  29.891  24.884   6.097
 3192POPC   C2B42032  30.010  24.738   6.509
 3192POPC   C3B42033  29.966  24.965   6.879
 3192POPC   C4B42034  29.983  25.182   7.255
 3193POPC   NC342035   0.519  28.166   5.368
 3193POPC   PO442036   0.048  28.625   5.478
 3193POPC   GL142037   0.275  28.289   5.833
 3193POPC   GL242038   0.630  28.236   5.850
 3193POPC   C1A42039   0.242  28.126   6.291
 3193POPC   D2A42040   0.003  28.240   6.685
 3193POPC   C3A42041   0.320  28.410   6.980
 3193POPC   C4A42042   0.629  28.242   7.288
 3193POPC   C1B42043   0.709  28.374   6.235
 3193POPC   C2B42044   0.711  28.233   6.644
 3193POPC   C3B42045   0.788  28.577   6.888
 3193POPC   C4B42046   0.607  28.773   7.253
 3194POPC   NC342047  33.150  15.012   5.243
 3194POPC   PO442048  33.562  15.514   5.550
 3194POPC   GL142049  33.287  15.101   5.775
 3194POPC   GL242050  32.886  15.189   5.882
 3194POPC   C1A42051  33.161  14.890   6.187
 3194POPC   D2A42052  32.843  15.022   6.494
 3194POPC   C3A42053  33.015  15.026   6.912
 3194POPC   C4A42054  32.854  15.181   7.253
 3194POPC   C1B42055  33.160  15.411   6.195
 3194POPC   C2B42056  33.347  15.346   6.590
 3194POPC   C3B42057  33.190  15.510   6.970
 3194POPC   C4B42058  33.160  15.532   7.409
 3195POPC   NC342059   6.809  24.379   5.422
 3195POPC   PO442060   6.888  24.996   5.612
 3195POPC   GL142061   6.770  24.675   5.874
 3195POPC   GL242062   6.467  24.494   5.791
 3195POPC   C1A42063   6.779  24.619   6.330
 3195POPC   D2A42064   6.786  24.212   6.545
 3195POPC   C3A42065   6.916  24.283   6.949
 3195POPC   C4A42066   6.749  24.684   7.105
 3195POPC   C1B42067   6.437  24.285   6.138
 3195POPC   C2B42068   6.308  24.448   6.502
 3195POPC   C3B42069   6.406  24.335   6.872
 3195POPC   C4B42070   6.352  24.348   7.274
 3196POPC   NC342071  40.823  17.820   5.333
 3196POPC   PO442072  41.219  17.219   5.393
 3196POPC   GL142073  40.980  17.503   5.738
 3196POPC   GL242074  40.636  17.648   5.775
 3196POPC   C1A42075  40.814  17.430   6.184
 3196POPC   D2A42076  40.544  17.460   6.550
 3196POPC   C3A42077  40.776  17.412   6.931
 3196POPC   C4A42078  40.761  17.330   7.363
 3196POPC   C1B42079  40.420  17.795   6.148
 3196POPC   C2B42080  40.229  17.873   6.562
 3196POPC   C3B42081  40.461  17.842   6.962
 3196POPC   C4B42082  40.332  17.681   7.366
 3197POPC   NC342083  43.404  44.816   5.555
 3197POPC   PO442084  42.856  44.278   5.502
 3197POPC   GL142085  43.063  44.545   5.817
 3197POPC   GL242086  42.930  44.891   5.758
 3197POPC   C1A42087  43.331  44.574   6.210
 3197POPC   D2A42088  43.570  44.712   6.599
 3197POPC   C3A42089  43.526  44.583   7.043
 3197POPC   C4A42090  43.224  44.586   7.409
 3197POPC   C1B42091  42.932  44.925   6.200
 3197POPC   C2B42092  43.005  44.738   6.599
 3197POPC   C3B42093  43.110  44.869   6.989
 3197POPC   C4B42094  43.215   0.141   7.325
 3198POPC   NC342095   1.194  26.475   5.585
 3198POPC   PO442096   1.452  27.096   5.477
 3198POPC   GL142097   1.187  26.967   5.840
 3198POPC   GL242098   0.919  26.718   5.915
 3198POPC   C1A42099   1.238  26.940   6.276
 3198POPC   D2A42100   1.449  26.881   6.650
 3198POPC   C3A42101   1.203  27.084   6.935
 3198POPC   C4A42102   0.981  26.921   7.260
 3198POPC   C1B42103   0.765  26.590   6.299
 3198POPC   C2B42104   0.967  26.645   6.713
 3198POPC   C3B42105   0.991  26.434   7.116
 3198POPC   C4B42106   1.150  26.529   7.567
 3199POPC   NC342107  30.211  11.774   5.390
 3199POPC   PO442108  29.824  12.332   5.482
 3199POPC   GL142109  29.694  12.046   5.793
 3199POPC   GL242110  29.838  11.699   5.778
 3199POPC   C1A42111  29.569  11.972   6.195
 3199POPC   D2A42112  29.750  11.929   6.597
 3199POPC   C3A42113  29.922  12.274   6.813
 3199POPC   C4A42114  29.637  12.195   7.137
 3199POPC   C1B42115  30.066  11.838   6.181
 3199POPC   C2B42116  30.246  11.904   6.649
 3199POPC   C3B42117  30.030  11.854   7.076
 3199POPC   C4B42118  30.098  11.860   7.542
 3200POPC   NC342119  22.494  41.828   5.457
 3200POPC   PO442120  23.135  42.073   5.496
 3200POPC   GL142121  23.077  41.753   5.820
 3200POPC   GL242122  22.742  41.567   5.835
 3200POPC   C1A42123  23.184  41.744   6.284
 3200POPC   D2A42124  23.250  41.689   6.760
 3200POPC   C3A42125  22.994  41.335   6.964
 3200POPC   C4A42126  22.873  41.105   7.332
 3200POPC   C1B42127  22.684  41.885   6.163
 3200POPC   C2B42128  22.576  41.943   6.604
 3200POPC   C3B42129  22.776  41.793   6.978
 3200POPC   C4B42130  22.669  41.574   7.349
 3201POPC   NC342131  11.167  36.322   5.303
 3201POPC   PO442132  11.746  36.477   5.587
 3201POPC   GL142133  11.552  36.236   5.926
 3201POPC   GL242134  11.216  36.124   5.802
 3201POPC   C1A42135  11.357  36.240   6.290
 3201POPC   D2A42136  11.161  36.211   6.630
 3201POPC   C3A42137  11.389  36.232   6.998
 3201POPC   C4A42138  11.082  36.243   7.289
 3201POPC   C1B42139  11.107  35.832   6.112
 3201POPC   C2B42140  11.194  35.714   6.527
 3201POPC   C3B42141  11.039  35.834   6.944
 3201POPC   C4B42142  11.244  35.730   7.304
 3202POPC   NC342143  21.456  10.221   5.308
 3202POPC   PO442144  21.090   9.625   5.449
 3202POPC   GL142145  21.436   9.769   5.716
 3202POPC   GL242146  21.410  10.112   5.829
 3202POPC   C1A42147  21.546   9.714   6.170
 3202POPC   D2A42148  21.399   9.512   6.578
 3202POPC   C3A42149  21.572   9.554   6.998
 3202POPC   C4A42150  21.527   9.501   7.454
 3202POPC   C1B42151  21.266  10.130   6.281
 3202POPC   C2B42152  21.396  10.047   6.724
 3202POPC   C3B42153  21.262   9.903   7.163
 3202POPC   C4B42154  21.135   9.823   7.592
 3203POPC   NC342155  27.161  42.778   5.597
 3203POPC   PO442156  26.656  42.273   5.535
 3203POPC   GL142157  26.710  42.544   5.881
 3203POPC   GL242158  27.048  42.416   5.936
 3203POPC   C1A42159  26.747  42.482   6.346
 3203POPC   D2A42160  26.834  42.357   6.771
 3203POPC   C3A42161  26.547  42.572   7.065
 3203POPC   C4A42162  26.506  42.565   7.536
 3203POPC   C1B42163  27.150  42.049   6.195
 3203POPC   C2B42164  27.269  41.852   6.613
 3203POPC   C3B42165  27.134  42.013   7.039
 3203POPC   C4B42166  26.960  42.369   7.296
 3204POPC   NC342167  23.471  31.266   5.378
 3204POPC   PO442168  23.822  31.888   5.338
 3204POPC   GL142169  23.733  31.689   5.744
 3204POPC   GL242170  23.469  31.454   5.852
 3204POPC   C1A42171  23.836  31.603   6.202
 3204POPC   D2A42172  23.925  31.476   6.656
 3204POPC   C3A42173  23.622  31.628   6.990
 3204POPC   C4A42174  23.582  31.510   7.433
 3204POPC   C1B42175  23.521  31.184   6.214
 3204POPC   C2B42176  23.433  31.325   6.633
 3204POPC   C3B42177  23.511  31.143   7.075
 3204POPC   C4B42178  23.387  31.046   7.510
 3205POPC   NC342179   6.819  30.938   5.557
 3205POPC   PO442180   6.302  30.481   5.417
 3205POPC   GL142181   6.529  30.555   5.822
 3205POPC   GL242182   6.412  30.920   5.897
 3205POPC   C1A42183   6.579  30.632   6.298
 3205POPC   D2A42184   6.364  30.822   6.665
 3205POPC   C3A42185   6.492  30.568   7.022
 3205POPC   C4A42186   6.338  30.151   7.134
 3205POPC   C1B42187   6.756  31.095   6.215
 3205POPC   C2B42188   6.874  30.931   6.652
 3205POPC   C3B42189   6.829  30.978   7.101
 3205POPC   C4B42190   6.945  30.951   7.590
 3206POPC   NC342191  31.069  27.169   5.381
 3206POPC   PO442192  30.636  27.768   5.417
 3206POPC   GL142193  30.668  27.682   5.798
 3206POPC   GL242194  30.711  27.332   5.758
 3206POPC   C1A42195  30.546  27.839   6.175
 3206POPC   D2A42196  30.787  27.810   6.527
 3206POPC   C3A42197  30.849  27.567   6.884
 3206POPC   C4A42198  30.816  27.762   7.247
 3206POPC   C1B42199  30.766  27.367   6.210
 3206POPC   C2B42200  30.588  27.257   6.581
 3206POPC   C3B42201  30.428  27.252   6.995
 3206POPC   C4B42202  30.679  27.285   7.409
 3207POPC   NC342203  33.713  13.093   5.442
 3207POPC   PO442204  33.622  12.381   5.641
 3207POPC   GL142205  33.668  12.783   5.839
 3207POPC   GL242206  33.406  13.044   5.832
 3207POPC   C1A42207  33.777  13.084   6.177
 3207POPC   D2A42208  34.045  13.157   6.524
 3207POPC   C3A42209  34.001  12.806   6.789
 3207POPC   C4A42210  33.966  12.833   7.197
 3207POPC   C1B42211  33.335  12.796   6.227
 3207POPC   C2B42212  33.493  12.833   6.675
 3207POPC   C3B42213  33.459  12.788   7.141
 3207POPC   C4B42214  33.310  13.012   7.532
 3208POPC   NC342215   1.084  15.752   5.142
 3208POPC   PO442216   1.167  15.076   5.355
 3208POPC   GL142217   1.215  15.212   5.785
 3208POPC   GL242218   1.513  15.016   5.873
 3208POPC   C1A42219   0.933  15.299   6.155
 3208POPC   D2A42220   0.766  15.160   6.565
 3208POPC   C3A42221   0.811  15.336   6.964
 3208POPC   C4A42222   1.108  15.119   7.222
 3208POPC   C1B42223   1.370  15.074   6.330
 3208POPC   C2B42224   1.304  15.280   6.763
 3208POPC   C3B42225   1.572  15.308   7.167
 3208POPC   C4B42226   1.709  15.082   7.548
 3209POPC   NC342227  42.684   3.286   5.018
 3209POPC   PO442228  42.257   3.738   5.357
 3209POPC   GL142229  42.217   3.497   5.756
 3209POPC   GL242230  42.473   3.214   5.751
 3209POPC   C1A42231  42.040   3.677   6.157
 3209POPC   D2A42232  42.069   3.974   6.508
 3209POPC   C3A42233  42.090   3.792   6.886
 3209POPC   C4A42234  42.106   3.928   7.301
 3209POPC   C1B42235  42.295   3.219   6.188
 3209POPC   C2B42236  42.416   3.472   6.523
 3209POPC   C3B42237  42.485   3.478   6.959
 3209POPC   C4B42238  42.157   3.406   7.226
 3210POPC   NC342239   6.557  15.208   5.397
 3210POPC   PO442240   6.392  15.835   5.534
 3210POPC   GL142241   6.498  15.520   5.834
 3210POPC   GL242242   6.334  15.178   5.851
 3210POPC   C1A42243   6.546  15.392   6.253
 3210POPC   D2A42244   6.726  15.503   6.604
 3210POPC   C3A42245   6.505  15.244   6.857
 3210POPC   C4A42246   6.461  15.400   7.222
 3210POPC   C1B42247   6.372  14.855   6.176
 3210POPC   C2B42248   6.491  14.711   6.552
 3210POPC   C3B42249   6.314  14.768   6.893
 3210POPC   C4B42250   6.304  14.934   7.253
 3211POPC   NC342251   9.596   8.444   5.310
 3211POPC   PO442252  10.034   7.984   5.413
 3211POPC   GL142253   9.799   8.157   5.749
 3211POPC   GL242254   9.890   8.517   5.733
 3211POPC   C1A42255   9.644   8.035   6.159
 3211POPC   D2A42256   9.450   8.041   6.574
 3211POPC   C3A42257   9.784   7.938   6.858
 3211POPC   C4A42258   9.794   8.081   7.263
 3211POPC   C1B42259   9.626   8.544   6.108
 3211POPC   C2B42260   9.545   8.534   6.539
 3211POPC   C3B42261   9.627   8.451   6.964
 3211POPC   C4B42262   9.950   8.631   7.272
 3212POPC   NC342263  22.980  28.475   5.349
 3212POPC   PO442264  22.718  27.857   5.384
 3212POPC   GL142265  22.737  28.050   5.790
 3212POPC   GL242266  22.726  28.421   5.810
 3212POPC   C1A42267  22.834  28.133   6.223
 3212POPC   D2A42268  22.650  28.080   6.598
 3212POPC   C3A42269  22.959  28.152   6.866
 3212POPC   C4A42270  23.095  28.181   7.258
 3212POPC   C1B42271  22.858  28.654   6.206
 3212POPC   C2B42272  22.985  28.654   6.655
 3212POPC   C3B42273  22.823  28.602   7.078
 3212POPC   C4B42274  23.064  28.629   7.474
 3213POPC   NC342275   8.519  30.916   5.514
 3213POPC   PO442276   7.941  30.713   5.437
 3213POPC   GL142277   8.185  30.592   5.790
 3213POPC   GL242278   8.026  30.287   5.900
 3213POPC   C1A42279   8.424  30.686   6.162
 3213POPC   D2A42280   8.294  30.966   6.478
 3213POPC   C3A42281   8.352  30.723   6.851
 3213POPC   C4A42282   8.195  30.768   7.244
 3213POPC   C1B42283   7.955  30.151   6.319
 3213POPC   C2B42284   8.112  30.255   6.706
 3213POPC   C3B42285   8.001  30.296   7.113
 3213POPC   C4B42286   8.110  30.299   7.550
 3214POPC   NC342287   9.519  36.370   5.407
 3214POPC   PO442288  10.065  35.928   5.382
 3214POPC   GL142289   9.829  36.089   5.728
 3214POPC   GL242290   9.893  36.442   5.738
 3214POPC   C1A42291   9.647  36.179   6.139
 3214POPC   D2A42292   9.813  36.044   6.534
 3214POPC   C3A42293   9.593  36.137   6.892
 3214POPC   C4A42294   9.703  36.107   7.314
 3214POPC   C1B42295   9.940  36.607   6.138
 3214POPC   C2B42296  10.001  36.525   6.567
 3214POPC   C3B42297   9.860  36.565   6.992
 3214POPC   C4B42298  10.014  36.514   7.366
 3215POPC   NC342299   5.302  39.420   5.563
 3215POPC   PO442300   5.053  38.774   5.523
 3215POPC   GL142301   4.904  39.069   5.841
 3215POPC   GL242302   4.762  39.391   5.753
 3215POPC   C1A42303   5.036  38.988   6.270
 3215POPC   D2A42304   5.394  39.103   6.495
 3215POPC   C3A42305   5.323  39.175   6.929
 3215POPC   C4A42306   5.446  39.349   7.308
 3215POPC   C1B42307   5.007  39.497   6.144
 3215POPC   C2B42308   4.987  39.433   6.568
 3215POPC   C3B42309   4.990  39.561   6.984
 3215POPC   C4B42310   5.057  39.631   7.413
 3216POPC   NC342311  24.450   6.419   5.408
 3216POPC   PO442312  24.541   7.082   5.286
 3216POPC   GL142313  24.485   6.885   5.752
 3216POPC   GL242314  24.250   6.593   5.850
 3216POPC   C1A42315  24.690   6.676   6.152
 3216POPC   D2A42316  24.650   6.392   6.546
 3216POPC   C3A42317  24.606   6.497   7.019
 3216POPC   C4A42318  24.362   6.509   7.423
 3216POPC   C1B42319  24.204   6.799   6.239
 3216POPC   C2B42320  24.368   6.891   6.633
 3216POPC   C3B42321  24.263   6.882   7.062
 3216POPC   C4B42322  24.616   6.998   7.331
 3217POPC   NC342323  29.192   2.339   5.432
 3217POPC   PO442324  29.553   1.728   5.510
 3217POPC   GL142325  29.368   1.961   5.845
 3217POPC   GL242326  29.500   2.290   5.837
 3217POPC   C1A42327  29.025   2.098   6.152
 3217POPC   D2A42328  28.819   1.979   6.573
 3217POPC   C3A42329  29.071   1.990   6.962
 3217POPC   C4A42330  29.094   1.648   7.257
 3217POPC   C1B42331  29.526   2.214   6.269
 3217POPC   C2B42332  29.352   2.339   6.675
 3217POPC   C3B42333  29.536   2.196   7.110
 3217POPC   C4B42334  29.333   2.173   7.527
 3218POPC   NC342335  20.754  38.078   5.646
 3218POPC   PO442336  20.332  37.606   5.403
 3218POPC   GL142337  20.442  37.550   5.859
 3218POPC   GL242338  20.767  37.375   5.897
 3218POPC   C1A42339  20.614  37.716   6.249
 3218POPC   D2A42340  20.683  37.646   6.680
 3218POPC   C3A42341  20.422  37.867   6.971
 3218POPC   C4A42342  20.701  38.083   7.225
 3218POPC   C1B42343  20.764  37.228   6.364
 3218POPC   C2B42344  20.724  37.160   6.818
 3218POPC   C3B42345  20.451  37.382   7.081
 3218POPC   C4B42346  20.545  37.622   7.446
 3219POPC   NC342347  37.092   7.669   5.699
 3219POPC   PO442348  36.850   7.053   5.642
 3219POPC   GL142349  36.729   7.331   5.934
 3219POPC   GL242350  36.816   7.648   6.122
 3219POPC   C1A42351  36.777   7.201   6.338
 3219POPC   D2A42352  36.946   7.416   6.671
 3219POPC   C3A42353  37.056   7.187   7.011
 3219POPC   C4A42354  37.096   7.296   7.472
 3219POPC   C1B42355  37.231   7.724   6.353
 3219POPC   C2B42356  37.426   7.588   6.741
 3219POPC   C3B42357  37.295   7.617   7.144
 3219POPC   C4B42358  37.255   7.753   7.595
 3220POPC   NC342359  11.834  44.673   5.301
 3220POPC   PO442360  12.460  44.703   5.369
 3220POPC   GL142361  12.176  44.544   5.734
 3220POPC   GL242362  11.843  44.675   5.800
 3220POPC   C1A42363  12.094  44.399   6.169
 3220POPC   D2A42364  12.307  44.486   6.536
 3220POPC   C3A42365  12.211  44.474   6.960
 3220POPC   C4A42366  12.186  44.823   7.229
 3220POPC   C1B42367  11.773  44.820   6.197
 3220POPC   C2B42368  11.733  44.641   6.573
 3220POPC   C3B42369  11.748  44.736   6.994
 3220POPC   C4B42370  11.827  44.381   7.298
 3221POPC   NC342371  27.781  18.523   5.399
 3221POPC   PO442372  27.527  17.818   5.553
 3221POPC   GL142373  27.648  18.168   5.753
 3221POPC   GL242374  27.364  18.393   5.718
 3221POPC   C1A42375  27.724  18.163   6.195
 3221POPC   D2A42376  27.465  18.113   6.567
 3221POPC   C3A42377  27.666  18.129   6.951
 3221POPC   C4A42378  27.369  18.078   7.295
 3221POPC   C1B42379  27.281  18.420   6.171
 3221POPC   C2B42380  27.422  18.608   6.590
 3221POPC   C3B42381  27.316  18.511   7.007
 3221POPC   C4B42382  27.663  18.496   7.296
 3222POPC   NC342383  18.101   6.324   5.457
 3222POPC   PO442384  17.841   6.933   5.467
 3222POPC   GL142385  18.215   6.762   5.750
 3222POPC   GL242386  18.451   6.451   5.828
 3222POPC   C1A42387  18.324   6.812   6.201
 3222POPC   D2A42388  18.101   6.641   6.592
 3222POPC   C3A42389  18.211   6.744   7.039
 3222POPC   C4A42390  17.908   6.915   7.331
 3222POPC   C1B42391  18.405   6.328   6.296
 3222POPC   C2B42392  18.464   6.346   6.774
 3222POPC   C3B42393  18.379   6.293   7.207
 3222POPC   C4B42394  18.450   6.079   7.635
 3223POPC   NC342395  18.642  36.237   5.549
 3223POPC   PO442396  17.986  36.027   5.462
 3223POPC   GL142397  18.238  36.140   5.843
 3223POPC   GL242398  18.062  36.457   5.923
 3223POPC   C1A42399  18.371  35.965   6.287
 3223POPC   D2A42400  18.346  35.660   6.653
 3223POPC   C3A42401  18.216  35.816   7.046
 3223POPC   C4A42402  18.363  36.217   7.198
 3223POPC   C1B42403  17.895  36.149   6.216
 3223POPC   C2B42404  17.986  36.023   6.634
 3223POPC   C3B42405  17.858  36.190   7.012
 3223POPC   C4B42406  17.860  36.358   7.369
 3224POPC   NC342407   9.292  20.671   5.676
 3224POPC   PO442408   9.949  20.531   5.541
 3224POPC   GL142409   9.990  20.726   5.894
 3224POPC   GL242410   9.981  20.482   6.160
 3224POPC   C1A42411   9.795  20.953   6.200
 3224POPC   D2A42412   9.877  20.861   6.614
 3224POPC   C3A42413   9.597  20.650   6.855
 3224POPC   C4A42414   9.892  20.463   7.157
 3224POPC   C1B42415   9.545  20.516   6.326
 3224POPC   C2B42416   9.326  20.236   6.602
 3224POPC   C3B42417   9.474  20.176   7.027
 3224POPC   C4B42418   9.572  20.187   7.448
 3225POPC   NC342419  16.438  37.521   5.489
 3225POPC   PO442420  17.197  37.584   5.410
 3225POPC   GL142421  16.875  37.469   5.737
 3225POPC   GL242422  16.648  37.764   5.889
 3225POPC   C1A42423  16.698  37.340   6.132
 3225POPC   D2A42424  16.677  37.378   6.593
 3225POPC   C3A42425  16.767  37.647   7.001
 3225POPC   C4A42426  16.538  37.818   7.391
 3225POPC   C1B42427  16.391  37.715   6.307
 3225POPC   C2B42428  16.389  37.898   6.745
 3225POPC   C3B42429  16.604  38.174   7.065
 3225POPC   C4B42430  16.575  38.351   7.513
 3226POPC   NC342431  16.997   1.115   5.242
 3226POPC   PO442432  16.329   1.239   5.348
 3226POPC   GL142433  16.507   1.281   5.781
 3226POPC   GL242434  16.455   0.980   6.011
 3226POPC   C1A42435  16.804   1.304   6.161
 3226POPC   D2A42436  17.003   1.119   6.524
 3226POPC   C3A42437  16.831   1.268   6.900
 3226POPC   C4A42438  16.751   1.035   7.249
 3226POPC   C1B42439  16.287   1.329   6.240
 3226POPC   C2B42440  16.367   1.455   6.667
 3226POPC   C3B42441  16.438   1.519   7.153
 3226POPC   C4B42442  16.534   1.375   7.608
 3227POPC   NC342443   9.600  25.904   5.435
 3227POPC   PO442444  10.103  26.401   5.404
 3227POPC   GL142445   9.846  26.241   5.769
 3227POPC   GL242446   9.784  25.893   5.902
 3227POPC   C1A42447  10.035  26.197   6.215
 3227POPC   D2A42448  10.219  25.995   6.580
 3227POPC   C3A42449  10.021  26.065   6.937
 3227POPC   C4A42450   9.715  26.298   7.125
 3227POPC   C1B42451   9.714  25.842   6.353
 3227POPC   C2B42452   9.513  25.957   6.725
 3227POPC   C3B42453   9.619  25.806   7.109
 3227POPC   C4B42454  10.009  25.694   7.331
 3228POPC   NC342455  15.671  25.793   5.253
 3228POPC   PO442456  16.221  25.974   5.530
 3228POPC   GL142457  16.150  25.954   5.955
 3228POPC   GL242458  15.780  26.028   5.932
 3228POPC   C1A42459  15.966  25.799   6.341
 3228POPC   D2A42460  15.647  25.896   6.632
 3228POPC   C3A42461  15.967  25.893   6.885
 3228POPC   C4A42462  16.175  25.918   7.232
 3228POPC   C1B42463  15.680  26.277   6.302
 3228POPC   C2B42464  15.744  26.391   6.742
 3228POPC   C3B42465  15.758  26.294   7.181
 3228POPC   C4B42466  15.589  26.578   7.504
 3229POPC   NC342467  15.615   9.308   5.441
 3229POPC   PO442468  15.010   9.587   5.351
 3229POPC   GL142469  15.084   9.600   5.789
 3229POPC   GL242470  14.792   9.402   5.831
 3229POPC   C1A42471  15.259   9.825   6.192
 3229POPC   D2A42472  15.251   9.624   6.650
 3229POPC   C3A42473  15.180   9.881   6.990
 3229POPC   C4A42474  14.984  10.088   7.296
 3229POPC   C1B42475  14.913   9.444   6.270
 3229POPC   C2B42476  14.787   9.377   6.694
 3229POPC   C3B42477  14.890   9.467   7.102
 3229POPC   C4B42478  14.766   9.413   7.557
 3230POPC   NC342479  16.942   5.021   5.219
 3230POPC   PO442480  16.305   4.823   5.343
 3230POPC   GL142481  16.664   4.946   5.662
 3230POPC   GL242482  16.988   5.201   5.701
 3230POPC   C1A42483  16.751   5.002   6.115
 3230POPC   D2A42484  16.870   4.754   6.472
 3230POPC   C3A42485  16.772   4.962   6.869
 3230POPC   C4A42486  16.601   4.760   7.229
 3230POPC   C1B42487  17.055   5.459   6.099
 3230POPC   C2B42488  17.021   5.285   6.515
 3230POPC   C3B42489  17.132   5.328   6.935
 3230POPC   C4B42490  16.920   5.254   7.329
 3231POPC   NC342491  31.567  37.938   5.178
 3231POPC   PO442492  31.513  37.293   5.321
 3231POPC   GL142493  31.561  37.536   5.716
 3231POPC   GL242494  31.573  37.914   5.727
 3231POPC   C1A42495  31.308  37.487   6.103
 3231POPC   D2A42496  31.360  37.362   6.537
 3231POPC   C3A42497  31.189  37.507   6.934
 3231POPC   C4A42498  31.491  37.665   7.216
 3231POPC   C1B42499  31.787  37.980   6.157
 3231POPC   C2B42500  31.754  37.846   6.579
 3231POPC   C3B42501  31.780  38.037   6.989
 3231POPC   C4B42502  31.711  38.325   7.351
 3232POPC   NC342503   9.738  44.986   5.340
 3232POPC   PO442504   9.476  44.358   5.503
 3232POPC   GL142505   9.651  44.607   5.832
 3232POPC   GL242506   9.497  44.934   5.820
 3232POPC   C1A42507   9.948  44.838   6.103
 3232POPC   D2A42508  10.140  44.949   6.529
 3232POPC   C3A42509   9.921  44.789   6.930
 3232POPC   C4A42510   9.657  44.981   7.262
 3232POPC   C1B42511   9.414  44.846   6.273
 3232POPC   C2B42512   9.272  44.645   6.671
 3232POPC   C3B42513   9.481  44.533   7.072
 3232POPC   C4B42514   9.875  44.338   7.206
 3233POPC   NC342515   0.040  19.356   5.603
 3233POPC   PO442516   0.335  18.772   5.298
 3233POPC   GL142517   0.468  18.995   5.722
 3233POPC   GL242518   0.175  19.022   5.962
 3233POPC   C1A42519   0.614  19.193   6.141
 3233POPC   D2A42520   0.435  19.050   6.515
 3233POPC   C3A42521   0.520  19.222   6.891
 3233POPC   C4A42522   0.581  19.089   7.294
 3233POPC   C1B42523   0.011  19.265   6.341
 3233POPC   C2B42524   0.002  19.280   6.792
 3233POPC   C3B42525   0.112  19.294   7.226
 3233POPC   C4B42526   0.242  19.468   7.631
 3234POPC   NC342527  41.470   1.674   5.500
 3234POPC   PO442528  41.774   2.308   5.506
 3234POPC   GL142529  41.637   2.047   5.835
 3234POPC   GL242530  41.826   1.790   5.908
 3234POPC   C1A42531  41.430   2.082   6.238
 3234POPC   D2A42532  41.540   1.925   6.627
 3234POPC   C3A42533  41.666   2.244   6.886
 3234POPC   C4A42534  41.608   2.427   7.274
 3234POPC   C1B42535  41.685   1.615   6.247
 3234POPC   C2B42536  41.860   1.528   6.616
 3234POPC   C3B42537  41.828   1.753   7.013
 3234POPC   C4B42538  41.514   1.730   7.336
 3235POPC   NC342539  14.838  21.699   5.429
 3235POPC   PO442540  15.438  21.311   5.513
 3235POPC   GL142541  15.079  21.356   5.829
 3235POPC   GL242542  15.059  21.716   5.878
 3235POPC   C1A42543  14.999  21.184   6.263
 3235POPC   D2A42544  14.782  21.274   6.677
 3235POPC   C3A42545  15.056  21.361   7.016
 3235POPC   C4A42546  15.447  21.380   7.257
 3235POPC   C1B42547  14.784  21.669   6.213
 3235POPC   C2B42548  14.910  21.768   6.621
 3235POPC   C3B42549  14.696  21.734   6.995
 3235POPC   C4B42550  14.905  21.689   7.402
 3236POPC   NC342551   2.271  23.459   5.377
 3236POPC   PO442552   2.090  22.866   5.264
 3236POPC   GL142553   1.875  22.868   5.696
 3236POPC   GL242554   2.059  23.115   5.870
 3236POPC   C1A42555   1.661  22.935   6.128
 3236POPC   D2A42556   1.862  22.888   6.550
 3236POPC   C3A42557   1.773  23.146   6.929
 3236POPC   C4A42558   1.649  23.236   7.361
 3236POPC   C1B42559   2.110  22.672   6.114
 3236POPC   C2B42560   2.310  22.540   6.517
 3236POPC   C3B42561   2.319  22.576   6.977
 3236POPC   C4B42562   2.137  22.936   7.227
 3237POPC   NC342563   4.584  30.562   5.557
 3237POPC   PO442564   3.981  30.731   5.490
 3237POPC   GL142565   4.192  30.698   5.867
 3237POPC   GL242566   4.091  30.330   5.823
 3237POPC   C1A42567   4.561  30.846   6.168
 3237POPC   D2A42568   4.778  30.938   6.599
 3237POPC   C3A42569   4.515  30.832   6.979
 3237POPC   C4A42570   4.102  30.857   7.182
 3237POPC   C1B42571   4.298  30.355   6.221
 3237POPC   C2B42572   4.373  30.515   6.619
 3237POPC   C3B42573   4.252  30.385   7.041
 3237POPC   C4B42574   4.234  30.448   7.490
 3238POPC   NC342575  19.988  40.234   5.469
 3238POPC   PO442576  20.079  40.860   5.439
 3238POPC   GL142577  20.101  40.755   5.886
 3238POPC   GL242578  19.722  40.797   5.911
 3238POPC   C1A42579  20.064  40.928   6.340
 3238POPC   D2A42580  19.866  41.081   6.754
 3238POPC   C3A42581  19.814  40.870   7.218
 3238POPC   C4A42582  19.906  40.871   7.724
 3238POPC   C1B42583  19.534  40.869   6.341
 3238POPC   C2B42584  19.561  40.669   6.773
 3238POPC   C3B42585  19.402  40.537   7.187
 3238POPC   C4B42586  19.408  40.719   7.587
 3239POPC   NC342587  17.791  36.458   5.458
 3239POPC   PO442588  17.272  35.971   5.307
 3239POPC   GL142589  17.430  36.154   5.737
 3239POPC   GL242590  17.395  36.519   5.780
 3239POPC   C1A42591  17.339  36.137   6.212
 3239POPC   D2A42592  17.535  35.830   6.517
 3239POPC   C3A42593  17.572  35.762   6.964
 3239POPC   C4A42594  17.155  35.832   7.152
 3239POPC   C1B42595  17.620  36.571   6.172
 3239POPC   C2B42596  17.621  36.385   6.577
 3239POPC   C3B42597  17.364  36.211   6.865
 3239POPC   C4B42598  17.351  36.355   7.254
 3240POPC   NC342599  37.872   7.567   5.553
 3240POPC   PO442600  38.457   7.589   5.243
 3240POPC   GL142601  38.352   7.337   5.642
 3240POPC   GL242602  38.301   7.608   5.873
 3240POPC   C1A42603  38.400   7.158   6.103
 3240POPC   D2A42604  38.514   7.347   6.508
 3240POPC   C3A42605  38.601   7.180   6.926
 3240POPC   C4A42606  38.484   7.188   7.398
 3240POPC   C1B42607  38.381   7.817   6.274
 3240POPC   C2B42608  38.249   7.744   6.693
 3240POPC   C3B42609  38.221   7.481   7.039
 3240POPC   C4B42610  38.201   7.624   7.430
 3241POPC   NC342611   7.853  14.279   5.507
 3241POPC   PO442612   8.461  14.626   5.493
 3241POPC   GL142613   8.279  14.487   5.875
 3241POPC   GL242614   7.960  14.337   5.990
 3241POPC   C1A42615   8.358  14.600   6.300
 3241POPC   D2A42616   8.308  14.420   6.689
 3241POPC   C3A42617   8.268  14.675   7.056
 3241POPC   C4A42618   8.001  14.406   7.341
 3241POPC   C1B42619   7.895  14.709   6.174
 3241POPC   C2B42620   7.975  14.809   6.608
 3241POPC   C3B42621   7.790  14.777   6.977
 3241POPC   C4B42622   7.909  14.919   7.389
 3242POPC   NC342623  18.037   8.193   5.519
 3242POPC   PO442624  17.981   7.585   5.571
 3242POPC   GL142625  18.086   7.845   5.928
 3242POPC   GL242626  18.379   8.060   5.903
 3242POPC   C1A42627  18.217   7.844   6.362
 3242POPC   D2A42628  18.118   8.085   6.718
 3242POPC   C3A42629  18.105   7.946   7.143
 3242POPC   C4A42630  18.151   8.274   7.510
 3242POPC   C1B42631  18.556   8.254   6.289
 3242POPC   C2B42632  18.652   8.275   6.726
 3242POPC   C3B42633  18.491   8.259   7.118
 3242POPC   C4B42634  18.546   7.933   7.426
 3243POPC   NC342635  40.347  16.174   5.611
 3243POPC   PO442636  39.735  16.313   5.342
 3243POPC   GL142637  39.856  15.958   5.663
 3243POPC   GL242638  40.168  15.750   5.802
 3243POPC   C1A42639  39.852  16.013   6.121
 3243POPC   D2A42640  39.929  15.892   6.565
 3243POPC   C3A42641  39.790  16.069   6.971
 3243POPC   C4A42642  39.894  16.311   7.317
 3243POPC   C1B42643  40.340  15.869   6.197
 3243POPC   C2B42644  40.420  15.708   6.577
 3243POPC   C3B42645  40.220  15.757   6.967
 3243POPC   C4B42646  40.094  15.708   7.356
 3244POPC   NC342647  24.147  17.393   5.340
 3244POPC   PO442648  23.726  17.784   5.710
 3244POPC   GL142649  24.108  17.600   5.848
 3244POPC   GL242650  24.151  17.250   5.826
 3244POPC   C1A42651  24.265  17.623   6.258
 3244POPC   D2A42652  24.098  17.560   6.694
 3244POPC   C3A42653  23.671  17.715   6.739
 3244POPC   C4A42654  23.510  17.821   7.155
 3244POPC   C1B42655  23.927  17.253   6.232
 3244POPC   C2B42656  23.889  17.109   6.672
 3244POPC   C3B42657  23.778  17.345   7.055
 3244POPC   C4B42658  23.523  17.312   7.425
 3245POPC   NC342659   2.276   0.247   5.658
 3245POPC   PO442660   1.574   0.478   5.422
 3245POPC   GL142661   1.815   0.430   5.803
 3245POPC   GL242662   2.057   0.689   5.924
 3245POPC   C1A42663   1.919   0.319   6.235
 3245POPC   D2A42664   2.013   0.348   6.680
 3245POPC   C3A42665   1.774   0.196   7.042
 3245POPC   C4A42666   1.770   0.442   7.417
 3245POPC   C1B42667   2.363   0.568   6.286
 3245POPC   C2B42668   2.433   0.646   6.737
 3245POPC   C3B42669   2.183   0.572   7.118
 3245POPC   C4B42670   2.253   0.615   7.578
 3246POPC   NC342671  40.919  32.680   5.438
 3246POPC   PO442672  40.388  33.075   5.358
 3246POPC   GL142673  40.597  33.082   5.782
 3246POPC   GL242674  40.893  32.922   5.889
 3246POPC   C1A42675  40.659  33.213   6.237
 3246POPC   D2A42676  40.733  33.043   6.658
 3246POPC   C3A42677  40.458  33.228   6.979
 3246POPC   C4A42678  40.547  33.311   7.404
 3246POPC   C1B42679  41.137  32.650   6.159
 3246POPC   C2B42680  41.193  32.465   6.561
 3246POPC   C3B42681  41.107  32.663   6.955
 3246POPC   C4B42682  40.928  33.040   7.153
 3247POPC   NC342683  32.424  33.214   5.461
 3247POPC   PO442684  32.067  32.652   5.645
 3247POPC   GL142685  32.201  32.990   5.881
 3247POPC   GL242686  32.034  33.292   5.803
 3247POPC   C1A42687  32.267  32.977   6.318
 3247POPC   D2A42688  32.617  32.955   6.532
 3247POPC   C3A42689  32.578  32.913   6.941
 3247POPC   C4A42690  32.229  32.845   7.245
 3247POPC   C1B42691  32.268  33.452   6.143
 3247POPC   C2B42692  32.415  33.421   6.564
 3247POPC   C3B42693  32.222  33.277   6.943
 3247POPC   C4B42694  31.998  33.313   7.323
 3248POPC   NC342695  23.353  44.706   5.193
 3248POPC   PO442696  23.983  44.726   5.319
 3248POPC   GL142697  23.819  44.511   5.686
 3248POPC   GL242698  23.766  44.805   5.826
 3248POPC   C1A42699  23.774  44.436   6.173
 3248POPC   D2A42700  23.828  44.593   6.607
 3248POPC   C3A42701  23.776  44.306   6.964
 3248POPC   C4A42702  23.683  44.427   7.377
 3248POPC   C1B42703  23.795  44.997   6.219
 3248POPC   C2B42704  23.997   0.201   6.545
 3248POPC   C3B42705  23.805   0.088   6.900
 3248POPC   C4B42706  23.682  44.966   7.282
 3249POPC   NC342707  39.248  35.620   5.383
 3249POPC   PO442708  39.553  35.028   5.428
 3249POPC   GL142709  39.453  35.346   5.781
 3249POPC   GL242710  39.078  35.434   5.839
 3249POPC   C1A42711  39.513  35.517   6.220
 3249POPC   D2A42712  39.430  35.282   6.630
 3249POPC   C3A42713  39.260  35.367   7.059
 3249POPC   C4A42714  39.476  35.336   7.454
 3249POPC   C1B42715  39.037  35.337   6.289
 3249POPC   C2B42716  39.031  35.636   6.624
 3249POPC   C3B42717  38.740  35.739   6.938
 3249POPC   C4B42718  38.846  35.765   7.356
 3250POPC   NC342719  28.226  35.181   5.524
 3250POPC   PO442720  28.931  35.257   5.613
 3250POPC   GL142721  28.570  35.300   5.895
 3250POPC   GL242722  28.297  35.582   5.834
 3250POPC   C1A42723  28.378  35.191   6.300
 3250POPC   D2A42724  28.509  35.132   6.742
 3250POPC   C3A42725  28.194  35.168   7.010
 3250POPC   C4A42726  28.060  35.270   7.387
 3250POPC   C1B42727  28.561  35.747   6.138
 3250POPC   C2B42728  28.578  35.613   6.529
 3250POPC   C3B42729  28.333  35.656   6.885
 3250POPC   C4B42730  28.482  35.534   7.269
 3251POPC   NC342731  37.500  28.953   5.480
 3251POPC   PO442732  37.769  29.513   5.231
 3251POPC   GL142733  37.804  29.301   5.711
 3251POPC   GL242734  37.969  28.983   5.774
 3251POPC   C1A42735  37.606  29.087   6.131
 3251POPC   D2A42736  37.386  28.821   6.495
 3251POPC   C3A42737  37.505  28.826   6.959
 3251POPC   C4A42738  37.560  29.145   7.298
 3251POPC   C1B42739  38.066  28.914   6.243
 3251POPC   C2B42740  37.841  29.067   6.652
 3251POPC   C3B42741  38.002  28.963   7.090
 3251POPC   C4B42742  38.089  28.943   7.557
 3252POPC   NC342743  13.408  41.852   5.361
 3252POPC   PO442744  13.165  41.285   5.519
 3252POPC   GL142745  13.400  41.589   5.790
 3252POPC   GL242746  13.784  41.595   5.716
 3252POPC   C1A42747  13.516  41.549   6.194
 3252POPC   D2A42748  13.251  41.497   6.536
 3252POPC   C3A42749  13.446  41.650   6.897
 3252POPC   C4A42750  13.368  41.528   7.293
 3252POPC   C1B42751  14.014  41.493   6.110
 3252POPC   C2B42752  13.905  41.626   6.528
 3252POPC   C3B42753  13.935  41.507   6.945
 3252POPC   C4B42754  13.804  41.794   7.271
 3253POPC   NC342755  32.007  35.750   5.727
 3253POPC   PO442756  32.139  36.238   5.298
 3253POPC   GL142757  32.330  36.377   5.701
 3253POPC   GL242758  32.161  36.181   5.981
 3253POPC   C1A42759  32.468  36.564   6.115
 3253POPC   D2A42760  32.304  36.358   6.479
 3253POPC   C3A42761  32.355  36.204   6.882
 3253POPC   C4A42762  32.574  36.277   7.213
 3253POPC   C1B42763  32.217  35.860   6.324
 3253POPC   C2B42764  32.390  35.712   6.684
 3253POPC   C3B42765  32.109  35.737   7.004
 3253POPC   C4B42766  32.140  35.957   7.386
 3254POPC   NC342767  10.140  20.112   5.566
 3254POPC   PO442768   9.546  19.640   5.414
 3254POPC   GL142769   9.576  19.823   5.829
 3254POPC   GL242770   9.490  19.501   5.889
 3254POPC   C1A42771   9.681  20.017   6.272
 3254POPC   D2A42772   9.859  20.216   6.679
 3254POPC   C3A42773   9.968  19.946   7.076
 3254POPC   C4A42774  10.407  19.847   7.308
 3254POPC   C1B42775   9.725  19.503   6.254
 3254POPC   C2B42776   9.851  19.650   6.660
 3254POPC   C3B42777   9.838  19.435   7.052
 3254POPC   C4B42778   9.561  19.428   7.379
 3255POPC   NC342779   8.798  24.981   5.440
 3255POPC   PO442780   9.292  25.462   5.442
 3255POPC   GL142781   9.110  25.228   5.768
 3255POPC   GL242782   9.280  24.904   5.746
 3255POPC   C1A42783   8.852  25.347   6.140
 3255POPC   D2A42784   8.859  25.632   6.504
 3255POPC   C3A42785   8.790  25.371   6.868
 3255POPC   C4A42786   8.827  25.309   7.310
 3255POPC   C1B42787   9.355  24.997   6.181
 3255POPC   C2B42788   9.111  25.092   6.556
 3255POPC   C3B42789   9.093  24.971   7.002
 3255POPC   C4B42790   9.281  25.032   7.404
 3256POPC   NC342791  23.485  40.340   5.494
 3256POPC   PO442792  23.515  39.680   5.530
 3256POPC   GL142793  23.750  39.812   5.902
 3256POPC   GL242794  23.763  40.119   5.886
 3256POPC   C1A42795  23.721  39.978   6.373
 3256POPC   D2A42796  23.384  39.940   6.683
 3256POPC   C3A42797  23.555  39.728   7.053
 3256POPC   C4A42798  23.965  39.951   7.119
 3256POPC   C1B42799  23.389  40.256   6.136
 3256POPC   C2B42800  23.462  40.455   6.517
 3256POPC   C3B42801  23.763  40.323   6.799
 3256POPC   C4B42802  23.513  40.231   7.143
 3257POPC   NC342803  20.203  23.370   5.564
 3257POPC   PO442804  20.606  22.898   5.191
 3257POPC   GL142805  20.665  22.688   5.649
 3257POPC   GL242806  20.638  23.033   5.830
 3257POPC   C1A42807  20.636  22.628   6.139
 3257POPC   D2A42808  20.694  22.988   6.473
 3257POPC   C3A42809  20.788  22.877   6.907
 3257POPC   C4A42810  20.683  23.050   7.298
 3257POPC   C1B42811  20.279  23.001   6.164
 3257POPC   C2B42812  20.175  23.233   6.496
 3257POPC   C3B42813  20.325  23.089   6.870
 3257POPC   C4B42814  20.196  23.200   7.275
 3258POPC   NC342815  15.750  41.035   5.630
 3258POPC   PO442816  16.064  41.542   5.302
 3258POPC   GL142817  15.946  41.726   5.715
 3258POPC   GL242818  15.695  41.498   5.832
 3258POPC   C1A42819  16.082  41.757   6.181
 3258POPC   D2A42820  15.882  41.840   6.617
 3258POPC   C3A42821  16.061  41.753   7.047
 3258POPC   C4A42822  16.094  41.323   7.220
 3258POPC   C1B42823  15.587  41.597   6.240
 3258POPC   C2B42824  15.440  41.457   6.629
 3258POPC   C3B42825  15.559  41.648   7.009
 3258POPC   C4B42826  15.709  41.646   7.443
 3259POPC   NC342827  24.170  41.748   5.497
 3259POPC   PO442828  24.794  41.455   5.327
 3259POPC   GL142829  24.752  41.570   5.814
 3259POPC   GL242830  24.402  41.497   5.870
 3259POPC   C1A42831  24.612  41.733   6.271
 3259POPC   D2A42832  24.551  41.533   6.684
 3259POPC   C3A42833  24.605  41.699   7.109
 3259POPC   C4A42834  24.741  41.407   7.434
 3259POPC   C1B42835  24.234  41.377   6.258
 3259POPC   C2B42836  24.242  41.140   6.627
 3259POPC   C3B42837  24.120  41.405   6.960
 3259POPC   C4B42838  24.223  41.505   7.369
 3260POPC   NC342839   8.963  44.523   5.411
 3260POPC   PO442840   9.237   0.177   5.377
 3260POPC   GL142841   8.985  44.930   5.745
 3260POPC   GL242842   9.114  44.589   5.884
 3260POPC   C1A42843   8.821  44.871   6.187
 3260POPC   D2A42844   8.757  44.548   6.519
 3260POPC   C3A42845   8.793  44.730   6.941
 3260POPC   C4A42846   9.052  44.738   7.293
 3260POPC   C1B42847   9.324  44.337   6.189
 3260POPC   C2B42848   9.228  44.127   6.570
 3260POPC   C3B42849   9.061  44.255   6.959
 3260POPC   C4B42850   9.204  44.234   7.395
 3261POPC   NC342851  34.720  21.799   5.141
 3261POPC   PO442852  34.615  22.376   5.436
 3261POPC   GL142853  34.677  22.214   5.857
 3261POPC   GL242854  35.007  22.401   5.867
 3261POPC   C1A42855  34.447  22.008   6.244
 3261POPC   D2A42856  34.258  22.168   6.648
 3261POPC   C3A42857  34.427  22.069   7.048
 3261POPC   C4A42858  34.290  21.912   7.473
 3261POPC   C1B42859  34.954  22.282   6.290
 3261POPC   C2B42860  34.805  22.108   6.642
 3261POPC   C3B42861  34.951  21.903   6.985
 3261POPC   C4B42862  34.802  21.912   7.411
 3262POPC   NC342863  37.491  22.835   5.497
 3262POPC   PO442864  38.128  22.810   5.546
 3262POPC   GL142865  37.780  22.752   5.901
 3262POPC   GL242866  37.538  23.042   5.978
 3262POPC   C1A42867  37.508  22.608   6.260
 3262POPC   D2A42868  37.647  22.648   6.683
 3262POPC   C3A42869  37.538  22.933   7.030
 3262POPC   C4A42870  37.570  22.925   7.510
 3262POPC   C1B42871  37.859  22.992   6.346
 3262POPC   C2B42872  37.984  23.040   6.795
 3262POPC   C3B42873  37.997  22.963   7.250
 3262POPC   C4B42874  38.081  23.272   7.578
 3263POPC   NC342875  34.152  37.303   5.409
 3263POPC   PO442876  33.710  36.812   5.420
 3263POPC   GL142877  33.789  36.926   5.810
 3263POPC   GL242878  33.749  37.235   5.732
 3263POPC   C1A42879  33.894  36.718   6.210
 3263POPC   D2A42880  33.602  36.709   6.539
 3263POPC   C3A42881  33.639  36.832   6.946
 3263POPC   C4A42882  33.429  37.125   7.232
 3263POPC   C1B42883  33.776  37.231   6.218
 3263POPC   C2B42884  33.998  37.061   6.594
 3263POPC   C3B42885  33.985  37.211   7.011
 3263POPC   C4B42886  33.942  36.937   7.347
 3264POPC   NC342887   8.022  24.744   5.237
 3264POPC   PO442888   8.175  24.112   5.494
 3264POPC   GL142889   8.211  24.456   5.785
 3264POPC   GL242890   7.994  24.734   5.770
 3264POPC   C1A42891   8.198  24.496   6.237
 3264POPC   D2A42892   8.282  24.144   6.556
 3264POPC   C3A42893   8.412  24.276   6.945
 3264POPC   C4A42894   8.180  24.431   7.257
 3264POPC   C1B42895   7.837  24.928   6.151
 3264POPC   C2B42896   7.982  24.973   6.571
 3264POPC   C3B42897   7.938  24.826   7.013
 3264POPC   C4B42898   7.977  24.852   7.480
 3265POPC   NC342899  28.266  30.600   5.170
 3265POPC   PO442900  28.817  30.313   5.474
 3265POPC   GL142901  28.623  30.459   5.863
 3265POPC   GL242902  28.256  30.485   5.775
 3265POPC   C1A42903  28.533  30.601   6.303
 3265POPC   D2A42904  28.495  30.906   6.661
 3265POPC   C3A42905  28.675  30.859   7.079
 3265POPC   C4A42906  28.486  30.644   7.387
 3265POPC   C1B42907  28.024  30.609   6.172
 3265POPC   C2B42908  28.084  30.534   6.626
 3265POPC   C3B42909  28.141  30.762   7.045
 3265POPC   C4B42910  28.056  30.948   7.448
 3266POPC   NC342911   5.178   0.711   5.454
 3266POPC   PO442912   4.953   0.120   5.446
 3266POPC   GL142913   4.943   0.290   5.861
 3266POPC   GL242914   5.032   0.672   5.951
 3266POPC   C1A42915   5.141   0.263   6.251
 3266POPC   D2A42916   5.083   0.498   6.614
 3266POPC   C3A42917   5.193   0.256   6.997
 3266POPC   C4A42918   5.027   0.338   7.415
 3266POPC   C1B42919   5.422   0.690   6.242
 3266POPC   C2B42920   5.569   0.569   6.682
 3266POPC   C3B42921   5.364   0.731   7.072
 3266POPC   C4B42922   5.309   0.784   7.555
 3267POPC   NC342923  36.018  30.980   5.281
 3267POPC   PO442924  36.270  30.378   5.453
 3267POPC   GL142925  36.076  30.616   5.802
 3267POPC   GL242926  35.748  30.755   5.892
 3267POPC   C1A42927  36.143  30.521   6.243
 3267POPC   D2A42928  36.399  30.582   6.624
 3267POPC   C3A42929  36.382  30.967   6.850
 3267POPC   C4A42930  36.190  30.779   7.176
 3267POPC   C1B42931  35.687  30.730   6.346
 3267POPC   C2B42932  35.829  30.754   6.816
 3267POPC   C3B42933  35.670  30.746   7.277
 3267POPC   C4B42934  35.598  30.609   7.738
 3268POPC   NC342935  43.784   7.576   5.376
 3268POPC   PO442936  43.733   6.899   5.294
 3268POPC   GL142937  43.712   7.157   5.753
 3268POPC   GL242938  43.934   7.420   5.826
 3268POPC   C1A42939  43.623   7.326   6.212
 3268POPC   D2A42940  43.464   7.203   6.627
 3268POPC   C3A42941  43.628   7.460   6.952
 3268POPC   C4A42942  43.773   7.462   7.375
 3268POPC   C1B42943  44.103   7.549   6.223
 3268POPC   C2B42944  44.057   7.331   6.616
 3268POPC   C3B42945  44.153   7.485   7.021
 3268POPC   C4B42946  44.308   7.290   7.357
 3269POPC   NC342947   1.642  43.192   5.471
 3269POPC   PO442948   2.281  43.110   5.510
 3269POPC   GL142949   2.053  43.331   5.787
 3269POPC   GL242950   1.918  43.030   5.883
 3269POPC   C1A42951   2.213  43.507   6.151
 3269POPC   D2A42952   2.040  43.565   6.516
 3269POPC   C3A42953   2.011  43.326   6.911
 3269POPC   C4A42954   2.371  43.330   7.218
 3269POPC   C1B42955   1.857  43.139   6.290
 3269POPC   C2B42956   2.026  42.896   6.591
 3269POPC   C3B42957   1.965  42.762   6.987
 3269POPC   C4B42958   1.965  43.025   7.343
 3270POPC   NC342959   7.604  18.805   5.443
 3270POPC   PO442960   7.345  19.407   5.573
 3270POPC   GL142961   7.564  19.125   5.849
 3270POPC   GL242962   7.294  18.856   5.859
 3270POPC   C1A42963   7.805  19.178   6.253
 3270POPC   D2A42964   7.704  19.044   6.659
 3270POPC   C3A42965   7.641  18.990   7.106
 3270POPC   C4A42966   7.836  19.172   7.474
 3270POPC   C1B42967   7.294  19.040   6.283
 3270POPC   C2B42968   7.264  18.795   6.650
 3270POPC   C3B42969   7.187  18.637   7.045
 3270POPC   C4B42970   7.154  18.967   7.301
 3271POPC   NC342971  37.927   9.954   5.521
 3271POPC   PO442972  37.335   9.684   5.328
 3271POPC   GL142973  37.577   9.631   5.726
 3271POPC   GL242974  37.363   9.476   5.968
 3271POPC   C1A42975  37.785   9.729   6.132
 3271POPC   D2A42976  37.573   9.675   6.558
 3271POPC   C3A42977  37.797   9.866   6.898
 3271POPC   C4A42978  37.990   9.941   7.295
 3271POPC   C1B42979  37.216   9.306   6.369
 3271POPC   C2B42980  37.039   9.541   6.694
 3271POPC   C3B42981  37.256   9.839   6.956
 3271POPC   C4B42982  37.507  10.181   7.170
 3272POPC   NC342983  36.297  10.255   5.388
 3272POPC   PO442984  35.866  10.765   5.302
 3272POPC   GL142985  36.120  10.731   5.719
 3272POPC   GL242986  36.239  10.418   5.869
 3272POPC   C1A42987  36.032  10.813   6.162
 3272POPC   D2A42988  36.121  10.603   6.514
 3272POPC   C3A42989  36.076  10.685   6.916
 3272POPC   C4A42990  35.998  10.488   7.293
 3272POPC   C1B42991  36.230  10.171   6.294
 3272POPC   C2B42992  36.178  10.181   6.774
 3272POPC   C3B42993  36.300  10.086   7.195
 3272POPC   C4B42994  36.088  10.008   7.587
 3273POPC   NC342995  15.008  44.200   5.363
 3273POPC   PO442996  15.498  44.794   5.317
 3273POPC   GL142997  15.326  44.842   5.754
 3273POPC   GL242998  15.330  44.479   5.814
 3273POPC   C1A42999  15.113  44.819   6.183
 3273POPC   D2A43000  14.858  44.551   6.486
 3273POPC   C3A43001  14.914  44.705   6.902
 3273POPC   C4A43002  15.151  44.670   7.255
 3273POPC   C1B43003  15.485  44.478   6.242
 3273POPC   C2B43004  15.367  44.635   6.641
 3273POPC   C3B43005  15.533  44.462   6.999
 3273POPC   C4B43006  15.549  44.333   7.383
 3274POPC   NC343007  37.103   5.656   5.389
 3274POPC   PO443008  36.522   5.975   5.254
 3274POPC   GL143009  36.800   5.981   5.672
 3274POPC   GL243010  36.830   5.657   5.824
 3274POPC   C1A43011  36.954   6.073   6.111
 3274POPC   D2A43012  36.819   6.337   6.452
 3274POPC   C3A43013  36.915   6.239   6.879
 3274POPC   C4A43014  36.780   5.994   7.205
 3274POPC   C1B43015  36.685   5.636   6.257
 3274POPC   C2B43016  36.950   5.776   6.621
 3274POPC   C3B43017  36.964   5.546   6.990
 3274POPC   C4B43018  36.685   5.323   7.221
 3275POPC   NC343019  24.916  39.406   5.571
 3275POPC   PO443020  24.337  39.041   5.375
 3275POPC   GL143021  24.412  39.304   5.710
 3275POPC   GL243022  24.658  39.087   5.891
 3275POPC   C1A43023  24.223  39.304   6.100
 3275POPC   D2A43024  24.401  39.008   6.374
 3275POPC   C3A43025  24.476  39.148   6.801
 3275POPC   C4A43026  24.229  38.975   7.108
 3275POPC   C1B43027  24.793  39.330   6.261
 3275POPC   C2B43028  24.937  39.439   6.688
 3275POPC   C3B43029  24.870  39.619   7.107
 3275POPC   C4B43030  24.808  39.555   7.543
 3276POPC   NC343031  26.363  35.639   5.146
 3276POPC   PO443032  26.906  35.524   5.621
 3276POPC   GL143033  26.992  35.656   5.983
 3276POPC   GL243034  27.241  35.889   5.966
 3276POPC   C1A43035  26.882  35.629   6.425
 3276POPC   D2A43036  26.584  35.411   6.717
 3276POPC   C3A43037  26.654  35.445   7.147
 3276POPC   C4A43038  26.802  35.097   7.443
 3276POPC   C1B43039  27.391  35.548   6.271
 3276POPC   C2B43040  27.294  35.431   6.652
 3276POPC   C3B43041  27.344  35.435   7.016
 3276POPC   C4B43042  27.119  35.499   7.315
 3277POPC   NC343043  11.173  27.406   5.204
 3277POPC   PO443044  11.685  27.789   5.504
 3277POPC   GL143045  11.516  27.632   5.872
 3277POPC   GL243046  11.163  27.530   5.792
 3277POPC   C1A43047  11.357  27.607   6.265
 3277POPC   D2A43048  11.299  27.364   6.591
 3277POPC   C3A43049  11.530  27.418   6.927
 3277POPC   C4A43050  11.430  27.558   7.324
 3277POPC   C1B43051  10.915  27.774   6.113
 3277POPC   C2B43052  10.959  27.764   6.569
 3277POPC   C3B43053  11.041  27.597   6.965
 3277POPC   C4B43054  10.873  27.714   7.311
 3278POPC   NC343055  19.962  30.076   5.451
 3278POPC   PO443056  19.782  29.457   5.458
 3278POPC   GL143057  19.890  29.686   5.807
 3278POPC   GL243058  19.572  29.812   5.849
 3278POPC   C1A43059  19.992  29.964   6.168
 3278POPC   D2A43060  20.120  30.166   6.561
 3278POPC   C3A43061  20.057  29.967   6.978
 3278POPC   C4A43062  19.986  29.917   7.396
 3278POPC   C1B43063  19.495  29.974   6.268
 3278POPC   C2B43064  19.675  29.903   6.664
 3278POPC   C3B43065  19.557  29.921   7.113
 3278POPC   C4B43066  19.574  29.659   7.484
 3279POPC   NC343067  11.497  37.711   5.561
 3279POPC   PO443068  10.876  37.511   5.318
 3279POPC   GL143069  11.057  37.488   5.734
 3279POPC   GL243070  11.013  37.859   5.753
 3279POPC   C1A43071  11.258  37.566   6.169
 3279POPC   D2A43072  11.083  37.551   6.583
 3279POPC   C3A43073  11.329  37.601   6.965
 3279POPC   C4A43074  11.236  37.491   7.381
 3279POPC   C1B43075  10.832  37.850   6.176
 3279POPC   C2B43076  10.855  38.056   6.564
 3279POPC   C3B43077  10.965  37.969   6.966
 3279POPC   C4B43078  10.846  37.812   7.356
 3280POPC   NC343079  27.519   1.556   5.363
 3280POPC   PO443080  27.383   2.232   5.235
 3280POPC   GL143081  27.389   2.046   5.688
 3280POPC   GL243082  27.627   1.783   5.800
 3280POPC   C1A43083  27.523   2.136   6.150
 3280POPC   D2A43084  27.741   2.005   6.551
 3280POPC   C3A43085  27.606   2.158   6.961
 3280POPC   C4A43086  27.815   2.191   7.345
 3280POPC   C1B43087  27.496   1.605   6.209
 3280POPC   C2B43088  27.670   1.480   6.617
 3280POPC   C3B43089  27.728   1.660   7.011
 3280POPC   C4B43090  27.421   1.465   7.222
 3281POPC   NC343091  35.616   1.137   5.418
 3281POPC   PO443092  35.177   1.548   5.409
 3281POPC   GL143093  35.276   1.326   5.773
 3281POPC   GL243094  35.197   0.986   5.732
 3281POPC   C1A43095  35.354   1.462   6.185
 3281POPC   D2A43096  35.560   1.523   6.597
 3281POPC   C3A43097  35.376   1.283   6.954
 3281POPC   C4A43098  35.629   0.960   7.155
 3281POPC   C1B43099  35.364   0.959   6.153
 3281POPC   C2B43100  35.284   0.897   6.597
 3281POPC   C3B43101  35.109   0.822   7.007
 3281POPC   C4B43102  35.218   0.793   7.405
 3282POPC   NC343103  26.441  16.833   5.504
 3282POPC   PO443104  27.037  16.980   5.517
 3282POPC   GL143105  26.849  16.768   5.851
 3282POPC   GL243106  26.678  16.457   5.774
 3282POPC   C1A43107  26.952  16.843   6.264
 3282POPC   D2A43108  26.745  16.734   6.608
 3282POPC   C3A43109  26.911  16.848   6.971
 3282POPC   C4A43110  26.727  16.908   7.357
 3282POPC   C1B43111  26.572  16.371   6.207
 3282POPC   C2B43112  26.306  16.476   6.583
 3282POPC   C3B43113  26.452  16.577   7.005
 3282POPC   C4B43114  26.328  16.301   7.299
 3283POPC   NC343115   6.139  30.114   5.661
 3283POPC   PO443116   5.839  29.708   5.134
 3283POPC   GL143117   5.747  29.742   5.727
 3283POPC   GL243118   5.622  30.033   5.890
 3283POPC   C1A43119   5.926  29.685   6.165
 3283POPC   D2A43120   6.041  29.491   6.556
 3283POPC   C3A43121   6.022  29.770   6.898
 3283POPC   C4A43122   5.924  29.637   7.301
 3283POPC   C1B43123   5.557  30.377   6.187
 3283POPC   C2B43124   5.512  30.258   6.620
 3283POPC   C3B43125   5.510  30.333   7.043
 3283POPC   C4B43126   5.830  30.177   7.300
 3284POPC   NC343127   9.525  32.811   5.178
 3284POPC   PO443128   9.815  33.406   5.410
 3284POPC   GL143129   9.621  33.077   5.719
 3284POPC   GL243130   9.856  32.833   5.830
 3284POPC   C1A43131   9.480  32.929   6.165
 3284POPC   D2A43132   9.687  32.907   6.608
 3284POPC   C3A43133   9.534  33.207   6.951
 3284POPC   C4A43134   9.568  33.253   7.432
 3284POPC   C1B43135  10.135  32.838   6.206
 3284POPC   C2B43136  10.198  33.079   6.606
 3284POPC   C3B43137  10.007  33.031   7.017
 3284POPC   C4B43138  10.125  32.734   7.334
 3285POPC   NC343139  25.480  36.786   5.040
 3285POPC   PO443140  25.315  36.510   5.661
 3285POPC   GL143141  25.520  36.305   5.965
 3285POPC   GL243142  25.366  35.975   5.893
 3285POPC   C1A43143  25.530  36.322   6.415
 3285POPC   D2A43144  25.257  36.202   6.750
 3285POPC   C3A43145  25.445  36.247   7.135
 3285POPC   C4A43146  25.492  35.882   7.413
 3285POPC   C1B43147  25.104  36.097   6.252
 3285POPC   C2B43148  24.810  36.011   6.560
 3285POPC   C3B43149  24.771  36.179   6.953
 3285POPC   C4B43150  25.023  36.018   7.279
 3286POPC   NC343151  40.280  29.163   5.592
 3286POPC   PO443152  40.921  29.358   5.673
 3286POPC   GL143153  40.805  29.032   5.936
 3286POPC   GL243154  40.616  28.765   5.785
 3286POPC   C1A43155  40.795  29.183   6.321
 3286POPC   D2A43156  41.029  29.224   6.632
 3286POPC   C3A43157  40.826  29.341   6.927
 3286POPC   C4A43158  40.902  29.320   7.271
 3286POPC   C1B43159  40.415  28.807   6.214
 3286POPC   C2B43160  40.553  28.900   6.662
 3286POPC   C3B43161  40.712  28.852   7.071
 3286POPC   C4B43162  40.470  28.838   7.446
 3287POPC   NC343163  10.660  42.774   5.573
 3287POPC   PO443164  10.265  42.224   5.549
 3287POPC   GL143165  10.588  42.060   5.801
 3287POPC   GL243166  10.831  42.314   5.762
 3287POPC   C1A43167  10.644  42.150   6.223
 3287POPC   D2A43168  10.535  42.356   6.606
 3287POPC   C3A43169  10.633  42.200   7.018
 3287POPC   C4A43170  10.404  42.494   7.286
 3287POPC   C1B43171  10.935  42.616   6.126
 3287POPC   C2B43172  10.981  42.631   6.554
 3287POPC   C3B43173  10.794  42.694   6.955
 3287POPC   C4B43174  10.921  42.599   7.376
 3288POPC   NC343175   3.286  36.596   5.457
 3288POPC   PO443176   3.793  37.093   5.557
 3288POPC   GL143177   3.556  36.921   5.877
 3288POPC   GL243178   3.182  36.939   5.843
 3288POPC   C1A43179   3.741  36.754   6.246
 3288POPC   D2A43180   3.839  36.953   6.632
 3288POPC   C3A43181   3.764  36.863   7.055
 3288POPC   C4A43182   3.840  36.906   7.492
 3288POPC   C1B43183   2.957  37.055   6.264
 3288POPC   C2B43184   3.001  36.996   6.724
 3288POPC   C3B43185   3.259  36.922   7.127
 3288POPC   C4B43186   3.443  36.618   7.401
 3289POPC   NC343187  12.301  12.812   5.421
 3289POPC   PO443188  11.949  13.322   5.263
 3289POPC   GL143189  11.919  13.098   5.706
 3289POPC   GL243190  12.037  12.758   5.896
 3289POPC   C1A43191  12.056  13.191   6.169
 3289POPC   D2A43192  12.108  12.928   6.569
 3289POPC   C3A43193  12.149  13.130   7.003
 3289POPC   C4A43194  12.059  13.053   7.448
 3289POPC   C1B43195  11.791  12.500   6.213
 3289POPC   C2B43196  11.760  12.560   6.662
 3289POPC   C3B43197  11.995  12.640   7.047
 3289POPC   C4B43198  11.724  12.668   7.402
 3290POPC   NC343199   9.723   3.426   5.026
 3290POPC   PO443200   9.745   2.785   5.249
 3290POPC   GL143201   9.763   2.800   5.710
 3290POPC   GL243202   9.536   2.571   5.826
 3290POPC   C1A43203   9.873   2.863   6.167
 3290POPC   D2A43204  10.157   2.980   6.526
 3290POPC   C3A43205  10.040   2.786   6.884
 3290POPC   C4A43206  10.005   2.838   7.312
 3290POPC   C1B43207   9.729   2.327   6.194
 3290POPC   C2B43208   9.733   2.373   6.656
 3290POPC   C3B43209   9.662   2.515   7.067
 3290POPC   C4B43210   9.550   2.960   7.133
 3291POPC   NC343211   9.449  27.420   5.441
 3291POPC   PO443212  10.046  27.810   5.464
 3291POPC   GL143213   9.810  27.830   5.853
 3291POPC   GL243214   9.741  27.462   5.880
 3291POPC   C1A43215   9.927  27.793   6.294
 3291POPC   D2A43216  10.129  27.870   6.699
 3291POPC   C3A43217   9.896  27.853   7.104
 3291POPC   C4A43218   9.544  28.059   7.414
 3291POPC   C1B43219  10.110  27.344   6.134
 3291POPC   C2B43220  10.041  27.342   6.573
 3291POPC   C3B43221  10.163  27.146   6.935
 3291POPC   C4B43222  10.008  27.364   7.254
 3292POPC   NC343223  37.925  15.481   5.405
 3292POPC   PO443224  37.464  15.033   5.258
 3292POPC   GL143225  37.573  15.209   5.672
 3292POPC   GL243226  37.341  14.918   5.773
 3292POPC   C1A43227  37.827  15.307   6.093
 3292POPC   D2A43228  37.694  15.381   6.543
 3292POPC   C3A43229  37.842  15.348   6.975
 3292POPC   C4A43230  37.489  15.250   7.238
 3292POPC   C1B43231  37.761  14.828   5.944
 3292POPC   C2B43232  37.805  14.858   6.384
 3292POPC   C3B43233  37.672  14.874   6.816
 3292POPC   C4B43234  37.735  14.751   7.235
 3293POPC   NC343235  37.797   3.085   5.390
 3293POPC   PO443236  37.702   2.417   5.374
 3293POPC   GL143237  37.908   2.645   5.746
 3293POPC   GL243238  37.754   2.442   6.022
 3293POPC   C1A43239  37.846   2.912   6.153
 3293POPC   D2A43240  37.723   2.697   6.549
 3293POPC   C3A43241  37.762   2.865   6.980
 3293POPC   C4A43242  37.888   2.724   7.412
 3293POPC   C1B43243  37.340   2.482   6.236
 3293POPC   C2B43244  37.122   2.345   6.613
 3293POPC   C3B43245  37.036   2.496   7.031
 3293POPC   C4B43246  37.390   2.616   7.240
 3294POPC   NC343247  43.927  33.180   4.964
 3294POPC   PO443248  43.629  32.872   5.459
 3294POPC   GL143249  43.623  32.981   5.857
 3294POPC   GL243250  43.938  33.094   5.827
 3294POPC   C1A43251  43.663  32.744   6.223
 3294POPC   D2A43252  43.479  32.854   6.597
 3294POPC   C3A43253  43.673  32.854   6.986
 3294POPC   C4A43254  43.984  33.002   7.240
 3294POPC   C1B43255  44.012  33.097   6.265
 3294POPC   C2B43256  44.076  33.072   6.720
 3294POPC   C3B43257  44.251  33.372   7.025
 3294POPC   C4B43258  44.399  33.500   7.444
 3295POPC   NC343259   7.454  13.433   5.307
 3295POPC   PO443260   7.102  13.849   5.638
 3295POPC   GL143261   7.419  13.652   5.863
 3295POPC   GL243262   7.577  13.992   5.940
 3295POPC   C1A43263   7.378  13.384   6.235
 3295POPC   D2A43264   7.155  13.227   6.617
 3295POPC   C3A43265   7.299  13.467   6.974
 3295POPC   C4A43266   7.652  13.542   7.251
 3295POPC   C1B43267   7.789  13.709   6.231
 3295POPC   C2B43268   7.708  13.589   6.635
 3295POPC   C3B43269   7.772  13.908   6.924
 3295POPC   C4B43270   7.600  14.053   7.318
 3296POPC   NC343271  15.950   0.943   5.247
 3296POPC   PO443272  16.307   0.355   5.491
 3296POPC   GL143273  16.204   0.458   5.899
 3296POPC   GL243274  16.092   0.165   6.078
 3296POPC   C1A43275  16.410   0.503   6.267
 3296POPC   D2A43276  16.283   0.442   6.678
 3296POPC   C3A43277  15.981   0.766   6.764
 3296POPC   C4A43278  15.854   0.819   7.165
 3296POPC   C1B43279  15.821   0.413   6.399
 3296POPC   C2B43280  15.684   0.382   6.867
 3296POPC   C3B43281  15.841   0.327   7.279
 3296POPC   C4B43282  16.039   0.103   7.647
 3297POPC   NC343283   3.127  26.251   5.505
 3297POPC   PO443284   3.730  26.031   5.379
 3297POPC   GL143285   3.673  25.796   5.722
 3297POPC   GL243286   3.477  26.054   5.851
 3297POPC   C1A43287   3.804  25.770   6.125
 3297POPC   D2A43288   3.654  26.089   6.415
 3297POPC   C3A43289   3.472  26.008   6.799
 3297POPC   C4A43290   3.721  25.985   7.173
 3297POPC   C1B43291   3.296  26.360   6.149
 3297POPC   C2B43292   3.063  26.222   6.498
 3297POPC   C3B43293   3.056  26.371   6.892
 3297POPC   C4B43294   3.396  26.474   7.159
 3298POPC   NC343295  29.767   6.071   5.455
 3298POPC   PO443296  30.171   5.651   5.302
 3298POPC   GL143297  30.010   5.714   5.761
 3298POPC   GL243298  29.671   5.805   5.871
 3298POPC   C1A43299  30.033   6.044   6.126
 3298POPC   D2A43300  30.259   5.972   6.513
 3298POPC   C3A43301  30.084   5.907   6.909
 3298POPC   C4A43302  29.893   5.628   7.161
 3298POPC   C1B43303  29.801   5.619   6.278
 3298POPC   C2B43304  29.664   5.715   6.691
 3298POPC   C3B43305  29.605   6.076   6.940
 3298POPC   C4B43306  29.642   6.157   7.352
 3299POPC   NC343307   9.834  31.080   5.500
 3299POPC   PO443308   9.505  30.442   5.303
 3299POPC   GL143309   9.548  30.667   5.714
 3299POPC   GL243310   9.364  30.381   5.812
 3299POPC   C1A43311   9.630  30.895   6.165
 3299POPC   D2A43312   9.880  30.924   6.609
 3299POPC   C3A43313   9.648  30.957   7.052
 3299POPC   C4A43314   9.631  30.913   7.546
 3299POPC   C1B43315   9.671  30.385   6.130
 3299POPC   C2B43316   9.578  30.499   6.531
 3299POPC   C3B43317   9.575  30.437   6.944
 3299POPC   C4B43318   9.817  30.509   7.297
 3300POPC   NC343319  25.730  10.164   5.346
 3300POPC   PO443320  25.938  10.835   5.317
 3300POPC   GL143321  26.023  10.605   5.696
 3300POPC   GL243322  26.159  10.855   5.907
 3300POPC   C1A43323  25.832  10.504   6.091
 3300POPC   D2A43324  25.904  10.672   6.495
 3300POPC   C3A43325  26.181  10.501   6.800
 3300POPC   C4A43326  26.034  10.624   7.188
 3300POPC   C1B43327  26.373  10.945   6.301
 3300POPC   C2B43328  26.286  11.023   6.761
 3300POPC   C3B43329  26.461  10.896   7.161
 3300POPC   C4B43330  26.331  10.814   7.608
 3301POPC   NC343331  43.349   9.239   5.063
 3301POPC   PO443332  43.735   8.835   5.532
 3301POPC   GL143333  43.679   8.927   5.982
 3301POPC   GL243334  44.024   8.874   6.089
 3301POPC   C1A43335  43.667   8.904   6.450
 3301POPC   D2A43336  44.052   8.799   6.651
 3301POPC   C3A43337  44.103   9.030   7.018
 3301POPC   C4A43338  43.733   9.150   7.211
 3301POPC   C1B43339  43.938   9.297   6.279
 3301POPC   C2B43340  43.867   9.395   6.720
 3301POPC   C3B43341  43.987   9.582   7.108
 3301POPC   C4B43342  44.093   9.376   7.518
 3302POPC   NC343343  44.308   3.825   5.595
 3302POPC   PO443344  44.610   4.462   5.451
 3302POPC   GL143345  44.875   4.548   5.814
 3302POPC   GL243346  44.684   4.226   5.927
 3302POPC   C1A43347  44.939   4.522   6.250
 3302POPC   D2A43348  44.919   4.229   6.579
 3302POPC   C3A43349  44.971   4.390   6.980
 3302POPC   C4A43350  44.884   4.063   7.271
 3302POPC   C1B43351  44.481   4.206   6.320
 3302POPC   C2B43352  44.439   4.386   6.759
 3302POPC   C3B43353  44.533   4.499   7.219
 3302POPC   C4B43354  44.373   4.656   7.656
 3303POPC   NC343355  31.725  14.708   5.409
 3303POPC   PO443356  31.296  14.269   5.514
 3303POPC   GL143357  31.359  14.457   5.895
 3303POPC   GL243358  31.725  14.514   5.874
 3303POPC   C1A43359  31.113  14.470   6.280
 3303POPC   D2A43360  30.963  14.184   6.579
 3303POPC   C3A43361  31.174  14.182   6.985
 3303POPC   C4A43362  31.573  14.019   7.152
 3303POPC   C1B43363  31.700  14.331   6.269
 3303POPC   C2B43364  31.513  14.338   6.640
 3303POPC   C3B43365  31.586  14.531   7.034
 3303POPC   C4B43366  31.741  14.677   7.416
 3304POPC   NC343367   5.554  33.257   5.409
 3304POPC   PO443368   6.218  32.947   5.317
 3304POPC   GL143369   6.017  32.985   5.716
 3304POPC   GL243370   6.136  33.324   5.792
 3304POPC   C1A43371   5.801  32.765   6.084
 3304POPC   D2A43372   5.576  32.897   6.465
 3304POPC   C3A43373   5.726  32.838   6.900
 3304POPC   C4A43374   5.681  32.807   7.353
 3304POPC   C1B43375   6.101  33.174   6.231
 3304POPC   C2B43376   5.822  33.337   6.583
 3304POPC   C3B43377   5.611  33.389   6.969
 3304POPC   C4B43378   5.904  33.248   7.250
 3305POPC   NC343379  22.028  37.297   5.437
 3305POPC   PO443380  22.219  36.656   5.464
 3305POPC   GL143381  22.164  36.962   5.822
 3305POPC   GL243382  21.838  37.163   5.894
 3305POPC   C1A43383  22.247  36.863   6.269
 3305POPC   D2A43384  22.554  36.860   6.618
 3305POPC   C3A43385  22.444  36.968   7.048
 3305POPC   C4A43386  22.134  36.663   7.200
 3305POPC   C1B43387  22.022  37.331   6.274
 3305POPC   C2B43388  22.156  37.217   6.669
 3305POPC   C3B43389  22.038  37.277   7.084
 3305POPC   C4B43390  22.375  37.443   7.281
 3306POPC   NC343391  40.192  31.998   5.457
 3306POPC   PO443392  39.763  32.386   5.454
 3306POPC   GL143393  40.029  32.305   5.835
 3306POPC   GL243394  40.367  32.027   5.913
 3306POPC   C1A43395  39.829  32.309   6.221
 3306POPC   D2A43396  39.897  32.018   6.547
 3306POPC   C3A43397  39.799  32.243   6.895
 3306POPC   C4A43398  39.891  32.077   7.274
 3306POPC   C1B43399  40.345  32.252   6.251
 3306POPC   C2B43400  40.186  32.447   6.570
 3306POPC   C3B43401  40.283  32.305   6.952
 3306POPC   C4B43402  40.299  32.395   7.348
 3307POPC   NC343403  39.405  43.521   5.539
 3307POPC   PO443404  38.959  44.042   5.442
 3307POPC   GL143405  39.134  43.916   5.814
 3307POPC   GL243406  38.986  43.597   5.854
 3307POPC   C1A43407  39.093  43.932   6.271
 3307POPC   D2A43408  38.978  43.742   6.653
 3307POPC   C3A43409  39.005  44.019   6.979
 3307POPC   C4A43410  39.249  43.976   7.359
 3307POPC   C1B43411  39.089  43.400   6.264
 3307POPC   C2B43412  39.423  43.491   6.573
 3307POPC   C3B43413  39.406  43.630   7.009
 3307POPC   C4B43414  39.293  43.427   7.405
 3308POPC   NC343415  10.718   3.760   5.468
 3308POPC   PO443416  10.087   3.402   5.303
 3308POPC   GL143417  10.178   3.391   5.724
 3308POPC   GL243418  10.520   3.461   5.820
 3308POPC   C1A43419  10.146   3.331   6.162
 3308POPC   D2A43420  10.045   3.564   6.554
 3308POPC   C3A43421  10.325   3.815   6.816
 3308POPC   C4A43422  10.501   3.527   7.125
 3308POPC   C1B43423  10.529   3.669   6.226
 3308POPC   C2B43424  10.662   3.492   6.609
 3308POPC   C3B43425  10.926   3.309   6.909
 3308POPC   C4B43426  10.952   3.346   7.322
 3309POPC   NC343427  39.409  16.503   5.045
 3309POPC   PO443428  38.841  16.761   5.357
 3309POPC   GL143429  39.019  16.726   5.756
 3309POPC   GL243430  39.344  16.806   5.769
 3309POPC   C1A43431  38.952  16.816   6.203
 3309POPC   D2A43432  39.066  16.648   6.604
 3309POPC   C3A43433  39.097  16.917   6.982
 3309POPC   C4A43434  39.149  16.706   7.388
 3309POPC   C1B43435  39.475  16.774   6.217
 3309POPC   C2B43436  39.509  16.900   6.667
 3309POPC   C3B43437  39.585  16.614   7.033
 3309POPC   C4B43438  39.597  16.607   7.557
 3310POPC   NC343439  26.159  27.499   5.475
 3310POPC   PO443440  26.029  28.221   5.539
 3310POPC   GL143441  25.967  27.829   5.847
 3310POPC   GL243442  26.011  27.431   5.953
 3310POPC   C1A43443  25.966  27.778   6.294
 3310POPC   D2A43444  26.109  27.560   6.645
 3310POPC   C3A43445  25.936  27.711   7.012
 3310POPC   C4A43446  26.244  27.761   7.300
 3310POPC   C1B43447  25.647  27.379   6.252
 3310POPC   C2B43448  25.555  27.436   6.680
 3310POPC   C3B43449  25.591  27.307   7.085
 3310POPC   C4B43450  25.959  27.290   7.325
 3311POPC   NC343451  44.033  39.659   5.351
 3311POPC   PO443452  43.920  40.351   5.185
 3311POPC   GL143453  44.058  40.093   5.639
 3311POPC   GL243454  43.993  40.283   5.969
 3311POPC   C1A43455  44.171  39.829   6.061
 3311POPC   D2A43456  44.276  39.868   6.531
 3311POPC   C3A43457  44.139  39.681   6.950
 3311POPC   C4A43458  43.822  39.795   7.242
 3311POPC   C1B43459  43.876  40.176   6.373
 3311POPC   C2B43460  43.758  40.008   6.753
 3311POPC   C3B43461  43.626  40.252   7.118
 3311POPC   C4B43462  43.845  40.497   7.427
 3312POPC   NC343463  11.713  27.289   5.541
 3312POPC   PO443464  12.367  27.479   5.292
 3312POPC   GL143465  12.210  27.561   5.709
 3312POPC   GL243466  12.404  27.861   5.696
 3312POPC   C1A43467  12.026  27.690   6.115
 3312POPC   D2A43468  11.806  27.601   6.494
 3312POPC   C3A43469  12.011  27.564   6.875
 3312POPC   C4A43470  11.933  27.400   7.265
 3312POPC   C1B43471  12.502  27.886   6.123
 3312POPC   C2B43472  12.346  27.765   6.522
 3312POPC   C3B43473  12.355  27.933   6.921
 3312POPC   C4B43474  12.520  27.860   7.281
 3313POPC   NC343475  30.440  34.988   5.433
 3313POPC   PO443476  30.579  35.693   5.435
 3313POPC   GL143477  30.765  35.531   5.794
 3313POPC   GL243478  30.819  35.188   5.726
 3313POPC   C1A43479  30.639  35.575   6.229
 3313POPC   D2A43480  30.820  35.757   6.606
 3313POPC   C3A43481  30.725  35.518   6.960
 3313POPC   C4A43482  30.356  35.488   7.160
 3313POPC   C1B43483  30.735  35.073   6.098
 3313POPC   C2B43484  30.782  35.137   6.522
 3313POPC   C3B43485  30.882  35.046   6.921
 3313POPC   C4B43486  30.670  35.086   7.287
 3314POPC   NC343487  20.305  34.239   5.064
 3314POPC   PO443488  20.147  33.601   5.341
 3314POPC   GL143489  19.900  33.787   5.681
 3314POPC   GL243490  20.168  33.663   5.874
 3314POPC   C1A43491  19.708  33.866   6.121
 3314POPC   D2A43492  19.776  33.790   6.588
 3314POPC   C3A43493  19.632  33.996   6.990
 3314POPC   C4A43494  19.858  34.253   7.319
 3314POPC   C1B43495  20.053  33.500   6.245
 3314POPC   C2B43496  20.226  33.516   6.634
 3314POPC   C3B43497  19.991  33.520   6.967
 3314POPC   C4B43498  19.943  33.703   7.321
 3315POPC   NC343499  19.396  17.655   5.430
 3315POPC   PO443500  18.902  17.228   5.322
 3315POPC   GL143501  19.149  17.328   5.734
 3315POPC   GL243502  18.871  17.543   5.750
 3315POPC   C1A43503  19.333  17.515   6.197
 3315POPC   D2A43504  19.472  17.471   6.682
 3315POPC   C3A43505  19.367  17.766   7.011
 3315POPC   C4A43506  19.060  17.649   7.338
 3315POPC   C1B43507  18.866  17.322   6.156
 3315POPC   C2B43508  18.944  17.477   6.586
 3315POPC   C3B43509  19.028  17.312   6.964
 3315POPC   C4B43510  18.780  17.176   7.299
 3316POPC   NC343511  13.833   3.237   5.477
 3316POPC   PO443512  13.397   3.716   5.410
 3316POPC   GL143513  13.747   3.731   5.794
 3316POPC   GL243514  13.889   3.425   5.923
 3316POPC   C1A43515  13.940   3.773   6.268
 3316POPC   D2A43516  13.849   3.925   6.699
 3316POPC   C3A43517  13.450   3.794   6.918
 3316POPC   C4A43518  13.439   3.944   7.313
 3316POPC   C1B43519  13.797   3.213   6.282
 3316POPC   C2B43520  13.896   3.131   6.708
 3316POPC   C3B43521  13.706   3.340   7.069
 3316POPC   C4B43522  13.773   3.560   7.450
 3317POPC   NC343523  44.926  13.938   5.464
 3317POPC   PO443524  44.385  14.302   5.522
 3317POPC   GL143525  44.639  14.369   5.948
 3317POPC   GL243526  44.882  14.643   5.864
 3317POPC   C1A43527  44.596  14.377   6.447
 3317POPC   D2A43528  44.294  14.364   6.826
 3317POPC   C3A43529  44.505  14.145   7.150
 3317POPC   C4A43530  44.387  13.838   7.447
 3317POPC   C1B43531  44.979  14.833   6.270
 3317POPC   C2B43532  44.902  14.842   6.707
 3317POPC   C3B43533  44.751  14.553   6.946
 3317POPC   C4B43534  44.746  14.543   7.376
 3318POPC   NC343535  14.000  15.532   5.271
 3318POPC   PO443536  13.497  15.811   5.460
 3318POPC   GL143537  13.678  15.861   5.872
 3318POPC   GL243538  13.776  15.531   5.831
 3318POPC   C1A43539  13.539  15.774   6.324
 3318POPC   D2A43540  13.344  15.663   6.729
 3318POPC   C3A43541  13.422  15.825   7.165
 3318POPC   C4A43542  13.100  15.931   7.475
 3318POPC   C1B43543  14.014  15.614   6.202
 3318POPC   C2B43544  14.058  15.797   6.611
 3318POPC   C3B43545  13.905  15.701   7.042
 3318POPC   C4B43546  13.969  15.660   7.515
 3319POPC   NC343547  34.746  32.169   5.449
 3319POPC   PO443548  34.072  32.068   5.475
 3319POPC   GL143549  34.306  32.152   5.871
 3319POPC   GL243550  34.665  32.030   5.942
 3319POPC   C1A43551  34.359  32.140   6.347
 3319POPC   D2A43552  34.192  32.456   6.644
 3319POPC   C3A43553  34.511  32.542   6.936
 3319POPC   C4A43554  34.647  32.270   7.169
 3319POPC   C1B43555  34.820  32.358   6.299
 3319POPC   C2B43556  34.991  32.337   6.758
 3319POPC   C3B43557  35.092  32.519   7.191
 3319POPC   C4B43558  35.119  32.541   7.666
 3320POPC   NC343559  31.351  18.994   5.299
 3320POPC   PO443560  30.653  19.019   5.440
 3320POPC   GL143561  30.564  19.201   5.835
 3320POPC   GL243562  30.900  19.131   5.938
 3320POPC   C1A43563  30.621  19.384   6.253
 3320POPC   D2A43564  30.908  19.293   6.582
 3320POPC   C3A43565  30.804  19.150   6.986
 3320POPC   C4A43566  30.782  19.313   7.451
 3320POPC   C1B43567  30.931  18.880   6.272
 3320POPC   C2B43568  30.700  18.760   6.613
 3320POPC   C3B43569  30.820  18.593   6.989
 3320POPC   C4B43570  30.791  18.810   7.367
 3321POPC   NC343571  39.777  40.994   5.148
 3321POPC   PO443572  40.365  40.751   5.391
 3321POPC   GL143573  40.132  41.001   5.728
 3321POPC   GL243574  39.746  41.013   5.726
 3321POPC   C1A43575  40.274  41.030   6.168
 3321POPC   D2A43576  40.242  40.870   6.590
 3321POPC   C3A43577  40.476  40.853   6.979
 3321POPC   C4A43578  40.360  40.586   7.312
 3321POPC   C1B43579  39.818  40.801   6.151
 3321POPC   C2B43580  39.697  40.693   6.595
 3321POPC   C3B43581  39.924  40.743   6.996
 3321POPC   C4B43582  39.871  40.714   7.429
 3322POPC   NC343583  44.918   7.238   5.634
 3322POPC   PO443584  44.245   7.421   5.407
 3322POPC   GL143585  44.434   7.369   5.850
 3322POPC   GL243586  44.701   7.584   5.969
 3322POPC   C1A43587  44.509   7.196   6.276
 3322POPC   D2A43588  44.831   7.163   6.596
 3322POPC   C3A43589  44.645   7.272   6.958
 3322POPC   C4A43590  44.808   7.195   7.384
 3322POPC   C1B43591  44.976   7.572   6.300
 3322POPC   C2B43592  44.952   7.696   6.704
 3322POPC   C3B43593   0.003   7.581   7.102
 3322POPC   C4B43594  44.583   7.696   7.229
 3323POPC   NC343595  31.921   5.251   5.532
 3323POPC   PO443596  32.299   4.663   5.455
 3323POPC   GL143597  32.439   4.860   5.821
 3323POPC   GL243598  32.341   5.212   5.843
 3323POPC   C1A43599  32.533   4.955   6.235
 3323POPC   D2A43600  32.282   4.948   6.585
 3323POPC   C3A43601  32.452   4.870   6.959
 3323POPC   C4A43602  32.402   5.076   7.329
 3323POPC   C1B43603  32.017   5.093   6.177
 3323POPC   C2B43604  31.910   5.309   6.575
 3323POPC   C3B43605  31.943   5.073   6.950
 3323POPC   C4B43606  31.905   5.153   7.363
 3324POPC   NC343607  23.904  35.056   5.278
 3324POPC   PO443608  23.552  35.621   5.257
 3324POPC   GL143609  23.443  35.554   5.712
 3324POPC   GL243610  23.743  35.342   5.722
 3324POPC   C1A43611  23.377  35.288   6.115
 3324POPC   D2A43612  23.639  35.261   6.520
 3324POPC   C3A43613  23.437  35.267   6.891
 3324POPC   C4A43614  23.344  35.308   7.279
 3324POPC   C1B43615  23.818  35.542   6.128
 3324POPC   C2B43616  24.063  35.551   6.501
 3324POPC   C3B43617  23.856  35.575   6.896
 3324POPC   C4B43618  23.755  35.679   7.308
 3325POPC   NC343619  37.093  33.447   5.444
 3325POPC   PO443620  36.803  32.759   5.325
 3325POPC   GL143621  36.971  33.025   5.699
 3325POPC   GL243622  36.692  33.246   5.748
 3325POPC   C1A43623  37.181  33.100   6.126
 3325POPC   D2A43624  37.053  33.042   6.549
 3325POPC   C3A43625  37.309  32.972   6.913
 3325POPC   C4A43626  37.345  33.348   7.150
 3325POPC   C1B43627  36.764  33.408   6.168
 3325POPC   C2B43628  36.741  33.464   6.595
 3325POPC   C3B43629  36.835  33.280   6.988
 3325POPC   C4B43630  36.731  33.437   7.358
 3326POPC   NC343631  25.050  37.698   5.451
 3326POPC   PO443632  25.538  38.112   5.388
 3326POPC   GL143633  25.402  37.949   5.780
 3326POPC   GL243634  25.430  37.608   5.809
 3326POPC   C1A43635  25.530  37.899   6.227
 3326POPC   D2A43636  25.662  37.655   6.583
 3326POPC   C3A43637  25.377  37.840   6.893
 3326POPC   C4A43638  25.300  37.864   7.328
 3326POPC   C1B43639  25.081  37.655   6.125
 3326POPC   C2B43640  25.024  37.555   6.571
 3326POPC   C3B43641  25.029  37.340   6.988
 3326POPC   C4B43642  24.878  37.565   7.323
 3327POPC   NC343643  13.800  11.144   5.500
 3327POPC   PO443644  13.351  11.412   5.048
 3327POPC   GL143645  13.339  11.366   5.562
 3327POPC   GL243646  13.373  11.081   5.802
 3327POPC   C1A43647  13.406  11.519   6.052
 3327POPC   D2A43648  13.684  11.579   6.448
 3327POPC   C3A43649  13.670  11.640   6.918
 3327POPC   C4A43650  13.587  11.401   7.309
 3327POPC   C1B43651  13.549  11.068   6.264
 3327POPC   C2B43652  13.545  10.978   6.750
 3327POPC   C3B43653  13.277  11.010   7.163
 3327POPC   C4B43654  13.132  11.267   7.544
 3328POPC   NC343655   2.893  16.215   5.427
 3328POPC   PO443656   2.523  15.606   5.454
 3328POPC   GL143657   2.557  15.903   5.798
 3328POPC   GL243658   2.909  15.929   5.869
 3328POPC   C1A43659   2.581  15.884   6.275
 3328POPC   D2A43660   2.423  15.786   6.699
 3328POPC   C3A43661   2.611  15.981   7.078
 3328POPC   C4A43662   2.725  16.140   7.465
 3328POPC   C1B43663   3.103  15.976   6.275
 3328POPC   C2B43664   2.943  15.962   6.675
 3328POPC   C3B43665   3.119  16.047   7.071
 3328POPC   C4B43666   3.154  15.869   7.461
 3329POPC   NC343667  36.102  15.088   5.308
 3329POPC   PO443668  35.524  15.424   5.421
 3329POPC   GL143669  35.862  15.237   5.745
 3329POPC   GL243670  35.999  15.540   5.861
 3329POPC   C1A43671  35.912  14.964   6.161
 3329POPC   D2A43672  36.138  14.993   6.611
 3329POPC   C3A43673  36.049  14.755   7.035
 3329POPC   C4A43674  35.933  14.737   7.502
 3329POPC   C1B43675  36.241  15.356   6.216
 3329POPC   C2B43676  36.564  15.272   6.547
 3329POPC   C3B43677  36.523  15.353   7.004
 3329POPC   C4B43678  36.172  15.546   7.221
 3330POPC   NC343679  25.855  23.395   5.323
 3330POPC   PO443680  26.459  23.135   5.486
 3330POPC   GL143681  26.227  23.206   5.834
 3330POPC   GL243682  25.886  23.110   5.784
 3330POPC   C1A43683  26.161  23.094   6.250
 3330POPC   D2A43684  26.002  22.835   6.578
 3330POPC   C3A43685  26.112  22.987   6.969
 3330POPC   C4A43686  26.112  23.335   7.210
 3330POPC   C1B43687  25.670  22.927   6.164
 3330POPC   C2B43688  25.514  23.042   6.562
 3330POPC   C3B43689  25.600  22.899   6.977
 3330POPC   C4B43690  25.698  23.101   7.367
 3331POPC   NC343691  15.094  14.647   5.306
 3331POPC   PO443692  15.008  14.015   5.336
 3331POPC   GL143693  14.905  14.294   5.745
 3331POPC   GL243694  15.136  14.586   5.802
 3331POPC   C1A43695  14.826  14.549   6.190
 3331POPC   D2A43696  14.906  14.755   6.614
 3331POPC   C3A43697  14.910  14.395   6.906
 3331POPC   C4A43698  15.180  14.061   7.006
 3331POPC   C1B43699  15.284  14.256   6.096
 3331POPC   C2B43700  15.374  14.167   6.533
 3331POPC   C3B43701  15.434  14.485   6.840
 3331POPC   C4B43702  15.298  14.572   7.239
 3332POPC   NC343703  27.699  39.934   5.461
 3332POPC   PO443704  27.324  40.471   5.442
 3332POPC   GL143705  27.410  40.155   5.833
 3332POPC   GL243706  27.657  39.849   5.938
 3332POPC   C1A43707  27.514  40.168   6.285
 3332POPC   D2A43708  27.309  40.100   6.639
 3332POPC   C3A43709  27.519  40.176   6.999
 3332POPC   C4A43710  27.593  39.898   7.324
 3332POPC   C1B43711  27.705  39.656   6.319
 3332POPC   C2B43712  27.672  39.761   6.715
 3332POPC   C3B43713  27.593  39.493   7.032
 3332POPC   C4B43714  27.950  39.469   7.284
 3333POPC   NC343715  41.594  25.384   5.490
 3333POPC   PO443716  42.222  24.968   5.497
 3333POPC   GL143717  41.851  25.059   5.799
 3333POPC   GL243718  41.501  25.012   5.870
 3333POPC   C1A43719  41.808  25.337   6.157
 3333POPC   D2A43720  41.757  25.241   6.589
 3333POPC   C3A43721  41.817  25.527   6.935
 3333POPC   C4A43722  41.719  25.429   7.364
 3333POPC   C1B43723  41.328  25.179   6.254
 3333POPC   C2B43724  41.273  25.296   6.681
 3333POPC   C3B43725  41.394  25.120   7.106
 3333POPC   C4B43726  41.150  25.192   7.526
 3334POPC   NC343727  28.680   7.368   5.346
 3334POPC   PO443728  29.354   7.108   5.398
 3334POPC   GL143729  29.440   7.263   5.812
 3334POPC   GL243730  29.084   7.414   5.747
 3334POPC   C1A43731  29.577   7.249   6.257
 3334POPC   D2A43732  29.719   7.623   6.483
 3334POPC   C3A43733  29.499   7.745   6.867
 3334POPC   C4A43734  29.601   7.817   7.262
 3334POPC   C1B43735  29.214   7.587   6.126
 3334POPC   C2B43736  29.196   7.479   6.546
 3334POPC   C3B43737  29.151   7.376   6.965
 3334POPC   C4B43738  29.123   7.618   7.282
 3335POPC   NC343739  23.475  13.348   5.576
 3335POPC   PO443740  23.981  13.778   5.356
 3335POPC   GL143741  23.732  13.847   5.760
 3335POPC   GL243742  23.711  13.568   6.004
 3335POPC   C1A43743  23.438  13.982   6.101
 3335POPC   D2A43744  23.372  13.720   6.471
 3335POPC   C3A43745  23.555  13.874   6.877
 3335POPC   C4A43746  23.616  14.034   7.315
 3335POPC   C1B43747  23.776  13.266   6.349
 3335POPC   C2B43748  24.045  13.182   6.685
 3335POPC   C3B43749  24.130  13.472   6.986
 3335POPC   C4B43750  23.772  13.550   7.193
 3336POPC   NC343751  35.504   7.222   5.338
 3336POPC   PO443752  34.933   7.313   5.269
 3336POPC   GL143753  35.132   7.158   5.704
 3336POPC   GL243754  35.424   7.394   5.832
 3336POPC   C1A43755  35.222   7.031   6.168
 3336POPC   D2A43756  35.468   7.120   6.585
 3336POPC   C3A43757  35.254   7.179   7.024
 3336POPC   C4A43758  35.034   7.564   7.196
 3336POPC   C1B43759  35.682   7.716   6.110
 3336POPC   C2B43760  35.614   7.821   6.565
 3336POPC   C3B43761  35.548   7.661   6.993
 3336POPC   C4B43762  35.837   7.863   7.260
 3337POPC   NC343763   5.814  41.867   5.388
 3337POPC   PO443764   6.007  41.237   5.233
 3337POPC   GL143765   5.878  41.384   5.659
 3337POPC   GL243766   6.044  41.641   5.793
 3337POPC   C1A43767   5.759  41.372   6.104
 3337POPC   D2A43768   5.899  41.185   6.501
 3337POPC   C3A43769   5.836  41.460   6.860
 3337POPC   C4A43770   5.574  41.821   7.016
 3337POPC   C1B43771   6.251  41.405   6.175
 3337POPC   C2B43772   6.358  41.375   6.632
 3337POPC   C3B43773   6.300  41.594   7.037
 3337POPC   C4B43774   5.967  41.688   7.311
 3338POPC   NC343775  10.963   2.897   5.381
 3338POPC   PO443776  11.515   2.537   5.381
 3338POPC   GL143777  11.275   2.688   5.734
 3338POPC   GL243778  11.272   3.040   5.750
 3338POPC   C1A43779  11.064   2.744   6.131
 3338POPC   D2A43780  11.179   2.885   6.514
 3338POPC   C3A43781  11.042   2.782   6.914
 3338POPC   C4A43782  11.255   2.654   7.265
 3338POPC   C1B43783  11.460   3.142   6.113
 3338POPC   C2B43784  11.624   3.141   6.507
 3338POPC   C3B43785  11.419   3.153   6.879
 3338POPC   C4B43786  11.422   3.154   7.290
 3339POPC   NC343787  42.690  29.679   5.389
 3339POPC   PO443788  42.171  30.135   5.387
 3339POPC   GL143789  42.312  29.775   5.732
 3339POPC   GL243790  42.636  29.555   5.856
 3339POPC   C1A43791  42.171  29.543   6.104
 3339POPC   D2A43792  42.208  29.692   6.530
 3339POPC   C3A43793  41.997  29.651   6.956
 3339POPC   C4A43794  41.977  29.819   7.402
 3339POPC   C1B43795  42.614  29.813   6.176
 3339POPC   C2B43796  42.739  29.810   6.557
 3339POPC   C3B43797  42.522  29.832   6.907
 3339POPC   C4B43798  42.581  29.935   7.273
 3340POPC   NC343799  19.564  32.262   5.235
 3340POPC   PO443800  20.204  32.007   5.291
 3340POPC   GL143801  19.946  32.117   5.667
 3340POPC   GL243802  19.654  32.363   5.723
 3340POPC   C1A43803  19.940  32.103   6.126
 3340POPC   D2A43804  20.055  31.990   6.538
 3340POPC   C3A43805  20.005  32.163   6.936
 3340POPC   C4A43806  19.842  31.998   7.324
 3340POPC   C1B43807  19.457  32.323   6.133
 3340POPC   C2B43808  19.579  32.188   6.539
 3340POPC   C3B43809  19.488  32.204   6.968
 3340POPC   C4B43810  19.590  32.427   7.348
 3341POPC   NC343811  17.319   5.637   5.513
 3341POPC   PO443812  17.678   6.182   5.328
 3341POPC   GL143813  17.582   6.015   5.740
 3341POPC   GL243814  17.279   6.020   5.849
 3341POPC   C1A43815  17.584   5.710   6.122
 3341POPC   D2A43816  17.707   5.846   6.522
 3341POPC   C3A43817  17.643   5.669   6.918
 3341POPC   C4A43818  17.630   5.856   7.276
 3341POPC   C1B43819  17.135   5.967   6.249
 3341POPC   C2B43820  17.209   5.754   6.651
 3341POPC   C3B43821  17.159   5.842   7.113
 3341POPC   C4B43822  17.169   5.740   7.568
 3342POPC   NC343823  43.588   3.861   5.172
 3342POPC   PO443824  44.110   3.484   5.322
 3342POPC   GL143825  43.787   3.504   5.680
 3342POPC   GL243826  43.890   3.783   5.886
 3342POPC   C1A43827  43.745   3.409   6.176
 3342POPC   D2A43828  43.808   3.570   6.610
 3342POPC   C3A43829  43.750   3.423   7.063
 3342POPC   C4A43830  44.141   3.470   7.254
 3342POPC   C1B43831  43.827   4.001   6.249
 3342POPC   C2B43832  44.041   4.046   6.617
 3342POPC   C3B43833  43.876   3.914   6.987
 3342POPC   C4B43834  43.860   3.884   7.385
 3343POPC   NC343835  13.073  10.754   5.506
 3343POPC   PO443836  12.605  10.326   5.468
 3343POPC   GL143837  12.834  10.426   5.827
 3343POPC   GL243838  12.638  10.698   5.896
 3343POPC   C1A43839  12.950  10.492   6.255
 3343POPC   D2A43840  12.899  10.153   6.543
 3343POPC   C3A43841  12.900  10.299   6.967
 3343POPC   C4A43842  13.229  10.180   7.246
 3343POPC   C1B43843  12.568  10.843   6.294
 3343POPC   C2B43844  12.780  10.828   6.667
 3343POPC   C3B43845  12.647  10.789   7.081
 3343POPC   C4B43846  12.866  10.835   7.457
 3344POPC   NC343847  41.829  18.390   5.444
 3344POPC   PO443848  41.199  18.106   5.507
 3344POPC   GL143849  41.526  18.165   5.799
 3344POPC   GL243850  41.626  18.503   5.898
 3344POPC   C1A43851  41.610  18.023   6.203
 3344POPC   D2A43852  41.510  17.824   6.599
 3344POPC   C3A43853  41.807  18.012   6.860
 3344POPC   C4A43854  41.717  18.330   7.155
 3344POPC   C1B43855  41.398  18.497   6.285
 3344POPC   C2B43856  41.463  18.446   6.722
 3344POPC   C3B43857  41.301  18.622   7.107
 3344POPC   C4B43858  41.055  18.578   7.443
 3345POPC   NC343859  12.406  36.440   5.364
 3345POPC   PO443860  12.831  35.886   5.383
 3345POPC   GL143861  12.632  36.044   5.744
 3345POPC   GL243862  12.895  36.297   5.780
 3345POPC   C1A43863  12.583  36.205   6.188
 3345POPC   D2A43864  12.840  36.308   6.564
 3345POPC   C3A43865  12.604  36.251   6.930
 3345POPC   C4A43866  12.512  36.451   7.290
 3345POPC   C1B43867  13.096  36.081   6.144
 3345POPC   C2B43868  13.322  36.084   6.535
 3345POPC   C3B43869  13.135  36.030   6.911
 3345POPC   C4B43870  13.104  36.022   7.350
 3346POPC   NC343871  14.051  37.090   5.451
 3346POPC   PO443872  13.478  37.292   5.486
 3346POPC   GL143873  13.647  36.985   5.847
 3346POPC   GL243874  13.471  36.672   5.985
 3346POPC   C1A43875  13.704  37.052   6.289
 3346POPC   D2A43876  13.679  37.254   6.719
 3346POPC   C3A43877  13.671  36.941   7.073
 3346POPC   C4A43878  13.948  36.574   7.147
 3346POPC   C1B43879  13.831  36.538   6.239
 3346POPC   C2B43880  13.786  36.648   6.660
 3346POPC   C3B43881  13.382  36.517   6.849
 3346POPC   C4B43882  13.017  36.489   7.113
 3347POPC   NC343883  40.989  22.381   5.516
 3347POPC   PO443884  41.418  21.960   5.128
 3347POPC   GL143885  41.421  21.914   5.668
 3347POPC   GL243886  41.450  22.221   5.926
 3347POPC   C1A43887  41.607  21.814   6.143
 3347POPC   D2A43888  41.839  22.057   6.500
 3347POPC   C3A43889  41.709  21.941   6.930
 3347POPC   C4A43890  41.468  22.097   7.261
 3347POPC   C1B43891  41.436  22.552   6.220
 3347POPC   C2B43892  41.645  22.654   6.563
 3347POPC   C3B43893  41.629  22.470   6.946
 3347POPC   C4B43894  41.401  22.610   7.294
 3348POPC   NC343895   5.961  18.703   5.503
 3348POPC   PO443896   5.788  18.152   5.257
 3348POPC   GL143897   6.029  18.240   5.717
 3348POPC   GL243898   6.142  17.973   5.949
 3348POPC   C1A43899   6.101  18.472   6.123
 3348POPC   D2A43900   5.978  18.607   6.569
 3348POPC   C3A43901   5.796  18.341   6.917
 3348POPC   C4A43902   5.409  18.462   7.129
 3348POPC   C1B43903   5.844  18.039   6.292
 3348POPC   C2B43904   5.640  17.848   6.619
 3348POPC   C3B43905   5.967  17.818   6.896
 3348POPC   C4B43906   5.966  17.796   7.302
 3349POPC   NC343907  10.168  40.762   4.739
 3349POPC   PO443908  10.629  40.655   5.278
 3349POPC   GL143909  10.560  40.711   5.755
 3349POPC   GL243910  10.249  40.933   5.794
 3349POPC   C1A43911  10.743  40.716   6.177
 3349POPC   D2A43912  10.894  40.723   6.594
 3349POPC   C3A43913  10.632  40.557   6.880
 3349POPC   C4A43914  10.537  40.705   7.283
 3349POPC   C1B43915  10.352  41.062   6.215
 3349POPC   C2B43916  10.405  40.938   6.640
 3349POPC   C3B43917  10.267  41.106   7.062
 3349POPC   C4B43918   9.971  41.283   7.402
 3350POPC   NC343919  29.701  42.292   5.357
 3350POPC   PO443920  30.178  41.884   5.309
 3350POPC   GL143921  30.098  42.316   5.677
 3350POPC   GL243922  29.759  42.531   5.798
 3350POPC   C1A43923  30.131  42.510   6.147
 3350POPC   D2A43924  30.144  42.421   6.630
 3350POPC   C3A43925  29.890  42.047   6.792
 3350POPC   C4A43926  29.864  41.847   7.185
 3350POPC   C1B43927  29.578  42.819   6.123
 3350POPC   C2B43928  29.646  42.738   6.548
 3350POPC   C3B43929  29.710  42.516   6.915
 3350POPC   C4B43930  29.972  42.344   7.227
 3351POPC   NC343931  32.880  17.943   5.421
 3351POPC   PO443932  33.271  18.498   5.430
 3351POPC   GL143933  33.154  18.176   5.785
 3351POPC   GL243934  32.811  18.131   5.903
 3351POPC   C1A43935  33.222  18.129   6.224
 3351POPC   D2A43936  32.887  18.256   6.533
 3351POPC   C3A43937  33.060  18.196   6.953
 3351POPC   C4A43938  32.820  17.897   7.160
 3351POPC   C1B43939  32.974  18.549   6.091
 3351POPC   C2B43940  33.073  18.723   6.525
 3351POPC   C3B43941  32.816  18.666   6.869
 3351POPC   C4B43942  32.992  18.624   7.271
 3352POPC   NC343943   3.857  43.113   5.428
 3352POPC   PO443944   4.458  43.355   5.288
 3352POPC   GL143945   4.370  43.115   5.698
 3352POPC   GL243946   4.063  43.203   5.870
 3352POPC   C1A43947   4.422  43.059   6.185
 3352POPC   D2A43948   4.485  43.293   6.598
 3352POPC   C3A43949   4.386  43.086   7.013
 3352POPC   C4A43950   4.512  43.072   7.466
 3352POPC   C1B43951   3.889  43.013   6.227
 3352POPC   C2B43952   3.967  43.152   6.648
 3352POPC   C3B43953   3.881  43.223   7.072
 3352POPC   C4B43954   3.882  42.871   7.318
 3353POPC   NC343955  26.709   9.961   5.360
 3353POPC   PO443956  26.810   9.407   5.519
 3353POPC   GL143957  26.757   9.703   5.857
 3353POPC   GL243958  26.598  10.036   5.885
 3353POPC   C1A43959  26.959   9.898   6.243
 3353POPC   D2A43960  27.180   9.814   6.643
 3353POPC   C3A43961  26.955   9.790   7.039
 3353POPC   C4A43962  26.684   9.450   7.224
 3353POPC   C1B43963  26.446   9.721   6.247
 3353POPC   C2B43964  26.539   9.700   6.723
 3353POPC   C3B43965  26.408   9.855   7.143
 3353POPC   C4B43966  26.278   9.957   7.565
 3354POPC   NC343967  35.611  32.607   5.202
 3354POPC   PO443968  35.157  33.060   5.445
 3354POPC   GL143969  35.321  33.072   5.853
 3354POPC   GL243970  35.630  33.169   5.850
 3354POPC   C1A43971  35.456  32.942   6.278
 3354POPC   D2A43972  35.275  32.741   6.638
 3354POPC   C3A43973  35.392  32.924   7.025
 3354POPC   C4A43974  35.210  32.985   7.435
 3354POPC   C1B43975  35.795  33.358   6.206
 3354POPC   C2B43976  35.851  33.265   6.610
 3354POPC   C3B43977  35.673  33.393   6.978
 3354POPC   C4B43978  35.675  33.215   7.373
 3355POPC   NC343979  11.834  11.930   5.354
 3355POPC   PO443980  12.533  11.888   5.371
 3355POPC   GL143981  12.256  12.215   5.658
 3355POPC   GL243982  11.915  12.165   5.824
 3355POPC   C1A43983  12.289  12.329   6.149
 3355POPC   D2A43984  12.472  12.260   6.588
 3355POPC   C3A43985  12.240  12.103   6.932
 3355POPC   C4A43986  12.067  12.219   7.330
 3355POPC   C1B43987  11.966  11.944   6.266
 3355POPC   C2B43988  11.792  12.021   6.708
 3355POPC   C3B43989  11.628  12.269   7.087
 3355POPC   C4B43990  11.638  12.189   7.585
 3356POPC   NC343991  40.483  11.606   5.743
 3356POPC   PO443992  40.382  11.058   5.365
 3356POPC   GL143993  40.618  11.087   5.824
 3356POPC   GL243994  40.918  11.311   5.892
 3356POPC   C1A43995  40.513  11.265   6.278
 3356POPC   D2A43996  40.692  11.349   6.680
 3356POPC   C3A43997  40.579  11.516   7.092
 3356POPC   C4A43998  40.576  11.241   7.484
 3356POPC   C1B43999  40.983  11.036   6.268
 3356POPC   C2B44000  41.109  11.056   6.720
 3356POPC   C3B44001  40.939  11.154   7.127
 3356POPC   C4B44002  40.991  10.922   7.513
 3357POPC   NC344003  38.270  12.280   5.391
 3357POPC   PO444004  38.845  11.854   5.536
 3357POPC   GL144005  38.619  12.049   5.837
 3357POPC   GL244006  38.798  12.272   6.051
 3357POPC   C1A44007  38.483  11.879   6.236
 3357POPC   D2A44008  38.510  11.654   6.604
 3357POPC   C3A44009  38.575  11.838   6.983
 3357POPC   C4A44010  38.371  11.864   7.355
 3357POPC   C1B44011  38.390  12.377   6.239
 3357POPC   C2B44012  38.393  12.235   6.666
 3357POPC   C3B44013  38.312  12.303   7.075
 3357POPC   C4B44014  38.486  12.348   7.461
 3358POPC   NC344015  36.392  43.934   5.376
 3358POPC   PO444016  35.856  43.549   5.359
 3358POPC   GL144017  36.126  43.632   5.717
 3358POPC   GL244018  35.976  43.946   5.851
 3358POPC   C1A44019  36.240  43.615   6.155
 3358POPC   D2A44020  36.348  43.720   6.577
 3358POPC   C3A44021  36.103  43.746   6.946
 3358POPC   C4A44022  36.286  43.742   7.351
 3358POPC   C1B44023  36.179  44.136   6.250
 3358POPC   C2B44024  36.262  44.244   6.705
 3358POPC   C3B44025  36.152  44.242   7.159
 3358POPC   C4B44026  35.905  44.060   7.516
 3359POPC   NC344027  20.392   4.715   5.456
 3359POPC   PO444028  20.739   5.346   5.390
 3359POPC   GL144029  20.665   5.318   5.816
 3359POPC   GL244030  20.664   4.979   5.812
 3359POPC   C1A44031  20.777   5.293   6.261
 3359POPC   D2A44032  20.980   5.171   6.634
 3359POPC   C3A44033  20.793   5.248   7.039
 3359POPC   C4A44034  20.575   5.220   7.459
 3359POPC   C1B44035  20.448   4.903   6.213
 3359POPC   C2B44036  20.583   4.836   6.684
 3359POPC   C3B44037  20.479   4.812   7.144
 3359POPC   C4B44038  20.635   4.737   7.562
 3360POPC   NC344039  43.033  29.136   5.399
 3360POPC   PO444040  43.483  28.721   5.588
 3360POPC   GL144041  43.190  28.964   5.882
 3360POPC   GL244042  43.184  29.339   5.830
 3360POPC   C1A44043  43.163  28.954   6.344
 3360POPC   D2A44044  43.362  28.806   6.740
 3360POPC   C3A44045  43.180  29.021   7.085
 3360POPC   C4A44046  42.721  29.069   7.164
 3360POPC   C1B44047  43.010  29.445   6.221
 3360POPC   C2B44048  42.887  29.301   6.613
 3360POPC   C3B44049  42.967  29.474   6.980
 3360POPC   C4B44050  43.333  29.498   7.264
 3361POPC   NC344051   3.407   6.693   5.265
 3361POPC   PO444052   4.026   6.453   5.349
 3361POPC   GL144053   3.665   6.594   5.705
 3361POPC   GL244054   3.273   6.477   5.707
 3361POPC   C1A44055   3.499   6.815   6.116
 3361POPC   D2A44056   3.414   6.626   6.552
 3361POPC   C3A44057   3.282   6.776   6.989
 3361POPC   C4A44058   3.530   6.724   7.390
 3361POPC   C1B44059   3.236   6.358   6.149
 3361POPC   C2B44060   3.265   6.139   6.550
 3361POPC   C3B44061   3.361   6.269   6.928
 3361POPC   C4B44062   3.207   6.342   7.317
 3362POPC   NC344063  35.475  26.545   5.511
 3362POPC   PO444064  35.214  27.115   5.293
 3362POPC   GL144065  35.254  26.991   5.770
 3362POPC   GL244066  35.004  26.809   5.963
 3362POPC   C1A44067  35.443  26.879   6.212
 3362POPC   D2A44068  35.472  27.120   6.605
 3362POPC   C3A44069  35.484  26.986   7.036
 3362POPC   C4A44070  35.564  27.144   7.442
 3362POPC   C1B44071  35.089  26.507   6.298
 3362POPC   C2B44072  35.295  26.612   6.695
 3362POPC   C3B44073  35.201  26.561   7.123
 3362POPC   C4B44074  35.434  26.410   7.454
 3363POPC   NC344075  26.765  30.024   5.439
 3363POPC   PO444076  26.662  29.425   5.210
 3363POPC   GL144077  26.537  29.629   5.713
 3363POPC   GL244078  26.515  29.976   5.867
 3363POPC   C1A44079  26.651  29.605   6.179
 3363POPC   D2A44080  26.539  29.670   6.614
 3363POPC   C3A44081  26.749  29.813   6.986
 3363POPC   C4A44082  27.029  29.711   7.332
 3363POPC   C1B44083  26.681  30.095   6.311
 3363POPC   C2B44084  26.942  30.178   6.677
 3363POPC   C3B44085  26.961  30.236   7.146
 3363POPC   C4B44086  27.083  30.500   7.524
 3364POPC   NC344087  14.260  28.177   5.349
 3364POPC   PO444088  13.919  28.692   5.555
 3364POPC   GL144089  14.092  28.329   5.818
 3364POPC   GL244090  14.458  28.359   5.784
 3364POPC   C1A44091  14.264  28.269   6.258
 3364POPC   D2A44092  14.463  28.390   6.648
 3364POPC   C3A44093  14.226  28.364   7.028
 3364POPC   C4A44094  14.329  28.582   7.443
 3364POPC   C1B44095  14.731  28.094   6.028
 3364POPC   C2B44096  14.664  27.957   6.415
 3364POPC   C3B44097  14.807  28.049   6.809
 3364POPC   C4B44098  14.541  27.964   7.129
 3365POPC   NC344099  13.288  31.807   5.434
 3365POPC   PO444100  13.567  31.206   5.254
 3365POPC   GL144101  13.690  31.132   5.729
 3365POPC   GL244102  13.685  31.489   5.813
 3365POPC   C1A44103  13.693  31.188   6.216
 3365POPC   D2A44104  13.500  31.273   6.647
 3365POPC   C3A44105  13.704  31.123   7.041
 3365POPC   C4A44106  13.993  31.055   7.396
 3365POPC   C1B44107  13.671  31.707   6.240
 3365POPC   C2B44108  13.445  31.778   6.644
 3365POPC   C3B44109  13.490  31.713   7.100
 3365POPC   C4B44110  13.369  31.839   7.533
 3366POPC   NC344111  22.866  34.385   5.452
 3366POPC   PO444112  23.457  34.778   5.283
 3366POPC   GL144113  23.134  34.753   5.707
 3366POPC   GL244114  22.792  34.644   5.878
 3366POPC   C1A44115  23.178  34.519   6.148
 3366POPC   D2A44116  22.956  34.632   6.549
 3366POPC   C3A44117  23.088  34.605   6.966
 3366POPC   C4A44118  23.325  34.402   7.278
 3366POPC   C1B44119  22.540  34.575   6.243
 3366POPC   C2B44120  22.515  34.372   6.667
 3366POPC   C3B44121  22.537  34.592   7.054
 3366POPC   C4B44122  22.578  34.556   7.498
 3367POPC   NC344123  30.260  26.781   5.288
 3367POPC   PO444124  29.810  27.209   5.343
 3367POPC   GL144125  29.949  27.057   5.766
 3367POPC   GL244126  29.889  26.693   5.787
 3367POPC   C1A44127  29.854  27.005   6.232
 3367POPC   D2A44128  30.046  27.129   6.652
 3367POPC   C3A44129  29.951  27.095   7.129
 3367POPC   C4A44130  30.167  27.298   7.526
 3367POPC   C1B44131  30.076  26.530   6.187
 3367POPC   C2B44132  30.074  26.372   6.600
 3367POPC   C3B44133  29.853  26.372   6.982
 3367POPC   C4B44134  30.025  26.450   7.372
 3368POPC   NC344135   4.657  13.636   5.533
 3368POPC   PO444136   5.281  13.425   5.352
 3368POPC   GL144137   5.090  13.504   5.766
 3368POPC   GL244138   4.968  13.868   5.866
 3368POPC   C1A44139   5.215  13.544   6.193
 3368POPC   D2A44140   5.290  13.813   6.547
 3368POPC   C3A44141   5.334  13.638   6.960
 3368POPC   C4A44142   5.326  13.227   7.156
 3368POPC   C1B44143   4.707  13.663   6.216
 3368POPC   C2B44144   4.564  13.658   6.662
 3368POPC   C3B44145   4.831  13.795   7.011
 3368POPC   C4B44146   5.048  13.665   7.411
 3369POPC   NC344147   7.928  21.149   5.400
 3369POPC   PO444148   8.483  21.637   5.344
 3369POPC   GL144149   8.380  21.314   5.629
 3369POPC   GL244150   8.102  21.518   5.726
 3369POPC   C1A44151   8.462  21.174   6.051
 3369POPC   D2A44152   8.514  21.366   6.456
 3369POPC   C3A44153   8.257  21.274   6.824
 3369POPC   C4A44154   8.265  21.493   7.225
 3369POPC   C1B44155   7.983  21.415   6.169
 3369POPC   C2B44156   7.885  21.594   6.592
 3369POPC   C3B44157   7.793  21.414   7.006
 3369POPC   C4B44158   7.975  21.045   7.220
 3370POPC   NC344159  29.603  17.955   5.725
 3370POPC   PO444160  29.209  18.447   5.327
 3370POPC   GL144161  29.219  18.351   5.742
 3370POPC   GL244162  28.851  18.351   5.813
 3370POPC   C1A44163  29.445  18.554   6.085
 3370POPC   D2A44164  29.472  18.804   6.483
 3370POPC   C3A44165  29.450  18.524   6.826
 3370POPC   C4A44166  29.425  18.484   7.263
 3370POPC   C1B44167  29.014  18.113   6.177
 3370POPC   C2B44168  29.031  18.258   6.608
 3370POPC   C3B44169  29.140  18.145   6.998
 3370POPC   C4B44170  28.916  17.933   7.253
 3371POPC   NC344171  33.105  15.506   5.560
 3371POPC   PO444172  33.267  16.207   5.441
 3371POPC   GL144173  33.001  15.987   5.765
 3371POPC   GL244174  32.745  15.717   5.856
 3371POPC   C1A44175  32.996  16.079   6.211
 3371POPC   D2A44176  33.266  16.185   6.585
 3371POPC   C3A44177  33.118  16.044   7.006
 3371POPC   C4A44178  33.269  16.021   7.422
 3371POPC   C1B44179  32.655  15.559   6.264
 3371POPC   C2B44180  32.748  15.601   6.701
 3371POPC   C3B44181  32.732  15.654   7.140
 3371POPC   C4B44182  32.696  15.499   7.613
 3372POPC   NC344183  33.304   2.135   5.418
 3372POPC   PO444184  32.729   1.709   5.282
 3372POPC   GL144185  32.831   1.909   5.697
 3372POPC   GL244186  32.898   2.264   5.777
 3372POPC   C1A44187  33.093   1.884   6.083
 3372POPC   D2A44188  33.095   2.009   6.523
 3372POPC   C3A44189  33.047   1.665   6.839
 3372POPC   C4A44190  33.304   1.727   7.191
 3372POPC   C1B44191  32.684   2.206   6.182
 3372POPC   C2B44192  32.674   2.308   6.626
 3372POPC   C3B44193  32.893   2.136   7.001
 3372POPC   C4B44194  33.173   2.246   7.357
 3373POPC   NC344195   2.353  14.393   5.351
 3373POPC   PO444196   1.692  14.230   5.258
 3373POPC   GL144197   1.870  14.371   5.724
 3373POPC   GL244198   2.201  14.509   5.804
 3373POPC   C1A44199   1.912  14.517   6.209
 3373POPC   D2A44200   1.905  14.557   6.674
 3373POPC   C3A44201   2.087  14.182   6.888
 3373POPC   C4A44202   1.913  13.953   7.222
 3373POPC   C1B44203   2.391  14.760   6.109
 3373POPC   C2B44204   2.348  14.788   6.549
 3373POPC   C3B44205   2.344  14.611   6.975
 3373POPC   C4B44206   2.276  14.325   7.335
 3374POPC   NC344207  19.283  12.521   5.272
 3374POPC   PO444208  19.098  13.201   5.396
 3374POPC   GL144209  19.141  13.039   5.786
 3374POPC   GL244210  19.086  12.695   5.715
 3374POPC   C1A44211  18.972  13.124   6.198
 3374POPC   D2A44212  19.219  13.025   6.575
 3374POPC   C3A44213  19.010  13.074   6.953
 3374POPC   C4A44214  19.149  13.022   7.364
 3374POPC   C1B44215  19.238  12.693   6.170
 3374POPC   C2B44216  19.203  12.533   6.622
 3374POPC   C3B44217  19.241  12.631   7.062
 3374POPC   C4B44218  18.969  12.538   7.381
 3375POPC   NC344219  24.057   3.189   5.551
 3375POPC   PO444220  23.508   3.695   5.499
 3375POPC   GL144221  23.710   3.475   5.802
 3375POPC   GL244222  24.005   3.648   5.793
 3375POPC   C1A44223  23.616   3.340   6.203
 3375POPC   D2A44224  23.609   3.584   6.559
 3375POPC   C3A44225  23.804   3.422   6.903
 3375POPC   C4A44226  23.652   3.616   7.246
 3375POPC   C1B44227  23.930   3.785   6.212
 3375POPC   C2B44228  23.987   3.953   6.638
 3375POPC   C3B44229  24.103   3.892   7.053
 3375POPC   C4B44230  24.141   3.560   7.282
 3376POPC   NC344231  23.682  37.260   5.285
 3376POPC   PO444232  23.515  37.875   5.304
 3376POPC   GL144233  23.591  37.703   5.757
 3376POPC   GL244234  23.764  37.964   5.981
 3376POPC   C1A44235  23.626  37.543   6.224
 3376POPC   D2A44236  23.586  37.737   6.648
 3376POPC   C3A44237  23.586  37.521   7.064
 3376POPC   C4A44238  23.482  37.824   7.409
 3376POPC   C1B44239  24.067  37.848   6.339
 3376POPC   C2B44240  24.179  37.850   6.796
 3376POPC   C3B44241  23.952  37.852   7.197
 3376POPC   C4B44242  23.920  37.912   7.716
 3377POPC   NC344243   7.382  43.627   5.342
 3377POPC   PO444244   7.035  44.054   5.643
 3377POPC   GL144245   7.377  43.858   5.817
 3377POPC   GL244246   7.602  44.130   5.852
 3377POPC   C1A44247   7.535  43.832   6.236
 3377POPC   D2A44248   7.451  44.038   6.605
 3377POPC   C3A44249   7.448  43.876   7.004
 3377POPC   C4A44250   7.560  44.195   7.267
 3377POPC   C1B44251   7.258  44.266   6.195
 3377POPC   C2B44252   6.930  44.233   6.498
 3377POPC   C3B44253   7.095  44.277   6.918
 3377POPC   C4B44254   7.065  44.042   7.295
 3378POPC   NC344255   9.317  35.187   5.441
 3378POPC   PO444256   8.670  35.464   5.355
 3378POPC   GL144257   8.892  35.532   5.785
 3378POPC   GL244258   8.749  35.248   5.873
 3378POPC   C1A44259   9.052  35.374   6.258
 3378POPC   D2A44260   9.011  35.101   6.675
 3378POPC   C3A44261   9.107  35.362   7.072
 3378POPC   C4A44262   9.314  35.782   7.141
 3378POPC   C1B44263   8.557  35.457   6.274
 3378POPC   C2B44264   8.739  35.544   6.672
 3378POPC   C3B44265   8.593  35.467   7.075
 3378POPC   C4B44266   8.774  35.527   7.475
 3379POPC   NC344267   2.449  43.548   5.525
 3379POPC   PO444268   2.442  44.211   5.506
 3379POPC   GL144269   2.722  43.941   5.753
 3379POPC   GL244270   3.005  44.162   5.819
 3379POPC   C1A44271   2.740  43.658   6.115
 3379POPC   D2A44272   2.819  43.800   6.511
 3379POPC   C3A44273   2.659  43.611   6.872
 3379POPC   C4A44274   2.773  43.739   7.267
 3379POPC   C1B44275   2.834  44.241   6.215
 3379POPC   C2B44276   2.938  44.290   6.633
 3379POPC   C3B44277   2.691  44.142   6.971
 3379POPC   C4B44278   2.803  44.278   7.380
 3380POPC   NC344279   2.211   9.647   5.173
 3380POPC   PO444280   1.826   9.990   5.664
 3380POPC   GL144281   2.073  10.006   6.020
 3380POPC   GL244282   2.370  10.122   5.854
 3380POPC   C1A44283   2.069   9.692   6.361
 3380POPC   D2A44284   1.958   9.743   6.809
 3380POPC   C3A44285   1.728   9.465   7.085
 3380POPC   C4A44286   1.443   9.233   7.387
 3380POPC   C1B44287   2.534   9.983   6.252
 3380POPC   C2B44288   2.506   9.772   6.630
 3380POPC   C3B44289   2.394   9.767   7.053
 3380POPC   C4B44290   2.206   9.500   7.285
 3381POPC   NC344291  34.639  14.633   5.464
 3381POPC   PO444292  34.650  13.941   5.406
 3381POPC   GL144293  34.670  14.242   5.790
 3381POPC   GL244294  34.408  14.449   5.882
 3381POPC   C1A44295  34.596  14.169   6.257
 3381POPC   D2A44296  34.201  14.116   6.493
 3381POPC   C3A44297  34.308  14.086   6.930
 3381POPC   C4A44298  34.644  14.333   7.110
 3381POPC   C1B44299  34.399  14.689   6.220
 3381POPC   C2B44300  34.286  14.843   6.565
 3381POPC   C3B44301  34.288  14.642   6.905
 3381POPC   C4B44302  34.501  14.805   7.245
 3382POPC   NC344303   7.904  39.733   5.419
 3382POPC   PO444304   8.263  40.384   5.387
 3382POPC   GL144305   8.235  40.067   5.671
 3382POPC   GL244306   8.554  39.964   5.691
 3382POPC   C1A44307   8.086  39.937   6.072
 3382POPC   D2A44308   7.931  39.880   6.517
 3382POPC   C3A44309   8.218  39.851   6.870
 3382POPC   C4A44310   8.053  39.832   7.280
 3382POPC   C1B44311   8.549  40.191   6.086
 3382POPC   C2B44312   8.294  40.255   6.459
 3382POPC   C3B44313   8.298  40.385   6.886
 3382POPC   C4B44314   8.599  40.272   7.235
 3383POPC   NC344315   2.950  17.736   5.415
 3383POPC   PO444316   2.344  17.330   5.326
 3383POPC   GL144317   2.666  17.471   5.705
 3383POPC   GL244318   2.593  17.783   5.832
 3383POPC   C1A44319   2.776  17.385   6.188
 3383POPC   D2A44320   2.703  17.124   6.600
 3383POPC   C3A44321   2.803  17.372   6.994
 3383POPC   C4A44322   2.869  17.461   7.424
 3383POPC   C1B44323   2.455  17.786   6.239
 3383POPC   C2B44324   2.601  17.664   6.622
 3383POPC   C3B44325   2.580  17.853   7.014
 3383POPC   C4B44326   2.292  18.121   7.246
 3384POPC   NC344327  35.236   2.685   5.440
 3384POPC   PO444328  35.875   2.497   5.377
 3384POPC   GL144329  35.602   2.710   5.769
 3384POPC   GL244330  35.396   3.052   5.763
 3384POPC   C1A44331  35.430   2.721   6.180
 3384POPC   D2A44332  35.607   2.651   6.564
 3384POPC   C3A44333  35.343   2.625   6.888
 3384POPC   C4A44334  35.453   2.551   7.263
 3384POPC   C1B44335  35.147   3.142   6.144
 3384POPC   C2B44336  35.351   3.101   6.546
 3384POPC   C3B44337  35.262   3.122   6.935
 3384POPC   C4B44338  35.100   2.925   7.276
 3385POPC   NC344339   9.319   9.937   5.523
 3385POPC   PO444340   9.959   9.705   5.508
 3385POPC   GL144341   9.736   9.894   5.828
 3385POPC   GL244342   9.474   9.669   5.941
 3385POPC   C1A44343   9.683  10.010   6.234
 3385POPC   D2A44344   9.723   9.794   6.616
 3385POPC   C3A44345   9.675   9.992   6.996
 3385POPC   C4A44346   9.708   9.823   7.399
 3385POPC   C1B44347   9.901   9.526   6.173
 3385POPC   C2B44348  10.104   9.439   6.600
 3385POPC   C3B44349   9.935   9.543   7.028
 3385POPC   C4B44350   9.669   9.320   7.317
 3386POPC   NC344351  41.670  34.395   5.551
 3386POPC   PO444352  41.058  34.705   5.451
 3386POPC   GL144353  41.316  34.651   5.845
 3386POPC   GL244354  41.277  34.274   5.901
 3386POPC   C1A44355  41.510  34.828   6.252
 3386POPC   D2A44356  41.416  34.929   6.722
 3386POPC   C3A44357  41.672  34.831   7.112
 3386POPC   C4A44358  41.615  34.853   7.562
 3386POPC   C1B44359  41.617  34.311   6.211
 3386POPC   C2B44360  41.668  34.473   6.622
 3386POPC   C3B44361  41.415  34.423   6.972
 3386POPC   C4B44362  41.605  34.383   7.391
 3387POPC   NC344363  32.524  39.068   5.636
 3387POPC   PO444364  32.071  39.455   5.357
 3387POPC   GL144365  32.144  39.345   5.808
 3387POPC   GL244366  32.104  38.970   5.917
 3387POPC   C1A44367  32.389  39.376   6.204
 3387POPC   D2A44368  32.226  39.478   6.585
 3387POPC   C3A44369  32.134  39.216   6.911
 3387POPC   C4A44370  32.177  39.325   7.323
 3387POPC   C1B44371  32.328  38.880   6.337
 3387POPC   C2B44372  32.565  39.043   6.707
 3387POPC   C3B44373  32.510  38.965   7.170
 3387POPC   C4B44374  32.682  38.743   7.506
 3388POPC   NC344375  41.829  30.348   5.620
 3388POPC   PO444376  42.007  30.914   5.317
 3388POPC   GL144377  41.668  30.854   5.672
 3388POPC   GL244378  41.279  30.921   5.635
 3388POPC   C1A44379  41.653  30.736   6.124
 3388POPC   D2A44380  41.946  30.730   6.480
 3388POPC   C3A44381  41.760  30.550   6.845
 3388POPC   C4A44382  41.741  30.840   7.165
 3388POPC   C1B44383  41.178  30.965   6.086
 3388POPC   C2B44384  41.204  30.833   6.541
 3388POPC   C3B44385  41.260  30.951   7.001
 3388POPC   C4B44386  41.246  31.096   7.443
 3389POPC   NC344387   9.089  28.452   5.373
 3389POPC   PO444388   8.511  28.169   5.509
 3389POPC   GL144389   8.813  28.313   5.789
 3389POPC   GL244390   8.879  28.035   5.877
 3389POPC   C1A44391   9.103  28.457   6.136
 3389POPC   D2A44392   8.971  28.461   6.571
 3389POPC   C3A44393   9.084  28.722   6.928
 3389POPC   C4A44394   8.931  28.597   7.354
 3389POPC   C1B44395   9.031  27.960   6.266
 3389POPC   C2B44396   9.211  28.016   6.641
 3389POPC   C3B44397   9.094  28.185   7.018
 3389POPC   C4B44398   9.040  27.968   7.368
 3390POPC   NC344399  42.541  34.751   5.405
 3390POPC   PO444400  41.906  34.811   5.597
 3390POPC   GL144401  42.297  34.794   5.883
 3390POPC   GL244402  42.507  34.492   5.872
 3390POPC   C1A44403  42.428  34.728   6.350
 3390POPC   D2A44404  42.126  34.720   6.699
 3390POPC   C3A44405  42.007  34.468   7.039
 3390POPC   C4A44406  42.054  34.611   7.482
 3390POPC   C1B44407  42.122  34.384   6.126
 3390POPC   C2B44408  42.121  34.214   6.557
 3390POPC   C3B44409  42.242  34.025   6.946
 3390POPC   C4B44410  42.186  34.136   7.382
 3391POPC   NC344411   4.157  25.860   5.474
 3391POPC   PO444412   4.545  26.394   5.608
 3391POPC   GL144413   4.415  26.070   5.850
 3391POPC   GL244414   4.032  26.181   5.848
 3391POPC   C1A44415   4.610  25.885   6.208
 3391POPC   D2A44416   4.603  26.145   6.579
 3391POPC   C3A44417   4.222  26.093   6.811
 3391POPC   C4A44418   4.274  26.082   7.223
 3391POPC   C1B44419   4.152  26.098   6.280
 3391POPC   C2B44420   4.181  25.692   6.501
 3391POPC   C3B44421   4.044  25.623   6.935
 3391POPC   C4B44422   4.168  25.609   7.360
 3392POPC   NC344423  17.962   3.872   5.152
 3392POPC   PO444424  17.567   3.398   5.464
 3392POPC   GL144425  17.634   3.656   5.820
 3392POPC   GL244426  17.786   3.994   5.788
 3392POPC   C1A44427  17.609   3.523   6.231
 3392POPC   D2A44428  17.440   3.329   6.571
 3392POPC   C3A44429  17.603   3.461   6.946
 3392POPC   C4A44430  17.453   3.537   7.327
 3392POPC   C1B44431  17.494   4.025   6.175
 3392POPC   C2B44432  17.476   3.855   6.607
 3392POPC   C3B44433  17.661   3.964   7.005
 3392POPC   C4B44434  17.819   3.894   7.381
 3393POPC   NC344435   2.190  42.453   5.079
 3393POPC   PO444436   1.723  42.253   5.508
 3393POPC   GL144437   1.935  42.238   5.866
 3393POPC   GL244438   2.070  42.553   5.807
 3393POPC   C1A44439   1.861  42.114   6.293
 3393POPC   D2A44440   1.986  42.088   6.741
 3393POPC   C3A44441   1.712  42.215   7.058
 3393POPC   C4A44442   1.838  42.282   7.478
 3393POPC   C1B44443   2.220  42.548   6.246
 3393POPC   C2B44444   2.295  42.473   6.696
 3393POPC   C3B44445   2.226  42.343   7.127
 3393POPC   C4B44446   2.236  42.606   7.478
 3394POPC   NC344447  33.208  44.728   5.320
 3394POPC   PO444448  32.571  44.547   5.488
 3394POPC   GL144449  32.954  44.596   5.777
 3394POPC   GL244450  33.319  44.733   5.818
 3394POPC   C1A44451  32.955  44.741   6.198
 3394POPC   D2A44452  33.145  44.733   6.567
 3394POPC   C3A44453  32.885  44.653   6.896
 3394POPC   C4A44454  32.814  44.496   7.282
 3394POPC   C1B44455  33.546  44.694   6.205
 3394POPC   C2B44456  33.560  44.464   6.581
 3394POPC   C3B44457  33.346  44.443   6.982
 3394POPC   C4B44458  33.296  44.736   7.300
 3395POPC   NC344459  30.280  12.568   5.435
 3395POPC   PO444460  29.866  13.113   5.140
 3395POPC   GL144461  29.762  12.826   5.580
 3395POPC   GL244462  30.040  12.824   5.796
 3395POPC   C1A44463  29.603  12.664   6.044
 3395POPC   D2A44464  29.551  12.446   6.488
 3395POPC   C3A44465  29.620  12.678   6.909
 3395POPC   C4A44466  29.756  13.035   7.231
 3395POPC   C1B44467  30.048  12.864   6.231
 3395POPC   C2B44468  30.063  13.077   6.603
 3395POPC   C3B44469  30.206  12.929   7.000
 3395POPC   C4B44470  30.020  12.587   7.232
 3396POPC   NC344471   5.355  35.668   5.456
 3396POPC   PO444472   4.943  35.073   5.469
 3396POPC   GL144473   5.102  35.275   5.821
 3396POPC   GL244474   5.068  35.640   5.868
 3396POPC   C1A44475   4.865  35.241   6.208
 3396POPC   D2A44476   4.743  35.347   6.631
 3396POPC   C3A44477   4.847  35.078   6.941
 3396POPC   C4A44478   4.998  35.134   7.373
 3396POPC   C1B44479   5.267  35.541   6.243
 3396POPC   C2B44480   5.132  35.676   6.640
 3396POPC   C3B44481   5.178  35.468   7.016
 3396POPC   C4B44482   5.497  35.469   7.259
 3397POPC   NC344483  16.385  25.542   5.414
 3397POPC   PO444484  16.969  25.171   5.311
 3397POPC   GL144485  17.021  25.172   5.788
 3397POPC   GL244486  16.934  25.536   5.933
 3397POPC   C1A44487  17.111  25.124   6.229
 3397POPC   D2A44488  16.828  25.268   6.559
 3397POPC   C3A44489  16.788  24.973   6.899
 3397POPC   C4A44490  16.928  25.045   7.306
 3397POPC   C1B44491  16.513  25.620   6.188
 3397POPC   C2B44492  16.337  25.522   6.628
 3397POPC   C3B44493  16.569  25.600   7.030
 3397POPC   C4B44494  16.435  25.569   7.454
 3398POPC   NC344495  42.915  20.616   5.407
 3398POPC   PO444496  43.555  20.777   5.384
 3398POPC   GL144497  43.286  20.775   5.755
 3398POPC   GL244498  43.249  20.421   5.848
 3398POPC   C1A44499  43.156  20.789   6.220
 3398POPC   D2A44500  42.957  20.697   6.647
 3398POPC   C3A44501  43.089  20.759   7.090
 3398POPC   C4A44502  42.948  20.901   7.521
 3398POPC   C1B44503  43.215  20.110   6.207
 3398POPC   C2B44504  43.445  20.029   6.599
 3398POPC   C3B44505  43.265  20.277   6.958
 3398POPC   C4B44506  42.817  20.247   7.123
 3399POPC   NC344507  34.639  13.012   5.358
 3399POPC   PO444508  34.037  12.758   5.396
 3399POPC   GL144509  34.302  12.989   5.777
 3399POPC   GL244510  34.707  13.053   5.854
 3399POPC   C1A44511  34.378  12.882   6.239
 3399POPC   D2A44512  34.423  12.565   6.587
 3399POPC   C3A44513  34.462  12.745   7.007
 3399POPC   C4A44514  34.693  12.607   7.357
 3399POPC   C1B44515  34.790  13.188   6.273
 3399POPC   C2B44516  34.820  12.926   6.667
 3399POPC   C3B44517  34.841  13.058   7.096
 3399POPC   C4B44518  34.744  13.371   7.306
 3400POPC   NC344519  10.028  10.584   5.245
 3400POPC   PO444520   9.457  10.346   5.403
 3400POPC   GL144521   9.750  10.474   5.722
 3400POPC   GL244522  10.003  10.276   5.644
 3400POPC   C1A44523   9.777  10.620   6.153
 3400POPC   D2A44524   9.591  10.773   6.541
 3400POPC   C3A44525   9.767  10.568   6.904
 3400POPC   C4A44526   9.590  10.609   7.268
 3400POPC   C1B44527  10.146  10.271   6.063
 3400POPC   C2B44528  10.003  10.295   6.497
 3400POPC   C3B44529  10.149  10.182   6.882
 3400POPC   C4B44530   9.966  10.282   7.290
 3401POPC   NC344531  24.088  18.045   5.590
 3401POPC   PO444532  24.588  17.734   5.308
 3401POPC   GL144533  24.619  17.580   5.749
 3401POPC   GL244534  24.685  17.220   5.776
 3401POPC   C1A44535  24.767  17.547   6.195
 3401POPC   D2A44536  24.612  17.755   6.592
 3401POPC   C3A44537  24.608  17.546   6.968
 3401POPC   C4A44538  24.485  17.815   7.275
 3401POPC   C1B44539  24.467  17.113   6.176
 3401POPC   C2B44540  24.418  17.204   6.576
 3401POPC   C3B44541  24.312  17.105   6.994
 3401POPC   C4B44542  24.214  17.390   7.321
 3402POPC   NC344543   9.816   5.999   5.236
 3402POPC   PO444544   9.378   5.637   5.608
 3402POPC   GL144545   9.667   5.792   5.882
 3402POPC   GL244546   9.689   6.148   5.937
 3402POPC   C1A44547   9.705   5.635   6.284
 3402POPC   D2A44548   9.857   5.753   6.660
 3402POPC   C3A44549   9.639   5.622   7.006
 3402POPC   C4A44550   9.511   5.914   7.304
 3402POPC   C1B44551  10.010   6.102   6.244
 3402POPC   C2B44552  10.187   6.132   6.646
 3402POPC   C3B44553   9.970   6.057   7.070
 3402POPC   C4B44554   9.928   6.146   7.519
 3403POPC   NC344555  14.543  35.271   5.345
 3403POPC   PO444556  14.055  35.636   5.324
 3403POPC   GL144557  14.176  35.341   5.734
 3403POPC   GL244558  14.500  35.209   5.827
 3403POPC   C1A44559  14.265  35.417   6.213
 3403POPC   D2A44560  14.179  35.182   6.604
 3403POPC   C3A44561  14.147  35.413   6.919
 3403POPC   C4A44562  14.269  35.371   7.292
 3403POPC   C1B44563  14.754  35.256   6.155
 3403POPC   C2B44564  14.784  35.332   6.546
 3403POPC   C3B44565  14.651  35.221   6.933
 3403POPC   C4B44566  14.759  35.392   7.310
 3404POPC   NC344567  20.749  28.747   5.749
 3404POPC   PO444568  20.760  29.341   5.539
 3404POPC   GL144569  20.486  29.177   5.850
 3404POPC   GL244570  20.260  28.904   5.868
 3404POPC   C1A44571  20.591  29.176   6.252
 3404POPC   D2A44572  20.642  29.448   6.544
 3404POPC   C3A44573  20.755  29.248   6.914
 3404POPC   C4A44574  20.776  29.342   7.321
 3404POPC   C1B44575  20.366  28.732   6.258
 3404POPC   C2B44576  20.569  28.836   6.653
 3404POPC   C3B44577  20.448  28.844   7.062
 3404POPC   C4B44578  20.595  28.866   7.482
 3405POPC   NC344579  23.656  34.274   5.351
 3405POPC   PO444580  23.983  34.805   5.641
 3405POPC   GL144581  23.622  34.851   5.846
 3405POPC   GL244582  23.568  34.510   5.804
 3405POPC   C1A44583  23.526  34.831   6.291
 3405POPC   D2A44584  23.536  34.572   6.674
 3405POPC   C3A44585  23.547  34.818   7.075
 3405POPC   C4A44586  23.832  35.166   7.222
 3405POPC   C1B44587  23.806  34.414   6.187
 3405POPC   C2B44588  24.038  34.343   6.572
 3405POPC   C3B44589  24.114  34.336   7.020
 3405POPC   C4B44590  23.829  34.463   7.325
 3406POPC   NC344591  17.680  35.704   5.309
 3406POPC   PO444592  17.477  35.010   5.405
 3406POPC   GL144593  17.717  35.143   5.772
 3406POPC   GL244594  17.774  35.502   5.774
 3406POPC   C1A44595  17.595  35.154   6.198
 3406POPC   D2A44596  17.643  34.960   6.586
 3406POPC   C3A44597  17.486  35.262   6.841
 3406POPC   C4A44598  17.375  35.360   7.234
 3406POPC   C1B44599  17.892  35.640   6.189
 3406POPC   C2B44600  17.888  35.445   6.571
 3406POPC   C3B44601  17.950  35.376   6.993
 3406POPC   C4B44602  17.852  35.529   7.396
 3407POPC   NC344603   5.420  36.253   5.119
 3407POPC   PO444604   4.931  35.933   5.440
 3407POPC   GL144605   5.100  36.188   5.764
 3407POPC   GL244606   5.363  36.072   5.832
 3407POPC   C1A44607   5.219  36.515   6.128
 3407POPC   D2A44608   5.022  36.426   6.540
 3407POPC   C3A44609   5.168  36.431   6.962
 3407POPC   C4A44610   4.929  36.256   7.307
 3407POPC   C1B44611   5.207  36.033   6.253
 3407POPC   C2B44612   5.440  36.093   6.643
 3407POPC   C3B44613   5.355  35.965   7.062
 3407POPC   C4B44614   5.220  35.863   7.454
 3408POPC   NC344615  12.101  33.040   5.186
 3408POPC   PO444616  11.678  32.904   5.705
 3408POPC   GL144617  12.073  32.958   5.882
 3408POPC   GL244618  12.257  32.766   5.647
 3408POPC   C1A44619  12.086  33.136   6.295
 3408POPC   D2A44620  12.071  32.975   6.692
 3408POPC   C3A44621  11.740  32.965   6.966
 3408POPC   C4A44622  11.764  33.276   7.296
 3408POPC   C1B44623  12.388  32.569   6.068
 3408POPC   C2B44624  12.382  32.587   6.552
 3408POPC   C3B44625  12.437  32.775   6.979
 3408POPC   C4B44626  12.149  32.955   7.275
 3409POPC   NC344627   7.735  22.755   5.587
 3409POPC   PO444628   7.287  23.142   5.279
 3409POPC   GL144629   7.246  22.968   5.679
 3409POPC   GL244630   7.144  22.649   5.714
 3409POPC   C1A44631   7.284  23.016   6.114
 3409POPC   D2A44632   7.275  23.156   6.542
 3409POPC   C3A44633   7.516  22.967   6.854
 3409POPC   C4A44634   7.471  23.127   7.232
 3409POPC   C1B44635   7.097  22.517   6.150
 3409POPC   C2B44636   7.234  22.628   6.566
 3409POPC   C3B44637   7.123  22.493   6.983
 3409POPC   C4B44638   7.188  22.678   7.367
 3410POPC   NC344639  37.186   1.450   5.408
 3410POPC   PO444640  37.792   1.333   5.220
 3410POPC   GL144641  37.660   1.311   5.715
 3410POPC   GL244642  37.482   1.138   5.968
 3410POPC   C1A44643  37.758   1.487   6.167
 3410POPC   D2A44644  37.556   1.316   6.553
 3410POPC   C3A44645  37.652   1.489   6.947
 3410POPC   C4A44646  37.579   1.301   7.377
 3410POPC   C1B44647  37.828   0.978   6.236
 3410POPC   C2B44648  37.995   1.037   6.640
 3410POPC   C3B44649  37.766   0.999   7.009
 3410POPC   C4B44650  37.929   0.924   7.422
 3411POPC   NC344651   5.305  17.762   5.581
 3411POPC   PO444652   4.810  17.228   5.496
 3411POPC   GL144653   4.890  17.546   5.776
 3411POPC   GL244654   5.190  17.401   5.937
 3411POPC   C1A44655   4.839  17.782   6.155
 3411POPC   D2A44656   5.176  17.665   6.440
 3411POPC   C3A44657   5.137  17.703   6.867
 3411POPC   C4A44658   5.120  17.651   7.309
 3411POPC   C1B44659   4.852  17.280   6.230
 3411POPC   C2B44660   4.806  17.365   6.666
 3411POPC   C3B44661   4.991  17.212   7.056
 3411POPC   C4B44662   4.842  17.146   7.479
 3412POPC   NC344663  17.774  32.664   5.345
 3412POPC   PO444664  17.422  33.216   5.162
 3412POPC   GL144665  17.366  33.183   5.674
 3412POPC   GL244666  17.568  32.861   5.805
 3412POPC   C1A44667  17.366  33.155   6.176
 3412POPC   D2A44668  17.340  32.973   6.625
 3412POPC   C3A44669  17.505  33.095   7.038
 3412POPC   C4A44670  17.526  32.911   7.467
 3412POPC   C1B44671  17.703  32.766   6.267
 3412POPC   C2B44672  17.760  32.638   6.696
 3412POPC   C3B44673  17.480  32.568   7.018
 3412POPC   C4B44674  17.408  32.428   7.429
 3413POPC   NC344675  20.439  19.261   5.379
 3413POPC   PO444676  20.584  18.654   5.435
 3413POPC   GL144677  20.553  18.925   5.812
 3413POPC   GL244678  20.277  19.189   5.854
 3413POPC   C1A44679  20.546  18.982   6.276
 3413POPC   D2A44680  20.397  18.718   6.644
 3413POPC   C3A44681  20.645  18.784   7.036
 3413POPC   C4A44682  20.860  19.158   7.130
 3413POPC   C1B44683  20.234  19.449   6.241
 3413POPC   C2B44684  20.432  19.540   6.640
 3413POPC   C3B44685  20.374  19.386   7.047
 3413POPC   C4B44686  20.189  18.984   7.153
 3414POPC   NC344687  28.794  34.566   5.344
 3414POPC   PO444688  28.244  34.730   5.447
 3414POPC   GL144689  28.499  34.627   5.813
 3414POPC   GL244690  28.794  34.400   5.821
 3414POPC   C1A44691  28.354  34.580   6.248
 3414POPC   D2A44692  28.158  34.793   6.586
 3414POPC   C3A44693  28.145  34.662   7.015
 3414POPC   C4A44694  28.507  34.774   7.152
 3414POPC   C1B44695  28.806  34.362   6.284
 3414POPC   C2B44696  28.582  34.481   6.699
 3414POPC   C3B44697  28.497  34.254   7.079
 3414POPC   C4B44698  28.788  34.112   7.425
 3415POPC   NC344699  41.317  16.037   5.303
 3415POPC   PO444700  40.678  15.981   5.374
 3415POPC   GL144701  40.731  15.829   5.809
 3415POPC   GL244702  41.086  15.943   5.819
 3415POPC   C1A44703  40.852  15.805   6.257
 3415POPC   D2A44704  40.822  16.045   6.640
 3415POPC   C3A44705  40.720  15.785   6.988
 3415POPC   C4A44706  40.943  15.579   7.267
 3415POPC   C1B44707  41.156  16.323   6.134
 3415POPC   C2B44708  41.245  16.422   6.602
 3415POPC   C3B44709  40.963  16.437   6.973
 3415POPC   C4B44710  40.842  16.170   7.276
 3416POPC   NC344711  21.014  18.819   5.504
 3416POPC   PO444712  20.847  19.375   5.570
 3416POPC   GL144713  21.037  19.066   5.946
 3416POPC   GL244714  21.234  18.703   5.934
 3416POPC   C1A44715  21.265  18.993   6.348
 3416POPC   D2A44716  21.284  19.169   6.777
 3416POPC   C3A44717  21.592  19.026   7.086
 3416POPC   C4A44718  21.650  19.133   7.540
 3416POPC   C1B44719  20.906  18.620   6.216
 3416POPC   C2B44720  20.923  18.747   6.627
 3416POPC   C3B44721  21.169  18.716   6.991
 3416POPC   C4B44722  21.217  18.867   7.403
 3417POPC   NC344723   6.637  10.159   5.224
 3417POPC   PO444724   6.312   9.700   5.612
 3417POPC   GL144725   6.700   9.614   5.851
 3417POPC   GL244726   6.888   9.862   6.026
 3417POPC   C1A44727   6.671   9.466   6.247
 3417POPC   D2A44728   6.697   9.691   6.623
 3417POPC   C3A44729   6.557   9.517   7.005
 3417POPC   C4A44730   6.524   9.660   7.413
 3417POPC   C1B44731   7.143   9.854   6.383
 3417POPC   C2B44732   7.033  10.074   6.760
 3417POPC   C3B44733   6.834   9.946   7.114
 3417POPC   C4B44734   7.131   9.920   7.417
 3418POPC   NC344735  35.624  11.139   5.135
 3418POPC   PO444736  36.000  11.452   5.591
 3418POPC   GL144737  36.107  11.265   5.912
 3418POPC   GL244738  36.417  11.167   5.791
 3418POPC   C1A44739  35.848  11.284   6.267
 3418POPC   D2A44740  35.994  11.111   6.595
 3418POPC   C3A44741  35.750  11.059   6.928
 3418POPC   C4A44742  35.915  11.002   7.307
 3418POPC   C1B44743  36.478  11.149   6.243
 3418POPC   C2B44744  36.484  10.934   6.642
 3418POPC   C3B44745  36.298  11.146   6.997
 3418POPC   C4B44746  36.347  11.266   7.431
 3419POPC   NC344747   7.985  27.099   5.474
 3419POPC   PO444748   8.445  26.653   5.585
 3419POPC   GL144749   8.323  26.976   5.864
 3419POPC   GL244750   7.981  26.857   5.919
 3419POPC   C1A44751   8.422  27.135   6.277
 3419POPC   D2A44752   8.210  27.109   6.670
 3419POPC   C3A44753   8.407  26.911   7.015
 3419POPC   C4A44754   8.268  26.921   7.442
 3419POPC   C1B44755   8.023  26.757   6.351
 3419POPC   C2B44756   7.989  26.657   6.807
 3419POPC   C3B44757   8.132  26.479   7.202
 3419POPC   C4B44758   7.942  26.329   7.602
 3420POPC   NC344759  17.080  42.470   5.560
 3420POPC   PO444760  17.537  41.969   5.445
 3420POPC   GL144761  17.485  42.216   5.851
 3420POPC   GL244762  17.805  42.421   5.942
 3420POPC   C1A44763  17.321  42.487   6.210
 3420POPC   D2A44764  17.276  42.612   6.626
 3420POPC   C3A44765  17.323  42.296   6.906
 3420POPC   C4A44766  17.306  42.431   7.323
 3420POPC   C1B44767  17.781  42.758   6.268
 3420POPC   C2B44768  17.821  42.688   6.714
 3420POPC   C3B44769  17.776  42.408   7.082
 3420POPC   C4B44770  17.900  42.175   7.448
 3421POPC   NC344771  21.039  31.008   5.464
 3421POPC   PO444772  21.535  30.546   5.358
 3421POPC   GL144773  21.596  30.732   5.801
 3421POPC   GL244774  21.267  30.814   5.879
 3421POPC   C1A44775  21.593  30.903   6.246
 3421POPC   D2A44776  21.407  30.713   6.614
 3421POPC   C3A44777  21.542  30.868   6.993
 3421POPC   C4A44778  21.389  30.790   7.398
 3421POPC   C1B44779  21.314  30.457   6.165
 3421POPC   C2B44780  21.083  30.273   6.512
 3421POPC   C3B44781  20.946  30.345   6.921
 3421POPC   C4B44782  21.096  30.358   7.323
 3422POPC   NC344783  30.103   9.926   5.147
 3422POPC   PO444784  29.526   9.844   5.475
 3422POPC   GL144785  29.676   9.587   5.809
 3422POPC   GL244786  29.985   9.476   5.668
 3422POPC   C1A44787  29.746   9.754   6.224
 3422POPC   D2A44788  29.806  10.037   6.566
 3422POPC   C3A44789  29.638   9.904   6.945
 3422POPC   C4A44790  29.899  10.082   7.220
 3422POPC   C1B44791  30.162   9.478   6.099
 3422POPC   C2B44792  30.218   9.640   6.523
 3422POPC   C3B44793  30.087   9.613   6.949
 3422POPC   C4B44794  30.259   9.713   7.318
 3423POPC   NC344795   2.877   6.335   5.355
 3423POPC   PO444796   2.517   6.856   5.412
 3423POPC   GL144797   2.450   6.723   5.837
 3423POPC   GL244798   2.728   6.511   5.839
 3423POPC   C1A44799   2.566   6.719   6.297
 3423POPC   D2A44800   2.507   6.933   6.696
 3423POPC   C3A44801   2.420   6.607   7.007
 3423POPC   C4A44802   2.765   6.669   7.262
 3423POPC   C1B44803   2.523   6.231   6.166
 3423POPC   C2B44804   2.755   6.097   6.499
 3423POPC   C3B44805   2.857   6.317   6.875
 3423POPC   C4B44806   2.747   6.155   7.265
 3424POPC   NC344807  40.339  28.427   5.211
 3424POPC   PO444808  40.908  28.122   5.291
 3424POPC   GL144809  40.980  28.266   5.752
 3424POPC   GL244810  41.139  28.585   5.885
 3424POPC   C1A44811  40.716  28.367   6.105
 3424POPC   D2A44812  40.545  28.395   6.515
 3424POPC   C3A44813  40.781  28.354   6.906
 3424POPC   C4A44814  40.673  28.383   7.340
 3424POPC   C1B44815  41.176  28.356   6.306
 3424POPC   C2B44816  41.141  28.074   6.632
 3424POPC   C3B44817  41.294  28.147   7.043
 3424POPC   C4B44818  41.166  28.507   7.226
 3425POPC   NC344819  34.991   5.644   5.559
 3425POPC   PO444820  35.378   6.132   5.512
 3425POPC   GL144821  35.435   5.867   5.861
 3425POPC   GL244822  35.233   5.560   5.985
 3425POPC   C1A44823  35.284   5.953   6.276
 3425POPC   D2A44824  35.102   5.608   6.501
 3425POPC   C3A44825  35.159   5.745   6.891
 3425POPC   C4A44826  35.334   6.056   7.157
 3425POPC   C1B44827  35.584   5.529   6.313
 3425POPC   C2B44828  35.615   5.437   6.772
 3425POPC   C3B44829  35.506   5.556   7.204
 3425POPC   C4B44830  35.106   5.645   7.390
 3426POPC   NC344831  19.461  42.017   5.410
 3426POPC   PO444832  19.941  42.464   5.597
 3426POPC   GL144833  19.938  42.181   5.928
 3426POPC   GL244834  19.622  42.106   5.877
 3426POPC   C1A44835  19.808  42.359   6.316
 3426POPC   D2A44836  20.022  42.432   6.703
 3426POPC   C3A44837  19.802  42.616   7.014
 3426POPC   C4A44838  19.740  42.310   7.273
 3426POPC   C1B44839  19.589  41.907   6.276
 3426POPC   C2B44840  19.617  42.087   6.712
 3426POPC   C3B44841  19.418  41.952   7.091
 3426POPC   C4B44842  19.490  41.984   7.565
 3427POPC   NC344843   6.783  23.560   5.378
 3427POPC   PO444844   6.387  24.163   5.374
 3427POPC   GL144845   6.660  23.980   5.765
 3427POPC   GL244846   6.915  23.694   5.828
 3427POPC   C1A44847   6.672  23.825   6.235
 3427POPC   D2A44848   6.446  23.704   6.619
 3427POPC   C3A44849   6.589  23.882   6.992
 3427POPC   C4A44850   6.457  23.649   7.343
 3427POPC   C1B44851   7.061  23.479   6.171
 3427POPC   C2B44852   6.839  23.406   6.533
 3427POPC   C3B44853   6.805  23.440   6.952
 3427POPC   C4B44854   6.975  23.621   7.303
 3428POPC   NC344855  13.645  20.293   5.385
 3428POPC   PO444856  13.822  21.020   5.551
 3428POPC   GL144857  13.717  20.648   5.786
 3428POPC   GL244858  14.068  20.609   5.865
 3428POPC   C1A44859  13.693  20.429   6.213
 3428POPC   D2A44860  13.439  20.450   6.589
 3428POPC   C3A44861  13.640  20.644   6.960
 3428POPC   C4A44862  13.480  20.740   7.374
 3428POPC   C1B44863  13.981  20.850   6.213
 3428POPC   C2B44864  14.033  20.657   6.593
 3428POPC   C3B44865  14.201  20.671   6.990
 3428POPC   C4B44866  13.995  20.615   7.388
 3429POPC   NC344867  38.505   6.148   5.278
 3429POPC   PO444868  38.168   5.630   5.566
 3429POPC   GL144869  38.491   5.914   5.782
 3429POPC   GL244870  38.825   5.763   5.868
 3429POPC   C1A44871  38.333   6.088   6.188
 3429POPC   D2A44872  38.215   5.893   6.606
 3429POPC   C3A44873  38.335   6.012   7.033
 3429POPC   C4A44874  38.249   5.910   7.477
 3429POPC   C1B44875  38.692   5.747   6.313
 3429POPC   C2B44876  38.714   5.793   6.776
 3429POPC   C3B44877  38.589   5.587   7.192
 3429POPC   C4B44878  38.821   5.394   7.556
 3430POPC   NC344879  40.842   9.671   5.210
 3430POPC   PO444880  40.547   9.430   5.751
 3430POPC   GL144881  40.907   9.628   5.945
 3430POPC   GL244882  40.969   9.975   5.881
 3430POPC   C1A44883  41.009   9.526   6.362
 3430POPC   D2A44884  41.093   9.767   6.747
 3430POPC   C3A44885  40.718   9.744   7.042
 3430POPC   C4A44886  40.406   9.607   7.348
 3430POPC   C1B44887  40.659  10.113   6.181
 3430POPC   C2B44888  40.491  10.099   6.611
 3430POPC   C3B44889  40.797  10.215   6.878
 3430POPC   C4B44890  41.066  10.128   7.187
 3431POPC   NC344891  24.015  35.895   5.423
 3431POPC   PO444892  23.499  36.354   5.529
 3431POPC   GL144893  23.436  36.139   5.854
 3431POPC   GL244894  23.731  35.941   5.839
 3431POPC   C1A44895  23.605  36.188   6.251
 3431POPC   D2A44896  23.735  35.932   6.558
 3431POPC   C3A44897  23.695  36.147   6.944
 3431POPC   C4A44898  23.487  36.162   7.333
 3431POPC   C1B44899  24.094  35.977   6.134
 3431POPC   C2B44900  24.281  36.057   6.535
 3431POPC   C3B44901  24.198  35.981   6.962
 3431POPC   C4B44902  24.002  36.106   7.370
 3432POPC   NC344903  29.948   3.611   5.387
 3432POPC   PO444904  29.860   2.960   5.315
 3432POPC   GL144905  29.890   3.218   5.763
 3432POPC   GL244906  29.730   3.568   5.867
 3432POPC   C1A44907  30.098   3.446   6.164
 3432POPC   D2A44908  29.926   3.525   6.582
 3432POPC   C3A44909  30.053   3.374   6.984
 3432POPC   C4A44910  30.235   3.650   7.215
 3432POPC   C1B44911  29.673   3.843   6.261
 3432POPC   C2B44912  29.569   3.856   6.737
 3432POPC   C3B44913  29.696   3.683   7.155
 3432POPC   C4B44914  29.695   3.803   7.634
 3433POPC   NC344915  35.049  41.886   5.528
 3433POPC   PO444916  35.204  41.206   5.373
 3433POPC   GL144917  35.183  41.456   5.774
 3433POPC   GL244918  35.475  41.669   5.777
 3433POPC   C1A44919  35.128  41.691   6.198
 3433POPC   D2A44920  34.911  41.851   6.587
 3433POPC   C3A44921  35.066  41.644   6.952
 3433POPC   C4A44922  34.961  41.531   7.362
 3433POPC   C1B44923  35.630  41.858   6.125
 3433POPC   C2B44924  35.616  41.596   6.475
 3433POPC   C3B44925  35.567  41.680   6.893
 3433POPC   C4B44926  35.639  41.723   7.286
 3434POPC   NC344927  23.318   8.936   5.401
 3434POPC   PO444928  22.709   8.564   5.494
 3434POPC   GL144929  22.866   8.881   5.755
 3434POPC   GL244930  23.151   9.106   5.860
 3434POPC   C1A44931  22.759   8.904   6.169
 3434POPC   D2A44932  22.843   9.072   6.538
 3434POPC   C3A44933  22.709   8.862   6.883
 3434POPC   C4A44934  22.802   8.895   7.277
 3434POPC   C1B44935  23.319   9.136   6.291
 3434POPC   C2B44936  23.447   9.166   6.749
 3434POPC   C3B44937  23.375   9.325   7.182
 3434POPC   C4B44938  23.227   9.051   7.513
 3435POPC   NC344939  17.867  17.371   5.019
 3435POPC   PO444940  17.512  17.657   5.486
 3435POPC   GL144941  17.394  17.532   5.881
 3435POPC   GL244942  17.345  17.193   5.957
 3435POPC   C1A44943  17.551  17.656   6.282
 3435POPC   D2A44944  17.769  17.913   6.546
 3435POPC   C3A44945  17.605  17.803   6.939
 3435POPC   C4A44946  17.769  17.897   7.325
 3435POPC   C1B44947  17.574  17.150   6.308
 3435POPC   C2B44948  17.531  17.299   6.728
 3435POPC   C3B44949  17.421  17.331   7.159
 3435POPC   C4B44950  17.256  17.660   7.389
 3436POPC   NC344951  39.762   7.033   5.581
 3436POPC   PO444952  40.305   6.696   5.517
 3436POPC   GL144953  40.103   6.505   5.902
 3436POPC   GL244954  39.862   6.694   6.090
 3436POPC   C1A44955  40.274   6.352   6.309
 3436POPC   D2A44956  40.192   6.163   6.730
 3436POPC   C3A44957  40.065   6.455   7.065
 3436POPC   C4A44958  40.238   6.564   7.449
 3436POPC   C1B44959  39.587   7.042   6.266
 3436POPC   C2B44960  39.588   7.122   6.719
 3436POPC   C3B44961  39.653   6.770   7.039
 3436POPC   C4B44962  39.807   6.804   7.489
 3437POPC   NC344963   2.990  24.804   5.556
 3437POPC   PO444964   2.385  24.538   5.353
 3437POPC   GL144965   2.696  24.431   5.726
 3437POPC   GL244966   2.746  24.074   5.752
 3437POPC   C1A44967   2.801  24.566   6.164
 3437POPC   D2A44968   2.584  24.535   6.538
 3437POPC   C3A44969   2.800  24.597   6.906
 3437POPC   C4A44970   2.571  24.785   7.223
 3437POPC   C1B44971   2.532  24.111   6.218
 3437POPC   C2B44972   2.291  24.118   6.632
 3437POPC   C3B44973   2.303  24.357   7.012
 3437POPC   C4B44974   2.530  24.295   7.361
 3438POPC   NC344975  12.158  38.001   5.395
 3438POPC   PO444976  11.848  37.411   5.531
 3438POPC   GL144977  12.123  37.658   5.777
 3438POPC   GL244978  11.922  37.959   5.843
 3438POPC   C1A44979  12.300  37.627   6.181
 3438POPC   D2A44980  12.203  37.806   6.575
 3438POPC   C3A44981  12.355  37.634   6.994
 3438POPC   C4A44982  12.205  37.801   7.379
 3438POPC   C1B44983  11.747  37.791   6.210
 3438POPC   C2B44984  11.724  37.595   6.594
 3438POPC   C3B44985  11.847  37.770   6.964
 3438POPC   C4B44986  11.716  37.634   7.336
 3439POPC   NC344987  28.183  16.923   5.373
 3439POPC   PO444988  28.654  16.404   5.484
 3439POPC   GL144989  28.632  16.669   5.826
 3439POPC   GL244990  28.275  16.754   5.856
 3439POPC   C1A44991  28.602  16.593   6.267
 3439POPC   D2A44992  28.668  16.382   6.679
 3439POPC   C3A44993  28.528  16.523   7.086
 3439POPC   C4A44994  28.616  16.500   7.547
 3439POPC   C1B44995  28.086  16.627   6.250
 3439POPC   C2B44996  27.978  16.713   6.662
 3439POPC   C3B44997  28.011  16.608   7.076
 3439POPC   C4B44998  28.219  16.773   7.426
 3440POPC   NC344999  25.722  43.969   5.241
 3440POPC   PO445000  25.248  44.151   5.575
 3440POPC   GL145001  25.353  43.833   5.831
 3440POPC   GL245002  25.427  44.004   6.077
 3440POPC   C1A45003  25.145  43.569   6.134
 3440POPC   D2A45004  25.001  43.599   6.570
 3440POPC   C3A45005  25.184  43.735   6.958
 3440POPC   C4A45006  25.183  43.560   7.338
 3440POPC   C1B45007  25.089  44.057   6.329
 3440POPC   C2B45008  25.336  44.118   6.682
 3440POPC   C3B45009  25.491  44.140   7.077
 3440POPC   C4B45010  25.092  44.249   7.194
 3441POPC   NC345011   7.142  39.391   5.728
 3441POPC   PO445012   7.809  39.243   5.481
 3441POPC   GL145013   7.632  39.218   5.871
 3441POPC   GL245014   7.841  38.922   5.887
 3441POPC   C1A45015   7.445  39.390   6.297
 3441POPC   D2A45016   7.226  39.387   6.698
 3441POPC   C3A45017   7.229  39.022   6.934
 3441POPC   C4A45018   7.037  38.768   7.202
 3441POPC   C1B45019   7.861  39.097   6.309
 3441POPC   C2B45020   7.688  38.971   6.722
 3441POPC   C3B45021   7.656  39.006   7.194
 3441POPC   C4B45022   7.781  39.322   7.445
 3442POPC   NC345023  21.779  18.070   5.507
 3442POPC   PO445024  21.231  18.424   5.476
 3442POPC   GL145025  21.161  18.198   5.868
 3442POPC   GL245026  21.499  18.038   5.929
 3442POPC   C1A45027  21.259  18.260   6.328
 3442POPC   D2A45028  21.529  17.996   6.573
 3442POPC   C3A45029  21.470  18.179   6.946
 3442POPC   C4A45030  21.383  18.383   7.308
 3442POPC   C1B45031  21.747  18.308   6.201
 3442POPC   C2B45032  21.693  18.507   6.617
 3442POPC   C3B45033  21.809  18.540   7.070
 3442POPC   C4B45034  21.863  18.261   7.453
 3443POPC   NC345035  43.960  38.791   5.506
 3443POPC   PO445036  43.608  39.408   5.302
 3443POPC   GL145037  43.803  39.240   5.757
 3443POPC   GL245038  44.114  39.040   5.899
 3443POPC   C1A45039  43.925  39.374   6.215
 3443POPC   D2A45040  43.771  39.449   6.646
 3443POPC   C3A45041  43.698  39.116   6.934
 3443POPC   C4A45042  43.886  39.297   7.253
 3443POPC   C1B45043  44.049  38.825   6.291
 3443POPC   C2B45044  44.090  38.857   6.733
 3443POPC   C3B45045  44.138  38.868   7.155
 3443POPC   C4B45046  44.398  39.201   7.302
 3444POPC   NC345047  35.744  11.063   5.629
 3444POPC   PO445048  35.487  11.636   5.359
 3444POPC   GL145049  35.422  11.385   5.811
 3444POPC   GL245050  35.111  11.185   5.843
 3444POPC   C1A45051  35.419  11.034   6.223
 3444POPC   D2A45052  35.122  11.055   6.605
 3444POPC   C3A45053  35.270  11.114   7.039
 3444POPC   C4A45054  35.571  11.379   7.281
 3444POPC   C1B45055  35.199  11.471   6.244
 3444POPC   C2B45056  35.450  11.461   6.642
 3444POPC   C3B45057  35.282  11.685   6.996
 3444POPC   C4B45058  35.100  11.547   7.349
 3445POPC   NC345059  14.077  12.657   5.290
 3445POPC   PO445060  13.522  13.178   5.281
 3445POPC   GL145061  13.704  13.054   5.700
 3445POPC   GL245062  13.783  12.692   5.757
 3445POPC   C1A45063  13.649  13.021   6.164
 3445POPC   D2A45064  13.844  12.939   6.577
 3445POPC   C3A45065  13.567  12.956   6.943
 3445POPC   C4A45066  13.238  12.969   7.267
 3445POPC   C1B45067  13.998  12.624   6.161
 3445POPC   C2B45068  14.125  12.486   6.581
 3445POPC   C3B45069  14.006  12.657   7.005
 3445POPC   C4B45070  13.638  12.567   7.307
 3446POPC   NC345071  38.640  44.381   5.499
 3446POPC   PO445072  38.137  44.833   5.627
 3446POPC   GL145073  38.434  44.667   5.868
 3446POPC   GL245074  38.294  44.336   5.887
 3446POPC   C1A45075  38.553  44.722   6.267
 3446POPC   D2A45076  38.308  44.988   6.568
 3446POPC   C3A45077  38.304  44.879   7.022
 3446POPC   C4A45078  38.073   0.186   7.295
 3446POPC   C1B45079  38.686  44.237   6.144
 3446POPC   C2B45080  38.837  44.373   6.559
 3446POPC   C3B45081  38.675  44.419   7.001
 3446POPC   C4B45082  38.755  44.170   7.421
 3447POPC   NC345083  29.674  27.591   5.093
 3447POPC   PO445084  29.125  27.609   5.437
 3447POPC   GL145085  29.316  27.761   5.805
 3447POPC   GL245086  29.040  28.019   5.823
 3447POPC   C1A45087  29.295  27.548   6.233
 3447POPC   D2A45088  29.041  27.467   6.616
 3447POPC   C3A45089  29.313  27.498   6.983
 3447POPC   C4A45090  29.357  27.225   7.340
 3447POPC   C1B45091  28.852  27.781   6.189
 3447POPC   C2B45092  28.747  27.923   6.612
 3447POPC   C3B45093  28.884  27.904   7.040
 3447POPC   C4B45094  28.898  27.538   7.288
 3448POPC   NC345095  28.960   3.640   5.542
 3448POPC   PO445096  29.514   3.427   5.441
 3448POPC   GL145097  29.254   3.308   5.859
 3448POPC   GL245098  29.240   3.625   6.014
 3448POPC   C1A45099  29.014   3.278   6.309
 3448POPC   D2A45100  29.054   3.644   6.623
 3448POPC   C3A45101  28.821   3.776   7.020
 3448POPC   C4A45102  28.840   3.666   7.462
 3448POPC   C1B45103  29.519   3.360   6.295
 3448POPC   C2B45104  29.452   3.347   6.731
 3448POPC   C3B45105  29.181   3.398   7.078
 3448POPC   C4B45106  29.333   3.503   7.462
 3449POPC   NC345107  15.082  33.897   5.359
 3449POPC   PO445108  15.670  33.745   5.417
 3449POPC   GL145109  15.369  33.682   5.768
 3449POPC   GL245110  14.956  33.664   5.795
 3449POPC   C1A45111  15.560  33.697   6.182
 3449POPC   D2A45112  15.558  33.439   6.554
 3449POPC   C3A45113  15.586  33.675   6.946
 3449POPC   C4A45114  15.423  33.671   7.371
 3449POPC   C1B45115  15.093  33.911   6.166
 3449POPC   C2B45116  15.233  33.829   6.587
 3449POPC   C3B45117  15.107  33.873   7.012
 3449POPC   C4B45118  15.159  34.119   7.394
 3450POPC   NC345119  19.695  34.746   5.672
 3450POPC   PO445120  20.315  34.587   5.369
 3450POPC   GL145121  20.173  34.561   5.804
 3450POPC   GL245122  19.945  34.270   5.897
 3450POPC   C1A45123  20.025  34.645   6.233
 3450POPC   D2A45124  19.864  34.547   6.645
 3450POPC   C3A45125  19.908  34.855   6.924
 3450POPC   C4A45126  19.889  34.807   7.352
 3450POPC   C1B45127  19.583  34.371   6.235
 3450POPC   C2B45128  19.346  34.589   6.604
 3450POPC   C3B45129  19.487  34.529   7.041
 3450POPC   C4B45130  19.368  34.245   7.353
 3451POPC   NC345131  14.344  44.928   5.190
 3451POPC   PO445132  14.478  44.286   5.384
 3451POPC   GL145133  14.350  44.555   5.737
 3451POPC   GL245134  14.169  44.862   5.722
 3451POPC   C1A45135  14.483  44.759   6.136
 3451POPC   D2A45136  14.273  44.612   6.498
 3451POPC   C3A45137  14.423  44.536   6.892
 3451POPC   C4A45138  14.525  44.832   7.215
 3451POPC   C1B45139  13.963  44.847   6.128
 3451POPC   C2B45140  13.968   0.016   6.529
 3451POPC   C3B45141  14.173   0.015   6.891
 3451POPC   C4B45142  14.009  44.930   7.282
 3452POPC   NC345143  26.829  39.444   5.520
 3452POPC   PO445144  26.992  38.861   5.299
 3452POPC   GL145145  27.119  39.099   5.744
 3452POPC   GL245146  27.138  39.493   5.898
 3452POPC   C1A45147  26.891  39.134   6.145
 3452POPC   D2A45148  26.950  39.234   6.568
 3452POPC   C3A45149  26.869  38.939   6.882
 3452POPC   C4A45150  26.748  39.047   7.297
 3452POPC   C1B45151  27.179  39.739   6.273
 3452POPC   C2B45152  26.925  39.766   6.664
 3452POPC   C3B45153  26.944  39.481   7.028
 3452POPC   C4B45154  27.170  39.496   7.418
 3453POPC   NC345155  10.605  14.803   5.295
 3453POPC   PO445156  10.312  15.337   5.410
 3453POPC   GL145157  10.455  15.003   5.742
 3453POPC   GL245158  10.826  14.879   5.759
 3453POPC   C1A45159  10.252  14.893   6.142
 3453POPC   D2A45160  10.316  15.152   6.507
 3453POPC   C3A45161  10.310  14.940   6.870
 3453POPC   C4A45162  10.173  15.117   7.219
 3453POPC   C1B45163  10.738  15.116   6.170
 3453POPC   C2B45164  10.905  15.140   6.603
 3453POPC   C3B45165  10.907  15.043   7.045
 3453POPC   C4B45166  10.635  15.176   7.413
 3454POPC   NC345167  14.720  40.170   5.333
 3454POPC   PO445168  14.243  39.758   5.393
 3454POPC   GL145169  14.326  39.957   5.773
 3454POPC   GL245170  14.453  40.317   5.760
 3454POPC   C1A45171  14.102  39.934   6.172
 3454POPC   D2A45172  14.293  39.980   6.560
 3454POPC   C3A45173  14.094  40.110   6.882
 3454POPC   C4A45174  14.148  39.830   7.212
 3454POPC   C1B45175  14.592  40.181   6.192
 3454POPC   C2B45176  14.789  40.092   6.611
 3454POPC   C3B45177  14.585  40.161   6.994
 3454POPC   C4B45178  14.382  40.259   7.371
 3455POPC   NC345179  17.662  11.971   5.588
 3455POPC   PO445180  18.057  12.490   5.403
 3455POPC   GL145181  17.850  12.406   5.807
 3455POPC   GL245182  17.488  12.386   5.849
 3455POPC   C1A45183  17.808  12.300   6.270
 3455POPC   D2A45184  17.546  12.412   6.655
 3455POPC   C3A45185  17.588  12.129   7.008
 3455POPC   C4A45186  17.793  12.156   7.395
 3455POPC   C1B45187  17.251  12.312   6.223
 3455POPC   C2B45188  17.010  12.401   6.603
 3455POPC   C3B45189  17.131  12.459   7.025
 3455POPC   C4B45190  17.314  12.319   7.422
 3456POPC   NC345191  14.148  16.493   5.506
 3456POPC   PO445192  13.447  16.602   5.423
 3456POPC   GL145193  13.755  16.711   5.769
 3456POPC   GL245194  13.889  16.381   5.923
 3456POPC   C1A45195  13.811  16.791   6.242
 3456POPC   D2A45196  13.850  16.569   6.665
 3456POPC   C3A45197  13.780  16.818   7.041
 3456POPC   C4A45198  13.383  16.827   7.293
 3456POPC   C1B45199  13.688  16.249   6.298
 3456POPC   C2B45200  13.666  16.088   6.744
 3456POPC   C3B45201  13.578  16.347   7.101
 3456POPC   C4B45202  13.354  16.361   7.515
 3457POPC   NC345203  43.501  30.091   5.637
 3457POPC   PO445204  43.140  29.584   5.324
 3457POPC   GL145205  43.062  29.824   5.744
 3457POPC   GL245206  42.769  30.056   5.744
 3457POPC   C1A45207  43.118  29.941   6.176
 3457POPC   D2A45208  43.254  29.784   6.600
 3457POPC   C3A45209  43.028  29.958   6.950
 3457POPC   C4A45210  43.097  29.939   7.335
 3457POPC   C1B45211  42.756  30.312   6.114
 3457POPC   C2B45212  42.590  30.359   6.515
 3457POPC   C3B45213  42.667  30.331   6.933
 3457POPC   C4B45214  42.845  30.383   7.323
 3458POPC   NC345215  36.495  40.745   5.499
 3458POPC   PO445216  37.037  40.983   5.203
 3458POPC   GL145217  37.006  40.869   5.691
 3458POPC   GL245218  36.749  41.058   5.865
 3458POPC   C1A45219  36.779  40.629   6.121
 3458POPC   D2A45220  36.664  40.471   6.557
 3458POPC   C3A45221  36.857  40.563   6.996
 3458POPC   C4A45222  36.792  40.976   7.240
 3458POPC   C1B45223  37.122  40.991   6.165
 3458POPC   C2B45224  37.247  41.110   6.551
 3458POPC   C3B45225  37.032  41.291   6.901
 3458POPC   C4B45226  37.195  41.267   7.322
 3459POPC   NC345227  28.699  36.478   5.414
 3459POPC   PO445228  28.601  35.795   5.469
 3459POPC   GL145229  28.476  36.123   5.764
 3459POPC   GL245230  28.182  36.297   5.703
 3459POPC   C1A45231  28.515  36.255   6.238
 3459POPC   D2A45232  28.581  36.101   6.666
 3459POPC   C3A45233  28.775  36.243   7.031
 3459POPC   C4A45234  28.483  36.056   7.337
 3459POPC   C1B45235  28.108  36.010   6.081
 3459POPC   C2B45236  28.102  36.007   6.546
 3459POPC   C3B45237  28.001  36.035   7.020
 3459POPC   C4B45238  28.039  35.782   7.436
 3460POPC   NC345239  41.044  26.455   5.619
 3460POPC   PO445240  41.401  25.944   5.226
 3460POPC   GL145241  41.574  25.914   5.664
 3460POPC   GL245242  41.703  26.276   5.682
 3460POPC   C1A45243  41.471  25.747   6.114
 3460POPC   D2A45244  41.468  25.812   6.591
 3460POPC   C3A45245  41.336  25.679   7.020
 3460POPC   C4A45246  41.565  25.904   7.258
 3460POPC   C1B45247  41.536  26.263   6.089
 3460POPC   C2B45248  41.657  26.368   6.504
 3460POPC   C3B45249  41.480  26.276   6.878
 3460POPC   C4B45250  41.615  26.401   7.278
 3461POPC   NC345251  16.238  32.594   5.383
 3461POPC   PO445252  15.859  33.092   5.134
 3461POPC   GL145253  16.053  33.048   5.573
 3461POPC   GL245254  15.811  32.907   5.793
 3461POPC   C1A45255  16.317  33.105   5.999
 3461POPC   D2A45256  16.406  33.160   6.475
 3461POPC   C3A45257  16.171  32.954   6.812
 3461POPC   C4A45258  16.110  32.988   7.270
 3461POPC   C1B45259  15.591  33.025   6.184
 3461POPC   C2B45260  15.659  32.928   6.615
 3461POPC   C3B45261  15.730  33.169   6.960
 3461POPC   C4B45262  15.629  33.200   7.355
 3462POPC   NC345263  33.199  16.691   5.374
 3462POPC   PO445264  32.761  17.100   5.594
 3462POPC   GL145265  33.043  16.873   5.833
 3462POPC   GL245266  32.970  16.508   5.807
 3462POPC   C1A45267  33.216  16.776   6.217
 3462POPC   D2A45268  33.028  16.796   6.615
 3462POPC   C3A45269  33.251  16.557   6.946
 3462POPC   C4A45270  33.389  16.513   7.400
 3462POPC   C1B45271  32.721  16.560   6.185
 3462POPC   C2B45272  32.728  16.388   6.601
 3462POPC   C3B45273  32.709  16.629   6.985
 3462POPC   C4B45274  32.900  16.487   7.321
 3463POPC   NC345275  43.971  44.892   5.353
 3463POPC   PO445276  43.615  44.406   5.543
 3463POPC   GL145277  43.905  44.540   5.814
 3463POPC   GL245278  43.845  44.887   5.859
 3463POPC   C1A45279  43.901  44.528   6.236
 3463POPC   D2A45280  44.070  44.615   6.616
 3463POPC   C3A45281  44.014  44.406   7.019
 3463POPC   C4A45282  43.869  44.505   7.450
 3463POPC   C1B45283  43.988   0.068   6.286
 3463POPC   C2B45284  44.041   0.095   6.752
 3463POPC   C3B45285  43.991  44.918   7.179
 3463POPC   C4B45286  44.063  44.940   7.671
 3464POPC   NC345287  18.016   1.296   5.411
 3464POPC   PO445288  17.436   0.994   5.143
 3464POPC   GL145289  17.419   0.985   5.627
 3464POPC   GL245290  17.628   1.272   5.729
 3464POPC   C1A45291  17.288   1.138   6.076
 3464POPC   D2A45292  17.280   1.540   6.314
 3464POPC   C3A45293  17.288   1.495   6.778
 3464POPC   C4A45294  17.319   1.172   7.119
 3464POPC   C1B45295  17.792   1.418   6.107
 3464POPC   C2B45296  17.746   1.337   6.530
 3464POPC   C3B45297  17.795   1.420   6.953
 3464POPC   C4B45298  17.901   1.383   7.365
 3465POPC   NC345299  32.048  27.163   5.177
 3465POPC   PO445300  32.125  26.554   5.506
 3465POPC   GL145301  32.230  26.631   5.932
 3465POPC   GL245302  32.491  26.395   6.001
 3465POPC   C1A45303  32.215  26.978   6.257
 3465POPC   D2A45304  32.097  27.209   6.624
 3465POPC   C3A45305  32.311  27.128   6.973
 3465POPC   C4A45306  32.731  27.213   7.158
 3465POPC   C1B45307  32.379  26.419   6.394
 3465POPC   C2B45308  32.266  26.684   6.684
 3465POPC   C3B45309  32.125  26.678   7.091
 3465POPC   C4B45310  32.145  26.924   7.452
 3466POPC   NC345311  34.192   2.585   5.383
 3466POPC   PO445312  34.845   2.842   5.259
 3466POPC   GL145313  34.840   2.914   5.723
 3466POPC   GL245314  34.490   2.982   5.868
 3466POPC   C1A45315  34.892   2.686   6.147
 3466POPC   D2A45316  34.948   2.816   6.595
 3466POPC   C3A45317  34.822   2.625   6.980
 3466POPC   C4A45318  34.943   2.424   7.363
 3466POPC   C1B45319  34.546   3.050   6.360
 3466POPC   C2B45320  34.420   2.904   6.826
 3466POPC   C3B45321  34.185   3.125   7.214
 3466POPC   C4B45322  34.318   3.124   7.658
 3467POPC   NC345323  27.758  41.412   5.554
 3467POPC   PO445324  27.230  41.738   5.257
 3467POPC   GL145325  27.301  41.573   5.732
 3467POPC   GL245326  27.534  41.784   5.926
 3467POPC   C1A45327  27.493  41.367   6.177
 3467POPC   D2A45328  27.773  41.281   6.580
 3467POPC   C3A45329  27.587  41.289   6.995
 3467POPC   C4A45330  27.240  41.523   7.155
 3467POPC   C1B45331  27.877  41.700   6.268
 3467POPC   C2B45332  27.816  41.786   6.682
 3467POPC   C3B45333  27.630  41.818   7.041
 3467POPC   C4B45334  27.863  41.835   7.379
 3468POPC   NC345335  16.884   7.314   5.613
 3468POPC   PO445336  16.336   7.596   5.557
 3468POPC   GL145337  16.522   7.503   5.917
 3468POPC   GL245338  16.514   7.135   5.909
 3468POPC   C1A45339  16.586   7.723   6.296
 3468POPC   D2A45340  16.872   7.623   6.648
 3468POPC   C3A45341  16.679   7.736   7.035
 3468POPC   C4A45342  16.664   7.485   7.369
 3468POPC   C1B45343  16.794   7.266   6.270
 3468POPC   C2B45344  16.968   7.080   6.609
 3468POPC   C3B45345  16.802   7.099   7.015
 3468POPC   C4B45346  17.053   7.109   7.361
 3469POPC   NC345347  44.488   7.784   5.559
 3469POPC   PO445348  44.647   8.439   5.590
 3469POPC   GL145349  44.482   8.175   5.910
 3469POPC   GL245350  44.298   8.424   6.103
 3469POPC   C1A45351  44.715   8.024   6.305
 3469POPC   D2A45352  44.932   8.204   6.702
 3469POPC   C3A45353  44.806   8.147   7.137
 3469POPC   C4A45354  44.942   8.389   7.563
 3469POPC   C1B45355  44.206   8.054   6.339
 3469POPC   C2B45356  44.405   7.884   6.732
 3469POPC   C3B45357  44.289   8.108   7.109
 3469POPC   C4B45358  44.453   8.511   7.309
 3470POPC   NC345359  27.232  17.417   5.568
 3470POPC   PO445360  27.826  17.238   5.261
 3470POPC   GL145361  27.696  17.281   5.715
 3470POPC   GL245362  28.044  17.227   5.758
 3470POPC   C1A45363  27.493  17.536   6.134
 3470POPC   D2A45364  27.677  17.661   6.516
 3470POPC   C3A45365  27.451  17.672   6.900
 3470POPC   C4A45366  27.583  17.592   7.298
 3470POPC   C1B45367  27.951  17.321   6.161
 3470POPC   C2B45368  27.904  17.202   6.556
 3470POPC   C3B45369  27.909  17.391   6.943
 3470POPC   C4B45370  27.832  17.134   7.267
 3471POPC   NC345371  32.131  18.605   5.401
 3471POPC   PO445372  32.438  18.048   5.519
 3471POPC   GL145373  32.393  18.412   5.802
 3471POPC   GL245374  32.048  18.481   5.898
 3471POPC   C1A45375  32.466  18.385   6.224
 3471POPC   D2A45376  32.260  18.177   6.549
 3471POPC   C3A45377  32.348  18.436   6.884
 3471POPC   C4A45378  32.567  18.338   7.233
 3471POPC   C1B45379  31.964  18.558   6.351
 3471POPC   C2B45380  31.834  18.485   6.788
 3471POPC   C3B45381  31.950  18.322   7.177
 3471POPC   C4B45382  32.174  18.680   7.368
 3472POPC   NC345383  21.151  27.467   5.619
 3472POPC   PO445384  21.728  27.863   5.530
 3472POPC   GL145385  21.536  27.718   5.898
 3472POPC   GL245386  21.239  27.946   5.789
 3472POPC   C1A45387  21.546  27.666   6.394
 3472POPC   D2A45388  21.160  27.522   6.640
 3472POPC   C3A45389  21.186  27.356   7.067
 3472POPC   C4A45390  21.593  27.346   7.296
 3472POPC   C1B45391  21.355  28.086   6.194
 3472POPC   C2B45392  21.480  28.146   6.630
 3472POPC   C3B45393  21.497  27.804   6.937
 3472POPC   C4B45394  21.286  27.774   7.330
 3473POPC   NC345395  38.137   8.977   5.485
 3473POPC   PO445396  38.864   9.205   5.447
 3473POPC   GL145397  38.652   8.917   5.717
 3473POPC   GL245398  38.907   8.986   5.946
 3473POPC   C1A45399  38.430   8.849   6.115
 3473POPC   D2A45400  38.081   8.890   6.407
 3473POPC   C3A45401  38.183   8.887   6.835
 3473POPC   C4A45402  38.291   8.869   7.252
 3473POPC   C1B45403  38.790   9.163   6.338
 3473POPC   C2B45404  38.721   8.938   6.719
 3473POPC   C3B45405  38.739   9.055   7.129
 3473POPC   C4B45406  38.524   9.289   7.443
 3474POPC   NC345407   2.209  17.775   5.469
 3474POPC   PO445408   2.305  17.180   5.827
 3474POPC   GL145409   2.119  17.555   5.906
 3474POPC   GL245410   1.817  17.411   5.956
 3474POPC   C1A45411   1.964  17.887   6.209
 3474POPC   D2A45412   2.145  17.997   6.643
 3474POPC   C3A45413   2.060  17.721   6.982
 3474POPC   C4A45414   1.705  17.485   7.125
 3474POPC   C1B45415   2.020  17.404   6.381
 3474POPC   C2B45416   1.946  17.196   6.744
 3474POPC   C3B45417   2.212  17.215   7.082
 3474POPC   C4B45418   2.377  17.473   7.295
 3475POPC   NC345419  31.325  29.398   5.472
 3475POPC   PO445420  31.455  30.081   5.537
 3475POPC   GL145421  31.401  29.752   5.837
 3475POPC   GL245422  31.068  29.765   5.795
 3475POPC   C1A45423  31.546  29.756   6.251
 3475POPC   D2A45424  31.662  29.992   6.578
 3475POPC   C3A45425  31.540  29.845   6.974
 3475POPC   C4A45426  31.718  29.992   7.389
 3475POPC   C1B45427  31.096  30.050   6.132
 3475POPC   C2B45428  31.139  29.979   6.555
 3475POPC   C3B45429  31.121  30.177   6.940
 3475POPC   C4B45430  31.238  30.078   7.295
 3476POPC   NC345431  15.191  16.152   5.384
 3476POPC   PO445432  15.111  15.488   5.254
 3476POPC   GL145433  15.201  15.728   5.663
 3476POPC   GL245434  14.900  15.929   5.751
 3476POPC   C1A45435  15.272  15.909   6.114
 3476POPC   D2A45436  15.106  15.755   6.533
 3476POPC   C3A45437  15.167  15.996   6.924
 3476POPC   C4A45438  15.340  15.906   7.338
 3476POPC   C1B45439  14.781  16.058   6.149
 3476POPC   C2B45440  14.872  16.231   6.552
 3476POPC   C3B45441  14.677  16.128   6.940
 3476POPC   C4B45442  14.802  15.902   7.311
 3477POPC   NC345443   5.152  19.572   5.566
 3477POPC   PO445444   5.199  20.269   5.611
 3477POPC   GL145445   5.066  19.948   5.900
 3477POPC   GL245446   4.759  19.777   5.834
 3477POPC   C1A45447   5.159  19.719   6.258
 3477POPC   D2A45448   5.203  19.971   6.617
 3477POPC   C3A45449   5.369  19.688   6.904
 3477POPC   C4A45450   5.553  19.648   7.264
 3477POPC   C1B45451   4.656  19.795   6.260
 3477POPC   C2B45452   4.816  19.652   6.644
 3477POPC   C3B45453   4.906  19.832   7.033
 3477POPC   C4B45454   4.755  19.747   7.395
 3478POPC   NC345455  18.814  34.431   5.523
 3478POPC   PO445456  19.518  34.316   5.574
 3478POPC   GL145457  19.209  34.390   5.863
 3478POPC   GL245458  19.102  34.742   5.828
 3478POPC   C1A45459  19.065  34.227   6.257
 3478POPC   D2A45460  18.761  34.303   6.604
 3478POPC   C3A45461  18.968  34.405   7.011
 3478POPC   C4A45462  19.100  34.675   7.391
 3478POPC   C1B45463  18.781  34.641   6.167
 3478POPC   C2B45464  18.737  34.833   6.590
 3478POPC   C3B45465  19.027  34.904   6.939
 3478POPC   C4B45466  19.434  35.014   7.181
 3479POPC   NC345467  11.414  26.494   5.398
 3479POPC   PO445468  11.553  27.123   5.139
 3479POPC   GL145469  11.273  27.044   5.597
 3479POPC   GL245470  11.246  26.715   5.810
 3479POPC   C1A45471  11.313  27.118   6.091
 3479POPC   D2A45472  11.149  26.898   6.488
 3479POPC   C3A45473  11.391  26.897   6.862
 3479POPC   C4A45474  11.449  27.046   7.278
 3479POPC   C1B45475  11.085  26.498   6.183
 3479POPC   C2B45476  10.840  26.488   6.577
 3479POPC   C3B45477  10.928  26.548   7.018
 3479POPC   C4B45478  11.296  26.542   7.212
 3480POPC   NC345479  31.932  38.990   5.251
 3480POPC   PO445480  31.284  39.176   5.413
 3480POPC   GL145481  31.293  39.353   5.825
 3480POPC   GL245482  31.649  39.327   5.899
 3480POPC   C1A45483  31.307  39.203   6.254
 3480POPC   D2A45484  31.133  39.210   6.646
 3480POPC   C3A45485  31.346  39.035   6.899
 3480POPC   C4A45486  31.234  39.183   7.252
 3480POPC   C1B45487  31.845  39.224   6.294
 3480POPC   C2B45488  31.693  39.365   6.683
 3480POPC   C3B45489  31.690  39.348   7.129
 3480POPC   C4B45490  31.758  39.588   7.476
 3481POPC   NC345491  31.988   6.427   5.451
 3481POPC   PO445492  32.456   6.962   5.431
 3481POPC   GL145493  32.241   6.728   5.772
 3481POPC   GL245494  31.979   6.904   5.867
 3481POPC   C1A45495  32.254   6.468   6.155
 3481POPC   D2A45496  32.464   6.594   6.539
 3481POPC   C3A45497  32.518   6.400   6.956
 3481POPC   C4A45498  32.387   6.607   7.346
 3481POPC   C1B45499  32.184   6.944   6.274
 3481POPC   C2B45500  32.000   6.978   6.663
 3481POPC   C3B45501  31.933   6.994   7.094
 3481POPC   C4B45502  32.043   6.990   7.514
 3482POPC   NC345503  31.996   7.141   5.392
 3482POPC   PO445504  32.226   7.753   5.556
 3482POPC   GL145505  32.162   7.407   5.817
 3482POPC   GL245506  32.442   7.194   5.880
 3482POPC   C1A45507  32.170   7.441   6.242
 3482POPC   D2A45508  31.972   7.527   6.608
 3482POPC   C3A45509  32.238   7.403   6.907
 3482POPC   C4A45510  32.084   7.450   7.294
 3482POPC   C1B45511  32.675   6.956   6.150
 3482POPC   C2B45512  32.631   7.079   6.574
 3482POPC   C3B45513  32.445   6.922   6.934
 3482POPC   C4B45514  32.459   7.118   7.286
 3483POPC   NC345515  34.415   0.273   5.279
 3483POPC   PO445516  34.964   0.576   5.502
 3483POPC   GL145517  34.588   0.450   5.746
 3483POPC   GL245518  34.437   0.743   5.921
 3483POPC   C1A45519  34.378   0.284   6.123
 3483POPC   D2A45520  34.397   0.425   6.543
 3483POPC   C3A45521  34.533   0.259   6.928
 3483POPC   C4A45522  34.370   0.372   7.349
 3483POPC   C1B45523  34.782   0.644   6.203
 3483POPC   C2B45524  34.860   0.588   6.633
 3483POPC   C3B45525  34.594   0.769   6.979
 3483POPC   C4B45526  34.697   0.750   7.408
 3484POPC   NC345527   1.754  21.530   5.479
 3484POPC   PO445528   2.369  21.280   5.431
 3484POPC   GL145529   2.113  21.295   5.794
 3484POPC   GL245530   1.807  21.118   5.861
 3484POPC   C1A45531   1.947  21.577   6.092
 3484POPC   D2A45532   1.996  21.543   6.516
 3484POPC   C3A45533   1.682  21.591   6.813
 3484POPC   C4A45534   1.804  21.701   7.239
 3484POPC   C1B45535   1.952  21.071   6.251
 3484POPC   C2B45536   1.771  21.096   6.617
 3484POPC   C3B45537   1.957  21.185   6.951
 3484POPC   C4B45538   1.771  21.202   7.295
 3485POPC   NC345539  26.382  36.483   5.349
 3485POPC   PO445540  26.735  35.908   5.289
 3485POPC   GL145541  26.793  36.091   5.712
 3485POPC   GL245542  26.622  36.415   5.807
 3485POPC   C1A45543  26.758  36.051   6.166
 3485POPC   D2A45544  26.882  36.186   6.576
 3485POPC   C3A45545  26.936  35.839   6.901
 3485POPC   C4A45546  26.881  35.931   7.338
 3485POPC   C1B45547  26.459  36.433   6.257
 3485POPC   C2B45548  26.423  36.371   6.700
 3485POPC   C3B45549  26.711  36.415   7.018
 3485POPC   C4B45550  26.684  36.377   7.436
 3486POPC   NC345551  33.492   2.812   5.441
 3486POPC   PO445552  34.135   3.082   5.403
 3486POPC   GL145553  33.930   2.933   5.767
 3486POPC   GL245554  33.959   2.579   5.839
 3486POPC   C1A45555  34.042   2.934   6.216
 3486POPC   D2A45556  33.976   2.621   6.565
 3486POPC   C3A45557  33.964   2.736   7.004
 3486POPC   C4A45558  33.651   3.021   7.201
 3486POPC   C1B45559  33.557   2.583   6.074
 3486POPC   C2B45560  33.382   2.499   6.481
 3486POPC   C3B45561  33.493   2.666   6.848
 3486POPC   C4B45562  33.604   2.498   7.272
 3487POPC   NC345563  19.244  30.466   5.364
 3487POPC   PO445564  19.002  31.023   5.411
 3487POPC   GL145565  19.154  30.804   5.781
 3487POPC   GL245566  19.317  31.062   5.943
 3487POPC   C1A45567  19.104  30.703   6.259
 3487POPC   D2A45568  18.824  30.667   6.663
 3487POPC   C3A45569  18.956  30.480   7.100
 3487POPC   C4A45570  19.248  30.258   7.401
 3487POPC   C1B45571  19.353  31.160   6.404
 3487POPC   C2B45572  19.308  30.867   6.715
 3487POPC   C3B45573  19.234  30.917   7.109
 3487POPC   C4B45574  19.144  30.778   7.493
 3488POPC   NC345575  24.485   4.770   5.490
 3488POPC   PO445576  24.153   5.305   5.593
 3488POPC   GL145577  24.413   5.114   5.853
 3488POPC   GL245578  24.141   4.849   5.861
 3488POPC   C1A45579  24.649   4.884   6.186
 3488POPC   D2A45580  24.688   4.698   6.619
 3488POPC   C3A45581  24.621   5.007   6.988
 3488POPC   C4A45582  24.392   5.126   7.389
 3488POPC   C1B45583  24.159   5.050   6.260
 3488POPC   C2B45584  24.256   4.964   6.619
 3488POPC   C3B45585  24.134   5.198   6.919
 3488POPC   C4B45586  23.941   5.001   7.157
 3489POPC   NC345587  36.267  18.522   5.374
 3489POPC   PO445588  36.325  19.163   5.328
 3489POPC   GL145589  36.273  18.957   5.716
 3489POPC   GL245590  36.506  19.192   5.842
 3489POPC   C1A45591  36.157  18.973   6.161
 3489POPC   D2A45592  35.870  19.019   6.529
 3489POPC   C3A45593  36.022  19.069   6.995
 3489POPC   C4A45594  36.005  19.387   7.335
 3489POPC   C1B45595  36.499  19.359   6.237
 3489POPC   C2B45596  36.333  19.242   6.609
 3489POPC   C3B45597  36.379  19.449   6.982
 3489POPC   C4B45598  36.543  19.218   7.270
 3490POPC   NC345599   8.826  39.604   5.400
 3490POPC   PO445600   8.724  38.859   5.353
 3490POPC   GL145601   8.798  39.167   5.741
 3490POPC   GL245602   8.645  39.491   5.862
 3490POPC   C1A45603   8.984  39.279   6.184
 3490POPC   D2A45604   9.290  39.254   6.539
 3490POPC   C3A45605   9.157  39.010   6.927
 3490POPC   C4A45606   9.006  39.002   7.356
 3490POPC   C1B45607   8.691  39.711   6.274
 3490POPC   C2B45608   8.890  39.566   6.682
 3490POPC   C3B45609   8.761  39.428   7.093
 3490POPC   C4B45610   8.568  39.742   7.379
 3491POPC   NC345611   4.661  41.429   5.399
 3491POPC   PO445612   5.342  41.721   5.419
 3491POPC   GL145613   5.196  41.466   5.786
 3491POPC   GL245614   5.384  41.156   5.831
 3491POPC   C1A45615   4.974  41.613   6.194
 3491POPC   D2A45616   4.856  41.811   6.617
 3491POPC   C3A45617   5.068  41.718   7.032
 3491POPC   C4A45618   4.967  41.368   7.325
 3491POPC   C1B45619   5.308  41.241   6.269
 3491POPC   C2B45620   5.224  41.399   6.646
 3491POPC   C3B45621   5.389  41.314   7.030
 3491POPC   C4B45622   5.462  41.493   7.410
 3492POPC   NC345623   4.992   4.774   5.346
 3492POPC   PO445624   4.837   4.099   5.421
 3492POPC   GL145625   5.029   4.369   5.728
 3492POPC   GL245626   4.988   4.716   5.834
 3492POPC   C1A45627   5.170   4.343   6.145
 3492POPC   D2A45628   5.110   4.016   6.430
 3492POPC   C3A45629   5.006   4.195   6.813
 3492POPC   C4A45630   5.128   4.099   7.217
 3492POPC   C1B45631   4.959   4.810   6.236
 3492POPC   C2B45632   5.134   4.654   6.584
 3492POPC   C3B45633   4.975   4.680   6.973
 3492POPC   C4B45634   5.050   4.588   7.343
 3493POPC   NC345635  12.068  34.875   5.490
 3493POPC   PO445636  12.375  34.247   5.276
 3493POPC   GL145637  12.219  34.310   5.706
 3493POPC   GL245638  11.915  34.285   5.877
 3493POPC   C1A45639  12.417  34.337   6.109
 3493POPC   D2A45640  12.336  34.522   6.522
 3493POPC   C3A45641  12.430  34.346   6.924
 3493POPC   C4A45642  12.057  34.218   7.141
 3493POPC   C1B45643  11.993  34.661   6.124
 3493POPC   C2B45644  11.988  34.896   6.516
 3493POPC   C3B45645  12.088  34.791   6.927
 3493POPC   C4B45646  11.841  34.887   7.287
 3494POPC   NC345647  20.176  29.168   5.434
 3494POPC   PO445648  19.707  28.835   5.291
 3494POPC   GL145649  19.778  29.049   5.748
 3494POPC   GL245650  19.569  29.274   5.904
 3494POPC   C1A45651  19.935  29.052   6.202
 3494POPC   D2A45652  20.164  29.134   6.560
 3494POPC   C3A45653  19.987  29.020   6.951
 3494POPC   C4A45654  20.217  29.218   7.295
 3494POPC   C1B45655  19.713  29.505   6.272
 3494POPC   C2B45656  19.721  29.386   6.684
 3494POPC   C3B45657  19.845  29.497   7.076
 3494POPC   C4B45658  19.726  29.191   7.382
 3495POPC   NC345659   7.004  20.852   5.639
 3495POPC   PO445660   6.425  20.574   5.405
 3495POPC   GL145661   6.570  20.569   5.821
 3495POPC   GL245662   6.525  20.912   5.829
 3495POPC   C1A45663   6.573  20.373   6.249
 3495POPC   D2A45664   6.804  20.268   6.637
 3495POPC   C3A45665   6.738  20.441   7.073
 3495POPC   C4A45666   7.047  20.728   7.290
 3495POPC   C1B45667   6.693  20.880   6.248
 3495POPC   C2B45668   6.601  20.757   6.668
 3495POPC   C3B45669   6.670  20.975   7.052
 3495POPC   C4B45670   6.490  21.059   7.429
 3496POPC   NC345671  23.658  36.795   5.536
 3496POPC   PO445672  23.948  37.348   5.647
 3496POPC   GL145673  23.759  37.104   5.944
 3496POPC   GL245674  23.413  37.154   5.954
 3496POPC   C1A45675  23.700  37.028   6.383
 3496POPC   D2A45676  23.660  36.982   6.813
 3496POPC   C3A45677  23.896  36.662   7.025
 3496POPC   C4A45678  23.885  36.999   7.298
 3496POPC   C1B45679  23.388  36.702   6.139
 3496POPC   C2B45680  23.452  36.566   6.564
 3496POPC   C3B45681  23.379  36.584   6.997
 3496POPC   C4B45682  23.519  36.642   7.441
 3497POPC   NC345683  30.634  34.122   5.472
 3497POPC   PO445684  30.908  34.753   5.480
 3497POPC   GL145685  30.991  34.623   5.900
 3497POPC   GL245686  30.877  34.280   5.889
 3497POPC   C1A45687  30.827  34.610   6.288
 3497POPC   D2A45688  30.978  34.609   6.662
 3497POPC   C3A45689  30.608  34.622   6.904
 3497POPC   C4A45690  30.719  34.582   7.299
 3497POPC   C1B45691  30.757  34.082   6.291
 3497POPC   C2B45692  30.719  34.140   6.722
 3497POPC   C3B45693  30.464  34.162   7.072
 3497POPC   C4B45694  30.517  34.192   7.524
 3498POPC   NC345695  39.418  18.159   5.367
 3498POPC   PO445696  38.816  18.266   5.676
 3498POPC   GL145697  39.217  18.320   5.809
 3498POPC   GL245698  39.313  18.655   5.704
 3498POPC   C1A45699  39.387  18.080   6.168
 3498POPC   D2A45700  39.177  17.821   6.493
 3498POPC   C3A45701  39.270  17.924   6.915
 3498POPC   C4A45702  39.023  18.250   7.127
 3498POPC   C1B45703  39.467  18.598   6.136
 3498POPC   C2B45704  39.463  18.430   6.575
 3498POPC   C3B45705  39.356  18.639   6.960
 3498POPC   C4B45706  39.351  18.563   7.371
 3499POPC   NC345707  40.289  18.174   5.404
 3499POPC   PO445708  39.723  18.505   5.425
 3499POPC   GL145709  39.768  18.273   5.827
 3499POPC   GL245710  40.122  18.125   5.882
 3499POPC   C1A45711  39.857  18.273   6.292
 3499POPC   D2A45712  39.951  18.293   6.743
 3499POPC   C3A45713  39.636  18.228   7.100
 3499POPC   C4A45714  39.703  18.279   7.581
 3499POPC   C1B45715  40.366  18.285   6.251
 3499POPC   C2B45716  40.603  18.243   6.638
 3499POPC   C3B45717  40.389  18.364   7.016
 3499POPC   C4B45718  40.110  18.124   7.208
 3500POPC   NC345719  36.819  13.933   5.112
 3500POPC   PO445720  37.073  14.406   5.475
 3500POPC   GL145721  36.975  14.505   5.882
 3500POPC   GL245722  37.067  14.209   6.020
 3500POPC   C1A45723  36.722  14.506   6.274
 3500POPC   D2A45724  36.592  14.716   6.647
 3500POPC   C3A45725  36.845  14.525   6.941
 3500POPC   C4A45726  36.962  14.403   7.353
 3500POPC   C1B45727  36.847  13.990   6.324
 3500POPC   C2B45728  36.928  13.997   6.749
 3500POPC   C3B45729  37.142  13.984   7.106
 3500POPC   C4B45730  36.897  13.895   7.426
 3501POPC   NC345731  34.078  12.305   5.538
 3501POPC   PO445732  34.779  12.090   5.442
 3501POPC   GL145733  34.602  11.953   5.831
 3501POPC   GL245734  34.876  11.681   5.847
 3501POPC   C1A45735  34.453  12.152   6.215
 3501POPC   D2A45736  34.561  12.023   6.622
 3501POPC   C3A45737  34.525  12.231   6.992
 3501POPC   C4A45738  34.202  12.370   7.195
 3501POPC   C1B45739  34.926  11.896   6.242
 3501POPC   C2B45740  34.922  11.664   6.634
 3501POPC   C3B45741  34.765  11.779   7.034
 3501POPC   C4B45742  34.930  12.123   7.297
 3502POPC   NC345743  14.710  23.004   5.210
 3502POPC   PO445744  14.205  22.710   5.503
 3502POPC   GL145745  14.389  22.954   5.809
 3502POPC   GL245746  14.635  22.716   5.833
 3502POPC   C1A45747  14.543  23.027   6.227
 3502POPC   D2A45748  14.278  22.985   6.557
 3502POPC   C3A45749  14.463  23.028   6.914
 3502POPC   C4A45750  14.673  23.238   7.187
 3502POPC   C1B45751  14.264  22.611   6.156
 3502POPC   C2B45752  14.191  22.480   6.572
 3502POPC   C3B45753  14.145  22.629   6.964
 3502POPC   C4B45754  14.240  22.834   7.339
 3503POPC   NC345755  21.090  36.536   5.530
 3503POPC   PO445756  21.413  35.927   5.356
 3503POPC   GL145757  21.242  35.907   5.787
 3503POPC   GL245758  21.179  36.233   5.934
 3503POPC   C1A45759  21.350  35.819   6.214
 3503POPC   D2A45760  21.354  36.072   6.593
 3503POPC   C3A45761  21.200  35.880   6.962
 3503POPC   C4A45762  21.584  35.744   7.143
 3503POPC   C1B45763  20.921  36.507   6.165
 3503POPC   C2B45764  21.002  36.422   6.572
 3503POPC   C3B45765  21.183  36.423   6.975
 3503POPC   C4B45766  21.406  36.223   7.302
 3504POPC   NC345767  27.129  21.883   5.552
 3504POPC   PO445768  26.958  22.519   5.370
 3504POPC   GL145769  26.826  22.296   5.762
 3504POPC   GL245770  26.455  22.278   5.764
 3504POPC   C1A45771  26.744  22.399   6.212
 3504POPC   D2A45772  26.909  22.624   6.587
 3504POPC   C3A45773  26.918  22.384   7.007
 3504POPC   C4A45774  27.202  22.543   7.325
 3504POPC   C1B45775  26.468  21.976   6.111
 3504POPC   C2B45776  26.423  21.880   6.548
 3504POPC   C3B45777  26.393  21.711   6.964
 3504POPC   C4B45778  26.646  21.875   7.267
 3505POPC   NC345779  32.740  38.569   5.446
 3505POPC   PO445780  32.969  38.001   5.231
 3505POPC   GL145781  33.096  38.247   5.693
 3505POPC   GL245782  32.906  38.506   5.912
 3505POPC   C1A45783  33.309  38.340   6.148
 3505POPC   D2A45784  33.102  38.498   6.509
 3505POPC   C3A45785  33.206  38.463   6.927
 3505POPC   C4A45786  33.087  38.429   7.347
 3505POPC   C1B45787  32.645  38.421   6.241
 3505POPC   C2B45788  32.607  38.533   6.638
 3505POPC   C3B45789  32.663  38.508   7.047
 3505POPC   C4B45790  32.617  38.254   7.413
 3506POPC   NC345791  34.992  24.033   5.573
 3506POPC   PO445792  35.482  23.679   5.319
 3506POPC   GL145793  35.365  23.732   5.743
 3506POPC   GL245794  35.252  23.443   5.869
 3506POPC   C1A45795  35.344  23.868   6.186
 3506POPC   D2A45796  35.331  24.147   6.529
 3506POPC   C3A45797  35.323  23.974   6.937
 3506POPC   C4A45798  35.352  23.902   7.367
 3506POPC   C1B45799  35.078  23.431   6.285
 3506POPC   C2B45800  35.186  23.529   6.707
 3506POPC   C3B45801  35.071  23.491   7.138
 3506POPC   C4B45802  35.161  23.497   7.587
 3507POPC   NC345803  22.237  27.854   5.434
 3507POPC   PO445804  22.116  28.556   5.599
 3507POPC   GL145805  22.239  28.234   5.845
 3507POPC   GL245806  22.014  27.989   5.907
 3507POPC   C1A45807  22.356  28.330   6.244
 3507POPC   D2A45808  22.490  28.563   6.579
 3507POPC   C3A45809  22.368  28.387   6.923
 3507POPC   C4A45810  22.579  28.149   7.229
 3507POPC   C1B45811  21.841  28.217   6.230
 3507POPC   C2B45812  21.963  28.381   6.593
 3507POPC   C3B45813  21.886  28.171   6.943
 3507POPC   C4B45814  22.060  28.260   7.316
 3508POPC   NC345815   7.854   7.384   5.482
 3508POPC   PO445816   8.461   7.611   5.451
 3508POPC   GL145817   8.255   7.361   5.833
 3508POPC   GL245818   7.950   7.123   5.886
 3508POPC   C1A45819   8.102   7.400   6.290
 3508POPC   D2A45820   7.981   7.594   6.691
 3508POPC   C3A45821   8.242   7.523   7.068
 3508POPC   C4A45822   8.197   7.655   7.509
 3508POPC   C1B45823   7.693   7.026   6.219
 3508POPC   C2B45824   7.634   7.181   6.623
 3508POPC   C3B45825   7.881   7.166   6.977
 3508POPC   C4B45826   7.976   7.196   7.390
 3509POPC   NC345827  30.259  28.105   5.552
 3509POPC   PO445828  29.727  28.364   5.175
 3509POPC   GL145829  29.834  28.384   5.688
 3509POPC   GL245830  29.735  28.073   5.905
 3509POPC   C1A45831  29.844  28.506   6.173
 3509POPC   D2A45832  29.674  28.656   6.605
 3509POPC   C3A45833  29.764  28.486   7.048
 3509POPC   C4A45834  30.056  28.392   7.448
 3509POPC   C1B45835  30.045  28.029   6.256
 3509POPC   C2B45836  30.014  28.118   6.718
 3509POPC   C3B45837  29.912  28.011   7.160
 3509POPC   C4B45838  29.634  28.132   7.540
 3510POPC   NC345839  14.037  39.334   5.479
 3510POPC   PO445840  14.718  38.966   5.383
 3510POPC   GL145841  14.418  39.076   5.718
 3510POPC   GL245842  14.525  39.427   5.682
 3510POPC   C1A45843  14.122  39.162   6.106
 3510POPC   D2A45844  14.084  39.352   6.535
 3510POPC   C3A45845  14.402  39.183   6.823
 3510POPC   C4A45846  14.588  38.905   7.137
 3510POPC   C1B45847  14.453  39.567   6.098
 3510POPC   C2B45848  14.577  39.566   6.517
 3510POPC   C3B45849  14.562  39.665   6.927
 3510POPC   C4B45850  14.461  39.426   7.274
 3511POPC   NC345851  35.657  12.874   5.545
 3511POPC   PO445852  35.072  13.093   5.442
 3511POPC   GL145853  35.236  12.921   5.856
 3511POPC   GL245854  35.488  12.632   5.952
 3511POPC   C1A45855  35.134  12.810   6.270
 3511POPC   D2A45856  35.355  12.640   6.591
 3511POPC   C3A45857  35.285  12.899   6.935
 3511POPC   C4A45858  35.171  12.772   7.365
 3511POPC   C1B45859  35.632  12.954   6.237
 3511POPC   C2B45860  35.757  12.950   6.648
 3511POPC   C3B45861  35.740  12.680   6.978
 3511POPC   C4B45862  35.644  12.958   7.279
 3512POPC   NC345863   2.058  20.940   5.417
 3512POPC   PO445864   1.907  20.395   5.476
 3512POPC   GL145865   1.784  20.575   5.850
 3512POPC   GL245866   2.106  20.711   5.897
 3512POPC   C1A45867   1.827  20.515   6.306
 3512POPC   D2A45868   2.073  20.698   6.633
 3512POPC   C3A45869   1.888  20.690   7.050
 3512POPC   C4A45870   1.668  20.652   7.483
 3512POPC   C1B45871   2.320  20.408   6.189
 3512POPC   C2B45872   2.232  20.228   6.591
 3512POPC   C3B45873   2.004  20.204   6.993
 3512POPC   C4B45874   2.189  20.393   7.375
 3513POPC   NC345875  41.284  12.018   5.512
 3513POPC   PO445876  41.749  12.487   5.430
 3513POPC   GL145877  41.667  12.209   5.797
 3513POPC   GL245878  41.866  11.920   5.861
 3513POPC   C1A45879  41.436  11.963   6.138
 3513POPC   D2A45880  41.179  12.055   6.483
 3513POPC   C3A45881  41.448  11.956   6.838
 3513POPC   C4A45882  41.394  12.087   7.246
 3513POPC   C1B45883  41.873  12.218   6.260
 3513POPC   C2B45884  41.918  12.164   6.703
 3513POPC   C3B45885  41.859  12.243   7.130
 3513POPC   C4B45886  41.828  12.055   7.528
 3514POPC   NC345887  37.178   4.743   5.424
 3514POPC   PO445888  36.780   5.312   5.412
 3514POPC   GL145889  37.015   5.130   5.755
 3514POPC   GL245890  36.733   5.175   5.940
 3514POPC   C1A45891  37.139   4.970   6.177
 3514POPC   D2A45892  36.986   5.152   6.566
 3514POPC   C3A45893  37.199   5.061   6.942
 3514POPC   C4A45894  37.007   4.947   7.321
 3514POPC   C1B45895  36.634   4.834   6.189
 3514POPC   C2B45896  36.670   4.747   6.609
 3514POPC   C3B45897  36.584   4.884   7.004
 3514POPC   C4B45898  36.521   4.819   7.428
 3515POPC   NC345899  41.747  42.340   5.306
 3515POPC   PO445900  41.179  42.049   5.531
 3515POPC   GL145901  41.504  42.264   5.764
 3515POPC   GL245902  41.544  42.612   5.716
 3515POPC   C1A45903  41.711  42.185   6.173
 3515POPC   D2A45904  41.659  41.849   6.491
 3515POPC   C3A45905  41.585  42.026   6.912
 3515POPC   C4A45906  41.854  42.068   7.279
 3515POPC   C1B45907  41.371  42.601   6.141
 3515POPC   C2B45908  41.481  42.564   6.578
 3515POPC   C3B45909  41.326  42.498   6.981
 3515POPC   C4B45910  41.258  42.823   7.343
 3516POPC   NC345911  38.410  16.943   5.446
 3516POPC   PO445912  37.986  16.373   5.602
 3516POPC   GL145913  38.378  16.431   5.868
 3516POPC   GL245914  38.537  16.776   5.905
 3516POPC   C1A45915  38.575  16.425   6.299
 3516POPC   D2A45916  38.668  16.359   6.750
 3516POPC   C3A45917  38.443  16.434   7.109
 3516POPC   C4A45918  38.684  16.756   7.236
 3516POPC   C1B45919  38.374  16.908   6.301
 3516POPC   C2B45920  38.260  16.679   6.687
 3516POPC   C3B45921  38.213  16.877   7.114
 3516POPC   C4B45922  38.062  16.899   7.553
 3517POPC   NC345923  30.937   8.438   5.428
 3517POPC   PO445924  30.324   8.076   5.412
 3517POPC   GL145925  30.452   8.198   5.821
 3517POPC   GL245926  30.711   8.455   5.875
 3517POPC   C1A45927  30.625   8.096   6.219
 3517POPC   D2A45928  30.636   8.295   6.569
 3517POPC   C3A45929  30.375   8.150   6.868
 3517POPC   C4A45930  30.499   8.134   7.261
 3517POPC   C1B45931  31.046   8.534   6.196
 3517POPC   C2B45932  31.050   8.571   6.632
 3517POPC   C3B45933  30.986   8.256   6.954
 3517POPC   C4B45934  30.926   8.399   7.342
 3518POPC   NC345935  23.616  43.356   5.409
 3518POPC   PO445936  24.140  42.947   5.467
 3518POPC   GL145937  23.993  43.032   5.856
 3518POPC   GL245938  23.680  43.076   5.836
 3518POPC   C1A45939  23.905  43.155   6.286
 3518POPC   D2A45940  23.772  43.070   6.687
 3518POPC   C3A45941  23.989  43.063   7.083
 3518POPC   C4A45942  23.572  43.086   7.248
 3518POPC   C1B45943  23.554  43.439   6.065
 3518POPC   C2B45944  23.521  43.531   6.500
 3518POPC   C3B45945  23.352  43.349   6.878
 3518POPC   C4B45946  23.393  43.557   7.283
 3519POPC   NC345947  13.823  10.422   5.682
 3519POPC   PO445948  14.426  10.258   5.392
 3519POPC   GL145949  14.357  10.416   5.837
 3519POPC   GL245950  14.656  10.392   5.976
 3519POPC   C1A45951  14.321  10.684   6.262
 3519POPC   D2A45952  14.245  10.989   6.629
 3519POPC   C3A45953  14.343  10.824   7.036
 3519POPC   C4A45954  14.175  10.533   7.336
 3519POPC   C1B45955  14.479  10.215   6.366
 3519POPC   C2B45956  14.374  10.354   6.774
 3519POPC   C3B45957  14.574  10.319   7.147
 3519POPC   C4B45958  14.455  10.180   7.577
 3520POPC   NC345959  11.278  44.927   5.633
 3520POPC   PO445960  11.100  44.282   5.426
 3520POPC   GL145961  11.455  44.338   5.749
 3520POPC   GL245962  11.347  44.598   5.982
 3520POPC   C1A45963  11.605  44.258   6.198
 3520POPC   D2A45964  11.296  44.386   6.493
 3520POPC   C3A45965  11.457  44.329   6.900
 3520POPC   C4A45966  11.321  44.433   7.293
 3520POPC   C1B45967  11.276  44.896   6.314
 3520POPC   C2B45968  11.237  44.848   6.741
 3520POPC   C3B45969  11.297  44.924   7.159
 3520POPC   C4B45970  11.353   0.183   7.483
 3521POPC   NC345971  10.352  29.478   5.482
 3521POPC   PO445972  10.447  30.115   5.269
 3521POPC   GL145973  10.374  29.971   5.716
 3521POPC   GL245974  10.662  29.759   5.782
 3521POPC   C1A45975  10.304  30.083   6.202
 3521POPC   D2A45976  10.563  30.277   6.586
 3521POPC   C3A45977  10.457  30.142   7.027
 3521POPC   C4A45978  10.418  30.108   7.514
 3521POPC   C1B45979  10.506  29.617   6.174
 3521POPC   C2B45980  10.550  29.763   6.601
 3521POPC   C3B45981  10.826  29.807   6.977
 3521POPC   C4B45982  10.848  29.832   7.420
 3522POPC   NC345983  40.863  44.924   5.481
 3522POPC   PO445984  40.426  44.522   5.667
 3522POPC   GL145985  40.721  44.707   5.919
 3522POPC   GL245986  41.062  44.624   5.832
 3522POPC   C1A45987  40.714  44.756   6.319
 3522POPC   D2A45988  40.473  44.572   6.673
 3522POPC   C3A45989  40.677  44.692   7.086
 3522POPC   C4A45990  41.000  44.905   7.321
 3522POPC   C1B45991  41.101  44.377   6.172
 3522POPC   C2B45992  40.995  44.419   6.566
 3522POPC   C3B45993  40.809  44.256   6.869
 3522POPC   C4B45994  40.918  44.198   7.244
 3523POPC   NC345995  38.498   4.433   5.473
 3523POPC   PO445996  37.758   4.336   5.379
 3523POPC   GL145997  38.082   4.490   5.786
 3523POPC   GL245998  38.375   4.229   5.909
 3523POPC   C1A45999  38.313   4.594   6.227
 3523POPC   D2A46000  38.457   4.611   6.670
 3523POPC   C3A46001  38.196   4.410   7.010
 3523POPC   C4A46002  38.319   4.206   7.417
 3523POPC   C1B46003  38.603   4.192   6.326
 3523POPC   C2B46004  38.600   4.137   6.788
 3523POPC   C3B46005  38.762   4.160   7.172
 3523POPC   C4B46006  38.690   3.870   7.507
 3524POPC   NC346007   0.099  27.571   5.310
 3524POPC   PO446008  44.474  27.835   5.264
 3524POPC   GL146009  44.316  27.698   5.721
 3524POPC   GL246010  44.625  27.716   5.913
 3524POPC   C1A46011  44.218  27.822   6.191
 3524POPC   D2A46012  44.263  27.622   6.602
 3524POPC   C3A46013  44.329  27.751   7.004
 3524POPC   C4A46014  44.665  27.708   7.307
 3524POPC   C1B46015  44.705  27.835   6.379
 3524POPC   C2B46016  44.819  27.758   6.819
 3524POPC   C3B46017   0.086  27.470   7.108
 3524POPC   C4B46018   0.023  27.234   7.486
 3525POPC   NC346019  26.938  24.923   5.570
 3525POPC   PO446020  26.743  25.570   5.493
 3525POPC   GL146021  26.615  25.506   5.882
 3525POPC   GL246022  26.833  25.226   5.981
 3525POPC   C1A46023  26.491  25.489   6.283
 3525POPC   D2A46024  26.724  25.218   6.554
 3525POPC   C3A46025  26.523  25.262   6.948
 3525POPC   C4A46026  26.546  25.133   7.397
 3525POPC   C1B46027  27.174  25.046   6.249
 3525POPC   C2B46028  27.248  25.042   6.720
 3525POPC   C3B46029  27.019  25.076   7.129
 3525POPC   C4B46030  27.184  25.287   7.506
 3526POPC   NC346031   7.044  41.131   5.519
 3526POPC   PO446032   7.497  40.609   5.460
 3526POPC   GL146033   7.514  40.777   5.823
 3526POPC   GL246034   7.762  41.007   5.764
 3526POPC   C1A46035   7.432  40.658   6.247
 3526POPC   D2A46036   7.252  40.686   6.653
 3526POPC   C3A46037   7.362  40.850   7.024
 3526POPC   C4A46038   7.714  40.650   7.138
 3526POPC   C1B46039   7.710  41.090   6.178
 3526POPC   C2B46040   7.714  40.946   6.597
 3526POPC   C3B46041   7.771  41.160   6.966
 3526POPC   C4B46042   7.742  41.091   7.381
 3527POPC   NC346043  22.727  27.374   5.341
 3527POPC   PO446044  23.375  27.346   5.580
 3527POPC   GL146045  23.036  27.582   5.775
 3527POPC   GL246046  22.930  27.272   5.866
 3527POPC   C1A46047  22.870  27.624   6.218
 3527POPC   D2A46048  22.574  27.579   6.559
 3527POPC   C3A46049  22.754  27.689   6.931
 3527POPC   C4A46050  22.849  27.688   7.321
 3527POPC   C1B46051  22.942  27.119   6.291
 3527POPC   C2B46052  22.977  27.276   6.691
 3527POPC   C3B46053  23.008  27.253   7.120
 3527POPC   C4B46054  23.009  27.109   7.536
 3528POPC   NC346055  35.847  31.675   5.479
 3528POPC   PO446056  36.406  31.238   5.382
 3528POPC   GL146057  36.223  31.457   5.732
 3528POPC   GL246058  35.971  31.214   5.811
 3528POPC   C1A46059  36.135  31.536   6.189
 3528POPC   D2A46060  36.423  31.395   6.533
 3528POPC   C3A46061  36.274  31.480   6.940
 3528POPC   C4A46062  36.052  31.662   7.288
 3528POPC   C1B46063  36.084  31.041   6.242
 3528POPC   C2B46064  35.929  31.227   6.647
 3528POPC   C3B46065  35.888  31.197   7.122
 3528POPC   C4B46066  35.887  31.298   7.592
 3529POPC   NC346067  27.129  11.470   5.538
 3529POPC   PO446068  27.649  11.163   5.203
 3529POPC   GL146069  27.520  11.204   5.697
 3529POPC   GL246070  27.634  11.528   5.829
 3529POPC   C1A46071  27.409  11.124   6.165
 3529POPC   D2A46072  27.592  11.015   6.578
 3529POPC   C3A46073  27.459  11.127   7.007
 3529POPC   C4A46074  27.560  11.282   7.451
 3529POPC   C1B46075  27.341  11.636   6.176
 3529POPC   C2B46076  27.285  11.458   6.620
 3529POPC   C3B46077  27.382  11.620   7.078
 3529POPC   C4B46078  27.314  11.701   7.559
 3530POPC   NC346079  26.264  26.507   5.410
 3530POPC   PO446080  25.919  26.973   5.157
 3530POPC   GL146081  26.053  26.970   5.659
 3530POPC   GL246082  26.289  26.725   5.872
 3530POPC   C1A46083  25.919  26.944   6.122
 3530POPC   D2A46084  25.746  26.953   6.545
 3530POPC   C3A46085  25.989  26.960   6.906
 3530POPC   C4A46086  25.711  26.836   7.215
 3530POPC   C1B46087  26.155  26.474   6.220
 3530POPC   C2B46088  26.041  26.450   6.632
 3530POPC   C3B46089  26.232  26.513   7.018
 3530POPC   C4B46090  26.464  26.606   7.380
 3531POPC   NC346091  15.023  24.998   5.475
 3531POPC   PO446092  15.297  25.593   5.480
 3531POPC   GL146093  15.157  25.336   5.842
 3531POPC   GL246094  15.287  24.976   5.932
 3531POPC   C1A46095  15.069  25.371   6.274
 3531POPC   D2A46096  15.102  25.187   6.690
 3531POPC   C3A46097  15.113  25.419   7.081
 3531POPC   C4A46098  15.453  25.273   7.336
 3531POPC   C1B46099  14.883  24.895   6.148
 3531POPC   C2B46100  14.637  25.050   6.484
 3531POPC   C3B46101  14.688  25.021   6.940
 3531POPC   C4B46102  15.092  24.893   7.173
 3532POPC   NC346103  30.805  23.204   5.376
 3532POPC   PO446104  30.277  22.778   5.387
 3532POPC   GL146105  30.352  23.047   5.758
 3532POPC   GL246106  30.694  23.017   5.851
 3532POPC   C1A46107  30.369  22.959   6.219
 3532POPC   D2A46108  30.643  22.735   6.527
 3532POPC   C3A46109  30.535  22.784   6.978
 3532POPC   C4A46110  30.523  22.574   7.383
 3532POPC   C1B46111  30.874  23.147   6.263
 3532POPC   C2B46112  30.873  23.155   6.730
 3532POPC   C3B46113  30.876  23.129   7.182
 3532POPC   C4B46114  31.016  23.265   7.575
 3533POPC   NC346115   6.784  34.854   5.100
 3533POPC   PO446116   6.410  34.437   5.423
 3533POPC   GL146117   6.366  34.647   5.787
 3533POPC   GL246118   6.629  34.921   5.642
 3533POPC   C1A46119   6.289  34.555   6.231
 3533POPC   D2A46120   6.578  34.659   6.561
 3533POPC   C3A46121   6.453  34.580   6.971
 3533POPC   C4A46122   6.791  34.405   7.204
 3533POPC   C1B46123   6.643  34.924   6.103
 3533POPC   C2B46124   6.581  35.157   6.494
 3533POPC   C3B46125   6.656  35.124   6.924
 3533POPC   C4B46126   6.673  34.907   7.336
 3534POPC   NC346127  35.762  39.148   5.509
 3534POPC   PO446128  36.308  39.611   5.453
 3534POPC   GL146129  36.141  39.376   5.761
 3534POPC   GL246130  35.824  39.579   5.804
 3534POPC   C1A46131  36.108  39.072   6.111
 3534POPC   D2A46132  36.230  38.803   6.458
 3534POPC   C3A46133  36.164  38.963   6.903
 3534POPC   C4A46134  35.861  39.040   7.261
 3534POPC   C1B46135  36.040  39.588   6.206
 3534POPC   C2B46136  36.078  39.343   6.564
 3534POPC   C3B46137  36.120  39.487   6.971
 3534POPC   C4B46138  35.750  39.551   7.201
 3535POPC   NC346139   5.040  23.774   4.982
 3535POPC   PO446140   5.040  23.632   5.633
 3535POPC   GL146141   5.231  23.910   5.938
 3535POPC   GL246142   4.904  24.103   5.879
 3535POPC   C1A46143   5.401  23.816   6.358
 3535POPC   D2A46144   5.199  23.467   6.591
 3535POPC   C3A46145   5.195  23.560   7.008
 3535POPC   C4A46146   5.346  24.000   7.111
 3535POPC   C1B46147   4.880  23.898   6.287
 3535POPC   C2B46148   5.006  23.957   6.677
 3535POPC   C3B46149   4.840  23.928   7.029
 3535POPC   C4B46150   4.735  23.678   7.296
 3536POPC   NC346151  28.386   1.749   5.479
 3536POPC   PO446152  28.729   2.293   5.494
 3536POPC   GL146153  28.522   2.073   5.839
 3536POPC   GL246154  28.154   2.190   5.783
 3536POPC   C1A46155  28.571   1.744   6.186
 3536POPC   D2A46156  28.334   1.647   6.589
 3536POPC   C3A46157  28.603   1.677   6.948
 3536POPC   C4A46158  28.594   2.031   7.178
 3536POPC   C1B46159  28.120   1.987   6.179
 3536POPC   C2B46160  28.262   2.148   6.576
 3536POPC   C3B46161  28.122   2.043   6.960
 3536POPC   C4B46162  28.153   1.809   7.320
 3537POPC   NC346163   4.793  43.048   5.393
 3537POPC   PO446164   5.297  43.430   5.539
 3537POPC   GL146165   4.934  43.332   5.814
 3537POPC   GL246166   4.922  42.943   5.890
 3537POPC   C1A46167   4.861  43.306   6.241
 3537POPC   D2A46168   4.968  42.999   6.509
 3537POPC   C3A46169   4.897  43.156   6.895
 3537POPC   C4A46170   4.979  43.138   7.294
 3537POPC   C1B46171   5.322  43.101   6.120
 3537POPC   C2B46172   5.452  43.232   6.534
 3537POPC   C3B46173   5.432  43.101   6.939
 3537POPC   C4B46174   5.489  43.129   7.339
 3538POPC   NC346175  30.123  44.906   5.420
 3538POPC   PO446176  29.711  44.247   5.546
 3538POPC   GL146177  29.908  44.565   5.742
 3538POPC   GL246178  30.267  44.509   5.748
 3538POPC   C1A46179  29.931  44.818   6.095
 3538POPC   D2A46180  29.903  44.617   6.490
 3538POPC   C3A46181  30.023  44.847   6.838
 3538POPC   C4A46182  29.930  44.715   7.257
 3538POPC   C1B46183  30.308  44.473   6.182
 3538POPC   C2B46184  30.426  44.560   6.612
 3538POPC   C3B46185  30.248  44.401   6.978
 3538POPC   C4B46186  30.252  44.239   7.366
 3539POPC   NC346187  42.362   6.430   5.423
 3539POPC   PO446188  42.142   7.040   5.519
 3539POPC   GL146189  42.155   6.771   5.913
 3539POPC   GL246190  42.350   6.431   5.955
 3539POPC   C1A46191  42.437   6.891   6.259
 3539POPC   D2A46192  42.632   6.720   6.602
 3539POPC   C3A46193  42.417   6.598   6.929
 3539POPC   C4A46194  42.573   6.320   7.222
 3539POPC   C1B46195  42.253   6.436   6.387
 3539POPC   C2B46196  42.037   6.788   6.587
 3539POPC   C3B46197  41.987   6.881   7.007
 3539POPC   C4B46198  42.069   6.577   7.316
 3540POPC   NC346199   7.119  30.072   5.465
 3540POPC   PO446200   7.808  29.921   5.503
 3540POPC   GL146201   7.569  30.047   5.876
 3540POPC   GL246202   7.257  30.228   5.935
 3540POPC   C1A46203   7.439  29.877   6.268
 3540POPC   D2A46204   7.177  30.037   6.594
 3540POPC   C3A46205   7.346  29.810   6.957
 3540POPC   C4A46206   7.378  29.548   7.332
 3540POPC   C1B46207   7.489  30.372   6.316
 3540POPC   C2B46208   7.595  30.273   6.775
 3540POPC   C3B46209   7.454  30.232   7.221
 3540POPC   C4B46210   7.637  30.218   7.672
 3541POPC   NC346211   1.268  15.768   5.749
 3541POPC   PO446212   0.874  16.158   5.306
 3541POPC   GL146213   1.038  16.227   5.773
 3541POPC   GL246214   1.433  16.232   5.868
 3541POPC   C1A46215   1.110  16.145   6.249
 3541POPC   D2A46216   0.918  15.946   6.602
 3541POPC   C3A46217   1.051  16.058   6.998
 3541POPC   C4A46218   1.185  15.653   7.133
 3541POPC   C1B46219   1.606  16.007   6.239
 3541POPC   C2B46220   1.463  16.064   6.646
 3541POPC   C3B46221   1.593  15.922   7.026
 3541POPC   C4B46222   1.422  16.203   7.325
 3542POPC   NC346223  23.687  23.004   5.452
 3542POPC   PO446224  24.173  22.593   5.645
 3542POPC   GL146225  23.976  22.944   5.858
 3542POPC   GL246226  23.622  22.828   5.921
 3542POPC   C1A46227  23.829  23.282   6.129
 3542POPC   D2A46228  23.956  23.269   6.566
 3542POPC   C3A46229  23.730  23.417   6.924
 3542POPC   C4A46230  23.748  23.241   7.337
 3542POPC   C1B46231  23.807  22.806   6.330
 3542POPC   C2B46232  23.750  22.610   6.724
 3542POPC   C3B46233  23.718  22.789   7.120
 3542POPC   C4B46234  23.473  22.682   7.493
 3543POPC   NC346235  41.555  36.990   5.526
 3543POPC   PO446236  41.449  36.366   5.451
 3543POPC   GL146237  41.308  36.646   5.805
 3543POPC   GL246238  41.665  36.646   5.891
 3543POPC   C1A46239  41.362  36.982   6.149
 3543POPC   D2A46240  41.681  37.093   6.462
 3543POPC   C3A46241  41.591  36.942   6.856
 3543POPC   C4A46242  41.639  36.881   7.275
 3543POPC   C1B46243  41.883  36.422   6.192
 3543POPC   C2B46244  41.935  36.577   6.577
 3543POPC   C3B46245  41.798  36.483   6.962
 3543POPC   C4B46246  41.925  36.444   7.365
 3544POPC   NC346247  43.568  20.295   5.427
 3544POPC   PO446248  43.940  19.725   5.202
 3544POPC   GL146249  43.914  19.639   5.723
 3544POPC   GL246250  43.711  19.409   5.849
 3544POPC   C1A46251  43.825  19.867   6.170
 3544POPC   D2A46252  43.974  19.897   6.565
 3544POPC   C3A46253  43.815  20.010   6.968
 3544POPC   C4A46254  44.042  20.065   7.360
 3544POPC   C1B46255  44.017  19.397   6.168
 3544POPC   C2B46256  44.093  19.342   6.574
 3544POPC   C3B46257  44.003  19.527   6.929
 3544POPC   C4B46258  43.826  19.605   7.316
 3545POPC   NC346259  40.986  14.404   5.606
 3545POPC   PO446260  40.472  14.331   5.227
 3545POPC   GL146261  40.470  14.331   5.681
 3545POPC   GL246262  40.531  14.647   5.827
 3545POPC   C1A46263  40.556  14.243   6.148
 3545POPC   D2A46264  40.400  14.322   6.588
 3545POPC   C3A46265  40.751  14.278   6.867
 3545POPC   C4A46266  40.767  14.128   7.277
 3545POPC   C1B46267  40.680  14.891   6.159
 3545POPC   C2B46268  40.805  14.952   6.560
 3545POPC   C3B46269  40.614  14.782   6.902
 3545POPC   C4B46270  40.786  14.634   7.250
 3546POPC   NC346271   1.853  39.319   5.524
 3546POPC   PO446272   2.375  38.884   5.557
 3546POPC   GL146273   2.170  39.130   5.870
 3546POPC   GL246274   2.312  39.445   5.723
 3546POPC   C1A46275   1.915  39.085   6.261
 3546POPC   D2A46276   2.028  38.920   6.672
 3546POPC   C3A46277   1.864  39.106   7.041
 3546POPC   C4A46278   1.974  39.013   7.469
 3546POPC   C1B46279   2.342  39.547   6.151
 3546POPC   C2B46280   2.185  39.447   6.545
 3546POPC   C3B46281   2.260  39.469   6.980
 3546POPC   C4B46282   2.017  39.513   7.322
 3547POPC   NC346283  26.675   1.532   5.585
 3547POPC   PO446284  27.179   1.256   5.158
 3547POPC   GL146285  27.012   1.069   5.648
 3547POPC   GL246286  26.655   1.092   5.824
 3547POPC   C1A46287  27.060   1.212   6.137
 3547POPC   D2A46288  27.011   1.554   6.437
 3547POPC   C3A46289  27.042   1.403   6.855
 3547POPC   C4A46290  26.695   1.288   7.088
 3547POPC   C1B46291  26.557   1.369   6.210
 3547POPC   C2B46292  26.310   1.581   6.556
 3547POPC   C3B46293  26.398   1.708   7.004
 3547POPC   C4B46294  26.488   1.562   7.444
 3548POPC   NC346295   7.397   4.673   5.648
 3548POPC   PO446296   7.468   5.246   5.250
 3548POPC   GL146297   7.340   5.256   5.693
 3548POPC   GL246298   7.635   5.145   5.845
 3548POPC   C1A46299   7.210   5.107   6.130
 3548POPC   D2A46300   7.198   4.865   6.502
 3548POPC   C3A46301   7.251   5.041   6.910
 3548POPC   C4A46302   7.153   5.068   7.328
 3548POPC   C1B46303   7.707   4.945   6.239
 3548POPC   C2B46304   7.696   4.958   6.677
 3548POPC   C3B46305   7.694   4.813   7.116
 3548POPC   C4B46306   7.649   4.869   7.574
 3549POPC   NC346307  21.261  15.691   5.452
 3549POPC   PO446308  21.029  16.301   5.449
 3549POPC   GL146309  21.007  16.165   5.831
 3549POPC   GL246310  21.346  16.006   5.864
 3549POPC   C1A46311  21.110  16.249   6.249
 3549POPC   D2A46312  21.345  15.990   6.549
 3549POPC   C3A46313  21.203  16.134   6.970
 3549POPC   C4A46314  20.785  16.327   7.167
 3549POPC   C1B46315  21.412  15.638   6.129
 3549POPC   C2B46316  21.538  15.476   6.513
 3549POPC   C3B46317  21.604  15.683   6.879
 3549POPC   C4B46318  21.543  15.852   7.264
 3550POPC   NC346319  34.000   3.546   5.444
 3550POPC   PO446320  33.402   3.529   5.497
 3550POPC   GL146321  33.699   3.618   5.842
 3550POPC   GL246322  34.017   3.884   5.809
 3550POPC   C1A46323  33.714   3.353   6.228
 3550POPC   D2A46324  33.769   3.107   6.623
 3550POPC   C3A46325  33.791   3.414   6.921
 3550POPC   C4A46326  33.911   3.613   7.254
 3550POPC   C1B46327  33.895   3.843   6.246
 3550POPC   C2B46328  34.088   3.819   6.644
 3550POPC   C3B46329  34.269   4.041   6.985
 3550POPC   C4B46330  34.144   4.083   7.363
 3551POPC   NC346331   2.513  37.249   5.412
 3551POPC   PO446332   2.851  36.791   5.411
 3551POPC   GL146333   2.650  36.947   5.787
 3551POPC   GL246334   2.761  37.240   5.846
 3551POPC   C1A46335   2.396  36.919   6.126
 3551POPC   D2A46336   2.288  36.848   6.531
 3551POPC   C3A46337   2.579  36.717   6.851
 3551POPC   C4A46338   2.765  36.917   7.188
 3551POPC   C1B46339   2.535  37.408   6.177
 3551POPC   C2B46340   2.581  37.300   6.598
 3551POPC   C3B46341   2.455  37.265   7.019
 3551POPC   C4B46342   2.461  37.201   7.485
 3552POPC   NC346343  17.679  37.599   5.330
 3552POPC   PO446344  17.577  36.924   5.292
 3552POPC   GL146345  17.517  37.020   5.764
 3552POPC   GL246346  17.347  37.330   5.880
 3552POPC   C1A46347  17.642  37.067   6.206
 3552POPC   D2A46348  17.495  36.882   6.589
 3552POPC   C3A46349  17.679  36.704   6.988
 3552POPC   C4A46350  17.475  36.838   7.383
 3552POPC   C1B46351  17.154  37.192   6.316
 3552POPC   C2B46352  17.110  37.173   6.782
 3552POPC   C3B46353  17.146  37.348   7.190
 3552POPC   C4B46354  17.472  37.527   7.471
 3553POPC   NC346355  31.831   8.790   5.232
 3553POPC   PO446356  31.541   9.420   5.323
 3553POPC   GL146357  31.642   9.153   5.731
 3553POPC   GL246358  31.794   8.797   5.759
 3553POPC   C1A46359  31.420   9.147   6.160
 3553POPC   D2A46360  31.062   9.046   6.456
 3553POPC   C3A46361  31.125   9.011   6.903
 3553POPC   C4A46362  31.222   8.825   7.296
 3553POPC   C1B46363  31.597   8.671   6.156
 3553POPC   C2B46364  31.529   8.849   6.576
 3553POPC   C3B46365  31.649   8.837   7.003
 3553POPC   C4B46366  31.744   9.126   7.344
 3554POPC   NC346367   7.743  11.826   5.443
 3554POPC   PO446368   8.032  11.123   5.450
 3554POPC   GL146369   8.151  11.386   5.840
 3554POPC   GL246370   7.992  11.725   5.868
 3554POPC   C1A46371   8.244  11.219   6.265
 3554POPC   D2A46372   8.075  10.976   6.606
 3554POPC   C3A46373   8.109  11.111   7.031
 3554POPC   C4A46374   8.413  11.122   7.390
 3554POPC   C1B46375   8.149  11.717   6.283
 3554POPC   C2B46376   8.145  11.534   6.695
 3554POPC   C3B46377   8.362  11.546   7.078
 3554POPC   C4B46378   8.058  11.477   7.403
 3555POPC   NC346379   1.089   3.263   5.495
 3555POPC   PO446380   1.350   3.879   5.508
 3555POPC   GL146381   1.081   3.706   5.859
 3555POPC   GL246382   1.111   3.339   5.982
 3555POPC   C1A46383   1.235   3.779   6.291
 3555POPC   D2A46384   1.607   3.746   6.572
 3555POPC   C3A46385   1.488   3.502   6.933
 3555POPC   C4A46386   1.389   3.467   7.325
 3555POPC   C1B46387   0.856   3.444   6.296
 3555POPC   C2B46388   1.056   3.464   6.677
 3555POPC   C3B46389   0.964   3.350   7.089
 3555POPC   C4B46390   0.826   3.408   7.506
 3556POPC   NC346391   8.300  19.375   5.532
 3556POPC   PO446392   7.983  19.988   5.460
 3556POPC   GL146393   8.146  19.786   5.820
 3556POPC   GL246394   7.952  19.464   5.869
 3556POPC   C1A46395   8.391  19.892   6.219
 3556POPC   D2A46396   8.479  19.932   6.665
 3556POPC   C3A46397   8.266  19.780   7.005
 3556POPC   C4A46398   8.203  20.050   7.360
 3556POPC   C1B46399   7.922  19.706   6.258
 3556POPC   C2B46400   7.942  19.960   6.632
 3556POPC   C3B46401   7.794  19.969   7.066
 3556POPC   C4B46402   7.890  19.659   7.352
 3557POPC   NC346403  34.387   4.201   5.295
 3557POPC   PO446404  34.937   4.230   5.748
 3557POPC   GL146405  34.527   4.044   5.780
 3557POPC   GL246406  34.297   4.337   5.776
 3557POPC   C1A46407  34.366   3.983   6.186
 3557POPC   D2A46408  34.309   4.267   6.528
 3557POPC   C3A46409  34.696   4.255   6.793
 3557POPC   C4A46410  34.765   4.350   7.225
 3557POPC   C1B46411  34.471   4.601   6.114
 3557POPC   C2B46412  34.460   4.757   6.563
 3557POPC   C3B46413  34.369   4.590   7.005
 3557POPC   C4B46414  34.347   4.528   7.492
 3558POPC   NC346415  36.857  20.449   5.419
 3558POPC   PO446416  36.807  21.052   5.400
 3558POPC   GL146417  36.829  20.792   5.822
 3558POPC   GL246418  36.944  20.439   5.908
 3558POPC   C1A46419  36.776  20.774   6.302
 3558POPC   D2A46420  37.050  20.848   6.707
 3558POPC   C3A46421  36.865  20.672   7.110
 3558POPC   C4A46422  36.488  20.378   7.173
 3558POPC   C1B46423  37.177  20.465   6.294
 3558POPC   C2B46424  37.140  20.329   6.710
 3558POPC   C3B46425  37.034  20.177   7.105
 3558POPC   C4B46426  37.252  20.150   7.447
 3559POPC   NC346427  29.311  21.072   5.390
 3559POPC   PO446428  28.952  21.546   5.604
 3559POPC   GL146429  29.025  21.382   5.971
 3559POPC   GL246430  29.143  21.057   5.887
 3559POPC   C1A46431  28.907  21.228   6.356
 3559POPC   D2A46432  28.667  21.123   6.696
 3559POPC   C3A46433  28.955  21.244   6.996
 3559POPC   C4A46434  29.092  21.597   7.214
 3559POPC   C1B46435  29.434  21.244   6.241
 3559POPC   C2B46436  29.395  21.398   6.694
 3559POPC   C3B46437  29.456  21.245   7.130
 3559POPC   C4B46438  29.496  21.212   7.580
 3560POPC   NC346439  42.721  18.976   5.435
 3560POPC   PO446440  42.262  18.531   5.455
 3560POPC   GL146441  42.153  18.892   5.709
 3560POPC   GL246442  42.477  18.851   5.868
 3560POPC   C1A46443  42.134  19.202   6.069
 3560POPC   D2A46444  42.295  19.488   6.393
 3560POPC   C3A46445  42.236  19.376   6.811
 3560POPC   C4A46446  42.129  19.083   7.126
 3560POPC   C1B46447  42.655  19.177   6.110
 3560POPC   C2B46448  42.685  19.138   6.532
 3560POPC   C3B46449  42.702  19.230   6.947
 3560POPC   C4B46450  42.585  18.888   7.209
 3561POPC   NC346451  39.257  11.046   5.404
 3561POPC   PO446452  39.297  11.637   5.190
 3561POPC   GL146453  39.166  11.460   5.668
 3561POPC   GL246454  39.402  11.509   5.940
 3561POPC   C1A46455  39.155  11.098   6.059
 3561POPC   D2A46456  39.116  10.924   6.531
 3561POPC   C3A46457  39.224  11.054   6.949
 3561POPC   C4A46458  39.411  10.951   7.353
 3561POPC   C1B46459  39.192  11.670   6.294
 3561POPC   C2B46460  39.286  11.458   6.643
 3561POPC   C3B46461  39.551  11.441   7.003
 3561POPC   C4B46462  39.197  11.485   7.250
 3562POPC   NC346463  35.904  42.308   5.504
 3562POPC   PO446464  36.409  42.163   5.067
 3562POPC   GL146465  36.389  42.380   5.644
 3562POPC   GL246466  36.096  42.244   5.948
 3562POPC   C1A46467  36.536  42.371   6.106
 3562POPC   D2A46468  36.331  42.277   6.497
 3562POPC   C3A46469  36.456  42.457   6.903
 3562POPC   C4A46470  36.466  42.364   7.356
 3562POPC   C1B46471  35.843  42.317   6.300
 3562POPC   C2B46472  35.944  42.583   6.669
 3562POPC   C3B46473  35.985  42.407   7.072
 3562POPC   C4B46474  35.990  42.486   7.530
 3563POPC   NC346475  21.007  36.659   4.929
 3563POPC   PO446476  21.282  37.013   5.431
 3563POPC   GL146477  21.375  36.856   5.865
 3563POPC   GL246478  21.107  37.008   6.057
 3563POPC   C1A46479  21.382  36.668   6.307
 3563POPC   D2A46480  21.109  36.916   6.595
 3563POPC   C3A46481  21.170  36.926   7.046
 3563POPC   C4A46482  21.555  36.752   7.265
 3563POPC   C1B46483  21.486  37.166   6.310
 3563POPC   C2B46484  21.607  37.115   6.751
 3563POPC   C3B46485  21.541  37.256   7.172
 3563POPC   C4B46486  21.734  37.224   7.595
 3564POPC   NC346487  25.324  24.764   5.254
 3564POPC   PO446488  25.691  24.518   5.782
 3564POPC   GL146489  25.389  24.218   5.966
 3564POPC   GL246490  25.080  24.138   5.765
 3564POPC   C1A46491  25.379  24.250   6.398
 3564POPC   D2A46492  25.294  24.547   6.663
 3564POPC   C3A46493  25.426  24.328   6.980
 3564POPC   C4A46494  25.329  24.535   7.285
 3564POPC   C1B46495  24.945  24.092   6.199
 3564POPC   C2B46496  24.851  24.259   6.626
 3564POPC   C3B46497  24.933  24.139   7.050
 3564POPC   C4B46498  25.126  24.088   7.443
 3565POPC   NC346499  13.745  29.032   5.287
 3565POPC   PO446500  13.246  29.351   5.557
 3565POPC   GL146501  13.468  28.985   5.729
 3565POPC   GL246502  13.767  29.104   5.891
 3565POPC   C1A46503  13.379  28.809   6.137
 3565POPC   D2A46504  13.529  28.740   6.570
 3565POPC   C3A46505  13.654  29.117   6.792
 3565POPC   C4A46506  13.580  29.115   7.240
 3565POPC   C1B46507  13.556  29.289   6.281
 3565POPC   C2B46508  13.288  29.473   6.632
 3565POPC   C3B46509  13.498  29.594   7.024
 3565POPC   C4B46510  13.940  29.499   7.072
 3566POPC   NC346511   6.646  20.167   5.349
 3566POPC   PO446512   6.445  19.597   5.610
 3566POPC   GL146513   6.621  19.791   5.957
 3566POPC   GL246514   6.788  20.088   5.835
 3566POPC   C1A46515   6.597  19.791   6.399
 3566POPC   D2A46516   6.620  19.445   6.661
 3566POPC   C3A46517   6.419  19.544   7.003
 3566POPC   C4A46518   6.441  19.873   7.283
 3566POPC   C1B46519   7.000  20.050   6.206
 3566POPC   C2B46520   7.069  19.819   6.573
 3566POPC   C3B46521   6.819  19.867   6.944
 3566POPC   C4B46522   6.908  20.035   7.359
 3567POPC   NC346523   0.596   1.620   5.625
 3567POPC   PO446524   0.321   1.117   5.243
 3567POPC   GL146525   0.357   1.159   5.742
 3567POPC   GL246526   0.227   1.434   5.937
 3567POPC   C1A46527   0.373   0.998   6.207
 3567POPC   D2A46528   0.534   1.043   6.656
 3567POPC   C3A46529   0.219   0.996   6.977
 3567POPC   C4A46530   0.089   1.233   7.327
 3567POPC   C1B46531   0.600   1.453   6.251
 3567POPC   C2B46532   0.478   1.566   6.651
 3567POPC   C3B46533   0.522   1.422   7.061
 3567POPC   C4B46534   0.874   1.562   7.289
 3568POPC   NC346535   0.261   5.641   5.640
 3568POPC   PO446536  44.987   5.823   5.040
 3568POPC   GL146537  44.750   5.753   5.565
 3568POPC   GL246538  44.884   5.901   5.939
 3568POPC   C1A46539  44.533   5.562   5.997
 3568POPC   D2A46540  44.475   5.715   6.460
 3568POPC   C3A46541  44.407   5.579   6.917
 3568POPC   C4A46542  44.444   5.846   7.314
 3568POPC   C1B46543  44.993   5.617   6.306
 3568POPC   C2B46544  44.909   5.576   6.760
 3568POPC   C3B46545  44.932   5.845   7.095
 3568POPC   C4B46546   0.263   5.988   7.317
 3569POPC   NC346547  14.787  19.170   5.489
 3569POPC   PO446548  15.557  19.101   5.397
 3569POPC   GL146549  15.416  18.923   5.816
 3569POPC   GL246550  15.061  18.768   5.752
 3569POPC   C1A46551  15.465  19.099   6.264
 3569POPC   D2A46552  15.667  19.110   6.684
 3569POPC   C3A46553  15.460  18.835   6.986
 3569POPC   C4A46554  15.150  18.919   7.253
 3569POPC   C1B46555  14.983  18.943   6.178
 3569POPC   C2B46556  14.989  19.085   6.638
 3569POPC   C3B46557  14.783  19.196   7.061
 3569POPC   C4B46558  14.667  18.794   7.325
 3570POPC   NC346559   2.833  13.882   5.419
 3570POPC   PO446560   2.740  13.268   5.665
 3570POPC   GL146561   2.551  13.373   6.009
 3570POPC   GL246562   2.589  13.699   5.898
 3570POPC   C1A46563   2.586  13.386   6.442
 3570POPC   D2A46564   2.869  13.563   6.724
 3570POPC   C3A46565   2.711  13.366   7.059
 3570POPC   C4A46566   2.634  13.417   7.473
 3570POPC   C1B46567   2.710  13.862   6.292
 3570POPC   C2B46568   2.440  13.857   6.665
 3570POPC   C3B46569   2.380  13.782   7.102
 3570POPC   C4B46570   2.304  13.834   7.530
 3571POPC   NC346571  43.162  41.250   5.402
 3571POPC   PO446572  43.326  41.870   5.284
 3571POPC   GL146573  43.170  41.660   5.708
 3571POPC   GL246574  43.352  41.323   5.858
 3571POPC   C1A46575  43.058  41.598   6.158
 3571POPC   D2A46576  42.776  41.411   6.473
 3571POPC   C3A46577  42.801  41.244   6.911
 3571POPC   C4A46578  42.823  41.508   7.296
 3571POPC   C1B46579  43.243  41.135   6.274
 3571POPC   C2B46580  43.287  41.391   6.649
 3571POPC   C3B46581  43.267  41.339   7.078
 3571POPC   C4B46582  43.175  41.053   7.359
 3572POPC   NC346583   2.876  23.130   5.605
 3572POPC   PO446584   2.614  22.628   5.273
 3572POPC   GL146585   2.474  22.809   5.765
 3572POPC   GL246586   2.750  22.867   6.005
 3572POPC   C1A46587   2.385  23.067   6.262
 3572POPC   D2A46588   2.278  23.157   6.734
 3572POPC   C3A46589   2.594  23.002   7.021
 3572POPC   C4A46590   2.683  22.749   7.347
 3572POPC   C1B46591   3.035  22.920   6.320
 3572POPC   C2B46592   2.980  23.063   6.709
 3572POPC   C3B46593   2.994  22.679   6.954
 3572POPC   C4B46594   3.136  22.559   7.365
 3573POPC   NC346595  23.924  39.443   5.451
 3573POPC   PO446596  23.359  38.850   5.464
 3573POPC   GL146597  23.601  38.966   5.830
 3573POPC   GL246598  23.666  39.308   5.886
 3573POPC   C1A46599  23.833  38.969   6.232
 3573POPC   D2A46600  23.975  39.146   6.624
 3573POPC   C3A46601  23.724  39.043   6.954
 3573POPC   C4A46602  23.804  38.702   7.176
 3573POPC   C1B46603  23.755  39.482   6.294
 3573POPC   C2B46604  23.921  39.640   6.698
 3573POPC   C3B46605  23.995  39.439   7.115
 3573POPC   C4B46606  23.906  39.575   7.522
 3574POPC   NC346607  17.903  12.900   5.303
 3574POPC   PO446608  17.348  13.186   5.285
 3574POPC   GL146609  17.421  13.175   5.739
 3574POPC   GL246610  17.624  12.882   5.747
 3574POPC   C1A46611  17.375  13.224   6.205
 3574POPC   D2A46612  17.532  13.244   6.646
 3574POPC   C3A46613  17.461  12.923   6.931
 3574POPC   C4A46614  17.624  12.613   7.159
 3574POPC   C1B46615  17.695  12.796   6.181
 3574POPC   C2B46616  17.840  12.824   6.592
 3574POPC   C3B46617  17.979  12.954   6.968
 3574POPC   C4B46618  17.999  12.878   7.389
 3575POPC   NC346619  33.170  17.313   5.561
 3575POPC   PO446620  32.619  17.570   5.297
 3575POPC   GL146621  32.678  17.624   5.768
 3575POPC   GL246622  32.577  17.379   5.982
 3575POPC   C1A46623  33.020  17.645   6.123
 3575POPC   D2A46624  33.074  17.797   6.571
 3575POPC   C3A46625  33.210  17.648   6.972
 3575POPC   C4A46626  32.943  17.431   7.291
 3575POPC   C1B46627  32.844  17.173   6.265
 3575POPC   C2B46628  32.898  17.322   6.680
 3575POPC   C3B46629  33.178  17.153   6.936
 3575POPC   C4B46630  33.170  16.950   7.274
 3576POPC   NC346631  29.582  15.763   5.556
 3576POPC   PO446632  30.141  15.764   5.422
 3576POPC   GL146633  29.960  15.935   5.829
 3576POPC   GL246634  30.248  16.012   5.944
 3576POPC   C1A46635  29.761  15.888   6.240
 3576POPC   D2A46636  29.957  15.815   6.637
 3576POPC   C3A46637  29.719  15.746   6.992
 3576POPC   C4A46638  29.548  16.129   7.196
 3576POPC   C1B46639  30.395  15.914   6.357
 3576POPC   C2B46640  30.423  15.918   6.794
 3576POPC   C3B46641  30.100  16.058   7.119
 3576POPC   C4B46642  30.168  16.123   7.586
 3577POPC   NC346643   2.933  30.263   5.259
 3577POPC   PO446644   2.416  30.584   5.583
 3577POPC   GL146645   2.654  30.790   5.904
 3577POPC   GL246646   2.686  31.161   5.878
 3577POPC   C1A46647   2.524  30.765   6.325
 3577POPC   D2A46648   2.489  30.412   6.610
 3577POPC   C3A46649   2.634  30.454   7.023
 3577POPC   C4A46650   3.038  30.335   7.225
 3577POPC   C1B46651   2.887  31.142   6.291
 3577POPC   C2B46652   2.850  30.936   6.699
 3577POPC   C3B46653   2.951  30.834   7.114
 3577POPC   C4B46654   2.803  30.675   7.515
 3578POPC   NC346655  18.464  35.719   5.415
 3578POPC   PO446656  18.002  35.372   5.243
 3578POPC   GL146657  18.232  35.297   5.669
 3578POPC   GL246658  18.289  35.600   5.881
 3578POPC   C1A46659  18.117  35.179   6.131
 3578POPC   D2A46660  18.315  35.144   6.564
 3578POPC   C3A46661  18.444  35.250   6.986
 3578POPC   C4A46662  18.242  35.192   7.373
 3578POPC   C1B46663  18.554  35.449   6.239
 3578POPC   C2B46664  18.784  35.387   6.626
 3578POPC   C3B46665  18.732  35.673   7.009
 3578POPC   C4B46666  18.517  35.630   7.408
 3579POPC   NC346667  22.674  12.786   5.551
 3579POPC   PO446668  23.358  12.871   5.588
 3579POPC   GL146669  23.053  13.083   5.843
 3579POPC   GL246670  22.712  13.233   5.811
 3579POPC   C1A46671  22.917  12.826   6.173
 3579POPC   D2A46672  22.943  12.637   6.576
 3579POPC   C3A46673  23.034  12.970   6.841
 3579POPC   C4A46674  22.968  12.924   7.239
 3579POPC   C1B46675  22.496  13.153   6.170
 3579POPC   C2B46676  22.624  13.044   6.541
 3579POPC   C3B46677  22.565  13.165   6.933
 3579POPC   C4B46678  22.521  13.141   7.341
 3580POPC   NC346679  24.999  31.595   5.400
 3580POPC   PO446680  25.580  31.674   5.453
 3580POPC   GL146681  25.330  31.432   5.765
 3580POPC   GL246682  25.310  31.059   5.699
 3580POPC   C1A46683  25.223  31.432   6.202
 3580POPC   D2A46684  25.488  31.414   6.593
 3580POPC   C3A46685  25.415  31.688   6.954
 3580POPC   C4A46686  25.284  31.607   7.399
 3580POPC   C1B46687  25.453  30.998   6.148
 3580POPC   C2B46688  25.196  30.995   6.551
 3580POPC   C3B46689  25.224  31.186   6.964
 3580POPC   C4B46690  25.640  31.270   7.136
 3581POPC   NC346691  21.316  13.483   5.226
 3581POPC   PO446692  20.958  13.074   5.439
 3581POPC   GL146693  21.304  13.281   5.714
 3581POPC   GL246694  21.364  13.666   5.762
 3581POPC   C1A46695  21.400  13.365   6.155
 3581POPC   D2A46696  21.187  13.603   6.498
 3581POPC   C3A46697  21.257  13.482   6.866
 3581POPC   C4A46698  21.295  13.505   7.268
 3581POPC   C1B46699  21.426  13.889   6.164
 3581POPC   C2B46700  21.678  13.765   6.507
 3581POPC   C3B46701  21.673  13.826   6.930
 3581POPC   C4B46702  21.763  14.121   7.261
 3582POPC   NC346703  13.211   4.930   5.665
 3582POPC   PO446704  12.610   4.765   5.415
 3582POPC   GL146705  12.678   4.969   5.816
 3582POPC   GL246706  12.635   5.343   5.870
 3582POPC   C1A46707  12.862   4.807   6.202
 3582POPC   D2A46708  12.987   4.931   6.589
 3582POPC   C3A46709  12.690   5.105   6.839
 3582POPC   C4A46710  12.772   4.966   7.236
 3582POPC   C1B46711  12.772   5.313   6.323
 3582POPC   C2B46712  13.095   5.443   6.646
 3582POPC   C3B46713  12.993   5.414   7.107
 3582POPC   C4B46714  12.632   5.434   7.384
 3583POPC   NC346715  44.210  17.866   5.336
 3583POPC   PO446716  44.671  17.278   5.472
 3583POPC   GL146717  44.719  17.568   5.812
 3583POPC   GL246718   0.043  17.674   5.821
 3583POPC   C1A46719  44.693  17.690   6.281
 3583POPC   D2A46720  44.332  17.572   6.544
 3583POPC   C3A46721  44.406  17.455   6.962
 3583POPC   C4A46722  44.161  17.262   7.267
 3583POPC   C1B46723   0.023  17.338   6.140
 3583POPC   C2B46724  44.942  17.242   6.550
 3583POPC   C3B46725   0.024  17.415   6.959
 3583POPC   C4B46726  44.870  17.362   7.373
 3584POPC   NC346727  23.099  26.455   5.469
 3584POPC   PO446728  22.689  26.916   5.194
 3584POPC   GL146729  22.767  26.827   5.672
 3584POPC   GL246730  22.494  27.047   5.752
 3584POPC   C1A46731  22.949  26.654   6.082
 3584POPC   D2A46732  22.809  26.634   6.514
 3584POPC   C3A46733  22.943  26.797   6.894
 3584POPC   C4A46734  22.961  26.574   7.266
 3584POPC   C1B46735  22.462  27.252   6.163
 3584POPC   C2B46736  22.499  27.081   6.580
 3584POPC   C3B46737  22.508  27.244   6.996
 3584POPC   C4B46738  22.592  26.945   7.306
 3585POPC   NC346739  27.437  16.989   5.309
 3585POPC   PO446740  27.924  16.519   5.508
 3585POPC   GL146741  27.750  16.730   5.874
 3585POPC   GL246742  27.397  16.781   5.836
 3585POPC   C1A46743  27.559  16.553   6.285
 3585POPC   D2A46744  27.321  16.714   6.650
 3585POPC   C3A46745  27.475  16.551   7.049
 3585POPC   C4A46746  27.722  16.270   7.295
 3585POPC   C1B46747  27.476  17.042   6.219
 3585POPC   C2B46748  27.329  17.254   6.608
 3585POPC   C3B46749  27.243  17.233   7.069
 3585POPC   C4B46750  27.270  16.896   7.357
 3586POPC   NC346751  18.067  32.245   5.559
 3586POPC   PO446752  17.444  32.240   5.382
 3586POPC   GL146753  17.449  32.320   5.794
 3586POPC   GL246754  17.746  32.343   5.951
 3586POPC   C1A46755  17.278  32.122   6.158
 3586POPC   D2A46756  17.343  31.976   6.573
 3586POPC   C3A46757  17.287  32.088   6.985
 3586POPC   C4A46758  17.243  31.951   7.395
 3586POPC   C1B46759  17.742  32.244   6.373
 3586POPC   C2B46760  17.774  32.132   6.816
 3586POPC   C3B46761  17.850  32.258   7.233
 3586POPC   C4B46762  17.883  32.549   7.612
 3587POPC   NC346763   2.510  20.019   5.502
 3587POPC   PO446764   3.163  19.643   5.363
 3587POPC   GL146765   2.934  19.792   5.741
 3587POPC   GL246766   3.098  20.054   5.913
 3587POPC   C1A46767   2.818  19.652   6.172
 3587POPC   D2A46768   2.901  19.495   6.600
 3587POPC   C3A46769   2.628  19.517   6.949
 3587POPC   C4A46770   2.657  19.507   7.386
 3587POPC   C1B46771   2.809  20.166   6.269
 3587POPC   C2B46772   2.830  20.171   6.732
 3587POPC   C3B46773   2.929  19.908   7.151
 3587POPC   C4B46774   2.925  19.997   7.635
 3588POPC   NC346775  23.669  33.515   5.200
 3588POPC   PO446776  23.725  32.883   5.359
 3588POPC   GL146777  23.690  32.875   5.856
 3588POPC   GL246778  23.650  33.215   5.899
 3588POPC   C1A46779  23.492  32.974   6.305
 3588POPC   D2A46780  23.324  33.176   6.694
 3588POPC   C3A46781  23.533  33.043   7.070
 3588POPC   C4A46782  23.264  32.843   7.372
 3588POPC   C1B46783  23.802  33.394   6.302
 3588POPC   C2B46784  23.764  33.456   6.755
 3588POPC   C3B46785  24.086  33.419   7.088
 3588POPC   C4B46786  24.034  33.193   7.504
 3589POPC   NC346787  21.518   8.530   5.494
 3589POPC   PO446788  21.176   7.931   5.426
 3589POPC   GL146789  21.376   8.086   5.789
 3589POPC   GL246790  21.226   8.384   5.883
 3589POPC   C1A46791  21.455   8.112   6.241
 3589POPC   D2A46792  21.229   8.055   6.611
 3589POPC   C3A46793  21.512   8.047   6.885
 3589POPC   C4A46794  21.447   8.121   7.278
 3589POPC   C1B46795  21.544   8.608   6.162
 3589POPC   C2B46796  21.550   8.498   6.616
 3589POPC   C3B46797  21.414   8.578   7.059
 3589POPC   C4B46798  21.655   8.627   7.433
 3590POPC   NC346799  21.855  39.844   5.585
 3590POPC   PO446800  21.364  40.311   5.327
 3590POPC   GL146801  21.501  40.394   5.793
 3590POPC   GL246802  21.799  40.210   5.936
 3590POPC   C1A46803  21.382  40.238   6.241
 3590POPC   D2A46804  21.550  40.097   6.668
 3590POPC   C3A46805  21.318  39.919   7.016
 3590POPC   C4A46806  21.148  40.204   7.313
 3590POPC   C1B46807  21.765  39.857   6.260
 3590POPC   C2B46808  21.763  39.569   6.641
 3590POPC   C3B46809  21.782  39.677   7.089
 3590POPC   C4B46810  21.695  40.076   7.332
 3591POPC   NC346811  35.282  17.399   5.227
 3591POPC   PO446812  35.665  17.722   5.614
 3591POPC   GL146813  35.504  17.505   5.944
 3591POPC   GL246814  35.209  17.445   5.806
 3591POPC   C1A46815  35.362  17.626   6.342
 3591POPC   D2A46816  35.099  17.695   6.670
 3591POPC   C3A46817  35.355  17.496   6.991
 3591POPC   C4A46818  35.541  17.701   7.324
 3591POPC   C1B46819  34.970  17.358   6.202
 3591POPC   C2B46820  35.085  17.191   6.624
 3591POPC   C3B46821  34.915  17.255   7.031
 3591POPC   C4B46822  35.067  17.358   7.448
 3592POPC   NC346823  16.155  44.938   5.608
 3592POPC   PO446824  16.294  44.265   5.609
 3592POPC   GL146825  16.092  44.482   5.906
 3592POPC   GL246826  15.804  44.672   5.878
 3592POPC   C1A46827  16.127  44.626   6.313
 3592POPC   D2A46828  15.863  44.500   6.619
 3592POPC   C3A46829  16.060  44.446   7.015
 3592POPC   C4A46830  16.398  44.360   7.256
 3592POPC   C1B46831  15.706  44.923   6.276
 3592POPC   C2B46832  15.973  44.999   6.658
 3592POPC   C3B46833  15.805  44.882   7.052
 3592POPC   C4B46834  15.563  44.922   7.431
 3593POPC   NC346835  14.824  41.385   5.492
 3593POPC   PO446836  14.692  40.652   5.397
 3593POPC   GL146837  14.472  40.922   5.800
 3593POPC   GL246838  14.115  41.057   5.831
 3593POPC   C1A46839  14.416  40.883   6.272
 3593POPC   D2A46840  14.287  40.523   6.584
 3593POPC   C3A46841  14.328  40.632   7.024
 3593POPC   C4A46842  14.611  40.958   7.220
 3593POPC   C1B46843  13.931  41.012   6.276
 3593POPC   C2B46844  14.139  41.048   6.708
 3593POPC   C3B46845  14.114  41.079   7.158
 3593POPC   C4B46846  13.887  41.324   7.432
 3594POPC   NC346847  15.908  24.719   5.103
 3594POPC   PO446848  16.006  25.139   5.577
 3594POPC   GL146849  15.790  24.755   5.778
 3594POPC   GL246850  15.926  24.377   5.759
 3594POPC   C1A46851  15.711  24.561   6.177
 3594POPC   D2A46852  15.884  24.442   6.566
 3594POPC   C3A46853  15.974  24.705   6.884
 3594POPC   C4A46854  15.808  24.528   7.217
 3594POPC   C1B46855  16.027  24.124   6.163
 3594POPC   C2B46856  16.067  23.975   6.607
 3594POPC   C3B46857  16.178  24.222   6.972
 3594POPC   C4B46858  16.082  24.150   7.406
 3595POPC   NC346859  40.205  33.363   5.044
 3595POPC   PO446860  39.800  33.851   5.128
 3595POPC   GL146861  39.932  33.808   5.668
 3595POPC   GL246862  39.777  33.572   5.850
 3595POPC   C1A46863  40.084  33.760   6.182
 3595POPC   D2A46864  40.157  33.483   6.568
 3595POPC   C3A46865  40.177  33.717   6.964
 3595POPC   C4A46866  40.336  33.772   7.371
 3595POPC   C1B46867  39.575  33.747   6.187
 3595POPC   C2B46868  39.740  33.818   6.562
 3595POPC   C3B46869  39.662  33.671   6.931
 3595POPC   C4B46870  39.769  33.781   7.308
 3596POPC   NC346871  30.119  41.408   5.272
 3596POPC   PO446872  29.747  41.845   5.644
 3596POPC   GL146873  29.885  41.407   5.802
 3596POPC   GL246874  29.584  41.206   5.939
 3596POPC   C1A46875  30.059  41.223   6.165
 3596POPC   D2A46876  30.293  41.456   6.469
 3596POPC   C3A46877  30.089  41.554   6.845
 3596POPC   C4A46878  30.055  41.363   7.258
 3596POPC   C1B46879  29.630  41.535   6.239
 3596POPC   C2B46880  29.588  41.554   6.660
 3596POPC   C3B46881  29.633  41.324   6.996
 3596POPC   C4B46882  29.569  41.485   7.370
 3597POPC   NC346883  27.931  26.274   5.672
 3597POPC   PO446884  27.714  25.733   5.318
 3597POPC   GL146885  27.735  25.764   5.827
 3597POPC   GL246886  28.017  25.936   6.048
 3597POPC   C1A46887  27.558  25.852   6.282
 3597POPC   D2A46888  27.219  25.993   6.576
 3597POPC   C3A46889  27.308  26.041   7.000
 3597POPC   C4A46890  27.461  26.127   7.403
 3597POPC   C1B46891  27.821  26.301   6.306
 3597POPC   C2B46892  27.658  26.253   6.671
 3597POPC   C3B46893  27.814  25.990   6.983
 3597POPC   C4B46894  27.927  26.268   7.282
 3598POPC   NC346895   9.629  43.135   5.355
 3598POPC   PO446896  10.253  42.975   5.554
 3598POPC   GL146897   9.850  43.099   5.809
 3598POPC   GL246898   9.533  42.940   5.809
 3598POPC   C1A46899   9.722  43.173   6.267
 3598POPC   D2A46900   9.890  43.158   6.709
 3598POPC   C3A46901   9.672  43.226   7.105
 3598POPC   C4A46902   9.706  43.498   7.459
 3598POPC   C1B46903   9.452  42.735   6.186
 3598POPC   C2B46904   9.402  42.820   6.632
 3598POPC   C3B46905   9.553  42.737   7.025
 3598POPC   C4B46906   9.948  42.565   7.090
 3599POPC   NC346907   5.204  24.031   5.452
 3599POPC   PO446908   4.891  24.663   5.566
 3599POPC   GL146909   5.100  24.581   5.911
 3599POPC   GL246910   5.330  24.390   5.792
 3599POPC   C1A46911   4.915  24.415   6.289
 3599POPC   D2A46912   4.743  24.584   6.634
 3599POPC   C3A46913   4.940  24.406   6.986
 3599POPC   C4A46914   5.046  24.534   7.377
 3599POPC   C1B46915   5.414  24.325   6.228
 3599POPC   C2B46916   5.335  24.334   6.667
 3599POPC   C3B46917   5.443  24.503   7.066
 3599POPC   C4B46918   5.501  24.334   7.503
 3600POPC   NC346919  24.022  16.675   5.456
 3600POPC   PO446920  23.703  17.303   5.378
 3600POPC   GL146921  23.704  17.007   5.800
 3600POPC   GL246922  23.768  16.638   5.887
 3600POPC   C1A46923  23.542  16.906   6.254
 3600POPC   D2A46924  23.658  16.670   6.587
 3600POPC   C3A46925  23.531  16.855   6.984
 3600POPC   C4A46926  23.592  16.598   7.345
 3600POPC   C1B46927  24.062  16.771   6.214
 3600POPC   C2B46928  24.240  16.720   6.630
 3600POPC   C3B46929  24.000  16.677   6.983
 3600POPC   C4B46930  23.928  16.962   7.328
 3601POPC   NC346931  14.478  11.211   5.516
 3601POPC   PO446932  14.061  10.817   5.701
 3601POPC   GL146933  14.293  11.159   6.007
 3601POPC   GL246934  14.399  11.523   5.908
 3601POPC   C1A46935  14.343  11.456   6.405
 3601POPC   D2A46936  14.235  11.597   6.824
 3601POPC   C3A46937  14.076  11.266   7.111
 3601POPC   C4A46938  14.193  11.026   7.516
 3601POPC   C1B46939  14.779  11.366   6.145
 3601POPC   C2B46940  14.875  11.227   6.576
 3601POPC   C3B46941  14.659  11.232   6.981
 3601POPC   C4B46942  14.497  11.510   7.285
 3602POPC   NC346943  24.427  18.651   5.458
 3602POPC   PO446944  24.946  19.045   5.515
 3602POPC   GL146945  24.642  18.872   5.874
 3602POPC   GL246946  24.246  18.931   5.836
 3602POPC   C1A46947  24.711  18.804   6.331
 3602POPC   D2A46948  25.008  18.667   6.691
 3602POPC   C3A46949  24.816  18.671   7.135
 3602POPC   C4A46950  24.747  18.731   7.622
 3602POPC   C1B46951  24.199  18.803   6.255
 3602POPC   C2B46952  24.300  19.006   6.635
 3602POPC   C3B46953  24.288  19.152   7.056
 3602POPC   C4B46954  24.322  18.864   7.390
 3603POPC   NC346955  31.834  19.015   5.688
 3603POPC   PO446956  31.370  19.454   5.384
 3603POPC   GL146957  31.371  19.210   5.766
 3603POPC   GL246958  31.333  18.863   5.806
 3603POPC   C1A46959  31.370  19.184   6.213
 3603POPC   D2A46960  31.500  19.455   6.537
 3603POPC   C3A46961  31.274  19.393   6.921
 3603POPC   C4A46962  31.225  19.084   7.252
 3603POPC   C1B46963  31.468  18.692   6.216
 3603POPC   C2B46964  31.219  18.586   6.588
 3603POPC   C3B46965  31.327  18.679   6.987
 3603POPC   C4B46966  31.690  18.777   7.211
 3604POPC   NC346967   1.917  41.806   5.482
 3604POPC   PO446968   1.742  41.183   5.620
 3604POPC   GL146969   1.909  41.430   5.854
 3604POPC   GL246970   2.232  41.431   5.711
 3604POPC   C1A46971   1.831  41.516   6.266
 3604POPC   D2A46972   2.117  41.641   6.547
 3604POPC   C3A46973   1.918  41.601   6.934
 3604POPC   C4A46974   2.010  41.859   7.271
 3604POPC   C1B46975   2.304  41.273   6.135
 3604POPC   C2B46976   2.283  41.164   6.560
 3604POPC   C3B46977   2.382  41.358   6.922
 3604POPC   C4B46978   2.213  41.353   7.305
 3605POPC   NC346979   9.332   0.665   5.358
 3605POPC   PO446980   9.935   0.406   5.326
 3605POPC   GL146981   9.883   0.265   5.743
 3605POPC   GL246982   9.565   0.443   5.784
 3605POPC   C1A46983   9.921   0.352   6.159
 3605POPC   D2A46984   9.565   0.377   6.423
 3605POPC   C3A46985   9.704   0.236   6.810
 3605POPC   C4A46986   9.852   0.504   7.134
 3605POPC   C1B46987   9.338   0.736   6.068
 3605POPC   C2B46988   9.135   0.670   6.480
 3605POPC   C3B46989   9.354   0.601   6.874
 3605POPC   C4B46990   9.318   0.734   7.285
 3606POPC   NC346991  33.936   1.781   5.561
 3606POPC   PO446992  33.707   2.413   5.406
 3606POPC   GL146993  33.660   2.147   5.796
 3606POPC   GL246994  33.989   2.075   5.975
 3606POPC   C1A46995  33.559   2.077   6.245
 3606POPC   D2A46996  33.848   2.119   6.599
 3606POPC   C3A46997  33.763   2.037   7.026
 3606POPC   C4A46998  33.644   1.994   7.421
 3606POPC   C1B46999  34.158   1.819   6.299
 3606POPC   C2B47000  34.061   1.647   6.683
 3606POPC   C3B47001  34.289   1.730   7.038
 3606POPC   C4B47002  34.114   1.854   7.404
 3607POPC   NC347003  23.971  26.207   5.369
 3607POPC   PO447004  23.509  25.731   5.553
 3607POPC   GL147005  23.848  25.905   5.807
 3607POPC   GL247006  23.739  26.208   5.810
 3607POPC   C1A47007  23.870  25.945   6.259
 3607POPC   D2A47008  23.723  25.702   6.617
 3607POPC   C3A47009  23.720  25.767   7.067
 3607POPC   C4A47010  24.059  25.943   7.290
 3607POPC   C1B47011  23.573  26.405   6.142
 3607POPC   C2B47012  23.609  26.358   6.555
 3607POPC   C3B47013  23.391  26.499   6.908
 3607POPC   C4B47014  23.590  26.415   7.279
 3608POPC   NC347015  12.054  22.852   5.425
 3608POPC   PO447016  12.190  23.522   5.300
 3608POPC   GL147017  12.124  23.284   5.742
 3608POPC   GL247018  11.790  23.082   5.779
 3608POPC   C1A47019  12.075  23.167   6.212
 3608POPC   D2A47020  12.096  23.270   6.697
 3608POPC   C3A47021  12.336  23.091   7.071
 3608POPC   C4A47022  12.189  23.228   7.493
 3608POPC   C1B47023  11.762  22.751   6.095
 3608POPC   C2B47024  11.846  22.590   6.505
 3608POPC   C3B47025  11.996  22.767   6.868
 3608POPC   C4B47026  12.041  22.749   7.300
 3609POPC   NC347027   4.133   8.152   5.517
 3609POPC   PO447028   4.522   8.348   4.978
 3609POPC   GL147029   4.622   8.392   5.482
 3609POPC   GL247030   4.636   8.080   5.745
 3609POPC   C1A47031   4.548   8.538   5.945
 3609POPC   D2A47032   4.434   8.579   6.405
 3609POPC   C3A47033   4.553   8.278   6.730
 3609POPC   C4A47034   4.513   8.283   7.194
 3609POPC   C1B47035   4.437   8.086   6.197
 3609POPC   C2B47036   4.124   8.021   6.544
 3609POPC   C3B47037   4.211   7.938   6.974
 3609POPC   C4B47038   4.106   8.010   7.408
 3610POPC   NC347039  33.156  23.676   5.435
 3610POPC   PO447040  32.683  23.282   5.715
 3610POPC   GL147041  32.747  23.613   5.979
 3610POPC   GL247042  33.080  23.736   5.934
 3610POPC   C1A47043  32.823  23.622   6.429
 3610POPC   D2A47044  33.160  23.853   6.630
 3610POPC   C3A47045  33.009  23.869   7.002
 3610POPC   C4A47046  32.832  23.735   7.346
 3610POPC   C1B47047  33.282  23.447   6.241
 3610POPC   C2B47048  33.293  23.372   6.703
 3610POPC   C3B47049  33.233  23.436   7.143
 3610POPC   C4B47050  33.316  23.795   7.415
 3611POPC   NC347051  13.840  35.174   5.387
 3611POPC   PO447052  13.318  35.521   5.647
 3611POPC   GL147053  13.685  35.402   5.881
 3611POPC   GL247054  13.750  35.023   5.889
 3611POPC   C1A47055  13.782  35.335   6.324
 3611POPC   D2A47056  13.619  35.025   6.611
 3611POPC   C3A47057  13.752  35.027   7.030
 3611POPC   C4A47058  13.771  35.384   7.309
 3611POPC   C1B47059  13.359  35.092   6.158
 3611POPC   C2B47060  13.131  34.903   6.485
 3611POPC   C3B47061  13.167  35.024   6.883
 3611POPC   C4B47062  13.254  35.349   7.147
 3612POPC   NC347063  12.948  11.631   5.242
 3612POPC   PO447064  12.614  11.066   5.535
 3612POPC   GL147065  12.859  11.177   5.837
 3612POPC   GL247066  12.901  11.505   5.763
 3612POPC   C1A47067  13.025  11.093   6.228
 3612POPC   D2A47068  13.170  11.322   6.583
 3612POPC   C3A47069  12.888  11.279   6.945
 3612POPC   C4A47070  12.667  11.288   7.329
 3612POPC   C1B47071  12.931  11.625   6.179
 3612POPC   C2B47072  13.180  11.847   6.463
 3612POPC   C3B47073  13.161  11.738   6.895
 3612POPC   C4B47074  12.942  11.704   7.246
 3613POPC   NC347075  43.286  27.207   5.539
 3613POPC   PO447076  43.323  26.477   5.430
 3613POPC   GL147077  43.171  26.606   5.867
 3613POPC   GL247078  43.300  26.912   5.934
 3613POPC   C1A47079  42.891  26.801   6.240
 3613POPC   D2A47080  42.652  26.748   6.633
 3613POPC   C3A47081  42.882  26.897   7.018
 3613POPC   C4A47082  43.226  26.700   7.236
 3613POPC   C1B47083  43.242  27.167   6.270
 3613POPC   C2B47084  43.272  26.960   6.645
 3613POPC   C3B47085  43.338  27.236   6.948
 3613POPC   C4B47086  43.408  27.190   7.349
 3614POPC   NC347087  19.367  31.307   5.454
 3614POPC   PO447088  18.844  31.730   5.319
 3614POPC   GL147089  18.975  31.518   5.711
 3614POPC   GL247090  18.817  31.203   5.853
 3614POPC   C1A47091  19.168  31.513   6.105
 3614POPC   D2A47092  19.040  31.589   6.555
 3614POPC   C3A47093  19.296  31.453   6.904
 3614POPC   C4A47094  19.415  31.758   7.221
 3614POPC   C1B47095  18.843  31.143   6.333
 3614POPC   C2B47096  18.880  31.157   6.808
 3614POPC   C3B47097  18.772  31.064   7.271
 3614POPC   C4B47098  18.860  31.113   7.758
 3615POPC   NC347099  20.059   2.718   5.262
 3615POPC   PO447100  19.751   3.229   5.605
 3615POPC   GL147101  20.006   2.964   5.797
 3615POPC   GL247102  19.968   2.599   5.768
 3615POPC   C1A47103  20.063   2.967   6.224
 3615POPC   D2A47104  19.867   3.118   6.575
 3615POPC   C3A47105  20.064   2.988   6.932
 3615POPC   C4A47106  19.905   2.909   7.308
 3615POPC   C1B47107  20.024   2.458   6.187
 3615POPC   C2B47108  19.900   2.560   6.587
 3615POPC   C3B47109  20.027   2.466   7.030
 3615POPC   C4B47110  19.818   2.431   7.459
 3616POPC   NC347111   9.425  40.506   5.358
 3616POPC   PO447112   9.909  40.035   5.589
 3616POPC   GL147113   9.851  40.114   5.983
 3616POPC   GL247114   9.494  40.263   5.978
 3616POPC   C1A47115  10.057  40.008   6.372
 3616POPC   D2A47116   9.976  40.094   6.821
 3616POPC   C3A47117   9.803  39.785   7.064
 3616POPC   C4A47118   9.559  39.873   7.407
 3616POPC   C1B47119   9.710  40.413   6.357
 3616POPC   C2B47120   9.638  40.566   6.738
 3616POPC   C3B47121   9.546  40.306   7.064
 3616POPC   C4B47122   9.849  40.296   7.343
 3617POPC   NC347123  22.638   4.674   5.685
 3617POPC   PO447124  23.067   4.276   5.271
 3617POPC   GL147125  23.074   4.373   5.773
 3617POPC   GL247126  23.223   4.633   5.983
 3617POPC   C1A47127  22.882   4.307   6.208
 3617POPC   D2A47128  23.015   4.297   6.604
 3617POPC   C3A47129  22.848   4.088   6.904
 3617POPC   C4A47130  22.894   4.245   7.290
 3617POPC   C1B47131  22.896   4.831   6.246
 3617POPC   C2B47132  22.665   4.680   6.579
 3617POPC   C3B47133  22.633   4.544   6.966
 3617POPC   C4B47134  22.729   4.704   7.382
 3618POPC   NC347135   7.622  16.505   5.419
 3618POPC   PO447136   8.121  16.994   5.445
 3618POPC   GL147137   8.226  16.750   5.794
 3618POPC   GL247138   8.012  16.496   5.740
 3618POPC   C1A47139   8.150  16.795   6.227
 3618POPC   D2A47140   7.885  16.831   6.559
 3618POPC   C3A47141   8.170  16.786   6.857
 3618POPC   C4A47142   8.130  16.673   7.276
 3618POPC   C1B47143   7.798  16.447   6.124
 3618POPC   C2B47144   7.897  16.336   6.534
 3618POPC   C3B47145   7.816  16.441   6.949
 3618POPC   C4B47146   7.885  16.162   7.309
 3619POPC   NC347147  40.970   4.029   5.447
 3619POPC   PO447148  40.801   4.657   5.333
 3619POPC   GL147149  40.793   4.438   5.718
 3619POPC   GL247150  41.159   4.385   5.794
 3619POPC   C1A47151  40.722   4.250   6.108
 3619POPC   D2A47152  40.620   4.137   6.510
 3619POPC   C3A47153  40.648   4.480   6.801
 3619POPC   C4A47154  40.704   4.178   7.108
 3619POPC   C1B47155  41.215   4.371   6.254
 3619POPC   C2B47156  41.104   4.246   6.679
 3619POPC   C3B47157  41.200   4.239   7.120
 3619POPC   C4B47158  40.970   4.237   7.557
 3620POPC   NC347159  31.253   7.100   5.535
 3620POPC   PO447160  31.756   7.549   5.376
 3620POPC   GL147161  31.661   7.300   5.780
 3620POPC   GL247162  31.348   7.301   5.983
 3620POPC   C1A47163  31.741   7.177   6.241
 3620POPC   D2A47164  31.524   7.235   6.629
 3620POPC   C3A47165  31.637   7.403   7.025
 3620POPC   C4A47166  31.586   7.198   7.428
 3620POPC   C1B47167  31.153   7.481   6.349
 3620POPC   C2B47168  31.019   7.257   6.712
 3620POPC   C3B47169  31.149   7.116   7.093
 3620POPC   C4B47170  31.177   7.483   7.291
 3621POPC   NC347171  22.514  13.599   5.459
 3621POPC   PO447172  23.161  13.704   5.419
 3621POPC   GL147173  23.055  13.615   5.860
 3621POPC   GL247174  22.695  13.741   5.935
 3621POPC   C1A47175  22.924  13.424   6.276
 3621POPC   D2A47176  22.891  13.612   6.702
 3621POPC   C3A47177  22.655  13.658   7.087
 3621POPC   C4A47178  22.959  13.412   7.264
 3621POPC   C1B47179  22.924  13.968   6.293
 3621POPC   C2B47180  23.098  14.074   6.723
 3621POPC   C3B47181  23.124  13.913   7.174
 3621POPC   C4B47182  23.201  14.006   7.654
 3622POPC   NC347183   8.516  11.196   5.520
 3622POPC   PO447184   9.144  11.067   5.259
 3622POPC   GL147185   9.018  11.306   5.714
 3622POPC   GL247186   8.801  11.633   5.787
 3622POPC   C1A47187   8.779  11.281   6.162
 3622POPC   D2A47188   8.635  11.415   6.604
 3622POPC   C3A47189   8.641  11.091   6.940
 3622POPC   C4A47190   8.906  10.990   7.316
 3622POPC   C1B47191   9.119  11.670   6.155
 3622POPC   C2B47192   9.241  11.493   6.547
 3622POPC   C3B47193   9.049  11.404   6.946
 3622POPC   C4B47194   8.825  11.487   7.285
 3623POPC   NC347195  13.493  27.681   5.486
 3623POPC   PO447196  13.882  27.193   5.290
 3623POPC   GL147197  13.721  27.346   5.781
 3623POPC   GL247198  13.466  27.180   5.924
 3623POPC   C1A47199  13.503  27.633   6.161
 3623POPC   D2A47200  13.294  27.798   6.592
 3623POPC   C3A47201  13.497  27.722   7.024
 3623POPC   C4A47202  13.469  27.610   7.477
 3623POPC   C1B47203  13.731  27.182   6.268
 3623POPC   C2B47204  13.775  27.268   6.690
 3623POPC   C3B47205  13.604  27.197   7.075
 3623POPC   C4B47206  13.878  27.390   7.326
 3624POPC   NC347207  19.920  15.985   5.251
 3624POPC   PO447208  19.362  15.894   5.565
 3624POPC   GL147209  19.751  15.756   5.759
 3624POPC   GL247210  19.919  16.115   5.753
 3624POPC   C1A47211  19.688  15.566   6.199
 3624POPC   D2A47212  19.567  15.826   6.578
 3624POPC   C3A47213  19.480  15.686   6.999
 3624POPC   C4A47214  19.772  15.641   7.312
 3624POPC   C1B47215  19.983  15.988   6.155
 3624POPC   C2B47216  20.011  16.117   6.560
 3624POPC   C3B47217  19.944  15.970   6.958
 3624POPC   C4B47218  19.673  16.139   7.282
 3625POPC   NC347219  12.765  30.456   5.220
 3625POPC   PO447220  12.952  29.835   5.213
 3625POPC   GL147221  12.895  29.825   5.685
 3625POPC   GL247222  12.784  29.530   5.869
 3625POPC   C1A47223  12.839  30.002   6.103
 3625POPC   D2A47224  12.895  29.852   6.531
 3625POPC   C3A47225  12.729  30.072   6.867
 3625POPC   C4A47226  12.942  29.992   7.233
 3625POPC   C1B47227  12.606  29.501   6.254
 3625POPC   C2B47228  12.786  29.346   6.618
 3625POPC   C3B47229  12.790  29.554   6.978
 3625POPC   C4B47230  12.398  29.722   7.081
 3626POPC   NC347231  40.935  31.919   5.041
 3626POPC   PO447232  40.600  32.260   5.499
 3626POPC   GL147233  40.740  32.407   5.863
 3626POPC   GL247234  40.445  32.609   5.877
 3626POPC   C1A47235  40.858  32.213   6.251
 3626POPC   D2A47236  41.092  31.934   6.529
 3626POPC   C3A47237  41.029  32.117   6.908
 3626POPC   C4A47238  40.812  32.366   7.253
 3626POPC   C1B47239  40.613  32.689   6.284
 3626POPC   C2B47240  40.689  32.502   6.679
 3626POPC   C3B47241  40.558  32.725   7.028
 3626POPC   C4B47242  40.631  32.774   7.481
 3627POPC   NC347243  25.153  38.436   5.511
 3627POPC   PO447244  25.728  38.575   5.750
 3627POPC   GL147245  25.420  38.419   5.979
 3627POPC   GL247246  25.188  38.660   5.958
 3627POPC   C1A47247  25.327  38.374   6.410
 3627POPC   D2A47248  25.496  38.570   6.779
 3627POPC   C3A47249  25.477  38.352   7.182
 3627POPC   C4A47250  25.503  38.532   7.592
 3627POPC   C1B47251  24.940  38.851   6.264
 3627POPC   C2B47252  24.749  38.737   6.625
 3627POPC   C3B47253  24.999  38.473   6.810
 3627POPC   C4B47254  25.133  38.726   7.117
 3628POPC   NC347255  25.030  34.277   5.042
 3628POPC   PO447256  25.266  34.787   5.465
 3628POPC   GL147257  25.083  34.654   5.955
 3628POPC   GL247258  25.030  34.250   6.038
 3628POPC   C1A47259  25.241  34.570   6.395
 3628POPC   D2A47260  25.429  34.685   6.783
 3628POPC   C3A47261  25.108  34.785   7.031
 3628POPC   C4A47262  24.956  34.801   7.438
 3628POPC   C1B47263  24.952  34.101   6.462
 3628POPC   C2B47264  24.962  34.345   6.831
 3628POPC   C3B47265  25.081  34.311   7.274
 3628POPC   C4B47266  25.237  34.188   7.711
 3629POPC   NC347267   1.364  38.125   5.454
 3629POPC   PO447268   1.469  37.469   5.564
 3629POPC   GL147269   1.192  37.565   5.902
 3629POPC   GL247270   1.074  37.899   5.839
 3629POPC   C1A47271   1.074  37.565   6.344
 3629POPC   D2A47272   1.163  37.705   6.788
 3629POPC   C3A47273   1.225  37.424   7.156
 3629POPC   C4A47274   1.544  37.262   7.421
 3629POPC   C1B47275   1.199  38.042   6.267
 3629POPC   C2B47276   1.051  38.210   6.692
 3629POPC   C3B47277   1.153  38.112   7.115
 3629POPC   C4B47278   1.251  37.912   7.479
 3630POPC   NC347279  10.422  22.587   5.643
 3630POPC   PO447280  10.804  22.080   5.599
 3630POPC   GL147281  10.663  22.257   5.948
 3630POPC   GL247282  10.875  22.525   5.954
 3630POPC   C1A47283  10.420  22.421   6.311
 3630POPC   D2A47284  10.281  22.575   6.726
 3630POPC   C3A47285  10.346  22.280   7.067
 3630POPC   C4A47286  10.403  21.879   7.261
 3630POPC   C1B47287  10.934  22.233   6.364
 3630POPC   C2B47288  10.806  21.896   6.633
 3630POPC   C3B47289  10.879  21.793   7.042
 3630POPC   C4B47290  10.828  22.163   7.257
 3631POPC   NC347291  23.157   8.384   5.551
 3631POPC   PO447292  23.007   7.786   5.724
 3631POPC   GL147293  22.787   8.197   5.884
 3631POPC   GL247294  23.024   8.469   6.032
 3631POPC   C1A47295  22.540   8.425   6.186
 3631POPC   D2A47296  22.724   8.429   6.603
 3631POPC   C3A47297  22.542   8.391   7.021
 3631POPC   C4A47298  22.462   8.018   7.265
 3631POPC   C1B47299  23.088   8.122   6.322
 3631POPC   C2B47300  22.990   7.950   6.734
 3631POPC   C3B47301  22.984   8.110   7.168
 3631POPC   C4B47302  23.092   8.507   7.371
 3632POPC   NC347303  21.904  13.327   5.524
 3632POPC   PO447304  21.612  13.845   5.372
 3632POPC   GL147305  21.929  13.742   5.811
 3632POPC   GL247306  22.228  13.471   5.874
 3632POPC   C1A47307  22.229  13.818   6.219
 3632POPC   D2A47308  22.401  13.536   6.564
 3632POPC   C3A47309  22.166  13.490   6.997
 3632POPC   C4A47310  22.256  13.540   7.456
 3632POPC   C1B47311  21.922  13.382   6.229
 3632POPC   C2B47312  21.637  13.243   6.595
 3632POPC   C3B47313  21.680  13.257   7.037
 3632POPC   C4B47314  21.777  13.570   7.347
 3633POPC   NC347315   6.723  39.418   5.353
 3633POPC   PO447316   7.100  38.930   5.651
 3633POPC   GL147317   6.754  39.098   5.923
 3633POPC   GL247318   6.564  39.432   5.894
 3633POPC   C1A47319   6.815  39.274   6.324
 3633POPC   D2A47320   6.793  39.072   6.671
 3633POPC   C3A47321   6.775  39.219   7.037
 3633POPC   C4A47322   6.555  38.955   7.245
 3633POPC   C1B47323   6.436  39.609   6.327
 3633POPC   C2B47324   6.363  39.366   6.739
 3633POPC   C3B47325   6.345  39.415   7.190
 3633POPC   C4B47326   6.678  39.686   7.330
 3634POPC   NC347327   5.256  30.560   5.516
 3634POPC   PO447328   4.728  30.986   5.456
 3634POPC   GL147329   4.967  30.828   5.845
 3634POPC   GL247330   4.928  30.485   5.932
 3634POPC   C1A47331   5.192  30.790   6.285
 3634POPC   D2A47332   5.432  30.775   6.708
 3634POPC   C3A47333   5.301  31.026   7.054
 3634POPC   C4A47334   4.905  31.043   7.203
 3634POPC   C1B47335   4.801  30.432   6.343
 3634POPC   C2B47336   5.040  30.424   6.690
 3634POPC   C3B47337   5.051  30.567   7.078
 3634POPC   C4B47338   4.706  30.446   7.302
 3635POPC   NC347339  35.853  16.581   5.436
 3635POPC   PO447340  36.250  16.991   5.705
 3635POPC   GL147341  35.934  16.778   5.914
 3635POPC   GL247342  35.900  16.405   5.904
 3635POPC   C1A47343  35.848  16.821   6.333
 3635POPC   D2A47344  36.038  16.677   6.703
 3635POPC   C3A47345  35.999  16.900   7.087
 3635POPC   C4A47346  36.336  17.121   7.310
 3635POPC   C1B47347  36.021  16.339   6.283
 3635POPC   C2B47348  36.168  16.190   6.646
 3635POPC   C3B47349  36.316  16.351   7.012
 3635POPC   C4B47350  36.142  16.456   7.368
 3636POPC   NC347351  30.255  27.495   5.108
 3636POPC   PO447352  29.810  27.908   5.437
 3636POPC   GL147353  29.849  27.586   5.691
 3636POPC   GL247354  30.196  27.504   5.616
 3636POPC   C1A47355  29.792  27.541   6.122
 3636POPC   D2A47356  29.706  27.732   6.515
 3636POPC   C3A47357  29.896  27.574   6.876
 3636POPC   C4A47358  29.760  27.536   7.271
 3636POPC   C1B47359  30.273  27.417   6.046
 3636POPC   C2B47360  30.219  27.589   6.469
 3636POPC   C3B47361  30.378  27.780   6.839
 3636POPC   C4B47362  30.281  27.666   7.226
 3637POPC   NC347363   8.555  33.085   5.236
 3637POPC   PO447364   9.228  33.069   5.400
 3637POPC   GL147365   9.079  33.085   5.804
 3637POPC   GL247366   8.936  32.786   5.923
 3637POPC   C1A47367   8.993  33.171   6.241
 3637POPC   D2A47368   9.181  33.037   6.594
 3637POPC   C3A47369   9.025  33.246   6.923
 3637POPC   C4A47370   9.092  33.155   7.304
 3637POPC   C1B47371   8.609  32.829   6.285
 3637POPC   C2B47372   8.683  32.954   6.699
 3637POPC   C3B47373   8.892  32.748   7.040
 3637POPC   C4B47374   8.811  32.726   7.488
 3638POPC   NC347375  22.909  38.762   5.389
 3638POPC   PO447376  22.936  38.100   5.493
 3638POPC   GL147377  23.089  38.192   5.856
 3638POPC   GL247378  23.052  38.536   5.825
 3638POPC   C1A47379  23.074  38.274   6.269
 3638POPC   D2A47380  23.316  38.285   6.600
 3638POPC   C3A47381  23.074  38.252   6.965
 3638POPC   C4A47382  23.199  38.308   7.403
 3638POPC   C1B47383  22.851  38.738   6.223
 3638POPC   C2B47384  22.907  38.618   6.642
 3638POPC   C3B47385  22.894  38.745   7.077
 3638POPC   C4B47386  22.848  38.672   7.529
 3639POPC   NC347387  34.304  34.041   5.536
 3639POPC   PO447388  34.964  33.889   5.331
 3639POPC   GL147389  34.789  33.913   5.804
 3639POPC   GL247390  34.472  33.685   5.870
 3639POPC   C1A47391  34.689  34.059   6.265
 3639POPC   D2A47392  34.532  33.895   6.661
 3639POPC   C3A47393  34.680  34.089   7.000
 3639POPC   C4A47394  34.879  33.805   7.240
 3639POPC   C1B47395  34.709  33.564   6.238
 3639POPC   C2B47396  34.767  33.308   6.575
 3639POPC   C3B47397  34.645  33.461   6.936
 3639POPC   C4B47398  34.388  33.704   7.191
 3640POPC   NC347399  33.751  43.897   5.443
 3640POPC   PO447400  34.350  44.165   5.475
 3640POPC   GL147401  34.037  44.153   5.841
 3640POPC   GL247402  33.900  43.823   5.923
 3640POPC   C1A47403  33.827  44.153   6.288
 3640POPC   D2A47404  33.591  43.962   6.676
 3640POPC   C3A47405  33.687  44.096   7.120
 3640POPC   C4A47406  33.475  44.265   7.491
 3640POPC   C1B47407  33.657  43.640   6.268
 3640POPC   C2B47408  33.756  43.463   6.693
 3640POPC   C3B47409  33.939  43.613   7.113
 3640POPC   C4B47410  33.938  43.738   7.582
 3641POPC   NC347411   3.664  28.493   5.309
 3641POPC   PO447412   3.679  27.916   5.566
 3641POPC   GL147413   3.581  28.260   5.792
 3641POPC   GL247414   3.222  28.179   5.832
 3641POPC   C1A47415   3.552  28.360   6.233
 3641POPC   D2A47416   3.546  28.151   6.625
 3641POPC   C3A47417   3.713  28.356   6.975
 3641POPC   C4A47418   3.622  28.259   7.395
 3641POPC   C1B47419   3.145  27.917   6.210
 3641POPC   C2B47420   3.265  27.725   6.649
 3641POPC   C3B47421   3.303  27.949   7.076
 3641POPC   C4B47422   3.177  28.075   7.552
 3642POPC   NC347423  26.005  19.283   5.236
 3642POPC   PO447424  26.389  18.767   5.097
 3642POPC   GL147425  26.268  18.992   5.567
 3642POPC   GL247426  25.935  19.217   5.720
 3642POPC   C1A47427  26.225  18.983   6.039
 3642POPC   D2A47428  26.189  19.092   6.493
 3642POPC   C3A47429  26.028  18.810   6.802
 3642POPC   C4A47430  26.020  18.898   7.264
 3642POPC   C1B47431  25.923  19.403   6.149
 3642POPC   C2B47432  25.751  19.328   6.573
 3642POPC   C3B47433  25.989  19.309   6.948
 3642POPC   C4B47434  25.925  19.457   7.356
 3643POPC   NC347435   0.207  29.774   5.279
 3643POPC   PO447436   0.547  30.263   5.270
 3643POPC   GL147437   0.323  30.094   5.693
 3643POPC   GL247438   0.241  29.712   5.777
 3643POPC   C1A47439   0.381  30.050   6.175
 3643POPC   D2A47440   0.498  29.788   6.571
 3643POPC   C3A47441   0.613  29.991   6.968
 3643POPC   C4A47442   0.768  29.780   7.325
 3643POPC   C1B47443   0.196  29.566   6.196
 3643POPC   C2B47444  44.978  29.679   6.589
 3643POPC   C3B47445   0.194  29.682   7.031
 3643POPC   C4B47446   0.259  29.786   7.521
 3644POPC   NC347447  39.604  12.781   5.434
 3644POPC   PO447448  40.293  12.854   5.582
 3644POPC   GL147449  40.023  12.924   5.959
 3644POPC   GL247450  39.705  12.737   5.932
 3644POPC   C1A47451  39.975  12.970   6.418
 3644POPC   D2A47452  40.023  12.607   6.663
 3644POPC   C3A47453  40.117  12.598   7.074
 3644POPC   C4A47454  40.146  13.031   7.139
 3644POPC   C1B47455  39.565  13.123   6.136
 3644POPC   C2B47456  39.456  13.124   6.594
 3644POPC   C3B47457  39.661  12.879   6.927
 3644POPC   C4B47458  39.711  12.765   7.347
 3645POPC   NC347459  18.707  16.837   5.112
 3645POPC   PO447460  19.224  16.514   5.302
 3645POPC   GL147461  19.001  16.673   5.664
 3645POPC   GL247462  19.343  16.685   5.806
 3645POPC   C1A47463  18.921  16.793   6.128
 3645POPC   D2A47464  18.698  16.976   6.507
 3645POPC   C3A47465  18.822  16.818   6.921
 3645POPC   C4A47466  19.023  16.470   7.138
 3645POPC   C1B47467  19.394  17.028   6.071
 3645POPC   C2B47468  19.232  17.066   6.488
 3645POPC   C3B47469  19.385  16.956   6.896
 3645POPC   C4B47470  19.240  16.906   7.292
 3646POPC   NC347471   3.741  17.770   5.443
 3646POPC   PO447472   3.238  17.353   5.511
 3646POPC   GL147473   3.587  17.426   5.800
 3646POPC   GL247474   3.438  17.743   5.876
 3646POPC   C1A47475   3.814  17.521   6.189
 3646POPC   D2A47476   3.581  17.642   6.566
 3646POPC   C3A47477   3.783  17.644   6.971
 3646POPC   C4A47478   3.842  17.348   7.329
 3646POPC   C1B47479   3.284  17.424   6.193
 3646POPC   C2B47480   3.112  17.435   6.591
 3646POPC   C3B47481   3.337  17.393   6.967
 3646POPC   C4B47482   3.330  17.264   7.371
 3647POPC   NC347483  11.597  34.064   5.544
 3647POPC   PO447484  11.592  34.719   5.532
 3647POPC   GL147485  11.435  34.455   5.880
 3647POPC   GL247486  11.160  34.235   5.778
 3647POPC   C1A47487  11.598  34.382   6.308
 3647POPC   D2A47488  11.857  34.264   6.658
 3647POPC   C3A47489  11.670  34.510   6.976
 3647POPC   C4A47490  11.477  34.913   6.919
 3647POPC   C1B47491  11.147  34.155   6.210
 3647POPC   C2B47492  11.053  34.430   6.547
 3647POPC   C3B47493  11.149  34.484   6.964
 3647POPC   C4B47494  11.147  34.188   7.299
 3648POPC   NC347495  30.961   4.945   5.649
 3648POPC   PO447496  31.583   4.992   5.359
 3648POPC   GL147497  31.430   5.095   5.791
 3648POPC   GL247498  31.212   5.401   5.828
 3648POPC   C1A47499  31.286   4.938   6.220
 3648POPC   D2A47500  31.559   4.919   6.576
 3648POPC   C3A47501  31.391   4.722   6.928
 3648POPC   C4A47502  31.566   4.788   7.302
 3648POPC   C1B47503  31.498   5.393   6.211
 3648POPC   C2B47504  31.413   5.443   6.655
 3648POPC   C3B47505  31.478   5.259   7.055
 3648POPC   C4B47506  31.423   5.290   7.505
 3649POPC   NC347507  24.320  40.802   5.209
 3649POPC   PO447508  24.170  40.404   5.745
 3649POPC   GL147509  24.544  40.602   5.909
 3649POPC   GL247510  24.487  40.973   5.946
 3649POPC   C1A47511  24.770  40.662   6.319
 3649POPC   D2A47512  24.732  40.432   6.723
 3649POPC   C3A47513  24.726  40.644   7.098
 3649POPC   C4A47514  24.985  40.933   7.271
 3649POPC   C1B47515  24.706  41.178   6.299
 3649POPC   C2B47516  24.768  41.024   6.729
 3649POPC   C3B47517  24.513  41.113   7.083
 3649POPC   C4B47518  24.091  40.992   7.253
 3650POPC   NC347519   3.834  18.548   5.504
 3650POPC   PO447520   3.322  18.119   5.415
 3650POPC   GL147521   3.524  18.247   5.813
 3650POPC   GL247522   3.885  18.137   5.845
 3650POPC   C1A47523   3.470  18.078   6.267
 3650POPC   D2A47524   3.536  18.125   6.729
 3650POPC   C3A47525   3.435  18.502   6.953
 3650POPC   C4A47526   3.282  18.297   7.298
 3650POPC   C1B47527   3.815  18.447   6.202
 3650POPC   C2B47528   3.885  18.482   6.638
 3650POPC   C3B47529   3.928  18.595   7.072
 3650POPC   C4B47530   3.786  18.504   7.482
 3651POPC   NC347531  18.737  22.953   5.491
 3651POPC   PO447532  19.309  22.578   5.311
 3651POPC   GL147533  19.178  22.808   5.732
 3651POPC   GL247534  18.855  22.773   5.937
 3651POPC   C1A47535  19.273  22.942   6.185
 3651POPC   D2A47536  19.093  23.125   6.598
 3651POPC   C3A47537  19.352  22.968   6.925
 3651POPC   C4A47538  19.460  22.666   7.236
 3651POPC   C1B47539  18.804  22.729   6.371
 3651POPC   C2B47540  18.864  22.627   6.799
 3651POPC   C3B47541  18.891  22.860   7.134
 3651POPC   C4B47542  18.864  23.294   7.141
 3652POPC   NC347543  29.830  22.557   5.391
 3652POPC   PO447544  30.220  22.053   5.517
 3652POPC   GL147545  30.181  22.215   5.874
 3652POPC   GL247546  29.844  22.321   5.852
 3652POPC   C1A47547  30.338  22.449   6.190
 3652POPC   D2A47548  30.145  22.599   6.571
 3652POPC   C3A47549  30.084  22.300   6.899
 3652POPC   C4A47550  30.139  22.260   7.325
 3652POPC   C1B47551  29.642  22.322   6.260
 3652POPC   C2B47552  29.583  22.453   6.686
 3652POPC   C3B47553  29.667  22.493   7.120
 3652POPC   C4B47554  29.651  22.232   7.468
 3653POPC   NC347555  37.411  18.955   4.993
 3653POPC   PO447556  37.980  18.848   5.340
 3653POPC   GL147557  37.791  19.005   5.823
 3653POPC   GL247558  37.973  19.339   5.861
 3653POPC   C1A47559  37.668  18.798   6.212
 3653POPC   D2A47560  37.683  18.992   6.607
 3653POPC   C3A47561  37.616  18.727   6.922
 3653POPC   C4A47562  37.487  18.843   7.328
 3653POPC   C1B47563  37.959  19.275   6.265
 3653POPC   C2B47564  38.155  19.196   6.617
 3653POPC   C3B47565  37.995  19.383   6.978
 3653POPC   C4B47566  37.646  19.315   7.260
 3654POPC   NC347567  21.660   3.584   5.380
 3654POPC   PO447568  21.431   3.066   5.556
 3654POPC   GL147569  21.419   3.432   5.838
 3654POPC   GL247570  21.301   3.788   5.754
 3654POPC   C1A47571  21.274   3.465   6.271
 3654POPC   D2A47572  21.193   3.259   6.661
 3654POPC   C3A47573  21.332   3.527   7.007
 3654POPC   C4A47574  21.217   3.746   7.381
 3654POPC   C1B47575  21.490   3.915   6.177
 3654POPC   C2B47576  21.549   3.765   6.621
 3654POPC   C3B47577  21.596   3.958   7.069
 3654POPC   C4B47578  21.697   3.822   7.525
 3655POPC   NC347579  24.902   7.226   5.028
 3655POPC   PO447580  25.015   7.592   5.591
 3655POPC   GL147581  24.596   7.440   5.770
 3655POPC   GL247582  24.398   7.737   5.836
 3655POPC   C1A47583  24.502   7.222   6.182
 3655POPC   D2A47584  24.159   7.334   6.486
 3655POPC   C3A47585  24.253   7.416   6.914
 3655POPC   C4A47586  24.231   7.308   7.341
 3655POPC   C1B47587  24.663   7.706   6.209
 3655POPC   C2B47588  24.686   7.569   6.636
 3655POPC   C3B47589  24.744   7.510   7.092
 3655POPC   C4B47590  24.657   7.478   7.568
 3656POPC   NC347591  41.402  12.783   5.343
 3656POPC   PO447592  42.077  13.052   5.377
 3656POPC   GL147593  41.659  13.046   5.719
 3656POPC   GL247594  41.548  12.714   5.827
 3656POPC   C1A47595  41.443  13.041   6.177
 3656POPC   D2A47596  41.322  12.954   6.614
 3656POPC   C3A47597  41.536  13.103   6.995
 3656POPC   C4A47598  41.732  12.980   7.396
 3656POPC   C1B47599  41.425  12.498   6.200
 3656POPC   C2B47600  41.496  12.447   6.634
 3656POPC   C3B47601  41.437  12.583   7.050
 3656POPC   C4B47602  41.492  12.534   7.490
 3657POPC   NC347603  27.096  40.870   5.212
 3657POPC   PO447604  26.465  40.527   5.329
 3657POPC   GL147605  26.677  40.746   5.684
 3657POPC   GL247606  27.017  40.804   5.708
 3657POPC   C1A47607  26.715  40.711   6.159
 3657POPC   D2A47608  26.534  40.734   6.593
 3657POPC   C3A47609  26.772  40.695   6.962
 3657POPC   C4A47610  26.895  40.633   7.381
 3657POPC   C1B47611  27.094  41.051   6.082
 3657POPC   C2B47612  27.278  41.064   6.522
 3657POPC   C3B47613  27.111  41.088   6.927
 3657POPC   C4B47614  27.214  41.047   7.351
 3658POPC   NC347615  31.823   4.497   5.413
 3658POPC   PO447616  31.122   4.441   5.440
 3658POPC   GL147617  31.441   4.393   5.794
 3658POPC   GL247618  31.536   4.052   5.914
 3658POPC   C1A47619  31.367   4.417   6.267
 3658POPC   D2A47620  31.100   4.271   6.630
 3658POPC   C3A47621  31.236   4.245   7.047
 3658POPC   C4A47622  31.322   4.376   7.466
 3658POPC   C1B47623  31.778   4.106   6.279
 3658POPC   C2B47624  31.616   4.255   6.700
 3658POPC   C3B47625  31.758   4.243   7.126
 3658POPC   C4B47626  31.905   3.949   7.455
 3659POPC   NC347627   3.085   7.496   5.505
 3659POPC   PO447628   2.449   7.551   5.433
 3659POPC   GL147629   2.687   7.548   5.805
 3659POPC   GL247630   2.757   7.174   5.779
 3659POPC   C1A47631   2.834   7.709   6.191
 3659POPC   D2A47632   2.674   7.568   6.586
 3659POPC   C3A47633   2.890   7.607   6.966
 3659POPC   C4A47634   2.809   7.887   7.268
 3659POPC   C1B47635   2.730   7.197   6.246
 3659POPC   C2B47636   2.992   7.162   6.664
 3659POPC   C3B47637   2.956   7.142   7.147
 3659POPC   C4B47638   2.968   7.387   7.538
 3660POPC   NC347639  37.224  37.782   5.491
 3660POPC   PO447640  36.872  37.242   5.383
 3660POPC   GL147641  36.866  37.519   5.745
 3660POPC   GL247642  37.203  37.445   5.873
 3660POPC   C1A47643  36.884  37.847   6.108
 3660POPC   D2A47644  36.729  37.980   6.573
 3660POPC   C3A47645  36.790  37.784   7.018
 3660POPC   C4A47646  36.939  37.663   7.435
 3660POPC   C1B47647  36.918  37.367   6.236
 3660POPC   C2B47648  36.905  37.404   6.674
 3660POPC   C3B47649  37.243  37.405   6.974
 3660POPC   C4B47650  37.430  37.144   7.277
 3661POPC   NC347651   3.368  25.764   5.296
 3661POPC   PO447652   3.244  25.143   5.384
 3661POPC   GL147653   3.289  25.269   5.786
 3661POPC   GL247654   3.549  25.033   5.843
 3661POPC   C1A47655   3.466  25.399   6.193
 3661POPC   D2A47656   3.679  25.563   6.569
 3661POPC   C3A47657   3.494  25.511   6.977
 3661POPC   C4A47658   3.680  25.519   7.375
 3661POPC   C1B47659   3.398  24.903   6.218
 3661POPC   C2B47660   3.443  25.108   6.625
 3661POPC   C3B47661   3.417  24.991   7.048
 3661POPC   C4B47662   3.087  24.829   7.250
 3662POPC   NC347663  30.165  20.048   5.471
 3662POPC   PO447664  29.742  19.431   5.460
 3662POPC   GL147665  29.965  19.667   5.796
 3662POPC   GL247666  29.884  20.040   5.885
 3662POPC   C1A47667  30.153  19.607   6.209
 3662POPC   D2A47668  29.970  19.681   6.607
 3662POPC   C3A47669  30.136  19.582   7.005
 3662POPC   C4A47670  29.906  19.693   7.332
 3662POPC   C1B47671  29.625  20.230   6.216
 3662POPC   C2B47672  29.584  20.042   6.614
 3662POPC   C3B47673  29.831  20.041   6.960
 3662POPC   C4B47674  29.937  20.212   7.333
 3663POPC   NC347675  43.693   2.325   5.469
 3663POPC   PO447676  43.871   1.727   5.407
 3663POPC   GL147677  43.612   1.849   5.778
 3663POPC   GL247678  43.839   2.081   5.883
 3663POPC   C1A47679  43.779   1.698   6.214
 3663POPC   D2A47680  44.066   1.832   6.566
 3663POPC   C3A47681  43.925   1.650   6.936
 3663POPC   C4A47682  44.033   1.768   7.325
 3663POPC   C1B47683  43.933   2.267   6.251
 3663POPC   C2B47684  44.074   2.353   6.636
 3663POPC   C3B47685  44.089   2.152   7.004
 3663POPC   C4B47686  44.096   2.312   7.420
 3664POPC   NC347687  21.228  43.213   5.430
 3664POPC   PO447688  21.675  43.654   5.708
 3664POPC   GL147689  21.452  43.351   5.935
 3664POPC   GL247690  21.527  43.030   5.815
 3664POPC   C1A47691  21.215  43.160   6.294
 3664POPC   D2A47692  21.188  42.856   6.619
 3664POPC   C3A47693  21.178  43.076   6.968
 3664POPC   C4A47694  21.302  43.335   7.268
 3664POPC   C1B47695  21.472  42.733   6.171
 3664POPC   C2B47696  21.621  42.604   6.592
 3664POPC   C3B47697  21.608  42.706   7.053
 3664POPC   C4B47698  21.856  42.502   7.436
 3665POPC   NC347699  33.182  28.836   5.357
 3665POPC   PO447700  33.658  29.157   5.320
 3665POPC   GL147701  33.274  29.178   5.705
 3665POPC   GL247702  33.092  28.847   5.847
 3665POPC   C1A47703  32.991  29.327   6.101
 3665POPC   D2A47704  32.793  29.157   6.483
 3665POPC   C3A47705  32.952  29.224   6.930
 3665POPC   C4A47706  33.087  29.215   7.395
 3665POPC   C1B47707  33.158  28.652   6.255
 3665POPC   C2B47708  33.050  28.777   6.681
 3665POPC   C3B47709  33.159  28.791   7.088
 3665POPC   C4B47710  33.027  28.679   7.490
 3666POPC   NC347711   6.024  37.038   5.419
 3666POPC   PO447712   5.479  36.488   5.507
 3666POPC   GL147713   5.760  36.733   5.808
 3666POPC   GL247714   6.127  36.746   5.812
 3666POPC   C1A47715   5.721  36.778   6.249
 3666POPC   D2A47716   5.576  36.677   6.662
 3666POPC   C3A47717   5.843  36.845   7.008
 3666POPC   C4A47718   5.737  36.821   7.435
 3666POPC   C1B47719   6.150  37.045   6.152
 3666POPC   C2B47720   6.027  37.069   6.562
 3666POPC   C3B47721   6.027  37.349   6.901
 3666POPC   C4B47722   6.082  37.226   7.291
 3667POPC   NC347723   3.205  32.523   5.612
 3667POPC   PO447724   2.628  32.215   5.514
 3667POPC   GL147725   2.833  32.277   5.864
 3667POPC   GL247726   2.685  32.620   5.849
 3667POPC   C1A47727   2.908  32.155   6.267
 3667POPC   D2A47728   2.762  32.090   6.652
 3667POPC   C3A47729   3.052  32.065   6.965
 3667POPC   C4A47730   3.022  32.207   7.357
 3667POPC   C1B47731   2.527  32.517   6.241
 3667POPC   C2B47732   2.682  32.672   6.612
 3667POPC   C3B47733   2.727  32.478   6.991
 3667POPC   C4B47734   2.607  32.525   7.383
 3668POPC   NC347735  36.492  21.377   5.343
 3668POPC   PO447736  37.090  21.642   5.533
 3668POPC   GL147737  36.778  21.611   5.830
 3668POPC   GL247738  36.665  21.285   5.822
 3668POPC   C1A47739  36.756  21.792   6.247
 3668POPC   D2A47740  36.568  21.810   6.627
 3668POPC   C3A47741  36.847  21.765   6.968
 3668POPC   C4A47742  36.724  21.696   7.341
 3668POPC   C1B47743  36.789  21.278   6.255
 3668POPC   C2B47744  36.925  21.356   6.679
 3668POPC   C3B47745  36.875  21.225   7.117
 3668POPC   C4B47746  36.832  21.246   7.561
 3669POPC   NC347747  41.972  20.705   5.281
 3669POPC   PO447748  42.508  20.395   5.335
 3669POPC   GL147749  42.329  20.602   5.719
 3669POPC   GL247750  42.213  20.292   5.895
 3669POPC   C1A47751  42.294  20.703   6.201
 3669POPC   D2A47752  42.436  20.777   6.661
 3669POPC   C3A47753  42.354  20.691   7.121
 3669POPC   C4A47754  42.590  20.554   7.498
 3669POPC   C1B47755  41.994  20.293   6.315
 3669POPC   C2B47756  42.067  20.361   6.774
 3669POPC   C3B47757  42.297  20.196   7.149
 3669POPC   C4B47758  42.227  20.196   7.589
 3670POPC   NC347759   1.980  17.070   5.525
 3670POPC   PO447760   1.798  16.363   5.552
 3670POPC   GL147761   1.726  16.727   5.829
 3670POPC   GL247762   2.076  16.683   5.893
 3670POPC   C1A47763   1.819  16.941   6.251
 3670POPC   D2A47764   2.208  16.805   6.483
 3670POPC   C3A47765   2.140  16.749   6.929
 3670POPC   C4A47766   1.791  16.939   7.173
 3670POPC   C1B47767   1.842  16.445   6.227
 3670POPC   C2B47768   1.757  16.521   6.628
 3670POPC   C3B47769   1.812  16.381   7.027
 3670POPC   C4B47770   1.835  16.509   7.427
 3671POPC   NC347771  16.500  42.799   5.291
 3671POPC   PO447772  16.550  42.128   5.420
 3671POPC   GL147773  16.711  42.255   5.834
 3671POPC   GL247774  16.994  42.028   5.870
 3671POPC   C1A47775  16.702  42.620   6.152
 3671POPC   D2A47776  16.437  42.655   6.538
 3671POPC   C3A47777  16.530  42.713   6.977
 3671POPC   C4A47778  16.711  42.496   7.344
 3671POPC   C1B47779  16.914  42.199   6.310
 3671POPC   C2B47780  16.831  42.338   6.762
 3671POPC   C3B47781  16.950  42.083   7.169
 3671POPC   C4B47782  16.980  41.726   7.487
 3672POPC   NC347783   1.290  12.947   5.494
 3672POPC   PO447784   1.688  12.509   5.459
 3672POPC   GL147785   1.557  12.713   5.877
 3672POPC   GL247786   1.191  12.809   5.974
 3672POPC   C1A47787   1.592  12.934   6.295
 3672POPC   D2A47788   1.422  12.778   6.717
 3672POPC   C3A47789   1.453  12.973   7.092
 3672POPC   C4A47790   1.147  13.104   7.332
 3672POPC   C1B47791   1.088  13.031   6.390
 3672POPC   C2B47792   0.976  13.004   6.855
 3672POPC   C3B47793   0.723  12.833   7.220
 3672POPC   C4B47794   0.853  12.779   7.667
 3673POPC   NC347795  24.299  27.469   5.003
 3673POPC   PO447796  24.766  27.721   5.452
 3673POPC   GL147797  24.639  27.593   5.871
 3673POPC   GL247798  24.322  27.464   5.816
 3673POPC   C1A47799  24.448  27.565   6.296
 3673POPC   D2A47800  24.259  27.625   6.700
 3673POPC   C3A47801  24.588  27.496   6.985
 3673POPC   C4A47802  24.699  27.645   7.395
 3673POPC   C1B47803  24.050  27.268   6.153
 3673POPC   C2B47804  23.902  27.258   6.585
 3673POPC   C3B47805  24.102  27.231   6.989
 3673POPC   C4B47806  24.208  27.546   7.293
 3674POPC   NC347807   6.211  22.987   5.450
 3674POPC   PO447808   5.566  22.866   5.608
 3674POPC   GL147809   5.909  22.980   5.894
 3674POPC   GL247810   6.260  22.816   5.925
 3674POPC   C1A47811   5.764  23.047   6.306
 3674POPC   D2A47812   5.823  22.898   6.697
 3674POPC   C3A47813   5.767  23.182   7.011
 3674POPC   C4A47814   5.712  22.948   7.388
 3674POPC   C1B47815   6.072  22.633   6.287
 3674POPC   C2B47816   6.236  22.595   6.704
 3674POPC   C3B47817   6.135  22.778   7.121
 3674POPC   C4B47818   6.184  22.792   7.580
 3675POPC   NC347819  24.251  15.757   5.517
 3675POPC   PO447820  24.932  15.770   5.566
 3675POPC   GL147821  24.654  15.923   5.864
 3675POPC   GL247822  24.495  16.239   5.783
 3675POPC   C1A47823  24.473  15.946   6.263
 3675POPC   D2A47824  24.424  16.112   6.640
 3675POPC   C3A47825  24.585  15.923   7.026
 3675POPC   C4A47826  24.391  15.624   7.255
 3675POPC   C1B47827  24.138  16.281   6.070
 3675POPC   C2B47828  23.999  16.309   6.460
 3675POPC   C3B47829  23.990  16.156   6.885
 3675POPC   C4B47830  24.014  16.261   7.285
 3676POPC   NC347831  35.432  30.732   5.490
 3676POPC   PO447832  34.779  30.712   5.576
 3676POPC   GL147833  35.104  30.700   5.899
 3676POPC   GL247834  35.351  30.409   5.879
 3676POPC   C1A47835  35.154  30.922   6.309
 3676POPC   D2A47836  34.967  30.740   6.683
 3676POPC   C3A47837  35.148  30.746   7.093
 3676POPC   C4A47838  35.184  30.809   7.545
 3676POPC   C1B47839  35.224  30.416   6.309
 3676POPC   C2B47840  35.403  30.521   6.691
 3676POPC   C3B47841  35.529  30.326   7.014
 3676POPC   C4B47842  35.317  30.351   7.352
 3677POPC   NC347843  32.928  34.107   5.541
 3677POPC   PO447844  33.186  33.511   5.403
 3677POPC   GL147845  33.130  33.694   5.825
 3677POPC   GL247846  33.257  34.025   5.966
 3677POPC   C1A47847  33.169  33.653   6.273
 3677POPC   D2A47848  33.279  33.933   6.605
 3677POPC   C3A47849  33.108  33.745   6.972
 3677POPC   C4A47850  33.028  33.539   7.350
 3677POPC   C1B47851  32.955  34.216   6.259
 3677POPC   C2B47852  32.794  34.320   6.680
 3677POPC   C3B47853  32.975  34.220   7.069
 3677POPC   C4B47854  32.822  33.983   7.414
 3678POPC   NC347855   5.410  40.284   5.453
 3678POPC   PO447856   4.996  39.771   5.476
 3678POPC   GL147857   5.142  39.902   5.834
 3678POPC   GL247858   5.482  39.896   5.796
 3678POPC   C1A47859   5.003  40.021   6.223
 3678POPC   D2A47860   5.079  39.946   6.632
 3678POPC   C3A47861   4.726  39.990   6.876
 3678POPC   C4A47862   4.960  40.078   7.200
 3678POPC   C1B47863   5.473  40.236   6.122
 3678POPC   C2B47864   5.287  40.407   6.518
 3678POPC   C3B47865   5.390  40.283   6.937
 3678POPC   C4B47866   5.466  40.455   7.317
 3679POPC   NC347867   7.633  24.160   5.461
 3679POPC   PO447868   7.558  24.849   5.260
 3679POPC   GL147869   7.254  24.599   5.596
 3679POPC   GL247870   7.525  24.548   5.773
 3679POPC   C1A47871   7.153  24.385   6.069
 3679POPC   D2A47872   7.298  24.354   6.555
 3679POPC   C3A47873   7.278  24.643   6.957
 3679POPC   C4A47874   7.163  24.460   7.381
 3679POPC   C1B47875   7.662  24.444   6.175
 3679POPC   C2B47876   7.827  24.440   6.583
 3679POPC   C3B47877   7.695  24.314   6.954
 3679POPC   C4B47878   7.656  24.507   7.303
 3680POPC   NC347879   4.490  24.925   5.593
 3680POPC   PO447880   4.528  25.595   5.573
 3680POPC   GL147881   4.316  25.365   5.898
 3680POPC   GL247882   4.052  25.126   5.791
 3680POPC   C1A47883   4.435  25.269   6.317
 3680POPC   D2A47884   4.575  25.069   6.692
 3680POPC   C3A47885   4.414  25.257   7.099
 3680POPC   C4A47886   4.676  25.516   7.425
 3680POPC   C1B47887   3.921  25.159   6.224
 3680POPC   C2B47888   4.037  25.164   6.652
 3680POPC   C3B47889   3.894  25.159   7.068
 3680POPC   C4B47890   4.009  25.139   7.494
 3681POPC   NC347891  16.503  41.663   5.434
 3681POPC   PO447892  17.014  41.262   5.440
 3681POPC   GL147893  16.849  41.513   5.809
 3681POPC   GL247894  17.136  41.537   6.036
 3681POPC   C1A47895  16.692  41.729   6.221
 3681POPC   D2A47896  16.935  41.843   6.652
 3681POPC   C3A47897  16.893  41.620   7.002
 3681POPC   C4A47898  16.539  41.601   7.216
 3681POPC   C1B47899  16.960  41.376   6.460
 3681POPC   C2B47900  16.558  41.416   6.708
 3681POPC   C3B47901  16.715  41.146   7.056
 3681POPC   C4B47902  17.000  41.229   7.417
 3682POPC   NC347903   4.412  42.285   5.504
 3682POPC   PO447904   3.806  42.628   5.502
 3682POPC   GL147905   4.103  42.662   5.891
 3682POPC   GL247906   4.479  42.646   5.869
 3682POPC   C1A47907   4.198  42.414   6.300
 3682POPC   D2A47908   4.455  42.147   6.608
 3682POPC   C3A47909   4.390  42.246   7.059
 3682POPC   C4A47910   4.045  42.153   7.354
 3682POPC   C1B47911   4.701  42.621   6.262
 3682POPC   C2B47912   4.670  42.622   6.713
 3682POPC   C3B47913   4.673  42.683   7.156
 3682POPC   C4B47914   4.318  42.607   7.422
 3683POPC   NC347915  38.653  43.593   5.450
 3683POPC   PO447916  38.085  44.039   5.469
 3683POPC   GL147917  38.092  43.855   5.873
 3683POPC   GL247918  38.394  43.690   5.869
 3683POPC   C1A47919  38.255  43.988   6.257
 3683POPC   D2A47920  38.525  43.981   6.590
 3683POPC   C3A47921  38.306  44.035   6.944
 3683POPC   C4A47922  38.369  43.870   7.313
 3683POPC   C1B47923  38.621  43.611   6.220
 3683POPC   C2B47924  38.600  43.398   6.580
 3683POPC   C3B47925  38.582  43.597   6.957
 3683POPC   C4B47926  38.851  43.659   7.322
 3684POPC   NC347927   7.173  27.948   5.485
 3684POPC   PO447928   7.596  27.392   5.423
 3684POPC   GL147929   7.626  27.373   5.861
 3684POPC   GL247930   7.379  27.631   5.840
 3684POPC   C1A47931   7.437  27.434   6.291
 3684POPC   D2A47932   7.581  27.635   6.651
 3684POPC   C3A47933   7.437  27.474   7.049
 3684POPC   C4A47934   7.443  27.623   7.468
 3684POPC   C1B47935   7.092  27.813   6.146
 3684POPC   C2B47936   7.184  28.063   6.499
 3684POPC   C3B47937   7.284  27.958   6.921
 3684POPC   C4B47938   7.075  27.933   7.284
 3685POPC   NC347939  22.477   3.719   5.559
 3685POPC   PO447940  22.061   3.246   5.339
 3685POPC   GL147941  21.974   3.478   5.763
 3685POPC   GL247942  22.264   3.578   5.987
 3685POPC   C1A47943  21.805   3.523   6.187
 3685POPC   D2A47944  22.078   3.553   6.539
 3685POPC   C3A47945  21.889   3.512   6.964
 3685POPC   C4A47946  22.057   3.802   7.201
 3685POPC   C1B47947  22.495   3.862   6.263
 3685POPC   C2B47948  22.644   3.694   6.634
 3685POPC   C3B47949  22.408   3.545   6.938
 3685POPC   C4B47950  22.452   3.463   7.340
 3686POPC   NC347951  36.540  29.969   5.472
 3686POPC   PO447952  37.117  29.673   5.424
 3686POPC   GL147953  36.948  29.807   5.805
 3686POPC   GL247954  37.178  30.095   5.839
 3686POPC   C1A47955  36.970  29.836   6.272
 3686POPC   D2A47956  37.117  29.740   6.701
 3686POPC   C3A47957  36.751  29.698   6.951
 3686POPC   C4A47958  36.606  29.980   7.242
 3686POPC   C1B47959  37.377  30.153   6.254
 3686POPC   C2B47960  37.332  30.404   6.640
 3686POPC   C3B47961  37.115  30.317   7.027
 3686POPC   C4B47962  37.129  29.912   7.220
 3687POPC   NC347963  42.687  40.631   5.183
 3687POPC   PO447964  42.057  40.688   5.534
 3687POPC   GL147965  42.235  40.835   5.896
 3687POPC   GL247966  42.495  41.006   5.728
 3687POPC   C1A47967  42.241  40.741   6.355
 3687POPC   D2A47968  41.956  40.796   6.700
 3687POPC   C3A47969  42.074  40.541   6.979
 3687POPC   C4A47970  42.263  40.691   7.294
 3687POPC   C1B47971  42.781  41.039   6.068
 3687POPC   C2B47972  42.765  40.918   6.494
 3687POPC   C3B47973  42.532  40.793   6.861
 3687POPC   C4B47974  42.745  40.831   7.265
 3688POPC   NC347975   5.550   3.070   5.569
 3688POPC   PO447976   6.140   2.678   5.415
 3688POPC   GL147977   6.135   2.401   5.750
 3688POPC   GL247978   5.844   2.570   5.940
 3688POPC   C1A47979   6.172   2.237   6.146
 3688POPC   D2A47980   6.021   2.480   6.451
 3688POPC   C3A47981   6.180   2.555   6.850
 3688POPC   C4A47982   5.902   2.799   7.095
 3688POPC   C1B47983   5.836   2.948   6.254
 3688POPC   C2B47984   5.607   3.108   6.623
 3688POPC   C3B47985   5.395   2.939   6.984
 3688POPC   C4B47986   5.492   2.575   7.290
 3689POPC   NC347987  15.215  11.484   5.082
 3689POPC   PO447988  14.945  10.971   5.465
 3689POPC   GL147989  15.131  11.218   5.797
 3689POPC   GL247990  15.162  11.557   5.665
 3689POPC   C1A47991  15.256  11.077   6.226
 3689POPC   D2A47992  15.207  10.783   6.585
 3689POPC   C3A47993  15.326  10.981   6.985
 3689POPC   C4A47994  15.064  11.081   7.332
 3689POPC   C1B47995  15.254  11.583   6.118
 3689POPC   C2B47996  15.431  11.462   6.520
 3689POPC   C3B47997  15.539  11.509   6.926
 3689POPC   C4B47998  15.270  11.536   7.267
 3690POPC   NC347999  18.722  42.235   5.377
 3690POPC   PO448000  19.247  42.678   5.089
 3690POPC   GL148001  19.215  42.456   5.585
 3690POPC   GL248002  18.893  42.449   5.783
 3690POPC   C1A48003  19.267  42.374   6.107
 3690POPC   D2A48004  19.113  42.268   6.560
 3690POPC   C3A48005  19.289  42.430   6.935
 3690POPC   C4A48006  19.178  42.359   7.346
 3690POPC   C1B48007  18.752  42.425   6.209
 3690POPC   C2B48008  18.654  42.525   6.626
 3690POPC   C3B48009  18.721  42.404   7.064
 3690POPC   C4B48010  18.655  42.302   7.505
 3691POPC   NC348011  18.457  28.599   5.426
 3691POPC   PO448012  17.939  28.912   5.324
 3691POPC   GL148013  18.030  28.942   5.781
 3691POPC   GL248014  17.990  29.302   5.910
 3691POPC   C1A48015  18.281  28.959   6.181
 3691POPC   D2A48016  18.217  28.956   6.651
 3691POPC   C3A48017  18.493  28.833   7.012
 3691POPC   C4A48018  18.483  28.730   7.477
 3691POPC   C1B48019  17.889  29.254   6.361
 3691POPC   C2B48020  17.849  29.338   6.770
 3691POPC   C3B48021  18.057  29.134   7.097
 3691POPC   C4B48022  18.411  29.231   7.334
 3692POPC   NC348023  13.205  16.165   5.449
 3692POPC   PO448024  12.526  16.042   5.522
 3692POPC   GL148025  12.828  15.884   5.870
 3692POPC   GL248026  13.174  15.736   5.863
 3692POPC   C1A48027  13.114  16.094   6.209
 3692POPC   D2A48028  13.241  16.306   6.600
 3692POPC   C3A48029  13.099  16.199   7.024
 3692POPC   C4A48030  12.821  16.347   7.364
 3692POPC   C1B48031  13.047  15.595   6.282
 3692POPC   C2B48032  12.897  15.872   6.637
 3692POPC   C3B48033  12.645  15.980   7.002
 3692POPC   C4B48034  12.618  15.837   7.400
 3693POPC   NC348035  16.152   3.038   5.335
 3693POPC   PO448036  15.722   2.842   5.766
 3693POPC   GL148037  16.032   2.830   6.036
 3693POPC   GL248038  16.229   2.528   5.942
 3693POPC   C1A48039  15.869   2.774   6.454
 3693POPC   D2A48040  15.603   2.914   6.790
 3693POPC   C3A48041  15.641   2.672   7.138
 3693POPC   C4A48042  15.782   2.620   7.566
 3693POPC   C1B48043  16.359   2.617   6.360
 3693POPC   C2B48044  16.263   2.771   6.773
 3693POPC   C3B48045  16.103   2.867   7.159
 3693POPC   C4B48046  15.988   3.217   7.302
 3694POPC   NC348047   4.626  37.527   5.564
 3694POPC   PO448048   5.240  37.791   5.564
 3694POPC   GL148049   5.090  37.775   5.952
 3694POPC   GL248050   5.196  37.427   5.978
 3694POPC   C1A48051   5.307  37.760   6.332
 3694POPC   D2A48052   5.204  37.534   6.676
 3694POPC   C3A48053   5.315  37.783   7.029
 3694POPC   C4A48054   5.125  37.963   7.390
 3694POPC   C1B48055   4.835  37.391   6.263
 3694POPC   C2B48056   4.748  37.255   6.681
 3694POPC   C3B48057   4.969  37.234   7.045
 3694POPC   C4B48058   5.046  37.490   7.317
 3695POPC   NC348059   1.286  44.176   5.396
 3695POPC   PO448060   0.883  43.739   5.448
 3695POPC   GL148061   0.989  43.994   5.814
 3695POPC   GL248062   1.379  43.997   5.885
 3695POPC   C1A48063   1.054  44.103   6.255
 3695POPC   D2A48064   1.230  43.868   6.604
 3695POPC   C3A48065   0.935  43.805   6.915
 3695POPC   C4A48066   0.843  44.052   7.255
 3695POPC   C1B48067   1.548  43.650   6.205
 3695POPC   C2B48068   1.563  43.463   6.599
 3695POPC   C3B48069   1.593  43.699   6.968
 3695POPC   C4B48070   1.299  43.761   7.289
 3696POPC   NC348071   0.178  22.337   5.112
 3696POPC   PO448072   0.707  21.993   5.415
 3696POPC   GL148073   0.589  22.189   5.798
 3696POPC   GL248074   0.265  22.036   5.755
 3696POPC   C1A48075   0.698  22.457   6.216
 3696POPC   D2A48076   0.877  22.514   6.663
 3696POPC   C3A48077   0.590  22.316   7.021
 3696POPC   C4A48078   0.362  22.097   7.384
 3696POPC   C1B48079   0.236  22.287   6.144
 3696POPC   C2B48080   0.310  22.239   6.578
 3696POPC   C3B48081   0.090  22.137   6.959
 3696POPC   C4B48082  44.883  22.250   7.325
 3697POPC   NC348083  41.044  35.349   5.398
 3697POPC   PO448084  40.460  35.329   5.183
 3697POPC   GL148085  40.577  35.405   5.654
 3697POPC   GL248086  40.836  35.139   5.829
 3697POPC   C1A48087  40.635  35.516   6.110
 3697POPC   D2A48088  40.616  35.353   6.550
 3697POPC   C3A48089  40.337  35.571   6.838
 3697POPC   C4A48090  40.376  35.585   7.265
 3697POPC   C1B48091  41.058  35.191   6.271
 3697POPC   C2B48092  41.111  35.343   6.730
 3697POPC   C3B48093  40.833  35.388   7.115
 3697POPC   C4B48094  40.571  35.145   7.424
 3698POPC   NC348095  19.962  41.205   5.708
 3698POPC   PO448096  19.878  41.831   5.476
 3698POPC   GL148097  19.856  41.653   5.890
 3698POPC   GL248098  20.222  41.686   5.879
 3698POPC   C1A48099  19.758  41.393   6.326
 3698POPC   D2A48100  19.711  41.595   6.758
 3698POPC   C3A48101  19.673  41.362   7.132
 3698POPC   C4A48102  19.580  41.215   7.549
 3698POPC   C1B48103  20.090  41.757   6.307
 3698POPC   C2B48104  20.184  41.478   6.648
 3698POPC   C3B48105  20.174  41.560   7.059
 3698POPC   C4B48106  19.867  41.795   7.286
 3699POPC   NC348107  25.534  42.604   5.091
 3699POPC   PO448108  24.994  42.434   5.383
 3699POPC   GL148109  25.121  42.189   5.780
 3699POPC   GL248110  25.439  42.064   5.659
 3699POPC   C1A48111  25.024  42.232   6.254
 3699POPC   D2A48112  25.368  42.258   6.586
 3699POPC   C3A48113  25.202  42.281   6.979
 3699POPC   C4A48114  24.772  42.176   7.038
 3699POPC   C1B48115  25.479  42.062   6.127
 3699POPC   C2B48116  25.560  41.762   6.496
 3699POPC   C3B48117  25.444  41.738   6.946
 3699POPC   C4B48118  25.110  41.844   7.230
 3700POPC   NC348119   5.623  13.771   5.313
 3700POPC   PO448120   6.040  13.250   5.491
 3700POPC   GL148121   5.863  13.574   5.728
 3700POPC   GL248122   6.096  13.807   5.595
 3700POPC   C1A48123   5.734  13.632   6.164
 3700POPC   D2A48124   5.590  13.399   6.519
 3700POPC   C3A48125   5.825  13.525   6.824
 3700POPC   C4A48126   5.821  13.667   7.204
 3700POPC   C1B48127   6.245  13.693   6.037
 3700POPC   C2B48128   6.244  13.834   6.464
 3700POPC   C3B48129   6.204  13.859   6.903
 3700POPC   C4B48130   6.241  13.908   7.328
 3701POPC   NC348131  29.316  40.099   5.188
 3701POPC   PO448132  29.138  39.619   5.562
 3701POPC   GL148133  29.287  40.017   5.724
 3701POPC   GL248134  28.971  40.048   5.865
 3701POPC   C1A48135  29.486  40.053   6.147
 3701POPC   D2A48136  29.443  40.306   6.503
 3701POPC   C3A48137  29.350  40.108   6.911
 3701POPC   C4A48138  29.283  40.401   7.238
 3701POPC   C1B48139  29.016  39.978   6.291
 3701POPC   C2B48140  28.895  40.176   6.665
 3701POPC   C3B48141  28.888  39.883   6.989
 3701POPC   C4B48142  29.245  39.604   7.106
 3702POPC   NC348143  11.598   1.384   5.420
 3702POPC   PO448144  11.020   1.024   5.324
 3702POPC   GL148145  11.243   1.109   5.716
 3702POPC   GL248146  11.575   0.963   5.759
 3702POPC   C1A48147  11.407   1.324   6.103
 3702POPC   D2A48148  11.472   1.259   6.553
 3702POPC   C3A48149  11.125   1.402   6.811
 3702POPC   C4A48150  11.010   1.322   7.230
 3702POPC   C1B48151  11.549   0.831   6.223
 3702POPC   C2B48152  11.517   0.750   6.695
 3702POPC   C3B48153  11.454   1.047   7.050
 3702POPC   C4B48154  11.533   1.113   7.506
 3703POPC   NC348155   8.242   8.114   5.526
 3703POPC   PO448156   7.691   7.775   5.665
 3703POPC   GL148157   8.098   7.864   5.951
 3703POPC   GL248158   8.485   7.831   5.904
 3703POPC   C1A48159   8.300   8.267   6.198
 3703POPC   D2A48160   8.519   8.412   6.600
 3703POPC   C3A48161   8.288   8.404   7.004
 3703POPC   C4A48162   8.234   8.345   7.499
 3703POPC   C1B48163   8.434   7.803   6.346
 3703POPC   C2B48164   8.404   7.926   6.772
 3703POPC   C3B48165   8.454   7.968   7.216
 3703POPC   C4B48166   8.577   7.981   7.656
 3704POPC   NC348167  26.052   9.226   5.170
 3704POPC   PO448168  26.046   9.824   5.362
 3704POPC   GL148169  26.164   9.732   5.799
 3704POPC   GL248170  26.089  10.045   5.966
 3704POPC   C1A48171  25.924   9.548   6.162
 3704POPC   D2A48172  25.737   9.515   6.577
 3704POPC   C3A48173  26.056   9.545   6.911
 3704POPC   C4A48174  25.980   9.620   7.338
 3704POPC   C1B48175  25.665  10.018   6.159
 3704POPC   C2B48176  25.491  10.083   6.580
 3704POPC   C3B48177  25.637   9.882   6.969
 3704POPC   C4B48178  25.972  10.120   7.166
 3705POPC   NC348179  32.164   9.655   5.603
 3705POPC   PO448180  32.296  10.224   5.268
 3705POPC   GL148181  32.490  10.039   5.746
 3705POPC   GL248182  32.523   9.678   5.937
 3705POPC   C1A48183  32.380  10.058   6.218
 3705POPC   D2A48184  32.579  10.167   6.597
 3705POPC   C3A48185  32.500   9.910   6.990
 3705POPC   C4A48186  32.406   9.754   7.423
 3705POPC   C1B48187  32.239   9.567   6.301
 3705POPC   C2B48188  32.232   9.559   6.744
 3705POPC   C3B48189  32.151   9.381   7.152
 3705POPC   C4B48190  31.928   9.564   7.517
 3706POPC   NC348191  10.829  23.546   5.674
 3706POPC   PO448192  10.316  23.300   5.527
 3706POPC   GL148193  10.380  23.584   5.880
 3706POPC   GL248194  10.517  23.424   6.064
 3706POPC   C1A48195  10.386  23.876   6.212
 3706POPC   D2A48196  10.124  23.973   6.511
 3706POPC   C3A48197  10.218  23.778   6.903
 3706POPC   C4A48198  10.346  23.629   7.306
 3706POPC   C1B48199  10.598  23.467   6.445
 3706POPC   C2B48200  10.732  23.522   6.825
 3706POPC   C3B48201  10.745  23.253   7.155
 3706POPC   C4B48202  10.790  23.408   7.562
 3707POPC   NC348203  20.158  27.574   5.565
 3707POPC   PO448204  20.806  27.754   5.520
 3707POPC   GL148205  20.738  27.556   5.916
 3707POPC   GL248206  21.014  27.637   6.141
 3707POPC   C1A48207  20.665  27.236   6.271
 3707POPC   D2A48208  20.484  27.094   6.680
 3707POPC   C3A48209  20.607  27.404   7.004
 3707POPC   C4A48210  20.370  27.532   7.357
 3707POPC   C1B48211  20.587  27.757   6.347
 3707POPC   C2B48212  20.432  27.858   6.756
 3707POPC   C3B48213  20.592  27.944   7.166
 3707POPC   C4B48214  20.420  27.990   7.620
 3708POPC   NC348215   7.111  40.332   5.472
 3708POPC   PO448216   7.358  39.687   5.453
 3708POPC   GL148217   7.285  39.917   5.821
 3708POPC   GL248218   7.446  40.264   5.859
 3708POPC   C1A48219   7.509  39.901   6.205
 3708POPC   D2A48220   7.452  40.111   6.569
 3708POPC   C3A48221   7.317  39.850   6.897
 3708POPC   C4A48222   7.567  39.735   7.230
 3708POPC   C1B48223   7.105  40.251   6.175
 3708POPC   C2B48224   6.977  40.261   6.618
 3708POPC   C3B48225   7.283  40.329   7.021
 3708POPC   C4B48226   7.271  40.520   7.426
 3709POPC   NC348227  11.801  23.813   5.320
 3709POPC   PO448228  11.198  23.568   5.411
 3709POPC   GL148229  11.273  23.700   5.896
 3709POPC   GL248230  10.932  23.861   6.056
 3709POPC   C1A48231  11.391  23.889   6.298
 3709POPC   D2A48232  11.101  23.869   6.656
 3709POPC   C3A48233  11.254  23.989   7.055
 3709POPC   C4A48234  11.089  23.793   7.446
 3709POPC   C1B48235  11.088  23.474   6.292
 3709POPC   C2B48236  11.411  23.476   6.611
 3709POPC   C3B48237  11.238  23.483   7.001
 3709POPC   C4B48238  11.221  23.281   7.341
 3710POPC   NC348239   2.320  40.051   5.682
 3710POPC   PO448240   2.901  40.254   5.295
 3710POPC   GL148241   2.921  40.193   5.786
 3710POPC   GL248242   2.679  40.373   5.927
 3710POPC   C1A48243   3.071  40.267   6.267
 3710POPC   D2A48244   2.920  40.268   6.729
 3710POPC   C3A48245   2.737  39.952   6.982
 3710POPC   C4A48246   2.928  39.946   7.387
 3710POPC   C1B48247   2.637  40.011   6.243
 3710POPC   C2B48248   2.395  40.142   6.595
 3710POPC   C3B48249   2.413  40.387   6.944
 3710POPC   C4B48250   2.735  40.425   7.202
 3711POPC   NC348251  41.667  14.063   4.958
 3711POPC   PO448252  41.449  14.435   5.493
 3711POPC   GL148253  41.430  14.576   5.855
 3711POPC   GL248254  41.275  14.299   6.039
 3711POPC   C1A48255  41.236  14.808   6.165
 3711POPC   D2A48256  41.091  14.546   6.497
 3711POPC   C3A48257  41.169  14.679   6.907
 3711POPC   C4A48258  41.221  14.319   7.155
 3711POPC   C1B48259  41.722  14.241   6.150
 3711POPC   C2B48260  41.974  14.190   6.520
 3711POPC   C3B48261  41.747  14.138   6.906
 3711POPC   C4B48262  41.644  14.067   7.318
 3712POPC   NC348263  22.984  15.532   5.596
 3712POPC   PO448264  22.720  14.890   5.589
 3712POPC   GL148265  22.782  15.223   5.936
 3712POPC   GL248266  22.452  15.325   6.105
 3712POPC   C1A48267  23.147  15.289   6.232
 3712POPC   D2A48268  23.162  15.482   6.646
 3712POPC   C3A48269  22.940  15.214   6.946
 3712POPC   C4A48270  23.153  14.920   7.218
 3712POPC   C1B48271  22.690  15.196   6.453
 3712POPC   C2B48272  22.887  14.820   6.580
 3712POPC   C3B48273  22.755  14.704   6.972
 3712POPC   C4B48274  22.597  14.983   7.276
 3713POPC   NC348275  21.974   1.796   5.383
 3713POPC   PO448276  22.553   1.786   5.617
 3713POPC   GL148277  22.183   1.867   5.854
 3713POPC   GL248278  22.192   2.212   5.815
 3713POPC   C1A48279  21.877   1.930   6.215
 3713POPC   D2A48280  22.143   1.791   6.579
 3713POPC   C3A48281  22.051   1.632   6.981
 3713POPC   C4A48282  22.074   1.764   7.373
 3713POPC   C1B48283  22.276   2.228   6.246
 3713POPC   C2B48284  21.982   2.271   6.607
 3713POPC   C3B48285  22.109   2.129   7.008
 3713POPC   C4B48286  22.441   2.107   7.343
 3714POPC   NC348287  23.952   9.741   5.509
 3714POPC   PO448288  23.395   9.405   5.367
 3714POPC   GL148289  23.419   9.553   5.795
 3714POPC   GL248290  23.521   9.900   5.802
 3714POPC   C1A48291  23.452   9.624   6.231
 3714POPC   D2A48292  23.763   9.765   6.485
 3714POPC   C3A48293  23.626   9.671   6.877
 3714POPC   C4A48294  23.931   9.736   7.182
 3714POPC   C1B48295  23.505  10.132   6.215
 3714POPC   C2B48296  23.374  10.057   6.635
 3714POPC   C3B48297  23.411  10.091   7.072
 3714POPC   C4B48298  23.555   9.960   7.470
 3715POPC   NC348299  32.331  17.247   5.546
 3715POPC   PO448300  31.849  16.938   5.219
 3715POPC   GL148301  32.108  16.800   5.699
 3715POPC   GL248302  32.460  16.691   5.735
 3715POPC   C1A48303  32.316  16.965   6.149
 3715POPC   D2A48304  32.436  17.104   6.572
 3715POPC   C3A48305  32.302  16.922   6.935
 3715POPC   C4A48306  32.255  16.745   7.320
 3715POPC   C1B48307  32.205  16.477   6.095
 3715POPC   C2B48308  32.245  16.564   6.553
 3715POPC   C3B48309  32.164  16.376   6.987
 3715POPC   C4B48310  32.304  16.276   7.462
 3716POPC   NC348311  11.681  15.216   5.266
 3716POPC   PO448312  11.952  15.662   5.678
 3716POPC   GL148313  11.524  15.467   5.821
 3716POPC   GL248314  11.375  15.096   5.789
 3716POPC   C1A48315  11.276  15.359   6.225
 3716POPC   D2A48316  11.425  15.108   6.587
 3716POPC   C3A48317  11.412  15.322   7.010
 3716POPC   C4A48318  11.402  15.763   7.141
 3716POPC   C1B48319  11.173  14.854   6.174
 3716POPC   C2B48320  11.135  14.675   6.613
 3716POPC   C3B48321  11.401  14.807   7.004
 3716POPC   C4B48322  11.254  15.037   7.414
 3717POPC   NC348323  17.470  18.135   5.529
 3717POPC   PO448324  17.932  18.542   5.593
 3717POPC   GL148325  17.576  18.549   5.873
 3717POPC   GL248326  17.213  18.398   5.882
 3717POPC   C1A48327  17.497  18.443   6.299
 3717POPC   D2A48328  17.396  18.259   6.657
 3717POPC   C3A48329  17.464  18.486   6.995
 3717POPC   C4A48330  17.535  18.367   7.402
 3717POPC   C1B48331  17.181  18.030   6.206
 3717POPC   C2B48332  17.130  17.837   6.654
 3717POPC   C3B48333  17.172  18.054   7.083
 3717POPC   C4B48334  16.985  18.070   7.518
 3718POPC   NC348335   5.451   6.159   5.094
 3718POPC   PO448336   4.873   6.122   5.481
 3718POPC   GL148337   5.200   5.991   5.717
 3718POPC   GL248338   5.023   5.757   5.914
 3718POPC   C1A48339   5.403   6.058   6.103
 3718POPC   D2A48340   5.536   5.961   6.512
 3718POPC   C3A48341   5.248   5.972   6.857
 3718POPC   C4A48342   5.053   6.130   7.230
 3718POPC   C1B48343   5.145   5.659   6.342
 3718POPC   C2B48344   4.809   5.681   6.659
 3718POPC   C3B48345   4.840   5.669   7.085
 3718POPC   C4B48346   5.242   5.583   7.208
 3719POPC   NC348347  21.081   2.206   5.473
 3719POPC   PO448348  21.556   1.734   5.564
 3719POPC   GL148349  21.303   1.905   5.855
 3719POPC   GL248350  21.016   1.745   5.802
 3719POPC   C1A48351  21.374   2.062   6.253
 3719POPC   D2A48352  21.350   2.198   6.655
 3719POPC   C3A48353  21.609   1.963   6.946
 3719POPC   C4A48354  21.671   2.092   7.358
 3719POPC   C1B48355  20.897   1.924   6.200
 3719POPC   C2B48356  20.835   1.846   6.640
 3719POPC   C3B48357  21.082   1.922   7.003
 3719POPC   C4B48358  21.165   2.189   7.340
 3720POPC   NC348359  38.866   7.631   5.472
 3720POPC   PO448360  39.377   7.227   5.396
 3720POPC   GL148361  39.172   7.374   5.799
 3720POPC   GL248362  38.797   7.430   5.918
 3720POPC   C1A48363  39.212   7.641   6.162
 3720POPC   D2A48364  39.430   7.593   6.533
 3720POPC   C3A48365  39.195   7.673   6.899
 3720POPC   C4A48366  39.435   7.539   7.192
 3720POPC   C1B48367  38.956   7.194   6.231
 3720POPC   C2B48368  39.030   7.275   6.609
 3720POPC   C3B48369  39.118   7.157   6.972
 3720POPC   C4B48370  38.948   7.337   7.281
 3721POPC   NC348371   2.657  21.612   5.605
 3721POPC   PO448372   3.142  21.225   5.576
 3721POPC   GL148373   2.956  21.080   5.919
 3721POPC   GL248374   2.631  21.176   5.862
 3721POPC   C1A48375   2.875  21.192   6.348
 3721POPC   D2A48376   3.007  21.018   6.725
 3721POPC   C3A48377   2.763  21.200   7.060
 3721POPC   C4A48378   2.814  21.322   7.510
 3721POPC   C1B48379   2.429  21.423   6.201
 3721POPC   C2B48380   2.494  21.596   6.604
 3721POPC   C3B48381   2.251  21.600   6.976
 3721POPC   C4B48382   2.324  21.318   7.301
 3722POPC   NC348383  14.238  24.601   5.018
 3722POPC   PO448384  14.622  24.325   5.403
 3722POPC   GL148385  14.423  24.591   5.758
 3722POPC   GL248386  14.281  24.311   5.879
 3722POPC   C1A48387  14.309  24.659   6.248
 3722POPC   D2A48388  14.245  24.793   6.698
 3722POPC   C3A48389  14.375  24.562   7.059
 3722POPC   C4A48390  14.642  24.733   7.371
 3722POPC   C1B48391  14.113  24.183   6.265
 3722POPC   C2B48392  14.159  24.279   6.672
 3722POPC   C3B48393  14.049  24.143   7.069
 3722POPC   C4B48394  14.333  24.166   7.403
 3723POPC   NC348395   6.813  17.300   5.259
 3723POPC   PO448396   6.557  16.650   5.362
 3723POPC   GL148397   6.481  16.784   5.820
 3723POPC   GL248398   6.214  17.039   5.873
 3723POPC   C1A48399   6.563  16.648   6.253
 3723POPC   D2A48400   6.468  16.620   6.698
 3723POPC   C3A48401   6.815  16.675   6.951
 3723POPC   C4A48402   6.660  16.662   7.364
 3723POPC   C1B48403   6.387  17.125   6.248
 3723POPC   C2B48404   6.637  17.084   6.597
 3723POPC   C3B48405   6.550  17.105   7.016
 3723POPC   C4B48406   6.447  17.110   7.437
 3724POPC   NC348407  13.241  30.826   4.969
 3724POPC   PO448408  12.901  30.788   5.512
 3724POPC   GL148409  12.849  30.479   5.799
 3724POPC   GL248410  13.140  30.258   5.737
 3724POPC   C1A48411  12.741  30.686   6.205
 3724POPC   D2A48412  12.636  31.022   6.505
 3724POPC   C3A48413  12.734  30.799   6.845
 3724POPC   C4A48414  12.917  30.887   7.213
 3724POPC   C1B48415  13.195  30.393   6.165
 3724POPC   C2B48416  13.045  30.432   6.585
 3724POPC   C3B48417  13.059  30.436   7.025
 3724POPC   C4B48418  12.689  30.454   7.260
 3725POPC   NC348419   5.454   7.132   5.443
 3725POPC   PO448420   5.133   7.739   5.482
 3725POPC   GL148421   5.305   7.470   5.832
 3725POPC   GL248422   5.170   7.129   5.905
 3725POPC   C1A48423   5.327   7.412   6.299
 3725POPC   D2A48424   5.024   7.428   6.659
 3725POPC   C3A48425   5.155   7.498   7.085
 3725POPC   C4A48426   5.376   7.488   7.494
 3725POPC   C1B48427   4.830   7.208   6.214
 3725POPC   C2B48428   4.613   7.122   6.622
 3725POPC   C3B48429   4.788   7.115   7.058
 3725POPC   C4B48430   4.876   7.336   7.476
 3726POPC   NC348431  16.776  34.050   5.527
 3726POPC   PO448432  16.875  34.640   5.206
 3726POPC   GL148433  16.885  34.678   5.692
 3726POPC   GL248434  16.773  34.397   5.929
 3726POPC   C1A48435  16.832  34.849   6.158
 3726POPC   D2A48436  16.615  34.871   6.591
 3726POPC   C3A48437  16.754  34.867   7.033
 3726POPC   C4A48438  16.876  34.630   7.387
 3726POPC   C1B48439  16.800  34.392   6.416
 3726POPC   C2B48440  16.575  34.216   6.802
 3726POPC   C3B48441  16.446  34.247   7.251
 3726POPC   C4B48442  16.548  34.379   7.698
 3727POPC   NC348443  36.978   9.956   5.207
 3727POPC   PO448444  36.662   9.401   5.400
 3727POPC   GL148445  36.891   9.636   5.790
 3727POPC   GL248446  37.135   9.922   5.781
 3727POPC   C1A48447  36.791   9.884   6.213
 3727POPC   D2A48448  36.571   9.886   6.628
 3727POPC   C3A48449  36.741   9.791   7.045
 3727POPC   C4A48450  37.002   9.453   7.221
 3727POPC   C1B48451  37.293   9.975   6.223
 3727POPC   C2B48452  37.120  10.191   6.605
 3727POPC   C3B48453  37.021  10.275   7.043
 3727POPC   C4B48454  36.741  10.268   7.348
 3728POPC   NC348455  11.122  22.434   5.526
 3728POPC   PO448456  11.352  21.803   5.455
 3728POPC   GL148457  11.276  22.050   5.815
 3728POPC   GL248458  11.541  22.310   5.856
 3728POPC   C1A48459  11.365  21.973   6.221
 3728POPC   D2A48460  11.541  22.165   6.568
 3728POPC   C3A48461  11.209  22.181   6.874
 3728POPC   C4A48462  11.323  22.006   7.247
 3728POPC   C1B48463  11.334  22.483   6.192
 3728POPC   C2B48464  11.300  22.627   6.609
 3728POPC   C3B48465  11.540  22.560   6.928
 3728POPC   C4B48466  11.689  22.376   7.268
 3729POPC   NC348467  12.391  37.264   5.536
 3729POPC   PO448468  12.157  36.789   5.182
 3729POPC   GL148469  12.150  36.813   5.703
 3729POPC   GL248470  11.805  36.957   5.880
 3729POPC   C1A48471  12.168  36.802   6.198
 3729POPC   D2A48472  11.929  36.936   6.595
 3729POPC   C3A48473  12.107  36.904   7.032
 3729POPC   C4A48474  12.361  37.191   7.302
 3729POPC   C1B48475  11.622  36.686   6.202
 3729POPC   C2B48476  11.669  36.489   6.597
 3729POPC   C3B48477  11.625  36.695   6.958
 3729POPC   C4B48478  11.707  36.592   7.375
 3730POPC   NC348479   6.273  21.049   5.411
 3730POPC   PO448480   5.585  20.948   5.472
 3730POPC   GL148481   5.666  20.674   5.827
 3730POPC   GL248482   6.035  20.587   5.783
 3730POPC   C1A48483   5.703  20.515   6.252
 3730POPC   D2A48484   5.547  20.702   6.630
 3730POPC   C3A48485   5.760  20.545   6.968
 3730POPC   C4A48486   5.785  20.600   7.378
 3730POPC   C1B48487   6.168  20.771   6.190
 3730POPC   C2B48488   6.056  20.805   6.637
 3730POPC   C3B48489   6.222  20.726   7.059
 3730POPC   C4B48490   6.199  20.308   7.167
 3731POPC   NC348491  22.558  40.476   5.667
 3731POPC   PO448492  21.895  40.516   5.404
 3731POPC   GL148493  22.061  40.636   5.795
 3731POPC   GL248494  22.164  40.963   5.717
 3731POPC   C1A48495  22.246  40.637   6.228
 3731POPC   D2A48496  22.231  40.898   6.613
 3731POPC   C3A48497  22.163  40.708   7.040
 3731POPC   C4A48498  21.992  40.982   7.362
 3731POPC   C1B48499  22.046  41.083   6.140
 3731POPC   C2B48500  21.922  41.326   6.487
 3731POPC   C3B48501  21.986  41.231   6.909
 3731POPC   C4B48502  22.410  41.166   7.102
 3732POPC   NC348503  24.546   3.024   5.162
 3732POPC   PO448504  24.661   3.633   5.386
 3732POPC   GL148505  24.507   3.614   5.754
 3732POPC   GL248506  24.452   3.909   5.897
 3732POPC   C1A48507  24.343   3.429   6.137
 3732POPC   D2A48508  24.510   3.232   6.493
 3732POPC   C3A48509  24.298   3.244   6.895
 3732POPC   C4A48510  24.439   3.163   7.269
 3732POPC   C1B48511  24.413   3.924   6.343
 3732POPC   C2B48512  24.463   3.702   6.735
 3732POPC   C3B48513  24.587   3.721   7.178
 3732POPC   C4B48514  24.372   3.904   7.594
 3733POPC   NC348515  21.966  17.136   5.523
 3733POPC   PO448516  22.234  16.447   5.576
 3733POPC   GL148517  22.247  16.829   5.864
 3733POPC   GL248518  21.881  16.912   5.972
 3733POPC   C1A48519  22.456  16.934   6.260
 3733POPC   D2A48520  22.656  16.897   6.695
 3733POPC   C3A48521  22.423  17.034   7.055
 3733POPC   C4A48522  22.308  16.884   7.467
 3733POPC   C1B48523  22.036  16.629   6.308
 3733POPC   C2B48524  22.189  16.680   6.729
 3733POPC   C3B48525  22.068  16.566   7.140
 3733POPC   C4B48526  21.915  16.582   7.581
 3734POPC   NC348527  43.943  14.076   5.586
 3734POPC   PO448528  43.941  13.409   5.446
 3734POPC   GL148529  43.705  13.326   5.816
 3734POPC   GL248530  43.759  13.663   5.855
 3734POPC   C1A48531  43.653  13.377   6.261
 3734POPC   D2A48532  43.876  13.499   6.614
 3734POPC   C3A48533  43.829  13.292   6.982
 3734POPC   C4A48534  44.029  13.495   7.375
 3734POPC   C1B48535  43.918  13.847   6.216
 3734POPC   C2B48536  43.955  14.016   6.615
 3734POPC   C3B48537  44.067  13.878   7.012
 3734POPC   C4B48538  43.757  13.920   7.294
 3735POPC   NC348539  41.842   5.713   5.496
 3735POPC   PO448540  42.454   6.041   5.641
 3735POPC   GL148541  42.442   5.831   5.946
 3735POPC   GL248542  42.175   5.610   5.879
 3735POPC   C1A48543  42.557   5.975   6.321
 3735POPC   D2A48544  42.599   6.187   6.669
 3735POPC   C3A48545  42.530   5.891   6.942
 3735POPC   C4A48546  42.343   5.872   7.334
 3735POPC   C1B48547  42.317   5.433   6.244
 3735POPC   C2B48548  42.235   5.643   6.618
 3735POPC   C3B48549  41.982   5.672   6.971
 3735POPC   C4B48550  41.998   5.502   7.391
 3736POPC   NC348551  37.860  36.475   5.366
 3736POPC   PO448552  37.563  35.775   5.508
 3736POPC   GL148553  37.755  36.004   5.835
 3736POPC   GL248554  37.664  36.353   5.815
 3736POPC   C1A48555  37.710  36.121   6.280
 3736POPC   D2A48556  37.340  36.140   6.573
 3736POPC   C3A48557  37.524  36.004   6.960
 3736POPC   C4A48558  37.742  35.930   7.359
 3736POPC   C1B48559  37.918  36.639   6.109
 3736POPC   C2B48560  38.076  36.496   6.506
 3736POPC   C3B48561  37.934  36.344   6.929
 3736POPC   C4B48562  37.981  36.575   7.307
 3737POPC   NC348563   6.524  10.093   5.745
 3737POPC   PO448564   6.854  10.549   5.344
 3737POPC   GL148565   6.736  10.575   5.750
 3737POPC   GL248566   6.944  10.356   5.895
 3737POPC   C1A48567   6.524  10.696   6.121
 3737POPC   D2A48568   6.518  10.622   6.554
 3737POPC   C3A48569   6.349  10.764   6.943
 3737POPC   C4A48570   6.503  10.417   7.225
 3737POPC   C1B48571   6.941  10.332   6.308
 3737POPC   C2B48572   7.037  10.598   6.624
 3737POPC   C3B48573   6.927  10.723   7.006
 3737POPC   C4B48574   7.005  10.397   7.259
 3738POPC   NC348575  34.419  42.663   5.359
 3738POPC   PO448576  34.614  42.008   5.475
 3738POPC   GL148577  34.488  42.138   5.868
 3738POPC   GL248578  34.433  42.485   5.865
 3738POPC   C1A48579  34.668  42.216   6.277
 3738POPC   D2A48580  34.965  42.382   6.564
 3738POPC   C3A48581  34.768  42.343   6.932
 3738POPC   C4A48582  34.768  41.995   7.179
 3738POPC   C1B48583  34.251  42.568   6.280
 3738POPC   C2B48584  34.403  42.691   6.698
 3738POPC   C3B48585  34.360  42.592   7.139
 3738POPC   C4B48586  34.292  42.814   7.561
 3739POPC   NC348587  41.832  36.149   5.308
 3739POPC   PO448588  41.421  35.615   5.254
 3739POPC   GL148589  41.714  35.763   5.672
 3739POPC   GL248590  41.733  36.116   5.800
 3739POPC   C1A48591  41.716  35.821   6.197
 3739POPC   D2A48592  41.540  36.082   6.562
 3739POPC   C3A48593  41.651  36.001   6.987
 3739POPC   C4A48594  41.486  36.206   7.316
 3739POPC   C1B48595  41.397  36.249   6.106
 3739POPC   C2B48596  41.430  36.555   6.435
 3739POPC   C3B48597  41.310  36.472   6.867
 3739POPC   C4B48598  41.197  36.621   7.257
 3740POPC   NC348599   0.861  13.811   5.230
 3740POPC   PO448600   0.858  13.118   5.489
 3740POPC   GL148601   1.142  13.327   5.844
 3740POPC   GL248602   1.165  13.703   5.892
 3740POPC   C1A48603   1.414  13.414   6.243
 3740POPC   D2A48604   1.428  13.306   6.701
 3740POPC   C3A48605   1.178  13.551   7.028
 3740POPC   C4A48606   1.066  14.025   7.021
 3740POPC   C1B48607   0.903  13.533   6.277
 3740POPC   C2B48608   0.752  13.446   6.734
 3740POPC   C3B48609   0.731  13.347   7.214
 3740POPC   C4B48610   0.850  13.314   7.690
 3741POPC   NC348611  19.738  43.622   5.448
 3741POPC   PO448612  20.019  44.111   5.221
 3741POPC   GL148613  19.903  44.070   5.691
 3741POPC   GL248614  20.153  44.009   5.978
 3741POPC   C1A48615  19.646  43.941   6.090
 3741POPC   D2A48616  19.899  43.750   6.429
 3741POPC   C3A48617  19.742  43.646   6.844
 3741POPC   C4A48618  19.706  43.652   7.293
 3741POPC   C1B48619  19.966  44.261   6.338
 3741POPC   C2B48620  19.712  44.167   6.696
 3741POPC   C3B48621  19.939  44.076   7.063
 3741POPC   C4B48622  20.211  43.708   7.136
 3742POPC   NC348623  16.491  13.994   5.559
 3742POPC   PO448624  16.857  14.430   5.280
 3742POPC   GL148625  16.850  14.533   5.737
 3742POPC   GL248626  17.083  14.269   5.845
 3742POPC   C1A48627  16.738  14.666   6.198
 3742POPC   D2A48628  16.912  14.774   6.637
 3742POPC   C3A48629  16.657  14.630   6.987
 3742POPC   C4A48630  16.253  14.422   7.171
 3742POPC   C1B48631  17.119  14.322   6.298
 3742POPC   C2B48632  16.772  14.271   6.608
 3742POPC   C3B48633  16.624  14.128   7.017
 3742POPC   C4B48634  16.764  14.121   7.464
 3743POPC   NC348635  15.539  37.838   5.548
 3743POPC   PO448636  15.146  37.506   5.157
 3743POPC   GL148637  15.123  37.551   5.684
 3743POPC   GL248638  15.211  37.859   5.936
 3743POPC   C1A48639  15.181  37.421   6.172
 3743POPC   D2A48640  15.216  37.719   6.535
 3743POPC   C3A48641  15.252  37.558   6.946
 3743POPC   C4A48642  15.363  37.535   7.362
 3743POPC   C1B48643  15.530  38.036   6.260
 3743POPC   C2B48644  15.669  37.963   6.722
 3743POPC   C3B48645  15.499  37.986   7.161
 3743POPC   C4B48646  15.380  38.034   7.611
 3744POPC   NC348647   4.232  11.452   5.508
 3744POPC   PO448648   4.133  10.760   5.562
 3744POPC   GL148649   4.113  11.088   5.864
 3744POPC   GL248650   4.421  11.088   5.940
 3744POPC   C1A48651   4.173  11.351   6.275
 3744POPC   D2A48652   4.117  11.089   6.643
 3744POPC   C3A48653   4.185  11.279   7.030
 3744POPC   C4A48654   4.190  11.696   7.175
 3744POPC   C1B48655   4.708  11.002   6.241
 3744POPC   C2B48656   4.807  11.185   6.611
 3744POPC   C3B48657   4.655  11.069   6.995
 3744POPC   C4B48658   4.579  11.360   7.337
 3745POPC   NC348659  22.179  29.017   5.543
 3745POPC   PO448660  22.644  29.565   5.488
 3745POPC   GL148661  22.488  29.277   5.841
 3745POPC   GL248662  22.548  28.898   5.854
 3745POPC   C1A48663  22.155  29.356   6.181
 3745POPC   D2A48664  22.250  29.380   6.620
 3745POPC   C3A48665  22.125  29.473   7.021
 3745POPC   C4A48666  22.417  29.384   7.343
 3745POPC   C1B48667  22.289  28.857   6.211
 3745POPC   C2B48668  22.113  28.898   6.611
 3745POPC   C3B48669  22.305  28.984   6.990
 3745POPC   C4B48670  22.338  28.720   7.298
 3746POPC   NC348671  34.130  23.528   5.608
 3746POPC   PO448672  34.570  24.072   5.430
 3746POPC   GL148673  34.512  23.832   5.779
 3746POPC   GL248674  34.707  23.514   5.805
 3746POPC   C1A48675  34.563  23.934   6.172
 3746POPC   D2A48676  34.877  23.861   6.468
 3746POPC   C3A48677  34.815  23.904   6.885
 3746POPC   C4A48678  34.636  23.745   7.259
 3746POPC   C1B48679  34.577  23.441   6.236
 3746POPC   C2B48680  34.700  23.389   6.686
 3746POPC   C3B48681  34.511  23.292   7.083
 3746POPC   C4B48682  34.689  23.248   7.520
 3747POPC   NC348683  37.498  17.326   5.303
 3747POPC   PO448684  37.375  17.976   5.349
 3747POPC   GL148685  37.639  17.737   5.663
 3747POPC   GL248686  37.788  17.996   5.837
 3747POPC   C1A48687  37.587  17.439   6.049
 3747POPC   D2A48688  37.451  17.369   6.508
 3747POPC   C3A48689  37.733  17.322   6.895
 3747POPC   C4A48690  38.100  17.357   7.226
 3747POPC   C1B48691  37.823  17.840   6.242
 3747POPC   C2B48692  37.715  17.798   6.639
 3747POPC   C3B48693  37.919  17.788   7.001
 3747POPC   C4B48694  37.704  17.968   7.316
 3748POPC   NC348695  39.025   6.633   5.462
 3748POPC   PO448696  39.640   6.591   5.634
 3748POPC   GL148697  39.441   6.449   5.965
 3748POPC   GL248698  39.101   6.478   5.946
 3748POPC   C1A48699  39.431   6.535   6.380
 3748POPC   D2A48700  39.227   6.793   6.638
 3748POPC   C3A48701  39.164   6.638   7.048
 3748POPC   C4A48702  39.306   6.232   7.118
 3748POPC   C1B48703  38.818   6.230   6.179
 3748POPC   C2B48704  38.615   6.259   6.591
 3748POPC   C3B48705  38.792   6.258   7.025
 3748POPC   C4B48706  38.940   6.352   7.461
 3749POPC   NC348707  14.872  31.638   5.519
 3749POPC   PO448708  15.042  31.044   5.672
 3749POPC   GL148709  14.989  31.352   5.933
 3749POPC   GL248710  15.299  31.499   5.890
 3749POPC   C1A48711  14.969  31.361   6.343
 3749POPC   D2A48712  15.177  31.471   6.672
 3749POPC   C3A48713  15.104  31.286   7.043
 3749POPC   C4A48714  14.828  31.576   7.198
 3749POPC   C1B48715  15.375  31.779   6.247
 3749POPC   C2B48716  15.270  31.978   6.681
 3749POPC   C3B48717  15.341  31.748   7.073
 3749POPC   C4B48718  15.623  31.835   7.405
 3750POPC   NC348719   9.812  38.227   5.265
 3750POPC   PO448720   9.719  38.798   5.431
 3750POPC   GL148721   9.829  38.450   5.731
 3750POPC   GL248722   9.536  38.210   5.726
 3750POPC   C1A48723  10.095  38.369   6.086
 3750POPC   D2A48724  10.082  38.557   6.491
 3750POPC   C3A48725  10.023  38.494   6.916
 3750POPC   C4A48726   9.875  38.862   7.163
 3750POPC   C1B48727   9.611  38.224   6.174
 3750POPC   C2B48728   9.544  38.544   6.492
 3750POPC   C3B48729   9.516  38.604   6.928
 3750POPC   C4B48730   9.390  38.668   7.344
 3751POPC   NC348731  42.120  40.244   5.419
 3751POPC   PO448732  42.734  40.061   5.319
 3751POPC   GL148733  42.525  40.041   5.741
 3751POPC   GL248734  42.231  39.811   5.706
 3751POPC   C1A48735  42.560  40.012   6.226
 3751POPC   D2A48736  42.380  40.188   6.631
 3751POPC   C3A48737  42.530  40.041   7.041
 3751POPC   C4A48738  42.171  40.151   7.288
 3751POPC   C1B48739  42.192  39.658   6.116
 3751POPC   C2B48740  42.295  39.689   6.539
 3751POPC   C3B48741  42.074  39.845   6.901
 3751POPC   C4B48742  42.051  39.659   7.343
 3752POPC   NC348743  22.756  33.703   5.346
 3752POPC   PO448744  23.287  34.065   5.547
 3752POPC   GL148745  22.992  33.846   5.792
 3752POPC   GL248746  22.901  34.146   5.924
 3752POPC   C1A48747  22.787  33.689   6.199
 3752POPC   D2A48748  22.941  33.568   6.643
 3752POPC   C3A48749  22.813  33.714   7.072
 3752POPC   C4A48750  22.780  33.597   7.539
 3752POPC   C1B48751  22.883  34.159   6.363
 3752POPC   C2B48752  22.963  34.127   6.783
 3752POPC   C3B48753  22.856  34.210   7.194
 3752POPC   C4B48754  23.035  34.045   7.556
 3753POPC   NC348755  14.704   2.402   5.669
 3753POPC   PO448756  14.368   1.892   5.547
 3753POPC   GL148757  14.364   1.888   5.913
 3753POPC   GL248758  14.315   2.203   5.950
 3753POPC   C1A48759  14.456   1.593   6.185
 3753POPC   D2A48760  14.290   1.570   6.563
 3753POPC   C3A48761  14.412   1.894   6.835
 3753POPC   C4A48762  14.408   1.777   7.234
 3753POPC   C1B48763  14.287   2.103   6.372
 3753POPC   C2B48764  13.967   2.129   6.654
 3753POPC   C3B48765  13.980   2.256   7.066
 3753POPC   C4B48766  14.380   2.294   7.200
 3754POPC   NC348767  28.465  20.098   5.498
 3754POPC   PO448768  28.046  19.604   5.333
 3754POPC   GL148769  28.205  19.599   5.780
 3754POPC   GL248770  28.582  19.674   5.758
 3754POPC   C1A48771  28.197  19.610   6.256
 3754POPC   D2A48772  28.219  19.884   6.646
 3754POPC   C3A48773  28.169  19.668   7.069
 3754POPC   C4A48774  28.342  19.768   7.487
 3754POPC   C1B48775  28.593  19.918   6.134
 3754POPC   C2B48776  28.706  19.754   6.515
 3754POPC   C3B48777  28.677  19.665   6.934
 3754POPC   C4B48778  28.524  20.027   7.055
 3755POPC   NC348779   1.621   2.560   5.190
 3755POPC   PO448780   2.114   2.975   5.302
 3755POPC   GL148781   2.035   2.787   5.706
 3755POPC   GL248782   1.737   2.522   5.714
 3755POPC   C1A48783   2.003   2.836   6.150
 3755POPC   D2A48784   1.942   2.882   6.590
 3755POPC   C3A48785   2.164   2.721   6.951
 3755POPC   C4A48786   2.181   2.955   7.333
 3755POPC   C1B48787   1.621   2.483   6.160
 3755POPC   C2B48788   1.760   2.406   6.584
 3755POPC   C3B48789   1.652   2.603   6.977
 3755POPC   C4B48790   1.861   2.530   7.340
 3756POPC   NC348791  27.657  41.972   5.288
 3756POPC   PO448792  27.606  42.586   5.560
 3756POPC   GL148793  27.551  42.294   5.878
 3756POPC   GL248794  27.553  42.570   6.069
 3756POPC   C1A48795  27.644  42.147   6.318
 3756POPC   D2A48796  27.552  42.262   6.732
 3756POPC   C3A48797  27.839  42.281   7.054
 3756POPC   C4A48798  27.502  42.271   7.282
 3756POPC   C1B48799  27.276  42.543   6.380
 3756POPC   C2B48800  27.218  42.695   6.776
 3756POPC   C3B48801  27.303  42.734   7.215
 3756POPC   C4B48802  27.618  42.695   7.525
 3757POPC   NC348803  12.709  28.567   5.516
 3757POPC   PO448804  13.138  27.997   5.489
 3757POPC   GL148805  12.870  28.158   5.876
 3757POPC   GL248806  12.885  28.538   5.991
 3757POPC   C1A48807  12.894  28.169   6.366
 3757POPC   D2A48808  13.159  28.382   6.694
 3757POPC   C3A48809  13.140  28.217   7.125
 3757POPC   C4A48810  12.825  28.247   7.464
 3757POPC   C1B48811  12.506  28.500   6.257
 3757POPC   C2B48812  12.445  28.385   6.695
 3757POPC   C3B48813  12.733  28.543   7.027
 3757POPC   C4B48814  12.621  28.716   7.447
 3758POPC   NC348815  36.633   3.983   5.083
 3758POPC   PO448816  36.790   4.476   5.585
 3758POPC   GL148817  36.891   4.331   5.952
 3758POPC   GL248818  37.056   4.038   5.884
 3758POPC   C1A48819  37.006   4.487   6.324
 3758POPC   D2A48820  37.241   4.606   6.657
 3758POPC   C3A48821  36.989   4.565   6.975
 3758POPC   C4A48822  36.883   4.444   7.364
 3758POPC   C1B48823  37.283   4.076   6.235
 3758POPC   C2B48824  37.136   4.053   6.631
 3758POPC   C3B48825  36.947   4.059   6.993
 3758POPC   C4B48826  36.950   3.940   7.381
 3759POPC   NC348827  17.182  11.208   5.374
 3759POPC   PO448828  16.555  11.442   5.215
 3759POPC   GL148829  16.556  11.421   5.701
 3759POPC   GL248830  16.577  11.729   5.896
 3759POPC   C1A48831  16.501  11.120   6.088
 3759POPC   D2A48832  16.750  11.032   6.515
 3759POPC   C3A48833  16.673  11.009   6.995
 3759POPC   C4A48834  16.952  11.055   7.369
 3759POPC   C1B48835  16.672  11.531   6.333
 3759POPC   C2B48836  16.507  11.436   6.775
 3759POPC   C3B48837  16.595  11.467   7.264
 3759POPC   C4B48838  16.500  11.563   7.731
 3760POPC   NC348839  26.172  39.818   5.134
 3760POPC   PO448840  25.619  39.824   5.550
 3760POPC   GL148841  25.868  39.963   5.892
 3760POPC   GL248842  26.252  39.933   5.847
 3760POPC   C1A48843  25.810  39.824   6.306
 3760POPC   D2A48844  26.085  39.763   6.627
 3760POPC   C3A48845  25.946  39.719   7.030
 3760POPC   C4A48846  26.056  40.083   7.250
 3760POPC   C1B48847  26.246  40.330   6.125
 3760POPC   C2B48848  26.095  40.477   6.538
 3760POPC   C3B48849  26.307  40.415   6.924
 3760POPC   C4B48850  26.508  40.316   7.281
 3761POPC   NC348851   6.151  12.350   5.511
 3761POPC   PO448852   5.708  11.761   5.532
 3761POPC   GL148853   5.905  11.720   5.904
 3761POPC   GL248854   6.096  11.988   5.865
 3761POPC   C1A48855   5.858  11.901   6.304
 3761POPC   D2A48856   5.915  12.211   6.614
 3761POPC   C3A48857   5.678  12.046   6.920
 3761POPC   C4A48858   5.797  11.884   7.329
 3761POPC   C1B48859   6.298  12.132   6.233
 3761POPC   C2B48860   6.351  11.909   6.629
 3761POPC   C3B48861   6.192  11.983   7.028
 3761POPC   C4B48862   5.982  12.348   7.217
 3762POPC   NC348863  38.265   3.467   5.445
 3762POPC   PO448864  38.675   3.969   5.532
 3762POPC   GL148865  38.452   3.730   5.850
 3762POPC   GL248866  38.457   3.347   5.904
 3762POPC   C1A48867  38.415   3.722   6.282
 3762POPC   D2A48868  38.554   3.316   6.416
 3762POPC   C3A48869  38.622   3.281   6.834
 3762POPC   C4A48870  38.438   3.455   7.196
 3762POPC   C1B48871  38.061   3.381   6.164
 3762POPC   C2B48872  38.040   3.568   6.590
 3762POPC   C3B48873  37.960   3.426   6.994
 3762POPC   C4B48874  37.973   3.287   7.420
 3763POPC   NC348875  15.381   1.227   5.427
 3763POPC   PO448876  14.856   1.577   5.347
 3763POPC   GL148877  14.921   1.347   5.782
 3763POPC   GL248878  15.262   1.174   5.922
 3763POPC   C1A48879  14.972   1.485   6.231
 3763POPC   D2A48880  15.253   1.506   6.611
 3763POPC   C3A48881  15.125   1.322   6.990
 3763POPC   C4A48882  15.147   1.462   7.390
 3763POPC   C1B48883  15.508   0.844   6.160
 3763POPC   C2B48884  15.417   0.699   6.562
 3763POPC   C3B48885  15.417   0.916   6.959
 3763POPC   C4B48886  15.189   0.965   7.374
 3764POPC   NC348887  21.234  33.243   5.495
 3764POPC   PO448888  21.663  32.751   5.471
 3764POPC   GL148889  21.574  33.087   5.808
 3764POPC   GL248890  21.835  33.292   5.969
 3764POPC   C1A48891  21.184  33.178   6.146
 3764POPC   D2A48892  21.008  33.130   6.601
 3764POPC   C3A48893  21.235  33.173   6.986
 3764POPC   C4A48894  21.066  33.271   7.362
 3764POPC   C1B48895  21.620  32.932   6.258
 3764POPC   C2B48896  21.433  32.863   6.624
 3764POPC   C3B48897  21.424  32.648   6.977
 3764POPC   C4B48898  21.486  32.821   7.333
 3765POPC   NC348899  41.143  33.567   5.361
 3765POPC   PO448900  41.691  33.936   5.418
 3765POPC   GL148901  41.717  33.904   5.859
 3765POPC   GL248902  41.392  33.748   5.843
 3765POPC   C1A48903  41.767  33.530   6.161
 3765POPC   D2A48904  41.684  33.347   6.578
 3765POPC   C3A48905  41.433  33.584   6.876
 3765POPC   C4A48906  41.526  33.567   7.285
 3765POPC   C1B48907  41.392  33.845   6.286
 3765POPC   C2B48908  41.693  33.939   6.612
 3765POPC   C3B48909  41.702  34.010   7.059
 3765POPC   C4B48910  41.268  34.013   7.252
 3766POPC   NC348911   3.460  42.317   5.461
 3766POPC   PO448912   2.931  42.521   5.671
 3766POPC   GL148913   3.285  42.290   5.945
 3766POPC   GL248914   3.558  42.017   5.873
 3766POPC   C1A48915   3.633  42.435   6.267
 3766POPC   D2A48916   3.813  42.565   6.700
 3766POPC   C3A48917   3.611  42.459   7.138
 3766POPC   C4A48918   3.533  42.177   7.505
 3766POPC   C1B48919   3.638  41.915   6.305
 3766POPC   C2B48920   3.896  42.025   6.647
 3766POPC   C3B48921   3.717  41.964   7.025
 3766POPC   C4B48922   3.720  41.698   7.374
 3767POPC   NC348923  31.069   4.899   5.145
 3767POPC   PO448924  30.718   5.344   5.583
 3767POPC   GL148925  30.677   5.277   5.979
 3767POPC   GL248926  30.472   4.958   5.905
 3767POPC   C1A48927  30.959   5.359   6.351
 3767POPC   D2A48928  31.070   5.064   6.707
 3767POPC   C3A48929  30.989   5.153   7.156
 3767POPC   C4A48930  30.648   5.406   7.321
 3767POPC   C1B48931  30.758   4.866   6.254
 3767POPC   C2B48932  30.760   4.664   6.607
 3767POPC   C3B48933  30.666   4.800   6.991
 3767POPC   C4B48934  30.974   4.660   7.263
 3768POPC   NC348935  30.872  41.110   5.559
 3768POPC   PO448936  30.560  40.519   5.570
 3768POPC   GL148937  30.713  40.729   5.904
 3768POPC   GL248938  31.054  40.670   5.885
 3768POPC   C1A48939  30.803  40.633   6.334
 3768POPC   D2A48940  30.629  40.484   6.692
 3768POPC   C3A48941  30.625  40.764   7.007
 3768POPC   C4A48942  30.881  40.815   7.339
 3768POPC   C1B48943  31.089  41.023   6.196
 3768POPC   C2B48944  31.129  41.064   6.596
 3768POPC   C3B48945  30.948  41.169   6.968
 3768POPC   C4B48946  30.829  41.342   7.361
 3769POPC   NC348947  33.951  34.808   5.457
 3769POPC   PO448948  33.404  34.783   5.164
 3769POPC   GL148949  33.541  34.631   5.677
 3769POPC   GL248950  33.832  34.400   5.727
 3769POPC   C1A48951  33.745  34.783   6.135
 3769POPC   D2A48952  33.922  34.727   6.575
 3769POPC   C3A48953  33.663  34.725   6.966
 3769POPC   C4A48954  33.669  34.805   7.427
 3769POPC   C1B48955  33.654  34.293   6.136
 3769POPC   C2B48956  33.725  34.240   6.573
 3769POPC   C3B48957  33.524  34.206   6.979
 3769POPC   C4B48958  33.730  34.283   7.356
 3770POPC   NC348959   9.523   7.013   5.370
 3770POPC   PO448960   9.887   6.410   5.433
 3770POPC   GL148961   9.803   6.628   5.818
 3770POPC   GL248962   9.462   6.736   5.817
 3770POPC   C1A48963   9.817   6.629   6.271
 3770POPC   D2A48964   9.742   6.393   6.657
 3770POPC   C3A48965   9.877   6.552   7.059
 3770POPC   C4A48966   9.601   6.501   7.372
 3770POPC   C1B48967   9.456   7.003   6.168
 3770POPC   C2B48968   9.702   7.099   6.491
 3770POPC   C3B48969   9.762   7.001   6.865
 3770POPC   C4B48970   9.686   7.000   7.286
 3771POPC   NC348971  19.266  36.075   5.385
 3771POPC   PO448972  18.727  35.842   5.763
 3771POPC   GL148973  19.044  36.123   5.864
 3771POPC   GL248974  19.343  36.292   5.885
 3771POPC   C1A48975  19.081  36.084   6.285
 3771POPC   D2A48976  18.833  35.885   6.548
 3771POPC   C3A48977  18.743  36.169   6.850
 3771POPC   C4A48978  18.890  36.201   7.258
 3771POPC   C1B48979  19.485  36.359   6.324
 3771POPC   C2B48980  19.284  36.281   6.737
 3771POPC   C3B48981  19.407  36.348   7.176
 3771POPC   C4B48982  19.599  36.445   7.609
 3772POPC   NC348983  24.493   4.076   5.395
 3772POPC   PO448984  24.899   4.600   5.479
 3772POPC   GL148985  24.746   4.330   5.789
 3772POPC   GL248986  24.426   4.413   5.856
 3772POPC   C1A48987  24.758   4.294   6.244
 3772POPC   D2A48988  24.837   4.051   6.618
 3772POPC   C3A48989  24.563   4.164   6.955
 3772POPC   C4A48990  24.713   4.189   7.373
 3772POPC   C1B48991  24.291   4.541   6.238
 3772POPC   C2B48992  24.277   4.398   6.616
 3772POPC   C3B48993  24.273   4.609   7.004
 3772POPC   C4B48994  24.225   4.321   7.316
 3773POPC   NC348995  34.656  43.309   5.668
 3773POPC   PO448996  34.187  42.891   5.671
 3773POPC   GL148997  34.431  42.994   6.019
 3773POPC   GL248998  34.402  43.360   6.099
 3773POPC   C1A48999  34.720  42.750   6.291
 3773POPC   D2A49000  34.903  42.872   6.721
 3773POPC   C3A49001  34.569  43.100   6.954
 3773POPC   C4A49002  34.262  43.226   7.254
 3773POPC   C1B49003  34.771  43.248   6.325
 3773POPC   C2B49004  35.050  43.362   6.619
 3773POPC   C3B49005  34.999  43.359   7.028
 3773POPC   C4B49006  34.671  43.526   7.268
 3774POPC   NC349007  40.708  34.408   5.373
 3774POPC   PO449008  40.459  33.907   5.693
 3774POPC   GL149009  40.449  34.383   5.815
 3774POPC   GL249010  40.784  34.585   5.851
 3774POPC   C1A49011  40.497  34.508   6.237
 3774POPC   D2A49012  40.701  34.349   6.560
 3774POPC   C3A49013  40.555  34.516   6.901
 3774POPC   C4A49014  40.769  34.397   7.219
 3774POPC   C1B49015  40.989  34.678   6.255
 3774POPC   C2B49016  40.860  34.880   6.651
 3774POPC   C3B49017  40.879  34.880   7.097
 3774POPC   C4B49018  41.188  34.687   7.348
 3775POPC   NC349019  20.294  32.450   5.415
 3775POPC   PO449020  20.713  31.912   5.392
 3775POPC   GL149021  20.606  32.193   5.744
 3775POPC   GL249022  20.390  31.994   5.918
 3775POPC   C1A49023  20.663  32.449   6.142
 3775POPC   D2A49024  20.459  32.327   6.542
 3775POPC   C3A49025  20.478  32.431   6.981
 3775POPC   C4A49026  20.311  32.207   7.355
 3775POPC   C1B49027  20.716  31.957   6.241
 3775POPC   C2B49028  20.886  32.055   6.649
 3775POPC   C3B49029  20.695  31.970   7.043
 3775POPC   C4B49030  20.695  31.577   7.235
 3776POPC   NC349031  38.798  29.530   5.498
 3776POPC   PO449032  39.492  29.400   5.354
 3776POPC   GL149033  39.202  29.291   5.730
 3776POPC   GL249034  39.479  29.258   5.962
 3776POPC   C1A49035  39.095  28.962   6.092
 3776POPC   D2A49036  39.337  29.057   6.496
 3776POPC   C3A49037  39.196  29.116   6.930
 3776POPC   C4A49038  39.025  28.959   7.341
 3776POPC   C1B49039  39.101  29.445   6.205
 3776POPC   C2B49040  38.908  29.495   6.611
 3776POPC   C3B49041  39.090  29.611   7.013
 3776POPC   C4B49042  39.318  29.392   7.367
 3777POPC   NC349043  13.366   8.150   5.174
 3777POPC   PO449044  12.705   8.000   5.322
 3777POPC   GL149045  12.846   8.176   5.728
 3777POPC   GL249046  13.079   7.915   5.899
 3777POPC   C1A49047  12.990   8.399   6.107
 3777POPC   D2A49048  13.082   8.216   6.521
 3777POPC   C3A49049  12.673   8.238   6.739
 3777POPC   C4A49050  12.481   8.115   7.119
 3777POPC   C1B49051  13.250   7.706   6.288
 3777POPC   C2B49052  13.345   7.788   6.728
 3777POPC   C3B49053  13.132   7.639   7.093
 3777POPC   C4B49054  12.896   7.837   7.405
 3778POPC   NC349055  30.187  19.248   5.457
 3778POPC   PO449056  29.774  18.701   5.473
 3778POPC   GL149057  29.736  19.021   5.766
 3778POPC   GL249058  30.055  19.164   5.933
 3778POPC   C1A49059  29.592  19.168   6.134
 3778POPC   D2A49060  29.915  19.202   6.439
 3778POPC   C3A49061  29.854  19.160   6.850
 3778POPC   C4A49062  29.847  19.178   7.292
 3778POPC   C1B49063  30.342  18.984   6.267
 3778POPC   C2B49064  30.363  19.141   6.709
 3778POPC   C3B49065  30.337  19.133   7.179
 3778POPC   C4B49066  30.293  19.451   7.533
 3779POPC   NC349067  35.171  38.180   5.525
 3779POPC   PO449068  35.615  38.704   5.533
 3779POPC   GL149069  35.341  38.556   5.853
 3779POPC   GL249070  35.486  38.233   5.957
 3779POPC   C1A49071  35.333  38.652   6.290
 3779POPC   D2A49072  35.378  38.515   6.718
 3779POPC   C3A49073  35.600  38.669   7.024
 3779POPC   C4A49074  35.652  38.321   7.275
 3779POPC   C1B49075  35.111  38.178   6.219
 3779POPC   C2B49076  35.065  38.095   6.654
 3779POPC   C3B49077  35.103  38.237   7.088
 3779POPC   C4B49078  35.136  38.363   7.503
 3780POPC   NC349079   7.278  21.803   5.499
 3780POPC   PO449080   7.477  22.411   5.424
 3780POPC   GL149081   7.359  22.199   5.804
 3780POPC   GL249082   7.571  22.409   5.957
 3780POPC   C1A49083   7.215  22.001   6.192
 3780POPC   D2A49084   7.067  22.127   6.607
 3780POPC   C3A49085   7.248  21.992   6.987
 3780POPC   C4A49086   7.434  22.210   7.329
 3780POPC   C1B49087   7.677  22.723   6.242
 3780POPC   C2B49088   7.813  22.632   6.606
 3780POPC   C3B49089   7.616  22.425   6.896
 3780POPC   C4B49090   7.695  22.663   7.240
 3781POPC   NC349091  31.817  15.693   5.505
 3781POPC   PO449092  31.136  15.672   5.436
 3781POPC   GL149093  31.385  15.810   5.842
 3781POPC   GL249094  31.733  15.938   5.933
 3781POPC   C1A49095  31.353  15.952   6.298
 3781POPC   D2A49096  31.237  16.233   6.658
 3781POPC   C3A49097  31.308  15.980   7.023
 3781POPC   C4A49098  31.689  15.744   7.163
 3781POPC   C1B49099  31.692  16.336   6.138
 3781POPC   C2B49100  31.762  16.404   6.575
 3781POPC   C3B49101  31.617  16.394   6.999
 3781POPC   C4B49102  31.828  16.460   7.371
 3782POPC   NC349103   9.380  21.448   5.376
 3782POPC   PO449104  10.051  21.436   5.463
 3782POPC   GL149105   9.760  21.432   5.807
 3782POPC   GL249106   9.553  21.149   5.784
 3782POPC   C1A49107   9.839  21.451   6.248
 3782POPC   D2A49108   9.896  21.620   6.642
 3782POPC   C3A49109   9.743  21.395   7.019
 3782POPC   C4A49110   9.887  20.976   7.152
 3782POPC   C1B49111   9.365  21.240   6.190
 3782POPC   C2B49112   9.490  21.185   6.610
 3782POPC   C3B49113   9.293  21.138   7.012
 3782POPC   C4B49114   9.336  21.331   7.396
 3783POPC   NC349115  17.479   0.558   5.003
 3783POPC   PO449116  17.788   0.097   5.413
 3783POPC   GL149117  17.674   0.458   5.700
 3783POPC   GL249118  17.903   0.785   5.722
 3783POPC   C1A49119  17.585   0.369   6.130
 3783POPC   D2A49120  17.762   0.226   6.498
 3783POPC   C3A49121  17.548   0.436   6.828
 3783POPC   C4A49122  17.470   0.356   7.248
 3783POPC   C1B49123  17.717   0.875   6.141
 3783POPC   C2B49124  17.504   0.890   6.572
 3783POPC   C3B49125  17.738   0.892   7.007
 3783POPC   C4B49126  17.783   0.907   7.469
 3784POPC   NC349127  41.896  22.239   5.485
 3784POPC   PO449128  42.553  21.912   5.534
 3784POPC   GL149129  42.360  22.021   5.893
 3784POPC   GL249130  42.266  22.340   5.830
 3784POPC   C1A49131  42.421  22.196   6.305
 3784POPC   D2A49132  42.422  22.053   6.724
 3784POPC   C3A49133  42.590  22.300   7.047
 3784POPC   C4A49134  42.381  22.035   7.348
 3784POPC   C1B49135  41.983  22.461   6.188
 3784POPC   C2B49136  42.122  22.478   6.642
 3784POPC   C3B49137  42.100  22.395   7.093
 3784POPC   C4B49138  42.335  22.508   7.459
 3785POPC   NC349139  24.785  10.134   5.421
 3785POPC   PO449140  24.271  10.559   5.324
 3785POPC   GL149141  24.398  10.515   5.751
 3785POPC   GL249142  24.703  10.663   5.673
 3785POPC   C1A49143  24.356  10.475   6.225
 3785POPC   D2A49144  24.488  10.422   6.698
 3785POPC   C3A49145  24.413  10.471   7.151
 3785POPC   C4A49146  24.597  10.627   7.549
 3785POPC   C1B49147  24.866  10.734   6.081
 3785POPC   C2B49148  24.784  10.772   6.498
 3785POPC   C3B49149  24.658  10.900   6.917
 3785POPC   C4B49150  24.900  10.934   7.300
 3786POPC   NC349151  26.371   9.290   5.616
 3786POPC   PO449152  25.739   9.037   5.459
 3786POPC   GL149153  26.004   8.959   5.845
 3786POPC   GL249154  26.250   9.176   6.069
 3786POPC   C1A49155  25.845   8.984   6.271
 3786POPC   D2A49156  26.092   9.142   6.588
 3786POPC   C3A49157  26.045   8.996   7.004
 3786POPC   C4A49158  26.240   9.190   7.300
 3786POPC   C1B49159  26.358   8.810   6.266
 3786POPC   C2B49160  26.310   8.683   6.686
 3786POPC   C3B49161  26.458   8.737   7.117
 3786POPC   C4B49162  26.161   8.692   7.433
 3787POPC   NC349163   5.389  21.385   5.169
 3787POPC   PO449164   6.021  21.476   5.380
 3787POPC   GL149165   5.936  21.416   5.813
 3787POPC   GL249166   5.962  21.094   5.829
 3787POPC   C1A49167   5.929  21.506   6.239
 3787POPC   D2A49168   6.159  21.644   6.578
 3787POPC   C3A49169   5.870  21.607   6.896
 3787POPC   C4A49170   5.734  21.481   7.269
 3787POPC   C1B49171   5.701  21.040   6.208
 3787POPC   C2B49172   5.711  21.199   6.622
 3787POPC   C3B49173   5.752  21.041   7.027
 3787POPC   C4B49174   5.987  21.058   7.395
 3788POPC   NC349175  18.596  17.026   5.600
 3788POPC   PO449176  18.555  16.441   5.344
 3788POPC   GL149177  18.467  16.612   5.817
 3788POPC   GL249178  18.273  16.950   5.963
 3788POPC   C1A49179  18.457  16.584   6.250
 3788POPC   D2A49180  18.222  16.537   6.619
 3788POPC   C3A49181  18.297  16.738   7.000
 3788POPC   C4A49182  18.540  16.591   7.355
 3788POPC   C1B49183  18.011  16.883   6.283
 3788POPC   C2B49184  17.834  16.868   6.677
 3788POPC   C3B49185  17.895  17.088   7.035
 3788POPC   C4B49186  17.790  17.048   7.446
 3789POPC   NC349187   6.074  17.821   5.445
 3789POPC   PO449188   5.524  18.147   5.744
 3789POPC   GL149189   5.666  17.714   5.934
 3789POPC   GL249190   5.952  17.502   5.835
 3789POPC   C1A49191   5.594  17.422   6.278
 3789POPC   D2A49192   5.747  17.323   6.692
 3789POPC   C3A49193   5.582  17.527   7.055
 3789POPC   C4A49194   5.497  17.960   7.120
 3789POPC   C1B49195   6.095  17.555   6.264
 3789POPC   C2B49196   6.270  17.461   6.668
 3789POPC   C3B49197   6.092  17.340   7.070
 3789POPC   C4B49198   5.890  17.304   7.433
 3790POPC   NC349199   8.738  14.272   5.374
 3790POPC   PO449200   9.222  14.757   5.276
 3790POPC   GL149201   9.162  14.482   5.673
 3790POPC   GL249202   8.804  14.400   5.850
 3790POPC   C1A49203   9.181  14.558   6.134
 3790POPC   D2A49204   9.100  14.211   6.436
 3790POPC   C3A49205   9.206  14.284   6.881
 3790POPC   C4A49206   9.088  14.199   7.300
 3790POPC   C1B49207   8.831  13.971   6.059
 3790POPC   C2B49208   8.707  13.880   6.500
 3790POPC   C3B49209   8.722  14.175   6.824
 3790POPC   C4B49210   8.592  14.336   7.205
 3791POPC   NC349211  25.316  40.190   5.492
 3791POPC   PO449212  24.926  39.692   5.218
 3791POPC   GL149213  24.993  39.872   5.717
 3791POPC   GL249214  25.315  39.923   5.949
 3791POPC   C1A49215  24.870  39.824   6.193
 3791POPC   D2A49216  24.760  39.923   6.638
 3791POPC   C3A49217  25.094  40.045   6.912
 3791POPC   C4A49218  25.222  39.916   7.355
 3791POPC   C1B49219  25.546  40.270   6.175
 3791POPC   C2B49220  25.628  40.261   6.627
 3791POPC   C3B49221  25.589  40.097   7.042
 3791POPC   C4B49222  25.591  40.296   7.449
 3792POPC   NC349223  10.407  12.574   5.428
 3792POPC   PO449224  11.000  13.018   5.347
 3792POPC   GL149225  10.900  12.834   5.772
 3792POPC   GL249226  10.554  12.750   5.883
 3792POPC   C1A49227  10.840  13.021   6.204
 3792POPC   D2A49228  10.570  13.060   6.560
 3792POPC   C3A49229  10.740  13.023   6.985
 3792POPC   C4A49230  10.753  12.659   7.253
 3792POPC   C1B49231  10.736  12.542   6.269
 3792POPC   C2B49232  10.743  12.596   6.706
 3792POPC   C3B49233  10.339  12.648   6.961
 3792POPC   C4B49234  10.150  12.659   7.394
 3793POPC   NC349235  27.208  35.849   5.447
 3793POPC   PO449236  27.892  35.497   5.472
 3793POPC   GL149237  27.773  35.612   5.875
 3793POPC   GL249238  27.456  35.438   5.798
 3793POPC   C1A49239  27.968  35.569   6.297
 3793POPC   D2A49240  27.742  35.682   6.665
 3793POPC   C3A49241  27.828  35.557   7.046
 3793POPC   C4A49242  27.606  35.505   7.469
 3793POPC   C1B49243  27.697  35.165   6.154
 3793POPC   C2B49244  27.822  35.179   6.631
 3793POPC   C3B49245  27.694  35.071   7.067
 3793POPC   C4B49246  27.329  35.034   7.346
 3794POPC   NC349247  15.199  40.622   5.421
 3794POPC   PO449248  15.393  41.286   5.466
 3794POPC   GL149249  15.280  41.089   5.843
 3794POPC   GL249250  14.977  40.945   5.760
 3794POPC   C1A49251  15.186  40.886   6.249
 3794POPC   D2A49252  15.042  41.081   6.599
 3794POPC   C3A49253  15.198  40.949   6.984
 3794POPC   C4A49254  15.108  40.844   7.378
 3794POPC   C1B49255  14.801  40.633   6.051
 3794POPC   C2B49256  14.790  40.616   6.507
 3794POPC   C3B49257  14.839  40.596   6.935
 3794POPC   C4B49258  15.036  40.307   7.177
 3795POPC   NC349259  13.366   8.575   5.533
 3795POPC   PO449260  13.830   9.066   5.539
 3795POPC   GL149261  13.449   9.051   5.834
 3795POPC   GL249262  13.284   9.374   5.941
 3795POPC   C1A49263  13.495   8.939   6.270
 3795POPC   D2A49264  13.859   8.852   6.559
 3795POPC   C3A49265  13.708   8.930   6.977
 3795POPC   C4A49266  13.726   8.878   7.414
 3795POPC   C1B49267  13.495   9.425   6.299
 3795POPC   C2B49268  13.388   9.254   6.725
 3795POPC   C3B49269  13.368   9.257   7.191
 3795POPC   C4B49270  13.499   9.281   7.613
 3796POPC   NC349271  37.228  32.468   5.290
 3796POPC   PO449272  36.819  32.011   5.510
 3796POPC   GL149273  36.873  32.228   5.875
 3796POPC   GL249274  37.008  32.523   5.762
 3796POPC   C1A49275  36.807  32.222   6.309
 3796POPC   D2A49276  36.526  32.298   6.612
 3796POPC   C3A49277  36.769  32.265   6.935
 3796POPC   C4A49278  36.758  32.134   7.306
 3796POPC   C1B49279  37.151  32.575   6.191
 3796POPC   C2B49280  37.102  32.540   6.631
 3796POPC   C3B49281  36.835  32.760   6.939
 3796POPC   C4B49282  36.944  32.591   7.319
 3797POPC   NC349283  14.500  32.891   5.506
 3797POPC   PO449284  13.937  33.325   5.614
 3797POPC   GL149285  14.234  33.164   5.866
 3797POPC   GL249286  14.535  33.342   5.768
 3797POPC   C1A49287  14.290  32.833   6.165
 3797POPC   D2A49288  14.612  32.810   6.490
 3797POPC   C3A49289  14.525  33.022   6.859
 3797POPC   C4A49290  14.380  32.841   7.254
 3797POPC   C1B49291  14.658  33.269   6.188
 3797POPC   C2B49292  14.567  33.503   6.555
 3797POPC   C3B49293  14.753  33.500   6.951
 3797POPC   C4B49294  14.589  33.312   7.286
 3798POPC   NC349295   4.250  14.542   5.416
 3798POPC   PO449296   4.827  14.086   5.395
 3798POPC   GL149297   4.484  14.090   5.701
 3798POPC   GL249298   4.510  14.423   5.832
 3798POPC   C1A49299   4.347  14.039   6.148
 3798POPC   D2A49300   4.400  14.245   6.543
 3798POPC   C3A49301   4.204  14.259   6.925
 3798POPC   C4A49302   4.359  14.271   7.324
 3798POPC   C1B49303   4.344  14.614   6.208
 3798POPC   C2B49304   4.488  14.740   6.631
 3798POPC   C3B49305   4.408  14.703   7.043
 3798POPC   C4B49306   3.978  14.649   7.194
 3799POPC   NC349307   5.961  31.743   5.476
 3799POPC   PO449308   6.417  31.255   5.482
 3799POPC   GL149309   6.045  31.370   5.822
 3799POPC   GL249310   5.672  31.595   5.861
 3799POPC   C1A49311   5.969  31.521   6.247
 3799POPC   D2A49312   5.748  31.676   6.552
 3799POPC   C3A49313   5.940  31.616   6.937
 3799POPC   C4A49314   6.059  31.861   7.306
 3799POPC   C1B49315   5.520  31.266   6.157
 3799POPC   C2B49316   5.301  31.264   6.544
 3799POPC   C3B49317   5.431  31.493   6.894
 3799POPC   C4B49318   5.588  31.471   7.286
 3800POPC   NC349319  30.224  13.759   5.379
 3800POPC   PO449320  29.899  13.306   5.695
 3800POPC   GL149321  30.060  13.645   5.872
 3800POPC   GL249322  29.793  13.874   5.917
 3800POPC   C1A49323  30.075  13.535   6.314
 3800POPC   D2A49324  29.830  13.552   6.633
 3800POPC   C3A49325  29.995  13.408   6.973
 3800POPC   C4A49326  30.038  13.522   7.343
 3800POPC   C1B49327  30.062  14.039   6.212
 3800POPC   C2B49328  30.118  13.975   6.630
 3800POPC   C3B49329  30.251  13.852   7.014
 3800POPC   C4B49330  30.171  14.071   7.393
 3801POPC   NC349331  17.438  23.958   5.386
 3801POPC   PO449332  18.025  23.678   5.366
 3801POPC   GL149333  17.811  23.567   5.781
 3801POPC   GL249334  17.448  23.603   5.787
 3801POPC   C1A49335  17.760  23.697   6.244
 3801POPC   D2A49336  17.769  24.043   6.574
 3801POPC   C3A49337  17.588  23.958   6.997
 3801POPC   C4A49338  17.662  23.910   7.446
 3801POPC   C1B49339  17.276  23.445   6.177
 3801POPC   C2B49340  17.353  23.601   6.583
 3801POPC   C3B49341  17.433  23.459   6.966
 3801POPC   C4B49342  17.282  23.593   7.321
 3802POPC   NC349343  38.300  16.091   5.444
 3802POPC   PO449344  38.879  15.874   5.240
 3802POPC   GL149345  38.672  15.768   5.689
 3802POPC   GL249346  38.296  15.681   5.753
 3802POPC   C1A49347  38.665  15.906   6.165
 3802POPC   D2A49348  38.640  15.763   6.638
 3802POPC   C3A49349  38.658  15.977   7.072
 3802POPC   C4A49350  38.836  16.274   7.390
 3802POPC   C1B49351  38.294  15.531   6.178
 3802POPC   C2B49352  38.145  15.625   6.573
 3802POPC   C3B49353  38.206  15.758   6.965
 3802POPC   C4B49354  38.265  15.607   7.373
 3803POPC   NC349355  39.817   4.458   5.642
 3803POPC   PO449356  39.204   4.440   5.420
 3803POPC   GL149357  39.033   4.325   5.819
 3803POPC   GL249358  39.388   4.353   5.900
 3803POPC   C1A49359  39.100   4.141   6.240
 3803POPC   D2A49360  39.045   4.296   6.622
 3803POPC   C3A49361  39.214   4.093   6.945
 3803POPC   C4A49362  39.337   4.265   7.332
 3803POPC   C1B49363  39.410   4.665   6.201
 3803POPC   C2B49364  39.367   4.692   6.604
 3803POPC   C3B49365  39.540   4.555   6.949
 3803POPC   C4B49366  39.577   4.764   7.302
 3804POPC   NC349367  18.273  34.157   5.425
 3804POPC   PO449368  18.151  33.493   5.351
 3804POPC   GL149369  18.231  33.740   5.755
 3804POPC   GL249370  17.929  33.974   5.757
 3804POPC   C1A49371  18.332  33.776   6.237
 3804POPC   D2A49372  18.187  33.539   6.634
 3804POPC   C3A49373  18.388  33.659   7.030
 3804POPC   C4A49374  18.541  34.075   7.015
 3804POPC   C1B49375  17.833  33.768   6.167
 3804POPC   C2B49376  17.811  33.899   6.599
 3804POPC   C3B49377  17.906  33.812   7.047
 3804POPC   C4B49378  18.049  33.671   7.461
 3805POPC   NC349379  13.529   9.460   5.527
 3805POPC   PO449380  13.446  10.121   5.539
 3805POPC   GL149381  13.531   9.826   5.902
 3805POPC   GL249382  13.853   9.656   5.881
 3805POPC   C1A49383  13.349   9.903   6.348
 3805POPC   D2A49384  13.556   9.749   6.684
 3805POPC   C3A49385  13.404   9.741   7.063
 3805POPC   C4A49386  13.665   9.797   7.397
 3805POPC   C1B49387  13.946   9.660   6.314
 3805POPC   C2B49388  13.885   9.369   6.633
 3805POPC   C3B49389  13.822   9.433   7.053
 3805POPC   C4B49390  13.972   9.352   7.447
 3806POPC   NC349391   1.053  27.355   5.517
 3806POPC   PO449392   1.508  27.853   5.569
 3806POPC   GL149393   1.260  27.694   5.876
 3806POPC   GL249394   0.921  27.789   5.799
 3806POPC   C1A49395   1.215  27.469   6.259
 3806POPC   D2A49396   1.473  27.424   6.618
 3806POPC   C3A49397   1.288  27.595   6.963
 3806POPC   C4A49398   1.333  27.423   7.337
 3806POPC   C1B49399   0.991  27.942   6.242
 3806POPC   C2B49400   0.921  27.756   6.627
 3806POPC   C3B49401   0.770  27.850   7.013
 3806POPC   C4B49402   1.039  27.853   7.361
 3807POPC   NC349403  40.357  14.764   5.363
 3807POPC   PO449404  40.221  15.441   5.402
 3807POPC   GL149405  40.013  15.255   5.787
 3807POPC   GL249406  39.745  15.492   5.922
 3807POPC   C1A49407  40.128  14.975   6.121
 3807POPC   D2A49408  39.924  14.878   6.538
 3807POPC   C3A49409  40.128  14.934   6.912
 3807POPC   C4A49410  40.019  15.212   7.240
 3807POPC   C1B49411  39.984  15.458   6.293
 3807POPC   C2B49412  39.943  15.402   6.748
 3807POPC   C3B49413  39.668  15.567   7.118
 3807POPC   C4B49414  39.751  15.465   7.621
 3808POPC   NC349415  42.036  28.819   5.495
 3808POPC   PO449416  42.590  29.228   5.422
 3808POPC   GL149417  42.329  29.166   5.775
 3808POPC   GL249418  42.372  28.822   5.878
 3808POPC   C1A49419  42.555  29.180   6.187
 3808POPC   D2A49420  42.462  29.018   6.566
 3808POPC   C3A49421  42.425  29.343   6.842
 3808POPC   C4A49422  42.339  29.447   7.259
 3808POPC   C1B49423  42.082  28.959   6.210
 3808POPC   C2B49424  41.983  28.891   6.641
 3808POPC   C3B49425  42.205  28.933   7.055
 3808POPC   C4B49426  42.012  28.919   7.451
 3809POPC   NC349427  44.139  22.591   5.607
 3809POPC   PO449428  43.958  23.184   5.474
 3809POPC   GL149429  43.914  22.981   5.872
 3809POPC   GL249430  43.662  22.707   5.817
 3809POPC   C1A49431  44.081  22.968   6.309
 3809POPC   D2A49432  44.288  22.921   6.706
 3809POPC   C3A49433  43.990  22.887   6.989
 3809POPC   C4A49434  43.844  23.097   7.300
 3809POPC   C1B49435  43.770  22.514   6.192
 3809POPC   C2B49436  43.798  22.648   6.592
 3809POPC   C3B49437  43.731  22.458   6.986
 3809POPC   C4B49438  43.834  22.595   7.404
 3810POPC   NC349439  33.275  35.317   5.394
 3810POPC   PO449440  32.682  35.352   5.207
 3810POPC   GL149441  32.850  35.404   5.661
 3810POPC   GL249442  33.021  35.729   5.725
 3810POPC   C1A49443  33.056  35.348   6.098
 3810POPC   D2A49444  33.237  35.107   6.483
 3810POPC   C3A49445  33.133  35.207   6.937
 3810POPC   C4A49446  33.202  35.022   7.356
 3810POPC   C1B49447  33.168  35.852   6.180
 3810POPC   C2B49448  33.361  35.624   6.580
 3810POPC   C3B49449  33.357  35.684   7.041
 3810POPC   C4B49450  33.103  35.532   7.398
 3811POPC   NC349451  10.325   7.609   5.410
 3811POPC   PO449452  10.632   7.004   5.650
 3811POPC   GL149453  10.440   7.333   5.884
 3811POPC   GL249454  10.113   7.559   5.863
 3811POPC   C1A49455  10.697   7.512   6.221
 3811POPC   D2A49456  10.753   7.716   6.623
 3811POPC   C3A49457  10.571   7.533   6.949
 3811POPC   C4A49458  10.725   7.280   7.213
 3811POPC   C1B49459  10.107   7.789   6.259
 3811POPC   C2B49460  10.269   7.872   6.682
 3811POPC   C3B49461  10.208   7.811   7.153
 3811POPC   C4B49462  10.240   7.441   7.424
 3812POPC   NC349463  34.507   7.146   5.358
 3812POPC   PO449464  34.091   7.677   5.667
 3812POPC   GL149465  34.308   7.345   5.781
 3812POPC   GL249466  34.677   7.431   5.793
 3812POPC   C1A49467  34.409   7.162   6.130
 3812POPC   D2A49468  34.773   7.248   6.393
 3812POPC   C3A49469  34.686   7.398   6.804
 3812POPC   C4A49470  34.545   7.366   7.212
 3812POPC   C1B49471  34.517   7.672   6.193
 3812POPC   C2B49472  34.501   7.898   6.613
 3812POPC   C3B49473  34.624   7.860   7.048
 3812POPC   C4B49474  34.571   7.814   7.488
 3813POPC   NC349475  37.328  27.559   5.442
 3813POPC   PO449476  36.935  27.983   5.274
 3813POPC   GL149477  36.953  27.772   5.747
 3813POPC   GL249478  37.004  27.404   5.794
 3813POPC   C1A49479  36.695  27.554   6.155
 3813POPC   D2A49480  36.429  27.490   6.527
 3813POPC   C3A49481  36.635  27.345   6.899
 3813POPC   C4A49482  36.715  27.619   7.255
 3813POPC   C1B49483  37.189  27.666   6.178
 3813POPC   C2B49484  37.015  27.530   6.597
 3813POPC   C3B49485  37.164  27.552   7.019
 3813POPC   C4B49486  37.171  27.460   7.466
 3814POPC   NC349487  10.508  25.612   5.568
 3814POPC   PO449488  10.712  24.952   5.465
 3814POPC   GL149489  10.616  25.189   5.844
 3814POPC   GL249490  10.729  25.531   6.018
 3814POPC   C1A49491  10.337  25.212   6.168
 3814POPC   D2A49492  10.236  25.031   6.546
 3814POPC   C3A49493  10.462  25.159   6.890
 3814POPC   C4A49494  10.272  25.059   7.263
 3814POPC   C1B49495  10.865  25.193   6.297
 3814POPC   C2B49496  11.033  25.191   6.715
 3814POPC   C3B49497  10.896  25.384   7.086
 3814POPC   C4B49498  10.724  25.138   7.451
 3815POPC   NC349499  41.265  20.312   5.191
 3815POPC   PO449500  41.688  19.850   5.512
 3815POPC   GL149501  41.530  19.735   5.868
 3815POPC   GL249502  41.325  19.450   5.907
 3815POPC   C1A49503  41.474  19.884   6.258
 3815POPC   D2A49504  41.337  19.878   6.672
 3815POPC   C3A49505  41.629  20.125   6.939
 3815POPC   C4A49506  41.802  20.009   7.335
 3815POPC   C1B49507  41.685  19.414   6.230
 3815POPC   C2B49508  41.713  19.384   6.686
 3815POPC   C3B49509  41.587  19.615   7.023
 3815POPC   C4B49510  41.178  19.732   7.176
 3816POPC   NC349511  27.304  10.492   5.426
 3816POPC   PO449512  27.789  10.771   5.692
 3816POPC   GL149513  27.425  10.653   5.923
 3816POPC   GL249514  27.362  10.288   5.915
 3816POPC   C1A49515  27.328  10.617   6.371
 3816POPC   D2A49516  27.164  10.335   6.708
 3816POPC   C3A49517  27.446  10.369   7.083
 3816POPC   C4A49518  27.627  10.747   7.299
 3816POPC   C1B49519  27.697  10.299   6.216
 3816POPC   C2B49520  27.660  10.194   6.619
 3816POPC   C3B49521  27.934  10.129   6.912
 3816POPC   C4B49522  27.954  10.352   7.255
 3817POPC   NC349523  27.606  38.223   5.441
 3817POPC   PO449524  27.900  38.827   5.507
 3817POPC   GL149525  27.625  38.557   5.829
 3817POPC   GL249526  27.521  38.251   5.929
 3817POPC   C1A49527  27.536  38.663   6.255
 3817POPC   D2A49528  27.794  38.590   6.627
 3817POPC   C3A49529  27.572  38.553   7.010
 3817POPC   C4A49530  27.602  38.707   7.416
 3817POPC   C1B49531  27.217  38.216   6.238
 3817POPC   C2B49532  27.267  38.394   6.614
 3817POPC   C3B49533  27.181  38.229   6.950
 3817POPC   C4B49534  27.323  38.150   7.290
 3818POPC   NC349535   3.027  32.794   5.053
 3818POPC   PO449536   2.627  33.205   5.395
 3818POPC   GL149537   2.799  33.154   5.839
 3818POPC   GL249538   3.062  32.951   5.864
 3818POPC   C1A49539   2.797  33.101   6.302
 3818POPC   D2A49540   2.573  33.152   6.702
 3818POPC   C3A49541   2.836  33.338   7.013
 3818POPC   C4A49542   2.813  32.974   7.237
 3818POPC   C1B49543   3.061  32.656   6.236
 3818POPC   C2B49544   3.144  32.462   6.633
 3818POPC   C3B49545   3.194  32.657   7.051
 3818POPC   C4B49546   3.111  32.671   7.508
 3819POPC   NC349547   4.575  18.443   5.519
 3819POPC   PO449548   4.156  17.980   5.404
 3819POPC   GL149549   4.417  17.997   5.803
 3819POPC   GL249550   4.515  18.297   5.985
 3819POPC   C1A49551   4.313  17.916   6.229
 3819POPC   D2A49552   3.970  17.973   6.498
 3819POPC   C3A49553   4.039  18.086   6.933
 3819POPC   C4A49554   4.365  18.170   7.213
 3819POPC   C1B49555   4.313  18.424   6.352
 3819POPC   C2B49556   4.388  18.451   6.776
 3819POPC   C3B49557   4.415  18.670   7.156
 3819POPC   C4B49558   4.312  18.526   7.589
 3820POPC   NC349559  38.174  37.478   5.412
 3820POPC   PO449560  38.650  38.020   5.509
 3820POPC   GL149561  38.626  37.895   5.953
 3820POPC   GL249562  38.629  37.506   5.939
 3820POPC   C1A49563  38.538  38.075   6.374
 3820POPC   D2A49564  38.147  38.042   6.605
 3820POPC   C3A49565  38.172  37.755   6.913
 3820POPC   C4A49566  38.381  37.861   7.236
 3820POPC   C1B49567  38.637  37.341   6.350
 3820POPC   C2B49568  38.620  37.644   6.689
 3820POPC   C3B49569  38.789  37.586   7.090
 3820POPC   C4B49570  38.709  37.598   7.554
 3821POPC   NC349571  17.734  42.380   5.430
 3821POPC   PO449572  18.370  42.554   5.416
 3821POPC   GL149573  18.380  42.573   5.840
 3821POPC   GL249574  18.413  42.214   5.859
 3821POPC   C1A49575  18.232  42.486   6.262
 3821POPC   D2A49576  18.110  42.224   6.580
 3821POPC   C3A49577  18.240  42.426   6.900
 3821POPC   C4A49578  18.244  42.505   7.308
 3821POPC   C1B49579  18.487  42.001   6.276
 3821POPC   C2B49580  18.597  42.023   6.725
 3821POPC   C3B49581  18.382  42.004   7.153
 3821POPC   C4B49582  18.345  41.910   7.606
 3822POPC   NC349583   8.203  38.973   5.433
 3822POPC   PO449584   8.352  39.594   5.388
 3822POPC   GL149585   8.148  39.456   5.793
 3822POPC   GL249586   8.292  39.134   5.899
 3822POPC   C1A49587   8.214  39.485   6.249
 3822POPC   D2A49588   8.200  39.308   6.644
 3822POPC   C3A49589   7.906  39.421   6.940
 3822POPC   C4A49590   8.253  39.392   7.194
 3822POPC   C1B49591   8.272  38.806   6.200
 3822POPC   C2B49592   8.156  38.798   6.598
 3822POPC   C3B49593   8.120  38.916   7.003
 3822POPC   C4B49594   8.176  38.966   7.418
 3823POPC   NC349595   2.124  26.107   5.616
 3823POPC   PO449596   1.483  26.107   5.620
 3823POPC   GL149597   1.703  25.822   5.924
 3823POPC   GL249598   2.088  25.756   5.956
 3823POPC   C1A49599   1.850  25.927   6.363
 3823POPC   D2A49600   2.153  26.166   6.613
 3823POPC   C3A49601   2.011  26.203   7.063
 3823POPC   C4A49602   2.061  26.367   7.491
 3823POPC   C1B49603   2.287  25.594   6.274
 3823POPC   C2B49604   2.171  25.423   6.619
 3823POPC   C3B49605   2.088  25.727   6.894
 3823POPC   C4B49606   2.202  25.750   7.296
 3824POPC   NC349607  33.364   6.028   5.534
 3824POPC   PO449608  32.833   5.547   5.543
 3824POPC   GL149609  33.022   5.778   5.840
 3824POPC   GL249610  32.846   6.089   5.780
 3824POPC   C1A49611  32.978   5.896   6.249
 3824POPC   D2A49612  32.822   5.744   6.637
 3824POPC   C3A49613  33.165   5.747   6.928
 3824POPC   C4A49614  33.206   5.942   7.339
 3824POPC   C1B49615  32.756   6.370   6.138
 3824POPC   C2B49616  32.845   6.262   6.579
 3824POPC   C3B49617  33.019   6.249   6.982
 3824POPC   C4B49618  32.792   6.280   7.367
 3825POPC   NC349619  30.152  37.977   5.485
 3825POPC   PO449620  29.887  37.416   5.536
 3825POPC   GL149621  30.033  37.617   5.901
 3825POPC   GL249622  29.807  37.878   5.903
 3825POPC   C1A49623  29.891  37.583   6.344
 3825POPC   D2A49624  29.908  37.762   6.751
 3825POPC   C3A49625  30.172  37.692   7.096
 3825POPC   C4A49626  30.177  37.484   7.500
 3825POPC   C1B49627  29.888  38.086   6.322
 3825POPC   C2B49628  29.913  38.278   6.702
 3825POPC   C3B49629  29.872  38.153   7.085
 3825POPC   C4B49630  29.989  37.983   7.463
 3826POPC   NC349631   7.586   6.914   5.205
 3826POPC   PO449632   7.261   6.328   5.421
 3826POPC   GL149633   7.500   6.444   5.739
 3826POPC   GL249634   7.528   6.803   5.724
 3826POPC   C1A49635   7.794   6.524   6.060
 3826POPC   D2A49636   7.710   6.408   6.476
 3826POPC   C3A49637   7.715   6.684   6.820
 3826POPC   C4A49638   7.767   6.734   7.245
 3826POPC   C1B49639   7.317   6.698   6.156
 3826POPC   C2B49640   7.263   6.832   6.595
 3826POPC   C3B49641   7.223   6.605   6.971
 3826POPC   C4B49642   6.949   6.397   7.232
 3827POPC   NC349643  34.602  37.635   5.409
 3827POPC   PO449644  34.311  37.099   5.777
 3827POPC   GL149645  34.457  37.525   5.883
 3827POPC   GL249646  34.803  37.681   5.883
 3827POPC   C1A49647  34.385  37.745   6.255
 3827POPC   D2A49648  34.112  37.562   6.566
 3827POPC   C3A49649  34.293  37.633   6.957
 3827POPC   C4A49650  34.624  37.440   7.156
 3827POPC   C1B49651  34.895  37.637   6.302
 3827POPC   C2B49652  34.729  37.721   6.704
 3827POPC   C3B49653  35.033  37.728   7.025
 3827POPC   C4B49654  35.117  37.442   7.302
 3828POPC   NC349655  14.674  15.645   5.401
 3828POPC   PO449656  14.401  16.192   5.271
 3828POPC   GL149657  14.354  16.013   5.709
 3828POPC   GL249658  14.264  15.670   5.712
 3828POPC   C1A49659  14.259  16.075   6.168
 3828POPC   D2A49660  14.347  16.307   6.565
 3828POPC   C3A49661  14.139  16.180   6.957
 3828POPC   C4A49662  14.306  16.003   7.318
 3828POPC   C1B49663  14.520  15.589   6.097
 3828POPC   C2B49664  14.567  15.776   6.522
 3828POPC   C3B49665  14.520  15.659   6.938
 3828POPC   C4B49666  14.314  15.469   7.226
 3829POPC   NC349667  21.740  12.595   5.406
 3829POPC   PO449668  22.335  13.144   5.484
 3829POPC   GL149669  22.196  12.923   5.816
 3829POPC   GL249670  22.280  12.573   5.840
 3829POPC   C1A49671  22.072  12.886   6.234
 3829POPC   D2A49672  22.128  13.112   6.629
 3829POPC   C3A49673  22.061  12.928   7.026
 3829POPC   C4A49674  22.010  13.106   7.406
 3829POPC   C1B49675  22.478  12.592   6.256
 3829POPC   C2B49676  22.337  12.643   6.693
 3829POPC   C3B49677  22.484  12.684   7.144
 3829POPC   C4B49678  22.270  12.694   7.561
 3830POPC   NC349679  32.539  38.156   5.100
 3830POPC   PO449680  32.271  38.682   5.455
 3830POPC   GL149681  32.375  38.492   5.824
 3830POPC   GL249682  32.550  38.172   5.728
 3830POPC   C1A49683  32.129  38.416   6.206
 3830POPC   D2A49684  32.092  38.376   6.610
 3830POPC   C3A49685  32.193  38.711   6.851
 3830POPC   C4A49686  32.040  38.798   7.250
 3830POPC   C1B49687  32.379  37.976   6.089
 3830POPC   C2B49688  32.265  37.903   6.505
 3830POPC   C3B49689  32.363  38.089   6.899
 3830POPC   C4B49690  32.177  38.308   7.170
 3831POPC   NC349691  43.041  12.589   5.461
 3831POPC   PO449692  43.518  13.003   5.306
 3831POPC   GL149693  43.219  13.164   5.694
 3831POPC   GL249694  43.030  12.903   5.874
 3831POPC   C1A49695  43.100  13.344   6.144
 3831POPC   D2A49696  43.077  13.123   6.561
 3831POPC   C3A49697  43.303  13.177   6.938
 3831POPC   C4A49698  43.058  13.160   7.260
 3831POPC   C1B49699  42.916  12.578   6.171
 3831POPC   C2B49700  42.789  12.407   6.578
 3831POPC   C3B49701  42.862  12.663   6.947
 3831POPC   C4B49702  42.733  12.568   7.349
 3832POPC   NC349703  16.074  42.114   5.387
 3832POPC   PO449704  16.100  42.751   5.522
 3832POPC   GL149705  15.936  42.406   5.817
 3832POPC   GL249706  16.203  42.164   5.867
 3832POPC   C1A49707  15.856  42.237   6.249
 3832POPC   D2A49708  16.070  42.321   6.666
 3832POPC   C3A49709  15.813  42.474   6.999
 3832POPC   C4A49710  15.657  42.115   7.190
 3832POPC   C1B49711  16.394  42.178   6.263
 3832POPC   C2B49712  16.422  41.918   6.617
 3832POPC   C3B49713  16.475  42.055   6.996
 3832POPC   C4B49714  16.243  42.318   7.192
 3833POPC   NC349715  10.237   2.215   5.476
 3833POPC   PO449716  10.257   1.491   5.491
 3833POPC   GL149717  10.537   1.750   5.784
 3833POPC   GL249718  10.810   2.021   5.745
 3833POPC   C1A49719  10.731   1.800   6.209
 3833POPC   D2A49720  10.573   2.016   6.565
 3833POPC   C3A49721  10.574   1.817   6.961
 3833POPC   C4A49722  10.677   1.816   7.388
 3833POPC   C1B49723  10.809   2.297   6.132
 3833POPC   C2B49724  10.806   2.471   6.563
 3833POPC   C3B49725  10.812   2.291   6.971
 3833POPC   C4B49726  10.804   2.356   7.397
 3834POPC   NC349727  24.417  24.614   5.647
 3834POPC   PO449728  23.912  24.164   5.558
 3834POPC   GL149729  24.197  24.226   5.936
 3834POPC   GL249730  24.558  24.390   6.061
 3834POPC   C1A49731  24.143  24.444   6.334
 3834POPC   D2A49732  24.471  24.636   6.611
 3834POPC   C3A49733  24.514  24.433   7.016
 3834POPC   C4A49734  24.459  24.223   7.413
 3834POPC   C1B49735  24.912  24.620   6.255
 3834POPC   C2B49736  24.924  24.913   6.605
 3834POPC   C3B49737  24.921  24.710   7.004
 3834POPC   C4B49738  24.841  24.526   7.403
 3835POPC   NC349739  18.655   5.493   5.424
 3835POPC   PO449740  18.542   4.868   5.465
 3835POPC   GL149741  18.388   5.127   5.784
 3835POPC   GL249742  18.157   5.348   5.618
 3835POPC   C1A49743  18.522   5.306   6.172
 3835POPC   D2A49744  18.606   5.152   6.574
 3835POPC   C3A49745  18.288   5.050   6.844
 3835POPC   C4A49746  18.424   5.173   7.251
 3835POPC   C1B49747  18.072   5.512   6.039
 3835POPC   C2B49748  18.093   5.439   6.494
 3835POPC   C3B49749  18.151   5.531   6.933
 3835POPC   C4B49750  17.955   5.407   7.325
 3836POPC   NC349751  26.937  44.422   5.608
 3836POPC   PO449752  26.487  44.809   5.310
 3836POPC   GL149753  26.730  44.853   5.770
 3836POPC   GL249754  26.647  44.552   6.008
 3836POPC   C1A49755  27.022  44.850   6.180
 3836POPC   D2A49756  27.211  44.769   6.616
 3836POPC   C3A49757  26.932  44.839   6.969
 3836POPC   C4A49758  26.665  44.672   7.328
 3836POPC   C1B49759  27.070  44.330   6.206
 3836POPC   C2B49760  27.278  44.246   6.565
 3836POPC   C3B49761  27.021  44.305   6.899
 3836POPC   C4B49762  26.898  44.210   7.296
 3837POPC   NC349763  36.739  18.964   5.453
 3837POPC   PO449764  37.306  19.313   5.262
 3837POPC   GL149765  37.324  19.333   5.736
 3837POPC   GL249766  37.040  19.103   5.896
 3837POPC   C1A49767  37.438  19.250   6.179
 3837POPC   D2A49768  37.184  19.031   6.501
 3837POPC   C3A49769  37.269  19.121   6.926
 3837POPC   C4A49770  37.015  18.998   7.268
 3837POPC   C1B49771  36.732  18.909   6.201
 3837POPC   C2B49772  36.727  18.667   6.561
 3837POPC   C3B49773  36.627  18.845   6.932
 3837POPC   C4B49774  36.359  18.699   7.246
 3838POPC   NC349775  24.266  31.867   5.456
 3838POPC   PO449776  24.667  31.267   5.437
 3838POPC   GL149777  24.487  31.508   5.780
 3838POPC   GL249778  24.754  31.724   5.837
 3838POPC   C1A49779  24.337  31.419   6.224
 3838POPC   D2A49780  24.575  31.335   6.629
 3838POPC   C3A49781  24.399  31.477   7.025
 3838POPC   C4A49782  24.001  31.338   7.194
 3838POPC   C1B49783  24.778  31.678   6.273
 3838POPC   C2B49784  25.017  31.584   6.636
 3838POPC   C3B49785  24.906  31.588   7.023
 3838POPC   C4B49786  24.869  31.327   7.347
 3839POPC   NC349787   1.472  18.120   5.638
 3839POPC   PO449788   1.045  18.509   5.288
 3839POPC   GL149789   1.230  18.598   5.761
 3839POPC   GL249790   1.631  18.569   5.829
 3839POPC   C1A49791   1.119  18.456   6.218
 3839POPC   D2A49792   1.315  18.238   6.585
 3839POPC   C3A49793   1.100  18.203   6.973
 3839POPC   C4A49794   1.168  17.998   7.340
 3839POPC   C1B49795   1.557  18.739   6.221
 3839POPC   C2B49796   1.329  18.753   6.609
 3839POPC   C3B49797   1.450  18.575   6.998
 3839POPC   C4B49798   1.198  18.548   7.389
 3840POPC   NC349799  26.185  21.845   5.544
 3840POPC   PO449800  26.271  21.234   5.429
 3840POPC   GL149801  26.187  21.337   5.827
 3840POPC   GL249802  25.924  21.560   5.873
 3840POPC   C1A49803  26.328  21.484   6.209
 3840POPC   D2A49804  26.559  21.378   6.566
 3840POPC   C3A49805  26.390  21.113   6.882
 3840POPC   C4A49806  26.363  21.207   7.324
 3840POPC   C1B49807  25.831  21.422   6.285
 3840POPC   C2B49808  26.048  21.505   6.665
 3840POPC   C3B49809  25.900  21.579   7.093
 3840POPC   C4B49810  25.502  21.630   7.317
 3841POPC   NC349811  34.473  18.175   5.354
 3841POPC   PO449812  35.011  17.771   5.381
 3841POPC   GL149813  34.885  17.876   5.836
 3841POPC   GL249814  34.607  18.134   5.895
 3841POPC   C1A49815  34.933  18.062   6.291
 3841POPC   D2A49816  34.736  18.368   6.620
 3841POPC   C3A49817  34.603  18.212   7.049
 3841POPC   C4A49818  34.705  18.111   7.497
 3841POPC   C1B49819  34.352  18.233   6.299
 3841POPC   C2B49820  34.148  18.248   6.741
 3841POPC   C3B49821  34.153  18.519   7.128
 3841POPC   C4B49822  34.411  18.547   7.526
 3842POPC   NC349823   4.168  28.941   5.331
 3842POPC   PO449824   4.673  29.326   5.358
 3842POPC   GL149825   4.400  29.187   5.698
 3842POPC   GL249826   4.082  29.360   5.660
 3842POPC   C1A49827   4.370  29.208   6.153
 3842POPC   D2A49828   4.585  29.116   6.536
 3842POPC   C3A49829   4.371  29.018   6.908
 3842POPC   C4A49830   4.534  28.791   7.269
 3842POPC   C1B49831   3.917  29.437   6.084
 3842POPC   C2B49832   4.034  29.436   6.527
 3842POPC   C3B49833   4.000  29.380   6.963
 3842POPC   C4B49834   4.251  29.459   7.315
 3843POPC   NC349835  34.988   6.373   5.444
 3843POPC   PO449836  34.338   6.550   5.424
 3843POPC   GL149837  34.610   6.670   5.759
 3843POPC   GL249838  34.658   6.339   5.865
 3843POPC   C1A49839  34.701   6.771   6.208
 3843POPC   D2A49840  34.421   6.907   6.572
 3843POPC   C3A49841  34.583   6.891   6.987
 3843POPC   C4A49842  34.511   6.909   7.422
 3843POPC   C1B49843  34.444   6.345   6.272
 3843POPC   C2B49844  34.566   6.437   6.720
 3843POPC   C3B49845  34.522   6.406   7.200
 3843POPC   C4B49846  34.405   6.151   7.543
 3844POPC   NC349847  38.005  27.232   5.410
 3844POPC   PO449848  37.710  27.799   5.526
 3844POPC   GL149849  37.821  27.584   5.844
 3844POPC   GL249850  37.522  27.399   5.896
 3844POPC   C1A49851  37.771  27.794   6.246
 3844POPC   D2A49852  37.509  27.683   6.587
 3844POPC   C3A49853  37.504  27.919   6.933
 3844POPC   C4A49854  37.598  27.759   7.311
 3844POPC   C1B49855  37.682  27.301   6.274
 3844POPC   C2B49856  37.999  27.420   6.560
 3844POPC   C3B49857  37.908  27.500   6.983
 3844POPC   C4B49858  37.633  27.251   7.239
 3845POPC   NC349859  24.594  42.653   5.477
 3845POPC   PO449860  24.529  42.017   5.654
 3845POPC   GL149861  24.629  42.373   5.932
 3845POPC   GL249862  24.913  42.629   5.883
 3845POPC   C1A49863  24.381  42.383   6.321
 3845POPC   D2A49864  24.127  42.603   6.647
 3845POPC   C3A49865  24.339  42.444   7.010
 3845POPC   C4A49866  24.412  42.198   7.398
 3845POPC   C1B49867  24.812  42.719   6.284
 3845POPC   C2B49868  24.759  42.533   6.652
 3845POPC   C3B49869  24.878  42.683   7.011
 3845POPC   C4B49870  24.739  42.602   7.377
 3846POPC   NC349871   6.356  40.501   5.689
 3846POPC   PO449872   6.654  39.821   5.574
 3846POPC   GL149873   6.765  39.909   5.984
 3846POPC   GL249874   6.421  40.022   6.003
 3846POPC   C1A49875   6.990  39.772   6.375
 3846POPC   D2A49876   6.826  39.687   6.802
 3846POPC   C3A49877   6.818  40.074   7.054
 3846POPC   C4A49878   6.466  40.284   7.192
 3846POPC   C1B49879   6.520  40.329   6.321
 3846POPC   C2B49880   6.346  40.229   6.701
 3846POPC   C3B49881   6.343  39.857   6.930
 3846POPC   C4B49882   6.166  39.863   7.324
 3847POPC   NC349883  43.397  21.243   5.422
 3847POPC   PO449884  44.042  21.503   5.379
 3847POPC   GL149885  43.908  21.385   5.815
 3847POPC   GL249886  43.560  21.374   5.876
 3847POPC   C1A49887  44.081  21.199   6.228
 3847POPC   D2A49888  44.027  20.967   6.636
 3847POPC   C3A49889  44.061  21.176   7.029
 3847POPC   C4A49890  44.256  21.067   7.417
 3847POPC   C1B49891  43.678  21.536   6.273
 3847POPC   C2B49892  43.653  21.377   6.705
 3847POPC   C3B49893  43.657  21.575   7.115
 3847POPC   C4B49894  43.717  21.736   7.548
 3848POPC   NC349895  43.327   6.701   5.413
 3848POPC   PO449896  42.781   6.319   5.253
 3848POPC   GL149897  42.835   6.374   5.732
 3848POPC   GL249898  43.009   6.709   5.821
 3848POPC   C1A49899  42.811   6.433   6.211
 3848POPC   D2A49900  43.103   6.776   6.395
 3848POPC   C3A49901  43.025   6.952   6.798
 3848POPC   C4A49902  42.921   6.728   7.149
 3848POPC   C1B49903  43.294   6.427   6.051
 3848POPC   C2B49904  43.290   6.321   6.485
 3848POPC   C3B49905  43.380   6.595   6.828
 3848POPC   C4B49906  43.524   6.572   7.232
 3849POPC   NC349907   7.372  44.264   5.410
 3849POPC   PO449908   7.597  44.923   5.565
 3849POPC   GL149909   7.643  44.630   5.850
 3849POPC   GL249910   7.280  44.562   5.805
 3849POPC   C1A49911   7.735  44.449   6.269
 3849POPC   D2A49912   7.469  44.557   6.619
 3849POPC   C3A49913   7.614  44.636   7.029
 3849POPC   C4A49914   7.227  44.578   7.307
 3849POPC   C1B49915   7.305  44.825   6.184
 3849POPC   C2B49916   7.315   0.065   6.562
 3849POPC   C3B49917   7.215  44.976   6.998
 3849POPC   C4B49918   7.510   0.005   7.377
 3850POPC   NC349919  24.386  43.344   5.501
 3850POPC   PO449920  24.904  43.010   5.555
 3850POPC   GL149921  24.529  42.990   5.852
 3850POPC   GL249922  24.397  43.315   6.001
 3850POPC   C1A49923  24.326  42.876   6.225
 3850POPC   D2A49924  24.334  43.141   6.568
 3850POPC   C3A49925  24.449  42.933   6.896
 3850POPC   C4A49926  24.518  43.053   7.265
 3850POPC   C1B49927  24.762  43.227   6.247
 3850POPC   C2B49928  24.861  43.111   6.659
 3850POPC   C3B49929  24.791  43.387   6.989
 3850POPC   C4B49930  24.678  43.531   7.382
 3851POPC   NC349931   6.632  28.264   5.338
 3851POPC   PO449932   6.354  28.890   5.392
 3851POPC   GL149933   6.513  28.516   5.762
 3851POPC   GL249934   6.423  28.130   5.772
 3851POPC   C1A49935   6.786  28.242   6.152
 3851POPC   D2A49936   6.682  28.011   6.557
 3851POPC   C3A49937   6.864  28.250   6.922
 3851POPC   C4A49938   6.892  28.623   7.184
 3851POPC   C1B49939   6.305  28.299   6.179
 3851POPC   C2B49940   6.217  28.270   6.598
 3851POPC   C3B49941   6.384  28.099   6.977
 3851POPC   C4B49942   6.227  28.240   7.350
 3852POPC   NC349943  13.994  37.731   5.497
 3852POPC   PO449944  13.343  38.081   5.458
 3852POPC   GL149945  13.565  37.780   5.772
 3852POPC   GL249946  13.793  37.464   5.866
 3852POPC   C1A49947  13.817  37.889   6.141
 3852POPC   D2A49948  13.855  37.992   6.563
 3852POPC   C3A49949  13.789  37.741   6.902
 3852POPC   C4A49950  13.569  37.899   7.236
 3852POPC   C1B49951  13.459  37.502   6.179
 3852POPC   C2B49952  13.316  37.668   6.573
 3852POPC   C3B49953  13.317  37.511   6.986
 3852POPC   C4B49954  13.664  37.411   7.283
 3853POPC   NC349955  21.910  16.031   5.490
 3853POPC   PO449956  22.477  15.611   5.684
 3853POPC   GL149957  22.206  15.760   6.011
 3853POPC   GL249958  21.855  15.867   5.968
 3853POPC   C1A49959  22.373  15.925   6.369
 3853POPC   D2A49960  22.233  16.179   6.666
 3853POPC   C3A49961  22.360  16.067   7.058
 3853POPC   C4A49962  22.004  16.074   7.281
 3853POPC   C1B49963  21.857  15.876   6.418
 3853POPC   C2B49964  22.108  15.689   6.755
 3853POPC   C3B49965  22.023  15.580   7.172
 3853POPC   C4B49966  21.887  15.621   7.592
 3854POPC   NC349967   2.201  31.784   5.504
 3854POPC   PO449968   1.683  31.365   5.531
 3854POPC   GL149969   1.854  31.595   5.854
 3854POPC   GL249970   2.187  31.419   5.868
 3854POPC   C1A49971   1.930  31.577   6.306
 3854POPC   D2A49972   1.843  31.755   6.712
 3854POPC   C3A49973   1.786  31.550   7.104
 3854POPC   C4A49974   1.659  31.713   7.530
 3854POPC   C1B49975   2.367  31.288   6.263
 3854POPC   C2B49976   2.199  31.301   6.679
 3854POPC   C3B49977   2.284  31.433   7.103
 3854POPC   C4B49978   2.061  31.367   7.477
 3855POPC   NC349979  44.203  18.571   5.558
 3855POPC   PO449980  43.624  18.240   5.724
 3855POPC   GL149981  43.949  18.375   5.949
 3855POPC   GL249982  44.134  18.105   5.787
 3855POPC   C1A49983  44.062  18.400   6.372
 3855POPC   D2A49984  44.048  18.386   6.815
 3855POPC   C3A49985  43.752  18.140   7.033
 3855POPC   C4A49986  43.917  18.374   7.356
 3855POPC   C1B49987  44.318  18.010   6.167
 3855POPC   C2B49988  44.411  18.075   6.594
 3855POPC   C3B49989  44.265  17.962   6.966
 3855POPC   C4B49990  44.115  17.892   7.331
 3856POPC   NC349991  32.747  10.141   5.320
 3856POPC   PO449992  33.237   9.683   5.360
 3856POPC   GL149993  32.985   9.776   5.712
 3856POPC   GL249994  33.183  10.041   5.848
 3856POPC   C1A49995  32.965   9.598   6.141
 3856POPC   D2A49996  32.763   9.681   6.539
 3856POPC   C3A49997  32.954   9.424   6.856
 3856POPC   C4A49998  32.845   9.517   7.241
 3856POPC   C1B49999  33.056  10.112   6.293
 3856POPC   C2B50000  33.207  10.127   6.705
 3856POPC   C3B50001  33.013   9.949   7.026
 3856POPC   C4B50002  32.940   9.962   7.472
 3857POPC   NC350003  44.308  26.998   5.526
 3857POPC   PO450004   0.003  27.015   5.481
 3857POPC   GL150005  44.895  26.900   5.879
 3857POPC   GL250006  44.665  27.198   5.854
 3857POPC   C1A50007  44.694  26.912   6.284
 3857POPC   D2A50008  44.451  26.648   6.600
 3857POPC   C3A50009  44.620  26.640   7.017
 3857POPC   C4A50010  44.609  26.952   7.372
 3857POPC   C1B50011  44.453  27.353   6.215
 3857POPC   C2B50012  44.664  27.315   6.609
 3857POPC   C3B50013  44.614  27.285   7.000
 3857POPC   C4B50014  44.297  27.347   7.285
 3858POPC   NC350015   3.072   3.588   5.494
 3858POPC   PO450016   2.520   3.361   5.576
 3858POPC   GL150017   2.711   3.443   5.910
 3858POPC   GL250018   2.979   3.213   5.867
 3858POPC   C1A50019   2.516   3.416   6.312
 3858POPC   D2A50020   2.443   3.639   6.682
 3858POPC   C3A50021   2.482   3.509   7.095
 3858POPC   C4A50022   2.859   3.456   7.262
 3858POPC   C1B50023   3.020   3.353   6.313
 3858POPC   C2B50024   2.989   3.516   6.726
 3858POPC   C3B50025   3.294   3.375   7.040
 3858POPC   C4B50026   3.138   2.992   7.239
 3859POPC   NC350027  40.773  13.108   5.501
 3859POPC   PO450028  41.013  12.495   5.445
 3859POPC   GL150029  41.035  12.743   5.810
 3859POPC   GL250030  40.691  12.754   5.885
 3859POPC   C1A50031  40.981  12.760   6.291
 3859POPC   D2A50032  40.976  12.597   6.740
 3859POPC   C3A50033  41.059  12.940   7.052
 3859POPC   C4A50034  41.097  13.359   7.149
 3859POPC   C1B50035  40.439  12.751   6.277
 3859POPC   C2B50036  40.447  12.930   6.692
 3859POPC   C3B50037  40.587  12.803   7.084
 3859POPC   C4B50038  40.430  12.690   7.498
 3860POPC   NC350039  11.978   0.576   5.335
 3860POPC   PO450040  12.579   0.459   5.533
 3860POPC   GL150041  12.223   0.401   5.809
 3860POPC   GL250042  12.024   0.726   5.828
 3860POPC   C1A50043  12.135   0.180   6.210
 3860POPC   D2A50044  12.138  44.957   6.607
 3860POPC   C3A50045  12.046   0.200   6.952
 3860POPC   C4A50046  11.935   0.290   7.405
 3860POPC   C1B50047  12.203   0.685   6.239
 3860POPC   C2B50048  11.987   0.574   6.615
 3860POPC   C3B50049  12.013   0.694   7.058
 3860POPC   C4B50050  12.425   0.861   7.192
 3861POPC   NC350051  27.786   7.581   5.516
 3861POPC   PO450052  27.282   7.206   5.527
 3861POPC   GL150053  27.444   7.459   5.916
 3861POPC   GL250054  27.729   7.701   6.038
 3861POPC   C1A50055  27.291   7.585   6.331
 3861POPC   D2A50056  27.313   7.709   6.758
 3861POPC   C3A50057  27.496   7.509   7.076
 3861POPC   C4A50058  27.338   7.347   7.478
 3861POPC   C1B50059  27.782   7.579   6.502
 3861POPC   C2B50060  27.734   7.179   6.742
 3861POPC   C3B50061  27.693   7.062   7.185
 3861POPC   C4B50062  27.840   7.413   7.441
 3862POPC   NC350063  10.862  21.618   5.546
 3862POPC   PO450064  10.597  21.083   5.199
 3862POPC   GL150065  10.508  21.253   5.684
 3862POPC   GL250066  10.201  21.184   5.881
 3862POPC   C1A50067  10.636  21.247   6.158
 3862POPC   D2A50068  10.875  21.396   6.531
 3862POPC   C3A50069  10.763  21.298   6.947
 3862POPC   C4A50070  10.669  21.435   7.362
 3862POPC   C1B50071  10.282  21.601   6.041
 3862POPC   C2B50072  10.399  21.633   6.441
 3862POPC   C3B50073  10.373  21.613   6.851
 3862POPC   C4B50074  10.199  21.416   7.209
 3863POPC   NC350075   9.415  29.284   5.419
 3863POPC   PO450076   9.490  28.614   5.501
 3863POPC   GL150077   9.464  28.915   5.832
 3863POPC   GL250078   9.814  28.937   5.895
 3863POPC   C1A50079   9.517  29.231   6.196
 3863POPC   D2A50080   9.419  29.146   6.642
 3863POPC   C3A50081   9.472  29.463   6.985
 3863POPC   C4A50082   9.866  29.511   7.230
 3863POPC   C1B50083   9.688  28.731   6.318
 3863POPC   C2B50084   9.619  28.693   6.773
 3863POPC   C3B50085   9.559  28.978   7.117
 3863POPC   C4B50086   9.711  29.095   7.525
 3864POPC   NC350087  16.321   0.829   5.565
 3864POPC   PO450088  15.825   1.343   5.427
 3864POPC   GL150089  15.990   1.174   5.773
 3864POPC   GL250090  15.859   0.854   5.795
 3864POPC   C1A50091  15.778   1.295   6.146
 3864POPC   D2A50092  15.689   1.150   6.556
 3864POPC   C3A50093  15.899   1.296   6.923
 3864POPC   C4A50094  15.625   1.284   7.274
 3864POPC   C1B50095  16.033   0.857   6.243
 3864POPC   C2B50096  16.419   0.934   6.530
 3864POPC   C3B50097  16.363   1.042   6.938
 3864POPC   C4B50098  16.242   1.064   7.348
 3865POPC   NC350099  44.023  20.769   5.375
 3865POPC   PO450100  43.951  20.110   5.585
 3865POPC   GL150101  43.775  20.472   5.873
 3865POPC   GL250102  43.788  20.863   5.844
 3865POPC   C1A50103  43.904  20.580   6.318
 3865POPC   D2A50104  44.051  20.405   6.738
 3865POPC   C3A50105  44.099  20.583   7.170
 3865POPC   C4A50106  44.275  20.445   7.597
 3865POPC   C1B50107  43.614  21.005   6.245
 3865POPC   C2B50108  43.527  20.811   6.644
 3865POPC   C3B50109  43.629  20.866   7.083
 3865POPC   C4B50110  43.434  20.800   7.491
 3866POPC   NC350111   1.602   7.510   5.509
 3866POPC   PO450112   0.999   7.761   5.370
 3866POPC   GL150113   1.162   7.594   5.800
 3866POPC   GL250114   1.050   7.258   5.774
 3866POPC   C1A50115   1.193   7.751   6.277
 3866POPC   D2A50116   0.898   7.738   6.661
 3866POPC   C3A50117   1.070   7.569   7.049
 3866POPC   C4A50118   1.487   7.611   7.217
 3866POPC   C1B50119   0.959   7.326   6.227
 3866POPC   C2B50120   1.185   7.282   6.615
 3866POPC   C3B50121   1.378   7.140   6.985
 3866POPC   C4B50122   1.252   7.199   7.412
 3867POPC   NC350123  41.550  32.654   5.327
 3867POPC   PO450124  41.137  33.104   5.455
 3867POPC   GL150125  41.404  32.904   5.792
 3867POPC   GL250126  41.780  32.861   5.806
 3867POPC   C1A50127  41.468  33.056   6.224
 3867POPC   D2A50128  41.477  32.876   6.653
 3867POPC   C3A50129  41.428  33.094   7.065
 3867POPC   C4A50130  41.416  33.134   7.540
 3867POPC   C1B50131  41.704  32.619   6.216
 3867POPC   C2B50132  41.916  32.605   6.597
 3867POPC   C3B50133  41.879  32.805   6.982
 3867POPC   C4B50134  41.671  32.714   7.363
 3868POPC   NC350135  41.798   3.469   5.445
 3868POPC   PO450136  41.330   3.890   5.701
 3868POPC   GL150137  41.585   3.591   5.896
 3868POPC   GL250138  41.412   3.313   5.746
 3868POPC   C1A50139  41.758   3.241   6.173
 3868POPC   D2A50140  41.937   3.349   6.594
 3868POPC   C3A50141  41.731   3.246   6.987
 3868POPC   C4A50142  41.673   3.650   7.209
 3868POPC   C1B50143  41.248   3.325   6.173
 3868POPC   C2B50144  41.408   3.200   6.570
 3868POPC   C3B50145  41.194   3.268   6.936
 3868POPC   C4B50146  41.315   3.312   7.329
 3869POPC   NC350147  36.806   3.170   5.497
 3869POPC   PO450148  36.867   2.509   5.508
 3869POPC   GL150149  36.880   2.789   5.873
 3869POPC   GL250150  37.124   3.105   5.888
 3869POPC   C1A50151  36.792   2.529   6.237
 3869POPC   D2A50152  36.623   2.457   6.631
 3869POPC   C3A50153  36.732   2.847   6.809
 3869POPC   C4A50154  36.614   2.869   7.227
 3869POPC   C1B50155  37.083   2.963   6.330
 3869POPC   C2B50156  37.259   2.880   6.744
 3869POPC   C3B50157  37.084   3.014   7.142
 3869POPC   C4B50158  37.051   2.949   7.592
 3870POPC   NC350159   4.529  22.536   5.520
 3870POPC   PO450160   4.229  23.055   5.542
 3870POPC   GL150161   4.259  22.806   5.884
 3870POPC   GL250162   4.407  23.135   6.012
 3870POPC   C1A50163   4.428  22.728   6.298
 3870POPC   D2A50164   4.294  22.911   6.689
 3870POPC   C3A50165   4.478  22.777   7.007
 3870POPC   C4A50166   4.493  22.709   7.446
 3870POPC   C1B50167   4.227  23.273   6.361
 3870POPC   C2B50168   3.854  23.223   6.612
 3870POPC   C3B50169   3.814  23.013   6.989
 3870POPC   C4B50170   4.096  22.958   7.273
 3871POPC   NC350171  15.520  36.481   5.353
 3871POPC   PO450172  15.246  37.072   5.599
 3871POPC   GL150173  14.960  37.008   5.912
 3871POPC   GL250174  14.719  37.280   5.946
 3871POPC   C1A50175  15.066  36.932   6.345
 3871POPC   D2A50176  15.288  37.068   6.715
 3871POPC   C3A50177  15.454  36.691   6.905
 3871POPC   C4A50178  15.223  36.478   7.199
 3871POPC   C1B50179  14.684  37.310   6.402
 3871POPC   C2B50180  14.713  36.989   6.715
 3871POPC   C3B50181  14.926  36.878   7.093
 3871POPC   C4B50182  15.303  37.035   7.263
 3872POPC   NC350183  11.440   3.821   5.460
 3872POPC   PO450184  10.934   3.346   5.468
 3872POPC   GL150185  11.196   3.542   5.837
 3872POPC   GL250186  11.005   3.368   6.064
 3872POPC   C1A50187  11.537   3.639   6.211
 3872POPC   D2A50188  11.608   3.624   6.694
 3872POPC   C3A50189  11.329   3.633   7.067
 3872POPC   C4A50190  11.455   3.824   7.459
 3872POPC   C1B50191  11.165   3.403   6.465
 3872POPC   C2B50192  11.107   3.792   6.635
 3872POPC   C3B50193  10.844   3.880   6.971
 3872POPC   C4B50194  10.956   3.849   7.383
 3873POPC   NC350195  25.787  30.231   5.418
 3873POPC   PO450196  26.023  29.692   5.565
 3873POPC   GL150197  26.002  29.991   5.874
 3873POPC   GL250198  25.680  30.129   5.919
 3873POPC   C1A50199  26.201  29.885   6.259
 3873POPC   D2A50200  26.254  30.091   6.623
 3873POPC   C3A50201  26.240  29.858   6.976
 3873POPC   C4A50202  26.404  29.958   7.338
 3873POPC   C1B50203  25.703  29.976   6.343
 3873POPC   C2B50204  25.776  29.958   6.790
 3873POPC   C3B50205  25.813  29.889   7.246
 3873POPC   C4B50206  25.650  29.944   7.688
 3874POPC   NC350207  41.153   7.558   5.317
 3874POPC   PO450208  41.786   7.603   5.423
 3874POPC   GL150209  41.579   7.413   5.809
 3874POPC   GL250210  41.256   7.201   5.739
 3874POPC   C1A50211  41.640   7.580   6.249
 3874POPC   D2A50212  41.524   7.808   6.615
 3874POPC   C3A50213  41.523   7.583   6.984
 3874POPC   C4A50214  41.599   7.184   7.179
 3874POPC   C1B50215  41.176   7.397   6.132
 3874POPC   C2B50216  41.322   7.320   6.554
 3874POPC   C3B50217  41.136   7.247   6.937
 3874POPC   C4B50218  41.147   7.318   7.351
 3875POPC   NC350219  24.629  36.949   5.352
 3875POPC   PO450220  23.993  36.932   5.225
 3875POPC   GL150221  24.183  36.899   5.704
 3875POPC   GL250222  24.520  36.770   5.828
 3875POPC   C1A50223  24.179  36.835   6.205
 3875POPC   D2A50224  24.345  37.023   6.620
 3875POPC   C3A50225  24.359  36.933   7.079
 3875POPC   C4A50226  24.348  37.135   7.477
 3875POPC   C1B50227  24.673  37.046   6.180
 3875POPC   C2B50228  24.868  37.051   6.594
 3875POPC   C3B50229  24.844  36.785   6.965
 3875POPC   C4B50230  24.983  36.531   7.316
 3876POPC   NC350231  43.339  36.429   5.580
 3876POPC   PO450232  43.944  36.137   5.379
 3876POPC   GL150233  43.741  36.174   5.761
 3876POPC   GL250234  43.812  36.537   5.743
 3876POPC   C1A50235  43.670  36.320   6.185
 3876POPC   D2A50236  43.830  36.123   6.525
 3876POPC   C3A50237  43.542  36.068   6.852
 3876POPC   C4A50238  43.634  36.127   7.265
 3876POPC   C1B50239  43.884  36.772   6.114
 3876POPC   C2B50240  44.073  36.590   6.496
 3876POPC   C3B50241  44.044  36.745   6.931
 3876POPC   C4B50242  44.009  36.533   7.334
 3877POPC   NC350243   0.402   0.710   5.496
 3877POPC   PO450244   0.132   0.037   5.607
 3877POPC   GL150245   0.407   0.114   5.933
 3877POPC   GL250246   0.638   0.394   5.833
 3877POPC   C1A50247   0.288   0.228   6.355
 3877POPC   D2A50248   0.312   0.571   6.660
 3877POPC   C3A50249   0.234   0.465   7.087
 3877POPC   C4A50250   0.111   0.729   7.424
 3877POPC   C1B50251   0.685   0.550   6.264
 3877POPC   C2B50252   0.737   0.268   6.630
 3877POPC   C3B50253   0.781   0.362   7.059
 3877POPC   C4B50254   0.888   0.469   7.479
 3878POPC   NC350255  11.232  32.561   5.454
 3878POPC   PO450256  11.778  32.046   5.524
 3878POPC   GL150257  11.447  32.181   5.827
 3878POPC   GL250258  11.461  32.507   5.906
 3878POPC   C1A50259  11.112  32.307   6.187
 3878POPC   D2A50260  10.931  32.206   6.574
 3878POPC   C3A50261  11.069  32.364   6.927
 3878POPC   C4A50262  11.052  32.295   7.335
 3878POPC   C1B50263  11.615  32.267   6.279
 3878POPC   C2B50264  11.468  32.200   6.655
 3878POPC   C3B50265  11.557  32.263   7.057
 3878POPC   C4B50266  11.459  32.604   7.208
 3879POPC   NC350267  25.630   6.780   5.549
 3879POPC   PO450268  24.969   6.621   5.377
 3879POPC   GL150269  25.143   6.681   5.780
 3879POPC   GL250270  25.335   6.384   5.778
 3879POPC   C1A50271  25.174   6.872   6.183
 3879POPC   D2A50272  25.061   6.755   6.604
 3879POPC   C3A50273  25.366   6.746   6.958
 3879POPC   C4A50274  25.075   6.787   7.317
 3879POPC   C1B50275  25.198   6.367   6.247
 3879POPC   C2B50276  25.290   6.292   6.710
 3879POPC   C3B50277  25.258   6.304   7.179
 3879POPC   C4B50278  25.422   6.528   7.576
 3880POPC   NC350279  42.333  31.255   5.277
 3880POPC   PO450280  42.689  31.794   5.138
 3880POPC   GL150281  42.482  31.585   5.635
 3880POPC   GL250282  42.175  31.340   5.733
 3880POPC   C1A50283  42.470  31.557   6.112
 3880POPC   D2A50284  42.597  31.417   6.546
 3880POPC   C3A50285  42.315  31.610   6.855
 3880POPC   C4A50286  42.315  31.675   7.306
 3880POPC   C1B50287  42.069  31.116   6.071
 3880POPC   C2B50288  42.090  31.277   6.471
 3880POPC   C3B50289  42.098  31.135   6.860
 3880POPC   C4B50290  42.140  31.139   7.279
 3881POPC   NC350291  27.752  20.793   5.481
 3881POPC   PO450292  27.114  21.067   5.453
 3881POPC   GL150293  27.426  21.010   5.811
 3881POPC   GL250294  27.813  20.945   5.952
 3881POPC   C1A50295  27.377  20.844   6.199
 3881POPC   D2A50296  27.153  20.664   6.477
 3881POPC   C3A50297  27.348  20.705   6.825
 3881POPC   C4A50298  27.616  20.989   7.072
 3881POPC   C1B50299  27.838  20.645   6.264
 3881POPC   C2B50300  27.841  20.651   6.701
 3881POPC   C3B50301  27.732  20.482   7.075
 3881POPC   C4B50302  27.549  20.241   7.372
 3882POPC   NC350303  31.469   5.774   5.415
 3882POPC   PO450304  31.997   5.607   5.802
 3882POPC   GL150305  31.596   5.854   5.920
 3882POPC   GL250306  31.321   6.098   5.803
 3882POPC   C1A50307  31.402   5.872   6.329
 3882POPC   D2A50308  31.678   5.888   6.695
 3882POPC   C3A50309  31.440   5.786   7.059
 3882POPC   C4A50310  31.073   5.638   7.205
 3882POPC   C1B50311  31.323   6.352   6.210
 3882POPC   C2B50312  31.304   6.263   6.668
 3882POPC   C3B50313  31.599   6.266   7.040
 3882POPC   C4B50314  31.801   6.011   7.357
 3883POPC   NC350315  23.350   3.238   5.483
 3883POPC   PO450316  23.111   2.588   5.180
 3883POPC   GL150317  22.996   2.741   5.646
 3883POPC   GL250318  22.650   2.649   5.735
 3883POPC   C1A50319  23.026   2.664   6.126
 3883POPC   D2A50320  22.956   2.530   6.576
 3883POPC   C3A50321  22.754   2.844   6.843
 3883POPC   C4A50322  22.854   3.056   7.222
 3883POPC   C1B50323  22.490   2.729   6.158
 3883POPC   C2B50324  22.402   2.589   6.564
 3883POPC   C3B50325  22.563   2.350   6.890
 3883POPC   C4B50326  22.544   2.594   7.240
 3884POPC   NC350327  31.097   9.424   5.474
 3884POPC   PO450328  30.726   8.864   5.487
 3884POPC   GL150329  30.563   8.937   5.872
 3884POPC   GL250330  30.890   8.991   5.989
 3884POPC   C1A50331  30.565   8.725   6.277
 3884POPC   D2A50332  30.628   8.873   6.665
 3884POPC   C3A50333  30.626   8.628   6.984
 3884POPC   C4A50334  30.706   8.887   7.325
 3884POPC   C1B50335  30.589   9.235   6.275
 3884POPC   C2B50336  30.666   9.374   6.662
 3884POPC   C3B50337  30.551   9.319   7.115
 3884POPC   C4B50338  30.608   9.346   7.591
 3885POPC   NC350339  35.232  12.004   5.448
 3885POPC   PO450340  35.789  12.407   5.561
 3885POPC   GL150341  35.725  12.175   5.955
 3885POPC   GL250342  35.482  11.892   5.876
 3885POPC   C1A50343  35.360  12.213   6.276
 3885POPC   D2A50344  35.090  12.166   6.672
 3885POPC   C3A50345  35.312  12.352   7.027
 3885POPC   C4A50346  35.426  12.265   7.446
 3885POPC   C1B50347  35.635  11.771   6.266
 3885POPC   C2B50348  35.584  11.965   6.688
 3885POPC   C3B50349  35.685  11.963   7.131
 3885POPC   C4B50350  35.682  11.834   7.581
 3886POPC   NC350351  42.622  36.464   5.419
 3886POPC   PO450352  42.097  36.849   5.158
 3886POPC   GL150353  42.097  36.858   5.652
 3886POPC   GL250354  42.450  36.845   5.779
 3886POPC   C1A50355  42.067  36.924   6.142
 3886POPC   D2A50356  42.311  36.924   6.565
 3886POPC   C3A50357  42.117  36.872   6.977
 3886POPC   C4A50358  42.132  36.874   7.451
 3886POPC   C1B50359  42.591  37.078   6.153
 3886POPC   C2B50360  42.748  37.193   6.558
 3886POPC   C3B50361  42.665  37.013   6.942
 3886POPC   C4B50362  42.437  37.197   7.232
 3887POPC   NC350363  40.220  30.180   5.620
 3887POPC   PO450364  40.283  30.777   5.258
 3887POPC   GL150365  40.021  30.702   5.676
 3887POPC   GL250366  40.314  30.622   5.816
 3887POPC   C1A50367  39.878  30.661   6.145
 3887POPC   D2A50368  40.120  30.487   6.507
 3887POPC   C3A50369  40.028  30.629   6.861
 3887POPC   C4A50370  39.873  30.628   7.230
 3887POPC   C1B50371  40.353  30.803   6.178
 3887POPC   C2B50372  40.182  31.025   6.511
 3887POPC   C3B50373  40.341  31.041   6.909
 3887POPC   C4B50374  40.409  30.729   7.207
 3888POPC   NC350375  43.744  26.101   5.658
 3888POPC   PO450376  44.168  26.568   5.373
 3888POPC   GL150377  44.297  26.306   5.748
 3888POPC   GL250378  44.207  26.009   5.877
 3888POPC   C1A50379  44.178  26.371   6.240
 3888POPC   D2A50380  43.925  26.250   6.596
 3888POPC   C3A50381  43.993  26.407   7.016
 3888POPC   C4A50382  43.644  26.395   7.280
 3888POPC   C1B50383  44.036  25.876   6.251
 3888POPC   C2B50384  43.849  25.742   6.620
 3888POPC   C3B50385  43.786  25.928   7.002
 3888POPC   C4B50386  44.170  25.783   7.118
 3889POPC   NC350387  32.408   1.691   4.937
 3889POPC   PO450388  32.170   1.858   5.547
 3889POPC   GL150389  32.265   1.997   5.960
 3889POPC   GL250390  32.467   1.704   6.018
 3889POPC   C1A50391  32.273   1.980   6.437
 3889POPC   D2A50392  32.521   1.822   6.789
 3889POPC   C3A50393  32.375   1.895   7.220
 3889POPC   C4A50394  32.506   2.129   7.565
 3889POPC   C1B50395  32.027   1.588   6.154
 3889POPC   C2B50396  31.879   1.571   6.549
 3889POPC   C3B50397  32.001   1.809   6.874
 3889POPC   C4B50398  31.792   1.905   7.207
 3890POPC   NC350399   4.658  16.027   5.630
 3890POPC   PO450400   4.057  15.823   5.514
 3890POPC   GL150401   4.230  15.936   5.885
 3890POPC   GL250402   3.975  16.064   5.997
 3890POPC   C1A50403   4.363  16.038   6.308
 3890POPC   D2A50404   4.459  15.852   6.670
 3890POPC   C3A50405   4.298  16.133   6.955
 3890POPC   C4A50406   4.070  16.138   7.295
 3890POPC   C1B50407   3.951  15.689   6.263
 3890POPC   C2B50408   3.980  15.524   6.667
 3890POPC   C3B50409   3.964  15.687   7.081
 3890POPC   C4B50410   4.131  15.670   7.505
 3891POPC   NC350411  35.415  24.155   5.249
 3891POPC   PO450412  35.986  23.626   5.383
 3891POPC   GL150413  36.006  23.716   5.805
 3891POPC   GL250414  35.777  23.974   5.881
 3891POPC   C1A50415  36.211  23.991   6.126
 3891POPC   D2A50416  36.374  24.052   6.533
 3891POPC   C3A50417  36.108  23.881   6.823
 3891POPC   C4A50418  36.126  23.598   7.112
 3891POPC   C1B50419  35.801  23.652   6.252
 3891POPC   C2B50420  35.658  23.698   6.669
 3891POPC   C3B50421  35.610  23.557   7.083
 3891POPC   C4B50422  35.842  23.236   7.281
 3892POPC   NC350423  21.971  30.649   5.476
 3892POPC   PO450424  22.606  30.539   5.710
 3892POPC   GL150425  22.244  30.698   5.889
 3892POPC   GL250426  22.094  30.371   5.876
 3892POPC   C1A50427  22.155  30.978   6.211
 3892POPC   D2A50428  22.401  30.927   6.587
 3892POPC   C3A50429  22.408  30.537   6.794
 3892POPC   C4A50430  22.311  30.609   7.206
 3892POPC   C1B50431  21.866  30.491   6.202
 3892POPC   C2B50432  21.923  30.697   6.582
 3892POPC   C3B50433  21.915  30.501   6.933
 3892POPC   C4B50434  21.802  30.508   7.346
 3893POPC   NC350435  29.341  30.344   5.451
 3893POPC   PO450436  29.172  29.662   5.364
 3893POPC   GL150437  29.314  29.903   5.733
 3893POPC   GL250438  28.984  30.007   5.844
 3893POPC   C1A50439  29.355  29.899   6.195
 3893POPC   D2A50440  29.118  29.926   6.576
 3893POPC   C3A50441  29.186  29.710   6.959
 3893POPC   C4A50442  29.209  30.005   7.286
 3893POPC   C1B50443  28.739  29.859   6.222
 3893POPC   C2B50444  28.665  29.741   6.669
 3893POPC   C3B50445  28.790  30.036   6.984
 3893POPC   C4B50446  28.691  30.036   7.416
 3894POPC   NC350447  40.164  21.985   5.320
 3894POPC   PO450448  39.622  22.307   5.280
 3894POPC   GL150449  39.877  22.210   5.686
 3894POPC   GL250450  40.157  22.419   5.631
 3894POPC   C1A50451  40.087  21.995   6.100
 3894POPC   D2A50452  40.252  21.982   6.594
 3894POPC   C3A50453  40.010  22.046   6.997
 3894POPC   C4A50454  39.803  22.243   7.381
 3894POPC   C1B50455  40.267  22.475   6.035
 3894POPC   C2B50456  40.244  22.516   6.464
 3894POPC   C3B50457  40.387  22.461   6.871
 3894POPC   C4B50458  40.256  22.407   7.273
 3895POPC   NC350459   7.954  40.732   5.397
 3895POPC   PO450460   8.468  40.895   5.780
 3895POPC   GL150461   8.234  40.582   5.959
 3895POPC   GL250462   7.930  40.470   5.825
 3895POPC   C1A50463   8.134  40.737   6.367
 3895POPC   D2A50464   8.350  40.981   6.692
 3895POPC   C3A50465   8.185  40.869   7.087
 3895POPC   C4A50466   8.180  40.851   7.519
 3895POPC   C1B50467   7.822  40.340   6.233
 3895POPC   C2B50468   7.817  40.440   6.656
 3895POPC   C3B50469   7.807  40.174   6.994
 3895POPC   C4B50470   8.068  40.345   7.339
 3896POPC   NC350471   6.172  12.888   5.235
 3896POPC   PO450472   6.742  12.931   5.473
 3896POPC   GL150473   6.595  12.973   5.862
 3896POPC   GL250474   6.294  12.840   5.748
 3896POPC   C1A50475   6.801  12.863   6.229
 3896POPC   D2A50476   6.946  12.739   6.617
 3896POPC   C3A50477   6.746  13.000   6.911
 3896POPC   C4A50478   6.729  12.798   7.277
 3896POPC   C1B50479   6.324  12.643   6.157
 3896POPC   C2B50480   6.392  12.824   6.555
 3896POPC   C3B50481   6.317  12.674   6.979
 3896POPC   C4B50482   6.243  12.937   7.361
 3897POPC   NC350483  16.445  15.826   5.544
 3897POPC   PO450484  16.882  16.262   5.423
 3897POPC   GL150485  16.714  16.172   5.841
 3897POPC   GL250486  16.582  16.499   5.902
 3897POPC   C1A50487  16.641  16.010   6.288
 3897POPC   D2A50488  16.587  16.069   6.732
 3897POPC   C3A50489  16.634  15.729   7.001
 3897POPC   C4A50490  16.823  15.751   7.385
 3897POPC   C1B50491  16.870  16.461   6.238
 3897POPC   C2B50492  17.056  16.317   6.615
 3897POPC   C3B50493  16.991  16.456   7.043
 3897POPC   C4B50494  17.010  16.441   7.510
 3898POPC   NC350495  13.418  38.549   5.475
 3898POPC   PO450496  13.964  38.865   5.461
 3898POPC   GL150497  13.795  38.598   5.843
 3898POPC   GL250498  13.558  38.285   5.892
 3898POPC   C1A50499  13.821  38.444   6.285
 3898POPC   D2A50500  13.814  38.504   6.712
 3898POPC   C3A50501  13.873  38.248   7.014
 3898POPC   C4A50502  13.563  38.398   7.237
 3898POPC   C1B50503  13.379  38.131   6.310
 3898POPC   C2B50504  13.389  38.131   6.794
 3898POPC   C3B50505  13.141  38.141   7.204
 3898POPC   C4B50506  13.271  38.206   7.639
 3899POPC   NC350507   8.147   9.222   5.456
 3899POPC   PO450508   8.151   8.557   5.550
 3899POPC   GL150509   8.283   8.828   5.879
 3899POPC   GL250510   8.063   9.115   5.946
 3899POPC   C1A50511   8.265   8.800   6.334
 3899POPC   D2A50512   8.082   9.146   6.552
 3899POPC   C3A50513   8.152   9.157   7.004
 3899POPC   C4A50514   8.389   9.392   7.309
 3899POPC   C1B50515   7.806   8.745   6.104
 3899POPC   C2B50516   7.809   8.593   6.508
 3899POPC   C3B50517   7.728   8.548   6.941
 3899POPC   C4B50518   7.998   8.729   7.259
 3900POPC   NC350519  21.973   4.410   5.477
 3900POPC   PO450520  22.630   4.150   5.646
 3900POPC   GL150521  22.255   4.186   5.857
 3900POPC   GL250522  22.170   4.539   5.920
 3900POPC   C1A50523  21.994   4.012   6.156
 3900POPC   D2A50524  21.952   4.044   6.595
 3900POPC   C3A50525  22.336   4.076   6.792
 3900POPC   C4A50526  22.442   4.087   7.207
 3900POPC   C1B50527  22.204   4.686   6.333
 3900POPC   C2B50528  22.036   4.527   6.701
 3900POPC   C3B50529  21.970   4.326   7.062
 3900POPC   C4B50530  22.246   4.561   7.277
 3901POPC   NC350531  11.788  40.202   5.402
 3901POPC   PO450532  11.727  39.688   5.809
 3901POPC   GL150533  11.983  40.046   5.912
 3901POPC   GL250534  11.890  40.388   5.870
 3901POPC   C1A50535  12.243  40.097   6.269
 3901POPC   D2A50536  12.376  39.997   6.695
 3901POPC   C3A50537  12.047  39.842   6.916
 3901POPC   C4A50538  12.012  39.681   7.310
 3901POPC   C1B50539  11.739  40.305   6.277
 3901POPC   C2B50540  11.926  40.280   6.638
 3901POPC   C3B50541  12.066  40.375   7.010
 3901POPC   C4B50542  11.838  40.166   7.318
 3902POPC   NC350543   9.907  37.229   5.621
 3902POPC   PO450544   9.799  37.779   5.264
 3902POPC   GL150545   9.721  37.712   5.708
 3902POPC   GL250546   9.951  37.919   5.875
 3902POPC   C1A50547   9.492  37.659   6.121
 3902POPC   D2A50548   9.478  37.574   6.571
 3902POPC   C3A50549   9.694  37.867   6.859
 3902POPC   C4A50550   9.681  37.864   7.323
 3902POPC   C1B50551   9.992  37.558   6.182
 3902POPC   C2B50552  10.011  37.463   6.625
 3902POPC   C3B50553  10.079  37.586   7.062
 3902POPC   C4B50554  10.052  37.533   7.521
 3903POPC   NC350555   5.071   9.964   5.638
 3903POPC   PO450556   5.121  10.624   5.487
 3903POPC   GL150557   5.208  10.439   5.872
 3903POPC   GL250558   4.881  10.305   5.943
 3903POPC   C1A50559   5.119  10.690   6.251
 3903POPC   D2A50560   4.948  10.714   6.663
 3903POPC   C3A50561   5.015  10.334   6.789
 3903POPC   C4A50562   5.341  10.208   7.068
 3903POPC   C1B50563   4.701  10.352   6.339
 3903POPC   C2B50564   4.521  10.128   6.680
 3903POPC   C3B50565   4.568  10.297   7.081
 3903POPC   C4B50566   4.868  10.580   7.197
 3904POPC   NC350567  41.801  13.420   5.382
 3904POPC   PO450568  41.162  13.239   5.271
 3904POPC   GL150569  41.377  13.480   5.697
 3904POPC   GL250570  41.672  13.753   5.764
 3904POPC   C1A50571  41.454  13.550   6.181
 3904POPC   D2A50572  41.298  13.477   6.629
 3904POPC   C3A50573  41.517  13.628   7.003
 3904POPC   C4A50574  41.543  13.462   7.438
 3904POPC   C1B50575  41.936  13.764   6.184
 3904POPC   C2B50576  41.904  13.694   6.657
 3904POPC   C3B50577  42.004  13.736   7.115
 3904POPC   C4B50578  41.937  13.748   7.603
 3905POPC   NC350579  33.579  36.376   5.349
 3905POPC   PO450580  33.465  35.753   5.403
 3905POPC   GL150581  33.649  36.049   5.784
 3905POPC   GL250582  33.761  36.420   5.809
 3905POPC   C1A50583  33.934  36.177   6.203
 3905POPC   D2A50584  33.983  36.367   6.627
 3905POPC   C3A50585  34.021  36.086   6.980
 3905POPC   C4A50586  33.736  35.938   7.289
 3905POPC   C1B50587  33.456  36.379   6.136
 3905POPC   C2B50588  33.292  36.322   6.552
 3905POPC   C3B50589  33.513  36.277   6.943
 3905POPC   C4B50590  33.792  36.451   7.246
 3906POPC   NC350591  24.994  36.191   5.618
 3906POPC   PO450592  24.443  36.053   5.393
 3906POPC   GL150593  24.518  36.007   5.819
 3906POPC   GL250594  24.786  35.811   5.908
 3906POPC   C1A50595  24.612  36.273   6.164
 3906POPC   D2A50596  24.777  36.533   6.495
 3906POPC   C3A50597  24.426  36.523   6.769
 3906POPC   C4A50598  24.361  36.425   7.189
 3906POPC   C1B50599  24.525  35.677   6.258
 3906POPC   C2B50600  24.516  35.629   6.713
 3906POPC   C3B50601  24.678  35.682   7.078
 3906POPC   C4B50602  24.521  35.974   7.359
 3907POPC   NC350603  27.070  14.300   5.525
 3907POPC   PO450604  26.448  14.469   5.357
 3907POPC   GL150605  26.635  14.433   5.774
 3907POPC   GL250606  26.331  14.556   5.881
 3907POPC   C1A50607  26.915  14.318   6.158
 3907POPC   D2A50608  27.089  14.154   6.537
 3907POPC   C3A50609  26.991  14.345   6.921
 3907POPC   C4A50610  26.974  14.060   7.216
 3907POPC   C1B50611  26.389  14.341   6.218
 3907POPC   C2B50612  26.574  14.296   6.603
 3907POPC   C3B50613  26.491  14.137   6.981
 3907POPC   C4B50614  26.549  14.437   7.257
 3908POPC   NC350615  26.595  15.156   5.282
 3908POPC   PO450616  27.208  15.025   5.136
 3908POPC   GL150617  26.963  15.155   5.631
 3908POPC   GL250618  26.661  14.960   5.763
 3908POPC   C1A50619  26.893  15.263   6.122
 3908POPC   D2A50620  26.573  15.201   6.492
 3908POPC   C3A50621  26.669  15.259   6.942
 3908POPC   C4A50622  27.006  15.333   7.215
 3908POPC   C1B50623  26.716  14.777   6.196
 3908POPC   C2B50624  26.856  14.767   6.642
 3908POPC   C3B50625  26.924  14.827   7.106
 3908POPC   C4B50626  26.799  14.937   7.536
 3909POPC   NC350627  17.103  23.213   5.488
 3909POPC   PO450628  16.607  22.812   5.222
 3909POPC   GL150629  16.718  22.892   5.698
 3909POPC   GL250630  17.075  22.786   5.760
 3909POPC   C1A50631  16.534  22.995   6.150
 3909POPC   D2A50632  16.309  22.750   6.484
 3909POPC   C3A50633  16.451  22.707   6.907
 3909POPC   C4A50634  16.570  22.850   7.307
 3909POPC   C1B50635  17.064  22.941   6.176
 3909POPC   C2B50636  16.854  22.840   6.564
 3909POPC   C3B50637  16.823  23.060   6.935
 3909POPC   C4B50638  17.041  23.120   7.312
 3910POPC   NC350639   6.188   5.677   5.567
 3910POPC   PO450640   5.514   5.729   5.275
 3910POPC   GL150641   5.681   5.759   5.741
 3910POPC   GL250642   5.506   5.543   5.962
 3910POPC   C1A50643   5.905   5.875   6.173
 3910POPC   D2A50644   6.008   5.773   6.663
 3910POPC   C3A50645   6.172   5.946   7.082
 3910POPC   C4A50646   6.045   5.991   7.560
 3910POPC   C1B50647   5.669   5.460   6.383
 3910POPC   C2B50648   5.577   5.558   6.816
 3910POPC   C3B50649   5.679   5.844   7.140
 3910POPC   C4B50650   5.606   5.704   7.558
 3911POPC   NC350651  17.083  24.714   5.339
 3911POPC   PO450652  16.440  24.396   5.352
 3911POPC   GL150653  16.727  24.325   5.701
 3911POPC   GL250654  16.482  24.194   5.936
 3911POPC   C1A50655  16.926  24.414   6.097
 3911POPC   D2A50656  16.925  24.679   6.469
 3911POPC   C3A50657  16.870  24.415   6.827
 3911POPC   C4A50658  16.931  24.553   7.213
 3911POPC   C1B50659  16.494  24.266   6.399
 3911POPC   C2B50660  16.430  24.625   6.688
 3911POPC   C3B50661  16.429  24.654   7.142
 3911POPC   C4B50662  16.546  24.306   7.398
 3912POPC   NC350663   6.410  26.183   5.190
 3912POPC   PO450664   6.900  26.151   5.664
 3912POPC   GL150665   6.730  25.892   5.959
 3912POPC   GL250666   6.359  25.841   6.000
 3912POPC   C1A50667   6.662  26.143   6.319
 3912POPC   D2A50668   6.438  26.126   6.642
 3912POPC   C3A50669   6.592  26.134   7.028
 3912POPC   C4A50670   6.262  26.161   7.277
 3912POPC   C1B50671   6.502  25.650   6.372
 3912POPC   C2B50672   6.871  25.657   6.602
 3912POPC   C3B50673   6.803  25.654   7.006
 3912POPC   C4B50674   6.456  25.684   7.256
 3913POPC   NC350675   6.881  14.230   5.499
 3913POPC   PO450676   6.484  14.752   5.568
 3913POPC   GL150677   6.632  14.497   5.898
 3913POPC   GL250678   6.384  14.254   5.829
 3913POPC   C1A50679   6.904  14.602   6.275
 3913POPC   D2A50680   6.952  14.488   6.733
 3913POPC   C3A50681   6.786  14.684   7.150
 3913POPC   C4A50682   7.001  14.536   7.571
 3913POPC   C1B50683   6.270  14.331   6.251
 3913POPC   C2B50684   6.145  14.333   6.677
 3913POPC   C3B50685   6.516  14.276   6.923
 3913POPC   C4B50686   6.646  14.226   7.357
 3914POPC   NC350687  31.259  34.433   5.517
 3914POPC   PO450688  31.867  34.478   5.415
 3914POPC   GL150689  31.759  34.722   5.791
 3914POPC   GL250690  31.500  34.509   5.967
 3914POPC   C1A50691  31.727  34.882   6.217
 3914POPC   D2A50692  31.510  34.623   6.520
 3914POPC   C3A50693  31.576  34.735   6.955
 3914POPC   C4A50694  31.695  34.374   7.171
 3914POPC   C1B50695  31.228  34.281   6.250
 3914POPC   C2B50696  31.222  34.139   6.679
 3914POPC   C3B50697  31.184  34.364   7.094
 3914POPC   C4B50698  31.077  34.322   7.557
 3915POPC   NC350699  23.434  18.080   5.527
 3915POPC   PO450700  23.993  18.488   5.518
 3915POPC   GL150701  23.758  18.281   5.888
 3915POPC   GL250702  23.461  18.448   5.979
 3915POPC   C1A50703  23.608  18.048   6.310
 3915POPC   D2A50704  23.683  18.222   6.752
 3915POPC   C3A50705  23.599  18.335   7.158
 3915POPC   C4A50706  23.611  18.152   7.565
 3915POPC   C1B50707  23.795  18.506   6.332
 3915POPC   C2B50708  24.078  18.543   6.697
 3915POPC   C3B50709  24.118  18.449   7.123
 3915POPC   C4B50710  23.896  18.587   7.490
 3916POPC   NC350711   3.117  40.686   5.359
 3916POPC   PO450712   2.563  41.192   5.371
 3916POPC   GL150713   2.548  40.985   5.754
 3916POPC   GL250714   2.891  40.851   5.791
 3916POPC   C1A50715   2.549  40.816   6.163
 3916POPC   D2A50716   2.770  40.690   6.523
 3916POPC   C3A50717   2.586  40.874   6.891
 3916POPC   C4A50718   2.408  40.874   7.269
 3916POPC   C1B50719   3.118  40.885   6.194
 3916POPC   C2B50720   3.271  40.952   6.605
 3916POPC   C3B50721   3.076  40.765   6.947
 3916POPC   C4B50722   2.952  40.843   7.341
 3917POPC   NC350723  10.780  33.960   5.537
 3917POPC   PO450724  10.467  33.404   5.435
 3917POPC   GL150725  10.483  33.654   5.827
 3917POPC   GL250726  10.332  33.983   5.839
 3917POPC   C1A50727  10.649  33.792   6.240
 3917POPC   D2A50728  10.620  33.570   6.641
 3917POPC   C3A50729  10.650  33.771   7.048
 3917POPC   C4A50730  10.857  33.814   7.465
 3917POPC   C1B50731  10.229  34.092   6.238
 3917POPC   C2B50732  10.172  33.877   6.647
 3917POPC   C3B50733  10.204  33.996   7.067
 3917POPC   C4B50734  10.303  33.752   7.428
 3918POPC   NC350735  10.854  11.911   5.466
 3918POPC   PO450736  11.442  12.131   5.215
 3918POPC   GL150737  11.424  12.017   5.657
 3918POPC   GL250738  11.185  12.193   5.773
 3918POPC   C1A50739  11.499  12.051   6.127
 3918POPC   D2A50740  11.372  12.255   6.518
 3918POPC   C3A50741  11.292  11.949   6.865
 3918POPC   C4A50742  11.448  11.833   7.257
 3918POPC   C1B50743  10.997  12.117   6.170
 3918POPC   C2B50744  10.892  12.105   6.600
 3918POPC   C3B50745  10.891  12.221   7.027
 3918POPC   C4B50746  10.947  11.907   7.336
 3919POPC   NC350747   3.009  18.470   5.386
 3919POPC   PO450748   2.590  18.027   5.379
 3919POPC   GL150749   2.721  18.269   5.747
 3919POPC   GL250750   3.021  18.096   5.841
 3919POPC   C1A50751   2.647  18.264   6.182
 3919POPC   D2A50752   2.587  18.244   6.622
 3919POPC   C3A50753   2.890  18.372   6.927
 3919POPC   C4A50754   2.791  18.205   7.308
 3919POPC   C1B50755   2.982  17.861   6.243
 3919POPC   C2B50756   3.045  17.929   6.697
 3919POPC   C3B50757   3.097  17.823   7.136
 3919POPC   C4B50758   3.056  17.893   7.602
 3920POPC   NC350759  21.175  29.163   5.398
 3920POPC   PO450760  21.827  29.249   5.357
 3920POPC   GL150761  21.554  29.294   5.774
 3920POPC   GL250762  21.199  29.438   5.825
 3920POPC   C1A50763  21.595  29.227   6.260
 3920POPC   D2A50764  21.749  29.279   6.708
 3920POPC   C3A50765  21.547  29.060   7.057
 3920POPC   C4A50766  21.114  28.972   7.177
 3920POPC   C1B50767  21.085  29.351   6.257
 3920POPC   C2B50768  21.220  29.231   6.680
 3920POPC   C3B50769  21.223  29.452   7.081
 3920POPC   C4B50770  21.222  29.530   7.534
 3921POPC   NC350771  34.429  16.403   5.480
 3921POPC   PO450772  34.529  17.027   5.491
 3921POPC   GL150773  34.659  16.763   5.813
 3921POPC   GL250774  34.938  16.997   5.830
 3921POPC   C1A50775  34.487  16.612   6.204
 3921POPC   D2A50776  34.268  16.812   6.594
 3921POPC   C3A50777  34.521  16.803   6.989
 3921POPC   C4A50778  34.708  16.472   7.242
 3921POPC   C1B50779  34.973  16.845   6.227
 3921POPC   C2B50780  34.814  16.729   6.577
 3921POPC   C3B50781  35.016  16.746   6.917
 3921POPC   C4B50782  35.042  16.856   7.305
 3922POPC   NC350783  42.095  11.620   5.414
 3922POPC   PO450784  42.542  12.145   5.258
 3922POPC   GL150785  42.351  12.004   5.687
 3922POPC   GL250786  42.209  12.293   5.808
 3922POPC   C1A50787  42.267  11.925   6.171
 3922POPC   D2A50788  42.413  12.057   6.595
 3922POPC   C3A50789  42.268  11.946   7.012
 3922POPC   C4A50790  42.263  11.782   7.450
 3922POPC   C1B50791  42.375  12.461   6.180
 3922POPC   C2B50792  42.240  12.549   6.583
 3922POPC   C3B50793  42.383  12.438   6.985
 3922POPC   C4B50794  42.295  12.283   7.401
 3923POPC   NC350795   1.907  27.115   5.412
 3923POPC   PO450796   2.349  26.599   5.532
 3923POPC   GL150797   2.012  26.754   5.810
 3923POPC   GL250798   2.128  27.029   5.966
 3923POPC   C1A50799   1.769  26.718   6.235
 3923POPC   D2A50800   1.718  26.439   6.614
 3923POPC   C3A50801   1.787  26.655   7.007
 3923POPC   C4A50802   1.464  26.768   7.250
 3923POPC   C1B50803   2.304  26.756   6.265
 3923POPC   C2B50804   2.189  26.689   6.688
 3923POPC   C3B50805   2.312  26.616   7.107
 3923POPC   C4B50806   2.107  26.854   7.424
 3924POPC   NC350807  13.928  21.969   5.114
 3924POPC   PO450808  13.536  21.976   5.618
 3924POPC   GL150809  13.545  22.320   5.881
 3924POPC   GL250810  13.929  22.316   5.886
 3924POPC   C1A50811  13.283  22.378   6.260
 3924POPC   D2A50812  13.373  22.413   6.690
 3924POPC   C3A50813  13.348  22.093   6.996
 3924POPC   C4A50814  13.596  21.914   7.357
 3924POPC   C1B50815  13.790  22.274   6.332
 3924POPC   C2B50816  13.834  22.165   6.776
 3924POPC   C3B50817  13.736  22.403   7.132
 3924POPC   C4B50818  13.962  22.461   7.526
 3925POPC   NC350819   7.218  10.306   5.484
 3925POPC   PO450820   7.646  10.593   5.134
 3925POPC   GL150821   7.627  10.565   5.649
 3925POPC   GL250822   7.289  10.744   5.746
 3925POPC   C1A50823   7.639  10.445   6.119
 3925POPC   D2A50824   7.448  10.256   6.512
 3925POPC   C3A50825   7.414  10.421   6.925
 3925POPC   C4A50826   7.655  10.399   7.275
 3925POPC   C1B50827   7.257  10.768   6.198
 3925POPC   C2B50828   7.579  10.764   6.548
 3925POPC   C3B50829   7.592  10.900   6.976
 3925POPC   C4B50830   7.310  10.805   7.347
 3926POPC   NC350831   6.512   9.281   5.525
 3926POPC   PO450832   6.951   8.753   5.547
 3926POPC   GL150833   6.731   8.875   5.859
 3926POPC   GL250834   6.424   8.725   5.720
 3926POPC   C1A50835   6.856   8.950   6.288
 3926POPC   D2A50836   6.671   9.153   6.633
 3926POPC   C3A50837   6.819   9.089   6.980
 3926POPC   C4A50838   6.567   9.128   7.384
 3926POPC   C1B50839   6.332   8.792   6.165
 3926POPC   C2B50840   6.234   8.922   6.576
 3926POPC   C3B50841   6.395   8.801   6.960
 3926POPC   C4B50842   6.346   8.651   7.346
 3927POPC   NC350843  21.882  43.393   5.393
 3927POPC   PO450844  22.340  42.914   5.605
 3927POPC   GL150845  22.278  43.113   5.973
 3927POPC   GL250846  21.985  43.281   5.901
 3927POPC   C1A50847  22.450  43.384   6.269
 3927POPC   D2A50848  22.510  43.513   6.696
 3927POPC   C3A50849  22.321  43.194   6.993
 3927POPC   C4A50850  22.430  42.981   7.353
 3927POPC   C1B50851  21.756  43.150   6.276
 3927POPC   C2B50852  21.585  43.184   6.671
 3927POPC   C3B50853  21.764  43.203   7.057
 3927POPC   C4B50854  21.933  43.001   7.388
 3928POPC   NC350855   4.586  24.311   5.509
 3928POPC   PO450856   4.087  24.702   5.489
 3928POPC   GL150857   4.198  24.616   5.876
 3928POPC   GL250858   4.121  24.289   5.868
 3928POPC   C1A50859   4.385  24.758   6.243
 3928POPC   D2A50860   4.231  24.577   6.583
 3928POPC   C3A50861   4.237  24.790   6.961
 3928POPC   C4A50862   4.274  24.688   7.377
 3928POPC   C1B50863   4.450  24.238   6.165
 3928POPC   C2B50864   4.515  24.124   6.587
 3928POPC   C3B50865   4.446  24.329   6.970
 3928POPC   C4B50866   4.579  24.235   7.335
 3929POPC   NC350867   8.834  13.110   5.490
 3929POPC   PO450868   9.123  12.467   5.528
 3929POPC   GL150869   9.122  12.753   5.912
 3929POPC   GL250870   8.861  13.020   5.984
 3929POPC   C1A50871   8.977  12.679   6.320
 3929POPC   D2A50872   8.818  12.970   6.650
 3929POPC   C3A50873   8.908  12.785   7.060
 3929POPC   C4A50874   9.151  12.708   7.463
 3929POPC   C1B50875   9.255  13.129   6.264
 3929POPC   C2B50876   9.442  13.201   6.707
 3929POPC   C3B50877   9.181  13.226   7.049
 3929POPC   C4B50878   8.791  13.336   7.107
 3930POPC   NC350879  12.435  33.800   5.067
 3930POPC   PO450880  11.977  33.797   5.581
 3930POPC   GL150881  12.134  33.837   5.950
 3930POPC   GL250882  12.172  33.502   5.970
 3930POPC   C1A50883  12.126  33.959   6.336
 3930POPC   D2A50884  11.978  33.585   6.522
 3930POPC   C3A50885  11.867  33.586   6.918
 3930POPC   C4A50886  11.939  33.756   7.302
 3930POPC   C1B50887  12.449  33.540   6.297
 3930POPC   C2B50888  12.429  33.780   6.707
 3930POPC   C3B50889  12.414  33.847   7.142
 3930POPC   C4B50890  12.547  34.125   7.482
 3931POPC   NC350891   1.146  41.190   5.496
 3931POPC   PO450892   1.331  40.516   5.418
 3931POPC   GL150893   1.210  40.760   5.806
 3931POPC   GL250894   1.502  40.728   6.026
 3931POPC   C1A50895   0.990  40.915   6.198
 3931POPC   D2A50896   1.051  40.771   6.630
 3931POPC   C3A50897   1.061  40.941   7.050
 3931POPC   C4A50898   1.093  40.676   7.443
 3931POPC   C1B50899   1.424  41.179   6.178
 3931POPC   C2B50900   1.388  41.364   6.591
 3931POPC   C3B50901   1.515  41.227   6.996
 3931POPC   C4B50902   1.382  41.093   7.420
 3932POPC   NC350903  43.460  17.913   5.441
 3932POPC   PO450904  42.955  18.489   5.444
 3932POPC   GL150905  43.005  18.150   5.742
 3932POPC   GL250906  43.179  18.367   5.937
 3932POPC   C1A50907  42.918  18.025   6.188
 3932POPC   D2A50908  43.097  18.281   6.548
 3932POPC   C3A50909  43.102  18.149   7.000
 3932POPC   C4A50910  42.956  18.158   7.432
 3932POPC   C1B50911  43.396  18.610   6.234
 3932POPC   C2B50912  43.588  18.506   6.610
 3932POPC   C3B50913  43.432  18.590   6.999
 3932POPC   C4B50914  43.415  18.363   7.381
 3933POPC   NC350915  28.256  16.258   5.699
 3933POPC   PO450916  28.196  15.787   5.217
 3933POPC   GL150917  28.247  15.751   5.670
 3933POPC   GL250918  28.570  15.827   5.789
 3933POPC   C1A50919  28.204  15.787   6.159
 3933POPC   D2A50920  28.259  16.173   6.449
 3933POPC   C3A50921  28.244  16.122   6.902
 3933POPC   C4A50922  28.242  15.754   7.206
 3933POPC   C1B50923  28.704  16.011   6.224
 3933POPC   C2B50924  28.840  15.907   6.674
 3933POPC   C3B50925  28.699  16.023   7.119
 3933POPC   C4B50926  28.666  15.981   7.575
 3934POPC   NC350927  19.645  42.793   5.466
 3934POPC   PO450928  20.086  43.322   5.345
 3934POPC   GL150929  19.982  43.141   5.715
 3934POPC   GL250930  20.234  42.913   5.805
 3934POPC   C1A50931  19.924  43.288   6.142
 3934POPC   D2A50932  20.103  43.295   6.555
 3934POPC   C3A50933  19.807  43.131   6.861
 3934POPC   C4A50934  19.592  43.112   7.262
 3934POPC   C1B50935  20.167  42.751   6.264
 3934POPC   C2B50936  20.294  42.851   6.717
 3934POPC   C3B50937  20.168  42.945   7.167
 3934POPC   C4B50938  19.907  42.795   7.523
 3935POPC   NC350939   1.989  44.283   5.498
 3935POPC   PO450940   1.636  43.663   5.534
 3935POPC   GL150941   1.872  43.838   5.836
 3935POPC   GL250942   2.186  43.880   5.796
 3935POPC   C1A50943   1.816  44.108   6.155
 3935POPC   D2A50944   1.723  43.979   6.553
 3935POPC   C3A50945   1.684  44.242   6.889
 3935POPC   C4A50946   1.848  44.145   7.265
 3935POPC   C1B50947   2.360  44.022   6.171
 3935POPC   C2B50948   2.350  43.973   6.590
 3935POPC   C3B50949   2.086  43.861   6.905
 3935POPC   C4B50950   2.283  43.853   7.215
 3936POPC   NC350951  13.742  43.326   5.505
 3936POPC   PO450952  13.917  42.602   5.489
 3936POPC   GL150953  13.809  42.915   5.815
 3936POPC   GL250954  13.499  43.078   5.909
 3936POPC   C1A50955  13.790  42.948   6.276
 3936POPC   D2A50956  13.677  43.200   6.612
 3936POPC   C3A50957  13.769  43.111   7.040
 3936POPC   C4A50958  13.468  42.891   7.271
 3936POPC   C1B50959  13.313  43.315   6.247
 3936POPC   C2B50960  13.248  43.467   6.638
 3936POPC   C3B50961  13.329  43.347   7.039
 3936POPC   C4B50962  13.435  43.350   7.503
 3937POPC   NC350963  20.091  35.662   5.740
 3937POPC   PO450964  19.818  36.122   5.340
 3937POPC   GL150965  19.652  35.934   5.705
 3937POPC   GL250966  19.855  36.186   5.885
 3937POPC   C1A50967  19.570  35.873   6.155
 3937POPC   D2A50968  19.851  35.811   6.528
 3937POPC   C3A50969  19.803  36.151   6.815
 3937POPC   C4A50970  19.894  36.142   7.241
 3937POPC   C1B50971  19.980  36.305   6.316
 3937POPC   C2B50972  20.138  36.548   6.677
 3937POPC   C3B50973  20.296  36.404   7.065
 3937POPC   C4B50974  20.205  36.552   7.510
 3938POPC   NC350975  16.431  26.373   5.545
 3938POPC   PO450976  16.873  25.840   5.487
 3938POPC   GL150977  16.682  26.007   5.823
 3938POPC   GL250978  16.917  26.276   5.775
 3938POPC   C1A50979  16.638  26.136   6.244
 3938POPC   D2A50980  16.585  25.961   6.649
 3938POPC   C3A50981  16.680  26.116   7.044
 3938POPC   C4A50982  17.023  26.006   7.295
 3938POPC   C1B50983  17.117  26.374   6.142
 3938POPC   C2B50984  17.055  26.293   6.555
 3938POPC   C3B50985  17.176  26.355   6.976
 3938POPC   C4B50986  16.876  26.543   7.233
 3939POPC   NC350987  36.852  29.296   5.473
 3939POPC   PO450988  36.692  28.642   5.337
 3939POPC   GL150989  36.621  28.933   5.803
 3939POPC   GL250990  36.636  29.322   5.932
 3939POPC   C1A50991  36.842  28.983   6.237
 3939POPC   D2A50992  36.808  29.350   6.504
 3939POPC   C3A50993  36.698  29.206   6.891
 3939POPC   C4A50994  36.782  29.040   7.274
 3939POPC   C1B50995  37.111  29.388   6.075
 3939POPC   C2B50996  37.331  29.343   6.459
 3939POPC   C3B50997  37.202  29.195   6.819
 3939POPC   C4B50998  37.140  29.403   7.154
 3940POPC   NC350999   3.205  23.834   5.441
 3940POPC   PO451000   3.774  23.461   5.450
 3940POPC   GL151001   3.541  23.640   5.830
 3940POPC   GL251002   3.565  23.988   5.807
 3940POPC   C1A51003   3.429  23.692   6.299
 3940POPC   D2A51004   3.378  23.408   6.670
 3940POPC   C3A51005   3.548  23.458   7.028
 3940POPC   C4A51006   3.403  23.475   7.482
 3940POPC   C1B51007   3.732  24.117   6.200
 3940POPC   C2B51008   3.481  24.131   6.587
 3940POPC   C3B51009   3.289  23.946   6.950
 3940POPC   C4B51010   3.584  23.890   7.261
 3941POPC   NC351011  34.730  21.754   5.641
 3941POPC   PO451012  34.451  21.083   5.484
 3941POPC   GL151013  34.613  21.295   5.829
 3941POPC   GL251014  34.801  21.074   5.876
 3941POPC   C1A51015  34.482  21.460   6.273
 3941POPC   D2A51016  34.519  21.693   6.666
 3941POPC   C3A51017  34.552  21.581   7.086
 3941POPC   C4A51018  34.474  21.435   7.469
 3941POPC   C1B51019  34.965  21.324   6.190
 3941POPC   C2B51020  35.006  21.590   6.527
 3941POPC   C3B51021  34.986  21.394   6.893
 3941POPC   C4B51022  34.971  21.252   7.289
 3942POPC   NC351023  29.703  10.764   5.428
 3942POPC   PO451024  30.067  11.335   5.456
 3942POPC   GL151025  29.983  11.076   5.812
 3942POPC   GL251026  29.643  11.130   5.775
 3942POPC   C1A51027  30.129  11.079   6.245
 3942POPC   D2A51028  30.071  11.447   6.525
 3942POPC   C3A51029  29.999  11.327   6.944
 3942POPC   C4A51030  29.886  11.418   7.357
 3942POPC   C1B51031  29.721  11.371   6.157
 3942POPC   C2B51032  29.674  11.153   6.577
 3942POPC   C3B51033  29.553  11.019   6.982
 3942POPC   C4B51034  29.881  10.890   7.229
 3943POPC   NC351035  44.955   3.221   5.580
 3943POPC   PO451036   0.640   3.284   5.420
 3943POPC   GL151037   0.584   3.353   5.860
 3943POPC   GL251038   0.336   3.624   5.857
 3943POPC   C1A51039   0.368   3.285   6.279
 3943POPC   D2A51040   0.566   3.290   6.696
 3943POPC   C3A51041   0.447   3.364   7.102
 3943POPC   C4A51042   0.339   3.647   7.414
 3943POPC   C1B51043   0.646   3.882   6.096
 3943POPC   C2B51044   0.768   3.928   6.521
 3943POPC   C3B51045   0.725   3.770   6.919
 3943POPC   C4B51046   0.778   3.884   7.321
 3944POPC   NC351047   3.902   2.020   5.538
 3944POPC   PO451048   3.292   1.656   5.428
 3944POPC   GL151049   3.488   1.868   5.787
 3944POPC   GL251050   3.799   1.695   5.900
 3944POPC   C1A51051   3.576   2.103   6.157
 3944POPC   D2A51052   3.419   2.111   6.568
 3944POPC   C3A51053   3.592   1.997   7.014
 3944POPC   C4A51054   3.524   1.953   7.472
 3944POPC   C1B51055   4.031   1.896   6.203
 3944POPC   C2B51056   3.852   1.822   6.581
 3944POPC   C3B51057   3.838   1.565   6.911
 3944POPC   C4B51058   3.906   1.667   7.306
 3945POPC   NC351059   2.105  24.954   5.509
 3945POPC   PO451060   1.961  25.686   5.459
 3945POPC   GL151061   1.870  25.340   5.771
 3945POPC   GL251062   2.209  25.235   5.920
 3945POPC   C1A51063   1.814  25.397   6.227
 3945POPC   D2A51064   1.672  25.543   6.651
 3945POPC   C3A51065   1.771  25.358   7.056
 3945POPC   C4A51066   1.847  25.454   7.507
 3945POPC   C1B51067   2.440  25.049   6.291
 3945POPC   C2B51068   2.438  24.988   6.742
 3945POPC   C3B51069   2.247  25.181   7.078
 3945POPC   C4B51070   2.309  25.226   7.498
 3946POPC   NC351071  30.966  20.748   5.512
 3946POPC   PO451072  30.362  20.463   5.531
 3946POPC   GL151073  30.565  20.602   5.924
 3946POPC   GL251074  30.931  20.589   5.992
 3946POPC   C1A51075  30.673  20.383   6.347
 3946POPC   D2A51076  30.777  20.622   6.728
 3946POPC   C3A51077  30.438  20.865   6.953
 3946POPC   C4A51078  30.618  20.569   7.258
 3946POPC   C1B51079  30.728  20.909   6.311
 3946POPC   C2B51080  30.788  21.167   6.696
 3946POPC   C3B51081  30.898  20.971   7.099
 3946POPC   C4B51082  30.923  20.956   7.549
 3947POPC   NC351083   1.210  21.620   5.319
 3947POPC   PO451084   1.610  21.079   5.411
 3947POPC   GL151085   1.374  21.367   5.780
 3947POPC   GL251086   1.085  21.228   5.990
 3947POPC   C1A51087   1.498  21.402   6.245
 3947POPC   D2A51088   1.279  21.198   6.582
 3947POPC   C3A51089   1.319  21.292   7.011
 3947POPC   C4A51090   0.950  21.017   7.122
 3947POPC   C1B51091   1.012  21.566   6.240
 3947POPC   C2B51092   1.168  21.689   6.611
 3947POPC   C3B51093   0.970  21.627   6.977
 3947POPC   C4B51094   1.304  21.773   7.241
 3948POPC   NC351095  11.653  36.040   5.485
 3948POPC   PO451096  12.250  35.985   5.302
 3948POPC   GL151097  12.079  36.082   5.762
 3948POPC   GL251098  11.847  35.784   5.873
 3948POPC   C1A51099  11.992  36.285   6.194
 3948POPC   D2A51100  12.210  36.272   6.591
 3948POPC   C3A51101  12.024  36.368   6.998
 3948POPC   C4A51102  12.057  36.210   7.413
 3948POPC   C1B51103  11.700  35.862   6.292
 3948POPC   C2B51104  11.743  35.988   6.724
 3948POPC   C3B51105  11.742  35.862   7.172
 3948POPC   C4B51106  11.544  36.131   7.472
 3949POPC   NC351107  17.395  20.875   5.432
 3949POPC   PO451108  17.397  21.499   5.406
 3949POPC   GL151109  17.650  21.471   5.788
 3949POPC   GL251110  17.583  21.104   5.871
 3949POPC   C1A51111  17.735  21.765   6.157
 3949POPC   D2A51112  17.725  21.728   6.631
 3949POPC   C3A51113  17.760  21.764   7.105
 3949POPC   C4A51114  17.617  21.457   7.422
 3949POPC   C1B51115  17.351  21.404   6.178
 3949POPC   C2B51116  17.267  21.318   6.588
 3949POPC   C3B51117  17.369  21.470   6.964
 3949POPC   C4B51118  17.078  21.683   7.215
 3950POPC   NC351119  25.223  27.848   5.425
 3950POPC   PO451120  25.673  27.373   5.588
 3950POPC   GL151121  25.456  27.656   5.862
 3950POPC   GL251122  25.138  27.479   5.793
 3950POPC   C1A51123  25.455  27.887   6.271
 3950POPC   D2A51124  25.232  27.824   6.664
 3950POPC   C3A51125  25.422  27.804   7.101
 3950POPC   C4A51126  25.610  27.623   7.496
 3950POPC   C1B51127  25.025  27.583   6.219
 3950POPC   C2B51128  24.941  27.368   6.594
 3950POPC   C3B51129  25.091  27.408   6.991
 3950POPC   C4B51130  25.169  27.427   7.407
 3951POPC   NC351131  26.393  10.906   5.445
 3951POPC   PO451132  26.862  10.390   5.344
 3951POPC   GL151133  26.899  10.460   5.787
 3951POPC   GL251134  26.630  10.668   5.844
 3951POPC   C1A51135  26.871  10.441   6.254
 3951POPC   D2A51136  26.664  10.660   6.617
 3951POPC   C3A51137  26.879  10.634   7.010
 3951POPC   C4A51138  26.960  10.301   7.298
 3951POPC   C1B51139  26.368  10.447   6.144
 3951POPC   C2B51140  26.487  10.175   6.476
 3951POPC   C3B51141  26.662  10.199   6.873
 3951POPC   C4B51142  26.459  10.368   7.252
 3952POPC   NC351143  22.377   0.882   5.419
 3952POPC   PO451144  21.921   1.363   5.208
 3952POPC   GL151145  21.951   1.390   5.703
 3952POPC   GL251146  22.304   1.348   5.753
 3952POPC   C1A51147  22.006   1.455   6.192
 3952POPC   D2A51148  21.777   1.417   6.619
 3952POPC   C3A51149  21.861   1.092   6.966
 3952POPC   C4A51150  21.796   0.996   7.427
 3952POPC   C1B51151  22.161   1.014   6.042
 3952POPC   C2B51152  22.123   1.033   6.493
 3952POPC   C3B51153  22.335   1.259   6.804
 3952POPC   C4B51154  22.256   1.230   7.269
 3953POPC   NC351155   7.899   5.232   5.413
 3953POPC   PO451156   8.553   5.251   5.554
 3953POPC   GL151157   8.201   5.047   5.804
 3953POPC   GL251158   8.102   5.357   5.895
 3953POPC   C1A51159   8.192   4.758   6.171
 3953POPC   D2A51160   8.443   4.705   6.572
 3953POPC   C3A51161   8.164   4.918   6.855
 3953POPC   C4A51162   8.139   5.054   7.269
 3953POPC   C1B51163   7.875   5.442   6.254
 3953POPC   C2B51164   7.939   5.405   6.694
 3953POPC   C3B51165   7.742   5.319   7.090
 3953POPC   C4B51166   7.868   5.379   7.538
 3954POPC   NC351167  25.481  10.964   5.482
 3954POPC   PO451168  25.288  10.271   5.462
 3954POPC   GL151169  25.079  10.330   5.844
 3954POPC   GL251170  24.752  10.174   5.915
 3954POPC   C1A51171  25.292  10.436   6.232
 3954POPC   D2A51172  25.377  10.656   6.598
 3954POPC   C3A51173  25.615  10.487   6.907
 3954POPC   C4A51174  25.454  10.692   7.243
 3954POPC   C1B51175  24.813  10.266   6.320
 3954POPC   C2B51176  25.014  10.325   6.677
 3954POPC   C3B51177  24.946  10.462   7.084
 3954POPC   C4B51178  24.807  10.178   7.399
 3955POPC   NC351179  42.026  44.478   5.815
 3955POPC   PO451180  41.386  44.678   5.436
 3955POPC   GL151181  41.576  44.695   5.835
 3955POPC   GL251182  41.521  44.344   5.871
 3955POPC   C1A51183  41.766  44.912   6.221
 3955POPC   D2A51184  41.572  44.898   6.603
 3955POPC   C3A51185  41.712  44.789   7.010
 3955POPC   C4A51186  41.619  44.997   7.402
 3955POPC   C1B51187  41.584  44.447   6.316
 3955POPC   C2B51188  41.479  44.406   6.723
 3955POPC   C3B51189  41.228  44.581   7.025
 3955POPC   C4B51190  41.331  44.562   7.490
 3956POPC   NC351191   1.365  42.492   5.242
 3956POPC   PO451192   0.890  42.329   5.792
 3956POPC   GL151193   1.243  42.524   6.027
 3956POPC   GL251194   1.541  42.635   5.810
 3956POPC   C1A51195   1.229  42.293   6.426
 3956POPC   D2A51196   0.810  42.315   6.635
 3956POPC   C3A51197   0.856  42.502   7.038
 3956POPC   C4A51198   1.183  42.354   7.333
 3956POPC   C1B51199   1.728  42.637   6.195
 3956POPC   C2B51200   1.681  42.498   6.599
 3956POPC   C3B51201   1.362  42.544   6.896
 3956POPC   C4B51202   1.570  42.683   7.278
 3957POPC   NC351203  38.666   9.676   5.506
 3957POPC   PO451204  38.049   9.472   5.506
 3957POPC   GL151205  38.269   9.639   5.843
 3957POPC   GL251206  38.527   9.383   5.916
 3957POPC   C1A51207  38.391   9.879   6.205
 3957POPC   D2A51208  38.208   9.846   6.613
 3957POPC   C3A51209  38.426   9.958   7.012
 3957POPC   C4A51210  38.518   9.799   7.452
 3957POPC   C1B51211  38.299   9.368   6.308
 3957POPC   C2B51212  38.410   9.366   6.753
 3957POPC   C3B51213  38.197   9.509   7.118
 3957POPC   C4B51214  38.088   9.504   7.573
 3958POPC   NC351215   6.364   0.002   5.534
 3958POPC   PO451216   6.870  44.667   5.201
 3958POPC   GL151217   6.827  44.793   5.722
 3958POPC   GL251218   6.504  44.658   5.869
 3958POPC   C1A51219   6.791  44.837   6.224
 3958POPC   D2A51220   6.957  44.708   6.642
 3958POPC   C3A51221   6.729  44.630   7.027
 3958POPC   C4A51222   6.740  44.858   7.404
 3958POPC   C1B51223   6.284  44.425   6.166
 3958POPC   C2B51224   6.386  44.337   6.581
 3958POPC   C3B51225   6.217  44.408   6.983
 3958POPC   C4B51226   6.385  44.427   7.380
 3959POPC   NC351227   8.691  12.142   5.489
 3959POPC   PO451228   9.208  11.768   5.507
 3959POPC   GL151229   9.088  12.093   5.883
 3959POPC   GL251230   8.809  12.351   5.920
 3959POPC   C1A51231   8.961  12.141   6.358
 3959POPC   D2A51232   9.001  11.902   6.762
 3959POPC   C3A51233   8.749  11.975   7.129
 3959POPC   C4A51234   8.858  12.002   7.579
 3959POPC   C1B51235   8.519  12.583   6.143
 3959POPC   C2B51236   8.587  12.492   6.601
 3959POPC   C3B51237   8.509  12.446   7.033
 3959POPC   C4B51238   8.715  12.461   7.420
 3960POPC   NC351239  14.303  32.028   5.436
 3960POPC   PO451240  14.132  32.614   5.446
 3960POPC   GL151241  14.371  32.401   5.791
 3960POPC   GL251242  14.348  32.012   5.933
 3960POPC   C1A51243  14.584  32.399   6.172
 3960POPC   D2A51244  14.474  32.188   6.526
 3960POPC   C3A51245  14.506  32.476   6.892
 3960POPC   C4A51246  14.547  32.369   7.313
 3960POPC   C1B51247  14.623  31.733   6.190
 3960POPC   C2B51248  14.774  31.769   6.623
 3960POPC   C3B51249  14.647  31.987   6.962
 3960POPC   C4B51250  14.430  31.881   7.328
 3961POPC   NC351251  41.175  18.626   5.630
 3961POPC   PO451252  40.691  18.327   5.247
 3961POPC   GL151253  40.718  18.177   5.704
 3961POPC   GL251254  40.548  18.463   5.814
 3961POPC   C1A51255  40.921  17.946   6.083
 3961POPC   D2A51256  40.954  17.795   6.518
 3961POPC   C3A51257  41.101  18.085   6.816
 3961POPC   C4A51258  40.857  18.238   7.119
 3961POPC   C1B51259  40.849  18.456   6.189
 3961POPC   C2B51260  40.981  18.596   6.623
 3961POPC   C3B51261  40.791  18.718   7.008
 3961POPC   C4B51262  40.584  18.712   7.399
 3962POPC   NC351263   1.125   0.780   5.364
 3962POPC   PO451264   0.848   0.168   5.298
 3962POPC   GL151265   1.119   0.292   5.687
 3962POPC   GL251266   1.181   0.612   5.857
 3962POPC   C1A51267   1.052   0.206   6.145
 3962POPC   D2A51268   1.205   0.459   6.499
 3962POPC   C3A51269   1.250   0.200   6.881
 3962POPC   C4A51270   1.319   0.283   7.295
 3962POPC   C1B51271   1.529   0.721   6.126
 3962POPC   C2B51272   1.518   0.894   6.536
 3962POPC   C3B51273   1.564   0.648   6.913
 3962POPC   C4B51274   1.376   0.799   7.274
 3963POPC   NC351275  38.385  36.671   5.468
 3963POPC   PO451276  38.738  37.318   5.469
 3963POPC   GL151277  38.633  37.003   5.785
 3963POPC   GL251278  38.288  37.080   5.830
 3963POPC   C1A51279  38.491  36.755   6.170
 3963POPC   D2A51280  38.374  36.918   6.562
 3963POPC   C3A51281  38.306  36.706   6.921
 3963POPC   C4A51282  38.390  36.877   7.257
 3963POPC   C1B51283  38.059  37.142   6.216
 3963POPC   C2B51284  38.163  37.388   6.563
 3963POPC   C3B51285  38.373  37.272   6.936
 3963POPC   C4B51286  38.298  37.369   7.342
 3964POPC   NC351287  11.296  10.189   5.520
 3964POPC   PO451288  11.064  10.838   5.672
 3964POPC   GL151289  11.302  10.551   5.874
 3964POPC   GL251290  11.016  10.309   5.900
 3964POPC   C1A51291  11.370  10.568   6.293
 3964POPC   D2A51292  11.009  10.626   6.545
 3964POPC   C3A51293  11.145  10.607   6.964
 3964POPC   C4A51294  11.439  10.639   7.308
 3964POPC   C1B51295  11.022  10.140   6.287
 3964POPC   C2B51296  11.298  10.187   6.637
 3964POPC   C3B51297  11.549  10.257   6.993
 3964POPC   C4B51298  11.441  10.119   7.407
 3965POPC   NC351299  20.888  41.360   5.454
 3965POPC   PO451300  21.502  41.245   5.473
 3965POPC   GL151301  21.309  41.398   5.854
 3965POPC   GL251302  21.259  41.760   5.839
 3965POPC   C1A51303  21.441  41.442   6.287
 3965POPC   D2A51304  21.467  41.205   6.678
 3965POPC   C3A51305  21.397  41.437   7.029
 3965POPC   C4A51306  21.573  41.330   7.416
 3965POPC   C1B51307  21.097  41.845   6.260
 3965POPC   C2B51308  21.160  41.779   6.699
 3965POPC   C3B51309  21.165  41.888   7.131
 3965POPC   C4B51310  21.262  41.745   7.600
 3966POPC   NC351311  36.168  13.515   5.414
 3966POPC   PO451312  36.605  14.022   5.539
 3966POPC   GL151313  36.404  13.718   5.870
 3966POPC   GL251314  36.303  13.351   5.882
 3966POPC   C1A51315  36.194  13.651   6.281
 3966POPC   D2A51316  35.938  13.895   6.539
 3966POPC   C3A51317  36.054  13.786   6.965
 3966POPC   C4A51318  36.336  13.689   7.267
 3966POPC   C1B51319  35.833  13.392   6.047
 3966POPC   C2B51320  35.702  13.437   6.491
 3966POPC   C3B51321  35.609  13.374   6.926
 3966POPC   C4B51322  35.873  13.406   7.273
 3967POPC   NC351323  15.907  17.894   5.306
 3967POPC   PO451324  15.384  17.338   5.471
 3967POPC   GL151325  15.673  17.440   5.802
 3967POPC   GL251326  15.612  17.779   5.731
 3967POPC   C1A51327  16.026  17.460   6.119
 3967POPC   D2A51328  16.156  17.211   6.485
 3967POPC   C3A51329  15.905  17.358   6.794
 3967POPC   C4A51330  15.956  17.455   7.185
 3967POPC   C1B51331  15.714  17.875   6.147
 3967POPC   C2B51332  15.941  17.799   6.528
 3967POPC   C3B51333  15.888  17.937   6.957
 3967POPC   C4B51334  16.143  17.978   7.302
 3968POPC   NC351335   4.958  25.767   5.583
 3968POPC   PO451336   5.242  26.308   5.338
 3968POPC   GL151337   5.088  26.238   5.750
 3968POPC   GL251338   5.345  26.005   5.842
 3968POPC   C1A51339   4.960  26.285   6.193
 3968POPC   D2A51340   5.146  26.258   6.620
 3968POPC   C3A51341   4.891  26.291   7.018
 3968POPC   C4A51342   4.744  26.214   7.432
 3968POPC   C1B51343   5.291  25.849   6.259
 3968POPC   C2B51344   5.544  25.883   6.637
 3968POPC   C3B51345   5.400  26.042   7.043
 3968POPC   C4B51346   5.079  25.807   7.245
 3969POPC   NC351347  33.396  20.217   5.497
 3969POPC   PO451348  32.919  19.752   5.231
 3969POPC   GL151349  32.904  19.981   5.709
 3969POPC   GL251350  33.228  19.943   5.904
 3969POPC   C1A51351  32.843  20.023   6.224
 3969POPC   D2A51352  32.969  19.864   6.664
 3969POPC   C3A51353  32.829  20.030   7.073
 3969POPC   C4A51354  32.934  19.860   7.484
 3969POPC   C1B51355  33.276  19.690   6.287
 3969POPC   C2B51356  33.462  19.676   6.704
 3969POPC   C3B51357  33.193  19.608   7.096
 3969POPC   C4B51358  33.266  19.468   7.541
 3970POPC   NC351359  40.002   8.961   5.451
 3970POPC   PO451360  40.590   9.120   5.293
 3970POPC   GL151361  40.393   8.956   5.774
 3970POPC   GL251362  40.079   9.227   5.876
 3970POPC   C1A51363  40.225   8.942   6.257
 3970POPC   D2A51364  39.935   8.861   6.638
 3970POPC   C3A51365  40.156   8.945   7.026
 3970POPC   C4A51366  40.452   9.261   6.990
 3970POPC   C1B51367  39.767   9.175   6.238
 3970POPC   C2B51368  39.644   9.464   6.573
 3970POPC   C3B51369  39.783   9.330   6.953
 3970POPC   C4B51370  39.650   9.001   7.188
 3971POPC   NC351371  42.503  42.686   5.641
 3971POPC   PO451372  42.369  43.367   5.449
 3971POPC   GL151373  42.323  43.146   5.873
 3971POPC   GL251374  42.154  42.805   5.974
 3971POPC   C1A51375  42.287  43.169   6.330
 3971POPC   D2A51376  42.491  43.150   6.723
 3971POPC   C3A51377  42.225  43.003   7.056
 3971POPC   C4A51378  42.193  43.174   7.451
 3971POPC   C1B51379  42.461  42.652   6.278
 3971POPC   C2B51380  42.350  42.653   6.666
 3971POPC   C3B51381  42.518  42.603   7.023
 3971POPC   C4B51382  42.541  42.745   7.423
 3972POPC   NC351383  24.303  11.945   5.410
 3972POPC   PO451384  23.620  12.039   5.435
 3972POPC   GL151385  23.892  12.024   5.827
 3972POPC   GL251386  23.921  11.690   5.989
 3972POPC   C1A51387  23.742  12.184   6.249
 3972POPC   D2A51388  23.474  11.927   6.546
 3972POPC   C3A51389  23.437  12.081   6.962
 3972POPC   C4A51390  23.769  12.337   7.070
 3972POPC   C1B51391  24.090  11.843   6.380
 3972POPC   C2B51392  23.949  11.954   6.796
 3972POPC   C3B51393  23.813  11.831   7.220
 3972POPC   C4B51394  23.923  11.827   7.667
 3973POPC   NC351395  21.149  13.971   5.396
 3973POPC   PO451396  21.407  14.619   5.421
 3973POPC   GL151397  21.274  14.507   5.843
 3973POPC   GL251398  21.150  14.188   5.857
 3973POPC   C1A51399  21.325  14.408   6.297
 3973POPC   D2A51400  21.518  14.273   6.650
 3973POPC   C3A51401  21.265  14.466   6.926
 3973POPC   C4A51402  21.346  14.411   7.314
 3973POPC   C1B51403  20.893  14.162   6.222
 3973POPC   C2B51404  21.038  14.076   6.641
 3973POPC   C3B51405  21.196  13.973   7.045
 3973POPC   C4B51406  21.175  13.943   7.492
 3974POPC   NC351407  10.457  34.763   5.410
 3974POPC   PO451408   9.782  34.990   5.476
 3974POPC   GL151409  10.188  34.859   5.837
 3974POPC   GL251410  10.409  34.527   5.851
 3974POPC   C1A51411  10.303  34.689   6.307
 3974POPC   D2A51412  10.606  34.690   6.666
 3974POPC   C3A51413  10.463  34.736   7.088
 3974POPC   C4A51414  10.532  34.955   7.498
 3974POPC   C1B51415  10.668  34.327   6.166
 3974POPC   C2B51416  10.580  34.186   6.591
 3974POPC   C3B51417  10.688  34.270   7.002
 3974POPC   C4B51418  10.526  34.205   7.408
 3975POPC   NC351419  23.766   5.160   5.402
 3975POPC   PO451420  23.308   4.701   5.456
 3975POPC   GL151421  23.638   4.808   5.754
 3975POPC   GL251422  23.685   5.164   5.887
 3975POPC   C1A51423  23.744   4.775   6.195
 3975POPC   D2A51424  23.751   5.071   6.566
 3975POPC   C3A51425  23.492   5.054   6.913
 3975POPC   C4A51426  23.547   5.378   7.216
 3975POPC   C1B51427  23.817   5.423   6.189
 3975POPC   C2B51428  23.923   5.575   6.584
 3975POPC   C3B51429  24.035   5.730   6.971
 3975POPC   C4B51430  24.033   5.479   7.337
 3976POPC   NC351431  12.710  20.734   5.438
 3976POPC   PO451432  13.304  20.617   5.292
 3976POPC   GL151433  13.093  20.413   5.666
 3976POPC   GL251434  13.249  20.478   5.979
 3976POPC   C1A51435  12.749  20.386   6.008
 3976POPC   D2A51436  12.765  20.514   6.452
 3976POPC   C3A51437  12.553  20.393   6.813
 3976POPC   C4A51438  12.647  20.479   7.222
 3976POPC   C1B51439  13.112  20.177   6.294
 3976POPC   C2B51440  13.012  20.159   6.750
 3976POPC   C3B51441  13.152  20.415   7.087
 3976POPC   C4B51442  13.236  20.285   7.494
 3977POPC   NC351443  39.409  27.034   5.542
 3977POPC   PO451444  38.720  27.110   5.464
 3977POPC   GL151445  39.000  27.079   5.862
 3977POPC   GL251446  39.217  26.758   5.934
 3977POPC   C1A51447  39.155  27.098   6.309
 3977POPC   D2A51448  38.993  26.986   6.717
 3977POPC   C3A51449  39.200  27.049   7.124
 3977POPC   C4A51450  39.027  26.942   7.537
 3977POPC   C1B51451  39.427  26.655   6.341
 3977POPC   C2B51452  39.289  26.550   6.768
 3977POPC   C3B51453  39.415  26.591   7.198
 3977POPC   C4B51454  39.527  26.860   7.566
 3978POPC   NC351455  24.150   7.372   5.017
 3978POPC   PO451456  23.681   7.276   5.435
 3978POPC   GL151457  23.676   7.236   5.874
 3978POPC   GL251458  24.039   7.227   5.977
 3978POPC   C1A51459  23.490   7.440   6.201
 3978POPC   D2A51460  23.663   7.525   6.569
 3978POPC   C3A51461  23.412   7.462   6.911
 3978POPC   C4A51462  23.601   7.341   7.287
 3978POPC   C1B51463  23.978   7.650   6.129
 3978POPC   C2B51464  24.048   7.868   6.520
 3978POPC   C3B51465  23.908   7.799   6.942
 3978POPC   C4B51466  23.939   7.699   7.358
 3979POPC   NC351467  38.642  18.653   5.536
 3979POPC   PO451468  38.186  18.177   5.541
 3979POPC   GL151469  38.394  18.406   5.918
 3979POPC   GL251470  38.674  18.649   6.018
 3979POPC   C1A51471  38.494  18.372   6.382
 3979POPC   D2A51472  38.674  18.095   6.684
 3979POPC   C3A51473  38.439  18.204   7.016
 3979POPC   C4A51474  38.288  18.377   7.361
 3979POPC   C1B51475  38.993  18.462   6.274
 3979POPC   C2B51476  38.962  18.518   6.668
 3979POPC   C3B51477  38.706  18.630   6.954
 3979POPC   C4B51478  38.718  18.627   7.358
 3980POPC   NC351479  29.408  27.225   5.567
 3980POPC   PO451480  28.951  26.702   5.413
 3980POPC   GL151481  29.074  26.881   5.784
 3980POPC   GL251482  29.151  26.567   5.909
 3980POPC   C1A51483  29.193  26.989   6.211
 3980POPC   D2A51484  29.088  26.762   6.572
 3980POPC   C3A51485  29.055  27.014   6.948
 3980POPC   C4A51486  29.092  26.764   7.332
 3980POPC   C1B51487  29.523  26.555   6.133
 3980POPC   C2B51488  29.606  26.580   6.554
 3980POPC   C3B51489  29.403  26.605   6.961
 3980POPC   C4B51490  29.605  26.765   7.329
 3981POPC   NC351491  34.572   3.205   5.275
 3981POPC   PO451492  34.398   3.735   5.318
 3981POPC   GL151493  34.451   3.514   5.725
 3981POPC   GL251494  34.163   3.377   5.886
 3981POPC   C1A51495  34.686   3.559   6.135
 3981POPC   D2A51496  34.608   3.677   6.592
 3981POPC   C3A51497  34.771   3.313   6.859
 3981POPC   C4A51498  34.685   3.212   7.291
 3981POPC   C1B51499  34.215   3.448   6.296
 3981POPC   C2B51500  34.235   3.338   6.701
 3981POPC   C3B51501  34.366   3.556   7.048
 3981POPC   C4B51502  34.714   3.783   7.141
 3982POPC   NC351503  36.032  17.994   5.515
 3982POPC   PO451504  36.556  18.195   5.234
 3982POPC   GL151505  36.401  18.155   5.797
 3982POPC   GL251506  36.146  18.400   5.867
 3982POPC   C1A51507  36.294  18.015   6.240
 3982POPC   D2A51508  36.085  18.156   6.621
 3982POPC   C3A51509  36.377  18.207   6.963
 3982POPC   C4A51510  36.248  18.179   7.389
 3982POPC   C1B51511  36.318  18.515   6.290
 3982POPC   C2B51512  36.184  18.651   6.716
 3982POPC   C3B51513  35.949  18.462   7.078
 3982POPC   C4B51514  35.980  18.561   7.572
 3983POPC   NC351515  36.303  19.892   5.423
 3983POPC   PO451516  35.677  19.634   5.559
 3983POPC   GL151517  36.028  19.448   5.805
 3983POPC   GL251518  36.320  19.685   5.896
 3983POPC   C1A51519  35.987  19.442   6.257
 3983POPC   D2A51520  35.884  19.517   6.690
 3983POPC   C3A51521  36.127  19.863   6.792
 3983POPC   C4A51522  36.177  19.887   7.205
 3983POPC   C1B51523  36.014  19.949   6.155
 3983POPC   C2B51524  35.790  20.181   6.495
 3983POPC   C3B51525  35.724  20.142   6.933
 3983POPC   C4B51526  35.826  20.225   7.372
 3984POPC   NC351527  15.034  27.612   5.154
 3984POPC   PO451528  14.756  27.169   5.624
 3984POPC   GL151529  15.035  27.327   5.938
 3984POPC   GL251530  15.022  27.686   5.837
 3984POPC   C1A51531  15.232  27.308   6.373
 3984POPC   D2A51532  15.053  27.185   6.776
 3984POPC   C3A51533  15.181  27.409   7.133
 3984POPC   C4A51534  15.005  27.791   7.204
 3984POPC   C1B51535  15.105  27.785   6.278
 3984POPC   C2B51536  15.224  27.756   6.730
 3984POPC   C3B51537  15.487  27.927   7.124
 3984POPC   C4B51538  15.733  28.183   7.485
 3985POPC   NC351539  34.753  41.174   5.538
 3985POPC   PO451540  34.351  41.652   5.159
 3985POPC   GL151541  34.421  41.585   5.667
 3985POPC   GL251542  34.224  41.351   5.863
 3985POPC   C1A51543  34.560  41.699   6.119
 3985POPC   D2A51544  34.411  41.696   6.562
 3985POPC   C3A51545  34.557  41.559   6.961
 3985POPC   C4A51546  34.426  41.633   7.378
 3985POPC   C1B51547  34.474  41.212   6.250
 3985POPC   C2B51548  34.832  41.303   6.571
 3985POPC   C3B51549  34.904  41.154   7.013
 3985POPC   C4B51550  34.596  41.164   7.322
 3986POPC   NC351551  27.421  38.786   5.450
 3986POPC   PO451552  27.529  39.499   5.546
 3986POPC   GL151553  27.599  39.338   5.944
 3986POPC   GL251554  27.609  39.041   5.890
 3986POPC   C1A51555  27.404  39.213   6.333
 3986POPC   D2A51556  27.361  38.914   6.692
 3986POPC   C3A51557  27.306  39.077   7.125
 3986POPC   C4A51558  27.584  39.198   7.481
 3986POPC   C1B51559  27.909  39.068   6.237
 3986POPC   C2B51560  27.831  39.229   6.646
 3986POPC   C3B51561  27.810  39.014   7.038
 3986POPC   C4B51562  28.057  38.970   7.430
 3987POPC   NC351563   0.979  22.363   5.513
 3987POPC   PO451564   1.637  22.423   5.325
 3987POPC   GL151565   1.398  22.121   5.669
 3987POPC   GL251566   1.126  21.891   5.732
 3987POPC   C1A51567   1.483  21.953   6.104
 3987POPC   D2A51568   1.319  22.171   6.494
 3987POPC   C3A51569   1.535  22.069   6.870
 3987POPC   C4A51570   1.602  22.182   7.265
 3987POPC   C1B51571   0.977  22.054   6.120
 3987POPC   C2B51572   0.804  22.031   6.546
 3987POPC   C3B51573   1.033  22.114   6.941
 3987POPC   C4B51574   0.849  21.971   7.322
 3988POPC   NC351575  14.541  12.067   5.205
 3988POPC   PO451576  14.109  11.518   5.457
 3988POPC   GL151577  14.206  11.966   5.644
 3988POPC   GL251578  14.560  11.957   5.692
 3988POPC   C1A51579  14.328  12.203   6.073
 3988POPC   D2A51580  14.458  12.000   6.474
 3988POPC   C3A51581  14.365  12.143   6.889
 3988POPC   C4A51582  14.225  11.913   7.227
 3988POPC   C1B51583  14.789  11.879   6.080
 3988POPC   C2B51584  14.938  11.768   6.500
 3988POPC   C3B51585  14.732  11.775   6.912
 3988POPC   C4B51586  14.716  12.062   7.275
 3989POPC   NC351587  32.088  12.526   5.143
 3989POPC   PO451588  32.248  11.891   5.423
 3989POPC   GL151589  32.420  12.064   5.786
 3989POPC   GL251590  32.126  12.000   5.981
 3989POPC   C1A51591  32.543  12.172   6.215
 3989POPC   D2A51592  32.302  12.385   6.540
 3989POPC   C3A51593  32.279  12.199   6.915
 3989POPC   C4A51594  32.425  12.179   7.317
 3989POPC   C1B51595  31.907  11.670   6.182
 3989POPC   C2B51596  31.757  11.629   6.596
 3989POPC   C3B51597  31.868  11.875   6.904
 3989POPC   C4B51598  32.092  11.802   7.212
 3990POPC   NC351599  19.383  26.186   5.544
 3990POPC   PO451600  20.115  26.071   5.424
 3990POPC   GL151601  19.846  26.076   5.752
 3990POPC   GL251602  19.860  25.760   5.858
 3990POPC   C1A51603  19.677  26.142   6.154
 3990POPC   D2A51604  19.836  26.146   6.556
 3990POPC   C3A51605  19.513  26.162   6.821
 3990POPC   C4A51606  19.470  26.060   7.203
 3990POPC   C1B51607  19.948  25.613   6.275
 3990POPC   C2B51608  20.116  25.720   6.658
 3990POPC   C3B51609  19.950  25.889   7.048
 3990POPC   C4B51610  19.987  25.687   7.457
 3991POPC   NC351611  44.796  44.179   5.336
 3991POPC   PO451612  44.271  44.561   5.458
 3991POPC   GL151613  44.598  44.653   5.782
 3991POPC   GL251614  44.348  44.868   5.968
 3991POPC   C1A51615  44.787  44.814   6.202
 3991POPC   D2A51616  44.478  44.923   6.525
 3991POPC   C3A51617  44.454  44.697   6.927
 3991POPC   C4A51618  44.762  44.604   7.240
 3991POPC   C1B51619  44.411  44.457   6.208
 3991POPC   C2B51620  44.432  44.261   6.597
 3991POPC   C3B51621  44.511  44.192   7.014
 3991POPC   C4B51622  44.355  44.334   7.401
 3992POPC   NC351623   5.013  36.607   5.509
 3992POPC   PO451624   5.579  36.943   5.326
 3992POPC   GL151625   5.301  36.934   5.795
 3992POPC   GL251626   4.930  36.993   5.863
 3992POPC   C1A51627   5.255  37.010   6.281
 3992POPC   D2A51628   5.116  36.897   6.697
 3992POPC   C3A51629   5.341  36.901   7.104
 3992POPC   C4A51630   5.285  37.109   7.534
 3992POPC   C1B51631   4.772  36.826   6.273
 3992POPC   C2B51632   4.627  36.734   6.692
 3992POPC   C3B51633   4.786  36.750   7.103
 3992POPC   C4B51634   4.659  36.748   7.516
 3993POPC   NC351635  39.760   1.478   5.480
 3993POPC   PO451636  40.247   1.004   5.473
 3993POPC   GL151637  39.928   1.035   5.794
 3993POPC   GL251638  39.857   1.359   5.962
 3993POPC   C1A51639  39.860   0.855   6.196
 3993POPC   D2A51640  40.013   0.805   6.615
 3993POPC   C3A51641  39.929   1.136   6.883
 3993POPC   C4A51642  40.049   1.210   7.310
 3993POPC   C1B51643  40.177   1.577   6.212
 3993POPC   C2B51644  40.217   1.470   6.616
 3993POPC   C3B51645  40.091   1.618   6.999
 3993POPC   C4B51646  40.376   1.809   7.271
 3994POPC   NC351647   3.585  30.963   5.552
 3994POPC   PO451648   3.359  30.484   5.264
 3994POPC   GL151649   3.401  30.522   5.714
 3994POPC   GL251650   3.197  30.795   5.896
 3994POPC   C1A51651   3.626  30.476   6.089
 3994POPC   D2A51652   3.590  30.279   6.483
 3994POPC   C3A51653   3.768  30.518   6.857
 3994POPC   C4A51654   3.659  30.570   7.295
 3994POPC   C1B51655   3.054  30.619   6.314
 3994POPC   C2B51656   3.237  30.592   6.750
 3994POPC   C3B51657   3.446  30.948   6.988
 3994POPC   C4B51658   3.703  31.116   7.327
 3995POPC   NC351659  40.768  40.944   5.272
 3995POPC   PO451660  40.834  40.422   5.685
 3995POPC   GL151661  40.628  40.784   5.842
 3995POPC   GL251662  40.621  41.151   5.720
 3995POPC   C1A51663  40.650  40.711   6.277
 3995POPC   D2A51664  40.658  40.482   6.635
 3995POPC   C3A51665  40.961  40.599   6.907
 3995POPC   C4A51666  40.873  40.719   7.296
 3995POPC   C1B51667  40.781  41.195   6.150
 3995POPC   C2B51668  40.768  41.082   6.609
 3995POPC   C3B51669  41.008  41.103   6.964
 3995POPC   C4B51670  41.104  41.162   7.394
 3996POPC   NC351671  40.510  12.366   5.516
 3996POPC   PO451672  40.869  11.833   5.659
 3996POPC   GL151673  40.927  11.914   6.041
 3996POPC   GL251674  41.021  12.262   5.986
 3996POPC   C1A51675  40.684  11.769   6.373
 3996POPC   D2A51676  40.611  11.914   6.752
 3996POPC   C3A51677  40.954  12.108   6.942
 3996POPC   C4A51678  40.924  11.909   7.327
 3996POPC   C1B51679  40.723  12.301   6.351
 3996POPC   C2B51680  40.496  12.410   6.739
 3996POPC   C3B51681  40.563  12.305   7.178
 3996POPC   C4B51682  40.645  12.244   7.609
 3997POPC   NC351683  21.548  44.736   5.370
 3997POPC   PO451684  21.016  44.358   5.442
 3997POPC   GL151685  21.197  44.631   5.733
 3997POPC   GL251686  21.544  44.674   5.871
 3997POPC   C1A51687  21.158  44.642   6.178
 3997POPC   D2A51688  21.344  44.671   6.571
 3997POPC   C3A51689  21.182  44.464   6.882
 3997POPC   C4A51690  21.271  44.600   7.281
 3997POPC   C1B51691  21.561  44.983   6.247
 3997POPC   C2B51692  21.668   0.028   6.719
 3997POPC   C3B51693  21.598   0.019   7.170
 3997POPC   C4B51694  21.598  44.826   7.591
 3998POPC   NC351695  28.038  42.310   5.700
 3998POPC   PO451696  28.446  41.868   5.397
 3998POPC   GL151697  28.490  42.064   5.825
 3998POPC   GL251698  28.511  42.427   5.890
 3998POPC   C1A51699  28.365  42.087   6.263
 3998POPC   D2A51700  28.094  42.202   6.590
 3998POPC   C3A51701  28.249  41.990   6.950
 3998POPC   C4A51702  28.293  42.230   7.323
 3998POPC   C1B51703  28.483  42.695   6.241
 3998POPC   C2B51704  28.290  42.686   6.618
 3998POPC   C3B51705  28.474  42.781   7.011
 3998POPC   C4B51706  28.641  42.631   7.397
 3999POPC   NC351707  14.150   8.677   5.518
 3999POPC   PO451708  14.420   8.002   5.452
 3999POPC   GL151709  14.515   8.324   5.739
 3999POPC   GL251710  14.187   8.293   5.851
 3999POPC   C1A51711  14.576   8.301   6.192
 3999POPC   D2A51712  14.295   8.042   6.438
 3999POPC   C3A51713  14.303   8.100   6.862
 3999POPC   C4A51714  14.328   8.109   7.305
 3999POPC   C1B51715  13.997   8.384   6.229
 3999POPC   C2B51716  13.887   8.339   6.642
 3999POPC   C3B51717  14.060   8.543   7.006
 3999POPC   C4B51718  13.984   8.446   7.440
 4000POPC   NC351719  10.778  37.054   5.333
 4000POPC   PO451720  10.061  36.833   5.457
 4000POPC   GL151721  10.328  36.760   5.791
 4000POPC   GL251722  10.686  36.663   5.702
 4000POPC   C1A51723  10.296  36.971   6.191
 4000POPC   D2A51724  10.312  37.042   6.619
 4000POPC   C3A51725  10.359  36.688   6.913
 4000POPC   C4A51726  10.462  36.851   7.312
 4000POPC   C1B51727  10.766  37.031   5.985
 4000POPC   C2B51728  10.858  37.104   6.426
 4000POPC   C3B51729  10.766  37.008   6.856
 4000POPC   C4B51730  10.916  37.121   7.256
 4001POPC   NC351731  29.818   0.857   5.468
 4001POPC   PO451732  29.677   0.199   5.281
 4001POPC   GL151733  29.736   0.366   5.766
 4001POPC   GL251734  29.854   0.738   5.944
 4001POPC   C1A51735  29.972   0.324   6.179
 4001POPC   D2A51736  30.017   0.599   6.529
 4001POPC   C3A51737  30.169   0.378   6.868
 4001POPC   C4A51738  29.977   0.211   7.194
 4001POPC   C1B51739  29.557   0.663   6.282
 4001POPC   C2B51740  29.532   0.773   6.684
 4001POPC   C3B51741  29.728   0.609   7.016
 4001POPC   C4B51742  29.640   0.510   7.451
 4002POPC   NC351743  10.139  33.079   5.494
 4002POPC   PO451744  10.738  32.696   5.437
 4002POPC   GL151745  10.595  32.778   5.852
 4002POPC   GL251746  10.493  33.125   5.876
 4002POPC   C1A51747  10.685  32.863   6.291
 4002POPC   D2A51748  10.770  32.707   6.695
 4002POPC   C3A51749  10.492  32.889   7.003
 4002POPC   C4A51750  10.404  33.333   7.105
 4002POPC   C1B51751  10.857  33.312   6.083
 4002POPC   C2B51752  11.037  33.200   6.502
 4002POPC   C3B51753  10.882  33.208   6.894
 4002POPC   C4B51754  10.892  33.357   7.262
 4003POPC   NC351755  13.439   5.720   5.384
 4003POPC   PO451756  13.790   6.212   5.583
 4003POPC   GL151757  13.441   6.073   5.819
 4003POPC   GL251758  13.506   5.727   5.879
 4003POPC   C1A51759  13.424   6.072   6.275
 4003POPC   D2A51760  13.504   5.803   6.674
 4003POPC   C3A51761  13.673   5.987   7.063
 4003POPC   C4A51762  13.982   6.346   7.102
 4003POPC   C1B51763  13.541   5.524   6.251
 4003POPC   C2B51764  13.851   5.441   6.561
 4003POPC   C3B51765  13.809   5.481   6.999
 4003POPC   C4B51766  13.456   5.537   7.244
 4004POPC   NC351767   5.192   5.492   5.511
 4004POPC   PO451768   5.460   4.875   5.378
 4004POPC   GL151769   5.386   5.061   5.803
 4004POPC   GL251770   5.073   5.227   5.930
 4004POPC   C1A51771   5.413   5.029   6.272
 4004POPC   D2A51772   5.294   5.150   6.706
 4004POPC   C3A51773   5.363   4.972   7.138
 4004POPC   C4A51774   5.278   5.209   7.527
 4004POPC   C1B51775   4.796   5.287   6.286
 4004POPC   C2B51776   4.797   5.074   6.697
 4004POPC   C3B51777   4.901   5.169   7.162
 4004POPC   C4B51778   4.834   5.437   7.555
 4005POPC   NC351779  36.260  26.467   5.460
 4005POPC   PO451780  36.121  27.048   5.423
 4005POPC   GL151781  36.102  26.820   5.821
 4005POPC   GL251782  36.430  26.810   5.834
 4005POPC   C1A51783  35.961  26.779   6.267
 4005POPC   D2A51784  35.855  26.816   6.707
 4005POPC   C3A51785  35.751  26.539   7.017
 4005POPC   C4A51786  36.110  26.448   7.247
 4005POPC   C1B51787  36.569  27.012   6.220
 4005POPC   C2B51788  36.344  26.988   6.622
 4005POPC   C3B51789  36.423  26.837   7.043
 4005POPC   C4B51790  36.431  26.830   7.517
 4006POPC   NC351791  40.743  30.980   5.324
 4006POPC   PO451792  40.639  30.290   5.449
 4006POPC   GL151793  40.827  30.596   5.760
 4006POPC   GL251794  40.715  30.951   5.842
 4006POPC   C1A51795  40.824  30.603   6.221
 4006POPC   D2A51796  40.601  30.685   6.611
 4006POPC   C3A51797  40.856  30.599   6.940
 4006POPC   C4A51798  40.707  30.311   7.227
 4006POPC   C1B51799  40.718  31.137   6.292
 4006POPC   C2B51800  40.826  31.129   6.731
 4006POPC   C3B51801  40.799  31.059   7.183
 4006POPC   C4B51802  40.602  31.026   7.585
 4007POPC   NC351803   6.579   2.413   5.465
 4007POPC   PO451804   7.008   2.787   5.238
 4007POPC   GL151805   6.787   2.766   5.736
 4007POPC   GL251806   6.485   2.897   5.738
 4007POPC   C1A51807   6.773   2.815   6.204
 4007POPC   D2A51808   6.701   2.640   6.591
 4007POPC   C3A51809   6.822   2.766   6.986
 4007POPC   C4A51810   6.688   2.413   7.201
 4007POPC   C1B51811   6.288   2.766   6.104
 4007POPC   C2B51812   6.292   2.936   6.516
 4007POPC   C3B51813   6.338   3.056   6.935
 4007POPC   C4B51814   6.382   2.802   7.285
 4008POPC   NC351815  30.509  31.527   5.515
 4008POPC   PO451816  31.055  31.031   5.774
 4008POPC   GL151817  30.820  31.396   5.928
 4008POPC   GL251818  30.876  31.735   5.826
 4008POPC   C1A51819  30.491  31.504   6.236
 4008POPC   D2A51820  30.415  31.423   6.685
 4008POPC   C3A51821  30.714  31.158   6.899
 4008POPC   C4A51822  30.958  31.193   7.245
 4008POPC   C1B51823  30.871  31.828   6.245
 4008POPC   C2B51824  30.908  31.589   6.633
 4008POPC   C3B51825  30.795  31.642   7.064
 4008POPC   C4B51826  31.066  31.740   7.426
 4009POPC   NC351827  33.562  38.028   5.627
 4009POPC   PO451828  34.125  37.765   5.351
 4009POPC   GL151829  33.966  37.713   5.797
 4009POPC   GL251830  33.599  37.652   5.951
 4009POPC   C1A51831  33.948  38.007   6.157
 4009POPC   D2A51832  34.064  38.061   6.571
 4009POPC   C3A51833  33.819  37.873   6.901
 4009POPC   C4A51834  33.912  37.640   7.280
 4009POPC   C1B51835  33.465  37.881   6.316
 4009POPC   C2B51836  33.250  37.988   6.675
 4009POPC   C3B51837  33.376  38.025   7.106
 4009POPC   C4B51838  33.429  37.668   7.321
 4010POPC   NC351839  42.132   7.381   5.217
 4010POPC   PO451840  42.566   7.858   5.362
 4010POPC   GL151841  42.418   7.489   5.642
 4010POPC   GL251842  42.094   7.476   5.821
 4010POPC   C1A51843  42.493   7.384   6.123
 4010POPC   D2A51844  42.316   7.336   6.532
 4010POPC   C3A51845  42.460   7.129   6.875
 4010POPC   C4A51846  42.684   7.349   7.178
 4010POPC   C1B51847  41.971   7.199   6.195
 4010POPC   C2B51848  41.835   7.273   6.666
 4010POPC   C3B51849  42.043   7.402   7.078
 4010POPC   C4B51850  41.955   7.576   7.499
 4011POPC   NC351851  15.522   5.120   5.098
 4011POPC   PO451852  15.057   5.191   5.592
 4011POPC   GL151853  15.204   5.027   5.931
 4011POPC   GL251854  15.455   4.746   5.921
 4011POPC   C1A51855  15.063   4.893   6.314
 4011POPC   D2A51856  15.000   4.624   6.620
 4011POPC   C3A51857  15.009   4.808   6.984
 4011POPC   C4A51858  14.778   5.024   7.296
 4011POPC   C1B51859  15.566   4.953   6.265
 4011POPC   C2B51860  15.488   4.820   6.642
 4011POPC   C3B51861  15.508   4.898   7.047
 4011POPC   C4B51862  15.283   4.967   7.385
 4012POPC   NC351863   8.633   5.677   5.349
 4012POPC   PO451864   8.022   5.964   5.446
 4012POPC   GL151865   8.232   5.837   5.809
 4012POPC   GL251866   8.404   6.084   5.966
 4012POPC   C1A51867   8.318   5.704   6.284
 4012POPC   D2A51868   8.197   5.852   6.711
 4012POPC   C3A51869   8.192   5.605   7.136
 4012POPC   C4A51870   8.403   5.834   7.481
 4012POPC   C1B51871   7.934   6.028   6.174
 4012POPC   C2B51872   7.671   5.840   6.524
 4012POPC   C3B51873   7.757   5.825   6.979
 4012POPC   C4B51874   7.895   6.233   7.132
 4013POPC   NC351875  22.604  18.636   5.496
 4013POPC   PO451876  22.216  18.196   5.456
 4013POPC   GL151877  22.334  18.303   5.844
 4013POPC   GL251878  22.576  18.072   5.937
 4013POPC   C1A51879  22.252  18.302   6.287
 4013POPC   D2A51880  22.052  18.104   6.634
 4013POPC   C3A51881  22.211  18.219   7.050
 4013POPC   C4A51882  22.460  18.543   7.288
 4013POPC   C1B51883  22.444  17.834   6.338
 4013POPC   C2B51884  22.590  17.954   6.785
 4013POPC   C3B51885  22.681  18.079   7.237
 4013POPC   C4B51886  22.808  18.334   7.631
 4014POPC   NC351887  32.555  22.946   5.412
 4014POPC   PO451888  31.897  22.733   5.431
 4014POPC   GL151889  32.259  22.623   5.759
 4014POPC   GL251890  32.615  22.777   5.866
 4014POPC   C1A51891  32.301  22.661   6.234
 4014POPC   D2A51892  32.365  22.697   6.680
 4014POPC   C3A51893  32.137  22.981   6.907
 4014POPC   C4A51894  32.161  22.831   7.297
 4014POPC   C1B51895  32.678  22.987   6.302
 4014POPC   C2B51896  32.470  23.253   6.610
 4014POPC   C3B51897  32.622  23.484   6.951
 4014POPC   C4B51898  32.733  23.251   7.322
 4015POPC   NC351899  18.768  19.413   5.555
 4015POPC   PO451900  19.199  19.814   5.187
 4015POPC   GL151901  19.088  20.001   5.692
 4015POPC   GL251902  18.960  19.728   5.949
 4015POPC   C1A51903  19.195  20.121   6.170
 4015POPC   D2A51904  19.157  19.928   6.594
 4015POPC   C3A51905  18.808  19.961   6.910
 4015POPC   C4A51906  18.660  20.005   7.330
 4015POPC   C1B51907  19.254  19.524   6.268
 4015POPC   C2B51908  19.410  19.462   6.665
 4015POPC   C3B51909  19.096  19.393   6.844
 4015POPC   C4B51910  19.065  19.623   7.219
 4016POPC   NC351911  42.553   4.121   5.383
 4016POPC   PO451912  42.190   4.658   5.412
 4016POPC   GL151913  42.195   4.330   5.726
 4016POPC   GL251914  42.295   4.005   5.822
 4016POPC   C1A51915  42.183   4.367   6.185
 4016POPC   D2A51916  42.460   4.358   6.549
 4016POPC   C3A51917  42.188   4.309   6.903
 4016POPC   C4A51918  42.199   4.458   7.309
 4016POPC   C1B51919  42.490   3.920   6.230
 4016POPC   C2B51920  42.632   3.893   6.676
 4016POPC   C3B51921  42.586   4.046   7.084
 4016POPC   C4B51922  42.586   3.872   7.477
 4017POPC   NC351923  39.540  11.790   5.546
 4017POPC   PO451924  40.237  11.865   5.444
 4017POPC   GL151925  39.998  11.899   5.812
 4017POPC   GL251926  39.828  12.230   5.860
 4017POPC   C1A51927  40.135  11.890   6.234
 4017POPC   D2A51928  40.072  12.121   6.578
 4017POPC   C3A51929  40.167  12.051   6.980
 4017POPC   C4A51930  40.136  12.168   7.418
 4017POPC   C1B51931  39.713  12.392   6.300
 4017POPC   C2B51932  39.586  12.350   6.739
 4017POPC   C3B51933  39.711  12.278   7.172
 4017POPC   C4B51934  39.525  12.313   7.629
 4018POPC   NC351935  32.096  39.954   5.458
 4018POPC   PO451936  32.601  40.278   5.449
 4018POPC   GL151937  32.374  40.203   5.853
 4018POPC   GL251938  32.346  39.827   5.898
 4018POPC   C1A51939  32.219  40.115   6.304
 4018POPC   D2A51940  32.411  39.950   6.706
 4018POPC   C3A51941  32.280  40.187   7.074
 4018POPC   C4A51942  31.933  40.367   7.241
 4018POPC   C1B51943  31.980  39.698   6.159
 4018POPC   C2B51944  31.867  39.846   6.589
 4018POPC   C3B51945  32.062  39.723   7.014
 4018POPC   C4B51946  32.467  39.737   7.221
 4019POPC   NC351947  20.128  44.543   5.437
 4019POPC   PO451948  19.572  44.902   5.637
 4019POPC   GL151949  19.763  44.839   5.992
 4019POPC   GL251950  19.895  44.534   5.914
 4019POPC   C1A51951  19.807  44.769   6.433
 4019POPC   D2A51952  19.788  44.639   6.843
 4019POPC   C3A51953  19.768  44.948   7.137
 4019POPC   C4A51954  20.017   0.296   7.258
 4019POPC   C1B51955  20.240  44.673   6.187
 4019POPC   C2B51956  20.314  44.592   6.659
 4019POPC   C3B51957  20.209  44.568   7.119
 4019POPC   C4B51958  19.855  44.477   7.379
 4020POPC   NC351959  21.634  38.216   5.458
 4020POPC   PO451960  21.188  38.744   5.472
 4020POPC   GL151961  21.357  38.522   5.823
 4020POPC   GL251962  21.735  38.542   5.847
 4020POPC   C1A51963  21.446  38.675   6.250
 4020POPC   D2A51964  21.313  38.608   6.681
 4020POPC   C3A51965  21.274  38.882   7.046
 4020POPC   C4A51966  21.444  38.780   7.474
 4020POPC   C1B51967  21.640  38.206   6.179
 4020POPC   C2B51968  21.616  38.176   6.663
 4020POPC   C3B51969  21.609  38.424   7.089
 4020POPC   C4B51970  21.716  38.345   7.551
 4021POPC   NC351971  17.477   4.697   5.255
 4021POPC   PO451972  17.686   5.368   5.338
 4021POPC   GL151973  17.625   5.230   5.759
 4021POPC   GL251974  17.425   4.917   5.742
 4021POPC   C1A51975  17.744   5.148   6.190
 4021POPC   D2A51976  17.545   5.333   6.541
 4021POPC   C3A51977  17.626   5.158   6.963
 4021POPC   C4A51978  17.442   5.361   7.330
 4021POPC   C1B51979  17.264   4.992   6.162
 4021POPC   C2B51980  17.349   4.846   6.597
 4021POPC   C3B51981  17.223   4.787   7.025
 4021POPC   C4B51982  17.483   4.840   7.360
 4022POPC   NC351983   8.085  21.868   5.286
 4022POPC   PO451984   8.476  22.380   5.463
 4022POPC   GL151985   8.169  22.181   5.762
 4022POPC   GL251986   7.826  22.031   5.684
 4022POPC   C1A51987   8.046  22.361   6.181
 4022POPC   D2A51988   8.041  22.165   6.598
 4022POPC   C3A51989   8.104  22.336   7.016
 4022POPC   C4A51990   8.281  22.014   7.258
 4022POPC   C1B51991   7.739  21.942   6.137
 4022POPC   C2B51992   7.569  21.995   6.580
 4022POPC   C3B51993   7.770  21.936   7.016
 4022POPC   C4B51994   7.832  21.949   7.493
 4023POPC   NC351995  33.111  31.667   5.424
 4023POPC   PO451996  32.486  31.347   5.235
 4023POPC   GL151997  32.868  31.270   5.623
 4023POPC   GL251998  32.797  31.498   5.910
 4023POPC   C1A51999  33.166  31.211   6.073
 4023POPC   D2A52000  33.133  31.361   6.574
 4023POPC   C3A52001  33.309  31.416   7.031
 4023POPC   C4A52002  33.344  31.478   7.531
 4023POPC   C1B52003  32.710  31.191   6.297
 4023POPC   C2B52004  32.685  31.176   6.779
 4023POPC   C3B52005  32.886  31.209   7.208
 4023POPC   C4B52006  32.893  31.260   7.689
 4024POPC   NC352007  40.961  13.611   4.997
 4024POPC   PO452008  40.601  13.534   5.531
 4024POPC   GL152009  40.843  13.526   5.866
 4024POPC   GL252010  41.007  13.226   5.947
 4024POPC   C1A52011  40.958  13.667   6.267
 4024POPC   D2A52012  41.088  13.984   6.550
 4024POPC   C3A52013  40.997  13.815   6.938
 4024POPC   C4A52014  41.185  13.840   7.328
 4024POPC   C1B52015  40.681  13.215   6.252
 4024POPC   C2B52016  40.794  13.321   6.658
 4024POPC   C3B52017  40.584  13.365   7.006
 4024POPC   C4B52018  40.698  13.635   7.334
 4025POPC   NC352019   6.230  24.626   5.378
 4025POPC   PO452020   5.607  24.315   5.374
 4025POPC   GL152021   5.856  24.445   5.743
 4025POPC   GL252022   5.677  24.711   5.963
 4025POPC   C1A52023   5.921  24.299   6.171
 4025POPC   D2A52024   5.798  24.510   6.560
 4025POPC   C3A52025   5.914  24.376   6.961
 4025POPC   C4A52026   5.896  24.605   7.332
 4025POPC   C1B52027   6.032  24.792   6.205
 4025POPC   C2B52028   6.172  24.952   6.602
 4025POPC   C3B52029   6.257  24.812   7.023
 4025POPC   C4B52030   6.333  24.836   7.476
 4026POPC   NC352031  41.270  29.053   5.690
 4026POPC   PO452032  41.891  29.267   5.446
 4026POPC   GL152033  41.809  29.232   5.889
 4026POPC   GL252034  41.586  28.983   6.090
 4026POPC   C1A52035  41.717  29.395   6.324
 4026POPC   D2A52036  41.524  29.130   6.638
 4026POPC   C3A52037  41.728  29.133   7.019
 4026POPC   C4A52038  41.684  29.390   7.332
 4026POPC   C1B52039  41.215  28.861   6.314
 4026POPC   C2B52040  41.090  28.730   6.720
 4026POPC   C3B52041  41.229  28.992   7.066
 4026POPC   C4B52042  41.489  28.877   7.414
 4027POPC   NC352043   8.880  26.598   5.422
 4027POPC   PO452044   9.320  27.013   5.235
 4027POPC   GL152045   9.232  26.736   5.723
 4027POPC   GL252046   8.853  26.851   5.867
 4027POPC   C1A52047   9.155  26.686   6.217
 4027POPC   D2A52048   8.908  27.007   6.483
 4027POPC   C3A52049   9.025  26.989   6.920
 4027POPC   C4A52050   9.284  26.961   7.281
 4027POPC   C1B52051   8.624  26.641   6.236
 4027POPC   C2B52052   8.692  26.589   6.702
 4027POPC   C3B52053   8.836  26.578   7.132
 4027POPC   C4B52054   8.878  26.757   7.540
 4028POPC   NC352055   4.550   3.093   5.548
 4028POPC   PO452056   4.191   2.564   5.357
 4028POPC   GL152057   4.138   2.827   5.745
 4028POPC   GL252058   4.422   2.751   5.929
 4028POPC   C1A52059   3.984   2.965   6.161
 4028POPC   D2A52060   3.834   2.824   6.573
 4028POPC   C3A52061   4.031   2.699   6.948
 4028POPC   C4A52062   4.020   2.925   7.326
 4028POPC   C1B52063   4.361   2.717   6.378
 4028POPC   C2B52064   4.303   3.031   6.665
 4028POPC   C3B52065   4.439   3.048   7.046
 4028POPC   C4B52066   4.487   2.658   7.176
 4029POPC   NC352067  15.585  23.445   5.407
 4029POPC   PO452068  16.224  23.540   5.496
 4029POPC   GL152069  15.978  23.732   5.839
 4029POPC   GL252070  15.693  23.905   5.713
 4029POPC   C1A52071  15.809  23.663   6.275
 4029POPC   D2A52072  15.685  23.551   6.706
 4029POPC   C3A52073  15.977  23.589   7.086
 4029POPC   C4A52074  15.897  23.380   7.518
 4029POPC   C1B52075  15.516  24.069   6.101
 4029POPC   C2B52076  15.541  24.045   6.568
 4029POPC   C3B52077  15.693  24.033   7.022
 4029POPC   C4B52078  15.694  23.847   7.463
 4030POPC   NC352079  44.720  37.350   5.490
 4030POPC   PO452080  44.168  37.690   5.492
 4030POPC   GL152081  44.563  37.803   5.779
 4030POPC   GL252082  44.809  37.572   5.967
 4030POPC   C1A52083  44.515  37.879   6.232
 4030POPC   D2A52084  44.484  37.566   6.571
 4030POPC   C3A52085  44.479  37.751   6.963
 4030POPC   C4A52086  44.421  37.957   7.326
 4030POPC   C1B52087  44.942  37.448   6.414
 4030POPC   C2B52088  44.866  37.415   6.882
 4030POPC   C3B52089  44.852  37.598   7.280
 4030POPC   C4B52090   0.032  37.556   7.689
 4031POPC   NC352091  16.925  14.990   5.430
 4031POPC   PO452092  16.812  15.655   5.756
 4031POPC   GL152093  16.963  15.255   5.879
 4031POPC   GL252094  16.651  15.052   5.853
 4031POPC   C1A52095  16.900  15.178   6.308
 4031POPC   D2A52096  16.598  15.357   6.607
 4031POPC   C3A52097  16.694  15.157   6.987
 4031POPC   C4A52098  16.960  15.247   7.326
 4031POPC   C1B52099  16.394  15.086   6.219
 4031POPC   C2B52100  16.389  14.852   6.587
 4031POPC   C3B52101  16.231  14.917   6.984
 4031POPC   C4B52102  16.402  14.890   7.351
 4032POPC   NC352103  19.043  43.099   5.215
 4032POPC   PO452104  18.464  43.395   5.350
 4032POPC   GL152105  18.843  43.259   5.656
 4032POPC   GL252106  18.727  42.914   5.615
 4032POPC   C1A52107  19.181  43.295   6.060
 4032POPC   D2A52108  19.414  43.510   6.440
 4032POPC   C3A52109  19.286  43.374   6.885
 4032POPC   C4A52110  19.006  43.229   7.220
 4032POPC   C1B52111  18.874  42.888   6.036
 4032POPC   C2B52112  18.975  42.905   6.479
 4032POPC   C3B52113  18.956  42.829   6.936
 4032POPC   C4B52114  18.795  42.783   7.404
 4033POPC   NC352115   4.800  35.502   5.448
 4033POPC   PO452116   4.246  35.207   5.477
 4033POPC   GL152117   4.287  35.438   5.862
 4033POPC   GL252118   4.547  35.683   5.848
 4033POPC   C1A52119   4.353  35.299   6.286
 4033POPC   D2A52120   4.427  34.946   6.587
 4033POPC   C3A52121   4.302  35.089   6.999
 4033POPC   C4A52122   4.122  35.449   7.182
 4033POPC   C1B52123   4.748  35.763   6.253
 4033POPC   C2B52124   4.614  35.827   6.679
 4033POPC   C3B52125   4.823  35.819   7.044
 4033POPC   C4B52126   4.638  35.455   7.220
 4034POPC   NC352127  35.259  19.807   5.461
 4034POPC   PO452128  35.345  19.250   5.148
 4034POPC   GL152129  35.284  19.339   5.699
 4034POPC   GL252130  35.127  19.649   5.928
 4034POPC   C1A52131  35.487  19.379   6.143
 4034POPC   D2A52132  35.498  19.747   6.433
 4034POPC   C3A52133  35.408  19.705   6.878
 4034POPC   C4A52134  35.655  19.755   7.242
 4034POPC   C1B52135  35.059  19.999   6.277
 4034POPC   C2B52136  35.096  20.107   6.738
 4034POPC   C3B52137  34.916  19.905   7.113
 4034POPC   C4B52138  34.938  19.942   7.591
 4035POPC   NC352139   3.836  32.789   5.425
 4035POPC   PO452140   3.357  32.194   5.333
 4035POPC   GL152141   3.409  32.082   5.773
 4035POPC   GL252142   3.675  32.370   5.794
 4035POPC   C1A52143   3.400  32.245   6.207
 4035POPC   D2A52144   3.682  32.342   6.522
 4035POPC   C3A52145   3.518  32.272   6.925
 4035POPC   C4A52146   3.509  32.383   7.321
 4035POPC   C1B52147   3.845  32.033   6.069
 4035POPC   C2B52148   3.908  31.908   6.509
 4035POPC   C3B52149   3.994  32.125   6.907
 4035POPC   C4B52150   3.902  32.020   7.335
 4036POPC   NC352151  42.490  13.354   5.437
 4036POPC   PO452152  41.942  13.863   5.312
 4036POPC   GL152153  42.174  13.643   5.720
 4036POPC   GL252154  42.091  13.311   5.806
 4036POPC   C1A52155  42.400  13.506   6.152
 4036POPC   D2A52156  42.632  13.391   6.539
 4036POPC   C3A52157  42.447  13.494   6.942
 4036POPC   C4A52158  42.531  13.812   7.253
 4036POPC   C1B52159  41.919  13.249   6.200
 4036POPC   C2B52160  42.137  13.250   6.583
 4036POPC   C3B52161  42.023  13.228   7.021
 4036POPC   C4B52162  42.201  13.371   7.398
 4037POPC   NC352163  18.218  42.987   5.505
 4037POPC   PO452164  17.778  43.442   5.312
 4037POPC   GL152165  18.009  43.415   5.729
 4037POPC   GL252166  18.379  43.311   5.852
 4037POPC   C1A52167  17.988  43.299   6.172
 4037POPC   D2A52168  18.273  43.406   6.497
 4037POPC   C3A52169  18.222  43.335   6.922
 4037POPC   C4A52170  18.499  43.314   7.259
 4037POPC   C1B52171  18.385  42.971   6.179
 4037POPC   C2B52172  18.298  42.893   6.619
 4037POPC   C3B52173  18.451  42.873   7.044
 4037POPC   C4B52174  18.315  42.947   7.548
 4038POPC   NC352175  27.456  22.702   5.492
 4038POPC   PO452176  27.617  22.027   5.305
 4038POPC   GL152177  27.578  22.098   5.773
 4038POPC   GL252178  27.865  22.289   5.830
 4038POPC   C1A52179  27.589  21.912   6.242
 4038POPC   D2A52180  27.676  22.073   6.704
 4038POPC   C3A52181  27.543  21.887   7.123
 4038POPC   C4A52182  27.132  21.795   7.313
 4038POPC   C1B52183  27.849  22.346   6.223
 4038POPC   C2B52184  27.876  22.560   6.581
 4038POPC   C3B52185  27.942  22.424   6.964
 4038POPC   C4B52186  27.713  22.344   7.272
 4039POPC   NC352187  28.170  15.287   5.460
 4039POPC   PO452188  28.774  15.005   5.372
 4039POPC   GL152189  28.529  15.018   5.798
 4039POPC   GL252190  28.344  15.320   5.919
 4039POPC   C1A52191  28.595  15.103   6.280
 4039POPC   D2A52192  28.337  14.971   6.623
 4039POPC   C3A52193  28.290  15.107   7.056
 4039POPC   C4A52194  28.283  14.879   7.447
 4039POPC   C1B52195  28.100  15.274   6.278
 4039POPC   C2B52196  28.078  15.467   6.680
 4039POPC   C3B52197  27.871  15.401   7.051
 4039POPC   C4B52198  27.980  15.367   7.473
 4040POPC   NC352199  37.880  43.597   5.499
 4040POPC   PO452200  37.484  42.978   5.449
 4040POPC   GL152201  37.538  43.110   5.836
 4040POPC   GL252202  37.874  43.242   5.871
 4040POPC   C1A52203  37.671  42.942   6.232
 4040POPC   D2A52204  37.889  42.749   6.545
 4040POPC   C3A52205  37.706  42.904   6.889
 4040POPC   C4A52206  37.683  42.822   7.298
 4040POPC   C1B52207  38.080  43.464   6.218
 4040POPC   C2B52208  38.133  43.647   6.622
 4040POPC   C3B52209  38.064  43.567   7.033
 4040POPC   C4B52210  38.014  43.189   7.218
 4041POPC   NC352211  35.919  39.933   5.401
 4041POPC   PO452212  36.049  40.576   5.561
 4041POPC   GL152213  36.116  40.210   5.797
 4041POPC   GL252214  35.787  40.126   5.858
 4041POPC   C1A52215  36.189  40.096   6.222
 4041POPC   D2A52216  36.183  40.292   6.618
 4041POPC   C3A52217  36.439  40.233   6.965
 4041POPC   C4A52218  36.349  40.355   7.366
 4041POPC   C1B52219  35.701  39.963   6.256
 4041POPC   C2B52220  35.862  39.835   6.653
 4041POPC   C3B52221  35.971  40.007   7.046
 4041POPC   C4B52222  36.230  39.866   7.369
 4042POPC   NC352223  23.762  29.613   5.205
 4042POPC   PO452224  23.489  30.093   5.568
 4042POPC   GL152225  23.740  29.839   5.854
 4042POPC   GL252226  23.605  29.536   5.698
 4042POPC   C1A52227  23.789  29.792   6.329
 4042POPC   D2A52228  23.857  29.900   6.762
 4042POPC   C3A52229  23.757  29.822   7.187
 4042POPC   C4A52230  23.975  29.811   7.527
 4042POPC   C1B52231  23.515  29.429   6.125
 4042POPC   C2B52232  23.346  29.527   6.538
 4042POPC   C3B52233  23.463  29.419   6.969
 4042POPC   C4B52234  23.365  29.532   7.365
 4043POPC   NC352235  12.977   4.485   5.310
 4043POPC   PO452236  12.589   3.949   5.388
 4043POPC   GL152237  12.854   4.123   5.696
 4043POPC   GL252238  12.712   4.437   5.793
 4043POPC   C1A52239  13.036   4.209   6.115
 4043POPC   D2A52240  12.930   4.399   6.503
 4043POPC   C3A52241  13.039   4.212   6.879
 4043POPC   C4A52242  13.028   4.280   7.272
 4043POPC   C1B52243  12.408   4.615   6.079
 4043POPC   C2B52244  12.437   4.567   6.518
 4043POPC   C3B52245  12.666   4.575   6.922
 4043POPC   C4B52246  12.568   4.525   7.377
 4044POPC   NC352247  20.675  21.726   5.558
 4044POPC   PO452248  20.798  21.105   5.340
 4044POPC   GL152249  20.611  21.172   5.774
 4044POPC   GL252250  20.378  21.424   5.825
 4044POPC   C1A52251  20.770  21.307   6.212
 4044POPC   D2A52252  20.818  21.132   6.652
 4044POPC   C3A52253  20.833  21.408   7.021
 4044POPC   C4A52254  20.860  21.621   7.436
 4044POPC   C1B52255  20.322  21.539   6.243
 4044POPC   C2B52256  20.338  21.308   6.622
 4044POPC   C3B52257  20.305  21.410   7.026
 4044POPC   C4B52258  20.498  21.794   7.129
 4045POPC   NC352259  26.284  17.497   5.409
 4045POPC   PO452260  26.904  17.618   5.335
 4045POPC   GL152261  26.749  17.554   5.743
 4045POPC   GL252262  26.611  17.232   5.781
 4045POPC   C1A52263  26.887  17.759   6.114
 4045POPC   D2A52264  27.118  17.734   6.508
 4045POPC   C3A52265  26.980  17.881   6.930
 4045POPC   C4A52266  27.080  17.669   7.324
 4045POPC   C1B52267  26.600  17.339   6.238
 4045POPC   C2B52268  26.779  17.278   6.674
 4045POPC   C3B52269  26.721  17.359   7.129
 4045POPC   C4B52270  26.461  17.290   7.532
 4046POPC   NC352271   1.420  31.754   5.537
 4046POPC   PO452272   0.978  31.298   5.359
 4046POPC   GL152273   1.207  31.334   5.760
 4046POPC   GL252274   1.002  31.619   5.800
 4046POPC   C1A52275   1.476  31.326   6.176
 4046POPC   D2A52276   1.592  31.249   6.633
 4046POPC   C3A52277   1.328  31.393   6.989
 4046POPC   C4A52278   1.328  31.808   7.135
 4046POPC   C1B52279   0.975  31.420   6.209
 4046POPC   C2B52280   1.138  31.632   6.571
 4046POPC   C3B52281   0.898  31.851   6.879
 4046POPC   C4B52282   0.843  31.493   7.160
 4047POPC   NC352283  19.991  28.478   5.239
 4047POPC   PO452284  19.814  27.851   5.435
 4047POPC   GL152285  19.829  28.221   5.762
 4047POPC   GL252286  19.869  28.566   5.727
 4047POPC   C1A52287  19.932  28.440   6.208
 4047POPC   D2A52288  20.073  28.608   6.634
 4047POPC   C3A52289  19.936  28.440   7.019
 4047POPC   C4A52290  19.578  28.395   7.251
 4047POPC   C1B52291  19.551  28.748   6.084
 4047POPC   C2B52292  19.611  28.879   6.578
 4047POPC   C3B52293  19.473  28.884   7.062
 4047POPC   C4B52294  19.487  28.790   7.552
 4048POPC   NC352295  23.765  11.609   5.511
 4048POPC   PO452296  24.048  11.051   5.301
 4048POPC   GL152297  23.867  11.195   5.780
 4048POPC   GL252298  23.517  11.287   5.844
 4048POPC   C1A52299  23.955  11.250   6.246
 4048POPC   D2A52300  23.907  11.463   6.665
 4048POPC   C3A52301  23.674  11.366   7.041
 4048POPC   C4A52302  23.570  11.465   7.540
 4048POPC   C1B52303  23.522  10.977   6.179
 4048POPC   C2B52304  23.662  11.009   6.601
 4048POPC   C3B52305  23.435  10.910   6.950
 4048POPC   C4B52306  23.576  10.990   7.365
 4049POPC   NC352307  41.345   2.425   5.688
 4049POPC   PO452308  40.906   2.756   5.293
 4049POPC   GL152309  40.913   2.659   5.754
 4049POPC   GL252310  40.624   2.509   5.770
 4049POPC   C1A52311  40.906   2.376   6.184
 4049POPC   D2A52312  40.697   2.372   6.619
 4049POPC   C3A52313  40.891   2.570   7.000
 4049POPC   C4A52314  40.873   2.959   7.247
 4049POPC   C1B52315  40.596   2.813   6.113
 4049POPC   C2B52316  40.431   2.791   6.492
 4049POPC   C3B52317  40.473   2.829   6.887
 4049POPC   C4B52318  40.381   2.727   7.273
 4050POPC   NC352319  20.724  11.519   5.117
 4050POPC   PO452320  20.569  11.785   5.750
 4050POPC   GL152321  20.780  11.474   5.860
 4050POPC   GL252322  20.488  11.293   5.959
 4050POPC   C1A52323  20.937  11.176   6.121
 4050POPC   D2A52324  20.971  11.042   6.512
 4050POPC   C3A52325  20.750  11.258   6.841
 4050POPC   C4A52326  20.556  11.086   7.217
 4050POPC   C1B52327  20.528  11.499   6.381
 4050POPC   C2B52328  20.267  11.466   6.786
 4050POPC   C3B52329  20.267  11.535   7.244
 4050POPC   C4B52330  20.656  11.532   7.460
 4051POPC   NC352331   4.954  28.943   5.441
 4051POPC   PO452332   5.421  29.375   5.519
 4051POPC   GL152333   5.224  29.207   5.868
 4051POPC   GL252334   4.863  29.227   5.901
 4051POPC   C1A52335   5.200  29.190   6.302
 4051POPC   D2A52336   5.091  28.895   6.592
 4051POPC   C3A52337   5.319  28.994   6.916
 4051POPC   C4A52338   5.265  28.959   7.324
 4051POPC   C1B52339   4.825  29.520   6.286
 4051POPC   C2B52340   4.960  29.397   6.711
 4051POPC   C3B52341   4.849  29.134   7.042
 4051POPC   C4B52342   4.827  29.196   7.474
 4052POPC   NC352343  43.735  12.605   5.361
 4052POPC   PO452344  44.313  12.685   5.527
 4052POPC   GL152345  43.943  12.872   5.768
 4052POPC   GL252346  43.563  12.787   5.806
 4052POPC   C1A52347  43.904  12.938   6.230
 4052POPC   D2A52348  44.092  12.978   6.645
 4052POPC   C3A52349  44.025  12.774   7.051
 4052POPC   C4A52350  43.891  13.018   7.416
 4052POPC   C1B52351  43.400  12.944   6.209
 4052POPC   C2B52352  43.575  12.880   6.651
 4052POPC   C3B52353  43.527  12.704   7.106
 4052POPC   C4B52354  43.713  12.569   7.545
 4053POPC   NC352355  36.429  35.842   5.654
 4053POPC   PO452356  35.883  36.153   5.335
 4053POPC   GL152357  36.058  36.206   5.738
 4053POPC   GL252358  36.266  36.505   5.765
 4053POPC   C1A52359  36.019  35.958   6.134
 4053POPC   D2A52360  36.326  35.810   6.437
 4053POPC   C3A52361  36.286  36.090   6.760
 4053POPC   C4A52362  36.125  36.131   7.172
 4053POPC   C1B52363  36.397  36.309   6.179
 4053POPC   C2B52364  36.506  36.510   6.574
 4053POPC   C3B52365  36.594  36.381   7.033
 4053POPC   C4B52366  36.460  36.310   7.503
 4054POPC   NC352367  26.899  40.401   5.239
 4054POPC   PO452368  26.594  39.778   5.329
 4054POPC   GL152369  26.788  39.912   5.750
 4054POPC   GL252370  26.902  40.274   5.736
 4054POPC   C1A52371  26.655  39.845   6.198
 4054POPC   D2A52372  26.520  40.118   6.545
 4054POPC   C3A52373  26.473  39.916   6.947
 4054POPC   C4A52374  26.724  39.855   7.308
 4054POPC   C1B52375  26.996  40.236   6.171
 4054POPC   C2B52376  26.946  40.430   6.565
 4054POPC   C3B52377  26.918  40.211   6.966
 4054POPC   C4B52378  27.144  40.159   7.345
 4055POPC   NC352379  29.420   9.262   5.450
 4055POPC   PO452380  28.940   8.815   5.284
 4055POPC   GL152381  29.100   8.884   5.767
 4055POPC   GL252382  29.296   9.188   5.936
 4055POPC   C1A52383  28.944   8.994   6.230
 4055POPC   D2A52384  29.197   9.254   6.553
 4055POPC   C3A52385  29.127   9.092   6.968
 4055POPC   C4A52386  28.999   8.950   7.373
 4055POPC   C1B52387  29.653   9.229   6.215
 4055POPC   C2B52388  29.749   9.406   6.612
 4055POPC   C3B52389  29.536   9.391   7.004
 4055POPC   C4B52390  29.353   9.330   7.446
 4056POPC   NC352391   0.811  42.740   5.589
 4056POPC   PO452392   0.200  43.017   5.566
 4056POPC   GL152393   0.298  43.196   5.943
 4056POPC   GL252394   0.645  43.089   5.948
 4056POPC   C1A52395   0.386  43.220   6.388
 4056POPC   D2A52396   0.084  43.057   6.670
 4056POPC   C3A52397   0.234  43.021   7.072
 4056POPC   C4A52398   0.622  42.967   7.246
 4056POPC   C1B52399   0.800  42.839   6.317
 4056POPC   C2B52400   0.579  42.867   6.714
 4056POPC   C3B52401   0.609  43.312   6.881
 4056POPC   C4B52402   0.972  43.368   7.178
 4057POPC   NC352403  28.591  13.926   5.477
 4057POPC   PO452404  28.250  13.331   5.483
 4057POPC   GL152405  28.124  13.647   5.787
 4057POPC   GL252406  28.449  13.656   5.875
 4057POPC   C1A52407  28.124  13.705   6.252
 4057POPC   D2A52408  28.325  13.638   6.633
 4057POPC   C3A52409  28.125  13.537   6.989
 4057POPC   C4A52410  28.350  13.502   7.334
 4057POPC   C1B52411  28.559  13.395   6.218
 4057POPC   C2B52412  28.819  13.538   6.544
 4057POPC   C3B52413  28.726  13.523   6.965
 4057POPC   C4B52414  28.799  13.267   7.322
 4058POPC   NC352415  42.926  11.903   5.096
 4058POPC   PO452416  43.402  12.290   5.404
 4058POPC   GL152417  43.194  12.260   5.838
 4058POPC   GL252418  42.816  12.239   5.751
 4058POPC   C1A52419  43.211  12.175   6.322
 4058POPC   D2A52420  43.283  12.439   6.710
 4058POPC   C3A52421  43.188  12.313   7.162
 4058POPC   C4A52422  43.505  12.126   7.472
 4058POPC   C1B52423  42.740  12.087   6.160
 4058POPC   C2B52424  42.866  11.832   6.517
 4058POPC   C3B52425  42.752  11.760   6.940
 4058POPC   C4B52426  42.720  12.078   7.207
 4059POPC   NC352427  32.949   9.301   5.412
 4059POPC   PO452428  33.411   8.903   5.568
 4059POPC   GL152429  33.148   9.066   5.892
 4059POPC   GL252430  32.801   9.023   5.854
 4059POPC   C1A52431  33.018   9.091   6.333
 4059POPC   D2A52432  32.901   8.821   6.674
 4059POPC   C3A52433  33.064   8.935   7.067
 4059POPC   C4A52434  33.362   9.227   7.182
 4059POPC   C1B52435  32.547   9.187   6.175
 4059POPC   C2B52436  32.556   9.200   6.590
 4059POPC   C3B52437  32.569   9.101   7.006
 4059POPC   C4B52438  32.639   8.794   7.325
 4060POPC   NC352439  18.728  15.101   5.126
 4060POPC   PO452440  19.365  14.906   5.444
 4060POPC   GL152441  19.125  15.060   5.784
 4060POPC   GL252442  18.813  14.940   5.880
 4060POPC   C1A52443  19.104  15.178   6.232
 4060POPC   D2A52444  19.372  15.321   6.584
 4060POPC   C3A52445  19.202  15.252   6.971
 4060POPC   C4A52446  19.171  15.438   7.390
 4060POPC   C1B52447  18.606  14.995   6.207
 4060POPC   C2B52448  18.746  14.872   6.559
 4060POPC   C3B52449  18.652  14.984   6.925
 4060POPC   C4B52450  18.893  15.015   7.277
 4061POPC   NC352451  31.752  27.899   5.378
 4061POPC   PO452452  31.616  27.231   5.360
 4061POPC   GL152453  31.395  27.378   5.752
 4061POPC   GL252454  31.356  27.744   5.738
 4061POPC   C1A52455  31.281  27.263   6.192
 4061POPC   D2A52456  31.429  27.166   6.625
 4061POPC   C3A52457  31.322  27.404   6.996
 4061POPC   C4A52458  31.471  27.447   7.422
 4061POPC   C1B52459  31.106  27.747   6.111
 4061POPC   C2B52460  31.275  27.668   6.546
 4061POPC   C3B52461  31.499  27.884   6.909
 4061POPC   C4B52462  31.292  27.904   7.302
 4062POPC   NC352463  14.067  25.023   5.627
 4062POPC   PO452464  14.695  25.319   5.487
 4062POPC   GL152465  14.644  25.362   5.926
 4062POPC   GL252466  14.423  25.080   5.997
 4062POPC   C1A52467  14.401  25.494   6.285
 4062POPC   D2A52468  14.303  25.374   6.704
 4062POPC   C3A52469  13.996  25.612   6.906
 4062POPC   C4A52470  14.265  25.597   7.232
 4062POPC   C1B52471  14.063  25.103   6.330
 4062POPC   C2B52472  13.870  25.110   6.791
 4062POPC   C3B52473  14.209  25.050   7.165
 4062POPC   C4B52474  14.384  25.101   7.611
 4063POPC   NC352475   1.616  40.149   5.442
 4063POPC   PO452476   0.959  39.891   5.426
 4063POPC   GL152477   1.053  40.007   5.838
 4063POPC   GL252478   1.299  40.252   5.845
 4063POPC   C1A52479   1.238  39.897   6.232
 4063POPC   D2A52480   1.443  39.917   6.633
 4063POPC   C3A52481   1.172  39.861   6.982
 4063POPC   C4A52482   1.253  39.801   7.412
 4063POPC   C1B52483   1.093  40.407   6.188
 4063POPC   C2B52484   1.037  40.258   6.595
 4063POPC   C3B52485   1.143  40.383   7.003
 4063POPC   C4B52486   0.920  40.186   7.317
 4064POPC   NC352487  18.427  33.178   5.560
 4064POPC   PO452488  18.051  32.671   5.716
 4064POPC   GL152489  18.324  32.932   5.999
 4064POPC   GL252490  18.351  33.303   6.048
 4064POPC   C1A52491  18.493  32.965   6.423
 4064POPC   D2A52492  18.576  33.212   6.793
 4064POPC   C3A52493  18.367  32.960   7.103
 4064POPC   C4A52494  17.924  32.800   7.168
 4064POPC   C1B52495  17.951  33.237   6.260
 4064POPC   C2B52496  17.879  33.132   6.692
 4064POPC   C3B52497  17.981  33.306   7.103
 4064POPC   C4B52498  17.967  33.146   7.545
 4065POPC   NC352499  20.030  33.259   5.037
 4065POPC   PO452500  19.676  32.722   5.270
 4065POPC   GL152501  19.684  32.877   5.726
 4065POPC   GL252502  20.035  32.770   5.753
 4065POPC   C1A52503  19.763  33.078   6.155
 4065POPC   D2A52504  20.141  33.022   6.442
 4065POPC   C3A52505  20.115  33.027   6.906
 4065POPC   C4A52506  19.786  33.133   7.240
 4065POPC   C1B52507  19.903  32.600   6.138
 4065POPC   C2B52508  19.978  32.526   6.557
 4065POPC   C3B52509  19.808  32.628   6.941
 4065POPC   C4B52510  20.051  32.667   7.314
 4066POPC   NC352511   7.245  42.652   5.516
 4066POPC   PO452512   7.742  42.965   5.375
 4066POPC   GL152513   7.552  42.980   5.777
 4066POPC   GL252514   7.261  43.204   5.735
 4066POPC   C1A52515   7.413  42.836   6.183
 4066POPC   D2A52516   7.279  42.996   6.570
 4066POPC   C3A52517   7.511  42.906   6.931
 4066POPC   C4A52518   7.285  42.943   7.288
 4066POPC   C1B52519   7.351  43.362   6.151
 4066POPC   C2B52520   7.397  43.498   6.586
 4066POPC   C3B52521   7.272  43.383   6.974
 4066POPC   C4B52522   7.586  43.356   7.239
 4067POPC   NC352523   7.995  12.679   5.481
 4067POPC   PO452524   8.237  12.005   5.487
 4067POPC   GL152525   8.127  12.245   5.858
 4067POPC   GL252526   7.786  12.222   5.787
 4067POPC   C1A52527   8.208  12.222   6.315
 4067POPC   D2A52528   8.442  11.981   6.645
 4067POPC   C3A52529   8.214  12.024   7.022
 4067POPC   C4A52530   8.360  12.107   7.438
 4067POPC   C1B52531   7.732  12.039   6.191
 4067POPC   C2B52532   7.740  11.835   6.581
 4067POPC   C3B52533   7.702  11.959   6.991
 4067POPC   C4B52534   7.849  12.170   7.367
 4068POPC   NC352535  44.825  38.105   5.435
 4068POPC   PO452536  44.357  38.576   5.420
 4068POPC   GL152537  44.669  38.417   5.813
 4068POPC   GL252538  44.978  38.149   5.898
 4068POPC   C1A52539  44.683  38.369   6.262
 4068POPC   D2A52540  44.434  38.510   6.601
 4068POPC   C3A52541  44.487  38.319   6.973
 4068POPC   C4A52542  44.716  38.440   7.338
 4068POPC   C1B52543   0.031  37.952   6.281
 4068POPC   C2B52544  44.805  38.012   6.666
 4068POPC   C3B52545  44.974  38.064   7.095
 4068POPC   C4B52546  44.885  38.015   7.554
 4069POPC   NC352547  37.110  43.283   5.425
 4069POPC   PO452548  36.570  42.857   5.464
 4069POPC   GL152549  36.762  43.128   5.774
 4069POPC   GL252550  36.445  43.225   5.890
 4069POPC   C1A52551  37.115  43.131   6.122
 4069POPC   D2A52552  37.197  43.279   6.554
 4069POPC   C3A52553  37.043  43.202   6.950
 4069POPC   C4A52554  37.258  43.148   7.289
 4069POPC   C1B52555  36.689  43.382   6.220
 4069POPC   C2B52556  36.673  43.299   6.617
 4069POPC   C3B52557  36.573  43.450   7.016
 4069POPC   C4B52558  36.792  43.602   7.412
 4070POPC   NC352559   9.375  24.256   5.365
 4070POPC   PO452560   9.902  24.670   5.414
 4070POPC   GL152561   9.923  24.584   5.823
 4070POPC   GL252562  10.059  24.894   5.884
 4070POPC   C1A52563   9.901  24.319   6.182
 4070POPC   D2A52564   9.744  24.297   6.604
 4070POPC   C3A52565  10.029  24.254   6.927
 4070POPC   C4A52566   9.811  24.330   7.228
 4070POPC   C1B52567   9.839  24.823   6.282
 4070POPC   C2B52568   9.714  24.968   6.698
 4070POPC   C3B52569   9.835  24.810   7.121
 4070POPC   C4B52570  10.052  24.649   7.530
 4071POPC   NC352571  31.243  35.433   5.552
 4071POPC   PO452572  31.926  35.295   5.553
 4071POPC   GL152573  31.613  35.237   5.873
 4071POPC   GL252574  31.326  34.987   5.777
 4071POPC   C1A52575  31.576  35.398   6.305
 4071POPC   D2A52576  31.318  35.590   6.639
 4071POPC   C3A52577  31.582  35.766   6.947
 4071POPC   C4A52578  31.744  35.540   7.290
 4071POPC   C1B52579  31.223  35.010   6.214
 4071POPC   C2B52580  31.320  35.071   6.646
 4071POPC   C3B52581  31.354  35.253   7.049
 4071POPC   C4B52582  31.166  35.614   7.200
 4072POPC   NC352583  39.432  28.939   5.461
 4072POPC   PO452584  39.322  28.344   5.151
 4072POPC   GL152585  39.257  28.248   5.608
 4072POPC   GL252586  39.213  28.565   5.748
 4072POPC   C1A52587  39.491  28.200   6.045
 4072POPC   D2A52588  39.568  28.090   6.487
 4072POPC   C3A52589  39.295  28.073   6.833
 4072POPC   C4A52590  39.463  28.230   7.196
 4072POPC   C1B52591  39.042  28.449   6.152
 4072POPC   C2B52592  39.197  28.532   6.550
 4072POPC   C3B52593  39.163  28.595   6.979
 4072POPC   C4B52594  39.479  28.762   7.201
 4073POPC   NC352595  14.654   5.399   5.510
 4073POPC   PO452596  14.931   4.899   5.160
 4073POPC   GL152597  14.666   4.852   5.598
 4073POPC   GL252598  14.257   4.829   5.707
 4073POPC   C1A52599  14.623   4.971   6.057
 4073POPC   D2A52600  14.491   4.885   6.494
 4073POPC   C3A52601  14.643   5.170   6.831
 4073POPC   C4A52602  14.456   5.422   7.177
 4073POPC   C1B52603  14.051   4.790   6.148
 4073POPC   C2B52604  13.923   4.924   6.550
 4073POPC   C3B52605  14.128   5.111   6.867
 4073POPC   C4B52606  14.297   4.933   7.186
 4074POPC   NC352607  43.256   4.766   5.376
 4074POPC   PO452608  42.922   5.340   5.395
 4074POPC   GL152609  43.058   5.059   5.749
 4074POPC   GL252610  42.783   5.028   5.953
 4074POPC   C1A52611  43.302   5.063   6.150
 4074POPC   D2A52612  43.261   5.461   6.402
 4074POPC   C3A52613  43.470   5.509   6.809
 4074POPC   C4A52614  43.367   5.720   7.191
 4074POPC   C1B52615  42.879   5.099   6.406
 4074POPC   C2B52616  43.155   5.121   6.777
 4074POPC   C3B52617  43.112   5.120   7.219
 4074POPC   C4B52618  42.778   5.301   7.442
 4075POPC   NC352619  30.456  18.517   5.463
 4075POPC   PO452620  30.881  18.070   5.657
 4075POPC   GL152621  30.623  18.283   5.934
 4075POPC   GL252622  30.621  18.656   5.944
 4075POPC   C1A52623  30.815  18.330   6.348
 4075POPC   D2A52624  31.035  18.045   6.597
 4075POPC   C3A52625  30.942  18.090   7.019
 4075POPC   C4A52626  30.543  18.127   7.216
 4075POPC   C1B52627  30.338  18.482   6.305
 4075POPC   C2B52628  30.377  18.371   6.761
 4075POPC   C3B52629  30.345  18.592   7.172
 4075POPC   C4B52630  30.470  18.486   7.610
 4076POPC   NC352631  29.267   5.205   5.465
 4076POPC   PO452632  28.751   5.381   5.661
 4076POPC   GL152633  29.058   5.171   5.935
 4076POPC   GL252634  29.265   4.871   5.879
 4076POPC   C1A52635  29.153   5.120   6.361
 4076POPC   D2A52636  29.295   5.347   6.712
 4076POPC   C3A52637  29.108   5.203   7.100
 4076POPC   C4A52638  29.270   5.179   7.514
 4076POPC   C1B52639  29.422   4.686   6.280
 4076POPC   C2B52640  29.442   4.852   6.735
 4076POPC   C3B52641  29.377   4.777   7.192
 4076POPC   C4B52642  29.059   4.714   7.528
 4077POPC   NC352643  35.874  17.291   5.671
 4077POPC   PO452644  36.417  17.714   5.549
 4077POPC   GL152645  36.377  17.599   5.919
 4077POPC   GL252646  36.042  17.704   5.950
 4077POPC   C1A52647  36.427  17.522   6.342
 4077POPC   D2A52648  36.219  17.670   6.701
 4077POPC   C3A52649  36.388  17.606   7.101
 4077POPC   C4A52650  36.391  17.602   7.527
 4077POPC   C1B52651  35.871  17.533   6.316
 4077POPC   C2B52652  35.726  17.266   6.656
 4077POPC   C3B52653  35.877  17.418   7.055
 4077POPC   C4B52654  35.954  17.891   7.093
 4078POPC   NC352655  28.466  25.591   5.494
 4078POPC   PO452656  28.233  24.991   5.518
 4078POPC   GL152657  28.456  25.225   5.845
 4078POPC   GL252658  28.152  25.448   5.883
 4078POPC   C1A52659  28.574  25.432   6.249
 4078POPC   D2A52660  28.420  25.648   6.650
 4078POPC   C3A52661  28.515  25.395   7.031
 4078POPC   C4A52662  28.503  25.111   7.392
 4078POPC   C1B52663  28.130  25.143   6.215
 4078POPC   C2B52664  28.279  25.149   6.607
 4078POPC   C3B52665  28.114  25.051   6.973
 4078POPC   C4B52666  28.005  25.239   7.381
 4079POPC   NC352667  23.512   4.270   5.414
 4079POPC   PO452668  24.181   4.429   5.411
 4079POPC   GL152669  23.907   4.358   5.809
 4079POPC   GL252670  23.681   4.052   5.840
 4079POPC   C1A52671  23.861   4.299   6.276
 4079POPC   D2A52672  23.815   4.575   6.658
 4079POPC   C3A52673  23.845   4.324   6.969
 4079POPC   C4A52674  23.735   4.122   7.334
 4079POPC   C1B52675  23.386   4.156   6.161
 4079POPC   C2B52676  23.495   4.141   6.604
 4079POPC   C3B52677  23.345   4.185   7.014
 4079POPC   C4B52678  23.255   3.910   7.333
 4080POPC   NC352679  12.080  29.855   5.457
 4080POPC   PO452680  12.288  30.363   5.147
 4080POPC   GL152681  12.351  30.238   5.682
 4080POPC   GL252682  12.395  29.882   5.854
 4080POPC   C1A52683  12.183  30.217   6.185
 4080POPC   D2A52684  12.213  29.998   6.636
 4080POPC   C3A52685  12.258  30.213   7.069
 4080POPC   C4A52686  12.482  30.066   7.470
 4080POPC   C1B52687  12.121  29.681   6.192
 4080POPC   C2B52688  11.895  29.579   6.610
 4080POPC   C3B52689  11.857  29.683   7.082
 4080POPC   C4B52690  11.727  29.713   7.550
 4081POPC   NC352691  35.887   8.499   5.331
 4081POPC   PO452692  36.065   9.175   5.241
 4081POPC   GL152693  35.946   8.912   5.635
 4081POPC   GL252694  36.223   8.719   5.759
 4081POPC   C1A52695  35.905   8.920   6.125
 4081POPC   D2A52696  36.046   9.238   6.436
 4081POPC   C3A52697  36.080   9.137   6.893
 4081POPC   C4A52698  35.844   9.384   7.192
 4081POPC   C1B52699  36.425   8.967   6.088
 4081POPC   C2B52700  36.318   8.831   6.499
 4081POPC   C3B52701  36.484   8.788   6.881
 4081POPC   C4B52702  36.318   8.745   7.262
 4082POPC   NC352703  20.310  13.961   5.486
 4082POPC   PO452704  20.883  13.665   5.147
 4082POPC   GL152705  20.886  13.555   5.600
 4082POPC   GL252706  20.554  13.490   5.725
 4082POPC   C1A52707  20.944  13.638   6.053
 4082POPC   D2A52708  20.683  13.715   6.414
 4082POPC   C3A52709  20.749  13.427   6.751
 4082POPC   C4A52710  20.822  13.628   7.137
 4082POPC   C1B52711  20.344  13.447   6.123
 4082POPC   C2B52712  20.244  13.426   6.570
 4082POPC   C3B52713  20.372  13.771   6.841
 4082POPC   C4B52714  20.331  13.873   7.242
 4083POPC   NC352715   0.747  16.659   5.396
 4083POPC   PO452716   0.146  16.879   5.263
 4083POPC   GL152717   0.311  16.683   5.675
 4083POPC   GL252718   0.514  16.371   5.780
 4083POPC   C1A52719   0.286  16.696   6.143
 4083POPC   D2A52720   0.447  16.679   6.574
 4083POPC   C3A52721   0.312  16.998   6.836
 4083POPC   C4A52722   0.226  17.029   7.259
 4083POPC   C1B52723   0.780  16.505   6.136
 4083POPC   C2B52724   0.942  16.474   6.599
 4083POPC   C3B52725   0.831  16.562   7.048
 4083POPC   C4B52726   0.393  16.574   7.135
 4084POPC   NC352727  15.193  35.955   5.611
 4084POPC   PO452728  15.091  36.456   5.202
 4084POPC   GL152729  15.150  36.465   5.735
 4084POPC   GL252730  15.019  36.178   6.017
 4084POPC   C1A52731  15.373  36.501   6.176
 4084POPC   D2A52732  15.363  36.116   6.435
 4084POPC   C3A52733  15.372  36.123   6.881
 4084POPC   C4A52734  15.453  35.978   7.307
 4084POPC   C1B52735  14.897  36.427   6.315
 4084POPC   C2B52736  14.966  36.503   6.735
 4084POPC   C3B52737  14.784  36.245   7.065
 4084POPC   C4B52738  14.774  36.295   7.496
 4085POPC   NC352739  28.515  12.930   5.429
 4085POPC   PO452740  28.099  12.370   5.350
 4085POPC   GL152741  28.059  12.592   5.763
 4085POPC   GL252742  27.974  12.949   5.698
 4085POPC   C1A52743  28.248  12.756   6.169
 4085POPC   D2A52744  28.597  12.853   6.487
 4085POPC   C3A52745  28.501  13.075   6.882
 4085POPC   C4A52746  28.506  12.840   7.273
 4085POPC   C1B52747  28.006  13.214   6.084
 4085POPC   C2B52748  28.145  13.177   6.494
 4085POPC   C3B52749  27.992  13.031   6.873
 4085POPC   C4B52750  28.051  13.091   7.295
 4086POPC   NC352751  22.574   5.597   5.535
 4086POPC   PO452752  22.971   6.138   5.504
 4086POPC   GL152753  22.988   5.852   5.817
 4086POPC   GL252754  23.293   5.964   5.955
 4086POPC   C1A52755  22.772   5.793   6.201
 4086POPC   D2A52756  22.911   5.826   6.623
 4086POPC   C3A52757  22.642   5.632   6.929
 4086POPC   C4A52758  22.660   5.830   7.317
 4086POPC   C1B52759  23.327   5.568   6.135
 4086POPC   C2B52760  23.399   5.468   6.583
 4086POPC   C3B52761  23.138   5.495   6.960
 4086POPC   C4B52762  23.174   5.710   7.381
 4087POPC   NC352763   5.472  21.379   5.658
 4087POPC   PO452764   5.079  21.728   5.158
 4087POPC   GL152765   4.986  21.732   5.722
 4087POPC   GL252766   5.251  21.648   6.023
 4087POPC   C1A52767   4.777  21.610   6.151
 4087POPC   D2A52768   4.981  21.611   6.581
 4087POPC   C3A52769   4.815  21.316   6.902
 4087POPC   C4A52770   4.917  21.450   7.337
 4087POPC   C1B52771   5.169  21.253   6.235
 4087POPC   C2B52772   5.193  21.080   6.634
 4087POPC   C3B52773   5.325  21.329   6.977
 4087POPC   C4B52774   5.333  21.198   7.389
 4088POPC   NC352775  11.799  20.443   5.433
 4088POPC   PO452776  12.257  20.834   5.488
 4088POPC   GL152777  12.041  20.651   5.838
 4088POPC   GL252778  12.271  20.379   5.825
 4088POPC   C1A52779  11.993  20.740   6.286
 4088POPC   D2A52780  12.350  20.812   6.589
 4088POPC   C3A52781  12.240  20.730   7.029
 4088POPC   C4A52782  12.091  20.982   7.359
 4088POPC   C1B52783  12.306  20.344   6.279
 4088POPC   C2B52784  12.022  20.307   6.634
 4088POPC   C3B52785  12.102  20.144   7.045
 4088POPC   C4B52786  12.309  20.194   7.446
 4089POPC   NC352787  40.025   3.702   5.472
 4089POPC   PO452788  40.550   3.339   5.404
 4089POPC   GL152789  40.290   3.458   5.827
 4089POPC   GL252790  39.887   3.374   5.860
 4089POPC   C1A52791  40.143   3.687   6.241
 4089POPC   D2A52792  40.154   3.946   6.657
 4089POPC   C3A52793  40.356   3.737   7.040
 4089POPC   C4A52794  40.292   3.494   7.445
 4089POPC   C1B52795  39.729   3.378   6.306
 4089POPC   C2B52796  39.815   3.558   6.728
 4089POPC   C3B52797  39.870   3.599   7.178
 4089POPC   C4B52798  39.780   3.462   7.602
 4090POPC   NC352799  37.837  20.318   5.572
 4090POPC   PO452800  37.287  20.662   5.497
 4090POPC   GL152801  37.479  20.512   5.867
 4090POPC   GL252802  37.821  20.706   5.887
 4090POPC   C1A52803  37.643  20.267   6.237
 4090POPC   D2A52804  37.580  20.048   6.637
 4090POPC   C3A52805  37.554  20.313   7.029
 4090POPC   C4A52806  37.393  20.765   7.118
 4090POPC   C1B52807  37.550  20.821   6.246
 4090POPC   C2B52808  37.562  20.638   6.627
 4090POPC   C3B52809  37.872  20.715   6.926
 4090POPC   C4B52810  38.066  20.779   7.276
 4091POPC   NC352811  19.579  16.820   5.366
 4091POPC   PO452812  20.148  16.406   5.219
 4091POPC   GL152813  19.992  16.609   5.627
 4091POPC   GL252814  19.922  16.959   5.726
 4091POPC   C1A52815  20.032  16.511   6.086
 4091POPC   D2A52816  20.194  16.686   6.482
 4091POPC   C3A52817  19.959  16.546   6.837
 4091POPC   C4A52818  20.121  16.362   7.222
 4091POPC   C1B52819  19.909  17.007   6.175
 4091POPC   C2B52820  19.821  17.070   6.631
 4091POPC   C3B52821  19.873  17.010   7.083
 4091POPC   C4B52822  19.675  16.645   7.244
 4092POPC   NC352823  10.776   1.373   5.500
 4092POPC   PO452824  10.537   0.686   5.531
 4092POPC   GL152825  10.752   0.947   5.805
 4092POPC   GL252826  10.484   1.190   5.869
 4092POPC   C1A52827  11.013   0.973   6.203
 4092POPC   D2A52828  11.034   0.913   6.680
 4092POPC   C3A52829  10.665   1.106   6.931
 4092POPC   C4A52830  10.279   0.924   7.130
 4092POPC   C1B52831  10.337   1.476   6.179
 4092POPC   C2B52832  10.502   1.482   6.566
 4092POPC   C3B52833  10.242   1.406   6.878
 4092POPC   C4B52834  10.339   1.452   7.262
 4093POPC   NC352835   0.901  29.088   5.307
 4093POPC   PO452836   1.452  28.850   5.617
 4093POPC   GL152837   1.226  29.147   5.829
 4093POPC   GL252838   0.839  29.078   5.802
 4093POPC   C1A52839   1.372  29.245   6.264
 4093POPC   D2A52840   1.510  28.925   6.550
 4093POPC   C3A52841   1.389  28.832   6.965
 4093POPC   C4A52842   1.509  29.188   7.172
 4093POPC   C1B52843   0.919  29.031   6.217
 4093POPC   C2B52844   0.922  29.393   6.479
 4093POPC   C3B52845   1.133  29.262   6.817
 4093POPC   C4B52846   1.005  29.076   7.207
 4094POPC   NC352847  42.755  35.688   5.127
 4094POPC   PO452848  42.278  36.031   5.465
 4094POPC   GL152849  42.248  36.355   5.801
 4094POPC   GL252850  42.539  36.211   5.932
 4094POPC   C1A52851  42.393  36.548   6.244
 4094POPC   D2A52852  42.425  36.403   6.691
 4094POPC   C3A52853  42.466  36.541   7.146
 4094POPC   C4A52854  42.401  36.409   7.588
 4094POPC   C1B52855  42.234  36.043   6.232
 4094POPC   C2B52856  42.036  36.069   6.623
 4094POPC   C3B52857  42.156  36.134   7.033
 4094POPC   C4B52858  42.143  35.979   7.423
 4095POPC   NC352859  39.754   8.031   5.511
 4095POPC   PO452860  40.196   8.533   5.483
 4095POPC   GL152861  40.045   8.314   5.853
 4095POPC   GL252862  40.124   7.940   5.861
 4095POPC   C1A52863  39.899   8.480   6.254
 4095POPC   D2A52864  39.530   8.476   6.520
 4095POPC   C3A52865  39.636   8.539   6.923
 4095POPC   C4A52866  39.954   8.514   7.208
 4095POPC   C1B52867  40.258   8.092   6.289
 4095POPC   C2B52868  40.024   8.156   6.696
 4095POPC   C3B52869  39.969   8.013   7.128
 4095POPC   C4B52870  40.249   8.116   7.452
 4096POPC   NC352871  29.848  24.846   5.410
 4096POPC   PO452872  30.248  24.434   5.187
 4096POPC   GL152873  30.094  24.443   5.674
 4096POPC   GL252874  29.731  24.512   5.776
 4096POPC   C1A52875  30.180  24.371   6.164
 4096POPC   D2A52876  30.036  24.235   6.597
 4096POPC   C3A52877  30.182  24.470   6.951
 4096POPC   C4A52878  30.314  24.413   7.379
 4096POPC   C1B52879  29.673  24.369   6.196
 4096POPC   C2B52880  29.561  24.450   6.588
 4096POPC   C3B52881  29.672  24.369   6.985
 4096POPC   C4B52882  29.795  24.671   7.271
 4097POPC   NC352883  24.465  40.284   5.405
 4097POPC   PO452884  24.335  39.639   5.333
 4097POPC   GL152885  24.262  39.828   5.754
 4097POPC   GL252886  24.527  40.046   5.858
 4097POPC   C1A52887  24.185  39.814   6.204
 4097POPC   D2A52888  24.404  39.565   6.506
 4097POPC   C3A52889  24.397  39.681   6.924
 4097POPC   C4A52890  24.372  39.754   7.359
 4097POPC   C1B52891  24.510  40.207   6.284
 4097POPC   C2B52892  24.264  40.121   6.664
 4097POPC   C3B52893  24.435  40.182   7.080
 4097POPC   C4B52894  24.410  40.454   7.450
 4098POPC   NC352895   2.308  38.429   5.493
 4098POPC   PO452896   1.747  38.222   5.148
 4098POPC   GL152897   1.772  38.409   5.595
 4098POPC   GL252898   1.660  38.138   5.861
 4098POPC   C1A52899   1.893  38.574   6.029
 4098POPC   D2A52900   1.807  38.487   6.472
 4098POPC   C3A52901   2.075  38.328   6.780
 4098POPC   C4A52902   2.057  38.591   7.112
 4098POPC   C1B52903   1.738  38.024   6.278
 4098POPC   C2B52904   1.539  38.047   6.673
 4098POPC   C3B52905   1.636  38.251   7.032
 4098POPC   C4B52906   1.681  38.186   7.441
 4099POPC   NC352907   1.409  31.015   5.386
 4099POPC   PO452908   1.004  30.482   5.633
 4099POPC   GL152909   1.153  30.821   5.893
 4099POPC   GL252910   1.522  30.912   5.863
 4099POPC   C1A52911   1.252  30.875   6.334
 4099POPC   D2A52912   1.062  31.118   6.655
 4099POPC   C3A52913   1.035  30.978   7.087
 4099POPC   C4A52914   0.993  31.064   7.514
 4099POPC   C1B52915   1.559  30.503   6.071
 4099POPC   C2B52916   1.569  30.470   6.499
 4099POPC   C3B52917   1.419  30.729   6.827
 4099POPC   C4B52918   1.249  30.512   7.161
 4100POPC   NC352919  26.920  43.516   5.490
 4100POPC   PO452920  26.433  43.076   5.400
 4100POPC   GL152921  26.529  43.272   5.799
 4100POPC   GL252922  26.849  43.110   5.836
 4100POPC   C1A52923  26.515  43.176   6.260
 4100POPC   D2A52924  26.613  42.897   6.629
 4100POPC   C3A52925  26.557  43.085   7.036
 4100POPC   C4A52926  26.805  42.944   7.372
 4100POPC   C1B52927  27.014  43.290   6.210
 4100POPC   C2B52928  26.869  43.338   6.631
 4100POPC   C3B52929  27.051  43.136   6.966
 4100POPC   C4B52930  27.282  43.217   7.335
 4101POPC   NC352931  24.134   5.739   5.428
 4101POPC   PO452932  24.595   6.068   5.147
 4101POPC   GL152933  24.534   5.989   5.650
 4101POPC   GL252934  24.478   5.655   5.804
 4101POPC   C1A52935  24.484   6.114   6.112
 4101POPC   D2A52936  24.260   5.966   6.511
 4101POPC   C3A52937  24.483   6.006   6.891
 4101POPC   C4A52938  24.503   6.029   7.339
 4101POPC   C1B52939  24.318   5.550   6.217
 4101POPC   C2B52940  24.444   5.497   6.664
 4101POPC   C3B52941  24.499   5.544   7.123
 4101POPC   C4B52942  24.494   5.582   7.597
 4102POPC   NC352943  40.743  38.309   5.275
 4102POPC   PO452944  41.056  38.906   5.283
 4102POPC   GL152945  41.054  38.615   5.666
 4102POPC   GL252946  41.114  38.248   5.674
 4102POPC   C1A52947  40.797  38.512   6.071
 4102POPC   D2A52948  40.618  38.455   6.506
 4102POPC   C3A52949  40.816  38.466   6.934
 4102POPC   C4A52950  40.745  38.574   7.372
 4102POPC   C1B52951  41.121  38.092   6.120
 4102POPC   C2B52952  41.300  37.954   6.504
 4102POPC   C3B52953  41.255  38.074   6.912
 4102POPC   C4B52954  41.099  38.235   7.298
 4103POPC   NC352955  33.276  32.377   5.468
 4103POPC   PO452956  32.747  31.931   5.540
 4103POPC   GL152957  33.008  32.115   5.808
 4103POPC   GL252958  33.165  31.863   5.932
 4103POPC   C1A52959  33.035  32.348   6.197
 4103POPC   D2A52960  32.816  32.503   6.572
 4103POPC   C3A52961  33.023  32.609   6.964
 4103POPC   C4A52962  33.001  32.220   7.164
 4103POPC   C1B52963  32.747  31.905   6.201
 4103POPC   C2B52964  32.635  31.649   6.543
 4103POPC   C3B52965  32.884  31.704   6.896
 4103POPC   C4B52966  32.969  31.712   7.304
 4104POPC   NC352967  43.037   0.824   5.382
 4104POPC   PO452968  43.495   0.263   5.451
 4104POPC   GL152969  43.220   0.362   5.798
 4104POPC   GL252970  43.333   0.692   5.811
 4104POPC   C1A52971  43.012   0.435   6.219
 4104POPC   D2A52972  42.810   0.270   6.609
 4104POPC   C3A52973  42.924   0.484   7.015
 4104POPC   C4A52974  42.918   0.517   7.476
 4104POPC   C1B52975  43.463   0.638   6.240
 4104POPC   C2B52976  43.270   0.650   6.635
 4104POPC   C3B52977  43.427   0.629   7.061
 4104POPC   C4B52978  43.382   0.687   7.500
 4105POPC   NC352979  35.009  24.921   5.510
 4105POPC   PO452980  35.622  24.557   5.353
 4105POPC   GL152981  35.421  24.632   5.769
 4105POPC   GL252982  35.343  24.284   5.849
 4105POPC   C1A52983  35.313  24.635   6.242
 4105POPC   D2A52984  35.604  24.624   6.587
 4105POPC   C3A52985  35.555  24.824   6.986
 4105POPC   C4A52986  35.203  24.772   7.258
 4105POPC   C1B52987  34.982  24.248   6.156
 4105POPC   C2B52988  34.868  24.382   6.546
 4105POPC   C3B52989  35.130  24.464   6.868
 4105POPC   C4B52990  34.992  24.255   7.227
 4106POPC   NC352991  41.878  26.041   5.256
 4106POPC   PO452992  42.375  26.470   5.424
 4106POPC   GL152993  42.462  26.157   5.769
 4106POPC   GL252994  42.148  25.967   5.729
 4106POPC   C1A52995  42.496  25.971   6.201
 4106POPC   D2A52996  42.565  26.209   6.572
 4106POPC   C3A52997  42.434  26.074   6.939
 4106POPC   C4A52998  42.538  26.060   7.335
 4106POPC   C1B52999  42.045  26.205   6.108
 4106POPC   C2B53000  42.063  26.041   6.528
 4106POPC   C3B53001  41.932  26.046   6.944
 4106POPC   C4B53002  42.087  25.828   7.316
 4107POPC   NC353003  31.604  21.709   5.575
 4107POPC   PO453004  31.273  21.144   5.515
 4107POPC   GL153005  31.447  21.245   5.877
 4107POPC   GL253006  31.771  21.253   5.855
 4107POPC   C1A53007  31.508  21.338   6.294
 4107POPC   D2A53008  31.334  21.247   6.671
 4107POPC   C3A53009  31.601  21.512   6.912
 4107POPC   C4A53010  31.451  21.787   7.234
 4107POPC   C1B53011  31.792  20.918   6.196
 4107POPC   C2B53012  32.031  20.900   6.591
 4107POPC   C3B53013  31.983  21.130   7.002
 4107POPC   C4B53014  31.689  21.230   7.338
 4108POPC   NC353015   9.987  15.047   5.545
 4108POPC   PO453016   9.534  15.452   5.303
 4108POPC   GL153017   9.496  15.237   5.687
 4108POPC   GL253018   9.509  14.870   5.706
 4108POPC   C1A53019   9.737  15.248   6.085
 4108POPC   D2A53020   9.602  15.137   6.476
 4108POPC   C3A53021   9.852  15.279   6.814
 4108POPC   C4A53022   9.696  15.257   7.223
 4108POPC   C1B53023   9.721  14.744   6.120
 4108POPC   C2B53024   9.949  14.754   6.552
 4108POPC   C3B53025   9.811  14.807   7.006
 4108POPC   C4B53026   9.759  14.825   7.486
 4109POPC   NC353027  41.946  23.808   5.564
 4109POPC   PO453028  42.560  23.497   5.541
 4109POPC   GL153029  42.390  23.724   5.891
 4109POPC   GL253030  42.657  23.776   6.145
 4109POPC   C1A53031  42.189  24.031   6.174
 4109POPC   D2A53032  42.089  24.026   6.621
 4109POPC   C3A53033  42.397  23.831   6.891
 4109POPC   C4A53034  42.319  23.827   7.336
 4109POPC   C1B53035  42.296  23.561   6.380
 4109POPC   C2B53036  42.027  23.491   6.739
 4109POPC   C3B53037  42.105  23.351   7.132
 4109POPC   C4B53038  42.288  23.368   7.559
 4110POPC   NC353039   0.798  24.130   5.627
 4110POPC   PO453040   0.500  24.676   5.483
 4110POPC   GL153041   0.268  24.533   5.812
 4110POPC   GL253042   0.589  24.478   5.980
 4110POPC   C1A53043   0.101  24.717   6.188
 4110POPC   D2A53044   0.276  24.616   6.586
 4110POPC   C3A53045   0.043  24.685   6.965
 4110POPC   C4A53046   0.317  24.535   7.264
 4110POPC   C1B53047   0.661  24.168   6.293
 4110POPC   C2B53048   0.507  24.145   6.701
 4110POPC   C3B53049   0.697  24.220   7.090
 4110POPC   C4B53050   0.535  24.135   7.515
 4111POPC   NC353051  31.474  42.131   5.447
 4111POPC   PO453052  31.552  42.753   5.325
 4111POPC   GL153053  31.677  42.547   5.745
 4111POPC   GL253054  31.362  42.423   5.873
 4111POPC   C1A53055  31.730  42.356   6.201
 4111POPC   D2A53056  31.530  42.244   6.605
 4111POPC   C3A53057  31.502  42.500   6.986
 4111POPC   C4A53058  31.144  42.801   7.013
 4111POPC   C1B53059  31.158  42.057   6.082
 4111POPC   C2B53060  31.123  41.897   6.502
 4111POPC   C3B53061  31.201  42.016   6.940
 4111POPC   C4B53062  31.252  41.973   7.383
 4112POPC   NC353063   5.826   5.302   5.101
 4112POPC   PO453064   6.187   5.086   5.640
 4112POPC   GL153065   5.895   5.161   5.945
 4112POPC   GL253066   6.055   5.446   6.002
 4112POPC   C1A53067   5.915   4.978   6.361
 4112POPC   D2A53068   5.827   5.108   6.764
 4112POPC   C3A53069   5.830   4.809   7.078
 4112POPC   C4A53070   5.780   4.861   7.499
 4112POPC   C1B53071   6.340   5.243   6.268
 4112POPC   C2B53072   6.352   5.305   6.698
 4112POPC   C3B53073   6.136   5.393   7.084
 4112POPC   C4B53074   5.725   5.315   7.256
 4113POPC   NC353075   4.672   5.685   5.506
 4113POPC   PO453076   4.029   5.656   5.361
 4113POPC   GL153077   4.191   6.022   5.671
 4113POPC   GL253078   4.554   6.066   5.862
 4113POPC   C1A53079   4.145   6.078   6.142
 4113POPC   D2A53080   4.346   6.067   6.558
 4113POPC   C3A53081   4.129   5.904   6.948
 4113POPC   C4A53082   4.335   5.632   7.255
 4113POPC   C1B53083   4.808   6.088   6.276
 4113POPC   C2B53084   4.819   6.214   6.727
 4113POPC   C3B53085   4.578   6.097   7.101
 4113POPC   C4B53086   4.641   5.901   7.549
 4114POPC   NC353087  17.015  19.371   5.388
 4114POPC   PO453088  16.521  18.960   5.172
 4114POPC   GL153089  16.524  18.997   5.654
 4114POPC   GL253090  16.758  19.222   5.833
 4114POPC   C1A53091  16.470  18.928   6.136
 4114POPC   D2A53092  16.699  18.877   6.545
 4114POPC   C3A53093  16.521  18.929   6.966
 4114POPC   C4A53094  16.740  18.907   7.388
 4114POPC   C1B53095  16.817  19.316   6.276
 4114POPC   C2B53096  16.677  19.400   6.711
 4114POPC   C3B53097  16.892  19.270   7.074
 4114POPC   C4B53098  17.109  19.408   7.428
 4115POPC   NC353099   4.539  28.159   5.505
 4115POPC   PO453100   4.100  28.535   5.148
 4115POPC   GL153101   4.087  28.454   5.637
 4115POPC   GL253102   4.116  28.084   5.781
 4115POPC   C1A53103   4.060  28.445   6.125
 4115POPC   D2A53104   4.070  28.195   6.540
 4115POPC   C3A53105   4.214  28.461   6.912
 4115POPC   C4A53106   4.083  28.480   7.353
 4115POPC   C1B53107   4.442  28.065   6.139
 4115POPC   C2B53108   4.571  28.004   6.579
 4115POPC   C3B53109   4.374  27.968   6.998
 4115POPC   C4B53110   4.563  28.282   7.258
 4116POPC   NC353111  13.897  42.451   5.047
 4116POPC   PO453112  14.558  42.539   5.263
 4116POPC   GL153113  14.511  42.358   5.699
 4116POPC   GL253114  14.148  42.274   5.786
 4116POPC   C1A53115  14.468  42.349   6.167
 4116POPC   D2A53116  14.340  42.589   6.531
 4116POPC   C3A53117  14.355  42.413   6.948
 4116POPC   C4A53118  14.345  42.594   7.351
 4116POPC   C1B53119  14.090  41.993   6.119
 4116POPC   C2B53120  14.183  42.085   6.535
 4116POPC   C3B53121  14.170  41.948   6.958
 4116POPC   C4B53122  14.307  42.061   7.418
 4117POPC   NC353123   1.160  23.635   5.431
 4117POPC   PO453124   1.823  23.659   5.383
 4117POPC   GL153125   1.561  23.471   5.766
 4117POPC   GL253126   1.170  23.473   5.893
 4117POPC   C1A53127   1.549  23.581   6.223
 4117POPC   D2A53128   1.355  23.771   6.598
 4117POPC   C3A53129   1.436  23.556   6.965
 4117POPC   C4A53130   1.378  23.692   7.348
 4117POPC   C1B53131   1.005  23.764   6.208
 4117POPC   C2B53132   0.806  23.730   6.620
 4117POPC   C3B53133   0.967  23.775   7.034
 4117POPC   C4B53134   0.884  23.726   7.471
 4118POPC   NC353135  21.661  35.504   5.391
 4118POPC   PO453136  21.025  35.154   5.315
 4118POPC   GL153137  21.163  35.402   5.709
 4118POPC   GL253138  21.524  35.429   5.878
 4118POPC   C1A53139  21.112  35.336   6.172
 4118POPC   D2A53140  21.357  35.067   6.460
 4118POPC   C3A53141  21.373  35.210   6.871
 4118POPC   C4A53142  21.226  35.364   7.240
 4118POPC   C1B53143  21.783  35.346   6.280
 4118POPC   C2B53144  21.811  35.437   6.753
 4118POPC   C3B53145  21.815  35.293   7.204
 4118POPC   C4B53146  21.635  35.473   7.594
 4119POPC   NC353147   5.097  31.519   5.121
 4119POPC   PO453148   5.687  31.270   5.460
 4119POPC   GL153149   5.271  31.268   5.713
 4119POPC   GL253150   5.139  31.621   5.771
 4119POPC   C1A53151   4.996  31.254   6.111
 4119POPC   D2A53152   4.804  31.475   6.442
 4119POPC   C3A53153   4.925  31.451   6.867
 4119POPC   C4A53154   5.071  31.508   7.279
 4119POPC   C1B53155   5.274  31.708   6.223
 4119POPC   C2B53156   5.310  31.939   6.614
 4119POPC   C3B53157   5.247  31.948   7.066
 4119POPC   C4B53158   5.528  31.952   7.421
 4120POPC   NC353159  33.585   8.596   5.276
 4120POPC   PO453160  33.731   7.987   5.326
 4120POPC   GL153161  33.763   8.152   5.731
 4120POPC   GL253162  33.539   8.402   5.744
 4120POPC   C1A53163  33.731   7.994   6.141
 4120POPC   D2A53164  33.707   8.187   6.536
 4120POPC   C3A53165  33.777   7.933   6.877
 4120POPC   C4A53166  33.676   7.749   7.246
 4120POPC   C1B53167  33.367   8.360   6.151
 4120POPC   C2B53168  33.273   8.463   6.585
 4120POPC   C3B53169  33.429   8.302   6.967
 4120POPC   C4B53170  33.719   8.270   7.305
 4121POPC   NC353171   2.154  22.445   5.451
 4121POPC   PO453172   1.602  21.897   5.252
 4121POPC   GL153173   1.892  22.020   5.676
 4121POPC   GL253174   1.815  22.365   5.809
 4121POPC   C1A53175   2.024  22.077   6.174
 4121POPC   D2A53176   2.224  22.028   6.614
 4121POPC   C3A53177   2.075  22.104   7.044
 4121POPC   C4A53178   2.122  21.991   7.509
 4121POPC   C1B53179   1.663  22.431   6.200
 4121POPC   C2B53180   1.818  22.382   6.597
 4121POPC   C3B53181   1.812  22.586   6.989
 4121POPC   C4B53182   1.975  22.482   7.389
 4122POPC   NC353183  31.117  13.824   5.469
 4122POPC   PO453184  31.524  13.299   5.604
 4122POPC   GL153185  31.406  13.680   5.879
 4122POPC   GL253186  31.594  13.991   5.844
 4122POPC   C1A53187  31.334  13.944   6.275
 4122POPC   D2A53188  31.536  13.836   6.659
 4122POPC   C3A53189  31.486  13.484   6.917
 4122POPC   C4A53190  31.372  13.512   7.323
 4122POPC   C1B53191  31.833  13.839   6.202
 4122POPC   C2B53192  32.049  13.894   6.591
 4122POPC   C3B53193  31.952  13.728   6.978
 4122POPC   C4B53194  31.874  13.460   7.300
 4123POPC   NC353195  43.916  23.631   5.328
 4123POPC   PO453196  43.921  24.315   5.432
 4123POPC   GL153197  43.841  23.944   5.759
 4123POPC   GL253198  44.030  23.594   5.834
 4123POPC   C1A53199  43.779  23.974   6.215
 4123POPC   D2A53200  43.955  23.816   6.589
 4123POPC   C3A53201  43.834  23.962   6.987
 4123POPC   C4A53202  44.035  23.846   7.380
 4123POPC   C1B53203  43.859  23.426   6.242
 4123POPC   C2B53204  43.806  23.303   6.709
 4123POPC   C3B53205  43.635  23.510   7.124
 4123POPC   C4B53206  43.713  23.531   7.606
 4124POPC   NC353207  37.413  41.759   5.581
 4124POPC   PO453208  37.927  41.347   5.409
 4124POPC   GL153209  37.726  41.383   5.784
 4124POPC   GL253210  37.783  41.702   5.964
 4124POPC   C1A53211  37.549  41.293   6.171
 4124POPC   D2A53212  37.732  41.415   6.531
 4124POPC   C3A53213  37.531  41.362   6.908
 4124POPC   C4A53214  37.648  41.478   7.284
 4124POPC   C1B53215  37.495  41.975   6.208
 4124POPC   C2B53216  37.367  42.131   6.597
 4124POPC   C3B53217  37.505  41.887   6.917
 4124POPC   C4B53218  37.490  41.965   7.313
 4125POPC   NC353219   2.128  41.006   5.441
 4125POPC   PO453220   2.100  40.306   5.357
 4125POPC   GL153221   2.217  40.568   5.759
 4125POPC   GL253222   2.041  40.874   5.921
 4125POPC   C1A53223   2.148  40.469   6.215
 4125POPC   D2A53224   2.262  40.665   6.552
 4125POPC   C3A53225   2.043  40.771   6.897
 4125POPC   C4A53226   2.003  40.480   7.252
 4125POPC   C1B53227   1.868  40.944   6.336
 4125POPC   C2B53228   1.560  40.773   6.643
 4125POPC   C3B53229   1.554  40.714   7.104
 4125POPC   C4B53230   1.866  40.995   7.316
 4126POPC   NC353231  25.301  13.123   5.275
 4126POPC   PO453232  25.529  12.499   5.320
 4126POPC   GL153233  25.454  12.754   5.720
 4126POPC   GL253234  25.120  12.924   5.729
 4126POPC   C1A53235  25.514  12.993   6.127
 4126POPC   D2A53236  25.400  12.878   6.543
 4126POPC   C3A53237  25.709  12.943   6.847
 4126POPC   C4A53238  25.482  12.995   7.227
 4126POPC   C1B53239  25.001  12.868   6.166
 4126POPC   C2B53240  24.896  13.063   6.551
 4126POPC   C3B53241  24.993  12.981   6.984
 4126POPC   C4B53242  25.094  12.701   7.342
 4127POPC   NC353243   5.864   4.760   5.600
 4127POPC   PO453244   6.313   4.280   5.533
 4127POPC   GL153245   6.073   4.189   5.934
 4127POPC   GL253246   5.742   3.993   5.857
 4127POPC   C1A53247   6.115   4.318   6.361
 4127POPC   D2A53248   5.880   4.522   6.660
 4127POPC   C3A53249   5.939   4.305   7.058
 4127POPC   C4A53250   6.036   4.436   7.485
 4127POPC   C1B53251   5.630   4.152   6.275
 4127POPC   C2B53252   5.524   4.146   6.705
 4127POPC   C3B53253   5.440   4.463   6.972
 4127POPC   C4B53254   5.542   4.429   7.364
 4128POPC   NC353255  27.707  13.461   5.523
 4128POPC   PO453256  27.419  14.065   5.321
 4128POPC   GL153257  27.533  13.873   5.795
 4128POPC   GL253258  27.385  13.501   5.917
 4128POPC   C1A53259  27.635  13.834   6.267
 4128POPC   D2A53260  27.905  13.957   6.657
 4128POPC   C3A53261  27.724  13.863   7.067
 4128POPC   C4A53262  27.410  13.732   7.370
 4128POPC   C1B53263  27.532  13.296   6.292
 4128POPC   C2B53264  27.723  13.440   6.665
 4128POPC   C3B53265  27.622  13.339   7.082
 4128POPC   C4B53266  27.479  13.217   7.499
 4129POPC   NC353267  37.164  34.407   5.506
 4129POPC   PO453268  36.510  34.484   5.420
 4129POPC   GL153269  36.699  34.328   5.797
 4129POPC   GL253270  36.819  34.675   5.822
 4129POPC   C1A53271  36.639  34.430   6.259
 4129POPC   D2A53272  36.715  34.726   6.609
 4129POPC   C3A53273  36.666  34.481   6.992
 4129POPC   C4A53274  36.492  34.605   7.396
 4129POPC   C1B53275  37.068  34.668   6.188
 4129POPC   C2B53276  37.112  34.417   6.558
 4129POPC   C3B53277  37.171  34.557   6.963
 4129POPC   C4B53278  37.371  34.674   7.309
 4130POPC   NC353279  20.808  44.788   5.432
 4130POPC   PO453280  20.418  44.231   5.596
 4130POPC   GL153281  20.720  44.434   5.874
 4130POPC   GL253282  20.736  44.814   5.921
 4130POPC   C1A53283  20.700  44.499   6.314
 4130POPC   D2A53284  20.829  44.769   6.614
 4130POPC   C3A53285  20.720  44.602   7.028
 4130POPC   C4A53286  20.803  44.496   7.448
 4130POPC   C1B53287  20.556   0.069   6.217
 4130POPC   C2B53288  20.398   0.095   6.591
 4130POPC   C3B53289  20.608   0.095   6.939
 4130POPC   C4B53290  20.453  44.985   7.292
 4131POPC   NC353291  25.914  16.742   5.118
 4131POPC   PO453292  26.111  17.104   5.663
 4131POPC   GL153293  25.956  16.855   5.917
 4131POPC   GL253294  26.196  16.607   5.897
 4131POPC   C1A53295  25.915  16.689   6.312
 4131POPC   D2A53296  25.729  16.762   6.664
 4131POPC   C3A53297  25.948  16.632   7.023
 4131POPC   C4A53298  25.777  16.635   7.424
 4131POPC   C1B53299  26.401  16.859   6.227
 4131POPC   C2B53300  26.262  16.994   6.654
 4131POPC   C3B53301  26.305  17.054   7.089
 4131POPC   C4B53302  26.255  16.784   7.473
 4132POPC   NC353303   9.368  41.350   5.383
 4132POPC   PO453304   9.848  41.783   5.306
 4132POPC   GL153305   9.747  41.532   5.721
 4132POPC   GL253306   9.380  41.598   5.826
 4132POPC   C1A53307   9.955  41.392   6.141
 4132POPC   D2A53308  10.205  41.423   6.561
 4132POPC   C3A53309   9.936  41.477   6.919
 4132POPC   C4A53310   9.754  41.736   7.235
 4132POPC   C1B53311   9.418  41.272   6.141
 4132POPC   C2B53312   9.597  41.364   6.542
 4132POPC   C3B53313   9.406  41.381   6.950
 4132POPC   C4B53314   9.448  41.247   7.385
 4133POPC   NC353315   8.327  23.732   5.249
 4133POPC   PO453316   7.819  23.891   5.148
 4133POPC   GL153317   7.883  23.738   5.656
 4133POPC   GL253318   7.869  24.049   5.892
 4133POPC   C1A53319   8.090  23.566   6.072
 4133POPC   D2A53320   8.169  23.630   6.550
 4133POPC   C3A53321   8.363  23.521   6.959
 4133POPC   C4A53322   8.462  23.854   7.221
 4133POPC   C1B53323   7.867  23.981   6.300
 4133POPC   C2B53324   7.719  23.868   6.675
 4133POPC   C3B53325   7.997  23.906   7.009
 4133POPC   C4B53326   7.888  24.044   7.397
 4134POPC   NC353327  38.531  17.907   5.682
 4134POPC   PO453328  38.695  17.279   5.589
 4134POPC   GL153329  38.314  17.297   5.878
 4134POPC   GL253330  38.142  17.636   5.873
 4134POPC   C1A53331  38.104  17.377   6.304
 4134POPC   D2A53332  38.183  17.191   6.702
 4134POPC   C3A53333  38.601  17.056   6.778
 4134POPC   C4A53334  38.632  17.254   7.139
 4134POPC   C1B53335  38.330  17.846   6.273
 4134POPC   C2B53336  38.351  17.682   6.686
 4134POPC   C3B53337  38.452  17.715   7.100
 4134POPC   C4B53338  38.201  17.838   7.436
 4135POPC   NC353339  15.622  43.182   5.313
 4135POPC   PO453340  15.107  42.820   5.539
 4135POPC   GL153341  15.207  43.079   5.877
 4135POPC   GL253342  14.879  43.222   5.862
 4135POPC   C1A53343  15.104  43.065   6.332
 4135POPC   D2A53344  15.153  42.889   6.742
 4135POPC   C3A53345  15.536  42.899   6.946
 4135POPC   C4A53346  15.684  42.931   7.358
 4135POPC   C1B53347  14.689  43.371   6.230
 4135POPC   C2B53348  14.605  43.505   6.632
 4135POPC   C3B53349  14.913  43.336   6.905
 4135POPC   C4B53350  15.183  43.190   7.224
 4136POPC   NC353351   1.924  37.621   5.529
 4136POPC   PO453352   1.901  37.023   5.202
 4136POPC   GL153353   1.926  37.104   5.672
 4136POPC   GL253354   2.201  37.280   5.811
 4136POPC   C1A53355   1.833  36.845   6.053
 4136POPC   D2A53356   1.726  36.921   6.519
 4136POPC   C3A53357   1.953  36.737   6.885
 4136POPC   C4A53358   2.257  36.779   7.260
 4136POPC   C1B53359   2.023  37.259   6.240
 4136POPC   C2B53360   2.057  37.285   6.691
 4136POPC   C3B53361   1.962  37.205   7.137
 4136POPC   C4B53362   1.989  37.124   7.593
 4137POPC   NC353363  22.263  36.267   5.202
 4137POPC   PO453364  22.104  35.628   5.311
 4137POPC   GL153365  22.103  35.901   5.704
 4137POPC   GL253366  22.435  36.086   5.719
 4137POPC   C1A53367  22.089  36.147   6.134
 4137POPC   D2A53368  22.299  36.276   6.565
 4137POPC   C3A53369  22.061  36.108   6.955
 4137POPC   C4A53370  21.893  36.248   7.348
 4137POPC   C1B53371  22.580  36.022   6.176
 4137POPC   C2B53372  22.746  35.994   6.588
 4137POPC   C3B53373  22.562  35.984   6.995
 4137POPC   C4B53374  22.395  36.200   7.350
 4138POPC   NC353375  32.476  21.395   5.201
 4138POPC   PO453376  32.061  21.764   5.595
 4138POPC   GL153377  32.257  21.378   5.772
 4138POPC   GL253378  32.586  21.254   5.687
 4138POPC   C1A53379  32.169  21.258   6.207
 4138POPC   D2A53380  32.340  21.311   6.643
 4138POPC   C3A53381  32.109  21.646   6.853
 4138POPC   C4A53382  31.947  21.683   7.268
 4138POPC   C1B53383  32.665  21.334   6.135
 4138POPC   C2B53384  32.861  21.291   6.575
 4138POPC   C3B53385  32.742  21.281   7.007
 4138POPC   C4B53386  32.380  21.393   7.191
 4139POPC   NC353387  34.074   5.722   5.710
 4139POPC   PO453388  34.670   5.960   5.428
 4139POPC   GL153389  34.564   5.838   5.837
 4139POPC   GL253390  34.634   5.507   5.918
 4139POPC   C1A53391  34.731   5.903   6.261
 4139POPC   D2A53392  34.644   5.762   6.689
 4139POPC   C3A53393  34.745   5.952   7.096
 4139POPC   C4A53394  34.927   6.113   7.480
 4139POPC   C1B53395  34.332   5.504   6.293
 4139POPC   C2B53396  34.160   5.585   6.739
 4139POPC   C3B53397  34.376   5.600   7.106
 4139POPC   C4B53398  34.736   5.382   7.156
 4140POPC   NC353399  35.804   6.207   5.709
 4140POPC   PO453400  35.324   6.717   5.413
 4140POPC   GL153401  35.422   6.566   5.821
 4140POPC   GL253402  35.180   6.340   5.926
 4140POPC   C1A53403  35.496   6.601   6.279
 4140POPC   D2A53404  35.242   6.656   6.663
 4140POPC   C3A53405  35.464   6.609   7.065
 4140POPC   C4A53406  35.469   6.874   7.411
 4140POPC   C1B53407  34.979   6.364   6.297
 4140POPC   C2B53408  34.996   6.168   6.670
 4140POPC   C3B53409  34.991   6.396   7.035
 4140POPC   C4B53410  34.991   6.730   7.279
 4141POPC   NC353411  38.158  30.288   5.625
 4141POPC   PO453412  38.628  29.898   5.284
 4141POPC   GL153413  38.644  29.956   5.787
 4141POPC   GL253414  38.364  30.087   6.053
 4141POPC   C1A53415  38.624  29.695   6.200
 4141POPC   D2A53416  38.344  29.782   6.573
 4141POPC   C3A53417  38.567  29.633   6.973
 4141POPC   C4A53418  38.786  29.892   7.307
 4141POPC   C1B53419  38.671  30.230   6.333
 4141POPC   C2B53420  38.716  30.083   6.761
 4141POPC   C3B53421  38.364  30.071   7.100
 4141POPC   C4B53422  38.470  30.204   7.548
 4142POPC   NC353423   9.307   6.113   5.608
 4142POPC   PO453424   8.773   6.502   5.397
 4142POPC   GL153425   8.994   6.489   5.796
 4142POPC   GL253426   8.942   6.869   5.776
 4142POPC   C1A53427   8.833   6.386   6.242
 4142POPC   D2A53428   8.610   6.674   6.570
 4142POPC   C3A53429   8.787   6.712   7.005
 4142POPC   C4A53430   9.052   6.388   7.235
 4142POPC   C1B53431   8.951   6.889   6.225
 4142POPC   C2B53432   9.248   6.642   6.497
 4142POPC   C3B53433   9.370   6.674   6.935
 4142POPC   C4B53434   9.191   6.875   7.292
 4143POPC   NC353435  30.276   5.210   5.463
 4143POPC   PO453436  29.612   4.907   5.515
 4143POPC   GL153437  29.855   5.183   5.779
 4143POPC   GL253438  29.563   5.313   5.894
 4143POPC   C1A53439  30.139   5.250   6.151
 4143POPC   D2A53440  30.307   5.015   6.512
 4143POPC   C3A53441  30.277   5.229   6.920
 4143POPC   C4A53442  30.302   5.008   7.289
 4143POPC   C1B53443  29.655   5.132   6.278
 4143POPC   C2B53444  29.811   5.227   6.670
 4143POPC   C3B53445  29.624   5.216   7.093
 4143POPC   C4B53446  29.799   5.154   7.491
 4144POPC   NC353447  36.140  22.457   5.394
 4144POPC   PO453448  35.745  21.967   5.340
 4144POPC   GL153449  35.959  22.094   5.762
 4144POPC   GL253450  36.137  22.416   5.892
 4144POPC   C1A53451  36.036  21.892   6.173
 4144POPC   D2A53452  35.877  21.955   6.605
 4144POPC   C3A53453  36.126  21.835   6.952
 4144POPC   C4A53454  36.105  21.943   7.336
 4144POPC   C1B53455  35.948  22.372   6.290
 4144POPC   C2B53456  35.723  22.435   6.650
 4144POPC   C3B53457  35.894  22.332   7.028
 4144POPC   C4B53458  35.725  22.274   7.395
 4145POPC   NC353459  31.234  12.922   5.613
 4145POPC   PO453460  30.617  12.878   5.591
 4145POPC   GL153461  30.761  13.124   5.948
 4145POPC   GL253462  31.097  13.272   5.925
 4145POPC   C1A53463  30.539  13.145   6.350
 4145POPC   D2A53464  30.449  12.728   6.564
 4145POPC   C3A53465  30.653  12.641   6.947
 4145POPC   C4A53466  30.557  12.745   7.360
 4145POPC   C1B53467  31.092  13.086   6.334
 4145POPC   C2B53468  30.886  13.051   6.733
 4145POPC   C3B53469  31.010  13.182   7.130
 4145POPC   C4B53470  31.182  13.105   7.545
 4146POPC   NC353471  35.124  16.534   5.674
 4146POPC   PO453472  35.527  17.030   5.421
 4146POPC   GL153473  35.454  16.958   5.851
 4146POPC   GL253474  35.446  16.620   6.058
 4146POPC   C1A53475  35.426  17.101   6.251
 4146POPC   D2A53476  35.398  16.793   6.577
 4146POPC   C3A53477  35.469  16.962   6.987
 4146POPC   C4A53478  35.527  16.711   7.353
 4146POPC   C1B53479  35.156  16.374   6.354
 4146POPC   C2B53480  35.006  16.248   6.785
 4146POPC   C3B53481  35.193  16.357   7.197
 4146POPC   C4B53482  35.167  16.391   7.628
 4147POPC   NC353483  30.832  26.349   5.551
 4147POPC   PO453484  30.797  25.713   5.643
 4147POPC   GL153485  30.703  25.935   5.984
 4147POPC   GL253486  30.540  26.234   5.928
 4147POPC   C1A53487  30.881  26.036   6.358
 4147POPC   D2A53488  31.054  26.172   6.746
 4147POPC   C3A53489  30.762  25.986   7.024
 4147POPC   C4A53490  30.820  25.773   7.387
 4147POPC   C1B53491  30.588  26.457   6.257
 4147POPC   C2B53492  30.577  26.320   6.656
 4147POPC   C3B53493  30.753  26.522   6.956
 4147POPC   C4B53494  30.572  26.412   7.251
 4148POPC   NC353495  25.522  36.956   5.617
 4148POPC   PO453496  25.037  36.826   5.172
 4148POPC   GL153497  25.009  36.902   5.709
 4148POPC   GL253498  25.138  37.196   5.877
 4148POPC   C1A53499  25.145  36.817   6.214
 4148POPC   D2A53500  25.286  36.705   6.661
 4148POPC   C3A53501  25.336  36.902   7.090
 4148POPC   C4A53502  25.369  36.834   7.543
 4148POPC   C1B53503  25.427  37.286   6.225
 4148POPC   C2B53504  25.391  37.209   6.653
 4148POPC   C3B53505  25.538  37.387   7.045
 4148POPC   C4B53506  25.312  37.320   7.426
 4149POPC   NC353507  25.537  35.195   5.399
 4149POPC   PO453508  25.177  35.831   5.392
 4149POPC   GL153509  25.165  35.523   5.721
 4149POPC   GL253510  25.496  35.462   5.834
 4149POPC   C1A53511  25.159  35.596   6.181
 4149POPC   D2A53512  24.976  35.504   6.533
 4149POPC   C3A53513  25.132  35.712   6.877
 4149POPC   C4A53514  25.113  35.516   7.295
 4149POPC   C1B53515  25.303  35.122   6.078
 4149POPC   C2B53516  25.392  35.137   6.503
 4149POPC   C3B53517  25.318  35.237   6.911
 4149POPC   C4B53518  25.368  35.083   7.338
 4150POPC   NC353519  40.356   9.856   5.636
 4150POPC   PO453520  39.739   9.669   5.311
 4150POPC   GL153521  39.840   9.779   5.732
 4150POPC   GL253522  39.693  10.062   5.837
 4150POPC   C1A53523  39.912   9.670   6.172
 4150POPC   D2A53524  40.150   9.417   6.504
 4150POPC   C3A53525  40.199   9.684   6.852
 4150POPC   C4A53526  39.944   9.753   7.192
 4150POPC   C1B53527  39.750  10.188   6.247
 4150POPC   C2B53528  39.804   9.990   6.637
 4150POPC   C3B53529  39.688  10.167   7.021
 4150POPC   C4B53530  39.672  10.062   7.470
 4151POPC   NC353531   1.011   5.006   5.455
 4151POPC   PO453532   1.569   5.417   5.558
 4151POPC   GL153533   1.367   5.122   5.831
 4151POPC   GL253534   0.991   5.143   5.927
 4151POPC   C1A53535   1.374   5.221   6.259
 4151POPC   D2A53536   1.099   5.162   6.593
 4151POPC   C3A53537   1.303   5.191   6.992
 4151POPC   C4A53538   1.390   5.572   7.238
 4151POPC   C1B53539   1.179   4.775   6.154
 4151POPC   C2B53540   1.368   4.697   6.522
 4151POPC   C3B53541   1.343   4.548   6.927
 4151POPC   C4B53542   1.363   4.681   7.330
 4152POPC   NC353543  18.713  15.302   5.577
 4152POPC   PO453544  18.240  15.096   5.158
 4152POPC   GL153545  18.191  15.097   5.668
 4152POPC   GL253546  18.348  15.333   5.914
 4152POPC   C1A53547  18.089  14.991   6.157
 4152POPC   D2A53548  18.299  15.217   6.556
 4152POPC   C3A53549  18.123  15.060   6.967
 4152POPC   C4A53550  17.787  14.804   7.180
 4152POPC   C1B53551  18.674  15.496   6.215
 4152POPC   C2B53552  18.820  15.401   6.636
 4152POPC   C3B53553  18.735  15.498   7.085
 4152POPC   C4B53554  18.448  15.242   7.325
 4153POPC   NC353555  42.313  26.928   5.410
 4153POPC   PO453556  42.939  26.918   5.541
 4153POPC   GL153557  42.646  26.688   5.816
 4153POPC   GL253558  42.422  26.928   5.893
 4153POPC   C1A53559  42.424  26.543   6.206
 4153POPC   D2A53560  42.160  26.553   6.578
 4153POPC   C3A53561  42.346  26.596   7.006
 4153POPC   C4A53562  42.133  26.364   7.305
 4153POPC   C1B53563  42.409  27.114   6.258
 4153POPC   C2B53564  42.242  27.061   6.614
 4153POPC   C3B53565  42.424  27.141   6.971
 4153POPC   C4B53566  42.547  27.123   7.371
 4154POPC   NC353567   8.356  32.375   5.318
 4154POPC   PO453568   7.894  31.970   5.699
 4154POPC   GL153569   8.241  32.154   5.776
 4154POPC   GL253570   8.482  31.922   5.599
 4154POPC   C1A53571   8.337  32.393   6.160
 4154POPC   D2A53572   8.323  32.536   6.602
 4154POPC   C3A53573   7.970  32.458   6.938
 4154POPC   C4A53574   7.981  32.534   7.436
 4154POPC   C1B53575   8.591  31.947   6.051
 4154POPC   C2B53576   8.594  31.990   6.501
 4154POPC   C3B53577   8.451  32.144   6.901
 4154POPC   C4B53578   8.239  32.083   7.254
 4155POPC   NC353579  17.935  18.792   5.195
 4155POPC   PO453580  17.503  19.302   5.350
 4155POPC   GL153581  17.543  19.081   5.771
 4155POPC   GL253582  17.899  19.004   5.796
 4155POPC   C1A53583  17.281  18.898   6.139
 4155POPC   D2A53584  17.203  18.747   6.584
 4155POPC   C3A53585  17.304  18.971   6.979
 4155POPC   C4A53586  17.280  18.917   7.429
 4155POPC   C1B53587  17.819  18.845   6.209
 4155POPC   C2B53588  17.927  18.935   6.608
 4155POPC   C3B53589  17.821  18.859   7.025
 4155POPC   C4B53590  17.723  19.143   7.333
 4156POPC   NC353591   1.459  37.017   5.476
 4156POPC   PO453592   0.713  37.021   5.567
 4156POPC   GL153593   1.109  37.033   5.841
 4156POPC   GL253594   1.342  36.730   5.912
 4156POPC   C1A53595   1.390  37.163   6.189
 4156POPC   D2A53596   1.263  37.194   6.641
 4156POPC   C3A53597   1.469  37.004   6.973
 4156POPC   C4A53598   1.250  36.859   7.350
 4156POPC   C1B53599   1.275  36.707   6.400
 4156POPC   C2B53600   1.272  36.549   6.847
 4156POPC   C3B53601   1.167  36.372   7.269
 4156POPC   C4B53602   1.180  36.461   7.725
 4157POPC   NC353603   3.788   7.577   5.603
 4157POPC   PO453604   3.348   7.114   5.450
 4157POPC   GL153605   3.478   7.260   5.843
 4157POPC   GL253606   3.180   7.324   6.027
 4157POPC   C1A53607   3.721   7.287   6.241
 4157POPC   D2A53608   3.557   7.097   6.630
 4157POPC   C3A53609   3.679   7.104   7.064
 4157POPC   C4A53610   3.445   7.237   7.451
 4157POPC   C1B53611   3.301   7.562   6.395
 4157POPC   C2B53612   3.673   7.588   6.678
 4157POPC   C3B53613   3.485   7.557   7.041
 4157POPC   C4B53614   3.292   7.801   7.290
 4158POPC   NC353615  38.394  18.981   5.177
 4158POPC   PO453616  38.112  19.529   5.369
 4158POPC   GL153617  38.417  19.217   5.637
 4158POPC   GL253618  38.278  18.910   5.748
 4158POPC   C1A53619  38.558  19.137   6.099
 4158POPC   D2A53620  38.590  18.889   6.514
 4158POPC   C3A53621  38.534  19.114   6.944
 4158POPC   C4A53622  38.625  19.137   7.406
 4158POPC   C1B53623  38.178  18.804   6.167
 4158POPC   C2B53624  38.080  18.660   6.566
 4158POPC   C3B53625  38.201  18.716   6.960
 4158POPC   C4B53626  38.000  18.936   7.245
 4159POPC   NC353627  11.616  21.428   5.471
 4159POPC   PO453628  11.003  21.172   5.613
 4159POPC   GL153629  11.249  21.158   5.916
 4159POPC   GL253630  11.294  21.522   5.887
 4159POPC   C1A53631  11.061  20.985   6.270
 4159POPC   D2A53632  10.754  20.878   6.588
 4159POPC   C3A53633  10.971  20.836   7.001
 4159POPC   C4A53634  11.081  21.122   7.338
 4159POPC   C1B53635  11.355  21.472   6.318
 4159POPC   C2B53636  11.296  21.704   6.695
 4159POPC   C3B53637  11.335  21.497   7.074
 4159POPC   C4B53638  11.604  21.150   7.253
 4160POPC   NC353639  14.858  25.802   5.526
 4160POPC   PO453640  15.217  26.427   5.422
 4160POPC   GL153641  15.245  26.156   5.786
 4160POPC   GL253642  14.897  26.192   5.858
 4160POPC   C1A53643  15.224  26.053   6.241
 4160POPC   D2A53644  15.262  26.311   6.613
 4160POPC   C3A53645  15.303  26.089   7.001
 4160POPC   C4A53646  15.560  25.743   7.156
 4160POPC   C1B53647  14.734  25.870   6.192
 4160POPC   C2B53648  14.782  25.624   6.621
 4160POPC   C3B53649  14.709  25.804   7.046
 4160POPC   C4B53650  14.928  25.976   7.408
 4161POPC   NC353651   5.003   9.997   5.150
 4161POPC   PO453652   5.320   9.576   5.635
 4161POPC   GL153653   5.248   9.672   6.008
 4161POPC   GL253654   4.921   9.550   5.971
 4161POPC   C1A53655   5.064   9.962   6.288
 4161POPC   D2A53656   5.229   9.890   6.640
 4161POPC   C3A53657   4.952   9.855   6.935
 4161POPC   C4A53658   5.247   9.735   7.226
 4161POPC   C1B53659   4.974   9.460   6.369
 4161POPC   C2B53660   4.851   9.405   6.723
 4161POPC   C3B53661   4.989   9.307   7.099
 4161POPC   C4B53662   4.755   9.587   7.308
 4162POPC   NC353663   2.768  12.190   5.545
 4162POPC   PO453664   2.806  11.581   5.282
 4162POPC   GL153665   2.826  11.704   5.740
 4162POPC   GL253666   2.493  11.798   5.788
 4162POPC   C1A53667   3.080  11.844   6.167
 4162POPC   D2A53668   3.137  12.234   6.435
 4162POPC   C3A53669   3.051  12.185   6.886
 4162POPC   C4A53670   2.905  11.923   7.219
 4162POPC   C1B53671   2.587  11.991   6.204
 4162POPC   C2B53672   2.589  12.195   6.602
 4162POPC   C3B53673   2.448  12.066   6.986
 4162POPC   C4B53674   2.497  12.167   7.400
 4163POPC   NC353675  26.993  13.310   5.410
 4163POPC   PO453676  26.505  12.649   5.478
 4163POPC   GL153677  26.739  12.823   5.768
 4163POPC   GL253678  26.592  13.143   5.693
 4163POPC   C1A53679  26.801  12.699   6.204
 4163POPC   D2A53680  26.959  12.816   6.605
 4163POPC   C3A53681  26.681  12.654   6.889
 4163POPC   C4A53682  26.683  12.784   7.301
 4163POPC   C1B53683  26.499  13.106   6.146
 4163POPC   C2B53684  26.538  13.262   6.566
 4163POPC   C3B53685  26.680  13.182   6.974
 4163POPC   C4B53686  26.471  13.295   7.375
 4164POPC   NC353687   4.416   3.899   5.281
 4164POPC   PO453688   4.103   3.285   5.476
 4164POPC   GL153689   4.238   3.366   5.880
 4164POPC   GL253690   4.161   3.724   5.894
 4164POPC   C1A53691   4.484   3.229   6.225
 4164POPC   D2A53692   4.639   3.400   6.615
 4164POPC   C3A53693   4.327   3.535   6.876
 4164POPC   C4A53694   4.477   3.483   7.290
 4164POPC   C1B53695   4.297   3.718   6.341
 4164POPC   C2B53696   4.633   3.907   6.592
 4164POPC   C3B53697   4.655   3.887   7.029
 4164POPC   C4B53698   4.264   3.927   7.263
 4165POPC   NC353699   4.589  33.145   5.648
 4165POPC   PO453700   5.229  32.892   5.454
 4165POPC   GL153701   5.050  32.960   5.850
 4165POPC   GL253702   5.063  33.297   5.815
 4165POPC   C1A53703   5.067  33.022   6.302
 4165POPC   D2A53704   5.128  32.802   6.682
 4165POPC   C3A53705   5.274  32.972   7.061
 4165POPC   C4A53706   5.162  32.782   7.443
 4165POPC   C1B53707   5.024  33.528   6.189
 4165POPC   C2B53708   5.208  33.457   6.588
 4165POPC   C3B53709   4.946  33.336   6.915
 4165POPC   C4B53710   4.897  33.205   7.314
 4166POPC   NC353711   8.677  20.919   5.426
 4166POPC   PO453712   8.966  20.344   5.542
 4166POPC   GL153713   8.774  20.519   5.875
 4166POPC   GL253714   8.854  20.874   5.910
 4166POPC   C1A53715   8.746  20.540   6.318
 4166POPC   D2A53716   8.685  20.438   6.749
 4166POPC   C3A53717   8.991  20.305   6.977
 4166POPC   C4A53718   9.088  20.295   7.386
 4166POPC   C1B53719   8.915  21.016   6.333
 4166POPC   C2B53720   9.078  20.779   6.704
 4166POPC   C3B53721   8.937  20.769   7.155
 4166POPC   C4B53722   9.028  20.944   7.555
 4167POPC   NC353723  15.506  22.490   5.146
 4167POPC   PO453724  15.047  22.876   5.496
 4167POPC   GL153725  15.135  22.802   5.896
 4167POPC   GL253726  15.413  22.998   5.873
 4167POPC   C1A53727  15.034  22.847   6.309
 4167POPC   D2A53728  14.902  23.109   6.638
 4167POPC   C3A53729  15.027  22.898   6.999
 4167POPC   C4A53730  15.149  23.053   7.377
 4167POPC   C1B53731  15.532  23.059   6.301
 4167POPC   C2B53732  15.462  23.051   6.754
 4167POPC   C3B53733  15.563  22.851   7.168
 4167POPC   C4B53734  15.592  22.950   7.634
 4168POPC   NC353735  32.200  34.213   5.261
 4168POPC   PO453736  32.122  33.577   5.399
 4168POPC   GL153737  32.270  33.796   5.733
 4168POPC   GL253738  32.597  33.638   5.740
 4168POPC   C1A53739  32.125  33.930   6.135
 4168POPC   D2A53740  32.249  33.893   6.552
 4168POPC   C3A53741  32.012  33.743   6.899
 4168POPC   C4A53742  31.949  33.920   7.325
 4168POPC   C1B53743  32.642  33.821   6.147
 4168POPC   C2B53744  32.768  33.818   6.568
 4168POPC   C3B53745  32.593  33.902   6.946
 4168POPC   C4B53746  32.395  33.704   7.253
 4169POPC   NC353747  30.955  28.097   5.492
 4169POPC   PO453748  30.446  28.551   5.508
 4169POPC   GL153749  30.731  28.408   5.826
 4169POPC   GL253750  30.881  28.704   5.909
 4169POPC   C1A53751  30.822  28.261   6.241
 4169POPC   D2A53752  30.515  28.247   6.564
 4169POPC   C3A53753  30.687  28.193   6.961
 4169POPC   C4A53754  30.454  28.115   7.316
 4169POPC   C1B53755  30.510  28.698   6.215
 4169POPC   C2B53756  30.196  28.676   6.561
 4169POPC   C3B53757  30.263  28.509   6.967
 4169POPC   C4B53758  30.495  28.610   7.313
 4170POPC   NC353759  26.712  21.258   5.294
 4170POPC   PO453760  26.642  21.937   5.438
 4170POPC   GL153761  26.629  21.601   5.766
 4170POPC   GL253762  26.704  21.214   5.822
 4170POPC   C1A53763  26.832  21.596   6.180
 4170POPC   D2A53764  27.069  21.528   6.576
 4170POPC   C3A53765  26.841  21.466   6.993
 4170POPC   C4A53766  26.836  21.368   7.431
 4170POPC   C1B53767  26.929  21.094   6.236
 4170POPC   C2B53768  26.928  21.052   6.700
 4170POPC   C3B53769  27.066  21.009   7.118
 4170POPC   C4B53770  26.990  20.887   7.533
 4171POPC   NC353771  25.612  17.706   5.287
 4171POPC   PO453772  26.009  17.194   5.182
 4171POPC   GL153773  25.870  17.525   5.691
 4171POPC   GL253774  26.209  17.542   5.908
 4171POPC   C1A53775  25.787  17.670   6.128
 4171POPC   D2A53776  26.094  17.742   6.518
 4171POPC   C3A53777  26.071  17.572   6.945
 4171POPC   C4A53778  25.696  17.589   7.218
 4171POPC   C1B53779  26.058  17.271   6.271
 4171POPC   C2B53780  25.773  17.330   6.607
 4171POPC   C3B53781  25.802  17.136   6.997
 4171POPC   C4B53782  25.948  17.172   7.431
 4172POPC   NC353783  36.054  24.075   5.434
 4172POPC   PO453784  36.630  24.447   5.381
 4172POPC   GL153785  36.292  24.534   5.700
 4172POPC   GL253786  35.935  24.468   5.739
 4172POPC   C1A53787  36.265  24.511   6.155
 4172POPC   D2A53788  36.122  24.497   6.583
 4172POPC   C3A53789  36.083  24.789   6.928
 4172POPC   C4A53790  36.305  24.734   7.325
 4172POPC   C1B53791  35.765  24.414   6.133
 4172POPC   C2B53792  35.823  24.129   6.450
 4172POPC   C3B53793  35.765  24.254   6.878
 4172POPC   C4B53794  35.506  24.363   7.222
 4173POPC   NC353795  28.594  43.298   5.500
 4173POPC   PO453796  28.301  42.650   5.491
 4173POPC   GL153797  28.320  42.981   5.809
 4173POPC   GL253798  28.668  42.925   5.832
 4173POPC   C1A53799  28.254  43.236   6.203
 4173POPC   D2A53800  28.372  43.186   6.618
 4173POPC   C3A53801  28.183  43.254   7.036
 4173POPC   C4A53802  28.169  43.360   7.496
 4173POPC   C1B53803  28.754  43.237   6.137
 4173POPC   C2B53804  28.838  43.394   6.534
 4173POPC   C3B53805  28.758  43.219   6.933
 4173POPC   C4B53806  28.632  43.288   7.321
 4174POPC   NC353807  18.190   2.060   5.433
 4174POPC   PO453808  18.864   1.922   5.405
 4174POPC   GL153809  18.520   1.973   5.807
 4174POPC   GL253810  18.134   1.812   5.881
 4174POPC   C1A53811  18.365   2.166   6.199
 4174POPC   D2A53812  18.537   2.274   6.597
 4174POPC   C3A53813  18.270   2.237   6.960
 4174POPC   C4A53814  18.532   2.081   7.300
 4174POPC   C1B53815  18.254   1.633   6.277
 4174POPC   C2B53816  18.308   1.802   6.699
 4174POPC   C3B53817  18.207   1.718   7.145
 4174POPC   C4B53818  18.254   1.739   7.618
 4175POPC   NC353819  32.864  12.581   5.311
 4175POPC   PO453820  33.147  13.213   5.355
 4175POPC   GL153821  32.943  12.945   5.673
 4175POPC   GL253822  33.148  12.613   5.747
 4175POPC   C1A53823  32.860  13.069   6.114
 4175POPC   D2A53824  33.021  13.040   6.536
 4175POPC   C3A53825  32.792  13.095   6.897
 4175POPC   C4A53826  32.827  13.198   7.321
 4175POPC   C1B53827  32.867  12.551   6.060
 4175POPC   C2B53828  32.819  12.520   6.515
 4175POPC   C3B53829  33.055  12.624   6.867
 4175POPC   C4B53830  32.969  12.719   7.283
 4176POPC   NC353831  33.264  41.817   5.575
 4176POPC   PO453832  32.668  41.670   5.265
 4176POPC   GL153833  32.774  41.641   5.771
 4176POPC   GL253834  33.107  41.451   5.901
 4176POPC   C1A53835  32.925  41.796   6.215
 4176POPC   D2A53836  33.115  41.670   6.629
 4176POPC   C3A53837  32.878  41.811   6.975
 4176POPC   C4A53838  33.000  41.744   7.391
 4176POPC   C1B53839  33.279  41.156   6.221
 4176POPC   C2B53840  33.108  41.149   6.650
 4176POPC   C3B53841  33.069  41.343   7.071
 4176POPC   C4B53842  33.188  41.190   7.485
 4177POPC   NC353843  30.258  37.113   5.458
 4177POPC   PO453844  29.717  36.856   5.164
 4177POPC   GL153845  29.859  36.822   5.622
 4177POPC   GL253846  30.180  36.621   5.681
 4177POPC   C1A53847  29.956  36.984   6.068
 4177POPC   D2A53848  29.757  37.105   6.471
 4177POPC   C3A53849  29.994  37.248   6.832
 4177POPC   C4A53850  29.765  37.350   7.216
 4177POPC   C1B53851  30.164  36.503   6.143
 4177POPC   C2B53852  30.121  36.769   6.543
 4177POPC   C3B53853  29.864  36.764   6.958
 4177POPC   C4B53854  29.947  36.894   7.418
 4178POPC   NC353855  35.699  25.009   5.416
 4178POPC   PO453856  35.196  25.446   5.520
 4178POPC   GL153857  35.461  25.213   5.826
 4178POPC   GL253858  35.202  25.059   5.986
 4178POPC   C1A53859  35.578  25.227   6.283
 4178POPC   D2A53860  35.493  25.481   6.672
 4178POPC   C3A53861  35.326  25.294   7.071
 4178POPC   C4A53862  35.535  25.113   7.455
 4178POPC   C1B53863  35.135  25.486   6.234
 4178POPC   C2B53864  34.948  25.590   6.668
 4178POPC   C3B53865  34.855  25.585   7.131
 4178POPC   C4B53866  35.102  25.559   7.505
 4179POPC   NC353867  13.823  13.623   5.339
 4179POPC   PO453868  13.229  13.935   5.459
 4179POPC   GL153869  13.518  13.761   5.770
 4179POPC   GL253870  13.892  13.886   5.770
 4179POPC   C1A53871  13.420  13.528   6.159
 4179POPC   D2A53872  13.550  13.382   6.562
 4179POPC   C3A53873  13.460  13.630   6.931
 4179POPC   C4A53874  13.543  13.369   7.264
 4179POPC   C1B53875  13.912  13.671   6.169
 4179POPC   C2B53876  13.825  13.828   6.578
 4179POPC   C3B53877  14.018  13.740   6.945
 4179POPC   C4B53878  13.935  13.667   7.347
 4180POPC   NC353879  36.269  43.234   5.415
 4180POPC   PO453880  35.690  42.768   5.437
 4180POPC   GL153881  36.064  42.801   5.655
 4180POPC   GL253882  35.936  43.112   5.783
 4180POPC   C1A53883  36.192  42.768   6.088
 4180POPC   D2A53884  36.238  43.114   6.395
 4180POPC   C3A53885  36.342  42.974   6.823
 4180POPC   C4A53886  36.243  42.816   7.212
 4180POPC   C1B53887  35.767  43.423   6.057
 4180POPC   C2B53888  35.865  43.490   6.487
 4180POPC   C3B53889  35.881  43.206   6.818
 4180POPC   C4B53890  36.048  43.282   7.168
 4181POPC   NC353891   3.767   3.705   5.561
 4181POPC   PO453892   3.349   3.217   5.417
 4181POPC   GL153893   3.441   3.413   5.805
 4181POPC   GL253894   3.740   3.259   5.823
 4181POPC   C1A53895   3.391   3.664   6.181
 4181POPC   D2A53896   3.468   3.627   6.582
 4181POPC   C3A53897   3.304   3.939   6.831
 4181POPC   C4A53898   3.219   3.833   7.226
 4181POPC   C1B53899   3.853   3.461   6.219
 4181POPC   C2B53900   3.899   3.331   6.634
 4181POPC   C3B53901   3.875   3.386   7.078
 4181POPC   C4B53902   4.013   3.455   7.511
 4182POPC   NC353903  37.458  35.301   5.436
 4182POPC   PO453904  38.142  35.397   5.418
 4182POPC   GL153905  37.863  35.434   5.782
 4182POPC   GL253906  37.724  35.105   5.836
 4182POPC   C1A53907  37.653  35.494   6.210
 4182POPC   D2A53908  37.427  35.457   6.632
 4182POPC   C3A53909  37.689  35.485   7.017
 4182POPC   C4A53910  37.803  35.446   7.455
 4182POPC   C1B53911  37.697  34.928   6.253
 4182POPC   C2B53912  37.778  35.061   6.681
 4182POPC   C3B53913  37.885  34.993   7.109
 4182POPC   C4B53914  37.735  34.958   7.520
 4183POPC   NC353915  20.775  38.734   5.281
 4183POPC   PO453916  20.398  38.291   5.442
 4183POPC   GL153917  20.490  38.532   5.779
 4183POPC   GL253918  20.817  38.665   5.803
 4183POPC   C1A53919  20.500  38.434   6.225
 4183POPC   D2A53920  20.555  38.161   6.572
 4183POPC   C3A53921  20.382  38.385   6.929
 4183POPC   C4A53922  20.460  38.527   7.336
 4183POPC   C1B53923  20.936  38.702   6.230
 4183POPC   C2B53924  20.793  38.615   6.659
 4183POPC   C3B53925  20.903  38.530   7.072
 4183POPC   C4B53926  20.906  38.788   7.426
 4184POPC   NC353927  24.354  38.579   5.553
 4184POPC   PO453928  24.828  38.103   5.526
 4184POPC   GL153929  24.559  38.229   5.893
 4184POPC   GL253930  24.690  38.560   5.935
 4184POPC   C1A53931  24.298  38.461   6.269
 4184POPC   D2A53932  24.160  38.647   6.698
 4184POPC   C3A53933  24.124  38.326   7.042
 4184POPC   C4A53934  24.279  38.141   7.437
 4184POPC   C1B53935  24.800  38.326   6.324
 4184POPC   C2B53936  24.522  38.271   6.699
 4184POPC   C3B53937  24.595  38.470   7.108
 4184POPC   C4B53938  24.970  38.275   7.282
 4185POPC   NC353939  30.790   0.649   5.364
 4185POPC   PO453940  30.264   1.014   5.534
 4185POPC   GL153941  30.384   0.657   5.836
 4185POPC   GL253942  30.743   0.514   5.847
 4185POPC   C1A53943  30.462   0.482   6.273
 4185POPC   D2A53944  30.506   0.706   6.655
 4185POPC   C3A53945  30.658   0.486   6.980
 4185POPC   C4A53946  30.481   0.231   7.313
 4185POPC   C1B53947  30.960   0.614   6.213
 4185POPC   C2B53948  30.949   0.434   6.577
 4185POPC   C3B53949  31.189   0.339   6.905
 4185POPC   C4B53950  31.020   0.327   7.301
 4186POPC   NC353951  27.320   8.465   5.489
 4186POPC   PO453952  27.811   8.038   5.510
 4186POPC   GL153953  27.594   8.146   5.803
 4186POPC   GL253954  27.295   7.965   5.870
 4186POPC   C1A53955  27.731   8.198   6.183
 4186POPC   D2A53956  27.529   8.040   6.488
 4186POPC   C3A53957  27.720   7.967   6.958
 4186POPC   C4A53958  27.885   8.159   7.362
 4186POPC   C1B53959  27.243   8.343   6.121
 4186POPC   C2B53960  27.155   8.401   6.520
 4186POPC   C3B53961  27.322   8.264   6.901
 4186POPC   C4B53962  27.370   8.259   7.318
 4187POPC   NC353963  22.885  32.926   5.393
 4187POPC   PO453964  23.204  33.530   5.339
 4187POPC   GL153965  23.103  33.328   5.759
 4187POPC   GL253966  23.195  32.974   5.802
 4187POPC   C1A53967  23.058  33.244   6.231
 4187POPC   D2A53968  22.813  33.058   6.592
 4187POPC   C3A53969  22.851  33.196   7.023
 4187POPC   C4A53970  23.173  33.378   7.245
 4187POPC   C1B53971  23.025  32.707   6.132
 4187POPC   C2B53972  22.911  32.565   6.544
 4187POPC   C3B53973  23.019  32.711   6.948
 4187POPC   C4B53974  22.745  32.769   7.318
 4188POPC   NC353975  43.219  37.267   5.413
 4188POPC   PO453976  43.059  36.592   5.248
 4188POPC   GL153977  42.957  36.758   5.678
 4188POPC   GL253978  42.948  37.095   5.799
 4188POPC   C1A53979  42.915  36.661   6.121
 4188POPC   D2A53980  42.812  36.700   6.540
 4188POPC   C3A53981  43.111  36.766   6.887
 4188POPC   C4A53982  42.934  36.704   7.311
 4188POPC   C1B53983  43.125  37.163   6.205
 4188POPC   C2B53984  43.295  37.174   6.605
 4188POPC   C3B53985  43.154  37.274   6.987
 4188POPC   C4B53986  42.921  37.216   7.342
 4189POPC   NC353987   2.330  31.025   5.499
 4189POPC   PO453988   1.771  30.690   5.336
 4189POPC   GL153989   1.956  30.633   5.781
 4189POPC   GL253990   2.149  30.902   5.947
 4189POPC   C1A53991   2.121  30.441   6.181
 4189POPC   D2A53992   2.022  30.208   6.558
 4189POPC   C3A53993   2.088  30.447   6.938
 4189POPC   C4A53994   1.755  30.597   7.202
 4189POPC   C1B53995   1.846  30.921   6.262
 4189POPC   C2B53996   1.888  30.837   6.682
 4189POPC   C3B53997   2.001  31.012   7.062
 4189POPC   C4B53998   2.439  30.934   7.034
 4190POPC   NC353999  11.391  25.840   5.498
 4190POPC   PO454000  10.881  26.323   5.362
 4190POPC   GL154001  11.136  26.200   5.754
 4190POPC   GL254002  11.496  26.238   5.849
 4190POPC   C1A54003  11.120  25.997   6.182
 4190POPC   D2A54004  11.301  26.196   6.563
 4190POPC   C3A54005  11.151  26.057   6.950
 4190POPC   C4A54006  10.865  26.091   7.269
 4190POPC   C1B54007  11.648  25.958   6.213
 4190POPC   C2B54008  11.711  25.892   6.683
 4190POPC   C3B54009  11.632  26.194   7.036
 4190POPC   C4B54010  11.631  26.282   7.502
 4191POPC   NC354011   5.309  42.190   5.438
 4191POPC   PO454012   4.788  42.574   5.453
 4191POPC   GL154013   4.962  42.411   5.806
 4191POPC   GL254014   5.300  42.572   5.782
 4191POPC   C1A54015   4.925  42.163   6.197
 4191POPC   D2A54016   5.085  42.294   6.596
 4191POPC   C3A54017   4.898  42.212   6.969
 4191POPC   C4A54018   4.886  42.274   7.384
 4191POPC   C1B54019   5.227  42.609   6.212
 4191POPC   C2B54020   5.394  42.716   6.593
 4191POPC   C3B54021   5.129  42.701   6.926
 4191POPC   C4B54022   5.187  42.673   7.323
 4192POPC   NC354023  42.277   8.594   5.671
 4192POPC   PO454024  42.243   9.259   5.403
 4192POPC   GL154025  42.487   9.043   5.782
 4192POPC   GL254026  42.171   8.974   5.994
 4192POPC   C1A54027  42.545   8.756   6.232
 4192POPC   D2A54028  42.202   8.780   6.558
 4192POPC   C3A54029  42.216   8.680   7.008
 4192POPC   C4A54030  42.474   8.672   7.397
 4192POPC   C1B54031  42.444   9.272   6.225
 4192POPC   C2B54032  42.507   9.460   6.605
 4192POPC   C3B54033  42.374   9.196   6.965
 4192POPC   C4B54034  42.508   9.260   7.406
 4193POPC   NC354035  10.109  22.950   5.318
 4193POPC   PO454036  10.806  22.794   5.476
 4193POPC   GL154037  10.626  22.997   5.831
 4193POPC   GL254038  10.852  23.054   6.041
 4193POPC   C1A54039  10.396  22.965   6.267
 4193POPC   D2A54040  10.566  23.013   6.704
 4193POPC   C3A54041  10.302  22.998   7.030
 4193POPC   C4A54042  10.310  23.143   7.434
 4193POPC   C1B54043  10.845  22.736   6.390
 4193POPC   C2B54044  10.805  22.520   6.787
 4193POPC   C3B54045  10.681  22.649   7.193
 4193POPC   C4B54046  10.708  22.466   7.660
 4194POPC   NC354047  24.696  28.180   5.527
 4194POPC   PO454048  24.286  28.704   5.531
 4194POPC   GL154049  24.408  28.421   5.870
 4194POPC   GL254050  24.361  28.031   5.902
 4194POPC   C1A54051  24.406  28.385   6.286
 4194POPC   D2A54052  24.334  28.599   6.600
 4194POPC   C3A54053  24.462  28.333   6.885
 4194POPC   C4A54054  24.282  28.466   7.259
 4194POPC   C1B54055  24.725  28.000   6.195
 4194POPC   C2B54056  24.731  27.830   6.624
 4194POPC   C3B54057  24.903  27.934   7.028
 4194POPC   C4B54058  24.669  28.147   7.307
 4195POPC   NC354059  20.947   4.109   5.534
 4195POPC   PO454060  21.701   4.027   5.499
 4195POPC   GL154061  21.652   4.296   5.867
 4195POPC   GL254062  21.297   4.348   5.826
 4195POPC   C1A54063  21.663   4.399   6.319
 4195POPC   D2A54064  21.437   4.310   6.711
 4195POPC   C3A54065  21.541   4.612   7.063
 4195POPC   C4A54066  21.606   4.422   7.481
 4195POPC   C1B54067  21.090   4.209   6.208
 4195POPC   C2B54068  21.070   3.898   6.526
 4195POPC   C3B54069  21.074   3.977   6.950
 4195POPC   C4B54070  21.206   4.254   7.241
 4196POPC   NC354071  40.231  43.352   5.587
 4196POPC   PO454072  39.845  42.836   5.486
 4196POPC   GL154073  40.025  42.865   5.884
 4196POPC   GL254074  39.952  43.223   5.999
 4196POPC   C1A54075  39.832  42.823   6.291
 4196POPC   D2A54076  39.883  43.085   6.661
 4196POPC   C3A54077  39.872  42.838   7.024
 4196POPC   C4A54078  39.943  42.867   7.458
 4196POPC   C1B54079  40.288  43.103   6.280
 4196POPC   C2B54080  40.428  43.206   6.720
 4196POPC   C3B54081  40.202  43.211   7.121
 4196POPC   C4B54082  39.782  43.325   7.217
 4197POPC   NC354083  21.899  26.906   5.032
 4197POPC   PO454084  21.291  27.099   5.395
 4197POPC   GL154085  21.356  26.904   5.814
 4197POPC   GL254086  21.558  27.177   5.932
 4197POPC   C1A54087  21.580  26.714   6.202
 4197POPC   D2A54088  21.591  26.484   6.592
 4197POPC   C3A54089  21.239  26.593   6.844
 4197POPC   C4A54090  21.297  26.448   7.245
 4197POPC   C1B54091  21.440  27.178   6.346
 4197POPC   C2B54092  21.565  27.204   6.770
 4197POPC   C3B54093  21.603  26.882   7.089
 4197POPC   C4B54094  21.366  26.900   7.462
 4198POPC   NC354095  29.226   1.342   5.456
 4198POPC   PO454096  29.413   0.751   5.674
 4198POPC   GL154097  29.265   1.055   5.961
 4198POPC   GL254098  29.265   1.429   5.949
 4198POPC   C1A54099  29.257   1.125   6.417
 4198POPC   D2A54100  29.027   0.942   6.744
 4198POPC   C3A54101  29.072   1.139   7.105
 4198POPC   C4A54102  29.359   0.871   7.237
 4198POPC   C1B54103  29.105   1.621   6.322
 4198POPC   C2B54104  29.177   1.508   6.745
 4198POPC   C3B54105  29.524   1.239   6.909
 4198POPC   C4B54106  29.507   1.322   7.377
 4199POPC   NC354107  20.849   6.570   5.542
 4199POPC   PO454108  20.331   6.197   5.368
 4199POPC   GL154109  20.490   6.318   5.806
 4199POPC   GL254110  20.431   6.633   5.964
 4199POPC   C1A54111  20.782   6.260   6.184
 4199POPC   D2A54112  20.841   6.151   6.601
 4199POPC   C3A54113  20.625   6.395   6.920
 4199POPC   C4A54114  20.529   6.704   7.215
 4199POPC   C1B54115  20.475   6.594   6.428
 4199POPC   C2B54116  20.443   6.892   6.758
 4199POPC   C3B54117  20.181   7.049   7.112
 4199POPC   C4B54118  19.974   7.092   7.532
 4200POPC   NC354119  14.815   2.044   5.317
 4200POPC   PO454120  15.180   2.442   5.743
 4200POPC   GL154121  15.175   2.052   5.930
 4200POPC   GL254122  14.865   1.867   5.808
 4200POPC   C1A54123  15.334   1.959   6.362
 4200POPC   D2A54124  15.641   1.891   6.717
 4200POPC   C3A54125  15.452   1.746   7.084
 4200POPC   C4A54126  15.223   1.962   7.397
 4200POPC   C1B54127  14.784   2.003   6.242
 4200POPC   C2B54128  14.955   2.289   6.563
 4200POPC   C3B54129  14.866   2.204   6.990
 4200POPC   C4B54130  14.886   1.766   7.065
 4201POPC   NC354131   7.573  35.499   5.532
 4201POPC   PO454132   7.186  34.885   5.379
 4201POPC   GL154133   7.292  35.103   5.800
 4201POPC   GL254134   7.307  35.471   5.935
 4201POPC   C1A54135   7.517  35.092   6.214
 4201POPC   D2A54136   7.458  35.362   6.552
 4201POPC   C3A54137   7.698  35.304   6.918
 4201POPC   C4A54138   7.633  35.010   7.250
 4201POPC   C1B54139   7.553  35.730   6.173
 4201POPC   C2B54140   7.584  35.872   6.608
 4201POPC   C3B54141   7.345  35.706   6.917
 4201POPC   C4B54142   7.392  35.503   7.250
 4202POPC   NC354143  44.623   0.126   5.607
 4202POPC   PO454144  44.944   0.693   5.557
 4202POPC   GL154145  44.651   0.552   5.876
 4202POPC   GL254146  44.896   0.285   6.006
 4202POPC   C1A54147  44.456   0.372   6.252
 4202POPC   D2A54148  44.413   0.447   6.692
 4202POPC   C3A54149  44.639   0.176   6.963
 4202POPC   C4A54150  44.462  45.000   7.337
 4202POPC   C1B54151  44.992   0.652   6.245
 4202POPC   C2B54152  44.889   0.877   6.603
 4202POPC   C3B54153  44.790   0.702   6.990
 4202POPC   C4B54154  44.658   0.507   7.356
 4203POPC   NC354155  43.048  34.187   5.331
 4203POPC   PO454156  43.338  33.702   5.698
 4203POPC   GL154157  42.941  33.691   5.855
 4203POPC   GL254158  42.822  34.002   5.763
 4203POPC   C1A54159  42.958  33.563   6.269
 4203POPC   D2A54160  43.109  33.813   6.620
 4203POPC   C3A54161  42.976  33.613   6.969
 4203POPC   C4A54162  43.043  33.793   7.325
 4203POPC   C1B54163  42.899  34.106   6.205
 4203POPC   C2B54164  42.711  34.290   6.593
 4203POPC   C3B54165  42.764  34.092   7.007
 4203POPC   C4B54166  42.682  34.103   7.471
 4204POPC   NC354167   1.775   4.982   5.532
 4204POPC   PO454168   2.315   5.306   5.252
 4204POPC   GL154169   2.347   5.299   5.755
 4204POPC   GL254170   2.156   5.007   5.900
 4204POPC   C1A54171   2.149   5.376   6.231
 4204POPC   D2A54172   1.784   5.247   6.541
 4204POPC   C3A54173   1.784   5.360   6.962
 4204POPC   C4A54174   2.155   5.275   7.173
 4204POPC   C1B54175   1.804   4.874   6.194
 4204POPC   C2B54176   1.851   4.760   6.651
 4204POPC   C3B54177   1.775   4.849   7.067
 4204POPC   C4B54178   2.109   4.775   7.340
 4205POPC   NC354179  41.208  39.991   5.411
 4205POPC   PO454180  40.580  39.771   5.123
 4205POPC   GL154181  40.714  39.851   5.637
 4205POPC   GL254182  41.032  39.935   5.887
 4205POPC   C1A54183  40.580  39.823   6.111
 4205POPC   D2A54184  40.489  39.787   6.599
 4205POPC   C3A54185  40.397  40.135   6.902
 4205POPC   C4A54186  40.695  40.199   7.247
 4205POPC   C1B54187  40.955  40.121   6.332
 4205POPC   C2B54188  40.945  40.069   6.800
 4205POPC   C3B54189  41.203  40.217   7.155
 4205POPC   C4B54190  41.208  40.286   7.601
 4206POPC   NC354191  42.417  32.829   5.396
 4206POPC   PO454192  42.445  33.446   5.330
 4206POPC   GL154193  42.615  33.191   5.723
 4206POPC   GL254194  42.296  33.008   5.864
 4206POPC   C1A54195  42.712  33.078   6.180
 4206POPC   D2A54196  42.746  33.232   6.629
 4206POPC   C3A54197  42.649  32.897   6.976
 4206POPC   C4A54198  42.404  32.801   7.374
 4206POPC   C1B54199  42.022  33.066   6.247
 4206POPC   C2B54200  42.232  33.059   6.647
 4206POPC   C3B54201  42.229  33.180   7.075
 4206POPC   C4B54202  41.875  33.194   7.315
 4207POPC   NC354203   3.133   1.199   5.445
 4207POPC   PO454204   3.704   0.892   5.203
 4207POPC   GL154205   3.585   1.299   5.670
 4207POPC   GL254206   3.300   1.408   5.875
 4207POPC   C1A54207   3.676   1.280   6.184
 4207POPC   D2A54208   3.546   1.008   6.556
 4207POPC   C3A54209   3.487   1.188   6.969
 4207POPC   C4A54210   3.897   1.154   7.213
 4207POPC   C1B54211   3.329   1.651   6.264
 4207POPC   C2B54212   3.369   1.632   6.709
 4207POPC   C3B54213   3.214   1.650   7.122
 4207POPC   C4B54214   3.459   1.439   7.427
 4208POPC   NC354215  16.636   6.357   5.466
 4208POPC   PO454216  16.851   5.653   5.453
 4208POPC   GL154217  16.790   5.885   5.826
 4208POPC   GL254218  16.467   6.024   5.817
 4208POPC   C1A54219  16.649   5.806   6.256
 4208POPC   D2A54220  16.779   6.017   6.622
 4208POPC   C3A54221  16.702   5.711   6.947
 4208POPC   C4A54222  16.660   5.719   7.397
 4208POPC   C1B54223  16.624   6.299   6.156
 4208POPC   C2B54224  16.450   6.408   6.584
 4208POPC   C3B54225  16.552   6.211   7.031
 4208POPC   C4B54226  16.369   6.246   7.434
 4209POPC   NC354227  31.941   3.552   5.445
 4209POPC   PO454228  32.581   3.429   5.555
 4209POPC   GL154229  32.235   3.531   5.875
 4209POPC   GL254230  31.857   3.636   5.925
 4209POPC   C1A54231  32.157   3.602   6.329
 4209POPC   D2A54232  32.448   3.679   6.679
 4209POPC   C3A54233  32.419   3.382   6.948
 4209POPC   C4A54234  32.503   3.457   7.338
 4209POPC   C1B54235  31.756   3.277   6.217
 4209POPC   C2B54236  31.729   3.360   6.665
 4209POPC   C3B54237  31.935   3.339   7.067
 4209POPC   C4B54238  32.036   3.423   7.493
 4210POPC   NC354239  14.148  33.659   5.399
 4210POPC   PO454240  14.662  34.110   5.374
 4210POPC   GL154241  14.436  33.876   5.750
 4210POPC   GL254242  14.216  34.105   5.932
 4210POPC   C1A54243  14.215  33.621   6.136
 4210POPC   D2A54244  14.111  33.770   6.585
 4210POPC   C3A54245  14.253  33.569   6.984
 4210POPC   C4A54246  14.243  33.633   7.466
 4210POPC   C1B54247  14.588  33.931   6.223
 4210POPC   C2B54248  14.743  33.990   6.630
 4210POPC   C3B54249  14.588  33.968   7.047
 4210POPC   C4B54250  14.761  33.791   7.393
 4211POPC   NC354251  38.684  33.101   5.605
 4211POPC   PO454252  38.014  33.248   5.554
 4211POPC   GL154253  38.150  33.160   5.969
 4211POPC   GL254254  38.036  32.844   6.151
 4211POPC   C1A54255  38.425  33.169   6.307
 4211POPC   D2A54256  38.267  33.037   6.705
 4211POPC   C3A54257  38.383  33.335   6.991
 4211POPC   C4A54258  38.732  33.494   7.265
 4211POPC   C1B54259  38.421  32.661   6.367
 4211POPC   C2B54260  38.685  32.728   6.736
 4211POPC   C3B54261  38.481  32.807   7.139
 4211POPC   C4B54262  38.350  32.635   7.543
 4212POPC   NC354263  33.947  35.720   5.479
 4212POPC   PO454264  33.626  35.121   5.599
 4212POPC   GL154265  33.775  35.390   5.846
 4212POPC   GL254266  33.474  35.550   5.873
 4212POPC   C1A54267  33.912  35.295   6.258
 4212POPC   D2A54268  33.746  35.220   6.654
 4212POPC   C3A54269  34.066  35.062   6.948
 4212POPC   C4A54270  34.136  34.962   7.355
 4212POPC   C1B54271  33.678  35.750   6.206
 4212POPC   C2B54272  33.904  35.767   6.600
 4212POPC   C3B54273  33.924  35.555   7.013
 4212POPC   C4B54274  33.615  35.233   7.145
 4213POPC   NC354275  37.375  37.117   5.450
 4213POPC   PO454276  38.040  36.982   5.396
 4213POPC   GL154277  37.760  37.077   5.786
 4213POPC   GL254278  37.490  36.840   5.873
 4213POPC   C1A54279  37.548  37.246   6.182
 4213POPC   D2A54280  37.644  37.343   6.607
 4213POPC   C3A54281  37.886  37.010   6.784
 4213POPC   C4A54282  37.923  37.056   7.202
 4213POPC   C1B54283  37.433  36.544   6.222
 4213POPC   C2B54284  37.580  36.598   6.625
 4213POPC   C3B54285  37.542  36.700   7.045
 4213POPC   C4B54286  37.508  36.368   7.332
 4214POPC   NC354287   5.088  12.990   5.284
 4214POPC   PO454288   5.121  12.411   5.474
 4214POPC   GL154289   5.032  12.626   5.843
 4214POPC   GL254290   5.062  12.985   5.805
 4214POPC   C1A54291   5.296  12.685   6.208
 4214POPC   D2A54292   5.324  12.965   6.553
 4214POPC   C3A54293   5.021  12.853   6.858
 4214POPC   C4A54294   5.110  12.784   7.273
 4214POPC   C1B54295   4.901  13.134   6.218
 4214POPC   C2B54296   4.988  13.361   6.629
 4214POPC   C3B54297   4.840  13.298   7.048
 4214POPC   C4B54298   4.870  13.196   7.459
 4215POPC   NC354299  37.759  44.486   5.687
 4215POPC   PO454300  37.434  43.829   5.433
 4215POPC   GL154301  37.590  43.977   5.802
 4215POPC   GL254302  37.553  43.642   5.886
 4215POPC   C1A54303  37.736  43.937   6.245
 4215POPC   D2A54304  37.905  44.106   6.601
 4215POPC   C3A54305  37.748  43.977   6.952
 4215POPC   C4A54306  37.893  44.073   7.327
 4215POPC   C1B54307  37.551  43.442   6.232
 4215POPC   C2B54308  37.727  43.325   6.592
 4215POPC   C3B54309  37.577  43.389   6.976
 4215POPC   C4B54310  37.596  43.635   7.310
 4216POPC   NC354311  18.828   1.576   5.731
 4216POPC   PO454312  19.289   1.136   5.354
 4216POPC   GL154313  19.056   1.125   5.744
 4216POPC   GL254314  18.955   0.824   5.906
 4216POPC   C1A54315  19.106   1.226   6.206
 4216POPC   D2A54316  18.984   1.067   6.611
 4216POPC   C3A54317  19.134   1.369   6.876
 4216POPC   C4A54318  19.158   1.347   7.288
 4216POPC   C1B54319  18.688   0.737   6.317
 4216POPC   C2B54320  18.540   0.863   6.755
 4216POPC   C3B54321  18.802   0.995   7.135
 4216POPC   C4B54322  19.158   0.842   7.409
 4217POPC   NC354323  17.436   6.624   5.403
 4217POPC   PO454324  17.217   7.073   5.809
 4217POPC   GL154325  17.482   6.741   5.981
 4217POPC   GL254326  17.737   6.509   5.815
 4217POPC   C1A54327  17.585   6.706   6.441
 4217POPC   D2A54328  17.681   6.749   6.890
 4217POPC   C3A54329  17.386   6.713   7.244
 4217POPC   C4A54330  17.139   6.693   7.648
 4217POPC   C1B54331  17.569   6.259   6.192
 4217POPC   C2B54332  17.368   6.247   6.613
 4217POPC   C3B54333  17.529   6.255   7.000
 4217POPC   C4B54334  17.861   6.403   7.234
 4218POPC   NC354335  15.487  22.545   5.642
 4218POPC   PO454336  14.941  22.173   5.424
 4218POPC   GL154337  15.123  22.244   5.822
 4218POPC   GL254338  15.449  22.076   5.829
 4218POPC   C1A54339  15.132  22.096   6.244
 4218POPC   D2A54340  15.172  22.389   6.570
 4218POPC   C3A54341  14.895  22.233   6.854
 4218POPC   C4A54342  14.843  22.155   7.235
 4218POPC   C1B54343  15.613  22.289   6.233
 4218POPC   C2B54344  15.748  22.115   6.639
 4218POPC   C3B54345  15.384  22.022   6.900
 4218POPC   C4B54346  15.284  22.428   7.087
 4219POPC   NC354347  39.357  44.302   5.428
 4219POPC   PO454348  38.893  44.796   5.548
 4219POPC   GL154349  39.276  44.718   5.835
 4219POPC   GL254350  39.373   0.026   6.057
 4219POPC   C1A54351  39.447  44.478   6.149
 4219POPC   D2A54352  39.373  44.313   6.559
 4219POPC   C3A54353  39.189  44.599   6.848
 4219POPC   C4A54354  39.143  44.468   7.236
 4219POPC   C1B54355  39.085  44.819   6.349
 4219POPC   C2B54356  38.792  44.877   6.677
 4219POPC   C3B54357  38.817  44.924   7.063
 4219POPC   C4B54358  39.140  44.965   7.313
 4220POPC   NC354359  37.744  19.262   5.417
 4220POPC   PO454360  37.682  19.966   5.347
 4220POPC   GL154361  37.699  19.744   5.710
 4220POPC   GL254362  38.036  19.864   5.770
 4220POPC   C1A54363  37.664  19.715   6.185
 4220POPC   D2A54364  37.583  19.515   6.634
 4220POPC   C3A54365  37.545  19.768   7.062
 4220POPC   C4A54366  37.319  19.651   7.467
 4220POPC   C1B54367  38.098  20.021   6.176
 4220POPC   C2B54368  38.023  19.781   6.541
 4220POPC   C3B54369  38.085  19.882   6.929
 4220POPC   C4B54370  38.092  19.845   7.341
 4221POPC   NC354371  22.071  42.555   5.446
 4221POPC   PO454372  22.035  41.901   5.484
 4221POPC   GL154373  22.238  42.090   5.837
 4221POPC   GL254374  22.271  42.483   5.900
 4221POPC   C1A54375  22.236  42.144   6.256
 4221POPC   D2A54376  22.079  42.361   6.589
 4221POPC   C3A54377  22.250  42.180   6.937
 4221POPC   C4A54378  22.094  42.038   7.309
 4221POPC   C1B54379  22.022  42.719   6.213
 4221POPC   C2B54380  22.030  42.904   6.644
 4221POPC   C3B54381  22.111  42.693   7.018
 4221POPC   C4B54382  22.357  42.490   7.326
 4222POPC   NC354383  22.652  40.855   5.290
 4222POPC   PO454384  23.210  40.675   5.693
 4222POPC   GL154385  22.871  40.763   5.939
 4222POPC   GL254386  22.664  41.026   5.806
 4222POPC   C1A54387  22.750  40.616   6.329
 4222POPC   D2A54388  22.968  40.496   6.684
 4222POPC   C3A54389  23.155  40.710   7.054
 4222POPC   C4A54390  23.007  40.644   7.479
 4222POPC   C1B54391  22.561  41.088   6.257
 4222POPC   C2B54392  22.721  40.972   6.706
 4222POPC   C3B54393  22.659  40.710   7.073
 4222POPC   C4B54394  22.476  40.783   7.483
 4223POPC   NC354395  36.472  33.108   5.283
 4223POPC   PO454396  35.841  32.947   5.453
 4223POPC   GL154397  36.041  32.850   5.828
 4223POPC   GL254398  36.164  33.140   5.888
 4223POPC   C1A54399  35.957  32.837   6.274
 4223POPC   D2A54400  35.769  32.756   6.667
 4223POPC   C3A54401  35.919  32.943   7.018
 4223POPC   C4A54402  36.058  32.856   7.431
 4223POPC   C1B54403  36.318  33.190   6.323
 4223POPC   C2B54404  36.375  33.079   6.769
 4223POPC   C3B54405  36.298  33.243   7.187
 4223POPC   C4B54406  36.104  33.357   7.610
 4224POPC   NC354407  24.504  32.517   5.379
 4224POPC   PO454408  24.707  31.944   5.359
 4224POPC   GL154409  24.521  32.174   5.777
 4224POPC   GL254410  24.178  32.070   5.924
 4224POPC   C1A54411  24.554  32.148   6.266
 4224POPC   D2A54412  24.717  31.987   6.701
 4224POPC   C3A54413  24.618  32.220   7.064
 4224POPC   C4A54414  24.569  32.629   7.201
 4224POPC   C1B54415  23.976  32.288   6.307
 4224POPC   C2B54416  23.994  32.529   6.722
 4224POPC   C3B54417  24.103  32.389   7.140
 4224POPC   C4B54418  24.220  31.930   7.182
 4225POPC   NC354419  38.824  10.373   5.487
 4225POPC   PO454420  39.478  10.632   5.376
 4225POPC   GL154421  39.217  10.635   5.735
 4225POPC   GL254422  39.229  10.282   5.793
 4225POPC   C1A54423  39.276  10.595   6.188
 4225POPC   D2A54424  39.513  10.523   6.572
 4225POPC   C3A54425  39.327  10.563   6.968
 4225POPC   C4A54426  39.297  10.379   7.356
 4225POPC   C1B54427  38.977  10.183   6.176
 4225POPC   C2B54428  39.007  10.381   6.590
 4225POPC   C3B54429  38.919  10.232   7.014
 4225POPC   C4B54430  38.843  10.585   7.294
 4226POPC   NC354431  25.822  41.788   5.386
 4226POPC   PO454432  26.437  41.525   5.377
 4226POPC   GL154433  26.082  41.466   5.675
 4226POPC   GL254434  26.136  41.815   5.791
 4226POPC   C1A54435  26.071  41.409   6.140
 4226POPC   D2A54436  26.271  41.649   6.447
 4226POPC   C3A54437  26.318  41.578   6.878
 4226POPC   C4A54438  26.248  41.370   7.252
 4226POPC   C1B54439  25.972  41.966   6.163
 4226POPC   C2B54440  25.908  42.136   6.552
 4226POPC   C3B54441  25.934  41.917   6.933
 4226POPC   C4B54442  26.000  41.857   7.361
 4227POPC   NC354443  21.499  40.766   5.432
 4227POPC   PO454444  20.960  40.513   5.760
 4227POPC   GL154445  21.207  40.886   5.866
 4227POPC   GL254446  21.603  40.950   5.891
 4227POPC   C1A54447  21.299  40.899   6.298
 4227POPC   D2A54448  21.332  40.579   6.607
 4227POPC   C3A54449  21.120  40.620   6.959
 4227POPC   C4A54450  21.256  40.976   7.124
 4227POPC   C1B54451  21.730  40.643   6.194
 4227POPC   C2B54452  21.862  40.545   6.598
 4227POPC   C3B54453  21.685  40.786   6.933
 4227POPC   C4B54454  21.519  40.572   7.279
 4228POPC   NC354455  44.681  38.898   5.341
 4228POPC   PO454456  44.127  39.194   5.358
 4228POPC   GL154457  44.529  39.241   5.700
 4228POPC   GL254458  44.794  38.943   5.820
 4228POPC   C1A54459  44.471  39.383   6.152
 4228POPC   D2A54460  44.291  39.339   6.584
 4228POPC   C3A54461  44.609  39.448   6.899
 4228POPC   C4A54462  44.869  39.419   7.265
 4228POPC   C1B54463  44.551  38.863   6.162
 4228POPC   C2B54464  44.657  38.978   6.576
 4228POPC   C3B54465  44.629  38.838   6.990
 4228POPC   C4B54466  44.856  38.927   7.354
 4229POPC   NC354467   6.891  25.419   5.454
 4229POPC   PO454468   6.644  24.769   5.194
 4229POPC   GL154469   6.403  25.011   5.647
 4229POPC   GL254470   6.507  25.376   5.803
 4229POPC   C1A54471   6.471  25.012   6.137
 4229POPC   D2A54472   6.653  25.170   6.515
 4229POPC   C3A54473   6.468  25.291   6.880
 4229POPC   C4A54474   6.613  25.183   7.269
 4229POPC   C1B54475   6.898  25.420   6.125
 4229POPC   C2B54476   7.154  25.238   6.489
 4229POPC   C3B54477   7.033  25.142   6.928
 4229POPC   C4B54478   7.071  25.369   7.307
 4230POPC   NC354479  31.674  32.554   5.413
 4230POPC   PO454480  31.300  33.211   5.331
 4230POPC   GL154481  31.415  33.267   5.751
 4230POPC   GL254482  31.637  32.971   5.741
 4230POPC   C1A54483  31.315  33.066   6.131
 4230POPC   D2A54484  31.453  33.093   6.533
 4230POPC   C3A54485  31.340  32.971   6.928
 4230POPC   C4A54486  31.030  33.074   7.227
 4230POPC   C1B54487  31.789  32.917   6.165
 4230POPC   C2B54488  31.802  32.696   6.514
 4230POPC   C3B54489  31.877  32.859   6.883
 4230POPC   C4B54490  31.721  32.848   7.287
 4231POPC   NC354491   7.709  19.606   5.393
 4231POPC   PO454492   7.128  20.074   5.432
 4231POPC   GL154493   7.287  19.887   5.825
 4231POPC   GL254494   7.620  19.844   5.828
 4231POPC   C1A54495   7.496  20.034   6.268
 4231POPC   D2A54496   7.458  20.115   6.700
 4231POPC   C3A54497   7.309  19.815   7.026
 4231POPC   C4A54498   7.388  19.889   7.467
 4231POPC   C1B54499   7.450  19.544   6.174
 4231POPC   C2B54500   7.553  19.587   6.584
 4231POPC   C3B54501   7.667  19.467   6.952
 4231POPC   C4B54502   7.412  19.405   7.310
 4232POPC   NC354503  33.854   6.654   5.422
 4232POPC   PO454504  33.810   6.099   5.629
 4232POPC   GL154505  33.755   6.429   5.897
 4232POPC   GL254506  34.114   6.468   5.880
 4232POPC   C1A54507  33.736   6.417   6.365
 4232POPC   D2A54508  33.440   6.502   6.728
 4232POPC   C3A54509  33.714   6.714   7.013
 4232POPC   C4A54510  34.104   6.680   7.204
 4232POPC   C1B54511  34.045   6.793   6.182
 4232POPC   C2B54512  33.909   6.960   6.586
 4232POPC   C3B54513  34.070   7.122   6.971
 4232POPC   C4B54514  33.739   7.215   7.240
 4233POPC   NC354515  37.821  31.700   5.050
 4233POPC   PO454516  37.679  31.318   5.566
 4233POPC   GL154517  37.795  31.479   5.892
 4233POPC   GL254518  38.025  31.742   5.781
 4233POPC   C1A54519  37.549  31.630   6.220
 4233POPC   D2A54520  37.287  31.522   6.572
 4233POPC   C3A54521  37.413  31.585   6.997
 4233POPC   C4A54522  37.254  31.296   7.308
 4233POPC   C1B54523  38.072  31.742   6.199
 4233POPC   C2B54524  37.870  31.830   6.543
 4233POPC   C3B54525  37.953  31.633   6.891
 4233POPC   C4B54526  37.973  31.763   7.257
 4234POPC   NC354527   3.052  20.846   5.353
 4234POPC   PO454528   2.898  20.258   5.500
 4234POPC   GL154529   2.951  20.555   5.841
 4234POPC   GL254530   2.621  20.666   5.855
 4234POPC   C1A54531   2.893  20.679   6.281
 4234POPC   D2A54532   2.602  20.622   6.602
 4234POPC   C3A54533   2.790  20.632   6.968
 4234POPC   C4A54534   2.716  20.351   7.262
 4234POPC   C1B54535   2.433  20.910   6.226
 4234POPC   C2B54536   2.381  21.103   6.634
 4234POPC   C3B54537   2.363  20.881   7.023
 4234POPC   C4B54538   2.602  20.822   7.407
 4235POPC   NC354539  27.740  23.737   5.104
 4235POPC   PO454540  27.123  23.801   5.404
 4235POPC   GL154541  27.292  23.526   5.812
 4235POPC   GL254542  27.702  23.539   5.932
 4235POPC   C1A54543  27.326  23.537   6.246
 4235POPC   D2A54544  27.404  23.853   6.506
 4235POPC   C3A54545  27.169  23.699   6.815
 4235POPC   C4A54546  27.408  23.736   7.155
 4235POPC   C1B54547  27.872  23.686   6.297
 4235POPC   C2B54548  28.125  23.545   6.625
 4235POPC   C3B54549  28.019  23.521   7.046
 4235POPC   C4B54550  27.886  23.655   7.476
 4236POPC   NC354551  14.315  41.993   5.401
 4236POPC   PO454552  14.381  41.300   5.419
 4236POPC   GL154553  14.413  41.511   5.788
 4236POPC   GL254554  14.498  41.853   5.864
 4236POPC   C1A54555  14.543  41.416   6.194
 4236POPC   D2A54556  14.416  41.618   6.564
 4236POPC   C3A54557  14.517  41.427   6.935
 4236POPC   C4A54558  14.330  41.564   7.276
 4236POPC   C1B54559  14.723  41.906   6.229
 4236POPC   C2B54560  14.683  42.062   6.641
 4236POPC   C3B54561  14.656  41.978   7.052
 4236POPC   C4B54562  14.813  41.707   7.309
 4237POPC   NC354563  23.140  30.295   5.353
 4237POPC   PO454564  22.884  30.793   5.188
 4237POPC   GL154565  23.030  30.801   5.659
 4237POPC   GL254566  23.306  30.941   5.804
 4237POPC   C1A54567  22.907  30.939   6.115
 4237POPC   D2A54568  23.059  30.990   6.535
 4237POPC   C3A54569  22.825  30.835   6.904
 4237POPC   C4A54570  22.886  30.964   7.324
 4237POPC   C1B54571  23.330  30.654   6.194
 4237POPC   C2B54572  23.250  30.512   6.625
 4237POPC   C3B54573  23.319  30.675   7.027
 4237POPC   C4B54574  23.257  30.550   7.434
 4238POPC   NC354575   6.938  11.690   5.662
 4238POPC   PO454576   7.370  12.188   5.456
 4238POPC   GL154577   7.268  12.135   5.854
 4238POPC   GL254578   7.435  11.808   5.856
 4238POPC   C1A54579   7.314  12.343   6.251
 4238POPC   D2A54580   7.340  12.158   6.640
 4238POPC   C3A54581   7.141  12.328   6.966
 4238POPC   C4A54582   7.346  12.179   7.309
 4238POPC   C1B54583   7.259  11.805   6.261
 4238POPC   C2B54584   7.279  11.610   6.646
 4238POPC   C3B54585   7.223  11.777   7.021
 4238POPC   C4B54586   7.075  11.753   7.418
 4239POPC   NC354587   8.456   2.642   5.546
 4239POPC   PO454588   7.894   2.798   5.336
 4239POPC   GL154589   8.087   2.873   5.807
 4239POPC   GL254590   8.452   2.912   5.978
 4239POPC   C1A54591   8.064   2.663   6.201
 4239POPC   D2A54592   8.289   2.781   6.564
 4239POPC   C3A54593   8.141   2.593   6.914
 4239POPC   C4A54594   8.060   2.534   7.317
 4239POPC   C1B54595   8.658   2.581   6.256
 4239POPC   C2B54596   8.789   2.652   6.704
 4239POPC   C3B54597   8.563   2.843   7.074
 4239POPC   C4B54598   8.598   2.738   7.539
 4240POPC   NC354599   8.530  38.354   5.413
 4240POPC   PO454600   7.935  38.591   5.397
 4240POPC   GL154601   8.197  38.535   5.770
 4240POPC   GL254602   8.534  38.688   5.786
 4240POPC   C1A54603   8.191  38.273   6.157
 4240POPC   D2A54604   8.260  38.110   6.580
 4240POPC   C3A54605   8.281  38.420   6.905
 4240POPC   C4A54606   8.382  38.365   7.276
 4240POPC   C1B54607   8.678  38.464   6.139
 4240POPC   C2B54608   8.610  38.585   6.571
 4240POPC   C3B54609   8.623  38.806   7.017
 4240POPC   C4B54610   8.609  38.746   7.508
 4241POPC   NC354611  26.296  13.021   5.294
 4241POPC   PO454612  25.713  13.141   5.507
 4241POPC   GL154613  25.957  13.136   5.882
 4241POPC   GL254614  26.183  12.852   5.855
 4241POPC   C1A54615  26.026  13.111   6.334
 4241POPC   D2A54616  26.271  12.819   6.573
 4241POPC   C3A54617  26.236  12.922   7.008
 4241POPC   C4A54618  25.952  13.184   7.243
 4241POPC   C1B54619  25.916  12.646   6.196
 4241POPC   C2B54620  25.735  12.457   6.577
 4241POPC   C3B54621  25.579  12.476   6.999
 4241POPC   C4B54622  25.867  12.639   7.255
 4242POPC   NC354623  40.103  32.711   5.459
 4242POPC   PO454624  39.911  33.374   5.407
 4242POPC   GL154625  40.026  33.100   5.785
 4242POPC   GL254626  40.191  33.283   6.042
 4242POPC   C1A54627  40.060  32.804   6.168
 4242POPC   D2A54628  40.207  32.960   6.573
 4242POPC   C3A54629  40.056  32.765   6.945
 4242POPC   C4A54630  40.171  32.894   7.316
 4242POPC   C1B54631  39.798  33.268   6.257
 4242POPC   C2B54632  39.713  33.201   6.668
 4242POPC   C3B54633  39.948  33.252   7.007
 4242POPC   C4B54634  40.043  33.372   7.400
 4243POPC   NC354635  16.127   5.233   5.450
 4243POPC   PO454636  15.705   4.712   5.226
 4243POPC   GL154637  15.863   4.836   5.639
 4243POPC   GL254638  15.683   5.161   5.741
 4243POPC   C1A54639  16.041   4.959   6.068
 4243POPC   D2A54640  15.988   4.870   6.529
 4243POPC   C3A54641  15.967   5.109   6.913
 4243POPC   C4A54642  16.147   4.959   7.290
 4243POPC   C1B54643  15.715   5.425   6.125
 4243POPC   C2B54644  15.632   5.374   6.588
 4243POPC   C3B54645  15.539   5.391   7.034
 4243POPC   C4B54646  15.735   5.201   7.424
 4244POPC   NC354647  43.480  13.484   5.382
 4244POPC   PO454648  42.835  13.698   5.471
 4244POPC   GL154649  42.949  13.783   5.875
 4244POPC   GL254650  43.262  13.692   5.803
 4244POPC   C1A54651  42.849  13.790   6.300
 4244POPC   D2A54652  42.892  13.868   6.712
 4244POPC   C3A54653  42.946  13.542   6.934
 4244POPC   C4A54654  43.058  13.658   7.290
 4244POPC   C1B54655  43.357  13.795   6.218
 4244POPC   C2B54656  43.323  13.592   6.586
 4244POPC   C3B54657  43.473  13.654   6.975
 4244POPC   C4B54658  43.520  13.416   7.355
 4245POPC   NC354659   7.571  20.230   5.468
 4245POPC   PO454660   7.404  20.968   5.431
 4245POPC   GL154661   7.486  20.661   5.794
 4245POPC   GL254662   7.227  20.399   5.850
 4245POPC   C1A54663   7.695  20.503   6.194
 4245POPC   D2A54664   7.843  20.612   6.618
 4245POPC   C3A54665   7.712  20.465   6.987
 4245POPC   C4A54666   7.569  20.643   7.378
 4245POPC   C1B54667   7.161  20.543   6.289
 4245POPC   C2B54668   7.223  20.565   6.761
 4245POPC   C3B54669   7.264  20.304   7.148
 4245POPC   C4B54670   7.206  20.360   7.632
 4246POPC   NC354671  30.833  24.602   5.323
 4246POPC   PO454672  30.529  24.167   5.646
 4246POPC   GL154673  30.872  24.373   5.839
 4246POPC   GL254674  31.035  24.107   6.018
 4246POPC   C1A54675  30.926  24.552   6.259
 4246POPC   D2A54676  30.986  24.730   6.674
 4246POPC   C3A54677  30.706  24.568   6.994
 4246POPC   C4A54678  30.930  24.629   7.326
 4246POPC   C1B54679  30.630  24.049   6.255
 4246POPC   C2B54680  30.590  24.252   6.610
 4246POPC   C3B54681  30.920  24.130   6.883
 4246POPC   C4B54682  30.772  24.031   7.270
 4247POPC   NC354683  29.495  14.437   5.469
 4247POPC   PO454684  28.870  14.310   5.441
 4247POPC   GL154685  29.101  14.443   5.801
 4247POPC   GL254686  29.326  14.174   5.878
 4247POPC   C1A54687  28.967  14.396   6.221
 4247POPC   D2A54688  29.161  14.390   6.624
 4247POPC   C3A54689  28.888  14.420   6.955
 4247POPC   C4A54690  29.210  14.698   7.115
 4247POPC   C1B54691  29.566  14.202   6.230
 4247POPC   C2B54692  29.602  14.018   6.609
 4247POPC   C3B54693  29.539  14.248   6.961
 4247POPC   C4B54694  29.222  14.203   7.251
 4248POPC   NC354695  34.177  36.687   5.594
 4248POPC   PO454696  34.613  37.153   5.325
 4248POPC   GL154697  34.725  36.871   5.851
 4248POPC   GL254698  34.830  37.155   6.026
 4248POPC   C1A54699  34.516  36.892   6.340
 4248POPC   D2A54700  34.503  37.212   6.692
 4248POPC   C3A54701  34.429  36.976   7.063
 4248POPC   C4A54702  34.237  36.580   7.043
 4248POPC   C1B54703  35.002  36.778   6.320
 4248POPC   C2B54704  34.831  36.597   6.712
 4248POPC   C3B54705  34.770  36.591   7.183
 4248POPC   C4B54706  34.808  36.587   7.654
 4249POPC   NC354707  19.693  22.830   5.231
 4249POPC   PO454708  20.222  22.907   5.552
 4249POPC   GL154709  19.848  23.044   5.730
 4249POPC   GL254710  19.680  22.722   5.749
 4249POPC   C1A54711  19.790  23.320   6.111
 4249POPC   D2A54712  19.629  23.206   6.525
 4249POPC   C3A54713  19.830  23.265   6.888
 4249POPC   C4A54714  19.689  23.145   7.266
 4249POPC   C1B54715  19.798  22.820   6.196
 4249POPC   C2B54716  19.936  22.801   6.614
 4249POPC   C3B54717  19.942  22.775   7.031
 4249POPC   C4B54718  20.324  22.696   7.199
 4250POPC   NC354719   3.788   6.070   5.241
 4250POPC   PO454720   3.158   5.980   5.501
 4250POPC   GL154721   3.545   6.042   5.730
 4250POPC   GL254722   3.754   5.745   5.783
 4250POPC   C1A54723   3.626   6.026   6.184
 4250POPC   D2A54724   3.520   5.709   6.487
 4250POPC   C3A54725   3.619   5.818   6.899
 4250POPC   C4A54726   3.742   6.163   7.222
 4250POPC   C1B54727   3.941   5.587   6.195
 4250POPC   C2B54728   3.828   5.324   6.577
 4250POPC   C3B54729   3.938   5.380   7.015
 4250POPC   C4B54730   3.839   5.685   7.356
 4251POPC   NC354731  40.959  41.993   5.131
 4251POPC   PO454732  40.919  41.373   5.349
 4251POPC   GL154733  40.789  41.695   5.689
 4251POPC   GL254734  40.513  41.943   5.829
 4251POPC   C1A54735  40.809  41.712   6.155
 4251POPC   D2A54736  40.772  41.851   6.559
 4251POPC   C3A54737  40.745  41.552   6.876
 4251POPC   C4A54738  40.632  41.276   7.237
 4251POPC   C1B54739  40.307  41.923   6.284
 4251POPC   C2B54740  40.295  41.868   6.756
 4251POPC   C3B54741  40.544  42.053   7.119
 4251POPC   C4B54742  40.681  42.130   7.586
 4252POPC   NC354743   7.029  41.909   5.471
 4252POPC   PO454744   7.575  42.338   5.526
 4252POPC   GL154745   7.409  42.300   5.896
 4252POPC   GL254746   7.337  41.942   5.888
 4252POPC   C1A54747   7.510  42.326   6.298
 4252POPC   D2A54748   7.350  42.488   6.651
 4252POPC   C3A54749   7.586  42.383   7.001
 4252POPC   C4A54750   7.499  42.506   7.434
 4252POPC   C1B54751   7.043  42.037   6.220
 4252POPC   C2B54752   6.945  42.180   6.658
 4252POPC   C3B54753   7.104  42.204   7.113
 4252POPC   C4B54754   7.127  42.217   7.600
 4253POPC   NC354755  22.664  36.819   5.434
 4253POPC   PO454756  23.268  37.157   5.458
 4253POPC   GL154757  23.023  36.867   5.801
 4253POPC   GL254758  22.648  36.829   5.923
 4253POPC   C1A54759  22.975  36.972   6.261
 4253POPC   D2A54760  23.177  37.001   6.622
 4253POPC   C3A54761  22.953  36.899   6.965
 4253POPC   C4A54762  23.135  36.961   7.311
 4253POPC   C1B54763  22.678  36.536   6.238
 4253POPC   C2B54764  22.908  36.502   6.633
 4253POPC   C3B54765  22.643  36.493   7.008
 4253POPC   C4B54766  22.589  36.658   7.448
 4254POPC   NC354767   6.660  22.584   5.560
 4254POPC   PO454768   6.848  21.971   5.402
 4254POPC   GL154769   6.828  22.121   5.845
 4254POPC   GL254770   6.483  22.181   5.868
 4254POPC   C1A54771   6.679  21.998   6.297
 4254POPC   D2A54772   6.451  22.067   6.707
 4254POPC   C3A54773   6.739  22.092   7.043
 4254POPC   C4A54774   6.928  22.255   7.421
 4254POPC   C1B54775   6.563  22.488   6.216
 4254POPC   C2B54776   6.730  22.488   6.631
 4254POPC   C3B54777   6.626  22.588   7.074
 4254POPC   C4B54778   6.441  22.395   7.423
 4255POPC   NC354779  32.406  10.654   5.396
 4255POPC   PO454780  31.983  10.097   5.649
 4255POPC   GL154781  32.188  10.425   5.899
 4255POPC   GL254782  32.146  10.762   5.852
 4255POPC   C1A54783  32.286  10.561   6.336
 4255POPC   D2A54784  32.419  10.752   6.706
 4255POPC   C3A54785  32.307  10.421   6.958
 4255POPC   C4A54786  32.183  10.209   7.304
 4255POPC   C1B54787  31.845  10.761   6.226
 4255POPC   C2B54788  31.909  10.601   6.681
 4255POPC   C3B54789  32.047  10.830   7.077
 4255POPC   C4B54790  32.014  10.966   7.511
 4256POPC   NC354791   2.127   9.648   5.673
 4256POPC   PO454792   2.680   9.954   5.340
 4256POPC   GL154793   2.689   9.745   5.743
 4256POPC   GL254794   2.891  10.015   5.895
 4256POPC   C1A54795   2.588   9.466   6.113
 4256POPC   D2A54796   2.756   9.328   6.499
 4256POPC   C3A54797   2.619   9.346   6.903
 4256POPC   C4A54798   2.756   9.503   7.320
 4256POPC   C1B54799   2.991   9.741   6.297
 4256POPC   C2B54800   2.997   9.696   6.776
 4256POPC   C3B54801   2.865   9.962   7.126
 4256POPC   C4B54802   2.875   9.937   7.595
 4257POPC   NC354803  34.138  20.987   5.169
 4257POPC   PO454804  34.571  20.459   5.339
 4257POPC   GL154805  34.643  20.590   5.754
 4257POPC   GL254806  34.392  20.782   5.871
 4257POPC   C1A54807  34.603  20.434   6.173
 4257POPC   D2A54808  34.629  20.257   6.546
 4257POPC   C3A54809  34.670  20.480   6.936
 4257POPC   C4A54810  34.819  20.361   7.332
 4257POPC   C1B54811  34.496  20.948   6.250
 4257POPC   C2B54812  34.731  21.074   6.583
 4257POPC   C3B54813  34.590  21.079   6.996
 4257POPC   C4B54814  34.600  20.821   7.335
 4258POPC   NC354815  13.664   7.158   5.606
 4258POPC   PO454816  13.621   7.789   5.316
 4258POPC   GL154817  13.560   7.676   5.788
 4258POPC   GL254818  13.298   7.414   5.871
 4258POPC   C1A54819  13.787   7.491   6.168
 4258POPC   D2A54820  13.861   7.244   6.543
 4258POPC   C3A54821  13.592   7.347   6.841
 4258POPC   C4A54822  13.637   7.622   7.175
 4258POPC   C1B54823  13.418   7.163   6.262
 4258POPC   C2B54824  13.438   6.904   6.628
 4258POPC   C3B54825  13.212   6.863   6.997
 4258POPC   C4B54826  13.333   7.204   7.247
 4259POPC   NC354827   2.742  27.306   5.117
 4259POPC   PO454828   2.505  27.789   5.516
 4259POPC   GL154829   2.622  27.529   5.862
 4259POPC   GL254830   2.910  27.429   5.879
 4259POPC   C1A54831   2.720  27.642   6.303
 4259POPC   D2A54832   2.825  28.001   6.598
 4259POPC   C3A54833   2.807  27.796   6.981
 4259POPC   C4A54834   2.396  27.623   7.108
 4259POPC   C1B54835   3.149  27.380   6.263
 4259POPC   C2B54836   2.971  27.267   6.662
 4259POPC   C3B54837   2.948  27.307   7.103
 4259POPC   C4B54838   3.106  27.600   7.413
 4260POPC   NC354839  39.913  38.779   5.575
 4260POPC   PO454840  40.179  38.128   5.360
 4260POPC   GL154841  40.051  38.281   5.772
 4260POPC   GL254842  39.770  38.350   5.998
 4260POPC   C1A54843  40.237  38.433   6.163
 4260POPC   D2A54844  40.102  38.563   6.577
 4260POPC   C3A54845  40.313  38.396   6.912
 4260POPC   C4A54846  40.251  38.545   7.267
 4260POPC   C1B54847  39.798  38.768   6.212
 4260POPC   C2B54848  39.674  38.885   6.610
 4260POPC   C3B54849  39.774  38.666   6.992
 4260POPC   C4B54850  39.631  38.331   7.232
 4261POPC   NC354851  29.321  36.904   5.368
 4261POPC   PO454852  29.031  37.339   5.709
 4261POPC   GL154853  29.199  36.929   5.886
 4261POPC   GL254854  29.036  36.657   5.751
 4261POPC   C1A54855  29.334  36.814   6.316
 4261POPC   D2A54856  29.265  37.166   6.608
 4261POPC   C3A54857  29.300  37.107   7.029
 4261POPC   C4A54858  28.920  37.100   7.304
 4261POPC   C1B54859  28.937  36.532   6.159
 4261POPC   C2B54860  28.932  36.462   6.574
 4261POPC   C3B54861  28.980  36.714   6.916
 4261POPC   C4B54862  29.207  36.653   7.286
 4262POPC   NC354863  33.262   5.370   5.586
 4262POPC   PO454864  33.218   4.715   5.491
 4262POPC   GL154865  33.000   4.829   5.884
 4262POPC   GL254866  32.860   5.155   5.851
 4262POPC   C1A54867  33.067   5.010   6.296
 4262POPC   D2A54868  33.213   5.375   6.545
 4262POPC   C3A54869  33.241   5.143   6.927
 4262POPC   C4A54870  32.916   4.917   7.158
 4262POPC   C1B54871  32.766   5.413   6.217
 4262POPC   C2B54872  32.720   5.234   6.645
 4262POPC   C3B54873  32.805   5.393   7.051
 4262POPC   C4B54874  32.805   5.354   7.480
 4263POPC   NC354875   9.121  36.843   5.213
 4263POPC   PO454876   8.647  36.453   5.503
 4263POPC   GL154877   8.852  36.718   5.777
 4263POPC   GL254878   9.097  36.959   5.708
 4263POPC   C1A54879   8.801  36.876   6.190
 4263POPC   D2A54880   8.991  36.679   6.517
 4263POPC   C3A54881   8.883  36.834   6.916
 4263POPC   C4A54882   8.731  36.812   7.309
 4263POPC   C1B54883   9.257  37.134   6.109
 4263POPC   C2B54884   9.314  37.074   6.559
 4263POPC   C3B54885   9.190  37.252   6.954
 4263POPC   C4B54886   9.156  37.100   7.362
 4264POPC   NC354887  26.225  37.219   5.540
 4264POPC   PO454888  25.776  36.632   5.369
 4264POPC   GL154889  25.879  36.714   5.844
 4264POPC   GL254890  26.238  36.762   5.816
 4264POPC   C1A54891  25.685  36.840   6.292
 4264POPC   D2A54892  25.883  37.156   6.648
 4264POPC   C3A54893  25.883  37.030   7.115
 4264POPC   C4A54894  25.836  37.072   7.589
 4264POPC   C1B54895  26.182  36.887   6.251
 4264POPC   C2B54896  26.043  36.681   6.640
 4264POPC   C3B54897  26.304  36.762   7.014
 4264POPC   C4B54898  26.238  36.771   7.469
 4265POPC   NC354899  17.069   4.293   5.171
 4265POPC   PO454900  17.801   4.331   5.249
 4265POPC   GL154901  17.741   4.500   5.676
 4265POPC   GL254902  17.420   4.389   5.747
 4265POPC   C1A54903  17.790   4.453   6.139
 4265POPC   D2A54904  17.820   4.248   6.564
 4265POPC   C3A54905  17.616   4.466   6.910
 4265POPC   C4A54906  17.774   4.413   7.314
 4265POPC   C1B54907  17.242   4.488   6.158
 4265POPC   C2B54908  17.210   4.301   6.566
 4265POPC   C3B54909  17.178   4.085   6.972
 4265POPC   C4B54910  17.301   4.262   7.339
 4266POPC   NC354911  32.594  15.914   5.394
 4266POPC   PO454912  31.990  16.128   5.501
 4266POPC   GL154913  32.254  15.916   5.795
 4266POPC   GL254914  32.526  16.184   5.829
 4266POPC   C1A54915  32.130  15.690   6.177
 4266POPC   D2A54916  31.863  15.669   6.553
 4266POPC   C3A54917  32.122  15.600   6.906
 4266POPC   C4A54918  32.245  15.838   7.227
 4266POPC   C1B54919  32.482  16.064   6.255
 4266POPC   C2B54920  32.385  15.999   6.687
 4266POPC   C3B54921  32.614  16.137   7.054
 4266POPC   C4B54922  32.744  16.018   7.474
 4267POPC   NC354923  37.318   0.567   5.428
 4267POPC   PO454924  36.798   1.079   5.405
 4267POPC   GL154925  37.005   1.086   5.798
 4267POPC   GL254926  37.160   0.763   5.865
 4267POPC   C1A54927  37.064   1.190   6.257
 4267POPC   D2A54928  37.014   1.419   6.646
 4267POPC   C3A54929  36.647   1.568   6.864
 4267POPC   C4A54930  36.761   1.415   7.250
 4267POPC   C1B54931  37.321   0.736   6.267
 4267POPC   C2B54932  37.263   0.900   6.694
 4267POPC   C3B54933  37.206   1.161   7.057
 4267POPC   C4B54934  37.090   1.117   7.499
 4268POPC   NC354935  30.847  30.846   5.420
 4268POPC   PO454936  30.475  30.295   5.365
 4268POPC   GL154937  30.500  30.584   5.725
 4268POPC   GL254938  30.862  30.538   5.825
 4268POPC   C1A54939  30.555  30.818   6.125
 4268POPC   D2A54940  30.616  30.781   6.567
 4268POPC   C3A54941  30.302  30.810   6.895
 4268POPC   C4A54942  30.320  30.871   7.324
 4268POPC   C1B54943  31.064  30.557   6.247
 4268POPC   C2B54944  31.239  30.599   6.667
 4268POPC   C3B54945  30.994  30.707   7.037
 4268POPC   C4B54946  30.965  30.485   7.423
 4269POPC   NC354947  26.565   0.265   5.175
 4269POPC   PO454948  27.079   0.615   5.307
 4269POPC   GL154949  26.854   0.368   5.660
 4269POPC   GL254950  26.590   0.582   5.738
 4269POPC   C1A54951  26.699   0.263   6.113
 4269POPC   D2A54952  26.632   0.515   6.515
 4269POPC   C3A54953  26.540   0.416   6.964
 4269POPC   C4A54954  26.758   0.177   7.304
 4269POPC   C1B54955  26.872   0.740   6.109
 4269POPC   C2B54956  26.783   1.005   6.510
 4269POPC   C3B54957  26.824   0.834   6.910
 4269POPC   C4B54958  26.885   0.654   7.337
 4270POPC   NC354959  34.381  20.022   5.275
 4270POPC   PO454960  34.847  19.590   5.474
 4270POPC   GL154961  34.706  19.907   5.789
 4270POPC   GL254962  34.415  20.112   5.784
 4270POPC   C1A54963  34.586  19.812   6.218
 4270POPC   D2A54964  34.709  19.779   6.635
 4270POPC   C3A54965  34.464  19.648   6.920
 4270POPC   C4A54966  34.446  19.852   7.294
 4270POPC   C1B54967  34.182  20.111   6.161
 4270POPC   C2B54968  34.198  19.923   6.563
 4270POPC   C3B54969  34.281  20.139   6.911
 4270POPC   C4B54970  34.290  20.349   7.279
 4271POPC   NC354971  26.257  40.943   5.366
 4271POPC   PO454972  25.636  40.930   5.451
 4271POPC   GL154973  25.882  40.992   5.859
 4271POPC   GL254974  26.285  41.035   5.849
 4271POPC   C1A54975  25.725  40.786   6.286
 4271POPC   D2A54976  25.718  40.789   6.748
 4271POPC   C3A54977  25.854  40.552   7.106
 4271POPC   C4A54978  26.054  40.507   7.537
 4271POPC   C1B54979  26.216  40.897   6.235
 4271POPC   C2B54980  26.200  41.131   6.590
 4271POPC   C3B54981  26.173  40.920   6.952
 4271POPC   C4B54982  26.401  40.803   7.280
 4272POPC   NC354983   7.875  32.410   5.522
 4272POPC   PO454984   7.213  32.330   5.506
 4272POPC   GL154985   7.153  32.247   5.914
 4272POPC   GL254986   7.490  32.154   5.993
 4272POPC   C1A54987   7.169  32.336   6.351
 4272POPC   D2A54988   7.473  32.195   6.645
 4272POPC   C3A54989   7.275  32.122   7.021
 4272POPC   C4A54990   7.291  32.297   7.416
 4272POPC   C1B54991   7.825  32.313   6.265
 4272POPC   C2B54992   8.060  32.096   6.557
 4272POPC   C3B54993   7.851  31.948   6.922
 4272POPC   C4B54994   7.731  32.136   7.261
 4273POPC   NC354995  10.324   9.967   5.441
 4273POPC   PO454996  10.939   9.846   5.648
 4273POPC   GL154997  10.575   9.977   5.911
 4273POPC   GL254998  10.305   9.721   5.898
 4273POPC   C1A54999  10.484  10.001   6.365
 4273POPC   D2A55000  10.779  10.042   6.716
 4273POPC   C3A55001  10.652   9.910   7.108
 4273POPC   C4A55002  10.231   9.860   7.282
 4273POPC   C1B55003  10.602   9.524   6.203
 4273POPC   C2B55004  10.625   9.540   6.664
 4273POPC   C3B55005  10.437   9.442   7.058
 4273POPC   C4B55006  10.577   9.531   7.472
 4274POPC   NC355007  19.148  37.825   5.500
 4274POPC   PO455008  19.078  37.181   5.491
 4274POPC   GL155009  19.321  37.245   5.893
 4274POPC   GL255010  19.285  37.608   5.987
 4274POPC   C1A55011  19.168  37.263   6.357
 4274POPC   D2A55012  18.845  37.329   6.685
 4274POPC   C3A55013  18.928  37.603   7.025
 4274POPC   C4A55014  19.037  37.426   7.416
 4274POPC   C1B55015  18.971  37.747   6.346
 4274POPC   C2B55016  18.909  38.052   6.699
 4274POPC   C3B55017  18.932  38.132   7.148
 4274POPC   C4B55018  18.731  37.874   7.434
 4275POPC   NC355019   4.970   9.281   5.546
 4275POPC   PO455020   5.051   8.886   4.963
 4275POPC   GL155021   4.995   8.791   5.548
 4275POPC   GL255022   5.296   8.986   5.787
 4275POPC   C1A55023   4.899   8.881   6.070
 4275POPC   D2A55024   5.057   8.960   6.509
 4275POPC   C3A55025   4.879   8.856   6.895
 4275POPC   C4A55026   5.082   8.801   7.308
 4275POPC   C1B55027   5.403   9.202   6.230
 4275POPC   C2B55028   5.347   9.364   6.712
 4275POPC   C3B55029   5.548   9.346   7.125
 4275POPC   C4B55030   5.319   9.327   7.500
 4276POPC   NC355031  27.913  42.947   5.483
 4276POPC   PO455032  27.319  43.273   5.564
 4276POPC   GL155033  27.540  43.038   5.847
 4276POPC   GL255034  27.843  43.205   5.908
 4276POPC   C1A55035  27.495  43.058   6.281
 4276POPC   D2A55036  27.379  43.324   6.606
 4276POPC   C3A55037  27.552  43.064   6.909
 4276POPC   C4A55038  27.768  43.121   7.308
 4276POPC   C1B55039  27.960  42.834   6.173
 4276POPC   C2B55040  27.774  42.694   6.564
 4276POPC   C3B55041  27.944  42.767   6.980
 4276POPC   C4B55042  28.115  42.714   7.375
 4277POPC   NC355043  24.711  26.363   5.472
 4277POPC   PO455044  24.276  25.761   5.430
 4277POPC   GL155045  24.503  25.939   5.749
 4277POPC   GL255046  24.294  26.202   5.759
 4277POPC   C1A55047  24.482  26.038   6.195
 4277POPC   D2A55048  24.677  26.035   6.574
 4277POPC   C3A55049  24.445  26.065   6.961
 4277POPC   C4A55050  24.565  26.096   7.409
 4277POPC   C1B55051  24.116  26.371   6.113
 4277POPC   C2B55052  24.160  26.281   6.547
 4277POPC   C3B55053  23.970  26.309   6.941
 4277POPC   C4B55054  24.164  26.434   7.327
 4278POPC   NC355055   0.591   1.628   4.879
 4278POPC   PO455056   0.652   2.040   5.438
 4278POPC   GL155057   0.630   2.054   5.894
 4278POPC   GL255058   0.708   2.408   5.901
 4278POPC   C1A55059   0.326   1.884   6.240
 4278POPC   D2A55060  44.977   1.885   6.571
 4278POPC   C3A55061   0.160   1.824   6.988
 4278POPC   C4A55062   0.537   1.925   7.208
 4278POPC   C1B55063   0.555   2.331   6.319
 4278POPC   C2B55064   0.521   2.178   6.752
 4278POPC   C3B55065   0.607   2.421   7.155
 4278POPC   C4B55066   0.551   2.273   7.619
 4279POPC   NC355067  29.224  15.048   5.327
 4279POPC   PO455068  29.145  15.692   5.516
 4279POPC   GL155069  29.359  15.389   5.834
 4279POPC   GL255070  29.392  15.017   5.805
 4279POPC   C1A55071  29.252  15.256   6.268
 4279POPC   D2A55072  29.084  15.328   6.693
 4279POPC   C3A55073  29.362  15.294   7.043
 4279POPC   C4A55074  29.502  15.554   7.405
 4279POPC   C1B55075  28.997  14.891   6.019
 4279POPC   C2B55076  28.972  14.844   6.482
 4279POPC   C3B55077  28.800  14.926   6.884
 4279POPC   C4B55078  28.766  15.253   7.182
 4280POPC   NC355079   0.222   4.813   5.429
 4280POPC   PO455080   0.683   5.376   5.440
 4280POPC   GL155081   0.462   5.152   5.776
 4280POPC   GL255082   0.570   4.828   5.826
 4280POPC   C1A55083   0.215   4.973   6.155
 4280POPC   D2A55084   0.122   5.153   6.579
 4280POPC   C3A55085   0.177   5.022   7.032
 4280POPC   C4A55086   0.561   5.072   7.279
 4280POPC   C1B55087   0.700   4.945   6.272
 4280POPC   C2B55088   0.620   5.030   6.709
 4280POPC   C3B55089   0.919   4.856   6.997
 4280POPC   C4B55090   0.848   4.621   7.346
 4281POPC   NC355091   1.311  24.813   5.528
 4281POPC   PO455092   1.252  24.115   5.499
 4281POPC   GL155093   1.155  24.432   5.860
 4281POPC   GL255094   1.442  24.623   5.980
 4281POPC   C1A55095   1.072  24.477   6.316
 4281POPC   D2A55096   1.039  24.189   6.675
 4281POPC   C3A55097   1.331  24.129   7.024
 4281POPC   C4A55098   1.113  24.168   7.431
 4281POPC   C1B55099   1.601  24.553   6.397
 4281POPC   C2B55100   1.359  24.599   6.757
 4281POPC   C3B55101   1.225  24.616   7.169
 4281POPC   C4B55102   1.541  24.764   7.456
 4282POPC   NC355103  42.566  24.624   5.472
 4282POPC   PO455104  41.924  24.256   5.402
 4282POPC   GL155105  42.203  24.417   5.770
 4282POPC   GL255106  42.599  24.338   5.901
 4282POPC   C1A55107  42.243  24.545   6.190
 4282POPC   D2A55108  42.394  24.446   6.568
 4282POPC   C3A55109  42.329  24.622   6.931
 4282POPC   C4A55110  42.413  24.305   7.159
 4282POPC   C1B55111  42.687  24.761   6.159
 4282POPC   C2B55112  42.638  24.898   6.617
 4282POPC   C3B55113  42.803  24.714   7.022
 4282POPC   C4B55114  42.707  24.651   7.480
 4283POPC   NC355115   1.849  19.348   5.466
 4283POPC   PO455116   2.412  19.001   5.518
 4283POPC   GL155117   2.168  19.138   5.893
 4283POPC   GL255118   1.802  19.137   5.928
 4283POPC   C1A55119   2.031  18.957   6.321
 4283POPC   D2A55120   1.782  18.957   6.699
 4283POPC   C3A55121   1.925  18.868   7.093
 4283POPC   C4A55122   1.727  18.647   7.433
 4283POPC   C1B55123   1.544  19.240   6.288
 4283POPC   C2B55124   1.662  19.434   6.661
 4283POPC   C3B55125   1.742  19.369   7.113
 4283POPC   C4B55126   1.834  19.172   7.538
 4284POPC   NC355127  44.012  19.296   5.350
 4284POPC   PO455128  43.830  18.622   5.312
 4284POPC   GL155129  43.811  18.901   5.704
 4284POPC   GL255130  44.122  19.058   5.797
 4284POPC   C1A55131  43.734  18.979   6.161
 4284POPC   D2A55132  43.541  19.010   6.576
 4284POPC   C3A55133  43.725  19.099   6.966
 4284POPC   C4A55134  43.733  18.842   7.339
 4284POPC   C1B55135  44.243  18.871   6.198
 4284POPC   C2B55136  44.047  18.848   6.605
 4284POPC   C3B55137  44.205  18.873   7.023
 4284POPC   C4B55138  44.118  19.199   7.321
 4285POPC   NC355139  18.534  22.144   5.529
 4285POPC   PO455140  17.847  22.028   5.315
 4285POPC   GL155141  18.051  22.163   5.703
 4285POPC   GL255142  18.157  21.823   5.799
 4285POPC   C1A55143  18.250  22.216   6.139
 4285POPC   D2A55144  18.066  22.123   6.559
 4285POPC   C3A55145  18.143  22.099   7.014
 4285POPC   C4A55146  18.155  22.315   7.426
 4285POPC   C1B55147  18.245  21.720   6.246
 4285POPC   C2B55148  18.430  21.740   6.664
 4285POPC   C3B55149  18.482  21.732   7.093
 4285POPC   C4B55150  18.531  21.996   7.497
 4286POPC   NC355151  16.995  22.584   5.075
 4286POPC   PO455152  16.863  22.045   5.437
 4286POPC   GL155153  16.760  22.040   5.878
 4286POPC   GL255154  16.725  22.403   5.975
 4286POPC   C1A55155  16.746  21.978   6.307
 4286POPC   D2A55156  16.836  22.184   6.674
 4286POPC   C3A55157  16.715  22.052   7.059
 4286POPC   C4A55158  16.486  22.326   7.343
 4286POPC   C1B55159  17.099  22.414   6.268
 4286POPC   C2B55160  17.223  22.499   6.711
 4286POPC   C3B55161  16.923  22.568   7.060
 4286POPC   C4B55162  16.913  22.546   7.539
 4287POPC   NC355163  40.993  26.163   5.151
 4287POPC   PO455164  40.595  26.318   5.686
 4287POPC   GL155165  40.912  26.043   5.905
 4287POPC   GL255166  40.758  25.716   5.926
 4287POPC   C1A55167  41.110  26.104   6.340
 4287POPC   D2A55168  40.942  26.245   6.754
 4287POPC   C3A55169  41.080  26.121   7.152
 4287POPC   C4A55170  40.795  26.137   7.498
 4287POPC   C1B55171  41.008  25.596   6.298
 4287POPC   C2B55172  40.942  25.731   6.713
 4287POPC   C3B55173  40.708  25.778   7.111
 4287POPC   C4B55174  40.873  25.637   7.498
 4288POPC   NC355175  16.332  35.083   5.336
 4288POPC   PO455176  15.694  35.396   5.280
 4288POPC   GL155177  15.792  35.428   5.723
 4288POPC   GL255178  16.102  35.282   5.791
 4288POPC   C1A55179  15.675  35.465   6.161
 4288POPC   D2A55180  15.798  35.408   6.587
 4288POPC   C3A55181  15.588  35.634   6.908
 4288POPC   C4A55182  15.665  35.491   7.329
 4288POPC   C1B55183  16.050  35.063   6.205
 4288POPC   C2B55184  16.115  35.023   6.661
 4288POPC   C3B55185  16.014  35.115   7.134
 4288POPC   C4B55186  16.148  35.152   7.591
 4289POPC   NC355187  30.677  32.585   5.483
 4289POPC   PO455188  30.540  31.995   5.596
 4289POPC   GL155189  30.673  32.281   5.928
 4289POPC   GL255190  30.377  32.470   5.967
 4289POPC   C1A55191  30.717  32.278   6.387
 4289POPC   D2A55192  30.570  31.984   6.685
 4289POPC   C3A55193  30.785  32.131   6.990
 4289POPC   C4A55194  30.908  32.224   7.349
 4289POPC   C1B55195  30.476  32.711   6.365
 4289POPC   C2B55196  30.520  32.558   6.797
 4289POPC   C3B55197  30.382  32.316   7.188
 4289POPC   C4B55198  30.507  32.346   7.633
 4290POPC   NC355199  12.222   3.652   5.304
 4290POPC   PO455200  11.608   3.391   5.504
 4290POPC   GL155201  12.005   3.305   5.690
 4290POPC   GL255202  12.060   3.606   5.800
 4290POPC   C1A55203  11.980   3.224   6.140
 4290POPC   D2A55204  12.051   3.428   6.540
 4290POPC   C3A55205  11.915   3.276   6.921
 4290POPC   C4A55206  11.788   3.499   7.264
 4290POPC   C1B55207  12.088   3.798   6.192
 4290POPC   C2B55208  12.028   3.967   6.602
 4290POPC   C3B55209  12.140   3.744   6.957
 4290POPC   C4B55210  12.253   3.657   7.377
 4291POPC   NC355211   2.706   8.814   5.421
 4291POPC   PO455212   2.258   9.252   5.423
 4291POPC   GL155213   2.453   9.043   5.794
 4291POPC   GL255214   2.838   9.138   5.786
 4291POPC   C1A55215   2.627   8.908   6.209
 4291POPC   D2A55216   2.586   8.858   6.663
 4291POPC   C3A55217   2.753   8.811   7.067
 4291POPC   C4A55218   2.480   9.075   7.292
 4291POPC   C1B55219   3.087   9.161   6.147
 4291POPC   C2B55220   3.074   8.950   6.544
 4291POPC   C3B55221   3.092   9.176   6.924
 4291POPC   C4B55222   3.113   9.114   7.323
 4292POPC   NC355223  24.090   0.178   5.141
 4292POPC   PO455224  24.605  44.852   5.491
 4292POPC   GL155225  24.572  44.727   5.903
 4292POPC   GL255226  24.297  44.488   5.860
 4292POPC   C1A55227  24.721  44.585   6.320
 4292POPC   D2A55228  24.878  44.379   6.708
 4292POPC   C3A55229  24.606  44.495   7.038
 4292POPC   C4A55230  24.525  44.908   7.181
 4292POPC   C1B55231  24.217  44.695   6.273
 4292POPC   C2B55232  24.288  44.799   6.712
 4292POPC   C3B55233  24.094  44.671   7.073
 4292POPC   C4B55234  24.170  44.297   7.338
 4293POPC   NC355235  14.032  19.578   5.369
 4293POPC   PO455236  13.391  19.840   5.510
 4293POPC   GL155237  13.490  20.046   5.882
 4293POPC   GL255238  13.819  20.114   5.843
 4293POPC   C1A55239  13.539  19.936   6.323
 4293POPC   D2A55240  13.531  19.529   6.515
 4293POPC   C3A55241  13.511  19.598   6.970
 4293POPC   C4A55242  13.900  19.728   7.193
 4293POPC   C1B55243  13.986  19.776   6.161
 4293POPC   C2B55244  13.915  19.819   6.651
 4293POPC   C3B55245  13.618  20.080   6.890
 4293POPC   C4B55246  13.690  20.243   7.275
 4294POPC   NC355247  39.858  20.603   5.231
 4294POPC   PO455248  40.385  20.887   5.518
 4294POPC   GL155249  40.125  20.638   5.842
 4294POPC   GL255250  39.782  20.473   5.759
 4294POPC   C1A55251  40.141  20.622   6.297
 4294POPC   D2A55252  40.269  20.358   6.641
 4294POPC   C3A55253  40.150  20.610   6.965
 4294POPC   C4A55254  39.905  20.732   7.312
 4294POPC   C1B55255  39.647  20.490   6.205
 4294POPC   C2B55256  39.754  20.587   6.647
 4294POPC   C3B55257  39.518  20.549   7.034
 4294POPC   C4B55258  39.569  20.380   7.468
 4295POPC   NC355259  12.283   5.197   5.408
 4295POPC   PO455260  11.865   4.638   5.408
 4295POPC   GL155261  11.997   4.909   5.738
 4295POPC   GL255262  11.919   5.277   5.766
 4295POPC   C1A55263  12.025   4.948   6.179
 4295POPC   D2A55264  12.324   5.061   6.474
 4295POPC   C3A55265  12.220   4.866   6.857
 4295POPC   C4A55266  12.230   4.902   7.256
 4295POPC   C1B55267  12.182   5.450   6.124
 4295POPC   C2B55268  12.214   5.544   6.573
 4295POPC   C3B55269  12.239   5.362   6.991
 4295POPC   C4B55270  11.930   5.308   7.339
 4296POPC   NC355271  20.222  41.195   5.144
 4296POPC   PO455272  20.593  41.717   5.471
 4296POPC   GL155273  20.719  41.836   5.855
 4296POPC   GL255274  20.814  41.517   5.940
 4296POPC   C1A55275  20.580  41.792   6.275
 4296POPC   D2A55276  20.688  41.565   6.605
 4296POPC   C3A55277  20.658  41.785   6.989
 4296POPC   C4A55278  20.770  41.807   7.412
 4296POPC   C1B55279  20.944  41.260   6.260
 4296POPC   C2B55280  20.978  41.065   6.674
 4296POPC   C3B55281  20.892  41.339   7.006
 4296POPC   C4B55282  20.567  41.353   7.332
 4297POPC   NC355283  37.748  38.190   5.628
 4297POPC   PO455284  37.606  37.540   5.512
 4297POPC   GL155285  37.673  37.709   5.897
 4297POPC   GL255286  37.411  37.928   5.936
 4297POPC   C1A55287  37.843  37.726   6.320
 4297POPC   D2A55288  37.688  37.844   6.746
 4297POPC   C3A55289  37.742  37.560   7.121
 4297POPC   C4A55290  37.939  37.706   7.515
 4297POPC   C1B55291  37.331  37.711   6.322
 4297POPC   C2B55292  37.193  37.848   6.703
 4297POPC   C3B55293  37.296  37.869   7.137
 4297POPC   C4B55294  37.429  38.080   7.492
 4298POPC   NC355295  39.685  18.971   5.417
 4298POPC   PO455296  40.364  19.268   5.340
 4298POPC   GL155297  40.073  19.129   5.693
 4298POPC   GL255298  39.916  18.792   5.850
 4298POPC   C1A55299  40.019  19.237   6.116
 4298POPC   D2A55300  40.207  19.189   6.509
 4298POPC   C3A55301  40.016  19.269   6.891
 4298POPC   C4A55302  39.926  19.183   7.313
 4298POPC   C1B55303  39.881  18.792   6.326
 4298POPC   C2B55304  39.810  18.800   6.751
 4298POPC   C3B55305  39.815  18.704   7.173
 4298POPC   C4B55306  39.741  18.796   7.611
 4299POPC   NC355307   0.356  13.265   5.545
 4299POPC   PO455308   0.410  13.919   5.377
 4299POPC   GL155309   0.310  13.744   5.773
 4299POPC   GL255310   0.653  13.672   5.814
 4299POPC   C1A55311   0.104  13.593   6.187
 4299POPC   D2A55312  44.889  13.597   6.612
 4299POPC   C3A55313   0.105  13.636   7.034
 4299POPC   C4A55314   0.319  13.565   7.447
 4299POPC   C1B55315   0.520  13.896   6.217
 4299POPC   C2B55316   0.385  13.808   6.643
 4299POPC   C3B55317   0.592  13.814   7.071
 4299POPC   C4B55318   0.920  13.762   7.439
 4300POPC   NC355319  25.606   8.650   5.690
 4300POPC   PO455320  25.030   9.028   5.516
 4300POPC   GL155321  25.139   8.847   5.852
 4300POPC   GL255322  25.409   9.051   5.947
 4300POPC   C1A55323  25.063   8.607   6.192
 4300POPC   D2A55324  25.230   8.517   6.626
 4300POPC   C3A55325  25.160   8.883   6.900
 4300POPC   C4A55326  25.248   9.062   7.285
 4300POPC   C1B55327  25.352   8.957   6.394
 4300POPC   C2B55328  25.624   8.981   6.750
 4300POPC   C3B55329  25.647   9.303   7.102
 4300POPC   C4B55330  25.652   9.299   7.577
 4301POPC   NC355331  38.422  35.075   5.228
 4301POPC   PO455332  38.687  34.532   5.488
 4301POPC   GL155333  38.587  34.662   5.844
 4301POPC   GL255334  38.278  34.518   5.820
 4301POPC   C1A55335  38.480  34.874   6.229
 4301POPC   D2A55336  38.247  34.886   6.616
 4301POPC   C3A55337  38.468  34.878   7.006
 4301POPC   C4A55338  38.298  34.701   7.348
 4301POPC   C1B55339  38.398  34.360   6.217
 4301POPC   C2B55340  38.328  34.373   6.627
 4301POPC   C3B55341  38.489  34.367   6.992
 4301POPC   C4B55342  38.375  34.204   7.359
 4302POPC   NC355343  23.558   1.597   5.368
 4302POPC   PO455344  23.540   0.930   5.328
 4302POPC   GL155345  23.637   0.997   5.769
 4302POPC   GL255346  23.519   1.345   5.831
 4302POPC   C1A55347  23.544   0.981   6.223
 4302POPC   D2A55348  23.438   1.162   6.650
 4302POPC   C3A55349  23.575   0.931   7.033
 4302POPC   C4A55350  23.870   0.991   7.316
 4302POPC   C1B55351  23.580   1.520   6.240
 4302POPC   C2B55352  23.779   1.536   6.630
 4302POPC   C3B55353  23.612   1.444   7.052
 4302POPC   C4B55354  23.366   1.613   7.361
 4303POPC   NC355355  16.950  13.128   5.505
 4303POPC   PO455356  16.628  12.498   5.379
 4303POPC   GL155357  16.693  12.739   5.726
 4303POPC   GL255358  17.057  12.669   5.764
 4303POPC   C1A55359  16.487  12.939   6.061
 4303POPC   D2A55360  16.594  13.005   6.490
 4303POPC   C3A55361  16.726  12.783   6.837
 4303POPC   C4A55362  16.513  12.858   7.191
 4303POPC   C1B55363  16.933  12.713   6.193
 4303POPC   C2B55364  17.122  12.921   6.534
 4303POPC   C3B55365  17.030  13.190   6.873
 4303POPC   C4B55366  17.051  12.919   7.236
 4304POPC   NC355367  24.694   9.370   5.450
 4304POPC   PO455368  24.358   9.941   5.581
 4304POPC   GL155369  24.555   9.695   5.846
 4304POPC   GL255370  24.317   9.435   5.810
 4304POPC   C1A55371  24.688   9.764   6.275
 4304POPC   D2A55372  24.656   9.940   6.701
 4304POPC   C3A55373  24.331   9.988   6.936
 4304POPC   C4A55374  24.376   9.926   7.328
 4304POPC   C1B55375  24.388   9.374   6.222
 4304POPC   C2B55376  24.308   9.562   6.625
 4304POPC   C3B55377  24.394   9.489   7.055
 4304POPC   C4B55378  24.260   9.435   7.471
 4305POPC   NC355379  44.801  41.627   5.483
 4305POPC   PO455380  44.172  41.471   5.362
 4305POPC   GL155381  44.372  41.489   5.782
 4305POPC   GL255382  44.589  41.218   5.822
 4305POPC   C1A55383  44.510  41.753   6.160
 4305POPC   D2A55384  44.365  41.940   6.559
 4305POPC   C3A55385  44.638  41.808   6.924
 4305POPC   C4A55386  44.861  41.650   7.291
 4305POPC   C1B55387  44.527  41.231   6.255
 4305POPC   C2B55388  44.463  41.448   6.620
 4305POPC   C3B55389  44.266  41.483   7.044
 4305POPC   C4B55390  44.249  41.374   7.507
 4306POPC   NC355391  11.983  10.072   5.516
 4306POPC   PO455392  12.271   9.500   5.478
 4306POPC   GL155393  12.247   9.724   5.860
 4306POPC   GL255394  11.928   9.694   5.859
 4306POPC   C1A55395  12.077   9.958   6.262
 4306POPC   D2A55396  11.944  10.134   6.686
 4306POPC   C3A55397  12.078   9.892   7.066
 4306POPC   C4A55398  11.882   9.848   7.495
 4306POPC   C1B55399  11.900   9.471   6.236
 4306POPC   C2B55400  11.851   9.590   6.663
 4306POPC   C3B55401  11.848   9.319   7.025
 4306POPC   C4B55402  11.945   9.323   7.441
 4307POPC   NC355403  25.093  44.711   5.475
 4307POPC   PO455404  25.791  44.477   5.376
 4307POPC   GL155405  25.523  44.673   5.755
 4307POPC   GL255406  25.217  44.499   5.937
 4307POPC   C1A55407  25.393  44.944   6.128
 4307POPC   D2A55408  25.137  44.813   6.505
 4307POPC   C3A55409  24.974  44.889   6.914
 4307POPC   C4A55410  24.972  44.728   7.344
 4307POPC   C1B55411  25.437  44.449   6.310
 4307POPC   C2B55412  25.559  44.596   6.714
 4307POPC   C3B55413  25.432  44.688   7.129
 4307POPC   C4B55414  25.465  44.469   7.508
 4308POPC   NC355415  14.823  15.126   5.362
 4308POPC   PO455416  15.449  14.938   5.206
 4308POPC   GL155417  15.253  15.078   5.671
 4308POPC   GL255418  14.981  15.308   5.835
 4308POPC   C1A55419  15.167  14.962   6.162
 4308POPC   D2A55420  15.300  15.154   6.586
 4308POPC   C3A55421  15.164  15.015   7.010
 4308POPC   C4A55422  14.837  14.771   7.245
 4308POPC   C1B55423  15.390  15.420   6.115
 4308POPC   C2B55424  15.610  15.571   6.533
 4308POPC   C3B55425  15.395  15.532   6.933
 4308POPC   C4B55426  14.998  15.500   7.084
 4309POPC   NC355427  34.168  27.235   5.580
 4309POPC   PO455428  33.662  27.528   5.275
 4309POPC   GL155429  33.769  27.568   5.720
 4309POPC   GL255430  33.576  27.258   5.738
 4309POPC   C1A55431  33.975  27.637   6.157
 4309POPC   D2A55432  33.959  27.470   6.607
 4309POPC   C3A55433  33.740  27.595   7.010
 4309POPC   C4A55434  34.011  27.419   7.332
 4309POPC   C1B55435  33.698  27.218   6.160
 4309POPC   C2B55436  33.540  27.164   6.541
 4309POPC   C3B55437  33.631  27.107   6.932
 4309POPC   C4B55438  33.434  27.203   7.281
 4310POPC   NC355439   6.691  31.630   5.378
 4310POPC   PO455440   7.145  31.284   5.578
 4310POPC   GL155441   6.863  31.515   5.864
 4310POPC   GL255442   6.494  31.654   5.841
 4310POPC   C1A55443   7.009  31.574   6.269
 4310POPC   D2A55444   6.803  31.445   6.631
 4310POPC   C3A55445   6.959  31.541   7.001
 4310POPC   C4A55446   6.769  31.395   7.384
 4310POPC   C1B55447   6.473  31.513   6.242
 4310POPC   C2B55448   6.295  31.349   6.625
 4310POPC   C3B55449   6.417  31.479   7.033
 4310POPC   C4B55450   6.575  31.857   7.228
 4311POPC   NC355451  22.647  31.092   5.443
 4311POPC   PO455452  23.112  31.553   5.465
 4311POPC   GL155453  22.977  31.325   5.783
 4311POPC   GL255454  22.689  31.438   5.863
 4311POPC   C1A55455  23.081  31.419   6.211
 4311POPC   D2A55456  22.949  31.532   6.594
 4311POPC   C3A55457  23.039  31.300   6.953
 4311POPC   C4A55458  23.096  31.424   7.359
 4311POPC   C1B55459  22.588  31.300   6.303
 4311POPC   C2B55460  22.452  31.408   6.764
 4311POPC   C3B55461  22.611  31.399   7.207
 4311POPC   C4B55462  22.685  31.328   7.670
 4312POPC   NC355463  21.368   9.261   5.463
 4312POPC   PO455464  21.051   8.626   5.466
 4312POPC   GL155465  21.273   8.882   5.781
 4312POPC   GL255466  21.021   8.910   6.000
 4312POPC   C1A55467  21.488   9.128   6.119
 4312POPC   D2A55468  21.471   8.993   6.531
 4312POPC   C3A55469  21.793   9.105   6.801
 4312POPC   C4A55470  21.570   9.074   7.170
 4312POPC   C1B55471  21.060   8.574   6.319
 4312POPC   C2B55472  21.025   8.578   6.741
 4312POPC   C3B55473  21.088   8.981   6.955
 4312POPC   C4B55474  21.105   9.363   7.228
 4313POPC   NC355475  16.696   0.279   5.210
 4313POPC   PO455476  16.989  44.771   5.565
 4313POPC   GL155477  16.755  44.628   5.924
 4313POPC   GL255478  16.467  44.814   5.979
 4313POPC   C1A55479  16.641  44.506   6.345
 4313POPC   D2A55480  16.486  44.325   6.724
 4313POPC   C3A55481  16.837  44.417   7.015
 4313POPC   C4A55482  16.863  44.572   7.455
 4313POPC   C1B55483  16.498   0.012   6.380
 4313POPC   C2B55484  16.774  44.868   6.703
 4313POPC   C3B55485  16.476  44.783   6.983
 4313POPC   C4B55486  16.260   0.110   7.131
 4314POPC   NC355487  35.339   9.312   5.259
 4314POPC   PO455488  35.437   8.670   5.309
 4314POPC   GL155489  35.394   8.882   5.747
 4314POPC   GL255490  35.060   8.758   5.811
 4314POPC   C1A55491  35.369   8.967   6.250
 4314POPC   D2A55492  35.608   9.040   6.669
 4314POPC   C3A55493  35.425   9.031   7.112
 4314POPC   C4A55494  35.035   9.177   7.268
 4314POPC   C1B55495  34.986   8.593   6.230
 4314POPC   C2B55496  34.986   8.726   6.680
 4314POPC   C3B55497  35.053   8.649   7.140
 4314POPC   C4B55498  34.944   8.557   7.574
 4315POPC   NC355499  13.977  23.111   5.478
 4315POPC   PO455500  13.303  23.042   5.385
 4315POPC   GL155501  13.522  23.079   5.806
 4315POPC   GL255502  13.774  22.797   5.824
 4315POPC   C1A55503  13.475  22.882   6.243
 4315POPC   D2A55504  13.743  22.742   6.597
 4315POPC   C3A55505  13.480  22.863   6.956
 4315POPC   C4A55506  13.503  23.290   7.154
 4315POPC   C1B55507  13.956  23.032   6.146
 4315POPC   C2B55508  13.846  23.252   6.523
 4315POPC   C3B55509  13.942  23.109   6.935
 4315POPC   C4B55510  14.021  23.281   7.307
 4316POPC   NC355511  31.591  28.725   5.092
 4316POPC   PO455512  31.407  28.197   5.514
 4316POPC   GL155513  31.589  28.193   5.903
 4316POPC   GL255514  31.260  28.337   5.970
 4316POPC   C1A55515  31.675  28.498   6.254
 4316POPC   D2A55516  31.499  28.530   6.646
 4316POPC   C3A55517  31.717  28.542   6.989
 4316POPC   C4A55518  31.694  28.254   7.289
 4316POPC   C1B55519  31.336  28.132   6.341
 4316POPC   C2B55520  31.125  28.156   6.684
 4316POPC   C3B55521  31.235  28.318   7.040
 4316POPC   C4B55522  30.979  28.477   7.283
 4317POPC   NC355523  39.076   8.765   5.463
 4317POPC   PO455524  39.051   8.018   5.287
 4317POPC   GL155525  39.148   8.015   5.719
 4317POPC   GL255526  39.008   8.353   5.772
 4317POPC   C1A55527  39.348   8.160   6.105
 4317POPC   D2A55528  39.225   8.060   6.500
 4317POPC   C3A55529  39.529   8.041   6.808
 4317POPC   C4A55530  39.473   8.125   7.207
 4317POPC   C1B55531  38.945   8.523   6.178
 4317POPC   C2B55532  38.931   8.463   6.615
 4317POPC   C3B55533  38.989   8.163   6.943
 4317POPC   C4B55534  39.027   8.357   7.304
 4318POPC   NC355535   6.895  38.462   5.586
 4318POPC   PO455536   6.455  39.076   5.507
 4318POPC   GL155537   6.443  38.631   5.783
 4318POPC   GL255538   6.638  38.356   6.004
 4318POPC   C1A55539   6.288  38.612   6.220
 4318POPC   D2A55540   6.327  38.910   6.507
 4318POPC   C3A55541   6.432  38.668   6.847
 4318POPC   C4A55542   6.616  38.472   7.191
 4318POPC   C1B55543   6.789  38.701   6.293
 4318POPC   C2B55544   6.966  38.600   6.715
 4318POPC   C3B55545   7.038  38.274   7.030
 4318POPC   C4B55546   6.996  38.316   7.498
 4319POPC   NC355547  42.554   9.551   5.583
 4319POPC   PO455548  42.082  10.056   5.534
 4319POPC   GL155549  42.257   9.797   5.894
 4319POPC   GL255550  42.117   9.471   5.897
 4319POPC   C1A55551  42.540   9.900   6.273
 4319POPC   D2A55552  42.632   9.964   6.727
 4319POPC   C3A55553  42.528   9.666   7.060
 4319POPC   C4A55554  42.422   9.763   7.468
 4319POPC   C1B55555  42.101   9.652   6.346
 4319POPC   C2B55556  42.062   9.607   6.796
 4319POPC   C3B55557  42.048   9.540   7.237
 4319POPC   C4B55558  42.063   9.393   7.698
 4320POPC   NC355559  12.725  14.097   5.518
 4320POPC   PO455560  13.040  14.664   5.215
 4320POPC   GL155561  13.010  14.515   5.717
 4320POPC   GL255562  12.664  14.521   5.936
 4320POPC   C1A55563  13.091  14.307   6.161
 4320POPC   D2A55564  12.816  14.132   6.529
 4320POPC   C3A55565  12.718  14.354   6.915
 4320POPC   C4A55566  12.975  14.544   7.238
 4320POPC   C1B55567  12.503  14.735   6.364
 4320POPC   C2B55568  12.319  14.680   6.812
 4320POPC   C3B55569  12.482  14.716   7.263
 4320POPC   C4B55570  12.685  14.560   7.675
 4321POPC   NC355571   6.045  35.473   5.157
 4321POPC   PO455572   5.522  35.233   5.487
 4321POPC   GL155573   5.607  35.433   5.856
 4321POPC   GL255574   5.949  35.475   5.795
 4321POPC   C1A55575   5.703  35.292   6.271
 4321POPC   D2A55576   5.631  35.506   6.631
 4321POPC   C3A55577   5.791  35.237   6.921
 4321POPC   C4A55578   5.745  35.044   7.345
 4321POPC   C1B55579   6.117  35.565   6.191
 4321POPC   C2B55580   6.158  35.446   6.567
 4321POPC   C3B55581   6.263  35.531   6.939
 4321POPC   C4B55582   6.027  35.471   7.300
 4322POPC   NC355583   3.805  40.480   5.087
 4322POPC   PO455584   3.514  41.043   5.341
 4322POPC   GL155585   3.439  40.891   5.775
 4322POPC   GL255586   3.300  40.539   5.877
 4322POPC   C1A55587   3.617  41.016   6.180
 4322POPC   D2A55588   3.899  40.950   6.532
 4322POPC   C3A55589   3.745  40.787   6.900
 4322POPC   C4A55590   3.495  40.784   7.237
 4322POPC   C1B55591   3.517  40.523   6.281
 4322POPC   C2B55592   3.404  40.451   6.722
 4322POPC   C3B55593   3.260  40.306   7.156
 4322POPC   C4B55594   3.068  40.377   7.587
 4323POPC   NC355595  35.553  40.702   5.166
 4323POPC   PO455596  34.867  40.712   5.404
 4323POPC   GL155597  35.133  40.639   5.814
 4323POPC   GL255598  35.254  40.961   5.876
 4323POPC   C1A55599  35.318  40.606   6.258
 4323POPC   D2A55600  35.575  40.827   6.573
 4323POPC   C3A55601  35.420  40.725   6.986
 4323POPC   C4A55602  35.337  40.652   7.435
 4323POPC   C1B55603  35.307  41.181   6.296
 4323POPC   C2B55604  35.341  41.240   6.765
 4323POPC   C3B55605  35.373  41.197   7.236
 4323POPC   C4B55606  35.084  41.098   7.613
 4324POPC   NC355607   3.759  12.359   5.545
 4324POPC   PO455608   3.202  11.995   5.580
 4324POPC   GL155609   3.502  12.076   5.894
 4324POPC   GL255610   3.842  11.901   5.855
 4324POPC   C1A55611   3.665  12.135   6.292
 4324POPC   D2A55612   3.825  11.931   6.655
 4324POPC   C3A55613   3.579  12.163   6.925
 4324POPC   C4A55614   3.572  12.112   7.337
 4324POPC   C1B55615   3.589  11.667   6.191
 4324POPC   C2B55616   3.348  11.800   6.607
 4324POPC   C3B55617   3.353  11.731   7.064
 4324POPC   C4B55618   3.275  11.746   7.539
 4325POPC   NC355619  28.725  29.779   5.457
 4325POPC   PO455620  27.999  29.820   5.450
 4325POPC   GL155621  28.253  29.679   5.813
 4325POPC   GL255622  28.435  29.981   5.817
 4325POPC   C1A55623  28.253  29.665   6.298
 4325POPC   D2A55624  28.086  29.802   6.708
 4325POPC   C3A55625  28.342  29.732   7.074
 4325POPC   C4A55626  28.737  29.575   7.162
 4325POPC   C1B55627  28.267  30.157   6.178
 4325POPC   C2B55628  28.440  30.173   6.567
 4325POPC   C3B55629  28.486  30.414   6.915
 4325POPC   C4B55630  28.264  30.210   7.225
 4326POPC   NC355631  39.149  38.701   5.499
 4326POPC   PO455632  39.627  39.232   5.451
 4326POPC   GL155633  39.267  39.221   5.765
 4326POPC   GL255634  39.462  38.912   5.854
 4326POPC   C1A55635  38.980  39.401   6.159
 4326POPC   D2A55636  38.946  39.688   6.573
 4326POPC   C3A55637  39.060  39.460   6.963
 4326POPC   C4A55638  39.401  39.264   7.237
 4326POPC   C1B55639  39.081  38.886   6.127
 4326POPC   C2B55640  39.102  38.995   6.554
 4326POPC   C3B55641  39.277  38.863   6.937
 4326POPC   C4B55642  39.036  38.920   7.281
 4327POPC   NC355643  28.421  38.802   5.445
 4327POPC   PO455644  28.102  38.160   5.383
 4327POPC   GL155645  28.160  38.447   5.792
 4327POPC   GL255646  27.987  38.379   6.110
 4327POPC   C1A55647  28.403  38.633   6.203
 4327POPC   D2A55648  28.521  38.419   6.634
 4327POPC   C3A55649  28.496  38.644   7.054
 4327POPC   C4A55650  28.669  38.664   7.524
 4327POPC   C1B55651  28.317  38.136   6.224
 4327POPC   C2B55652  28.075  38.135   6.593
 4327POPC   C3B55653  28.166  38.195   6.993
 4327POPC   C4B55654  28.557  38.072   7.080
 4328POPC   NC355655  11.058   9.386   5.596
 4328POPC   PO455656  11.613   9.801   5.470
 4328POPC   GL155657  11.425   9.801   5.858
 4328POPC   GL255658  11.488   9.444   5.865
 4328POPC   C1A55659  11.448   9.778   6.313
 4328POPC   D2A55660  11.122   9.670   6.615
 4328POPC   C3A55661  11.170   9.875   7.022
 4328POPC   C4A55662  11.585   9.748   7.089
 4328POPC   C1B55663  11.432   9.257   6.257
 4328POPC   C2B55664  11.471   9.216   6.694
 4328POPC   C3B55665  11.209   9.370   7.045
 4328POPC   C4B55666  11.071   9.308   7.470
 4329POPC   NC355667  35.562  14.252   5.405
 4329POPC   PO455668  35.113  14.700   5.394
 4329POPC   GL155669  35.171  14.432   5.721
 4329POPC   GL255670  35.125  14.057   5.633
 4329POPC   C1A55671  35.409  14.485   6.131
 4329POPC   D2A55672  35.579  14.277   6.520
 4329POPC   C3A55673  35.507  14.493   6.910
 4329POPC   C4A55674  35.593  14.264   7.283
 4329POPC   C1B55675  35.084  14.099   6.084
 4329POPC   C2B55676  35.075  14.240   6.502
 4329POPC   C3B55677  35.121  14.162   6.939
 4329POPC   C4B55678  35.089  14.155   7.355
 4330POPC   NC355679   0.539  44.839   5.447
 4330POPC   PO455680   0.218  44.333   5.236
 4330POPC   GL155681   0.387  44.438   5.712
 4330POPC   GL255682   0.118  44.573   5.878
 4330POPC   C1A55683   0.571  44.653   6.132
 4330POPC   D2A55684   0.415  44.773   6.571
 4330POPC   C3A55685   0.623  44.757   7.010
 4330POPC   C4A55686   0.721  44.514   7.441
 4330POPC   C1B55687   0.111  44.403   6.305
 4330POPC   C2B55688  44.892  44.584   6.664
 4330POPC   C3B55689   0.094  44.857   6.959
 4330POPC   C4B55690   0.252  44.690   7.359
 4331POPC   NC355691  32.097  44.727   5.446
 4331POPC   PO455692  32.115  44.107   5.634
 4331POPC   GL155693  32.162  44.499   5.894
 4331POPC   GL255694  31.911  44.822   5.903
 4331POPC   C1A55695  32.236  44.658   6.293
 4331POPC   D2A55696  32.495  44.830   6.616
 4331POPC   C3A55697  32.406  44.733   7.057
 4331POPC   C4A55698  32.372  44.653   7.509
 4331POPC   C1B55699  31.810  44.950   6.326
 4331POPC   C2B55700  31.983  44.788   6.722
 4331POPC   C3B55701  31.951  44.926   7.142
 4331POPC   C4B55702  31.836  44.789   7.533
 4332POPC   NC355703  36.696  17.106   5.610
 4332POPC   PO455704  37.023  16.399   5.536
 4332POPC   GL155705  36.739  16.632   5.831
 4332POPC   GL255706  36.401  16.506   5.838
 4332POPC   C1A55707  36.864  16.848   6.220
 4332POPC   D2A55708  37.061  17.016   6.593
 4332POPC   C3A55709  37.197  16.756   6.951
 4332POPC   C4A55710  37.259  17.041   7.284
 4332POPC   C1B55711  36.368  16.706   6.265
 4332POPC   C2B55712  36.607  16.664   6.644
 4332POPC   C3B55713  36.702  16.946   6.972
 4332POPC   C4B55714  36.819  16.809   7.352
 4333POPC   NC355715  11.017  38.570   5.445
 4333POPC   PO455716  11.591  38.185   5.501
 4333POPC   GL155717  11.386  38.458   5.805
 4333POPC   GL255718  11.026  38.378   5.913
 4333POPC   C1A55719  11.365  38.656   6.205
 4333POPC   D2A55720  11.460  38.486   6.603
 4333POPC   C3A55721  11.291  38.598   7.004
 4333POPC   C4A55722  11.020  38.384   7.253
 4333POPC   C1B55723  11.278  38.104   6.173
 4333POPC   C2B55724  11.378  37.971   6.577
 4333POPC   C3B55725  11.453  38.106   6.992
 4333POPC   C4B55726  11.336  37.981   7.414
 4334POPC   NC355727  31.064  11.916   5.407
 4334POPC   PO455728  30.464  12.159   5.291
 4334POPC   GL155729  30.382  12.066   5.770
 4334POPC   GL255730  30.673  11.868   5.870
 4334POPC   C1A55731  30.458  12.163   6.237
 4334POPC   D2A55732  30.690  12.179   6.633
 4334POPC   C3A55733  30.497  12.142   7.040
 4334POPC   C4A55734  30.819  12.308   7.300
 4334POPC   C1B55735  30.938  11.891   6.252
 4334POPC   C2B55736  30.928  11.718   6.687
 4334POPC   C3B55737  30.871  11.793   7.137
 4334POPC   C4B55738  30.626  11.890   7.512
 4335POPC   NC355739  42.312  37.411   5.511
 4335POPC   PO455740  41.979  37.908   5.231
 4335POPC   GL155741  42.115  37.938   5.719
 4335POPC   GL255742  42.396  37.722   5.918
 4335POPC   C1A55743  42.235  38.159   6.134
 4335POPC   D2A55744  42.510  38.009   6.493
 4335POPC   C3A55745  42.261  37.831   6.825
 4335POPC   C4A55746  42.306  37.677   7.237
 4335POPC   C1B55747  42.355  37.509   6.359
 4335POPC   C2B55748  42.094  37.349   6.724
 4335POPC   C3B55749  41.943  37.315   7.148
 4335POPC   C4B55750  42.090  37.356   7.581
 4336POPC   NC355751  31.964  13.213   5.543
 4336POPC   PO455752  32.439  12.799   5.303
 4336POPC   GL155753  32.441  12.883   5.765
 4336POPC   GL255754  32.105  12.867   5.881
 4336POPC   C1A55755  32.447  12.771   6.237
 4336POPC   D2A55756  32.375  12.899   6.660
 4336POPC   C3A55757  32.539  12.644   6.986
 4336POPC   C4A55758  32.486  12.762   7.413
 4336POPC   C1B55759  31.960  12.951   6.307
 4336POPC   C2B55760  31.905  12.713   6.673
 4336POPC   C3B55761  32.041  12.721   7.096
 4336POPC   C4B55762  31.825  12.694   7.476
 4337POPC   NC355763  36.635  39.236   5.401
 4337POPC   PO455764  37.115  39.535   5.813
 4337POPC   GL155765  36.936  39.186   5.972
 4337POPC   GL255766  36.591  39.147   5.900
 4337POPC   C1A55767  36.982  39.191   6.434
 4337POPC   D2A55768  37.170  38.917   6.737
 4337POPC   C3A55769  37.159  39.134   7.132
 4337POPC   C4A55770  37.014  39.540   7.213
 4337POPC   C1B55771  36.515  39.376   6.271
 4337POPC   C2B55772  36.577  39.374   6.716
 4337POPC   C3B55773  36.577  39.231   7.128
 4337POPC   C4B55774  36.435  38.911   7.410
 4338POPC   NC355775  32.873  36.076   5.348
 4338POPC   PO455776  32.498  35.788   5.745
 4338POPC   GL155777  32.714  36.111   5.950
 4338POPC   GL255778  33.049  36.239   5.831
 4338POPC   C1A55779  32.728  36.077   6.388
 4338POPC   D2A55780  32.998  35.959   6.719
 4338POPC   C3A55781  32.855  35.871   7.098
 4338POPC   C4A55782  32.804  35.924   7.553
 4338POPC   C1B55783  32.966  36.529   6.200
 4338POPC   C2B55784  32.803  36.516   6.638
 4338POPC   C3B55785  33.022  36.410   7.021
 4338POPC   C4B55786  33.324  36.621   7.331
 4339POPC   NC355787  41.859  35.263   5.471
 4339POPC   PO455788  41.262  35.561   5.747
 4339POPC   GL155789  41.566  35.323   5.965
 4339POPC   GL255790  41.889  35.152   5.968
 4339POPC   C1A55791  41.595  35.317   6.394
 4339POPC   D2A55792  41.648  35.604   6.677
 4339POPC   C3A55793  41.523  35.480   7.054
 4339POPC   C4A55794  41.302  35.160   7.203
 4339POPC   C1B55795  42.058  35.103   6.380
 4339POPC   C2B55796  41.897  35.178   6.824
 4339POPC   C3B55797  41.904  35.244   7.315
 4339POPC   C4B55798  42.055  35.042   7.758
 4340POPC   NC355799  30.354  13.243   5.654
 4340POPC   PO455800  31.012  13.352   5.416
 4340POPC   GL155801  30.755  13.596   5.772
 4340POPC   GL255802  30.916  13.928   5.921
 4340POPC   C1A55803  30.500  13.709   6.124
 4340POPC   D2A55804  30.596  13.802   6.568
 4340POPC   C3A55805  30.519  13.438   6.799
 4340POPC   C4A55806  30.504  13.310   7.209
 4340POPC   C1B55807  30.969  13.603   6.252
 4340POPC   C2B55808  31.062  13.532   6.646
 4340POPC   C3B55809  30.948  13.686   7.033
 4340POPC   C4B55810  30.877  13.533   7.473
 4341POPC   NC355811  20.288  17.517   5.262
 4341POPC   PO455812  20.787  17.033   5.254
 4341POPC   GL155813  20.824  17.164   5.810
 4341POPC   GL255814  20.957  17.477   5.900
 4341POPC   C1A55815  20.664  17.397   6.284
 4341POPC   D2A55816  20.607  17.404   6.752
 4341POPC   C3A55817  20.741  17.706   7.090
 4341POPC   C4A55818  20.710  17.662   7.595
 4341POPC   C1B55819  21.147  17.234   6.237
 4341POPC   C2B55820  21.186  17.046   6.667
 4341POPC   C3B55821  20.968  17.129   7.007
 4341POPC   C4B55822  21.039  17.391   7.323
 4342POPC   NC355823   3.429  35.913   5.266
 4342POPC   PO455824   3.733  36.536   5.325
 4342POPC   GL155825   3.587  36.422   5.831
 4342POPC   GL255826   3.294  36.251   5.864
 4342POPC   C1A55827   3.606  36.257   6.312
 4342POPC   D2A55828   3.398  36.013   6.684
 4342POPC   C3A55829   3.667  35.746   6.980
 4342POPC   C4A55830   3.863  35.853   7.365
 4342POPC   C1B55831   3.247  36.599   6.205
 4342POPC   C2B55832   3.409  36.692   6.630
 4342POPC   C3B55833   3.650  36.410   6.873
 4342POPC   C4B55834   3.480  36.160   7.198
 4343POPC   NC355835  22.108  33.573   5.513
 4343POPC   PO455836  22.495  34.090   5.417
 4343POPC   GL155837  22.454  33.929   5.827
 4343POPC   GL255838  22.326  33.634   5.967
 4343POPC   C1A55839  22.391  34.080   6.241
 4343POPC   D2A55840  22.287  33.902   6.636
 4343POPC   C3A55841  22.364  34.036   7.046
 4343POPC   C4A55842  22.350  33.660   7.262
 4343POPC   C1B55843  21.953  33.809   6.144
 4343POPC   C2B55844  21.792  33.753   6.534
 4343POPC   C3B55845  21.881  33.756   6.949
 4343POPC   C4B55846  21.817  33.978   7.310
 4344POPC   NC355847   0.717  25.088   5.475
 4344POPC   PO455848   0.212  25.418   5.353
 4344POPC   GL155849   0.362  25.343   5.790
 4344POPC   GL255850   0.457  25.004   5.908
 4344POPC   C1A55851   0.467  25.399   6.254
 4344POPC   D2A55852   0.499  25.212   6.697
 4344POPC   C3A55853   0.434  25.525   7.041
 4344POPC   C4A55854   0.103  25.620   7.256
 4344POPC   C1B55855   0.681  24.876   6.297
 4344POPC   C2B55856   0.904  24.844   6.695
 4344POPC   C3B55857   0.717  24.907   7.083
 4344POPC   C4B55858   0.325  25.063   7.196
 4345POPC   NC355859  41.553   4.112   5.372
 4345POPC   PO455860  41.448   4.736   5.421
 4345POPC   GL155861  41.686   4.510   5.784
 4345POPC   GL255862  41.754   4.125   5.861
 4345POPC   C1A55863  41.700   4.563   6.247
 4345POPC   D2A55864  41.572   4.817   6.637
 4345POPC   C3A55865  41.639   4.656   7.079
 4345POPC   C4A55866  41.332   4.600   7.436
 4345POPC   C1B55867  41.611   4.030   6.277
 4345POPC   C2B55868  41.625   4.262   6.658
 4345POPC   C3B55869  41.714   4.141   7.047
 4345POPC   C4B55870  41.583   4.168   7.446
 4346POPC   NC355871  31.467  17.162   5.426
 4346POPC   PO455872  31.730  17.835   5.407
 4346POPC   GL155873  31.589  17.610   5.827
 4346POPC   GL255874  31.323  17.377   5.881
 4346POPC   C1A55875  31.675  17.366   6.266
 4346POPC   D2A55876  31.438  17.253   6.637
 4346POPC   C3A55877  31.671  17.369   7.002
 4346POPC   C4A55878  31.509  17.425   7.417
 4346POPC   C1B55879  31.303  17.713   6.230
 4346POPC   C2B55880  31.431  17.740   6.660
 4346POPC   C3B55881  31.219  17.653   7.049
 4346POPC   C4B55882  31.200  17.883   7.444
 4347POPC   NC355883  15.314  43.570   5.110
 4347POPC   PO455884  15.463  44.197   5.232
 4347POPC   GL155885  15.330  43.992   5.687
 4347POPC   GL255886  15.122  43.672   5.728
 4347POPC   C1A55887  15.274  44.027   6.156
 4347POPC   D2A55888  15.461  44.094   6.597
 4347POPC   C3A55889  15.110  44.209   6.887
 4347POPC   C4A55890  15.018  44.191   7.332
 4347POPC   C1B55891  15.171  43.542   6.158
 4347POPC   C2B55892  15.095  43.712   6.578
 4347POPC   C3B55893  15.270  43.733   6.999
 4347POPC   C4B55894  15.107  43.681   7.402
 4348POPC   NC355895   3.434  43.628   5.370
 4348POPC   PO455896   3.332  44.273   5.414
 4348POPC   GL155897   3.469  43.949   5.752
 4348POPC   GL255898   3.181  43.665   5.803
 4348POPC   C1A55899   3.732  43.924   6.138
 4348POPC   D2A55900   3.781  44.196   6.482
 4348POPC   C3A55901   3.602  44.149   6.866
 4348POPC   C4A55902   3.699  44.097   7.265
 4348POPC   C1B55903   3.214  43.877   6.178
 4348POPC   C2B55904   3.352  43.850   6.545
 4348POPC   C3B55905   3.138  43.876   6.903
 4348POPC   C4B55906   3.242  43.899   7.286
 4349POPC   NC355907  26.036  44.902   5.413
 4349POPC   PO455908  26.200  44.355   5.806
 4349POPC   GL155909  26.016  44.711   5.891
 4349POPC   GL255910  26.254  44.975   5.843
 4349POPC   C1A55911  25.841  44.746   6.277
 4349POPC   D2A55912  26.034  44.830   6.650
 4349POPC   C3A55913  25.916  44.814   7.047
 4349POPC   C4A55914  26.163  44.553   7.280
 4349POPC   C1B55915  26.308  44.985   6.252
 4349POPC   C2B55916  26.589   0.009   6.593
 4349POPC   C3B55917  26.412  44.935   6.984
 4349POPC   C4B55918  26.269   0.043   7.387
 4350POPC   NC355919  29.787  17.210   5.428
 4350POPC   PO455920  30.022  17.781   5.776
 4350POPC   GL155921  29.730  17.447   5.895
 4350POPC   GL255922  30.007  17.231   5.899
 4350POPC   C1A55923  29.630  17.321   6.321
 4350POPC   D2A55924  29.829  17.556   6.672
 4350POPC   C3A55925  29.751  17.493   7.092
 4350POPC   C4A55926  29.882  17.751   7.406
 4350POPC   C1B55927  30.164  17.366   6.310
 4350POPC   C2B55928  30.329  17.723   6.554
 4350POPC   C3B55929  30.204  17.789   6.992
 4350POPC   C4B55930  30.272  17.391   7.197
 4351POPC   NC355931   2.051  37.866   5.028
 4351POPC   PO455932   2.110  38.029   5.639
 4351POPC   GL155933   2.075  37.753   5.987
 4351POPC   GL255934   1.729  37.595   5.998
 4351POPC   C1A55935   2.169  37.704   6.386
 4351POPC   D2A55936   1.987  37.818   6.705
 4351POPC   C3A55937   2.136  37.685   7.032
 4351POPC   C4A55938   2.126  38.047   7.253
 4351POPC   C1B55939   1.610  37.552   6.436
 4351POPC   C2B55940   1.630  37.496   6.864
 4351POPC   C3B55941   1.662  37.730   7.222
 4351POPC   C4B55942   1.658  37.686   7.681
 4352POPC   NC355943  43.876  16.308   5.354
 4352POPC   PO455944  43.496  15.736   5.466
 4352POPC   GL155945  43.712  15.844   5.858
 4352POPC   GL255946  43.891  16.158   5.855
 4352POPC   C1A55947  43.562  16.089   6.236
 4352POPC   D2A55948  43.770  16.264   6.582
 4352POPC   C3A55949  43.773  15.993   6.934
 4352POPC   C4A55950  43.849  16.190   7.336
 4352POPC   C1B55951  44.068  15.995   6.255
 4352POPC   C2B55952  44.209  15.870   6.677
 4352POPC   C3B55953  44.232  15.921   7.142
 4352POPC   C4B55954  44.050  15.688   7.478
 4353POPC   NC355955  30.426   7.609   5.548
 4353POPC   PO455956  31.067   7.572   5.674
 4353POPC   GL155957  30.829   7.219   5.844
 4353POPC   GL255958  30.453   7.253   5.941
 4353POPC   C1A55959  30.814   7.102   6.267
 4353POPC   D2A55960  30.521   7.251   6.606
 4353POPC   C3A55961  30.614   7.133   7.016
 4353POPC   C4A55962  30.707   7.242   7.420
 4353POPC   C1B55963  30.631   7.584   6.224
 4353POPC   C2B55964  30.743   7.746   6.657
 4353POPC   C3B55965  30.528   7.647   7.067
 4353POPC   C4B55966  30.434   7.683   7.524
 4354POPC   NC355967  12.747   7.540   5.344
 4354POPC   PO455968  12.982   7.043   5.128
 4354POPC   GL155969  12.876   7.173   5.680
 4354POPC   GL255970  12.727   7.493   5.831
 4354POPC   C1A55971  12.925   7.222   6.194
 4354POPC   D2A55972  13.079   7.335   6.647
 4354POPC   C3A55973  12.840   7.221   7.039
 4354POPC   C4A55974  12.903   7.331   7.487
 4354POPC   C1B55975  12.568   7.814   6.095
 4354POPC   C2B55976  12.769   7.788   6.484
 4354POPC   C3B55977  12.670   7.690   6.882
 4354POPC   C4B55978  12.465   7.601   7.248
 4355POPC   NC355979   8.924  35.867   5.340
 4355POPC   PO455980   9.171  36.397   5.113
 4355POPC   GL155981   9.090  36.263   5.631
 4355POPC   GL255982   8.790  36.059   5.793
 4355POPC   C1A55983   9.061  36.352   6.103
 4355POPC   D2A55984   9.217  36.170   6.485
 4355POPC   C3A55985   9.081  36.343   6.881
 4355POPC   C4A55986   9.251  36.318   7.247
 4355POPC   C1B55987   8.810  35.911   6.225
 4355POPC   C2B55988   8.720  36.070   6.645
 4355POPC   C3B55989   8.819  35.941   7.073
 4355POPC   C4B55990   8.471  35.910   7.311
 4356POPC   NC355991  14.952   6.353   5.550
 4356POPC   PO455992  14.851   7.007   5.258
 4356POPC   GL155993  15.014   6.847   5.731
 4356POPC   GL255994  15.297   6.626   5.824
 4356POPC   C1A55995  15.159   6.971   6.191
 4356POPC   D2A55996  15.413   7.048   6.599
 4356POPC   C3A55997  15.270   6.785   6.964
 4356POPC   C4A55998  15.075   6.718   7.387
 4356POPC   C1B55999  15.183   6.410   6.198
 4356POPC   C2B56000  15.397   6.232   6.564
 4356POPC   C3B56001  15.543   6.357   6.966
 4356POPC   C4B56002  15.436   6.380   7.401
 4357POPC   NC356003  44.001   3.050   5.490
 4357POPC   PO456004  44.137   2.425   5.566
 4357POPC   GL156005  43.830   2.628   5.868
 4357POPC   GL256006  43.708   2.989   5.882
 4357POPC   C1A56007  43.577   2.657   6.255
 4357POPC   D2A56008  43.454   2.530   6.674
 4357POPC   C3A56009  43.749   2.569   7.026
 4357POPC   C4A56010  43.646   2.514   7.455
 4357POPC   C1B56011  44.028   2.965   6.192
 4357POPC   C2B56012  43.925   2.843   6.600
 4357POPC   C3B56013  44.045   3.040   6.948
 4357POPC   C4B56014  43.951   3.012   7.365
 4358POPC   NC356015  37.728   8.363   5.495
 4358POPC   PO456016  37.217   7.927   5.321
 4358POPC   GL156017  37.257   8.218   5.760
 4358POPC   GL256018  37.380   8.550   5.853
 4358POPC   C1A56019  37.418   8.203   6.212
 4358POPC   D2A56020  37.283   8.209   6.607
 4358POPC   C3A56021  37.594   8.246   6.905
 4358POPC   C4A56022  37.499   8.058   7.283
 4358POPC   C1B56023  37.805   8.524   6.157
 4358POPC   C2B56024  38.008   8.400   6.589
 4358POPC   C3B56025  38.089   8.387   7.049
 4358POPC   C4B56026  37.893   8.565   7.426
 4359POPC   NC356027   6.935   3.152   5.496
 4359POPC   PO456028   6.567   3.670   5.397
 4359POPC   GL156029   6.644   3.496   5.792
 4359POPC   GL256030   6.992   3.583   5.806
 4359POPC   C1A56031   6.767   3.322   6.190
 4359POPC   D2A56032   6.599   3.380   6.608
 4359POPC   C3A56033   6.829   3.292   6.996
 4359POPC   C4A56034   6.545   3.294   7.340
 4359POPC   C1B56035   6.960   3.800   6.229
 4359POPC   C2B56036   6.885   3.809   6.683
 4359POPC   C3B56037   6.576   3.747   7.032
 4359POPC   C4B56038   6.664   3.801   7.474
 4360POPC   NC356039  12.462  33.888   5.573
 4360POPC   PO456040  13.094  33.699   5.703
 4360POPC   GL156041  12.838  34.018   5.892
 4360POPC   GL256042  13.063  34.235   6.014
 4360POPC   C1A56043  12.729  33.985   6.326
 4360POPC   D2A56044  12.892  33.634   6.542
 4360POPC   C3A56045  12.821  33.549   6.961
 4360POPC   C4A56046  12.833  33.679   7.367
 4360POPC   C1B56047  13.257  34.178   6.364
 4360POPC   C2B56048  13.086  34.083   6.716
 4360POPC   C3B56049  12.891  34.077   7.074
 4360POPC   C4B56050  13.056  34.121   7.504
 4361POPC   NC356051  38.475  38.431   5.383
 4361POPC   PO456052  37.975  37.975   5.289
 4361POPC   GL156053  38.218  38.192   5.757
 4361POPC   GL256054  38.269  38.585   5.805
 4361POPC   C1A56055  38.121  38.365   6.213
 4361POPC   D2A56056  38.380  38.557   6.554
 4361POPC   C3A56057  38.345  38.348   6.979
 4361POPC   C4A56058  38.273  38.329   7.427
 4361POPC   C1B56059  38.644  38.509   6.079
 4361POPC   C2B56060  38.892  38.492   6.478
 4361POPC   C3B56061  38.803  38.644   6.890
 4361POPC   C4B56062  38.631  38.641   7.306
 4362POPC   NC356063  30.947  40.253   5.565
 4362POPC   PO456064  30.482  39.712   5.504
 4362POPC   GL156065  30.671  39.947   5.851
 4362POPC   GL256066  31.041  39.813   5.835
 4362POPC   C1A56067  30.540  40.188   6.226
 4362POPC   D2A56068  30.323  40.092   6.608
 4362POPC   C3A56069  30.571  40.003   6.964
 4362POPC   C4A56070  30.773  40.321   7.187
 4362POPC   C1B56071  31.064  40.028   6.235
 4362POPC   C2B56072  30.956  40.085   6.658
 4362POPC   C3B56073  31.123  40.002   7.076
 4362POPC   C4B56074  31.257  39.669   7.374
 4363POPC   NC356075   5.212  14.320   5.577
 4363POPC   PO456076   5.503  14.893   5.507
 4363POPC   GL156077   5.323  14.739   5.865
 4363POPC   GL256078   4.958  14.689   5.901
 4363POPC   C1A56079   5.313  14.601   6.285
 4363POPC   D2A56080   5.087  14.513   6.655
 4363POPC   C3A56081   5.241  14.179   6.909
 4363POPC   C4A56082   5.369  14.464   7.177
 4363POPC   C1B56083   4.868  14.300   6.172
 4363POPC   C2B56084   4.859  14.071   6.557
 4363POPC   C3B56085   4.732  14.287   6.957
 4363POPC   C4B56086   4.881  14.161   7.377
 4364POPC   NC356087  33.077  24.800   5.578
 4364POPC   PO456088  33.067  24.158   5.423
 4364POPC   GL156089  32.967  24.330   5.805
 4364POPC   GL256090  32.701  24.102   5.813
 4364POPC   C1A56091  32.975  24.605   6.201
 4364POPC   D2A56092  33.223  24.717   6.562
 4364POPC   C3A56093  33.004  24.835   6.936
 4364POPC   C4A56094  33.009  24.740   7.396
 4364POPC   C1B56095  32.899  24.098   6.250
 4364POPC   C2B56096  32.912  24.314   6.653
 4364POPC   C3B56097  33.054  24.351   7.065
 4364POPC   C4B56098  32.753  24.222   7.382
 4365POPC   NC356099  10.044   9.248   5.542
 4365POPC   PO456100   9.484   8.825   5.525
 4365POPC   GL156101   9.695   9.011   5.879
 4365POPC   GL256102   9.412   9.172   6.001
 4365POPC   C1A56103   9.790   8.985   6.338
 4365POPC   D2A56104   9.978   8.770   6.698
 4365POPC   C3A56105  10.055   9.059   6.995
 4365POPC   C4A56106  10.191   9.111   7.366
 4365POPC   C1B56107   9.462   9.400   6.378
 4365POPC   C2B56108   9.622   9.279   6.736
 4365POPC   C3B56109   9.568   8.953   6.965
 4365POPC   C4B56110   9.511   8.832   7.356
 4366POPC   NC356111  13.194  37.639   5.439
 4366POPC   PO456112  12.556  37.750   5.436
 4366POPC   GL156113  12.705  37.905   5.840
 4366POPC   GL256114  13.067  37.824   5.914
 4366POPC   C1A56115  12.687  37.937   6.280
 4366POPC   D2A56116  12.684  37.691   6.610
 4366POPC   C3A56117  12.883  37.820   6.936
 4366POPC   C4A56118  12.710  37.849   7.353
 4366POPC   C1B56119  12.950  37.506   6.224
 4366POPC   C2B56120  12.969  37.291   6.651
 4366POPC   C3B56121  12.811  37.342   7.090
 4366POPC   C4B56122  12.806  37.340   7.548
 4367POPC   NC356123  29.464   2.979   5.547
 4367POPC   PO456124  29.667   2.444   5.344
 4367POPC   GL156125  29.840   2.655   5.778
 4367POPC   GL256126  29.611   2.824   5.993
 4367POPC   C1A56127  29.944   2.499   6.229
 4367POPC   D2A56128  29.859   2.329   6.672
 4367POPC   C3A56129  29.703   2.636   6.947
 4367POPC   C4A56130  30.062   2.873   7.143
 4367POPC   C1B56131  29.893   3.001   6.281
 4367POPC   C2B56132  29.837   3.034   6.706
 4367POPC   C3B56133  29.610   3.106   7.171
 4367POPC   C4B56134  29.536   3.083   7.669
 4368POPC   NC356135  22.163  10.916   5.438
 4368POPC   PO456136  22.061  11.569   5.438
 4368POPC   GL156137  22.140  11.250   5.810
 4368POPC   GL256138  21.857  10.986   5.834
 4368POPC   C1A56139  22.298  11.150   6.240
 4368POPC   D2A56140  22.262  11.331   6.646
 4368POPC   C3A56141  22.292  11.157   7.054
 4368POPC   C4A56142  22.245  11.403   7.422
 4368POPC   C1B56143  21.878  10.898   6.258
 4368POPC   C2B56144  22.051  10.872   6.671
 4368POPC   C3B56145  21.806  10.922   7.034
 4368POPC   C4B56146  21.965  10.964   7.423
 4369POPC   NC356147  11.501  43.988   5.371
 4369POPC   PO456148  11.070  43.548   5.265
 4369POPC   GL156149  11.186  43.538   5.768
 4369POPC   GL256150  11.454  43.815   5.843
 4369POPC   C1A56151  11.374  43.541   6.242
 4369POPC   D2A56152  11.469  43.886   6.553
 4369POPC   C3A56153  11.367  43.823   7.000
 4369POPC   C4A56154  11.110  43.581   7.296
 4369POPC   C1B56155  11.148  44.040   6.098
 4369POPC   C2B56156  10.867  44.076   6.443
 4369POPC   C3B56157  10.989  44.149   6.837
 4369POPC   C4B56158  10.974  44.067   7.255
 4370POPC   NC356159   0.304  19.990   5.133
 4370POPC   PO456160   0.497  19.476   5.533
 4370POPC   GL156161   0.287  19.811   5.783
 4370POPC   GL256162   0.243  19.556   6.008
 4370POPC   C1A56163   0.219  20.017   6.204
 4370POPC   D2A56164   0.226  19.687   6.522
 4370POPC   C3A56165   0.305  19.836   6.887
 4370POPC   C4A56166   0.169  19.893   7.296
 4370POPC   C1B56167   0.619  19.704   6.169
 4370POPC   C2B56168   0.719  19.578   6.537
 4370POPC   C3B56169   0.779  19.652   6.917
 4370POPC   C4B56170   0.564  19.592   7.253
 4371POPC   NC356171   1.212  30.058   5.572
 4371POPC   PO456172   1.224  29.440   5.349
 4371POPC   GL156173   1.013  29.606   5.764
 4371POPC   GL256174   1.303  29.658   5.957
 4371POPC   C1A56175   0.873  29.829   6.196
 4371POPC   D2A56176   0.981  30.098   6.601
 4371POPC   C3A56177   1.134  30.019   7.019
 4371POPC   C4A56178   1.238  29.618   7.160
 4371POPC   C1B56179   1.345  30.013   6.242
 4371POPC   C2B56180   1.553  29.966   6.618
 4371POPC   C3B56181   1.641  30.175   6.955
 4371POPC   C4B56182   1.520  30.097   7.362
 4372POPC   NC356183   3.903   1.285   5.307
 4372POPC   PO456184   4.439   0.966   5.587
 4372POPC   GL156185   4.262   1.002   5.949
 4372POPC   GL256186   4.063   1.246   5.853
 4372POPC   C1A56187   4.110   1.029   6.364
 4372POPC   D2A56188   4.172   1.208   6.765
 4372POPC   C3A56189   4.372   0.934   7.066
 4372POPC   C4A56190   4.802   1.044   7.142
 4372POPC   C1B56191   4.328   1.472   6.173
 4372POPC   C2B56192   4.363   1.715   6.556
 4372POPC   C3B56193   4.320   1.758   6.975
 4372POPC   C4B56194   4.364   1.431   7.201
 4373POPC   NC356195   1.269   1.311   5.482
 4373POPC   PO456196   0.797   0.897   5.673
 4373POPC   GL156197   0.931   1.215   5.911
 4373POPC   GL256198   1.283   1.154   5.967
 4373POPC   C1A56199   0.959   1.076   6.358
 4373POPC   D2A56200   1.045   1.290   6.758
 4373POPC   C3A56201   0.910   1.060   7.105
 4373POPC   C4A56202   0.594   0.818   7.248
 4373POPC   C1B56203   1.225   1.501   6.278
 4373POPC   C2B56204   1.416   1.653   6.653
 4373POPC   C3B56205   1.327   1.642   7.067
 4373POPC   C4B56206   1.298   1.303   7.332
 4374POPC   NC356207  43.341  32.517   5.462
 4374POPC   PO456208  42.877  32.031   5.634
 4374POPC   GL156209  43.029  32.379   5.856
 4374POPC   GL256210  43.373  32.418   5.964
 4374POPC   C1A56211  42.891  32.377   6.261
 4374POPC   D2A56212  42.919  32.271   6.675
 4374POPC   C3A56213  43.059  32.200   7.043
 4374POPC   C4A56214  42.806  32.462   7.288
 4374POPC   C1B56215  43.386  32.338   6.427
 4374POPC   C2B56216  43.488  32.011   6.762
 4374POPC   C3B56217  43.542  32.129   7.182
 4374POPC   C4B56218  43.448  32.546   7.333
 4375POPC   NC356219  20.417  43.882   5.295
 4375POPC   PO456220  20.842  43.399   5.217
 4375POPC   GL156221  20.503  43.512   5.622
 4375POPC   GL256222  20.639  43.820   5.792
 4375POPC   C1A56223  20.387  43.534   6.125
 4375POPC   D2A56224  20.406  43.722   6.593
 4375POPC   C3A56225  20.751  43.698   6.932
 4375POPC   C4A56226  20.870  43.595   7.369
 4375POPC   C1B56227  20.808  43.994   6.200
 4375POPC   C2B56228  20.805  44.138   6.655
 4375POPC   C3B56229  20.461  44.146   6.922
 4375POPC   C4B56230  20.418  44.145   7.338
 4376POPC   NC356231  15.561   6.809   5.434
 4376POPC   PO456232  16.192   6.412   5.294
 4376POPC   GL156233  16.155   6.428   5.735
 4376POPC   GL256234  15.805   6.466   5.743
 4376POPC   C1A56235  16.188   6.610   6.158
 4376POPC   D2A56236  15.940   6.885   6.422
 4376POPC   C3A56237  15.983   6.843   6.858
 4376POPC   C4A56238  15.808   6.711   7.247
 4376POPC   C1B56239  15.710   6.406   6.173
 4376POPC   C2B56240  15.913   6.386   6.575
 4376POPC   C3B56241  16.067   6.337   6.970
 4376POPC   C4B56242  15.884   6.169   7.301
 4377POPC   NC356243   0.388   5.627   5.142
 4377POPC   PO456244   0.129   6.102   5.564
 4377POPC   GL156245   0.525   6.039   5.836
 4377POPC   GL256246   0.681   5.677   5.871
 4377POPC   C1A56247   0.524   5.943   6.278
 4377POPC   D2A56248   0.241   5.971   6.626
 4377POPC   C3A56249   0.564   5.957   6.920
 4377POPC   C4A56250   0.714   6.247   7.228
 4377POPC   C1B56251   0.497   5.421   6.207
 4377POPC   C2B56252   0.463   5.520   6.599
 4377POPC   C3B56253   0.404   5.479   6.991
 4377POPC   C4B56254   0.241   5.481   7.372
 4378POPC   NC356255  20.812  19.825   5.656
 4378POPC   PO456256  20.128  19.596   5.487
 4378POPC   GL156257  20.356  19.708   5.820
 4378POPC   GL256258  20.324  20.066   5.728
 4378POPC   C1A56259  20.534  19.879   6.242
 4378POPC   D2A56260  20.817  19.886   6.620
 4378POPC   C3A56261  20.622  19.834   7.022
 4378POPC   C4A56262  20.699  19.621   7.411
 4378POPC   C1B56263  20.049  19.990   6.085
 4378POPC   C2B56264  20.112  19.925   6.526
 4378POPC   C3B56265  20.109  19.897   6.967
 4378POPC   C4B56266  20.242  19.870   7.376
 4379POPC   NC356267  35.219  31.700   5.354
 4379POPC   PO456268  35.669  31.249   5.402
 4379POPC   GL156269  35.478  31.436   5.750
 4379POPC   GL256270  35.366  31.129   5.843
 4379POPC   C1A56271  35.284  31.631   6.135
 4379POPC   D2A56272  35.237  31.855   6.549
 4379POPC   C3A56273  35.340  31.678   6.944
 4379POPC   C4A56274  35.077  31.551   7.278
 4379POPC   C1B56275  35.608  31.226   6.197
 4379POPC   C2B56276  35.419  31.328   6.559
 4379POPC   C3B56277  35.398  31.156   6.946
 4379POPC   C4B56278  35.435  31.193   7.371
 4380POPC   NC356279  40.186  11.472   5.204
 4380POPC   PO456280  39.663  11.280   5.563
 4380POPC   GL156281  39.913  11.398   5.867
 4380POPC   GL256282  40.123  11.146   5.852
 4380POPC   C1A56283  39.953  11.412   6.306
 4380POPC   D2A56284  40.225  11.578   6.639
 4380POPC   C3A56285  40.075  11.429   7.021
 4380POPC   C4A56286  39.923  11.722   7.264
 4380POPC   C1B56287  40.158  10.907   6.218
 4380POPC   C2B56288  40.171  11.072   6.633
 4380POPC   C3B56289  40.404  11.042   6.988
 4380POPC   C4B56290  40.235  10.899   7.317
 4381POPC   NC356291   1.541  15.324   5.371
 4381POPC   PO456292   2.001  14.844   5.445
 4381POPC   GL156293   2.035  15.007   5.847
 4381POPC   GL256294   1.998  15.351   5.839
 4381POPC   C1A56295   1.952  15.031   6.278
 4381POPC   D2A56296   1.762  15.077   6.667
 4381POPC   C3A56297   2.015  14.991   6.961
 4381POPC   C4A56298   2.175  15.068   7.316
 4381POPC   C1B56299   1.680  15.457   6.158
 4381POPC   C2B56300   1.707  15.594   6.599
 4381POPC   C3B56301   1.977  15.506   6.949
 4381POPC   C4B56302   2.379  15.527   7.168
 4382POPC   NC356303  27.988  17.757   5.635
 4382POPC   PO456304  28.426  17.367   5.340
 4382POPC   GL156305  28.513  17.509   5.761
 4382POPC   GL256306  28.549  17.190   5.856
 4382POPC   C1A56307  28.655  17.611   6.226
 4382POPC   D2A56308  28.770  17.800   6.685
 4382POPC   C3A56309  28.460  17.782   7.068
 4382POPC   C4A56310  28.401  17.903   7.525
 4382POPC   C1B56311  28.389  17.069   6.257
 4382POPC   C2B56312  28.498  16.905   6.658
 4382POPC   C3B56313  28.293  17.019   6.985
 4382POPC   C4B56314  28.310  17.304   7.287
 4383POPC   NC356315   3.744  44.726   5.382
 4383POPC   PO456316   3.109  44.952   5.575
 4383POPC   GL156317   3.344  44.601   5.805
 4383POPC   GL256318   3.673  44.432   5.796
 4383POPC   C1A56319   3.351  44.427   6.223
 4383POPC   D2A56320   3.506  44.767   6.498
 4383POPC   C3A56321   3.433  44.747   6.919
 4383POPC   C4A56322   3.199  44.393   7.084
 4383POPC   C1B56323   3.865  44.576   6.173
 4383POPC   C2B56324   4.034  44.645   6.600
 4383POPC   C3B56325   3.902  44.553   7.037
 4383POPC   C4B56326   4.026  44.652   7.465
 4384POPC   NC356327   1.685   4.217   5.476
 4384POPC   PO456328   2.217   4.655   5.551
 4384POPC   GL156329   1.963   4.452   5.867
 4384POPC   GL256330   1.915   4.082   5.925
 4384POPC   C1A56331   1.903   4.386   6.314
 4384POPC   D2A56332   1.686   4.256   6.664
 4384POPC   C3A56333   1.930   4.361   6.999
 4384POPC   C4A56334   1.805   4.357   7.382
 4384POPC   C1B56335   2.301   4.074   6.212
 4384POPC   C2B56336   2.168   4.053   6.627
 4384POPC   C3B56337   2.301   4.014   7.016
 4384POPC   C4B56338   2.122   3.956   7.395
 4385POPC   NC356339  18.717  13.466   5.436
 4385POPC   PO456340  18.268  13.921   5.568
 4385POPC   GL156341  18.503  13.662   5.870
 4385POPC   GL256342  18.248  13.436   5.925
 4385POPC   C1A56343  18.592  13.490   6.319
 4385POPC   D2A56344  18.518  13.517   6.744
 4385POPC   C3A56345  18.632  13.912   6.970
 4385POPC   C4A56346  18.581  13.839   7.393
 4385POPC   C1B56347  18.155  13.758   6.267
 4385POPC   C2B56348  18.190  13.941   6.697
 4385POPC   C3B56349  18.193  13.693   7.100
 4385POPC   C4B56350  18.244  13.303   7.220
 4386POPC   NC356351  39.531  29.825   5.580
 4386POPC   PO456352  39.077  30.269   5.623
 4386POPC   GL156353  39.133  29.918   5.907
 4386POPC   GL256354  39.423  30.067   6.006
 4386POPC   C1A56355  39.079  29.924   6.357
 4386POPC   D2A56356  39.326  30.069   6.649
 4386POPC   C3A56357  39.151  30.141   7.031
 4386POPC   C4A56358  39.301  29.924   7.382
 4386POPC   C1B56359  39.554  29.695   6.248
 4386POPC   C2B56360  39.440  29.542   6.647
 4386POPC   C3B56361  39.609  29.678   7.058
 4386POPC   C4B56362  39.865  29.639   7.452
 4387POPC   NC356363  33.951  32.504   5.556
 4387POPC   PO456364  33.471  31.964   5.510
 4387POPC   GL156365  33.716  32.029   5.851
 4387POPC   GL256366  33.496  32.311   5.930
 4387POPC   C1A56367  33.890  32.225   6.228
 4387POPC   D2A56368  33.841  32.028   6.650
 4387POPC   C3A56369  33.795  32.311   6.972
 4387POPC   C4A56370  34.058  32.642   7.126
 4387POPC   C1B56371  33.430  32.046   6.315
 4387POPC   C2B56372  33.362  31.831   6.713
 4387POPC   C3B56373  33.424  31.932   7.150
 4387POPC   C4B56374  33.319  31.992   7.592
 4388POPC   NC356375  16.453  43.333   5.632
 4388POPC   PO456376  16.952  42.880   5.356
 4388POPC   GL156377  17.027  42.931   5.817
 4388POPC   GL256378  16.801  43.191   5.972
 4388POPC   C1A56379  17.090  42.953   6.287
 4388POPC   D2A56380  16.848  42.978   6.678
 4388POPC   C3A56381  17.033  42.799   7.064
 4388POPC   C4A56382  17.074  42.827   7.544
 4388POPC   C1B56383  16.461  43.079   6.245
 4388POPC   C2B56384  16.384  43.193   6.651
 4388POPC   C3B56385  16.530  43.366   7.017
 4388POPC   C4B56386  16.729  43.135   7.296
 4389POPC   NC356387  33.952  23.192   5.153
 4389POPC   PO456388  33.638  23.720   5.503
 4389POPC   GL156389  33.591  23.789   5.903
 4389POPC   GL256390  33.775  23.519   6.008
 4389POPC   C1A56391  33.583  23.875   6.331
 4389POPC   D2A56392  33.855  23.908   6.663
 4389POPC   C3A56393  33.613  23.812   6.996
 4389POPC   C4A56394  33.544  24.187   7.198
 4389POPC   C1B56395  34.119  23.660   6.263
 4389POPC   C2B56396  34.250  23.595   6.677
 4389POPC   C3B56397  34.118  23.686   7.092
 4389POPC   C4B56398  34.222  23.550   7.492
 4390POPC   NC356399  26.627  22.741   5.606
 4390POPC   PO456400  27.227  23.137   5.507
 4390POPC   GL156401  26.922  23.088   5.829
 4390POPC   GL256402  27.073  22.763   5.905
 4390POPC   C1A56403  26.660  22.909   6.219
 4390POPC   D2A56404  26.498  23.019   6.632
 4390POPC   C3A56405  26.651  22.818   6.997
 4390POPC   C4A56406  26.785  22.875   7.438
 4390POPC   C1B56407  27.145  23.063   6.270
 4390POPC   C2B56408  27.004  23.137   6.684
 4390POPC   C3B56409  27.102  23.172   7.122
 4390POPC   C4B56410  27.322  22.999   7.493
 4391POPC   NC356411   0.733  19.930   5.570
 4391POPC   PO456412   1.374  19.870   5.258
 4391POPC   GL156413   1.404  19.628   5.716
 4391POPC   GL256414   1.158  19.858   5.852
 4391POPC   C1A56415   1.534  19.749   6.184
 4391POPC   D2A56416   1.534  20.080   6.528
 4391POPC   C3A56417   1.608  19.864   6.920
 4391POPC   C4A56418   1.484  19.780   7.325
 4391POPC   C1B56419   1.003  20.038   6.253
 4391POPC   C2B56420   0.884  20.099   6.690
 4391POPC   C3B56421   1.108  19.986   7.072
 4391POPC   C4B56422   1.001  19.813   7.482
 4392POPC   NC356423  36.675   6.399   5.393
 4392POPC   PO456424  37.055   6.876   5.175
 4392POPC   GL156425  37.025   6.598   5.704
 4392POPC   GL256426  36.696   6.542   5.896
 4392POPC   C1A56427  37.081   6.692   6.191
 4392POPC   D2A56428  36.948   6.823   6.640
 4392POPC   C3A56429  37.102   6.685   7.061
 4392POPC   C4A56430  36.812   6.486   7.359
 4392POPC   C1B56431  36.517   6.744   6.288
 4392POPC   C2B56432  36.431   7.013   6.668
 4392POPC   C3B56433  36.618   6.904   7.071
 4392POPC   C4B56434  36.718   6.958   7.504
 4393POPC   NC356435  29.033  10.090   5.548
 4393POPC   PO456436  28.993   9.421   5.587
 4393POPC   GL156437  29.186   9.715   5.901
 4393POPC   GL256438  29.369  10.041   5.921
 4393POPC   C1A56439  29.241   9.793   6.348
 4393POPC   D2A56440  28.962   9.769   6.682
 4393POPC   C3A56441  29.137   9.710   7.060
 4393POPC   C4A56442  28.907   9.454   7.260
 4393POPC   C1B56443  29.466  10.286   6.269
 4393POPC   C2B56444  29.270  10.212   6.689
 4393POPC   C3B56445  29.259  10.183   7.175
 4393POPC   C4B56446  29.491   9.944   7.492
 4394POPC   NC356447  39.312  33.811   5.010
 4394POPC   PO456448  38.967  33.526   5.576
 4394POPC   GL156449  39.144  33.860   5.849
 4394POPC   GL256450  39.480  34.046   5.786
 4394POPC   C1A56451  39.077  33.717   6.283
 4394POPC   D2A56452  39.308  33.516   6.593
 4394POPC   C3A56453  39.151  33.609   6.995
 4394POPC   C4A56454  39.216  33.705   7.438
 4394POPC   C1B56455  39.334  34.203   6.207
 4394POPC   C2B56456  39.272  34.028   6.652
 4394POPC   C3B56457  39.372  34.073   7.094
 4394POPC   C4B56458  39.675  34.256   7.400
 4395POPC   NC356459  11.075   5.636   5.431
 4395POPC   PO456460  11.404   6.260   5.654
 4395POPC   GL156461  11.037   6.078   5.790
 4395POPC   GL256462  11.233   5.780   5.892
 4395POPC   C1A56463  11.003   6.083   6.237
 4395POPC   D2A56464  11.349   6.123   6.553
 4395POPC   C3A56465  11.151   6.087   6.934
 4395POPC   C4A56466  11.200   5.822   7.283
 4395POPC   C1B56467  11.287   5.652   6.326
 4395POPC   C2B56468  11.347   5.612   6.765
 4395POPC   C3B56469  11.482   5.407   7.128
 4395POPC   C4B56470  11.525   5.542   7.570
 4396POPC   NC356471  32.183  34.816   5.519
 4396POPC   PO456472  32.638  34.352   5.283
 4396POPC   GL156473  32.362  34.367   5.727
 4396POPC   GL256474  32.542  34.514   6.039
 4396POPC   C1A56475  32.035  34.420   6.104
 4396POPC   D2A56476  32.230  34.400   6.530
 4396POPC   C3A56477  32.186  34.220   6.959
 4396POPC   C4A56478  32.508  34.344   7.240
 4396POPC   C1B56479  32.256  34.860   6.229
 4396POPC   C2B56480  32.025  34.855   6.630
 4396POPC   C3B56481  32.191  34.716   7.003
 4396POPC   C4B56482  32.339  34.834   7.395
 4397POPC   NC356483   2.909   0.271   5.302
 4397POPC   PO456484   2.394   0.680   5.547
 4397POPC   GL156485   2.739   0.427   5.809
 4397POPC   GL256486   3.114   0.482   5.724
 4397POPC   C1A56487   2.789   0.272   6.272
 4397POPC   D2A56488   2.501   0.111   6.630
 4397POPC   C3A56489   2.579   0.213   7.055
 4397POPC   C4A56490   2.707   0.620   7.177
 4397POPC   C1B56491   3.058   0.690   6.137
 4397POPC   C2B56492   2.912   0.758   6.559
 4397POPC   C3B56493   3.130   0.779   6.953
 4397POPC   C4B56494   3.206   0.369   7.182
 4398POPC   NC356495  32.400  32.369   5.476
 4398POPC   PO456496  31.836  32.171   5.204
 4398POPC   GL156497  32.047  32.119   5.726
 4398POPC   GL256498  32.334  31.895   5.858
 4398POPC   C1A56499  32.328  32.318   6.143
 4398POPC   D2A56500  32.279  32.520   6.578
 4398POPC   C3A56501  32.481  32.424   6.979
 4398POPC   C4A56502  32.287  32.367   7.399
 4398POPC   C1B56503  32.193  31.870   6.335
 4398POPC   C2B56504  32.321  31.973   6.804
 4398POPC   C3B56505  32.555  31.989   7.240
 4398POPC   C4B56506  32.440  32.022   7.731
 4399POPC   NC356507  15.482  31.096   5.553
 4399POPC   PO456508  15.258  30.602   5.302
 4399POPC   GL156509  15.311  30.639   5.786
 4399POPC   GL256510  15.396  30.948   6.025
 4399POPC   C1A56511  15.038  30.617   6.172
 4399POPC   D2A56512  14.873  30.858   6.515
 4399POPC   C3A56513  15.050  30.658   6.872
 4399POPC   C4A56514  14.949  30.807   7.225
 4399POPC   C1B56515  15.493  31.263   6.338
 4399POPC   C2B56516  15.553  31.186   6.815
 4399POPC   C3B56517  15.454  30.869   7.109
 4399POPC   C4B56518  15.373  30.781   7.543
 4400POPC   NC356519  40.429   7.733   5.323
 4400POPC   PO456520  40.866   7.218   5.242
 4400POPC   GL156521  40.785   7.401   5.685
 4400POPC   GL256522  40.538   7.632   5.810
 4400POPC   C1A56523  40.638   7.245   6.117
 4400POPC   D2A56524  40.821   7.279   6.526
 4400POPC   C3A56525  40.629   7.360   6.930
 4400POPC   C4A56526  40.646   7.324   7.356
 4400POPC   C1B56527  40.793   7.710   6.228
 4400POPC   C2B56528  40.994   7.733   6.684
 4400POPC   C3B56529  40.984   7.746   7.164
 4400POPC   C4B56530  41.024   7.740   7.682
 4401POPC   NC356531  32.483  23.603   5.436
 4401POPC   PO456532  31.837  23.524   5.433
 4401POPC   GL156533  32.134  23.515   5.795
 4401POPC   GL256534  32.248  23.850   5.835
 4401POPC   C1A56535  32.316  23.544   6.226
 4401POPC   D2A56536  32.309  23.762   6.615
 4401POPC   C3A56537  32.095  23.523   6.913
 4401POPC   C4A56538  32.225  23.334   7.287
 4401POPC   C1B56539  32.394  24.075   6.207
 4401POPC   C2B56540  32.373  24.289   6.606
 4401POPC   C3B56541  32.524  24.076   6.957
 4401POPC   C4B56542  32.357  23.826   7.263
 4402POPC   NC356543   7.335  26.310   5.547
 4402POPC   PO456544   7.859  25.931   5.483
 4402POPC   GL156545   7.685  25.772   5.838
 4402POPC   GL256546   7.298  25.840   5.858
 4402POPC   C1A56547   7.827  25.933   6.244
 4402POPC   D2A56548   7.732  26.290   6.491
 4402POPC   C3A56549   7.538  26.083   6.841
 4402POPC   C4A56550   7.581  26.022   7.271
 4402POPC   C1B56551   7.151  25.990   6.279
 4402POPC   C2B56552   7.016  26.139   6.706
 4402POPC   C3B56553   7.096  26.037   7.142
 4402POPC   C4B56554   7.130  25.804   7.563
 4403POPC   NC356555   5.297  32.433   5.473
 4403POPC   PO456556   4.913  31.956   5.293
 4403POPC   GL156557   4.948  32.127   5.735
 4403POPC   GL256558   5.308  32.103   5.871
 4403POPC   C1A56559   4.881  32.053   6.184
 4403POPC   D2A56560   4.806  31.971   6.610
 4403POPC   C3A56561   4.962  32.311   6.832
 4403POPC   C4A56562   4.918  32.344   7.262
 4403POPC   C1B56563   5.301  32.406   6.239
 4403POPC   C2B56564   5.468  32.427   6.670
 4403POPC   C3B56565   5.385  32.454   7.121
 4403POPC   C4B56566   5.464  32.413   7.621
 4404POPC   NC356567  38.533  32.128   5.429
 4404POPC   PO456568  38.410  32.712   5.699
 4404POPC   GL156569  38.601  32.386   5.864
 4404POPC   GL256570  38.256  32.201   5.837
 4404POPC   C1A56571  38.815  32.364   6.230
 4404POPC   D2A56572  38.696  32.214   6.610
 4404POPC   C3A56573  38.853  32.304   6.982
 4404POPC   C4A56574  38.721  32.282   7.368
 4404POPC   C1B56575  38.335  32.163   6.241
 4404POPC   C2B56576  38.144  32.285   6.598
 4404POPC   C3B56577  38.323  32.329   6.984
 4404POPC   C4B56578  38.227  32.176   7.379
 4405POPC   NC356579   6.276  42.548   5.629
 4405POPC   PO456580   6.301  41.938   5.414
 4405POPC   GL156581   6.578  42.180   5.751
 4405POPC   GL256582   6.910  42.305   5.798
 4405POPC   C1A56583   6.579  42.256   6.220
 4405POPC   D2A56584   6.335  42.450   6.567
 4405POPC   C3A56585   6.490  42.362   6.977
 4405POPC   C4A56586   6.405  42.052   7.275
 4405POPC   C1B56587   7.000  42.547   6.194
 4405POPC   C2B56588   6.853  42.697   6.612
 4405POPC   C3B56589   6.904  42.671   7.071
 4405POPC   C4B56590   6.724  42.488   7.449
 4406POPC   NC356591  21.043  16.752   5.522
 4406POPC   PO456592  21.504  17.130   5.588
 4406POPC   GL156593  21.341  16.911   5.904
 4406POPC   GL256594  21.395  16.532   5.858
 4406POPC   C1A56595  21.256  16.731   6.288
 4406POPC   D2A56596  21.325  16.521   6.639
 4406POPC   C3A56597  21.621  16.767   6.855
 4406POPC   C4A56598  21.654  16.882   7.270
 4406POPC   C1B56599  21.622  16.322   6.255
 4406POPC   C2B56600  21.741  16.262   6.752
 4406POPC   C3B56601  21.596  16.364   7.190
 4406POPC   C4B56602  21.421  16.517   7.570
 4407POPC   NC356603  39.112  41.284   5.415
 4407POPC   PO456604  39.076  41.901   5.228
 4407POPC   GL156605  39.221  41.738   5.705
 4407POPC   GL256606  39.412  41.416   5.794
 4407POPC   C1A56607  39.507  41.762   6.126
 4407POPC   D2A56608  39.427  41.492   6.517
 4407POPC   C3A56609  39.385  41.649   6.955
 4407POPC   C4A56610  39.427  41.586   7.422
 4407POPC   C1B56611  39.069  41.455   6.135
 4407POPC   C2B56612  38.875  41.361   6.554
 4407POPC   C3B56613  38.977  41.343   6.992
 4407POPC   C4B56614  39.332  41.155   7.168
 4408POPC   NC356615  15.852  44.127   5.544
 4408POPC   PO456616  15.562  43.592   5.501
 4408POPC   GL156617  15.731  43.746   5.902
 4408POPC   GL256618  15.752  44.108   6.023
 4408POPC   C1A56619  15.761  43.706   6.344
 4408POPC   D2A56620  15.923  43.376   6.580
 4408POPC   C3A56621  16.074  43.556   6.904
 4408POPC   C4A56622  16.040  43.626   7.304
 4408POPC   C1B56623  16.117  44.100   6.284
 4408POPC   C2B56624  16.026  44.023   6.696
 4408POPC   C3B56625  15.803  44.008   7.058
 4408POPC   C4B56626  15.998  44.099   7.485
 4409POPC   NC356627  10.842  43.854   5.512
 4409POPC   PO456628  10.185  43.903   5.565
 4409POPC   GL156629  10.291  43.753   5.928
 4409POPC   GL256630  10.577  43.593   5.859
 4409POPC   C1A56631  10.358  43.993   6.305
 4409POPC   D2A56632  10.250  43.948   6.741
 4409POPC   C3A56633  10.500  44.158   7.044
 4409POPC   C4A56634  10.528  44.073   7.480
 4409POPC   C1B56635  10.845  43.615   6.197
 4409POPC   C2B56636  11.009  43.594   6.609
 4409POPC   C3B56637  10.758  43.717   6.928
 4409POPC   C4B56638  10.593  43.597   7.287
 4410POPC   NC356639  40.397  40.316   5.542
 4410POPC   PO456640  39.802  39.932   5.499
 4410POPC   GL156641  40.073  39.957   5.844
 4410POPC   GL256642  39.747  39.925   6.022
 4410POPC   C1A56643  40.139  40.023   6.307
 4410POPC   D2A56644  39.883  39.748   6.571
 4410POPC   C3A56645  40.030  39.769   6.974
 4410POPC   C4A56646  40.336  39.801   7.284
 4410POPC   C1B56647  39.655  40.199   6.383
 4410POPC   C2B56648  39.843  40.229   6.811
 4410POPC   C3B56649  39.968  40.231   7.259
 4410POPC   C4B56650  39.821  40.326   7.732
 4411POPC   NC356651  38.976   1.856   5.401
 4411POPC   PO456652  39.600   1.807   5.756
 4411POPC   GL156653  39.173   1.876   5.884
 4411POPC   GL256654  39.225   2.216   5.843
 4411POPC   C1A56655  39.051   1.925   6.321
 4411POPC   D2A56656  39.352   1.809   6.665
 4411POPC   C3A56657  39.390   1.924   7.121
 4411POPC   C4A56658  39.537   2.113   7.507
 4411POPC   C1B56659  38.947   2.402   6.149
 4411POPC   C2B56660  38.784   2.294   6.584
 4411POPC   C3B56661  38.922   2.245   7.041
 4411POPC   C4B56662  39.023   2.125   7.502
 4412POPC   NC356663  32.842  39.486   5.046
 4412POPC   PO456664  32.943  38.975   5.457
 4412POPC   GL156665  32.964  39.032   5.882
 4412POPC   GL256666  33.123  39.330   5.863
 4412POPC   C1A56667  32.861  38.920   6.290
 4412POPC   D2A56668  33.080  39.115   6.627
 4412POPC   C3A56669  33.009  38.928   7.022
 4412POPC   C4A56670  33.180  39.215   7.303
 4412POPC   C1B56671  32.908  39.547   6.201
 4412POPC   C2B56672  32.739  39.551   6.631
 4412POPC   C3B56673  32.760  39.375   7.056
 4412POPC   C4B56674  32.711  39.271   7.530
 4413POPC   NC356675   7.643  23.481   5.290
 4413POPC   PO456676   7.182  23.997   5.500
 4413POPC   GL156677   7.406  23.833   5.824
 4413POPC   GL256678   7.407  23.469   5.766
 4413POPC   C1A56679   7.365  23.938   6.244
 4413POPC   D2A56680   7.115  23.823   6.581
 4413POPC   C3A56681   7.314  23.650   6.921
 4413POPC   C4A56682   7.347  24.015   7.220
 4413POPC   C1B56683   7.591  23.475   6.196
 4413POPC   C2B56684   7.754  23.343   6.592
 4413POPC   C3B56685   7.838  23.422   7.001
 4413POPC   C4B56686   7.637  23.617   7.317
 4414POPC   NC356687  43.376   4.175   5.681
 4414POPC   PO456688  42.853   4.536   5.470
 4414POPC   GL156689  42.865   4.197   5.768
 4414POPC   GL256690  42.652   4.358   5.983
 4414POPC   C1A56691  42.976   3.971   6.146
 4414POPC   D2A56692  43.018   4.180   6.507
 4414POPC   C3A56693  43.098   4.035   6.900
 4414POPC   C4A56694  43.040   4.109   7.337
 4414POPC   C1B56695  42.989   4.598   6.168
 4414POPC   C2B56696  43.025   4.664   6.603
 4414POPC   C3B56697  42.870   4.493   6.970
 4414POPC   C4B56698  43.133   4.612   7.297
 4415POPC   NC356699  38.906  15.298   5.506
 4415POPC   PO456700  38.253  15.191   5.550
 4415POPC   GL156701  38.559  15.195   5.879
 4415POPC   GL256702  38.732  14.880   5.886
 4415POPC   C1A56703  38.514  15.084   6.318
 4415POPC   D2A56704  38.177  15.123   6.597
 4415POPC   C3A56705  38.356  15.269   6.954
 4415POPC   C4A56706  38.708  15.479   7.083
 4415POPC   C1B56707  38.828  14.676   6.300
 4415POPC   C2B56708  38.723  14.755   6.746
 4415POPC   C3B56709  38.625  14.893   7.182
 4415POPC   C4B56710  38.555  14.791   7.642
 4416POPC   NC356711  39.140  37.284   5.243
 4416POPC   PO456712  39.525  36.792   5.147
 4416POPC   GL156713  39.442  36.853   5.630
 4416POPC   GL256714  39.180  37.132   5.748
 4416POPC   C1A56715  39.544  36.878   6.096
 4416POPC   D2A56716  39.372  37.052   6.485
 4416POPC   C3A56717  39.435  36.867   6.894
 4416POPC   C4A56718  39.258  36.944   7.300
 4416POPC   C1B56719  39.027  36.840   6.085
 4416POPC   C2B56720  38.886  36.895   6.499
 4416POPC   C3B56721  38.887  37.043   6.901
 4416POPC   C4B56722  38.837  36.665   7.147
 4417POPC   NC356723  32.849  30.149   5.362
 4417POPC   PO456724  33.190  29.631   5.548
 4417POPC   GL156725  32.851  29.891   5.828
 4417POPC   GL256726  32.806  30.288   5.869
 4417POPC   C1A56727  32.810  29.924   6.296
 4417POPC   D2A56728  33.010  29.647   6.619
 4417POPC   C3A56729  32.976  29.695   7.096
 4417POPC   C4A56730  33.078  29.707   7.527
 4417POPC   C1B56731  33.220  30.172   6.058
 4417POPC   C2B56732  33.387  30.099   6.474
 4417POPC   C3B56733  33.190  30.086   6.873
 4417POPC   C4B56734  33.270  30.117   7.302
 4418POPC   NC356735   2.888   5.842   5.148
 4418POPC   PO456736   2.465   6.176   5.540
 4418POPC   GL156737   2.684   5.882   5.784
 4418POPC   GL256738   2.926   6.048   5.925
 4418POPC   C1A56739   2.623   5.659   6.176
 4418POPC   D2A56740   2.428   5.685   6.587
 4418POPC   C3A56741   2.590   5.618   7.024
 4418POPC   C4A56742   2.836   5.669   7.396
 4418POPC   C1B56743   3.111   5.797   6.199
 4418POPC   C2B56744   2.980   5.645   6.603
 4418POPC   C3B56745   3.069   5.848   6.969
 4418POPC   C4B56746   3.333   5.829   7.314
 4419POPC   NC356747  42.795   1.733   5.043
 4419POPC   PO456748  43.263   2.096   5.434
 4419POPC   GL156749  43.103   2.135   5.834
 4419POPC   GL256750  43.394   2.332   5.897
 4419POPC   C1A56751  42.895   2.048   6.236
 4419POPC   D2A56752  43.123   2.091   6.651
 4419POPC   C3A56753  42.938   1.977   7.025
 4419POPC   C4A56754  42.619   2.128   7.285
 4419POPC   C1B56755  43.439   2.094   6.248
 4419POPC   C2B56756  43.637   2.061   6.653
 4419POPC   C3B56757  43.588   2.028   7.085
 4419POPC   C4B56758  43.538   1.631   7.296
 4420POPC   NC356759  42.859  26.370   5.482
 4420POPC   PO456760  42.976  25.664   5.441
 4420POPC   GL156761  42.864  25.820   5.862
 4420POPC   GL256762  43.085  26.081   5.834
 4420POPC   C1A56763  43.055  25.835   6.303
 4420POPC   D2A56764  43.427  26.052   6.537
 4420POPC   C3A56765  43.298  26.134   6.960
 4420POPC   C4A56766  42.933  25.875   7.082
 4420POPC   C1B56767  42.880  26.299   6.161
 4420POPC   C2B56768  43.036  26.409   6.580
 4420POPC   C3B56769  42.840  26.386   6.994
 4420POPC   C4B56770  42.796  26.491   7.422
 4421POPC   NC356771  33.567  40.766   5.327
 4421POPC   PO456772  33.518  41.417   5.437
 4421POPC   GL156773  33.738  41.103   5.720
 4421POPC   GL256774  33.509  40.821   5.843
 4421POPC   C1A56775  33.799  41.085   6.183
 4421POPC   D2A56776  33.632  40.825   6.562
 4421POPC   C3A56777  33.938  40.859   6.952
 4421POPC   C4A56778  34.074  41.167   7.296
 4421POPC   C1B56779  33.458  40.453   6.140
 4421POPC   C2B56780  33.431  40.287   6.582
 4421POPC   C3B56781  33.541  40.487   7.000
 4421POPC   C4B56782  33.940  40.435   7.268
 4422POPC   NC356783   4.513  39.746   5.444
 4422POPC   PO456784   4.197  40.320   5.281
 4422POPC   GL156785   4.257  40.121   5.754
 4422POPC   GL256786   4.637  40.077   5.837
 4422POPC   C1A56787   4.308  40.139   6.242
 4422POPC   D2A56788   4.052  39.867   6.534
 4422POPC   C3A56789   4.213  39.883   6.937
 4422POPC   C4A56790   4.154  40.033   7.330
 4422POPC   C1B56791   4.539  39.702   6.121
 4422POPC   C2B56792   4.502  39.597   6.565
 4422POPC   C3B56793   4.513  39.436   6.969
 4422POPC   C4B56794   4.573  39.713   7.293
 4423POPC   NC356795  19.644   5.369   5.342
 4423POPC   PO456796  19.919   4.775   5.432
 4423POPC   GL156797  20.116   5.021   5.791
 4423POPC   GL256798  20.157   5.372   5.706
 4423POPC   C1A56799  19.895   5.044   6.208
 4423POPC   D2A56800  19.693   5.244   6.591
 4423POPC   C3A56801  19.768   5.100   7.007
 4423POPC   C4A56802  19.530   5.228   7.349
 4423POPC   C1B56803  20.271   5.404   6.162
 4423POPC   C2B56804  20.228   5.206   6.582
 4423POPC   C3B56805  20.271   5.266   7.033
 4423POPC   C4B56806  20.092   5.057   7.433
 4424POPC   NC356807  40.976   3.248   5.257
 4424POPC   PO456808  41.274   3.790   5.179
 4424POPC   GL156809  40.969   3.560   5.642
 4424POPC   GL256810  40.814   3.809   5.873
 4424POPC   C1A56811  40.742   3.352   6.061
 4424POPC   D2A56812  40.575   3.529   6.484
 4424POPC   C3A56813  40.669   3.335   6.905
 4424POPC   C4A56814  40.789   3.486   7.319
 4424POPC   C1B56815  41.032   3.856   6.276
 4424POPC   C2B56816  41.287   3.745   6.613
 4424POPC   C3B56817  41.074   3.764   6.993
 4424POPC   C4B56818  41.221   3.809   7.396
 4425POPC   NC356819  27.794  27.100   5.418
 4425POPC   PO456820  27.429  26.471   5.373
 4425POPC   GL156821  27.581  26.701   5.735
 4425POPC   GL256822  27.511  26.397   5.930
 4425POPC   C1A56823  27.713  26.804   6.166
 4425POPC   D2A56824  27.580  26.788   6.607
 4425POPC   C3A56825  27.826  26.901   7.000
 4425POPC   C4A56826  27.549  27.025   7.327
 4425POPC   C1B56827  27.260  26.442   6.317
 4425POPC   C2B56828  27.192  26.492   6.771
 4425POPC   C3B56829  27.516  26.520   7.095
 4425POPC   C4B56830  27.613  26.596   7.566
 4426POPC   NC356831   7.147  21.286   5.202
 4426POPC   PO456832   7.696  21.607   5.361
 4426POPC   GL156833   7.601  21.547   5.804
 4426POPC   GL256834   7.649  21.206   5.818
 4426POPC   C1A56835   7.471  21.517   6.252
 4426POPC   D2A56836   7.181  21.630   6.581
 4426POPC   C3A56837   7.255  21.451   6.983
 4426POPC   C4A56838   7.455  21.655   7.314
 4426POPC   C1B56839   7.592  21.007   6.182
 4426POPC   C2B56840   7.709  21.108   6.585
 4426POPC   C3B56841   7.530  20.955   6.952
 4426POPC   C4B56842   7.487  21.134   7.336
 4427POPC   NC356843   8.497   9.562   5.095
 4427POPC   PO456844   8.884  10.107   5.365
 4427POPC   GL156845   8.792   9.959   5.771
 4427POPC   GL256846   8.931   9.628   5.815
 4427POPC   C1A56847   8.982   9.978   6.177
 4427POPC   D2A56848   9.211   9.842   6.530
 4427POPC   C3A56849   8.940   9.866   6.899
 4427POPC   C4A56850   9.000  10.001   7.321
 4427POPC   C1B56851   8.968   9.447   6.255
 4427POPC   C2B56852   9.081   9.383   6.717
 4427POPC   C3B56853   9.349   9.598   7.030
 4427POPC   C4B56854   9.254   9.609   7.480
 4428POPC   NC356855  31.118  15.377   5.789
 4428POPC   PO456856  31.709  15.173   5.404
 4428POPC   GL156857  31.631  15.285   5.796
 4428POPC   GL256858  31.451  14.970   5.833
 4428POPC   C1A56859  31.758  15.275   6.214
 4428POPC   D2A56860  31.519  15.264   6.601
 4428POPC   C3A56861  31.753  15.241   6.969
 4428POPC   C4A56862  31.601  15.217   7.360
 4428POPC   C1B56863  31.476  14.831   6.251
 4428POPC   C2B56864  31.309  14.794   6.656
 4428POPC   C3B56865  31.286  14.943   7.046
 4428POPC   C4B56866  30.904  15.021   7.245
 4429POPC   NC356867  14.615  20.052   5.420
 4429POPC   PO456868  13.961  19.998   5.192
 4429POPC   GL156869  14.242  19.868   5.703
 4429POPC   GL256870  14.310  20.129   5.938
 4429POPC   C1A56871  14.573  19.734   6.085
 4429POPC   D2A56872  14.729  19.498   6.481
 4429POPC   C3A56873  14.870  19.722   6.860
 4429POPC   C4A56874  14.733  19.655   7.286
 4429POPC   C1B56875  14.169  20.222   6.297
 4429POPC   C2B56876  14.392  19.889   6.540
 4429POPC   C3B56877  14.359  19.855   6.976
 4429POPC   C4B56878  14.205  20.146   7.289
 4430POPC   NC356879   7.413   8.687   5.503
 4430POPC   PO456880   7.691   9.294   5.465
 4430POPC   GL156881   7.567   9.092   5.831
 4430POPC   GL256882   7.265   8.928   5.931
 4430POPC   C1A56883   7.590   9.183   6.274
 4430POPC   D2A56884   7.400   8.918   6.585
 4430POPC   C3A56885   7.341   9.105   6.983
 4430POPC   C4A56886   7.530   8.900   7.301
 4430POPC   C1B56887   7.250   8.581   6.208
 4430POPC   C2B56888   7.032   8.567   6.624
 4430POPC   C3B56889   7.192   8.592   7.034
 4430POPC   C4B56890   7.031   8.878   7.362
 4431POPC   NC356891   7.724  36.972   5.178
 4431POPC   PO456892   7.258  36.468   5.243
 4431POPC   GL156893   7.473  36.619   5.659
 4431POPC   GL256894   7.478  37.006   5.725
 4431POPC   C1A56895   7.568  36.673   6.126
 4431POPC   D2A56896   7.439  36.871   6.527
 4431POPC   C3A56897   7.582  36.796   6.939
 4431POPC   C4A56898   7.417  37.023   7.236
 4431POPC   C1B56899   7.594  37.195   6.149
 4431POPC   C2B56900   7.822  37.247   6.551
 4431POPC   C3B56901   7.751  37.305   6.997
 4431POPC   C4B56902   7.931  37.013   7.287
 4432POPC   NC356903   0.848  20.804   5.506
 4432POPC   PO456904   0.382  20.424   5.237
 4432POPC   GL156905   0.452  20.535   5.677
 4432POPC   GL256906   0.546  20.274   5.915
 4432POPC   C1A56907   0.498  20.810   6.065
 4432POPC   D2A56908   0.304  20.937   6.483
 4432POPC   C3A56909   0.445  20.886   6.915
 4432POPC   C4A56910   0.561  20.630   7.257
 4432POPC   C1B56911   0.533  20.397   6.369
 4432POPC   C2B56912   0.413  20.337   6.812
 4432POPC   C3B56913   0.620  20.127   7.182
 4432POPC   C4B56914   0.786  20.272   7.575
 4433POPC   NC356915  15.960  31.955   5.739
 4433POPC   PO456916  15.642  32.503   5.493
 4433POPC   GL156917  15.764  32.394   5.936
 4433POPC   GL256918  16.115  32.451   5.868
 4433POPC   C1A56919  15.786  32.110   6.358
 4433POPC   D2A56920  16.077  31.925   6.703
 4433POPC   C3A56921  15.993  32.138   7.104
 4433POPC   C4A56922  15.846  32.590   7.094
 4433POPC   C1B56923  16.266  32.323   6.285
 4433POPC   C2B56924  16.133  32.438   6.695
 4433POPC   C3B56925  16.347  32.547   7.082
 4433POPC   C4B56926  16.176  32.476   7.495
 4434POPC   NC356927  41.729  15.790   5.495
 4434POPC   PO456928  41.409  16.472   5.421
 4434POPC   GL156929  41.532  16.191   5.760
 4434POPC   GL256930  41.865  16.132   5.843
 4434POPC   C1A56931  41.499  15.943   6.154
 4434POPC   D2A56932  41.325  15.694   6.492
 4434POPC   C3A56933  41.248  15.887   6.908
 4434POPC   C4A56934  41.410  15.714   7.278
 4434POPC   C1B56935  41.973  16.101   6.272
 4434POPC   C2B56936  41.753  15.970   6.707
 4434POPC   C3B56937  41.782  16.016   7.163
 4434POPC   C4B56938  41.774  16.232   7.584
 4435POPC   NC356939  22.427  11.877   5.518
 4435POPC   PO456940  21.772  12.180   5.618
 4435POPC   GL156941  22.091  12.093   5.891
 4435POPC   GL256942  22.107  11.752   5.916
 4435POPC   C1A56943  22.063  12.284   6.291
 4435POPC   D2A56944  22.058  12.137   6.686
 4435POPC   C3A56945  21.974  12.409   6.998
 4435POPC   C4A56946  22.042  12.257   7.385
 4435POPC   C1B56947  22.164  11.747   6.358
 4435POPC   C2B56948  22.437  11.783   6.730
 4435POPC   C3B56949  22.212  11.824   7.131
 4435POPC   C4B56950  22.284  11.878   7.611
 4436POPC   NC356951   5.260  34.047   5.401
 4436POPC   PO456952   4.751  33.562   5.508
 4436POPC   GL156953   5.002  33.833   5.780
 4436POPC   GL256954   5.316  33.743   5.833
 4436POPC   C1A56955   5.014  34.059   6.133
 4436POPC   D2A56956   4.931  33.924   6.531
 4436POPC   C3A56957   5.099  33.843   6.911
 4436POPC   C4A56958   4.869  33.713   7.271
 4436POPC   C1B56959   5.444  33.836   6.276
 4436POPC   C2B56960   5.646  33.842   6.678
 4436POPC   C3B56961   5.550  34.028   7.073
 4436POPC   C4B56962   5.381  33.701   7.334
 4437POPC   NC356963  16.628  27.068   5.452
 4437POPC   PO456964  17.211  26.832   5.451
 4437POPC   GL156965  16.932  26.783   5.813
 4437POPC   GL256966  16.949  27.104   5.905
 4437POPC   C1A56967  16.629  26.641   6.192
 4437POPC   D2A56968  16.614  26.500   6.663
 4437POPC   C3A56969  16.472  26.767   7.031
 4437POPC   C4A56970  16.527  26.828   7.480
 4437POPC   C1B56971  17.064  26.862   6.313
 4437POPC   C2B56972  17.093  26.791   6.755
 4437POPC   C3B56973  16.909  27.038   7.114
 4437POPC   C4B56974  16.669  27.312   7.405
 4438POPC   NC356975  14.247  17.410   5.267
 4438POPC   PO456976  14.621  17.937   5.537
 4438POPC   GL156977  14.365  17.596   5.751
 4438POPC   GL256978  14.434  17.242   5.735
 4438POPC   C1A56979  14.226  17.439   6.167
 4438POPC   D2A56980  14.229  17.611   6.561
 4438POPC   C3A56981  14.152  17.472   6.953
 4438POPC   C4A56982  14.010  17.566   7.361
 4438POPC   C1B56983  14.565  17.059   6.156
 4438POPC   C2B56984  14.591  17.242   6.574
 4438POPC   C3B56985  14.519  17.126   6.961
 4438POPC   C4B56986  14.494  17.359   7.364
 4439POPC   NC356987   3.350   0.580   5.188
 4439POPC   PO456988   3.578   0.823   5.723
 4439POPC   GL156989   3.601   0.407   5.897
 4439POPC   GL256990   3.655   0.057   5.788
 4439POPC   C1A56991   3.319   0.199   6.201
 4439POPC   D2A56992   3.330   0.251   6.653
 4439POPC   C3A56993   3.592   0.555   6.849
 4439POPC   C4A56994   3.568   0.759   7.228
 4439POPC   C1B56995   3.833   0.087   6.243
 4439POPC   C2B56996   3.828   0.104   6.731
 4439POPC   C3B56997   3.687   0.148   7.195
 4439POPC   C4B56998   3.786   0.075   7.658
 4440POPC   NC356999   7.472  28.748   5.463
 4440POPC   PO457000   7.003  28.356   5.578
 4440POPC   GL157001   7.317  28.453   5.877
 4440POPC   GL257002   7.390  28.142   5.931
 4440POPC   C1A57003   7.478  28.505   6.323
 4440POPC   D2A57004   7.688  28.641   6.761
 4440POPC   C3A57005   7.386  28.601   7.133
 4440POPC   C4A57006   7.330  28.803   7.596
 4440POPC   C1B57007   7.619  27.959   6.230
 4440POPC   C2B57008   7.675  28.142   6.620
 4440POPC   C3B57009   7.770  28.125   7.021
 4440POPC   C4B57010   7.562  28.121   7.362
 4441POPC   NC357011   3.186  34.343   5.101
 4441POPC   PO457012   3.337  34.722   5.628
 4441POPC   GL157013   2.945  34.488   5.853
 4441POPC   GL257014   2.596  34.380   5.752
 4441POPC   C1A57015   2.937  34.455   6.294
 4441POPC   D2A57016   3.037  34.731   6.626
 4441POPC   C3A57017   2.805  34.853   6.990
 4441POPC   C4A57018   2.965  34.638   7.318
 4441POPC   C1B57019   2.431  34.396   6.189
 4441POPC   C2B57020   2.544  34.547   6.622
 4441POPC   C3B57021   2.787  34.347   6.934
 4441POPC   C4B57022   2.692  34.230   7.373
 4442POPC   NC357023  43.020   3.243   5.485
 4442POPC   PO457024  43.171   3.902   5.374
 4442POPC   GL157025  43.051   3.699   5.717
 4442POPC   GL257026  42.697   3.700   5.704
 4442POPC   C1A57027  43.254   3.536   6.077
 4442POPC   D2A57028  43.367   3.772   6.436
 4442POPC   C3A57029  43.328   3.578   6.827
 4442POPC   C4A57030  43.406   3.764   7.220
 4442POPC   C1B57031  42.745   3.474   6.112
 4442POPC   C2B57032  42.934   3.393   6.528
 4442POPC   C3B57033  42.951   3.254   6.974
 4442POPC   C4B57034  42.920   3.638   7.156
 4443POPC   NC357035  29.301  19.551   5.552
 4443POPC   PO457036  28.919  20.059   5.509
 4443POPC   GL157037  29.062  19.900   5.876
 4443POPC   GL257038  29.388  19.998   5.829
 4443POPC   C1A57039  29.172  19.879   6.317
 4443POPC   D2A57040  29.159  19.785   6.751
 4443POPC   C3A57041  29.064  20.088   7.031
 4443POPC   C4A57042  28.880  19.872   7.372
 4443POPC   C1B57043  29.611  19.695   6.158
 4443POPC   C2B57044  29.493  19.467   6.540
 4443POPC   C3B57045  29.579  19.562   6.958
 4443POPC   C4B57046  29.353  19.726   7.270
 4444POPC   NC357047   0.601  18.391   5.229
 4444POPC   PO457048   0.374  17.782   5.432
 4444POPC   GL157049   0.477  18.041   5.823
 4444POPC   GL257050   0.424  18.433   5.789
 4444POPC   C1A57051   0.592  18.166   6.251
 4444POPC   D2A57052   0.395  18.304   6.631
 4444POPC   C3A57053   0.600  18.273   7.034
 4444POPC   C4A57054   0.478  18.125   7.463
 4444POPC   C1B57055   0.644  18.674   6.147
 4444POPC   C2B57056   0.756  18.668   6.615
 4444POPC   C3B57057   0.398  18.721   6.952
 4444POPC   C4B57058   0.110  18.369   7.149
 4445POPC   NC357059  31.938  12.214   5.558
 4445POPC   PO457060  31.470  11.670   5.472
 4445POPC   GL157061  31.637  11.901   5.818
 4445POPC   GL257062  31.543  12.256   5.863
 4445POPC   C1A57063  31.475  11.932   6.254
 4445POPC   D2A57064  31.276  12.101   6.612
 4445POPC   C3A57065  31.355  11.837   6.946
 4445POPC   C4A57066  31.517  11.989   7.287
 4445POPC   C1B57067  31.875  12.406   6.174
 4445POPC   C2B57068  31.799  12.226   6.548
 4445POPC   C3B57069  31.666  12.350   6.946
 4445POPC   C4B57070  31.929  12.263   7.284
 4446POPC   NC357071  24.163  37.750   5.644
 4446POPC   PO457072  24.781  37.348   5.557
 4446POPC   GL157073  24.654  37.682   5.810
 4446POPC   GL257074  24.415  37.427   5.951
 4446POPC   C1A57075  24.591  37.828   6.235
 4446POPC   D2A57076  24.508  37.491   6.510
 4446POPC   C3A57077  24.575  37.548   6.913
 4446POPC   C4A57078  24.617  37.954   7.102
 4446POPC   C1B57079  24.104  37.336   6.263
 4446POPC   C2B57080  23.965  37.390   6.667
 4446POPC   C3B57081  24.120  37.392   7.071
 4446POPC   C4B57082  24.358  37.632   7.398
 4447POPC   NC357083  11.423  11.123   5.575
 4447POPC   PO457084  10.790  11.389   5.366
 4447POPC   GL157085  11.091  11.570   5.774
 4447POPC   GL257086  11.471  11.547   5.882
 4447POPC   C1A57087  11.158  11.644   6.250
 4447POPC   D2A57088  11.519  11.616   6.536
 4447POPC   C3A57089  11.388  11.435   6.944
 4447POPC   C4A57090  11.175  11.090   7.136
 4447POPC   C1B57091  11.507  11.203   6.228
 4447POPC   C2B57092  11.414  10.999   6.643
 4447POPC   C3B57093  11.653  11.001   7.030
 4447POPC   C4B57094  11.875  11.210   7.314
 4448POPC   NC357095  10.168  40.519   5.482
 4448POPC   PO457096   9.491  40.926   5.530
 4448POPC   GL157097   9.727  40.963   5.875
 4448POPC   GL257098   9.826  40.630   5.865
 4448POPC   C1A57099   9.794  40.923   6.311
 4448POPC   D2A57100   9.923  41.003   6.690
 4448POPC   C3A57101   9.716  40.980   7.045
 4448POPC   C4A57102   9.543  40.750   7.403
 4448POPC   C1B57103  10.161  40.580   6.158
 4448POPC   C2B57104  10.193  40.484   6.579
 4448POPC   C3B57105  10.093  40.606   6.985
 4448POPC   C4B57106  10.038  40.770   7.377
 4449POPC   NC357107  11.772  36.929   5.387
 4449POPC   PO457108  11.157  36.772   5.191
 4449POPC   GL157109  11.163  36.903   5.634
 4449POPC   GL257110  11.276  36.626   5.730
 4449POPC   C1A57111  11.276  37.055   6.052
 4449POPC   D2A57112  11.460  37.160   6.451
 4449POPC   C3A57113  11.288  37.099   6.861
 4449POPC   C4A57114  11.569  37.140   7.219
 4449POPC   C1B57115  11.042  36.593   6.097
 4449POPC   C2B57116  11.189  36.712   6.501
 4449POPC   C3B57117  11.084  36.625   6.910
 4449POPC   C4B57118  11.224  36.732   7.262
 4450POPC   NC357119  15.231   0.200   5.352
 4450POPC   PO457120  15.524   0.795   5.364
 4450POPC   GL157121  15.235   0.679   5.749
 4450POPC   GL257122  15.065   0.345   5.807
 4450POPC   C1A57123  15.011   0.740   6.173
 4450POPC   D2A57124  14.895   0.537   6.561
 4450POPC   C3A57125  15.107   0.524   6.940
 4450POPC   C4A57126  15.367   0.485   7.299
 4450POPC   C1B57127  15.330   0.326   6.170
 4450POPC   C2B57128  15.335   0.155   6.566
 4450POPC   C3B57129  15.306   0.058   6.987
 4450POPC   C4B57130  14.948   0.149   7.262
 4451POPC   NC357131   6.904   7.078   5.421
 4451POPC   PO457132   6.809   7.768   5.446
 4451POPC   GL157133   6.798   7.518   5.832
 4451POPC   GL257134   6.661   7.176   5.872
 4451POPC   C1A57135   6.868   7.684   6.247
 4451POPC   D2A57136   6.555   7.881   6.488
 4451POPC   C3A57137   6.590   7.723   6.881
 4451POPC   C4A57138   6.492   7.794   7.284
 4451POPC   C1B57139   6.342   7.032   6.172
 4451POPC   C2B57140   6.367   6.939   6.612
 4451POPC   C3B57141   6.227   7.060   7.007
 4451POPC   C4B57142   6.562   7.281   7.174
 4452POPC   NC357143  24.105  44.208   5.383
 4452POPC   PO457144  23.378  43.939   5.349
 4452POPC   GL157145  23.700  43.837   5.697
 4452POPC   GL257146  23.962  43.553   5.762
 4452POPC   C1A57147  23.696  43.928   6.143
 4452POPC   D2A57148  23.807  43.990   6.570
 4452POPC   C3A57149  23.481  43.898   6.904
 4452POPC   C4A57150  23.313  44.054   7.325
 4452POPC   C1B57151  24.086  43.631   6.215
 4452POPC   C2B57152  24.017  43.531   6.635
 4452POPC   C3B57153  23.806  43.530   6.993
 4452POPC   C4B57154  23.881  43.456   7.430
 4453POPC   NC357155  39.246   0.145   5.579
 4453POPC   PO457156  38.810   0.599   5.599
 4453POPC   GL157157  39.130   0.564   5.917
 4453POPC   GL257158  39.496   0.550   5.831
 4453POPC   C1A57159  39.081   0.527   6.361
 4453POPC   D2A57160  39.201   0.256   6.718
 4453POPC   C3A57161  38.989   0.412   7.085
 4453POPC   C4A57162  38.981   0.402   7.512
 4453POPC   C1B57163  39.560   0.460   6.250
 4453POPC   C2B57164  39.499   0.757   6.589
 4453POPC   C3B57165  39.353   0.734   6.982
 4453POPC   C4B57166  39.484   0.327   7.195
 4454POPC   NC357167  23.948   8.748   5.392
 4454POPC   PO457168  23.420   8.695   5.772
 4454POPC   GL157169  23.721   8.918   5.911
 4454POPC   GL257170  23.807   9.195   5.675
 4454POPC   C1A57171  23.712   8.833   6.355
 4454POPC   D2A57172  23.887   8.821   6.716
 4454POPC   C3A57173  23.667   8.707   7.023
 4454POPC   C4A57174  23.701   8.948   7.335
 4454POPC   C1B57175  23.878   9.376   6.093
 4454POPC   C2B57176  23.896   9.286   6.533
 4454POPC   C3B57177  23.898   9.269   7.012
 4454POPC   C4B57178  23.763   9.405   7.512
 4455POPC   NC357179   0.099  39.796   5.475
 4455POPC   PO457180   0.507  39.215   5.428
 4455POPC   GL157181   0.301  39.127   5.808
 4455POPC   GL257182   0.043  39.400   5.805
 4455POPC   C1A57183   0.419  38.939   6.212
 4455POPC   D2A57184   0.265  38.930   6.642
 4455POPC   C3A57185   0.593  38.919   6.950
 4455POPC   C4A57186   0.861  39.058   7.266
 4455POPC   C1B57187  44.972  39.238   6.225
 4455POPC   C2B57188   0.071  39.427   6.621
 4455POPC   C3B57189   0.459  39.477   6.863
 4455POPC   C4B57190   0.427  39.313   7.267
 4456POPC   NC357191  37.753  33.605   5.409
 4456POPC   PO457192  37.539  34.192   5.613
 4456POPC   GL157193  37.642  33.841   5.844
 4456POPC   GL257194  37.394  33.577   5.923
 4456POPC   C1A57195  37.975  33.670   6.103
 4456POPC   D2A57196  38.094  33.501   6.523
 4456POPC   C3A57197  37.906  33.670   6.892
 4456POPC   C4A57198  37.792  33.535   7.276
 4456POPC   C1B57199  37.531  33.840   6.332
 4456POPC   C2B57200  37.518  34.113   6.721
 4456POPC   C3B57201  37.471  34.164   7.192
 4456POPC   C4B57202  37.467  34.292   7.643
 4457POPC   NC357203  13.814  26.788   5.091
 4457POPC   PO457204  13.522  26.372   5.531
 4457POPC   GL157205  13.541  26.685   5.804
 4457POPC   GL257206  13.830  26.849   5.666
 4457POPC   C1A57207  13.343  26.786   6.193
 4457POPC   D2A57208  13.505  26.842   6.577
 4457POPC   C3A57209  13.253  26.841   6.885
 4457POPC   C4A57210  13.428  26.750   7.281
 4457POPC   C1B57211  13.957  26.767   6.094
 4457POPC   C2B57212  14.014  26.819   6.550
 4457POPC   C3B57213  13.833  26.734   6.963
 4457POPC   C4B57214  13.904  26.881   7.390
 4458POPC   NC357215  24.502  10.974   5.280
 4458POPC   PO457216  24.223  11.526   5.577
 4458POPC   GL157217  24.371  11.132   5.769
 4458POPC   GL257218  24.697  11.153   5.854
 4458POPC   C1A57219  24.394  10.978   6.215
 4458POPC   D2A57220  24.194  10.852   6.617
 4458POPC   C3A57221  24.170  11.129   7.007
 4458POPC   C4A57222  24.033  11.365   7.385
 4458POPC   C1B57223  24.849  11.254   6.251
 4458POPC   C2B57224  24.875  11.594   6.536
 4458POPC   C3B57225  24.899  11.598   6.978
 4458POPC   C4B57226  24.623  11.352   7.234
 4459POPC   NC357227   6.267   7.724   5.414
 4459POPC   PO457228   5.676   7.539   5.463
 4459POPC   GL157229   5.808   7.304   5.813
 4459POPC   GL257230   6.173   7.344   5.776
 4459POPC   C1A57231   5.843   7.495   6.213
 4459POPC   D2A57232   5.677   7.715   6.576
 4459POPC   C3A57233   5.637   7.429   6.929
 4459POPC   C4A57234   5.780   7.234   7.302
 4459POPC   C1B57235   6.365   7.535   6.147
 4459POPC   C2B57236   6.224   7.470   6.600
 4459POPC   C3B57237   6.115   7.557   7.060
 4459POPC   C4B57238   6.207   7.400   7.515
 4460POPC   NC357239  26.287   8.021   5.616
 4460POPC   PO457240  26.864   8.418   5.384
 4460POPC   GL157241  26.847   8.354   5.799
 4460POPC   GL257242  26.775   8.049   5.908
 4460POPC   C1A57243  26.795   8.579   6.171
 4460POPC   D2A57244  26.797   8.790   6.574
 4460POPC   C3A57245  26.878   8.532   6.927
 4460POPC   C4A57246  26.856   8.248   7.259
 4460POPC   C1B57247  26.953   7.969   6.344
 4460POPC   C2B57248  26.913   8.008   6.806
 4460POPC   C3B57249  27.109   7.833   7.192
 4460POPC   C4B57250  26.969   7.694   7.579
 4461POPC   NC357251  25.467   7.761   5.655
 4461POPC   PO457252  25.049   8.320   5.354
 4461POPC   GL157253  25.215   8.303   5.777
 4461POPC   GL257254  25.081   8.006   5.906
 4461POPC   C1A57255  25.405   8.238   6.216
 4461POPC   D2A57256  25.580   8.106   6.600
 4461POPC   C3A57257  25.418   8.222   7.003
 4461POPC   C4A57258  25.244   8.525   7.264
 4461POPC   C1B57259  24.888   8.150   6.285
 4461POPC   C2B57260  24.812   8.240   6.698
 4461POPC   C3B57261  24.915   8.112   7.087
 4461POPC   C4B57262  24.899   7.885   7.438
 4462POPC   NC357263  27.926  39.281   5.560
 4462POPC   PO457264  28.556  39.344   5.440
 4462POPC   GL157265  28.375  39.302   5.869
 4462POPC   GL257266  28.081  39.505   5.980
 4462POPC   C1A57267  28.430  39.141   6.297
 4462POPC   D2A57268  28.232  38.901   6.637
 4462POPC   C3A57269  28.294  39.152   6.995
 4462POPC   C4A57270  28.551  39.095   7.318
 4462POPC   C1B57271  28.218  39.598   6.379
 4462POPC   C2B57272  28.152  39.606   6.809
 4462POPC   C3B57273  28.399  39.673   7.176
 4462POPC   C4B57274  28.380  39.485   7.575
 4463POPC   NC357275  22.654  14.427   5.531
 4463POPC   PO457276  22.021  14.747   5.513
 4463POPC   GL157277  22.357  14.649   5.860
 4463POPC   GL257278  22.503  14.826   6.053
 4463POPC   C1A57279  22.848  14.495   6.148
 4463POPC   D2A57280  23.265  14.499   6.410
 4463POPC   C3A57281  23.227  14.536   6.866
 4463POPC   C4A57282  23.056  14.412   7.300
 4463POPC   C1B57283  22.375  14.418   6.286
 4463POPC   C2B57284  22.642  14.303   6.607
 4463POPC   C3B57285  22.681  14.197   7.013
 4463POPC   C4B57286  22.498  14.464   7.346
 4464POPC   NC357287  24.026   0.806   5.297
 4464POPC   PO457288  24.476   1.366   5.377
 4464POPC   GL157289  24.458   1.358   5.815
 4464POPC   GL257290  24.119   1.216   5.870
 4464POPC   C1A57291  24.585   1.443   6.215
 4464POPC   D2A57292  24.508   1.137   6.521
 4464POPC   C3A57293  24.584   1.339   6.908
 4464POPC   C4A57294  24.541   1.227   7.299
 4464POPC   C1B57295  24.020   1.144   6.320
 4464POPC   C2B57296  24.006   1.097   6.769
 4464POPC   C3B57297  24.105   1.379   7.105
 4464POPC   C4B57298  24.082   1.372   7.586
 4465POPC   NC357299   1.526  14.626   5.417
 4465POPC   PO457300   1.069  14.095   5.522
 4465POPC   GL157301   1.179  14.462   5.788
 4465POPC   GL257302   0.945  14.752   5.748
 4465POPC   C1A57303   1.387  14.448   6.208
 4465POPC   D2A57304   1.289  14.202   6.594
 4465POPC   C3A57305   1.518  14.336   6.966
 4465POPC   C4A57306   1.577  14.779   7.135
 4465POPC   C1B57307   0.968  14.769   6.212
 4465POPC   C2B57308   1.080  14.685   6.667
 4465POPC   C3B57309   1.078  14.584   7.143
 4465POPC   C4B57310   1.054  14.259   7.490
 4466POPC   NC357311  30.631  42.670   5.439
 4466POPC   PO457312  29.907  42.797   5.382
 4466POPC   GL157313  29.986  43.003   5.816
 4466POPC   GL257314  29.735  43.290   5.922
 4466POPC   C1A57315  30.011  43.038   6.302
 4466POPC   D2A57316  29.665  43.248   6.579
 4466POPC   C3A57317  29.576  43.053   6.964
 4466POPC   C4A57318  29.823  42.858   7.281
 4466POPC   C1B57319  29.941  43.551   6.277
 4466POPC   C2B57320  30.169  43.445   6.687
 4466POPC   C3B57321  30.035  43.358   7.128
 4466POPC   C4B57322  29.611  43.482   7.265
 4467POPC   NC357323  37.741  18.262   5.409
 4467POPC   PO457324  37.169  18.635   5.232
 4467POPC   GL157325  37.478  18.586   5.694
 4467POPC   GL257326  37.882  18.520   5.812
 4467POPC   C1A57327  37.516  18.311   6.103
 4467POPC   D2A57328  37.635  18.364   6.543
 4467POPC   C3A57329  37.439  18.177   6.919
 4467POPC   C4A57330  37.319  18.355   7.310
 4467POPC   C1B57331  38.013  18.302   6.202
 4467POPC   C2B57332  38.098  18.141   6.615
 4467POPC   C3B57333  37.935  18.288   6.962
 4467POPC   C4B57334  37.813  18.463   7.298
 4468POPC   NC357335  17.581   7.310   5.634
 4468POPC   PO457336  16.997   7.742   5.481
 4468POPC   GL157337  17.222   7.616   5.883
 4468POPC   GL257338  17.571   7.750   5.914
 4468POPC   C1A57339  17.298   7.496   6.336
 4468POPC   D2A57340  17.506   7.195   6.637
 4468POPC   C3A57341  17.476   7.287   7.084
 4468POPC   C4A57342  17.161   7.622   7.218
 4468POPC   C1B57343  17.809   7.542   6.238
 4468POPC   C2B57344  17.866   7.611   6.683
 4468POPC   C3B57345  17.634   7.790   7.024
 4468POPC   C4B57346  17.668   8.097   7.383
 4469POPC   NC357347  10.969  41.167   5.331
 4469POPC   PO457348  11.524  41.633   5.473
 4469POPC   GL157349  11.199  41.680   5.781
 4469POPC   GL257350  11.182  41.348   5.778
 4469POPC   C1A57351  10.982  41.711   6.162
 4469POPC   D2A57352  11.157  41.611   6.537
 4469POPC   C3A57353  11.255  41.800   6.918
 4469POPC   C4A57354  11.072  41.436   7.080
 4469POPC   C1B57355  11.483  41.473   6.137
 4469POPC   C2B57356  11.665  41.609   6.505
 4469POPC   C3B57357  11.561  41.393   6.828
 4469POPC   C4B57358  11.545  41.420   7.225
 4470POPC   NC357359  34.275  13.880   5.695
 4470POPC   PO457360  33.724  13.566   5.456
 4470POPC   GL157361  33.675  13.495   5.864
 4470POPC   GL257362  33.468  13.755   5.902
 4470POPC   C1A57363  33.884  13.582   6.276
 4470POPC   D2A57364  33.991  13.680   6.711
 4470POPC   C3A57365  33.868  13.337   6.966
 4470POPC   C4A57366  33.669  13.243   7.277
 4470POPC   C1B57367  33.676  14.030   6.187
 4470POPC   C2B57368  33.522  13.884   6.559
 4470POPC   C3B57369  33.502  13.716   6.939
 4470POPC   C4B57370  33.681  13.758   7.326
 4471POPC   NC357371  26.818  20.709   5.576
 4471POPC   PO457372  26.274  20.561   5.258
 4471POPC   GL157373  26.375  20.811   5.769
 4471POPC   GL257374  26.678  20.625   6.039
 4471POPC   C1A57375  26.432  20.970   6.262
 4471POPC   D2A57376  26.656  20.640   6.546
 4471POPC   C3A57377  26.701  20.684   6.990
 4471POPC   C4A57378  26.682  20.496   7.407
 4471POPC   C1B57379  26.972  20.273   6.182
 4471POPC   C2B57380  27.183  20.170   6.548
 4471POPC   C3B57381  27.003  20.255   6.920
 4471POPC   C4B57382  27.137  20.500   7.219
 4472POPC   NC357383  30.076  16.253   5.450
 4472POPC   PO457384  30.179  16.959   5.345
 4472POPC   GL157385  29.912  16.770   5.681
 4472POPC   GL257386  30.051  16.504   5.885
 4472POPC   C1A57387  29.776  16.856   6.121
 4472POPC   D2A57388  29.889  16.742   6.538
 4472POPC   C3A57389  30.037  17.045   6.837
 4472POPC   C4A57390  29.811  16.993   7.216
 4472POPC   C1B57391  30.112  16.347   6.294
 4472POPC   C2B57392  30.198  16.353   6.713
 4472POPC   C3B57393  30.040  16.558   7.046
 4472POPC   C4B57394  29.857  16.483   7.420
 4473POPC   NC357395  29.251   0.388   5.455
 4473POPC   PO457396  28.615   0.678   5.425
 4473POPC   GL157397  28.923   0.613   5.817
 4473POPC   GL257398  29.193   0.350   5.950
 4473POPC   C1A57399  29.011   0.703   6.264
 4473POPC   D2A57400  29.198   0.390   6.538
 4473POPC   C3A57401  29.236   0.461   6.960
 4473POPC   C4A57402  28.946   0.559   7.261
 4473POPC   C1B57403  29.500   0.140   6.205
 4473POPC   C2B57404  29.690   0.208   6.620
 4473POPC   C3B57405  29.557   0.034   6.996
 4473POPC   C4B57406  29.194   0.010   7.196
 4474POPC   NC357407  38.855   1.065   5.579
 4474POPC   PO457408  39.315   1.523   5.329
 4474POPC   GL157409  39.302   1.368   5.743
 4474POPC   GL257410  39.389   1.030   5.678
 4474POPC   C1A57411  39.099   1.414   6.151
 4474POPC   D2A57412  38.932   1.488   6.564
 4474POPC   C3A57413  38.963   1.279   6.939
 4474POPC   C4A57414  39.046   1.262   7.353
 4474POPC   C1B57415  39.368   0.981   6.134
 4474POPC   C2B57416  39.497   1.276   6.488
 4474POPC   C3B57417  39.479   1.400   6.935
 4474POPC   C4B57418  39.530   1.157   7.266
 4475POPC   NC357419  41.561  16.893   5.301
 4475POPC   PO457420  41.857  16.225   5.281
 4475POPC   GL157421  41.822  16.607   5.670
 4475POPC   GL257422  41.522  16.832   5.800
 4475POPC   C1A57423  41.664  16.511   6.141
 4475POPC   D2A57424  41.781  16.450   6.571
 4475POPC   C3A57425  41.766  16.498   7.006
 4475POPC   C4A57426  41.389  16.676   7.120
 4475POPC   C1B57427  41.536  17.029   6.226
 4475POPC   C2B57428  41.515  16.890   6.652
 4475POPC   C3B57429  41.763  17.003   7.009
 4475POPC   C4B57430  41.585  17.110   7.382
 4476POPC   NC357431  27.480  29.725   5.458
 4476POPC   PO457432  27.133  30.317   5.393
 4476POPC   GL157433  27.301  30.087   5.790
 4476POPC   GL257434  27.691  30.042   5.832
 4476POPC   C1A57435  27.271  29.810   6.185
 4476POPC   D2A57436  27.059  29.673   6.576
 4476POPC   C3A57437  27.283  29.871   6.922
 4476POPC   C4A57438  27.697  29.800   7.055
 4476POPC   C1B57439  27.722  30.193   6.279
 4476POPC   C2B57440  27.695  30.212   6.738
 4476POPC   C3B57441  27.785  30.368   7.149
 4476POPC   C4B57442  27.615  30.657   7.442
 4477POPC   NC357443  12.774  32.229   5.314
 4477POPC   PO457444  13.154  32.703   5.633
 4477POPC   GL157445  12.837  32.442   5.849
 4477POPC   GL257446  12.687  32.116   5.827
 4477POPC   C1A57447  12.814  32.423   6.312
 4477POPC   D2A57448  12.858  32.756   6.660
 4477POPC   C3A57449  12.910  32.586   7.076
 4477POPC   C4A57450  12.970  32.175   7.123
 4477POPC   C1B57451  12.845  31.884   6.193
 4477POPC   C2B57452  12.958  31.938   6.637
 4477POPC   C3B57453  12.958  31.698   7.020
 4477POPC   C4B57454  12.579  31.785   7.224
 4478POPC   NC357455  31.055   9.880   5.068
 4478POPC   PO457456  30.454   9.644   5.242
 4478POPC   GL157457  30.482   9.678   5.724
 4478POPC   GL257458  30.730   9.446   5.826
 4478POPC   C1A57459  30.600   9.770   6.181
 4478POPC   D2A57460  30.829   9.881   6.555
 4478POPC   C3A57461  30.595   9.787   6.919
 4478POPC   C4A57462  30.743   9.759   7.326
 4478POPC   C1B57463  31.028   9.479   6.197
 4478POPC   C2B57464  31.220   9.519   6.607
 4478POPC   C3B57465  31.036   9.502   7.010
 4478POPC   C4B57466  31.077   9.308   7.427
 4479POPC   NC357467   4.874  26.614   5.371
 4479POPC   PO457468   5.271  27.099   5.483
 4479POPC   GL157469   5.315  26.709   5.713
 4479POPC   GL257470   4.990  26.731   5.864
 4479POPC   C1A57471   5.395  26.586   6.162
 4479POPC   D2A57472   5.337  26.739   6.598
 4479POPC   C3A57473   5.340  26.556   7.021
 4479POPC   C4A57474   5.088  26.615   7.447
 4479POPC   C1B57475   4.935  26.798   6.304
 4479POPC   C2B57476   4.852  26.733   6.747
 4479POPC   C3B57477   5.022  26.957   7.093
 4479POPC   C4B57478   4.875  27.052   7.579
 4480POPC   NC357479  18.755   0.623   5.436
 4480POPC   PO457480  19.275   0.262   5.235
 4480POPC   GL157481  19.128   0.330   5.710
 4480POPC   GL257482  18.970   0.037   5.918
 4480POPC   C1A57483  19.161   0.447   6.169
 4480POPC   D2A57484  18.977   0.271   6.545
 4480POPC   C3A57485  18.958   0.529   6.921
 4480POPC   C4A57486  18.995   0.371   7.340
 4480POPC   C1B57487  19.310  44.953   6.237
 4480POPC   C2B57488  19.416   0.003   6.665
 4480POPC   C3B57489  19.175  44.994   7.021
 4480POPC   C4B57490  19.383   0.066   7.446
 4481POPC   NC357491  42.098  27.875   5.171
 4481POPC   PO457492  42.577  27.447   5.351
 4481POPC   GL157493  42.398  27.430   5.785
 4481POPC   GL257494  42.098  27.613   5.747
 4481POPC   C1A57495  42.344  27.645   6.206
 4481POPC   D2A57496  42.474  27.543   6.602
 4481POPC   C3A57497  42.310  27.703   6.946
 4481POPC   C4A57498  42.308  27.891   7.351
 4481POPC   C1B57499  41.917  27.399   6.122
 4481POPC   C2B57500  41.948  27.501   6.557
 4481POPC   C3B57501  41.938  27.296   6.944
 4481POPC   C4B57502  42.129  27.415   7.324
 4482POPC   NC357503   9.861  32.042   5.579
 4482POPC   PO457504   9.518  31.408   5.331
 4482POPC   GL157505   9.811  31.535   5.748
 4482POPC   GL257506   9.998  31.797   5.983
 4482POPC   C1A57507   9.876  31.343   6.187
 4482POPC   D2A57508   9.556  31.308   6.530
 4482POPC   C3A57509   9.556  31.503   6.926
 4482POPC   C4A57510   9.857  31.460   7.221
 4482POPC   C1B57511   9.760  31.795   6.381
 4482POPC   C2B57512  10.013  31.619   6.718
 4482POPC   C3B57513  10.216  31.809   7.074
 4482POPC   C4B57514  10.193  31.707   7.530
 4483POPC   NC357515  44.122  44.122   5.504
 4483POPC   PO457516  43.931  43.476   5.615
 4483POPC   GL157517  43.992  43.785   5.896
 4483POPC   GL257518  43.744  44.007   5.837
 4483POPC   C1A57519  44.097  43.976   6.277
 4483POPC   D2A57520  43.994  43.709   6.627
 4483POPC   C3A57521  44.100  43.894   6.992
 4483POPC   C4A57522  43.972  44.002   7.400
 4483POPC   C1B57523  43.598  44.121   6.224
 4483POPC   C2B57524  43.767  44.188   6.619
 4483POPC   C3B57525  43.604  44.060   6.977
 4483POPC   C4B57526  43.498  44.163   7.363
 4484POPC   NC357527  24.732  14.954   5.239
 4484POPC   PO457528  24.146  15.285   5.396
 4484POPC   GL157529  24.350  15.322   5.781
 4484POPC   GL257530  24.399  14.982   5.776
 4484POPC   C1A57531  24.571  15.447   6.146
 4484POPC   D2A57532  24.398  15.517   6.576
 4484POPC   C3A57533  24.665  15.372   6.910
 4484POPC   C4A57534  24.863  15.343   7.322
 4484POPC   C1B57535  24.287  15.038   6.250
 4484POPC   C2B57536  24.324  14.887   6.695
 4484POPC   C3B57537  24.503  14.918   7.130
 4484POPC   C4B57538  24.296  14.903   7.507
 4485POPC   NC357539  20.910  14.756   5.400
 4485POPC   PO457540  20.747  14.040   5.592
 4485POPC   GL157541  20.508  14.261   5.850
 4485POPC   GL257542  20.744  14.544   5.839
 4485POPC   C1A57543  20.331  14.089   6.233
 4485POPC   D2A57544  20.549  14.200   6.597
 4485POPC   C3A57545  20.473  14.288   6.993
 4485POPC   C4A57546  20.784  14.204   7.296
 4485POPC   C1B57547  20.544  14.581   6.238
 4485POPC   C2B57548  20.348  14.785   6.570
 4485POPC   C3B57549  20.239  14.741   6.991
 4485POPC   C4B57550  20.486  14.628   7.388
 4486POPC   NC357551  12.057   2.272   5.392
 4486POPC   PO457552  11.979   1.652   5.340
 4486POPC   GL157553  12.062   1.851   5.752
 4486POPC   GL257554  12.151   2.208   5.890
 4486POPC   C1A57555  12.124   1.784   6.192
 4486POPC   D2A57556  12.244   2.138   6.458
 4486POPC   C3A57557  12.419   2.108   6.879
 4486POPC   C4A57558  12.330   2.089   7.320
 4486POPC   C1B57559  11.797   2.189   6.181
 4486POPC   C2B57560  11.723   2.141   6.615
 4486POPC   C3B57561  11.909   2.225   7.018
 4486POPC   C4B57562  11.891   1.849   7.290
 4487POPC   NC357563  44.145  41.044   5.524
 4487POPC   PO457564  44.818  40.956   5.458
 4487POPC   GL157565  44.797  40.711   5.837
 4487POPC   GL257566  44.485  40.736   5.991
 4487POPC   C1A57567  44.898  40.447   6.179
 4487POPC   D2A57568   0.078  40.601   6.582
 4487POPC   C3A57569  44.747  40.618   6.898
 4487POPC   C4A57570  44.563  40.404   7.222
 4487POPC   C1B57571  44.561  40.757   6.431
 4487POPC   C2B57572  44.412  40.983   6.790
 4487POPC   C3B57573  44.690  41.218   7.081
 4487POPC   C4B57574  44.842  41.167   7.525
 4488POPC   NC357575  24.963  17.935   5.540
 4488POPC   PO457576  25.284  17.343   5.391
 4488POPC   GL157577  25.162  17.504   5.768
 4488POPC   GL257578  25.402  17.770   5.765
 4488POPC   C1A57579  25.286  17.468   6.199
 4488POPC   D2A57580  25.116  17.628   6.590
 4488POPC   C3A57581  25.293  17.437   6.936
 4488POPC   C4A57582  24.992  17.260   7.169
 4488POPC   C1B57583  25.362  17.970   6.165
 4488POPC   C2B57584  25.571  17.829   6.547
 4488POPC   C3B57585  25.457  17.930   6.921
 4488POPC   C4B57586  25.455  18.114   7.299
 4489POPC   NC357587  19.732  25.795   5.335
 4489POPC   PO457588  19.882  25.138   5.490
 4489POPC   GL157589  19.795  25.253   5.894
 4489POPC   GL257590  20.153  25.331   5.900
 4489POPC   C1A57591  19.631  25.208   6.312
 4489POPC   D2A57592  19.565  24.905   6.608
 4489POPC   C3A57593  19.572  25.083   6.987
 4489POPC   C4A57594  19.804  24.912   7.278
 4489POPC   C1B57595  20.172  25.130   6.288
 4489POPC   C2B57596  19.995  25.213   6.673
 4489POPC   C3B57597  20.016  25.359   7.060
 4489POPC   C4B57598  20.165  25.211   7.441
 4490POPC   NC357599  32.373  31.389   5.672
 4490POPC   PO457600  31.775  31.697   5.584
 4490POPC   GL157601  31.994  31.530   5.935
 4490POPC   GL257602  31.891  31.241   5.881
 4490POPC   C1A57603  32.229  31.356   6.311
 4490POPC   D2A57604  32.161  31.493   6.722
 4490POPC   C3A57605  32.446  31.521   7.079
 4490POPC   C4A57606  32.510  31.568   7.521
 4490POPC   C1B57607  31.724  31.302   6.295
 4490POPC   C2B57608  31.800  31.107   6.679
 4490POPC   C3B57609  31.784  31.371   7.036
 4490POPC   C4B57610  32.037  31.393   7.392
 4491POPC   NC357611  29.070  35.714   5.579
 4491POPC   PO457612  29.191  36.438   5.308
 4491POPC   GL157613  29.272  36.199   5.686
 4491POPC   GL257614  28.965  36.127   5.864
 4491POPC   C1A57615  29.384  36.275   6.140
 4491POPC   D2A57616  29.442  36.039   6.534
 4491POPC   C3A57617  29.286  36.248   6.914
 4491POPC   C4A57618  29.480  36.216   7.320
 4491POPC   C1B57619  28.966  36.015   6.319
 4491POPC   C2B57620  29.011  35.822   6.741
 4491POPC   C3B57621  28.929  35.801   7.194
 4491POPC   C4B57622  28.885  35.963   7.627
 4492POPC   NC357623  16.772  20.195   5.319
 4492POPC   PO457624  16.560  19.581   5.531
 4492POPC   GL157625  16.856  19.741   5.832
 4492POPC   GL257626  16.581  19.709   6.060
 4492POPC   C1A57627  17.027  19.821   6.267
 4492POPC   D2A57628  16.821  19.941   6.672
 4492POPC   C3A57629  16.844  19.782   7.085
 4492POPC   C4A57630  16.518  19.569   7.280
 4492POPC   C1B57631  16.265  19.927   6.301
 4492POPC   C2B57632  16.359  20.167   6.641
 4492POPC   C3B57633  16.365  20.020   7.031
 4492POPC   C4B57634  16.435  20.080   7.441
 4493POPC   NC357635  12.005  28.861   5.478
 4493POPC   PO457636  12.360  29.437   5.517
 4493POPC   GL157637  12.196  29.204   5.901
 4493POPC   GL257638  12.242  28.820   5.913
 4493POPC   C1A57639  12.196  29.186   6.365
 4493POPC   D2A57640  12.285  29.286   6.785
 4493POPC   C3A57641  11.939  29.185   7.037
 4493POPC   C4A57642  11.954  29.241   7.467
 4493POPC   C1B57643  12.005  28.715   6.257
 4493POPC   C2B57644  12.079  28.767   6.696
 4493POPC   C3B57645  12.238  28.792   7.107
 4493POPC   C4B57646  12.145  28.788   7.571
 4494POPC   NC357647   8.791  43.095   5.498
 4494POPC   PO457648   9.338  43.374   5.615
 4494POPC   GL157649   9.034  43.185   5.935
 4494POPC   GL257650   8.639  42.977   5.948
 4494POPC   C1A57651   9.203  43.185   6.329
 4494POPC   D2A57652   9.370  43.318   6.705
 4494POPC   C3A57653   9.169  43.132   7.076
 4494POPC   C4A57654   9.127  43.407   7.417
 4494POPC   C1B57655   8.689  43.210   6.308
 4494POPC   C2B57656   8.842  43.269   6.703
 4494POPC   C3B57657   8.673  43.405   7.054
 4494POPC   C4B57658   8.454  43.034   7.122
 4495POPC   NC357659   7.578   2.370   5.481
 4495POPC   PO457660   7.234   1.802   5.299
 4495POPC   GL157661   7.462   1.922   5.743
 4495POPC   GL257662   7.426   2.248   5.932
 4495POPC   C1A57663   7.401   1.851   6.218
 4495POPC   D2A57664   7.672   1.815   6.578
 4495POPC   C3A57665   7.492   1.866   6.990
 4495POPC   C4A57666   7.253   1.883   7.362
 4495POPC   C1B57667   7.550   2.552   6.191
 4495POPC   C2B57668   7.622   2.432   6.588
 4495POPC   C3B57669   7.613   2.544   6.989
 4495POPC   C4B57670   7.596   2.285   7.332
 4496POPC   NC357671  11.183  41.971   5.386
 4496POPC   PO457672  11.173  42.615   5.402
 4496POPC   GL157673  11.314  42.444   5.791
 4496POPC   GL257674  11.603  42.616   5.851
 4496POPC   C1A57675  11.167  42.167   6.145
 4496POPC   D2A57676  10.996  42.109   6.585
 4496POPC   C3A57677  11.159  42.321   6.950
 4496POPC   C4A57678  11.349  42.303   7.356
 4496POPC   C1B57679  11.466  42.541   6.272
 4496POPC   C2B57680  11.513  42.653   6.684
 4496POPC   C3B57681  11.401  42.771   7.075
 4496POPC   C4B57682  11.718  42.661   7.358
 4497POPC   NC357683  23.735  42.695   5.473
 4497POPC   PO457684  23.856  42.089   5.378
 4497POPC   GL157685  23.559  42.209   5.732
 4497POPC   GL257686  23.469  42.527   5.851
 4497POPC   C1A57687  23.536  42.124   6.179
 4497POPC   D2A57688  23.824  42.190   6.513
 4497POPC   C3A57689  23.691  42.151   6.929
 4497POPC   C4A57690  23.928  42.301   7.277
 4497POPC   C1B57691  23.667  42.689   6.206
 4497POPC   C2B57692  23.532  42.615   6.618
 4497POPC   C3B57693  23.707  42.656   7.007
 4497POPC   C4B57694  23.592  42.630   7.451
 4498POPC   NC357695  42.058  41.169   5.460
 4498POPC   PO457696  42.729  41.400   5.502
 4498POPC   GL157697  42.330  41.493   5.784
 4498POPC   GL257698  42.594  41.512   5.993
 4498POPC   C1A57699  42.199  41.725   6.209
 4498POPC   D2A57700  42.536  41.842   6.529
 4498POPC   C3A57701  42.468  41.623   6.901
 4498POPC   C4A57702  42.194  41.666   7.227
 4498POPC   C1B57703  42.324  41.229   6.211
 4498POPC   C2B57704  42.315  41.196   6.615
 4498POPC   C3B57705  42.198  41.188   7.003
 4498POPC   C4B57706  42.428  41.193   7.355
 4499POPC   NC357707  10.029   4.467   5.625
 4499POPC   PO457708   9.512   4.108   5.413
 4499POPC   GL157709   9.636   4.208   5.834
 4499POPC   GL257710   9.471   3.948   6.031
 4499POPC   C1A57711   9.733   4.534   6.173
 4499POPC   D2A57712   9.939   4.559   6.527
 4499POPC   C3A57713   9.851   4.723   6.920
 4499POPC   C4A57714   9.679   4.581   7.293
 4499POPC   C1B57715   9.846   4.033   6.283
 4499POPC   C2B57716   9.871   4.081   6.725
 4499POPC   C3B57717   9.572   4.088   7.060
 4499POPC   C4B57718   9.691   4.082   7.491
 4500POPC   NC357719  36.715  34.078   5.310
 4500POPC   PO457720  37.264  33.845   5.269
 4500POPC   GL157721  37.094  33.941   5.689
 4500POPC   GL257722  36.862  33.747   5.812
 4500POPC   C1A57723  37.113  34.121   6.122
 4500POPC   D2A57724  37.041  33.895   6.510
 4500POPC   C3A57725  37.031  34.066   6.923
 4500POPC   C4A57726  37.105  33.784   7.254
 4500POPC   C1B57727  36.643  33.936   6.148
 4500POPC   C2B57728  36.544  34.008   6.582
 4500POPC   C3B57729  36.611  33.798   6.974
 4500POPC   C4B57730  36.672  34.076   7.312
 4501POPC   NC357731  36.637   4.029   5.607
 4501POPC   PO457732  37.140   3.560   5.503
 4501POPC   GL157733  36.847   3.565   5.853
 4501POPC   GL257734  36.634   3.263   5.965
 4501POPC   C1A57735  37.041   3.614   6.256
 4501POPC   D2A57736  37.150   3.395   6.626
 4501POPC   C3A57737  36.944   3.511   7.005
 4501POPC   C4A57738  37.020   3.439   7.438
 4501POPC   C1B57739  36.652   3.318   6.413
 4501POPC   C2B57740  36.672   3.729   6.617
 4501POPC   C3B57741  36.492   3.851   6.996
 4501POPC   C4B57742  36.518   3.555   7.304
 4502POPC   NC357743   5.444  24.825   5.515
 4502POPC   PO457744   5.433  25.589   5.536
 4502POPC   GL157745   5.170  25.434   5.882
 4502POPC   GL257746   5.070  25.103   5.796
 4502POPC   C1A57747   4.924  25.467   6.259
 4502POPC   D2A57748   4.698  25.599   6.640
 4502POPC   C3A57749   4.885  25.387   6.979
 4502POPC   C4A57750   5.193  25.207   7.199
 4502POPC   C1B57751   4.894  24.951   6.191
 4502POPC   C2B57752   5.199  24.804   6.469
 4502POPC   C3B57753   5.102  24.859   6.874
 4502POPC   C4B57754   4.727  24.859   7.155
 4503POPC   NC357755  18.888   6.434   5.496
 4503POPC   PO457756  18.950   5.722   5.681
 4503POPC   GL157757  19.024   5.873   6.009
 4503POPC   GL257758  19.146   6.177   5.838
 4503POPC   C1A57759  19.294   5.919   6.323
 4503POPC   D2A57760  19.525   5.738   6.630
 4503POPC   C3A57761  19.288   5.657   6.964
 4503POPC   C4A57762  19.269   5.896   7.336
 4503POPC   C1B57763  18.887   6.322   6.149
 4503POPC   C2B57764  18.861   6.148   6.532
 4503POPC   C3B57765  19.025   6.119   6.937
 4503POPC   C4B57766  18.836   6.139   7.311
 4504POPC   NC357767  31.444  31.210   5.633
 4504POPC   PO457768  31.246  30.569   5.369
 4504POPC   GL157769  31.377  30.579   5.815
 4504POPC   GL257770  31.709  30.761   5.857
 4504POPC   C1A57771  31.553  30.350   6.193
 4504POPC   D2A57772  31.827  30.489   6.555
 4504POPC   C3A57773  31.683  30.336   6.962
 4504POPC   C4A57774  31.437  30.536   7.239
 4504POPC   C1B57775  31.492  30.859   6.267
 4504POPC   C2B57776  31.285  31.119   6.608
 4504POPC   C3B57777  31.403  31.010   7.025
 4504POPC   C4B57778  31.746  30.948   7.314
 4505POPC   NC357779  32.992  34.710   5.347
 4505POPC   PO457780  33.391  34.153   5.506
 4505POPC   GL157781  33.085  34.498   5.811
 4505POPC   GL257782  33.103  34.912   5.815
 4505POPC   C1A57783  33.248  34.640   6.209
 4505POPC   D2A57784  33.282  34.477   6.603
 4505POPC   C3A57785  33.162  34.677   6.965
 4505POPC   C4A57786  33.282  34.492   7.356
 4505POPC   C1B57787  32.809  34.916   6.233
 4505POPC   C2B57788  32.583  34.781   6.612
 4505POPC   C3B57789  32.695  34.858   7.029
 4505POPC   C4B57790  32.830  34.690   7.418
 4506POPC   NC357791  32.152  15.029   5.287
 4506POPC   PO457792  32.671  15.448   5.410
 4506POPC   GL157793  32.273  15.338   5.703
 4506POPC   GL257794  32.044  14.975   5.777
 4506POPC   C1A57795  32.292  15.207   6.146
 4506POPC   D2A57796  32.149  15.224   6.556
 4506POPC   C3A57797  32.468  15.185   6.869
 4506POPC   C4A57798  32.378  15.331   7.259
 4506POPC   C1B57799  31.979  14.795   6.213
 4506POPC   C2B57800  31.829  14.833   6.644
 4506POPC   C3B57801  32.069  14.830   7.043
 4506POPC   C4B57802  32.067  15.030   7.468
 4507POPC   NC357803  26.192  24.890   5.220
 4507POPC   PO457804  25.828  25.408   5.500
 4507POPC   GL157805  26.135  25.286   5.791
 4507POPC   GL257806  26.415  25.066   5.670
 4507POPC   C1A57807  26.003  25.313   6.233
 4507POPC   D2A57808  26.028  25.599   6.574
 4507POPC   C3A57809  25.938  25.424   6.968
 4507POPC   C4A57810  26.108  25.404   7.362
 4507POPC   C1B57811  26.404  25.013   6.138
 4507POPC   C2B57812  26.255  24.930   6.602
 4507POPC   C3B57813  26.162  24.941   7.092
 4507POPC   C4B57814  26.083  24.912   7.566
 4508POPC   NC357815  23.215   7.386   5.547
 4508POPC   PO457816  22.712   7.607   5.203
 4508POPC   GL157817  22.640   7.443   5.756
 4508POPC   GL257818  22.616   7.121   5.946
 4508POPC   C1A57819  22.769   7.499   6.255
 4508POPC   D2A57820  22.927   7.397   6.704
 4508POPC   C3A57821  22.799   7.636   7.084
 4508POPC   C4A57822  22.612   7.559   7.485
 4508POPC   C1B57823  23.081   7.112   6.144
 4508POPC   C2B57824  23.302   7.053   6.541
 4508POPC   C3B57825  23.315   6.947   6.959
 4508POPC   C4B57826  23.128   7.168   7.287
 4509POPC   NC357827  12.542  38.874   5.377
 4509POPC   PO457828  12.682  39.507   5.576
 4509POPC   GL157829  12.892  39.443   5.936
 4509POPC   GL257830  12.896  39.077   5.890
 4509POPC   C1A57831  12.989  39.364   6.359
 4509POPC   D2A57832  13.143  39.070   6.683
 4509POPC   C3A57833  13.075  39.260   7.084
 4509POPC   C4A57834  13.212  39.661   7.274
 4509POPC   C1B57835  12.795  38.906   6.269
 4509POPC   C2B57836  12.602  38.937   6.659
 4509POPC   C3B57837  12.742  38.867   7.072
 4509POPC   C4B57838  12.694  38.882   7.509
 4510POPC   NC357839   6.788  34.169   5.358
 4510POPC   PO457840   6.353  33.711   5.488
 4510POPC   GL157841   6.659  33.727   5.760
 4510POPC   GL257842   6.654  34.083   5.839
 4510POPC   C1A57843   6.627  33.566   6.162
 4510POPC   D2A57844   6.650  33.775   6.546
 4510POPC   C3A57845   6.741  33.564   6.894
 4510POPC   C4A57846   6.610  33.647   7.294
 4510POPC   C1B57847   6.360  34.034   6.175
 4510POPC   C2B57848   6.353  34.198   6.619
 4510POPC   C3B57849   6.473  34.045   7.028
 4510POPC   C4B57850   6.312  33.993   7.479
 4511POPC   NC357851  14.971   8.252   5.138
 4511POPC   PO457852  15.411   7.868   5.430
 4511POPC   GL157853  15.334   8.111   5.798
 4511POPC   GL257854  14.977   8.034   5.778
 4511POPC   C1A57855  15.328   8.382   6.185
 4511POPC   D2A57856  15.117   8.397   6.593
 4511POPC   C3A57857  15.222   8.363   7.049
 4511POPC   C4A57858  15.506   8.224   7.377
 4511POPC   C1B57859  15.006   7.976   6.225
 4511POPC   C2B57860  14.780   7.989   6.602
 4511POPC   C3B57861  14.748   7.859   7.031
 4511POPC   C4B57862  14.823   8.003   7.401
 4512POPC   NC357863  15.868   7.656   5.466
 4512POPC   PO457864  15.843   7.031   5.134
 4512POPC   GL157865  15.828   7.174   5.681
 4512POPC   GL257866  16.032   7.380   5.893
 4512POPC   C1A57867  15.657   7.250   6.182
 4512POPC   D2A57868  15.840   7.369   6.620
 4512POPC   C3A57869  15.726   7.237   7.048
 4512POPC   C4A57870  15.850   7.164   7.497
 4512POPC   C1B57871  16.245   7.289   6.297
 4512POPC   C2B57872  16.366   7.480   6.682
 4512POPC   C3B57873  16.207   7.512   7.078
 4512POPC   C4B57874  16.293   7.136   7.237
 4513POPC   NC357875  29.791  21.833   5.537
 4513POPC   PO457876  29.756  21.172   5.422
 4513POPC   GL157877  30.033  21.307   5.779
 4513POPC   GL257878  30.167  21.663   5.882
 4513POPC   C1A57879  29.973  21.302   6.214
 4513POPC   D2A57880  30.108  21.113   6.575
 4513POPC   C3A57881  29.894  21.333   6.877
 4513POPC   C4A57882  29.952  21.255   7.299
 4513POPC   C1B57883  29.993  21.900   6.264
 4513POPC   C2B57884  29.847  21.863   6.724
 4513POPC   C3B57885  30.040  21.775   7.149
 4513POPC   C4B57886  30.309  21.587   7.484
 4514POPC   NC357887  31.576  23.143   5.469
 4514POPC   PO457888  30.936  22.750   5.486
 4514POPC   GL157889  31.199  22.905   5.804
 4514POPC   GL257890  31.491  22.705   5.771
 4514POPC   C1A57891  31.447  23.053   6.166
 4514POPC   D2A57892  31.684  22.860   6.518
 4514POPC   C3A57893  31.407  22.892   6.872
 4514POPC   C4A57894  31.392  23.166   7.234
 4514POPC   C1B57895  31.815  22.553   6.078
 4514POPC   C2B57896  31.947  22.400   6.497
 4514POPC   C3B57897  31.872  22.538   6.925
 4514POPC   C4B57898  31.655  22.706   7.279
 4515POPC   NC357899   9.353  33.556   5.444
 4515POPC   PO457900   8.664  33.484   5.475
 4515POPC   GL157901   8.945  33.577   5.821
 4515POPC   GL257902   9.186  33.851   5.829
 4515POPC   C1A57903   8.954  33.678   6.254
 4515POPC   D2A57904   8.731  33.511   6.590
 4515POPC   C3A57905   8.858  33.735   6.953
 4515POPC   C4A57906   8.940  33.920   7.320
 4515POPC   C1B57907   9.387  33.968   6.215
 4515POPC   C2B57908   9.549  34.052   6.615
 4515POPC   C3B57909   9.305  34.089   6.981
 4515POPC   C4B57910   9.416  34.045   7.409
 4516POPC   NC357911  12.652  18.548   5.259
 4516POPC   PO457912  13.033  19.076   5.410
 4516POPC   GL157913  12.865  19.239   5.851
 4516POPC   GL257914  12.496  19.178   5.835
 4516POPC   C1A57915  12.971  19.235   6.336
 4516POPC   D2A57916  13.213  19.219   6.758
 4516POPC   C3A57917  12.995  19.100   7.146
 4516POPC   C4A57918  12.668  18.893   7.408
 4516POPC   C1B57919  12.523  19.448   6.197
 4516POPC   C2B57920  12.604  19.496   6.646
 4516POPC   C3B57921  12.577  19.388   7.092
 4516POPC   C4B57922  12.659  19.407   7.530
 4517POPC   NC357923  39.296  32.442   5.466
 4517POPC   PO457924  38.913  31.872   5.498
 4517POPC   GL157925  39.116  32.157   5.849
 4517POPC   GL257926  39.491  32.107   5.823
 4517POPC   C1A57927  39.311  32.344   6.245
 4517POPC   D2A57928  39.158  32.505   6.630
 4517POPC   C3A57929  39.347  32.434   7.031
 4517POPC   C4A57930  39.235  32.269   7.419
 4517POPC   C1B57931  39.511  31.878   6.220
 4517POPC   C2B57932  39.379  32.024   6.650
 4517POPC   C3B57933  39.450  31.922   7.068
 4517POPC   C4B57934  39.511  31.847   7.529
 4518POPC   NC357935  23.488  41.825   5.347
 4518POPC   PO457936  23.826  41.328   5.476
 4518POPC   GL157937  23.880  41.424   5.879
 4518POPC   GL257938  23.803  41.777   5.850
 4518POPC   C1A57939  23.714  41.544   6.286
 4518POPC   D2A57940  23.787  41.682   6.689
 4518POPC   C3A57941  23.610  41.321   6.938
 4518POPC   C4A57942  23.368  41.281   7.311
 4518POPC   C1B57943  24.107  41.879   6.202
 4518POPC   C2B57944  24.284  41.975   6.635
 4518POPC   C3B57945  24.142  41.910   7.046
 4518POPC   C4B57946  23.755  41.720   7.214
 4519POPC   NC357947  31.912   8.018   5.334
 4519POPC   PO457948  32.281   8.631   5.196
 4519POPC   GL157949  32.140   8.426   5.603
 4519POPC   GL257950  32.421   8.238   5.739
 4519POPC   C1A57951  32.053   8.404   6.090
 4519POPC   D2A57952  31.960   8.583   6.511
 4519POPC   C3A57953  31.968   8.416   6.905
 4519POPC   C4A57954  31.910   8.239   7.282
 4519POPC   C1B57955  32.510   8.137   6.182
 4519POPC   C2B57956  32.286   8.171   6.579
 4519POPC   C3B57957  32.151   7.918   6.948
 4519POPC   C4B57958  32.273   7.909   7.380
 4520POPC   NC357959  24.487  33.885   5.362
 4520POPC   PO457960  23.962  33.499   5.612
 4520POPC   GL157961  24.302  33.825   5.861
 4520POPC   GL257962  24.666  33.930   5.841
 4520POPC   C1A57963  24.414  34.118   6.260
 4520POPC   D2A57964  24.501  34.172   6.721
 4520POPC   C3A57965  24.357  33.858   7.066
 4520POPC   C4A57966  24.364  33.598   7.487
 4520POPC   C1B57967  24.633  33.663   6.231
 4520POPC   C2B57968  24.686  33.677   6.680
 4520POPC   C3B57969  24.725  33.531   7.106
 4520POPC   C4B57970  24.806  33.869   7.420
 4521POPC   NC357971  24.929   7.109   5.586
 4521POPC   PO457972  25.567   7.230   5.451
 4521POPC   GL157973  25.365   7.264   5.866
 4521POPC   GL257974  25.025   7.347   6.039
 4521POPC   C1A57975  25.443   7.279   6.311
 4521POPC   D2A57976  25.132   7.291   6.614
 4521POPC   C3A57977  25.312   7.238   6.992
 4521POPC   C4A57978  25.648   7.436   7.202
 4521POPC   C1B57979  25.183   7.707   6.289
 4521POPC   C2B57980  25.135   7.853   6.685
 4521POPC   C3B57981  25.259   7.741   7.082
 4521POPC   C4B57982  25.145   7.463   7.399
 4522POPC   NC357983  34.203  22.590   5.489
 4522POPC   PO457984  33.629  22.940   5.350
 4522POPC   GL157985  33.726  22.746   5.717
 4522POPC   GL257986  33.935  23.040   5.792
 4522POPC   C1A57987  33.976  22.626   6.099
 4522POPC   D2A57988  34.071  22.626   6.519
 4522POPC   C3A57989  33.792  22.467   6.842
 4522POPC   C4A57990  33.715  22.713   7.231
 4522POPC   C1B57991  34.040  23.153   6.231
 4522POPC   C2B57992  33.780  23.395   6.536
 4522POPC   C3B57993  33.749  23.303   6.978
 4522POPC   C4B57994  34.043  23.119   7.284
 4523POPC   NC357995  11.286   7.881   5.353
 4523POPC   PO457996  11.060   8.508   5.439
 4523POPC   GL157997  11.225   8.189   5.755
 4523POPC   GL257998  10.904   8.202   5.879
 4523POPC   C1A57999  11.534   8.064   6.117
 4523POPC   D2A58000  11.754   8.209   6.530
 4523POPC   C3A58001  11.557   8.226   6.966
 4523POPC   C4A58002  11.566   7.855   7.254
 4523POPC   C1B58003  11.163   8.397   6.211
 4523POPC   C2B58004  11.259   8.508   6.620
 4523POPC   C3B58005  11.059   8.406   7.000
 4523POPC   C4B58006  11.086   8.240   7.388
 4524POPC   NC358007  34.695   5.267   5.214
 4524POPC   PO458008  34.501   4.660   5.370
 4524POPC   GL158009  34.626   5.005   5.687
 4524POPC   GL258010  34.356   5.068   5.853
 4524POPC   C1A58011  34.755   5.082   6.166
 4524POPC   D2A58012  34.697   5.248   6.604
 4524POPC   C3A58013  34.774   4.920   6.932
 4524POPC   C4A58014  34.705   4.891   7.354
 4524POPC   C1B58015  34.132   4.975   6.194
 4524POPC   C2B58016  34.089   5.126   6.562
 4524POPC   C3B58017  34.305   5.122   6.922
 4524POPC   C4B58018  34.200   4.977   7.277
 4525POPC   NC358019  36.623  16.133   5.490
 4525POPC   PO458020  37.208  15.745   5.587
 4525POPC   GL158021  36.973  15.844   5.945
 4525POPC   GL258022  36.802  16.141   5.945
 4525POPC   C1A58023  37.062  16.004   6.344
 4525POPC   D2A58024  37.117  16.361   6.584
 4525POPC   C3A58025  37.160  16.048   6.906
 4525POPC   C4A58026  37.032  15.956   7.290
 4525POPC   C1B58027  36.570  16.248   6.286
 4525POPC   C2B58028  36.677  16.148   6.693
 4525POPC   C3B58029  36.814  16.381   7.057
 4525POPC   C4B58030  36.662  16.302   7.483
 4526POPC   NC358031  13.254  21.767   5.334
 4526POPC   PO458032  12.852  21.204   5.393
 4526POPC   GL158033  13.025  21.253   5.776
 4526POPC   GL258034  13.064  20.913   5.800
 4526POPC   C1A58035  12.948  21.398   6.208
 4526POPC   D2A58036  13.171  21.437   6.616
 4526POPC   C3A58037  12.847  21.378   6.919
 4526POPC   C4A58038  12.803  21.512   7.314
 4526POPC   C1B58039  12.741  20.924   6.122
 4526POPC   C2B58040  12.858  21.004   6.550
 4526POPC   C3B58041  12.813  20.864   6.952
 4526POPC   C4B58042  12.609  21.017   7.307
 4527POPC   NC358043   4.097  35.647   5.407
 4527POPC   PO458044   3.999  36.154   5.725
 4527POPC   GL158045   4.315  36.125   5.959
 4527POPC   GL258046   4.574  36.189   5.698
 4527POPC   C1A58047   4.245  35.840   6.297
 4527POPC   D2A58048   3.920  35.933   6.578
 4527POPC   C3A58049   4.081  36.083   6.949
 4527POPC   C4A58050   4.353  35.889   7.219
 4527POPC   C1B58051   4.749  36.301   6.110
 4527POPC   C2B58052   4.531  36.271   6.477
 4527POPC   C3B58053   4.598  36.278   6.913
 4527POPC   C4B58054   4.421  36.373   7.285
 4528POPC   NC358055  16.426  19.992   5.679
 4528POPC   PO458056  15.820  19.788   5.452
 4528POPC   GL158057  15.945  19.769   5.844
 4528POPC   GL258058  15.971  20.109   5.888
 4528POPC   C1A58059  15.826  19.535   6.217
 4528POPC   D2A58060  15.902  19.701   6.619
 4528POPC   C3A58061  15.766  19.560   7.013
 4528POPC   C4A58062  16.027  19.749   7.346
 4528POPC   C1B58063  15.757  20.050   6.250
 4528POPC   C2B58064  15.863  20.212   6.618
 4528POPC   C3B58065  15.839  20.078   6.987
 4528POPC   C4B58066  15.630  20.171   7.339
 4529POPC   NC358067  36.460   8.962   5.365
 4529POPC   PO458068  37.095   8.750   5.425
 4529POPC   GL158069  36.901   8.780   5.784
 4529POPC   GL258070  36.946   9.122   5.930
 4529POPC   C1A58071  36.972   8.650   6.189
 4529POPC   D2A58072  36.814   8.914   6.472
 4529POPC   C3A58073  36.965   9.044   6.834
 4529POPC   C4A58074  37.020   8.931   7.230
 4529POPC   C1B58075  36.709   9.372   6.271
 4529POPC   C2B58076  36.539   9.307   6.702
 4529POPC   C3B58077  36.561   9.203   7.180
 4529POPC   C4B58078  36.686   9.339   7.642
 4530POPC   NC358079  42.455  32.054   5.447
 4530POPC   PO458080  42.007  32.549   5.392
 4530POPC   GL158081  42.170  32.473   5.776
 4530POPC   GL258082  42.534  32.481   5.779
 4530POPC   C1A58083  42.239  32.607   6.198
 4530POPC   D2A58084  42.483  32.552   6.568
 4530POPC   C3A58085  42.285  32.493   6.958
 4530POPC   C4A58086  42.319  32.289   7.353
 4530POPC   C1B58087  42.444  32.144   6.127
 4530POPC   C2B58088  42.564  31.940   6.522
 4530POPC   C3B58089  42.553  32.053   6.971
 4530POPC   C4B58090  42.738  31.969   7.389
 4531POPC   NC358091  10.357  27.434   5.483
 4531POPC   PO458092  10.791  27.683   5.067
 4531POPC   GL158093  10.709  27.742   5.648
 4531POPC   GL258094  10.631  27.416   5.917
 4531POPC   C1A58095  10.385  27.822   6.042
 4531POPC   D2A58096  10.480  27.585   6.442
 4531POPC   C3A58097  10.498  27.587   6.916
 4531POPC   C4A58098  10.530  27.339   7.288
 4531POPC   C1B58099  10.884  27.313   6.280
 4531POPC   C2B58100  10.809  27.230   6.699
 4531POPC   C3B58101  10.961  27.083   7.079
 4531POPC   C4B58102  11.015  27.263   7.471
 4532POPC   NC358103  39.726  28.348   5.417
 4532POPC   PO458104  40.173  28.863   5.230
 4532POPC   GL158105  40.150  28.567   5.671
 4532POPC   GL258106  39.823  28.534   5.871
 4532POPC   C1A58107  40.212  28.298   6.081
 4532POPC   D2A58108  40.056  28.222   6.506
 4532POPC   C3A58109  40.244  28.249   6.922
 4532POPC   C4A58110  39.972  28.209   7.276
 4532POPC   C1B58111  39.541  28.708   6.163
 4532POPC   C2B58112  39.680  28.688   6.561
 4532POPC   C3B58113  39.800  28.508   6.902
 4532POPC   C4B58114  40.020  28.725   7.235
 4533POPC   NC358115  26.685  16.150   5.347
 4533POPC   PO458116  26.639  15.550   5.534
 4533POPC   GL158117  26.751  15.920   5.812
 4533POPC   GL258118  27.061  16.116   5.706
 4533POPC   C1A58119  26.864  15.905   6.251
 4533POPC   D2A58120  26.882  15.642   6.639
 4533POPC   C3A58121  26.626  15.784   6.993
 4533POPC   C4A58122  26.735  15.978   7.356
 4533POPC   C1B58123  27.107  16.369   6.075
 4533POPC   C2B58124  27.032  16.316   6.503
 4533POPC   C3B58125  26.853  16.278   6.916
 4533POPC   C4B58126  26.926  16.462   7.311
 4534POPC   NC358127  27.645  12.439   5.477
 4534POPC   PO458128  27.405  13.080   5.542
 4534POPC   GL158129  27.530  12.766   5.873
 4534POPC   GL258130  27.255  12.495   5.822
 4534POPC   C1A58131  27.730  12.809   6.322
 4534POPC   D2A58132  27.506  12.925   6.731
 4534POPC   C3A58133  27.617  12.831   7.188
 4534POPC   C4A58134  27.646  12.682   7.645
 4534POPC   C1B58135  27.284  12.567   6.267
 4534POPC   C2B58136  27.432  12.415   6.640
 4534POPC   C3B58137  27.224  12.529   6.986
 4534POPC   C4B58138  27.124  12.922   7.100
 4535POPC   NC358139  25.724  24.961   5.643
 4535POPC   PO458140  25.046  25.126   5.359
 4535POPC   GL158141  25.014  25.346   5.765
 4535POPC   GL258142  25.380  25.386   5.764
 4535POPC   C1A58143  25.121  25.261   6.230
 4535POPC   D2A58144  25.440  25.076   6.549
 4535POPC   C3A58145  25.307  25.008   6.979
 4535POPC   C4A58146  24.965  25.275   7.191
 4535POPC   C1B58147  25.544  25.586   6.146
 4535POPC   C2B58148  25.378  25.610   6.560
 4535POPC   C3B58149  25.416  25.498   6.984
 4535POPC   C4B58150  25.631  25.603   7.362
 4536POPC   NC358151  12.072  27.839   5.265
 4536POPC   PO458152  12.251  28.458   5.460
 4536POPC   GL158153  12.217  28.303   5.875
 4536POPC   GL258154  11.931  28.091   5.840
 4536POPC   C1A58155  12.111  28.193   6.308
 4536POPC   D2A58156  11.939  28.056   6.665
 4536POPC   C3A58157  11.988  28.328   6.994
 4536POPC   C4A58158  12.341  28.329   7.266
 4536POPC   C1B58159  11.631  28.039   6.214
 4536POPC   C2B58160  11.440  27.948   6.644
 4536POPC   C3B58161  11.629  27.936   7.053
 4536POPC   C4B58162  12.002  27.896   7.315
 4537POPC   NC358163  20.310  17.392   5.738
 4537POPC   PO458164  19.735  17.303   5.375
 4537POPC   GL158165  19.727  17.431   5.840
 4537POPC   GL258166  19.733  17.778   5.934
 4537POPC   C1A58167  19.825  17.483   6.316
 4537POPC   D2A58168  20.070  17.523   6.685
 4537POPC   C3A58169  19.847  17.539   7.078
 4537POPC   C4A58170  19.479  17.352   7.264
 4537POPC   C1B58171  20.175  17.822   6.197
 4537POPC   C2B58172  20.441  17.863   6.563
 4537POPC   C3B58173  20.281  17.866   6.990
 4537POPC   C4B58174  20.225  17.743   7.408
 4538POPC   NC358175  38.732  27.338   5.074
 4538POPC   PO458176  38.445  27.860   5.291
 4538POPC   GL158177  38.343  27.601   5.663
 4538POPC   GL258178  38.646  27.479   5.810
 4538POPC   C1A58179  38.246  27.597   6.126
 4538POPC   D2A58180  38.389  27.778   6.525
 4538POPC   C3A58181  38.291  27.873   6.980
 4538POPC   C4A58182  38.689  27.838   7.197
 4538POPC   C1B58183  38.599  27.209   6.174
 4538POPC   C2B58184  38.470  27.121   6.587
 4538POPC   C3B58185  38.418  27.399   6.878
 4538POPC   C4B58186  38.347  27.442   7.285
 4539POPC   NC358187  31.690  30.478   5.417
 4539POPC   PO458188  32.128  31.030   5.464
 4539POPC   GL158189  32.248  30.879   5.854
 4539POPC   GL258190  32.334  30.531   5.938
 4539POPC   C1A58191  32.057  30.865   6.259
 4539POPC   D2A58192  32.293  30.833   6.639
 4539POPC   C3A58193  32.215  31.076   7.013
 4539POPC   C4A58194  32.445  31.083   7.395
 4539POPC   C1B58195  32.387  30.270   6.323
 4539POPC   C2B58196  32.286  30.326   6.764
 4539POPC   C3B58197  32.095  30.603   7.085
 4539POPC   C4B58198  31.883  30.467   7.465
 4540POPC   NC358199  35.232  33.505   5.471
 4540POPC   PO458200  35.692  33.933   5.534
 4540POPC   GL158201  35.338  33.930   5.815
 4540POPC   GL258202  35.419  33.621   5.926
 4540POPC   C1A58203  35.195  33.948   6.243
 4540POPC   D2A58204  35.033  33.749   6.609
 4540POPC   C3A58205  35.230  33.939   6.916
 4540POPC   C4A58206  35.329  34.099   7.342
 4540POPC   C1B58207  35.219  33.413   6.237
 4540POPC   C2B58208  35.286  33.268   6.636
 4540POPC   C3B58209  35.141  33.383   7.013
 4540POPC   C4B58210  35.335  33.600   7.288
 4541POPC   NC358211  41.731  40.687   5.196
 4541POPC   PO458212  41.710  40.004   5.444
 4541POPC   GL158213  41.581  40.105   5.823
 4541POPC   GL258214  41.723  39.801   5.941
 4541POPC   C1A58215  41.868  40.237   6.174
 4541POPC   D2A58216  41.849  40.274   6.608
 4541POPC   C3A58217  41.587  40.020   6.857
 4541POPC   C4A58218  41.652  39.977   7.283
 4541POPC   C1B58219  41.447  39.941   6.293
 4541POPC   C2B58220  41.256  39.704   6.609
 4541POPC   C3B58221  41.162  39.597   7.042
 4541POPC   C4B58222  41.220  39.793   7.466
 4542POPC   NC358223  20.525   3.910   5.247
 4542POPC   PO458224  20.880   4.561   5.396
 4542POPC   GL158225  20.779   4.477   5.870
 4542POPC   GL258226  20.672   4.107   5.947
 4542POPC   C1A58227  20.633   4.434   6.318
 4542POPC   D2A58228  20.894   4.364   6.671
 4542POPC   C3A58229  20.746   4.382   7.098
 4542POPC   C4A58230  20.425   4.315   7.372
 4542POPC   C1B58231  20.340   3.920   6.145
 4542POPC   C2B58232  20.294   4.099   6.552
 4542POPC   C3B58233  20.452   3.977   6.939
 4542POPC   C4B58234  20.239   3.844   7.300
 4543POPC   NC358235  20.140   1.872   5.417
 4543POPC   PO458236  20.807   1.852   5.349
 4543POPC   GL158237  20.633   2.093   5.735
 4543POPC   GL258238  20.514   1.802   5.869
 4543POPC   C1A58239  20.467   2.196   6.193
 4543POPC   D2A58240  20.382   2.227   6.656
 4543POPC   C3A58241  20.576   2.068   7.039
 4543POPC   C4A58242  20.629   2.261   7.430
 4543POPC   C1B58243  20.467   1.665   6.302
 4543POPC   C2B58244  20.333   1.717   6.730
 4543POPC   C3B58245  20.341   1.616   7.169
 4543POPC   C4B58246  20.396   1.756   7.615
 4544POPC   NC358247  41.527  21.134   5.395
 4544POPC   PO458248  41.011  21.472   5.569
 4544POPC   GL158249  41.358  21.377   5.840
 4544POPC   GL258250  41.286  21.014   5.874
 4544POPC   C1A58251  41.525  21.312   6.279
 4544POPC   D2A58252  41.468  21.129   6.691
 4544POPC   C3A58253  41.711  21.276   7.057
 4544POPC   C4A58254  41.945  21.032   7.343
 4544POPC   C1B58255  41.009  21.234   6.184
 4544POPC   C2B58256  41.071  21.470   6.543
 4544POPC   C3B58257  41.078  21.360   6.952
 4544POPC   C4B58258  41.332  21.592   7.214
 4545POPC   NC358259  10.390   6.364   5.410
 4545POPC   PO458260  10.593   5.704   5.470
 4545POPC   GL158261  10.499   5.995   5.806
 4545POPC   GL258262  10.148   5.972   5.764
 4545POPC   C1A58263  10.507   5.930   6.264
 4545POPC   D2A58264  10.792   5.631   6.474
 4545POPC   C3A58265  10.854   5.663   6.909
 4545POPC   C4A58266  10.691   5.707   7.311
 4545POPC   C1B58267  10.171   5.592   6.081
 4545POPC   C2B58268  10.285   5.486   6.532
 4545POPC   C3B58269  10.320   5.715   6.924
 4545POPC   C4B58270  10.179   5.660   7.348
 4546POPC   NC358271  12.163  39.634   5.657
 4546POPC   PO458272  11.795  39.085   5.411
 4546POPC   GL158273  12.060  39.113   5.809
 4546POPC   GL258274  12.376  38.904   5.849
 4546POPC   C1A58275  12.264  39.242   6.229
 4546POPC   D2A58276  12.330  39.466   6.631
 4546POPC   C3A58277  12.149  39.270   7.004
 4546POPC   C4A58278  12.279  39.254   7.445
 4546POPC   C1B58279  12.295  38.720   6.240
 4546POPC   C2B58280  12.091  38.804   6.618
 4546POPC   C3B58281  12.259  38.720   7.018
 4546POPC   C4B58282  12.173  38.780   7.437
 4547POPC   NC358283  32.472  42.068   5.459
 4547POPC   PO458284  32.318  42.726   5.464
 4547POPC   GL158285  32.258  42.494   5.861
 4547POPC   GL258286  32.068  42.176   5.832
 4547POPC   C1A58287  32.235  42.428   6.320
 4547POPC   D2A58288  32.044  42.130   6.621
 4547POPC   C3A58289  32.073  42.331   7.021
 4547POPC   C4A58290  32.401  42.523   7.300
 4547POPC   C1B58291  32.421  42.008   6.109
 4547POPC   C2B58292  32.555  41.950   6.536
 4547POPC   C3B58293  32.573  42.229   6.867
 4547POPC   C4B58294  32.394  41.966   7.180
 4548POPC   NC358295  26.497  28.345   5.531
 4548POPC   PO458296  27.158  28.638   5.539
 4548POPC   GL158297  26.922  28.432   5.852
 4548POPC   GL258298  26.884  28.104   5.777
 4548POPC   C1A58299  26.769  28.394   6.273
 4548POPC   D2A58300  26.727  28.691   6.632
 4548POPC   C3A58301  26.743  28.516   7.034
 4548POPC   C4A58302  27.007  28.450   7.408
 4548POPC   C1B58303  26.921  27.897   6.158
 4548POPC   C2B58304  26.716  27.801   6.552
 4548POPC   C3B58305  26.821  27.983   6.947
 4548POPC   C4B58306  26.634  28.097   7.303
 4549POPC   NC358307  33.082   0.988   5.164
 4549POPC   PO458308  33.078   0.288   5.274
 4549POPC   GL158309  33.120   0.223   5.715
 4549POPC   GL258310  33.082   0.567   5.785
 4549POPC   C1A58311  33.131   0.228   6.177
 4549POPC   D2A58312  32.860   0.170   6.547
 4549POPC   C3A58313  33.102   0.105   6.909
 4549POPC   C4A58314  33.257   0.271   7.286
 4549POPC   C1B58315  33.142   0.803   6.196
 4549POPC   C2B58316  33.111   0.606   6.588
 4549POPC   C3B58317  32.956   0.569   6.994
 4549POPC   C4B58318  33.176   0.764   7.326
 4550POPC   NC358319   0.920  39.433   5.365
 4550POPC   PO458320   1.487  39.045   5.362
 4550POPC   GL158321   1.320  39.260   5.740
 4550POPC   GL258322   1.372  39.611   5.720
 4550POPC   C1A58323   1.026  39.435   6.092
 4550POPC   D2A58324   0.795  39.250   6.480
 4550POPC   C3A58325   1.012  39.355   6.868
 4550POPC   C4A58326   1.337  39.119   7.089
 4550POPC   C1B58327   1.563  39.484   6.153
 4550POPC   C2B58328   1.679  39.455   6.612
 4550POPC   C3B58329   1.590  39.566   7.041
 4550POPC   C4B58330   1.560  39.374   7.475
 4551POPC   NC358331  15.324   2.887   5.534
 4551POPC   PO458332  14.901   2.550   5.276
 4551POPC   GL158333  14.879   2.866   5.774
 4551POPC   GL258334  15.212   2.961   5.999
 4551POPC   C1A58335  14.808   3.012   6.268
 4551POPC   D2A58336  14.984   2.791   6.663
 4551POPC   C3A58337  15.140   2.854   7.079
 4551POPC   C4A58338  14.911   2.800   7.482
 4551POPC   C1B58339  15.370   2.739   6.343
 4551POPC   C2B58340  15.504   2.409   6.612
 4551POPC   C3B58341  15.369   2.260   6.990
 4551POPC   C4B58342  15.277   2.457   7.404
 4552POPC   NC358343  28.452  23.853   5.490
 4552POPC   PO458344  27.712  23.879   5.567
 4552POPC   GL158345  28.102  23.876   5.853
 4552POPC   GL258346  28.283  23.587   5.912
 4552POPC   C1A58347  28.338  23.928   6.265
 4552POPC   D2A58348  28.268  24.069   6.665
 4552POPC   C3A58349  28.433  23.806   6.953
 4552POPC   C4A58350  28.358  23.773   7.373
 4552POPC   C1B58351  28.512  23.442   6.303
 4552POPC   C2B58352  28.711  23.372   6.736
 4552POPC   C3B58353  28.712  23.463   7.214
 4552POPC   C4B58354  28.689  23.290   7.668
 4553POPC   NC358355   5.649  20.273   5.502
 4553POPC   PO458356   5.571  19.531   5.363
 4553POPC   GL158357   5.638  19.614   5.777
 4553POPC   GL258358   5.990  19.575   5.895
 4553POPC   C1A58359   5.613  19.894   6.101
 4553POPC   D2A58360   5.673  19.769   6.508
 4553POPC   C3A58361   5.667  20.094   6.791
 4553POPC   C4A58362   5.607  20.145   7.249
 4553POPC   C1B58363   6.118  19.840   6.247
 4553POPC   C2B58364   6.192  19.967   6.698
 4553POPC   C3B58365   5.988  19.835   7.076
 4553POPC   C4B58366   6.032  19.666   7.493
 4554POPC   NC358367  15.881  10.271   5.468
 4554POPC   PO458368  16.008   9.553   5.413
 4554POPC   GL158369  15.862   9.784   5.776
 4554POPC   GL258370  15.591   9.595   5.881
 4554POPC   C1A58371  15.772   9.941   6.217
 4554POPC   D2A58372  15.751   9.753   6.621
 4554POPC   C3A58373  16.061   9.793   6.956
 4554POPC   C4A58374  16.137   9.694   7.373
 4554POPC   C1B58375  15.498   9.389   6.275
 4554POPC   C2B58376  15.613   9.276   6.732
 4554POPC   C3B58377  15.601   9.585   7.080
 4554POPC   C4B58378  15.661   9.843   7.456
 4555POPC   NC358379  22.976  43.781   5.159
 4555POPC   PO458380  22.589  44.073   5.626
 4555POPC   GL158381  22.860  43.717   5.801
 4555POPC   GL258382  23.232  43.802   5.936
 4555POPC   C1A58383  22.867  43.682   6.239
 4555POPC   D2A58384  23.125  43.859   6.526
 4555POPC   C3A58385  22.994  43.706   6.882
 4555POPC   C4A58386  22.927  43.738   7.248
 4555POPC   C1B58387  23.288  44.222   6.200
 4555POPC   C2B58388  23.393  44.315   6.596
 4555POPC   C3B58389  23.102  44.235   6.914
 4555POPC   C4B58390  22.822  44.228   7.236
 4556POPC   NC358391  42.848  21.711   5.835
 4556POPC   PO458392  42.941  21.177   5.409
 4556POPC   GL158393  43.065  21.242   5.821
 4556POPC   GL258394  42.758  21.148   5.902
 4556POPC   C1A58395  43.194  21.305   6.261
 4556POPC   D2A58396  43.173  21.175   6.697
 4556POPC   C3A58397  43.160  21.558   6.914
 4556POPC   C4A58398  43.212  21.728   7.324
 4556POPC   C1B58399  42.714  21.053   6.317
 4556POPC   C2B58400  42.663  21.254   6.701
 4556POPC   C3B58401  42.824  21.217   7.117
 4556POPC   C4B58402  43.268  21.218   7.262
 4557POPC   NC358403   8.411  18.798   5.361
 4557POPC   PO458404   7.908  19.176   5.391
 4557POPC   GL158405   8.052  18.933   5.784
 4557POPC   GL258406   8.411  19.029   5.875
 4557POPC   C1A58407   8.170  18.796   6.232
 4557POPC   D2A58408   8.393  18.942   6.602
 4557POPC   C3A58409   8.110  18.819   6.907
 4557POPC   C4A58410   8.029  18.718   7.313
 4557POPC   C1B58411   8.307  19.326   6.241
 4557POPC   C2B58412   8.088  19.415   6.652
 4557POPC   C3B58413   8.151  19.290   7.081
 4557POPC   C4B58414   8.538  19.105   7.153
 4558POPC   NC358415   9.317   2.312   5.393
 4558POPC   PO458416   8.909   1.740   5.297
 4558POPC   GL158417   8.954   1.915   5.726
 4558POPC   GL258418   8.781   1.656   5.867
 4558POPC   C1A58419   8.886   2.040   6.196
 4558POPC   D2A58420   9.140   2.174   6.567
 4558POPC   C3A58421   9.003   1.990   6.946
 4558POPC   C4A58422   9.167   2.104   7.358
 4558POPC   C1B58423   8.751   1.546   6.264
 4558POPC   C2B58424   8.656   1.662   6.674
 4558POPC   C3B58425   8.796   1.463   7.022
 4558POPC   C4B58426   9.049   1.629   7.326
 4559POPC   NC358427  39.391   4.866   5.349
 4559POPC   PO458428  39.072   5.475   5.387
 4559POPC   GL158429  39.225   5.193   5.726
 4559POPC   GL258430  39.144   4.844   5.818
 4559POPC   C1A58431  39.381   5.186   6.161
 4559POPC   D2A58432  39.523   5.268   6.594
 4559POPC   C3A58433  39.349   5.067   6.961
 4559POPC   C4A58434  39.315   5.236   7.382
 4559POPC   C1B58435  38.883   5.133   6.107
 4559POPC   C2B58436  39.002   5.378   6.486
 4559POPC   C3B58437  38.947   5.361   6.913
 4559POPC   C4B58438  38.872   5.056   7.199
 4560POPC   NC358439  32.911   6.919   5.519
 4560POPC   PO458440  33.342   6.492   5.417
 4560POPC   GL158441  33.238   6.441   5.835
 4560POPC   GL258442  33.178   6.796   5.951
 4560POPC   C1A58443  33.242   6.392   6.262
 4560POPC   D2A58444  33.018   6.729   6.458
 4560POPC   C3A58445  32.929   6.736   6.869
 4560POPC   C4A58446  32.844   6.779   7.293
 4560POPC   C1B58447  33.487   6.883   6.285
 4560POPC   C2B58448  33.379   7.016   6.722
 4560POPC   C3B58449  33.309   6.949   7.187
 4560POPC   C4B58450  33.330   6.990   7.648
 4561POPC   NC358451  39.498   2.998   5.415
 4561POPC   PO458452  39.072   2.487   5.434
 4561POPC   GL158453  39.238   2.734   5.781
 4561POPC   GL258454  39.227   3.092   5.842
 4561POPC   C1A58455  39.358   2.745   6.216
 4561POPC   D2A58456  39.158   2.658   6.609
 4561POPC   C3A58457  39.417   2.648   6.974
 4561POPC   C4A58458  39.246   2.535   7.338
 4561POPC   C1B58459  39.211   3.257   6.271
 4561POPC   C2B58460  39.455   3.086   6.624
 4561POPC   C3B58461  39.652   3.131   7.017
 4561POPC   C4B58462  39.512   2.968   7.402
 4562POPC   NC358463  11.213  12.529   5.329
 4562POPC   PO458464  11.906  12.560   5.461
 4562POPC   GL158465  11.548  12.579   5.734
 4562POPC   GL258466  11.403  12.916   5.693
 4562POPC   C1A58467  11.255  12.576   6.101
 4562POPC   D2A58468  11.229  12.783   6.499
 4562POPC   C3A58469  11.250  12.596   6.913
 4562POPC   C4A58470  11.232  12.832   7.292
 4562POPC   C1B58471  11.598  12.965   6.108
 4562POPC   C2B58472  11.627  13.143   6.530
 4562POPC   C3B58473  11.623  12.995   6.950
 4562POPC   C4B58474  11.597  13.184   7.342
 4563POPC   NC358475   1.442   5.861   5.486
 4563POPC   PO458476   1.056   6.302   5.488
 4563POPC   GL158477   1.082   5.998   5.833
 4563POPC   GL258478   1.172   5.615   5.825
 4563POPC   C1A58479   1.050   6.087   6.240
 4563POPC   D2A58480   1.338   6.132   6.558
 4563POPC   C3A58481   1.097   6.062   6.928
 4563POPC   C4A58482   1.174   6.022   7.356
 4563POPC   C1B58483   0.994   5.557   6.232
 4563POPC   C2B58484   0.920   5.726   6.593
 4563POPC   C3B58485   0.925   5.564   6.999
 4563POPC   C4B58486   0.714   5.727   7.355
 4564POPC   NC358487  17.875  22.512   5.331
 4564POPC   PO458488  17.533  23.068   5.498
 4564POPC   GL158489  17.530  23.094   5.902
 4564POPC   GL258490  17.573  22.762   5.913
 4564POPC   C1A58491  17.825  23.155   6.233
 4564POPC   D2A58492  17.941  22.913   6.616
 4564POPC   C3A58493  17.817  23.128   6.947
 4564POPC   C4A58494  17.569  23.112   7.325
 4564POPC   C1B58495  17.519  22.731   6.329
 4564POPC   C2B58496  17.402  23.071   6.562
 4564POPC   C3B58497  17.315  22.948   6.926
 4564POPC   C4B58498  17.393  22.650   7.238
 4565POPC   NC358499  12.478  35.579   5.332
 4565POPC   PO458500  11.847  35.285   5.538
 4565POPC   GL158501  12.168  35.327   5.866
 4565POPC   GL258502  12.336  35.627   5.819
 4565POPC   C1A58503  12.357  35.336   6.307
 4565POPC   D2A58504  12.288  35.269   6.771
 4565POPC   C3A58505  11.903  35.334   7.013
 4565POPC   C4A58506  11.882  35.364   7.472
 4565POPC   C1B58507  12.237  35.830   6.192
 4565POPC   C2B58508  12.170  35.751   6.594
 4565POPC   C3B58509  12.228  35.893   6.989
 4565POPC   C4B58510  12.288  35.599   7.274
 4566POPC   NC358511  41.707   0.005   5.405
 4566POPC   PO458512  41.874   0.652   5.531
 4566POPC   GL158513  41.769   0.445   5.938
 4566POPC   GL258514  41.511   0.194   5.875
 4566POPC   C1A58515  41.574   0.373   6.356
 4566POPC   D2A58516  41.243   0.485   6.639
 4566POPC   C3A58517  41.444   0.638   7.020
 4566POPC   C4A58518  41.831   0.509   7.262
 4566POPC   C1B58519  41.234  44.939   6.196
 4566POPC   C2B58520  41.086  44.921   6.651
 4566POPC   C3B58521  41.304   0.125   6.995
 4566POPC   C4B58522  41.115   0.396   7.305
 4567POPC   NC358523  36.587  22.942   5.376
 4567POPC   PO458524  37.208  23.189   5.442
 4567POPC   GL158525  37.027  22.852   5.763
 4567POPC   GL258526  36.656  22.885   5.871
 4567POPC   C1A58527  37.008  22.781   6.233
 4567POPC   D2A58528  37.119  22.670   6.676
 4567POPC   C3A58529  37.051  23.024   6.980
 4567POPC   C4A58530  37.077  22.858   7.398
 4567POPC   C1B58531  36.413  22.719   6.204
 4567POPC   C2B58532  36.599  22.657   6.606
 4567POPC   C3B58533  36.755  22.625   7.043
 4567POPC   C4B58534  36.569  22.875   7.392
 4568POPC   NC358535  36.349  28.965   5.376
 4568POPC   PO458536  35.932  29.490   5.196
 4568POPC   GL158537  36.064  29.273   5.703
 4568POPC   GL258538  35.769  29.194   5.890
 4568POPC   C1A58539  36.224  29.027   6.082
 4568POPC   D2A58540  36.403  29.003   6.501
 4568POPC   C3A58541  36.208  29.101   6.912
 4568POPC   C4A58542  36.387  29.432   7.230
 4568POPC   C1B58543  35.880  29.282   6.340
 4568POPC   C2B58544  35.780  29.345   6.760
 4568POPC   C3B58545  35.870  29.397   7.181
 4568POPC   C4B58546  35.647  29.383   7.529
 4569POPC   NC358547  37.396  41.171   5.415
 4569POPC   PO458548  37.822  40.654   5.477
 4569POPC   GL158549  37.862  40.879   5.880
 4569POPC   GL258550  37.510  40.887   5.854
 4569POPC   C1A58551  37.928  40.947   6.337
 4569POPC   D2A58552  37.698  40.915   6.711
 4569POPC   C3A58553  37.793  40.967   7.161
 4569POPC   C4A58554  37.688  40.641   7.461
 4569POPC   C1B58555  37.495  40.647   6.250
 4569POPC   C2B58556  37.279  40.604   6.649
 4569POPC   C3B58557  37.293  40.856   7.009
 4569POPC   C4B58558  37.219  40.756   7.386
 4570POPC   NC358559  42.245  16.308   5.559
 4570POPC   PO458560  42.604  16.876   5.550
 4570POPC   GL158561  42.233  16.866   5.880
 4570POPC   GL258562  42.192  16.504   6.012
 4570POPC   C1A58563  42.020  16.834   6.321
 4570POPC   D2A58564  42.233  16.616   6.696
 4570POPC   C3A58565  42.215  16.763   7.147
 4570POPC   C4A58566  42.040  16.661   7.576
 4570POPC   C1B58567  42.486  16.337   6.286
 4570POPC   C2B58568  42.743  16.466   6.636
 4570POPC   C3B58569  42.591  16.421   7.049
 4570POPC   C4B58570  42.533  16.553   7.511
 4571POPC   NC358571  22.162  10.256   5.440
 4571POPC   PO458572  22.613  10.739   5.507
 4571POPC   GL158573  22.320  10.602   5.861
 4571POPC   GL258574  21.958  10.463   5.872
 4571POPC   C1A58575  22.216  10.533   6.313
 4571POPC   D2A58576  21.925  10.395   6.682
 4571POPC   C3A58577  22.146  10.531   7.087
 4571POPC   C4A58578  22.532  10.745   7.275
 4571POPC   C1B58579  21.891  10.158   6.227
 4571POPC   C2B58580  22.270  10.044   6.494
 4571POPC   C3B58581  22.216  10.046   6.922
 4571POPC   C4B58582  21.789  10.045   7.050
 4572POPC   NC358583  29.520  38.620   5.506
 4572POPC   PO458584  28.884  38.707   5.391
 4572POPC   GL158585  29.067  38.559   5.780
 4572POPC   GL258586  29.365  38.676   5.980
 4572POPC   C1A58587  28.926  38.531   6.202
 4572POPC   D2A58588  29.036  38.309   6.556
 4572POPC   C3A58589  28.978  38.599   6.868
 4572POPC   C4A58590  28.924  38.385   7.204
 4572POPC   C1B58591  29.496  38.436   6.344
 4572POPC   C2B58592  29.478  38.510   6.809
 4572POPC   C3B58593  29.428  38.329   7.219
 4572POPC   C4B58594  29.558  38.179   7.655
 4573POPC   NC358595  30.542  22.415   5.516
 4573POPC   PO458596  31.074  21.929   5.606
 4573POPC   GL158597  30.762  22.115   5.853
 4573POPC   GL258598  30.825  22.503   5.926
 4573POPC   C1A58599  30.510  21.937   6.180
 4573POPC   D2A58600  30.429  22.113   6.571
 4573POPC   C3A58601  30.554  21.894   6.924
 4573POPC   C4A58602  30.584  21.970   7.336
 4573POPC   C1B58603  30.866  22.297   6.313
 4573POPC   C2B58604  30.979  22.167   6.705
 4573POPC   C3B58605  30.840  22.318   7.087
 4573POPC   C4B58606  30.920  22.320   7.556
 4574POPC   NC358607  27.824  40.648   5.525
 4574POPC   PO458608  27.375  41.182   5.404
 4574POPC   GL158609  27.539  41.008   5.804
 4574POPC   GL258610  27.475  40.667   5.883
 4574POPC   C1A58611  27.779  40.924   6.207
 4574POPC   D2A58612  28.012  40.817   6.600
 4574POPC   C3A58613  27.788  40.768   7.003
 4574POPC   C4A58614  27.707  40.967   7.388
 4574POPC   C1B58615  27.313  40.631   6.249
 4574POPC   C2B58616  27.473  40.588   6.636
 4574POPC   C3B58617  27.277  40.614   7.021
 4574POPC   C4B58618  27.410  40.578   7.427
 4575POPC   NC358619  19.087  35.161   5.477
 4575POPC   PO458620  18.898  35.816   5.249
 4575POPC   GL158621  19.137  35.605   5.690
 4575POPC   GL258622  18.786  35.354   5.808
 4575POPC   C1A58623  19.143  35.582   6.203
 4575POPC   D2A58624  19.347  35.754   6.611
 4575POPC   C3A58625  19.200  35.871   7.055
 4575POPC   C4A58626  19.011  35.757   7.492
 4575POPC   C1B58627  18.950  35.116   6.170
 4575POPC   C2B58628  19.228  35.152   6.533
 4575POPC   C3B58629  19.194  35.384   6.931
 4575POPC   C4B58630  18.929  35.298   7.276
 4576POPC   NC358631  20.435  15.425   5.364
 4576POPC   PO458632  20.428  14.800   5.328
 4576POPC   GL158633  20.560  15.034   5.730
 4576POPC   GL258634  20.744  15.355   5.807
 4576POPC   C1A58635  20.518  15.104   6.193
 4576POPC   D2A58636  20.749  15.112   6.587
 4576POPC   C3A58637  20.663  15.329   6.953
 4576POPC   C4A58638  20.462  15.131   7.252
 4576POPC   C1B58639  20.999  15.326   6.194
 4576POPC   C2B58640  21.042  15.541   6.602
 4576POPC   C3B58641  21.153  15.435   7.014
 4576POPC   C4B58642  21.069  15.570   7.424
 4577POPC   NC358643  11.154  43.099   5.363
 4577POPC   PO458644  11.789  43.228   5.513
 4577POPC   GL158645  11.514  43.140   5.864
 4577POPC   GL258646  11.203  42.948   5.836
 4577POPC   C1A58647  11.518  43.032   6.296
 4577POPC   D2A58648  11.218  43.069   6.646
 4577POPC   C3A58649  11.338  43.323   6.912
 4577POPC   C4A58650  11.500  43.269   7.292
 4577POPC   C1B58651  11.041  43.145   6.187
 4577POPC   C2B58652  10.717  43.146   6.485
 4577POPC   C3B58653  10.767  43.209   6.913
 4577POPC   C4B58654  11.012  43.085   7.232
 4578POPC   NC358655  37.263   2.243   5.462
 4578POPC   PO458656  36.877   1.737   5.230
 4578POPC   GL158657  37.030   1.847   5.695
 4578POPC   GL258658  37.225   1.588   5.887
 4578POPC   C1A58659  37.020   2.063   6.129
 4578POPC   D2A58660  36.761   1.954   6.513
 4578POPC   C3A58661  36.843   2.041   6.948
 4578POPC   C4A58662  36.767   1.897   7.364
 4578POPC   C1B58663  37.292   1.667   6.291
 4578POPC   C2B58664  37.292   1.847   6.682
 4578POPC   C3B58665  37.187   1.682   7.074
 4578POPC   C4B58666  37.206   1.606   7.494
 4579POPC   NC358667  38.608   5.436   5.537
 4579POPC   PO458668  38.294   4.852   5.465
 4579POPC   GL158669  38.448   4.959   5.849
 4579POPC   GL258670  38.662   4.687   5.882
 4579POPC   C1A58671  38.398   5.291   6.171
 4579POPC   D2A58672  38.451   5.389   6.613
 4579POPC   C3A58673  38.424   5.070   6.929
 4579POPC   C4A58674  38.382   5.137   7.359
 4579POPC   C1B58675  38.876   4.649   6.276
 4579POPC   C2B58676  38.913   4.874   6.678
 4579POPC   C3B58677  38.998   4.606   7.037
 4579POPC   C4B58678  38.580   4.643   7.244
 4580POPC   NC358679  26.248  11.604   5.441
 4580POPC   PO458680  25.805  11.212   5.727
 4580POPC   GL158681  26.095  11.344   6.008
 4580POPC   GL258682  26.065  11.665   5.931
 4580POPC   C1A58683  25.940  11.177   6.391
 4580POPC   D2A58684  25.623  11.091   6.663
 4580POPC   C3A58685  25.793  11.033   7.037
 4580POPC   C4A58686  26.082  11.199   7.328
 4580POPC   C1B58687  25.817  11.660   6.322
 4580POPC   C2B58688  25.897  11.535   6.753
 4580POPC   C3B58689  26.143  11.647   7.071
 4580POPC   C4B58690  26.486  11.407   7.096
 4581POPC   NC358691  23.512  33.654   5.672
 4581POPC   PO458692  23.934  33.903   5.211
 4581POPC   GL158693  23.850  34.022   5.741
 4581POPC   GL258694  23.522  34.045   5.981
 4581POPC   C1A58695  23.942  33.912   6.211
 4581POPC   D2A58696  24.122  33.821   6.618
 4581POPC   C3A58697  23.836  33.895   6.998
 4581POPC   C4A58698  23.642  33.561   7.258
 4581POPC   C1B58699  23.418  34.111   6.402
 4581POPC   C2B58700  23.381  33.819   6.741
 4581POPC   C3B58701  23.294  33.900   7.153
 4581POPC   C4B58702  23.568  34.013   7.508
 4582POPC   NC358703  14.286   0.496   5.491
 4582POPC   PO458704  14.762   0.180   5.304
 4582POPC   GL158705  14.560   0.182   5.763
 4582POPC   GL258706  14.600   0.546   5.915
 4582POPC   C1A58707  14.265   0.275   6.170
 4582POPC   D2A58708  14.384   0.643   6.464
 4582POPC   C3A58709  14.285   0.694   6.922
 4582POPC   C4A58710  14.285   0.365   7.280
 4582POPC   C1B58711  14.775   0.202   6.208
 4582POPC   C2B58712  14.624   0.018   6.586
 4582POPC   C3B58713  14.616   0.296   6.920
 4582POPC   C4B58714  14.706   0.666   7.225
 4583POPC   NC358715  26.316  25.760   5.536
 4583POPC   PO458716  25.842  26.330   5.521
 4583POPC   GL158717  25.979  26.067   5.819
 4583POPC   GL258718  26.280  26.189   5.822
 4583POPC   C1A58719  25.902  26.005   6.246
 4583POPC   D2A58720  25.707  26.017   6.610
 4583POPC   C3A58721  25.942  26.087   6.982
 4583POPC   C4A58722  26.008  25.920   7.367
 4583POPC   C1B58723  26.406  25.999   6.197
 4583POPC   C2B58724  26.320  26.013   6.628
 4583POPC   C3B58725  26.343  25.768   7.004
 4583POPC   C4B58726  26.461  26.107   7.270
 4584POPC   NC358727  43.065   1.685   5.547
 4584POPC   PO458728  43.464   1.030   5.429
 4584POPC   GL158729  43.170   1.181   5.728
 4584POPC   GL258730  43.222   1.465   5.971
 4584POPC   C1A58731  43.028   0.961   6.104
 4584POPC   D2A58732  43.136   1.134   6.487
 4584POPC   C3A58733  43.065   1.019   6.900
 4584POPC   C4A58734  42.988   0.994   7.307
 4584POPC   C1B58735  43.165   1.632   6.389
 4584POPC   C2B58736  42.901   1.513   6.754
 4584POPC   C3B58737  43.061   1.481   7.164
 4584POPC   C4B58738  43.077   1.772   7.490
 4585POPC   NC358739  29.013   8.370   5.379
 4585POPC   PO458740  28.724   7.788   5.555
 4585POPC   GL158741  29.079   7.986   5.778
 4585POPC   GL258742  28.969   8.353   5.877
 4585POPC   C1A58743  29.205   8.076   6.218
 4585POPC   D2A58744  28.955   8.242   6.548
 4585POPC   C3A58745  29.013   7.961   6.880
 4585POPC   C4A58746  29.190   8.116   7.242
 4585POPC   C1B58747  29.238   8.577   6.178
 4585POPC   C2B58748  29.230   8.715   6.602
 4585POPC   C3B58749  29.169   8.583   7.035
 4585POPC   C4B58750  29.328   8.551   7.480
 4586POPC   NC358751  30.156  44.138   5.409
 4586POPC   PO458752  30.562  44.746   5.385
 4586POPC   GL158753  30.766  44.664   5.795
 4586POPC   GL258754  31.071  44.870   5.798
 4586POPC   C1A58755  30.793  44.621   6.232
 4586POPC   D2A58756  30.967  44.642   6.629
 4586POPC   C3A58757  30.784  44.490   7.005
 4586POPC   C4A58758  30.994  44.315   7.359
 4586POPC   C1B58759  30.887   0.110   6.156
 4586POPC   C2B58760  30.624   0.045   6.539
 4586POPC   C3B58761  30.770  44.995   6.963
 4586POPC   C4B58762  30.888  44.847   7.379
 4587POPC   NC358763  43.947  31.546   5.512
 4587POPC   PO458764  44.366  31.031   5.187
 4587POPC   GL158765  44.205  31.118   5.688
 4587POPC   GL258766  43.844  31.115   5.840
 4587POPC   C1A58767  44.150  31.387   6.132
 4587POPC   D2A58768  43.854  31.518   6.423
 4587POPC   C3A58769  44.004  31.575   6.824
 4587POPC   C4A58770  43.724  31.628   7.145
 4587POPC   C1B58771  43.790  31.007   6.295
 4587POPC   C2B58772  43.646  31.154   6.730
 4587POPC   C3B58773  43.562  31.151   7.164
 4587POPC   C4B58774  43.718  31.296   7.553
 4588POPC   NC358775  10.437   5.272   5.529
 4588POPC   PO458776  10.994   4.898   5.533
 4588POPC   GL158777  10.727   4.934   5.883
 4588POPC   GL258778  10.404   4.800   5.886
 4588POPC   C1A58779  10.568   5.204   6.203
 4588POPC   D2A58780  10.738   5.135   6.600
 4588POPC   C3A58781  10.531   5.268   6.972
 4588POPC   C4A58782  10.473   5.229   7.396
 4588POPC   C1B58783  10.378   4.729   6.314
 4588POPC   C2B58784  10.262   4.943   6.681
 4588POPC   C3B58785  10.330   4.816   7.109
 4588POPC   C4B58786  10.067   4.882   7.416
 4589POPC   NC358787  29.068   6.755   5.250
 4589POPC   PO458788  29.352   6.253   5.478
 4589POPC   GL158789  29.417   6.649   5.767
 4589POPC   GL258790  29.126   6.867   5.788
 4589POPC   C1A58791  29.496   6.729   6.243
 4589POPC   D2A58792  29.446   6.497   6.682
 4589POPC   C3A58793  29.257   6.418   7.138
 4589POPC   C4A58794  29.416   6.550   7.592
 4589POPC   C1B58795  29.107   7.071   6.193
 4589POPC   C2B58796  29.235   6.975   6.640
 4589POPC   C3B58797  28.998   6.894   7.035
 4589POPC   C4B58798  29.077   7.101   7.428
 4590POPC   NC358799  32.036  22.248   5.383
 4590POPC   PO458800  32.757  22.453   5.392
 4590POPC   GL158801  32.472  22.147   5.642
 4590POPC   GL258802  32.573  21.776   5.646
 4590POPC   C1A58803  32.273  22.182   6.063
 4590POPC   D2A58804  32.473  22.223   6.470
 4590POPC   C3A58805  32.232  22.150   6.844
 4590POPC   C4A58806  32.237  22.344   7.230
 4590POPC   C1B58807  32.685  21.860   6.077
 4590POPC   C2B58808  32.603  21.728   6.481
 4590POPC   C3B58809  32.616  21.788   6.894
 4590POPC   C4B58810  32.419  21.890   7.280
 4591POPC   NC358811   7.781  38.109   5.426
 4591POPC   PO458812   7.456  37.444   5.337
 4591POPC   GL158813   7.340  37.523   5.775
 4591POPC   GL258814   7.552  37.831   5.806
 4591POPC   C1A58815   7.182  37.510   6.242
 4591POPC   D2A58816   7.342  37.363   6.676
 4591POPC   C3A58817   7.158  37.457   7.094
 4591POPC   C4A58818   7.122  37.864   7.306
 4591POPC   C1B58819   7.708  38.059   6.175
 4591POPC   C2B58820   7.719  37.917   6.589
 4591POPC   C3B58821   7.513  37.815   6.954
 4591POPC   C4B58822   7.622  37.757   7.372
 4592POPC   NC358823  34.413  40.518   5.487
 4592POPC   PO458824  34.616  39.859   5.436
 4592POPC   GL158825  34.568  39.998   5.825
 4592POPC   GL258826  34.790  40.270   5.739
 4592POPC   C1A58827  34.432  39.867   6.242
 4592POPC   D2A58828  34.705  39.864   6.623
 4592POPC   C3A58829  34.503  39.765   7.004
 4592POPC   C4A58830  34.428  40.112   7.287
 4592POPC   C1B58831  34.802  40.375   6.180
 4592POPC   C2B58832  34.995  40.311   6.608
 4592POPC   C3B58833  34.941  40.103   7.033
 4592POPC   C4B58834  34.882  40.228   7.478
 4593POPC   NC358835  12.194  43.481   5.548
 4593POPC   PO458836  11.915  44.214   5.404
 4593POPC   GL158837  11.921  44.077   5.798
 4593POPC   GL258838  12.285  44.016   5.877
 4593POPC   C1A58839  11.885  43.843   6.174
 4593POPC   D2A58840  12.037  44.022   6.546
 4593POPC   C3A58841  11.900  43.777   6.868
 4593POPC   C4A58842  11.834  43.849   7.258
 4593POPC   C1B58843  12.391  43.727   6.247
 4593POPC   C2B58844  12.343  43.549   6.680
 4593POPC   C3B58845  12.363  43.728   7.110
 4593POPC   C4B58846  12.264  44.102   7.356
 4594POPC   NC358847   9.408  43.813   5.436
 4594POPC   PO458848   8.866  44.131   5.195
 4594POPC   GL158849   9.054  44.096   5.668
 4594POPC   GL258850   8.779  43.992   5.789
 4594POPC   C1A58851   9.229  43.848   6.069
 4594POPC   D2A58852   8.995  43.652   6.413
 4594POPC   C3A58853   9.086  43.719   6.857
 4594POPC   C4A58854   8.915  43.835   7.238
 4594POPC   C1B58855   8.833  44.106   6.233
 4594POPC   C2B58856   8.696  44.031   6.638
 4594POPC   C3B58857   8.538  44.279   6.957
 4594POPC   C4B58858   8.718  44.307   7.336
 4595POPC   NC358859  20.480  20.777   5.440
 4595POPC   PO458860  20.822  20.268   5.742
 4595POPC   GL158861  20.679  20.671   5.913
 4595POPC   GL258862  20.373  20.552   5.907
 4595POPC   C1A58863  20.424  20.943   6.217
 4595POPC   D2A58864  20.305  20.790   6.614
 4595POPC   C3A58865  20.623  20.756   6.958
 4595POPC   C4A58866  20.796  20.988   7.324
 4595POPC   C1B58867  20.328  20.362   6.319
 4595POPC   C2B58868  20.468  20.251   6.741
 4595POPC   C3B58869  20.474  20.305   7.187
 4595POPC   C4B58870  20.759  20.507   7.494
 4596POPC   NC358871   6.484  10.845   5.379
 4596POPC   PO458872   6.625  11.487   5.391
 4596POPC   GL158873   6.599  11.281   5.747
 4596POPC   GL258874   6.420  11.559   5.886
 4596POPC   C1A58875   6.651  11.205   6.189
 4596POPC   D2A58876   6.801  11.419   6.545
 4596POPC   C3A58877   6.731  11.193   6.926
 4596POPC   C4A58878   6.767  11.365   7.340
 4596POPC   C1B58879   6.237  11.544   6.277
 4596POPC   C2B58880   6.303  11.385   6.692
 4596POPC   C3B58881   6.293  11.362   7.139
 4596POPC   C4B58882   6.298  11.463   7.583
 4597POPC   NC358883  35.605  40.630   5.673
 4597POPC   PO458884  35.771  41.102   5.228
 4597POPC   GL158885  35.961  41.047   5.745
 4597POPC   GL258886  35.746  40.920   6.062
 4597POPC   C1A58887  36.238  40.855   6.131
 4597POPC   D2A58888  36.088  40.798   6.566
 4597POPC   C3A58889  36.365  40.737   6.908
 4597POPC   C4A58890  36.315  40.860   7.312
 4597POPC   C1B58891  35.826  40.481   6.252
 4597POPC   C2B58892  35.688  40.336   6.644
 4597POPC   C3B58893  35.898  40.522   6.987
 4597POPC   C4B58894  35.812  40.823   7.307
 4598POPC   NC358895  31.648  33.554   5.381
 4598POPC   PO458896  31.080  33.962   5.508
 4598POPC   GL158897  31.419  33.972   5.852
 4598POPC   GL258898  31.729  33.735   5.843
 4598POPC   C1A58899  31.630  33.972   6.283
 4598POPC   D2A58900  31.750  34.157   6.680
 4598POPC   C3A58901  31.538  33.918   7.021
 4598POPC   C4A58902  31.325  33.883   7.411
 4598POPC   C1B58903  31.731  33.431   6.173
 4598POPC   C2B58904  31.911  33.301   6.540
 4598POPC   C3B58905  31.694  33.344   6.927
 4598POPC   C4B58906  31.479  33.305   7.301
 4599POPC   NC358907   8.196   3.152   5.402
 4599POPC   PO458908   8.000   3.791   5.290
 4599POPC   GL158909   8.256   3.763   5.677
 4599POPC   GL258910   8.317   3.418   5.866
 4599POPC   C1A58911   8.247   3.878   6.111
 4599POPC   D2A58912   8.121   3.714   6.525
 4599POPC   C3A58913   8.158   3.873   6.931
 4599POPC   C4A58914   8.131   3.741   7.363
 4599POPC   C1B58915   8.196   3.239   6.280
 4599POPC   C2B58916   8.272   3.266   6.719
 4599POPC   C3B58917   8.251   3.287   7.139
 4599POPC   C4B58918   8.194   2.997   7.437
 4600POPC   NC358919  39.436   7.497   5.032
 4600POPC   PO458920  39.970   7.638   5.391
 4600POPC   GL158921  40.052   7.420   5.785
 4600POPC   GL258922  39.813   7.527   6.036
 4600POPC   C1A58923  40.131   7.114   6.136
 4600POPC   D2A58924  40.333   7.156   6.551
 4600POPC   C3A58925  40.163   7.013   6.955
 4600POPC   C4A58926  39.829   7.227   7.155
 4600POPC   C1B58927  40.248   7.591   6.232
 4600POPC   C2B58928  40.456   7.706   6.602
 4600POPC   C3B58929  40.461   7.841   7.030
 4600POPC   C4B58930  40.198   7.567   7.269
 4601POPC   NC358931   4.574  34.771   5.478
 4601POPC   PO458932   4.194  34.211   5.559
 4601POPC   GL158933   4.369  34.441   5.831
 4601POPC   GL258934   4.684  34.375   5.911
 4601POPC   C1A58935   4.276  34.601   6.209
 4601POPC   D2A58936   4.089  34.424   6.553
 4601POPC   C3A58937   4.252  34.588   6.916
 4601POPC   C4A58938   4.222  34.482   7.315
 4601POPC   C1B58939   4.531  34.167   6.293
 4601POPC   C2B58940   4.593  34.235   6.743
 4601POPC   C3B58941   4.759  34.579   6.967
 4601POPC   C4B58942   4.616  34.805   7.308
 4602POPC   NC358943  11.833   9.358   5.422
 4602POPC   PO458944  12.241   8.799   5.493
 4602POPC   GL158945  12.219   8.919   5.875
 4602POPC   GL258946  12.104   9.211   5.848
 4602POPC   C1A58947  12.053   8.886   6.249
 4602POPC   D2A58948  12.051   9.108   6.591
 4602POPC   C3A58949  12.375   8.943   6.816
 4602POPC   C4A58950  12.207   8.917   7.215
 4602POPC   C1B58951  12.410   9.313   6.159
 4602POPC   C2B58952  12.358   9.514   6.531
 4602POPC   C3B58953  12.331   9.432   6.945
 4602POPC   C4B58954  12.394   9.565   7.341
 4603POPC   NC358955  31.613  28.616   5.613
 4603POPC   PO458956  31.850  29.325   5.515
 4603POPC   GL158957  31.578  29.204   5.889
 4603POPC   GL258958  31.407  28.849   6.002
 4603POPC   C1A58959  31.542  29.195   6.342
 4603POPC   D2A58960  31.670  29.008   6.738
 4603POPC   C3A58961  31.520  29.249   7.078
 4603POPC   C4A58962  31.710  29.500   7.312
 4603POPC   C1B58963  31.134  28.653   6.333
 4603POPC   C2B58964  30.954  28.651   6.738
 4603POPC   C3B58965  31.269  28.819   7.008
 4603POPC   C4B58966  31.384  28.778   7.412
 4604POPC   NC358967  34.051   4.782   5.406
 4604POPC   PO458968  34.354   5.427   5.480
 4604POPC   GL158969  33.926   5.210   5.652
 4604POPC   GL258970  33.872   5.364   5.984
 4604POPC   C1A58971  33.686   4.904   5.962
 4604POPC   D2A58972  33.593   5.032   6.414
 4604POPC   C3A58973  33.743   4.885   6.841
 4604POPC   C4A58974  33.625   4.994   7.249
 4604POPC   C1B58975  33.788   5.531   6.378
 4604POPC   C2B58976  33.680   5.403   6.793
 4604POPC   C3B58977  33.923   5.378   7.165
 4604POPC   C4B58978  33.805   5.327   7.597
 4605POPC   NC358979  30.573   6.371   5.450
 4605POPC   PO458980  30.893   6.950   5.298
 4605POPC   GL158981  30.880   6.713   5.725
 4605POPC   GL258982  30.508   6.688   5.839
 4605POPC   C1A58983  30.876   6.602   6.196
 4605POPC   D2A58984  30.950   6.751   6.623
 4605POPC   C3A58985  30.752   6.651   6.997
 4605POPC   C4A58986  30.894   6.769   7.390
 4605POPC   C1B58987  30.454   6.332   6.160
 4605POPC   C2B58988  30.577   6.350   6.603
 4605POPC   C3B58989  30.388   6.310   7.018
 4605POPC   C4B58990  30.606   6.354   7.400
 4606POPC   NC358991  39.057  31.443   5.454
 4606POPC   PO458992  39.582  31.130   5.562
 4606POPC   GL158993  39.322  31.370   5.888
 4606POPC   GL258994  39.095  31.656   5.927
 4606POPC   C1A58995  39.308  31.411   6.321
 4606POPC   D2A58996  39.556  31.526   6.655
 4606POPC   C3A58997  39.316  31.307   6.953
 4606POPC   C4A58998  39.262  31.434   7.356
 4606POPC   C1B58999  39.006  31.887   6.316
 4606POPC   C2B59000  38.924  31.768   6.760
 4606POPC   C3B59001  38.986  31.870   7.202
 4606POPC   C4B59002  38.945  31.748   7.614
 4607POPC   NC359003  22.956  10.369   5.525
 4607POPC   PO459004  23.462  10.879   5.519
 4607POPC   GL159005  23.170  10.721   5.866
 4607POPC   GL259006  23.111  10.362   5.996
 4607POPC   C1A59007  22.912  10.770   6.234
 4607POPC   D2A59008  23.119  10.481   6.507
 4607POPC   C3A59009  23.097  10.481   6.956
 4607POPC   C4A59010  23.074  10.787   7.298
 4607POPC   C1B59011  22.673  10.313   6.222
 4607POPC   C2B59012  22.536  10.437   6.699
 4607POPC   C3B59013  22.657  10.240   7.111
 4607POPC   C4B59014  22.610  10.299   7.555
 4608POPC   NC359015  21.963   5.326   5.341
 4608POPC   PO459016  22.274   4.762   5.391
 4608POPC   GL159017  22.092   5.026   5.756
 4608POPC   GL259018  21.716   5.090   5.775
 4608POPC   C1A59019  22.218   5.181   6.179
 4608POPC   D2A59020  22.492   5.160   6.546
 4608POPC   C3A59021  22.308   4.949   6.888
 4608POPC   C4A59022  22.340   5.072   7.323
 4608POPC   C1B59023  21.746   4.906   6.180
 4608POPC   C2B59024  21.828   4.977   6.610
 4608POPC   C3B59025  21.850   5.074   7.054
 4608POPC   C4B59026  21.863   4.842   7.429
 4609POPC   NC359027  37.709   5.585   5.520
 4609POPC   PO459028  37.318   6.153   5.476
 4609POPC   GL159029  37.345   5.875   5.841
 4609POPC   GL259030  37.324   5.526   5.841
 4609POPC   C1A59031  37.586   5.788   6.236
 4609POPC   D2A59032  37.502   5.957   6.667
 4609POPC   C3A59033  37.806   5.919   6.999
 4609POPC   C4A59034  37.722   6.000   7.444
 4609POPC   C1B59035  37.166   5.506   6.232
 4609POPC   C2B59036  37.389   5.459   6.631
 4609POPC   C3B59037  37.464   5.550   7.052
 4609POPC   C4B59038  37.283   5.896   7.213
 4610POPC   NC359039  22.375  37.927   5.527
 4610POPC   PO459040  22.045  38.541   5.385
 4610POPC   GL159041  22.257  38.558   5.760
 4610POPC   GL259042  22.579  38.749   5.782
 4610POPC   C1A59043  22.122  38.407   6.167
 4610POPC   D2A59044  21.884  38.602   6.494
 4610POPC   C3A59045  22.058  38.563   6.882
 4610POPC   C4A59046  22.108  38.276   7.202
 4610POPC   C1B59047  22.614  38.334   6.030
 4610POPC   C2B59048  22.544  38.203   6.438
 4610POPC   C3B59049  22.527  38.353   6.847
 4610POPC   C4B59050  22.654  38.307   7.226
 4611POPC   NC359051  42.574  18.185   5.475
 4611POPC   PO459052  41.948  17.876   5.533
 4611POPC   GL159053  42.062  18.142   5.877
 4611POPC   GL259054  42.409  18.321   5.928
 4611POPC   C1A59055  42.155  18.111   6.330
 4611POPC   D2A59056  42.561  18.244   6.576
 4611POPC   C3A59057  42.551  18.223   7.049
 4611POPC   C4A59058  42.151  18.097   7.254
 4611POPC   C1B59059  42.090  18.585   6.119
 4611POPC   C2B59060  41.935  18.515   6.519
 4611POPC   C3B59061  42.269  18.634   6.802
 4611POPC   C4B59062  42.191  18.580   7.181
 4612POPC   NC359063  21.514   1.312   5.400
 4612POPC   PO459064  20.928   0.967   5.431
 4612POPC   GL159065  21.172   1.014   5.800
 4612POPC   GL259066  21.316   1.339   5.858
 4612POPC   C1A59067  21.250   0.982   6.250
 4612POPC   D2A59068  21.447   1.016   6.659
 4612POPC   C3A59069  21.183   0.995   7.025
 4612POPC   C4A59070  21.102   1.217   7.417
 4612POPC   C1B59071  21.473   1.547   6.211
 4612POPC   C2B59072  21.318   1.672   6.600
 4612POPC   C3B59073  21.344   1.482   6.998
 4612POPC   C4B59074  21.678   1.470   7.284
 4613POPC   NC359075  20.261  42.117   5.528
 4613POPC   PO459076  20.766  42.590   5.318
 4613POPC   GL159077  20.721  42.343   5.718
 4613POPC   GL259078  20.403  42.441   5.904
 4613POPC   C1A59079  20.775  42.249   6.169
 4613POPC   D2A59080  20.760  42.127   6.601
 4613POPC   C3A59081  20.520  42.371   6.870
 4613POPC   C4A59082  20.767  42.262   7.164
 4613POPC   C1B59083  20.302  42.229   6.324
 4613POPC   C2B59084  20.258  41.970   6.725
 4613POPC   C3B59085  20.263  42.065   7.171
 4613POPC   C4B59086  20.241  42.477   7.316
 4614POPC   NC359087  34.776  34.921   5.473
 4614POPC   PO459088  34.432  35.499   5.407
 4614POPC   GL159089  34.694  35.419   5.798
 4614POPC   GL259090  34.922  35.708   5.899
 4614POPC   C1A59091  34.597  35.266   6.249
 4614POPC   D2A59092  34.295  35.419   6.593
 4614POPC   C3A59093  34.440  35.430   7.012
 4614POPC   C4A59094  34.610  35.091   7.251
 4614POPC   C1B59095  34.730  35.765   6.283
 4614POPC   C2B59096  34.804  35.572   6.676
 4614POPC   C3B59097  34.971  35.407   7.062
 4614POPC   C4B59098  34.767  35.535   7.451
 4615POPC   NC359099   4.920  22.124   5.331
 4615POPC   PO459100   5.456  21.872   5.615
 4615POPC   GL159101   5.230  22.147   5.937
 4615POPC   GL259102   4.896  22.246   5.860
 4615POPC   C1A59103   5.217  22.096   6.389
 4615POPC   D2A59104   5.363  22.411   6.695
 4615POPC   C3A59105   5.219  22.310   7.085
 4615POPC   C4A59106   5.054  21.953   7.235
 4615POPC   C1B59107   4.881  22.465   6.291
 4615POPC   C2B59108   4.877  22.638   6.721
 4615POPC   C3B59109   4.939  22.731   7.175
 4615POPC   C4B59110   5.270  22.632   7.480
 4616POPC   NC359111   4.007  21.855   5.581
 4616POPC   PO459112   3.895  22.476   5.324
 4616POPC   GL159113   3.663  22.331   5.712
 4616POPC   GL259114   3.665  22.660   5.875
 4616POPC   C1A59115   3.414  22.067   6.066
 4616POPC   D2A59116   3.286  22.021   6.521
 4616POPC   C3A59117   3.457  21.833   6.911
 4616POPC   C4A59118   3.625  21.681   7.328
 4616POPC   C1B59119   3.563  22.479   6.303
 4616POPC   C2B59120   3.766  22.130   6.587
 4616POPC   C3B59121   3.831  22.160   7.031
 4616POPC   C4B59122   4.121  22.449   7.142
 4617POPC   NC359123  12.312  23.836   5.622
 4617POPC   PO459124  11.611  24.013   5.680
 4617POPC   GL159125  11.884  23.743   5.927
 4617POPC   GL259126  12.169  23.936   6.079
 4617POPC   C1A59127  11.903  23.651   6.381
 4617POPC   D2A59128  11.725  23.873   6.713
 4617POPC   C3A59129  11.758  23.554   7.028
 4617POPC   C4A59130  11.712  23.346   7.416
 4617POPC   C1B59131  12.473  23.867   6.405
 4617POPC   C2B59132  12.316  24.037   6.794
 4617POPC   C3B59133  11.991  23.998   7.126
 4617POPC   C4B59134  12.053  23.764   7.507
 4618POPC   NC359135  37.692   3.957   5.082
 4618POPC   PO459136  37.175   4.293   5.270
 4618POPC   GL159137  37.380   4.429   5.757
 4618POPC   GL259138  37.646   4.192   5.890
 4618POPC   C1A59139  37.524   4.548   6.222
 4618POPC   D2A59140  37.620   4.239   6.595
 4618POPC   C3A59141  37.430   4.267   7.015
 4618POPC   C4A59142  37.377   4.590   7.343
 4618POPC   C1B59143  37.956   4.208   6.206
 4618POPC   C2B59144  38.142   4.099   6.582
 4618POPC   C3B59145  38.194   3.891   6.993
 4618POPC   C4B59146  37.847   3.885   7.267
 4619POPC   NC359147  19.682   3.377   5.177
 4619POPC   PO459148  20.084   3.922   5.372
 4619POPC   GL159149  19.863   3.886   5.783
 4619POPC   GL259150  19.580   3.660   5.805
 4619POPC   C1A59151  19.893   3.656   6.202
 4619POPC   D2A59152  20.087   3.633   6.580
 4619POPC   C3A59153  19.891   3.661   6.959
 4619POPC   C4A59154  19.999   3.399   7.305
 4619POPC   C1B59155  19.475   3.353   6.178
 4619POPC   C2B59156  19.411   3.350   6.614
 4619POPC   C3B59157  19.574   3.261   7.028
 4619POPC   C4B59158  19.537   3.270   7.470
 4620POPC   NC359159  39.925  29.335   5.154
 4620POPC   PO459160  39.849  28.974   5.646
 4620POPC   GL159161  39.962  29.053   5.992
 4620POPC   GL259162  39.984  29.423   5.931
 4620POPC   C1A59163  39.819  29.185   6.355
 4620POPC   D2A59164  40.034  29.043   6.672
 4620POPC   C3A59165  39.727  29.133   6.936
 4620POPC   C4A59166  39.755  29.154   7.339
 4620POPC   C1B59167  40.311  29.317   6.250
 4620POPC   C2B59168  40.415  29.406   6.669
 4620POPC   C3B59169  40.306  29.196   7.080
 4620POPC   C4B59170  40.194  29.250   7.528
 4621POPC   NC359171  16.843  44.252   5.578
 4621POPC   PO459172  16.888  43.496   5.579
 4621POPC   GL159173  16.654  43.779   5.860
 4621POPC   GL259174  16.264  43.774   5.877
 4621POPC   C1A59175  16.654  44.006   6.241
 4621POPC   D2A59176  16.933  44.116   6.577
 4621POPC   C3A59177  16.887  43.907   6.962
 4621POPC   C4A59178  16.828  44.070   7.397
 4621POPC   C1B59179  16.356  43.598   6.303
 4621POPC   C2B59180  16.473  43.797   6.686
 4621POPC   C3B59181  16.426  43.873   7.135
 4621POPC   C4B59182  16.627  43.620   7.502
 4622POPC   NC359183  28.604  28.769   5.517
 4622POPC   PO459184  28.301  28.104   5.313
 4622POPC   GL159185  28.564  28.268   5.693
 4622POPC   GL259186  28.342  28.504   5.900
 4622POPC   C1A59187  28.681  28.248   6.156
 4622POPC   D2A59188  28.459  28.365   6.535
 4622POPC   C3A59189  28.447  28.186   6.939
 4622POPC   C4A59190  28.278  28.227   7.354
 4622POPC   C1B59191  28.542  28.771   6.225
 4622POPC   C2B59192  28.569  28.839   6.696
 4622POPC   C3B59193  28.392  28.670   7.074
 4622POPC   C4B59194  28.489  28.724   7.492
 4623POPC   NC359195   0.673   7.395   5.413
 4623POPC   PO459196   0.025   7.749   5.595
 4623POPC   GL159197   0.280   7.519   5.903
 4623POPC   GL259198   0.624   7.509   5.884
 4623POPC   C1A59199   0.494   7.635   6.322
 4623POPC   D2A59200   0.369   7.414   6.645
 4623POPC   C3A59201   0.551   7.502   6.981
 4623POPC   C4A59202   0.364   7.196   7.233
 4623POPC   C1B59203   0.499   7.144   6.223
 4623POPC   C2B59204   0.735   7.000   6.614
 4623POPC   C3B59205   0.859   7.094   7.063
 4623POPC   C4B59206   0.794   7.362   7.467
 4624POPC   NC359207  23.190  35.969   5.427
 4624POPC   PO459208  22.700  36.389   5.307
 4624POPC   GL159209  22.914  36.301   5.761
 4624POPC   GL259210  22.941  35.924   5.857
 4624POPC   C1A59211  23.091  36.259   6.216
 4624POPC   D2A59212  23.255  36.106   6.621
 4624POPC   C3A59213  23.057  36.169   6.993
 4624POPC   C4A59214  23.036  36.450   7.333
 4624POPC   C1B59215  23.270  35.781   6.160
 4624POPC   C2B59216  23.258  35.613   6.574
 4624POPC   C3B59217  23.355  35.759   7.020
 4624POPC   C4B59218  23.290  35.746   7.512
 4625POPC   NC359219   8.573  41.230   5.507
 4625POPC   PO459220   8.960  41.846   5.397
 4625POPC   GL159221   8.877  41.579   5.693
 4625POPC   GL259222   8.533  41.661   5.787
 4625POPC   C1A59223   8.913  41.473   6.111
 4625POPC   D2A59224   9.075  41.416   6.517
 4625POPC   C3A59225   8.861  41.166   6.795
 4625POPC   C4A59226   8.966  41.286   7.209
 4625POPC   C1B59227   8.693  41.940   6.091
 4625POPC   C2B59228   8.908  41.923   6.497
 4625POPC   C3B59229   8.884  41.743   6.938
 4625POPC   C4B59230   8.768  41.742   7.393
 4626POPC   NC359231  12.763   0.025   5.497
 4626POPC   PO459232  13.266   0.507   5.403
 4626POPC   GL159233  13.033   0.346   5.788
 4626POPC   GL259234  13.011   0.621   5.972
 4626POPC   C1A59235  12.666   0.288   6.156
 4626POPC   D2A59236  12.470   0.360   6.571
 4626POPC   C3A59237  12.552   0.094   6.938
 4626POPC   C4A59238  12.423   0.339   7.255
 4626POPC   C1B59239  13.159   0.328   6.281
 4626POPC   C2B59240  12.977   0.253   6.672
 4626POPC   C3B59241  12.944   0.414   7.069
 4626POPC   C4B59242  13.191   0.545   7.417
 4627POPC   NC359243   8.179  36.508   5.524
 4627POPC   PO459244   7.889  35.853   5.502
 4627POPC   GL159245   7.894  36.156   5.841
 4627POPC   GL259246   8.279  36.206   5.926
 4627POPC   C1A59247   7.932  36.071   6.288
 4627POPC   D2A59248   8.187  36.198   6.650
 4627POPC   C3A59249   8.070  36.080   7.056
 4627POPC   C4A59250   8.083  36.194   7.510
 4627POPC   C1B59251   8.566  36.389   6.247
 4627POPC   C2B59252   8.510  36.592   6.649
 4627POPC   C3B59253   8.552  36.393   7.054
 4627POPC   C4B59254   8.746  36.322   7.459
 4628POPC   NC359255  14.370  38.650   5.376
 4628POPC   PO459256  14.332  37.970   5.309
 4628POPC   GL159257  14.601  38.246   5.645
 4628POPC   GL259258  14.682  38.613   5.787
 4628POPC   C1A59259  14.542  38.211   6.113
 4628POPC   D2A59260  14.265  38.279   6.493
 4628POPC   C3A59261  14.336  38.433   6.918
 4628POPC   C4A59262  14.399  38.286   7.362
 4628POPC   C1B59263  14.295  38.670   6.086
 4628POPC   C2B59264  14.157  38.823   6.522
 4628POPC   C3B59265  14.059  38.850   7.001
 4628POPC   C4B59266  13.992  38.610   7.374
 4629POPC   NC359267  22.849  24.415   5.268
 4629POPC   PO459268  22.564  24.991   5.574
 4629POPC   GL159269  22.799  24.645   5.811
 4629POPC   GL259270  22.803  24.305   5.756
 4629POPC   C1A59271  23.070  24.464   6.151
 4629POPC   D2A59272  23.196  24.637   6.504
 4629POPC   C3A59273  23.011  24.405   6.803
 4629POPC   C4A59274  23.093  24.465   7.222
 4629POPC   C1B59275  22.587  24.214   6.106
 4629POPC   C2B59276  22.603  24.282   6.513
 4629POPC   C3B59277  22.488  24.225   6.925
 4629POPC   C4B59278  22.546  24.252   7.386
 4630POPC   NC359279  32.907  25.510   5.188
 4630POPC   PO459280  33.007  26.089   5.574
 4630POPC   GL159281  32.870  26.059   5.944
 4630POPC   GL259282  33.221  26.013   6.063
 4630POPC   C1A59283  32.852  26.262   6.334
 4630POPC   D2A59284  33.017  26.118   6.698
 4630POPC   C3A59285  32.910  26.121   7.110
 4630POPC   C4A59286  33.328  26.191   7.266
 4630POPC   C1B59287  32.930  25.756   6.337
 4630POPC   C2B59288  32.968  25.596   6.699
 4630POPC   C3B59289  33.252  25.748   6.970
 4630POPC   C4B59290  33.217  25.697   7.402
 4631POPC   NC359291   6.329  42.537   5.132
 4631POPC   PO459292   5.760  42.339   5.461
 4631POPC   GL159293   6.019  42.163   5.812
 4631POPC   GL259294   6.120  42.439   6.077
 4631POPC   C1A59295   6.174  41.947   6.168
 4631POPC   D2A59296   6.041  41.758   6.516
 4631POPC   C3A59297   6.055  42.022   6.880
 4631POPC   C4A59298   5.884  42.186   7.247
 4631POPC   C1B59299   5.833  42.503   6.384
 4631POPC   C2B59300   5.809  42.475   6.805
 4631POPC   C3B59301   5.452  42.322   6.973
 4631POPC   C4B59302   5.381  42.186   7.349
 4632POPC   NC359303  12.656  23.566   5.185
 4632POPC   PO459304  13.091  23.924   5.464
 4632POPC   GL159305  12.830  23.760   5.815
 4632POPC   GL259306  12.535  23.544   5.946
 4632POPC   C1A59307  12.937  23.653   6.233
 4632POPC   D2A59308  12.996  23.781   6.648
 4632POPC   C3A59309  13.052  23.439   6.922
 4632POPC   C4A59310  12.790  23.553   7.216
 4632POPC   C1B59311  12.528  23.343   6.337
 4632POPC   C2B59312  12.574  23.416   6.755
 4632POPC   C3B59313  12.307  23.594   7.081
 4632POPC   C4B59314  12.486  23.948   7.275
 4633POPC   NC359315  18.170   0.282   5.601
 4633POPC   PO459316  18.380   0.902   5.462
 4633POPC   GL159317  18.392   0.672   5.861
 4633POPC   GL259318  18.632   0.439   5.917
 4633POPC   C1A59319  18.140   0.546   6.216
 4633POPC   D2A59320  17.972   0.683   6.596
 4633POPC   C3A59321  18.051   0.436   6.954
 4633POPC   C4A59322  18.353   0.643   7.209
 4633POPC   C1B59323  18.543   0.217   6.263
 4633POPC   C2B59324  18.487   0.341   6.698
 4633POPC   C3B59325  18.572   0.186   7.123
 4633POPC   C4B59326  18.444   0.252   7.576
 4634POPC   NC359327  33.885   1.052   5.530
 4634POPC   PO459328  33.427   1.645   5.535
 4634POPC   GL159329  33.638   1.384   5.828
 4634POPC   GL259330  33.964   1.463   5.991
 4634POPC   C1A59331  33.667   1.062   6.157
 4634POPC   D2A59332  33.951   1.153   6.506
 4634POPC   C3A59333  33.889   1.014   6.952
 4634POPC   C4A59334  33.596   1.061   7.284
 4634POPC   C1B59335  33.673   1.583   6.312
 4634POPC   C2B59336  33.565   1.655   6.753
 4634POPC   C3B59337  33.802   1.523   7.145
 4634POPC   C4B59338  34.012   1.329   7.527
 4635POPC   NC359339  32.668   0.522   5.374
 4635POPC   PO459340  32.098   0.200   5.455
 4635POPC   GL159341  32.153   0.343   5.866
 4635POPC   GL259342  32.525   0.391   5.849
 4635POPC   C1A59343  32.290   0.198   6.271
 4635POPC   D2A59344  32.221   0.264   6.689
 4635POPC   C3A59345  32.540   0.233   6.973
 4635POPC   C4A59346  32.362   0.165   7.381
 4635POPC   C1B59347  32.717   0.537   6.212
 4635POPC   C2B59348  32.603   0.707   6.604
 4635POPC   C3B59349  32.250   0.755   6.844
 4635POPC   C4B59350  32.411   0.660   7.230
 4636POPC   NC359351   2.969  31.904   5.444
 4636POPC   PO459352   2.528  31.445   5.471
 4636POPC   GL159353   2.626  31.730   5.837
 4636POPC   GL259354   2.987  31.756   5.951
 4636POPC   C1A59355   2.491  31.817   6.276
 4636POPC   D2A59356   2.349  31.813   6.736
 4636POPC   C3A59357   2.635  31.790   7.127
 4636POPC   C4A59358   2.534  31.543   7.568
 4636POPC   C1B59359   2.953  31.650   6.414
 4636POPC   C2B59360   2.709  31.428   6.748
 4636POPC   C3B59361   2.778  31.292   7.205
 4636POPC   C4B59362   2.914  31.205   7.664
 4637POPC   NC359363  16.086  14.552   5.224
 4637POPC   PO459364  16.000  13.936   5.429
 4637POPC   GL159365  16.147  14.333   5.691
 4637POPC   GL259366  15.924  14.614   5.794
 4637POPC   C1A59367  16.249  14.364   6.140
 4637POPC   D2A59368  15.876  14.255   6.405
 4637POPC   C3A59369  15.883  14.163   6.856
 4637POPC   C4A59370  15.640  14.193   7.224
 4637POPC   C1B59371  15.960  14.772   6.251
 4637POPC   C2B59372  15.891  14.674   6.711
 4637POPC   C3B59373  15.817  14.672   7.187
 4637POPC   C4B59374  16.005  14.743   7.637
 4638POPC   NC359375  41.638   8.785   5.388
 4638POPC   PO459376  41.430   9.346   5.606
 4638POPC   GL159377  41.679   9.051   5.858
 4638POPC   GL259378  41.512   8.721   5.887
 4638POPC   C1A59379  41.759   8.938   6.322
 4638POPC   D2A59380  41.837   9.097   6.754
 4638POPC   C3A59381  41.747   8.859   7.127
 4638POPC   C4A59382  42.070   9.031   7.354
 4638POPC   C1B59383  41.279   9.037   6.182
 4638POPC   C2B59384  41.280   8.897   6.605
 4638POPC   C3B59385  41.249   8.708   7.013
 4638POPC   C4B59386  41.253   8.963   7.376
 4639POPC   NC359387  37.350  16.158   5.747
 4639POPC   PO459388  37.883  15.940   5.304
 4639POPC   GL159389  37.746  15.825   5.746
 4639POPC   GL259390  37.790  16.118   5.988
 4639POPC   C1A59391  37.539  15.716   6.169
 4639POPC   D2A59392  37.756  15.934   6.483
 4639POPC   C3A59393  37.696  15.835   6.864
 4639POPC   C4A59394  37.500  15.775   7.205
 4639POPC   C1B59395  38.167  16.033   6.168
 4639POPC   C2B59396  38.247  16.135   6.578
 4639POPC   C3B59397  38.019  16.240   6.931
 4639POPC   C4B59398  37.933  16.000   7.320
 4640POPC   NC359399  22.988  23.252   5.358
 4640POPC   PO459400  22.869  23.948   5.396
 4640POPC   GL159401  22.869  23.789   5.843
 4640POPC   GL259402  22.841  23.400   5.853
 4640POPC   C1A59403  22.986  23.952   6.294
 4640POPC   D2A59404  22.776  23.817   6.699
 4640POPC   C3A59405  22.903  24.010   7.095
 4640POPC   C4A59406  23.005  24.101   7.579
 4640POPC   C1B59407  22.967  23.445   6.289
 4640POPC   C2B59408  23.152  23.450   6.707
 4640POPC   C3B59409  23.077  23.545   7.125
 4640POPC   C4B59410  22.803  23.271   7.368
 4641POPC   NC359411   6.100  19.335   5.452
 4641POPC   PO459412   5.561  18.928   5.409
 4641POPC   GL159413   5.758  19.110   5.802
 4641POPC   GL259414   6.124  19.062   5.898
 4641POPC   C1A59415   5.719  19.300   6.252
 4641POPC   D2A59416   5.570  19.234   6.723
 4641POPC   C3A59417   5.729  18.864   6.993
 4641POPC   C4A59418   5.745  18.739   7.449
 4641POPC   C1B59419   6.260  19.329   6.267
 4641POPC   C2B59420   6.055  19.473   6.650
 4641POPC   C3B59421   5.956  19.327   7.067
 4641POPC   C4B59422   6.231  18.987   7.163
 4642POPC   NC359423  30.468  17.835   5.617
 4642POPC   PO459424  30.962  17.315   5.484
 4642POPC   GL159425  30.829  17.545   5.838
 4642POPC   GL259426  30.499  17.410   5.902
 4642POPC   C1A59427  30.787  17.713   6.248
 4642POPC   D2A59428  30.955  17.512   6.605
 4642POPC   C3A59429  30.703  17.666   6.913
 4642POPC   C4A59430  30.733  17.663   7.323
 4642POPC   C1B59431  30.653  17.208   6.276
 4642POPC   C2B59432  30.517  17.239   6.714
 4642POPC   C3B59433  30.764  17.192   7.110
 4642POPC   C4B59434  30.635  17.204   7.567
 4643POPC   NC359435  34.178   8.085   5.452
 4643POPC   PO459436  34.733   8.336   5.275
 4643POPC   GL159437  34.713   8.372   5.707
 4643POPC   GL259438  34.372   8.447   5.758
 4643POPC   C1A59439  34.631   8.209   6.133
 4643POPC   D2A59440  34.564   8.424   6.507
 4643POPC   C3A59441  34.732   8.330   6.892
 4643POPC   C4A59442  34.578   8.332   7.285
 4643POPC   C1B59443  34.116   8.376   6.129
 4643POPC   C2B59444  34.073   8.546   6.540
 4643POPC   C3B59445  34.204   8.279   6.884
 4643POPC   C4B59446  34.165   8.035   7.257
 4644POPC   NC359447  42.561  21.475   5.355
 4644POPC   PO459448  41.974  21.143   5.426
 4644POPC   GL159449  42.236  21.138   5.822
 4644POPC   GL259450  42.371  21.491   5.862
 4644POPC   C1A59451  42.198  21.192   6.300
 4644POPC   D2A59452  42.006  21.047   6.693
 4644POPC   C3A59453  42.291  21.178   7.031
 4644POPC   C4A59454  42.448  21.061   7.500
 4644POPC   C1B59455  42.114  21.691   6.210
 4644POPC   C2B59456  41.944  21.562   6.629
 4644POPC   C3B59457  42.139  21.675   7.037
 4644POPC   C4B59458  42.457  21.535   7.342
 4645POPC   NC359459  41.662  11.104   5.329
 4645POPC   PO459460  41.651  11.725   5.432
 4645POPC   GL159461  41.638  11.463   5.773
 4645POPC   GL259462  41.428  11.140   5.787
 4645POPC   C1A59463  41.862  11.497   6.162
 4645POPC   D2A59464  41.865  11.183   6.469
 4645POPC   C3A59465  41.564  11.319   6.791
 4645POPC   C4A59466  41.432  11.070   7.168
 4645POPC   C1B59467  41.409  11.292   6.217
 4645POPC   C2B59468  41.141  11.534   6.474
 4645POPC   C3B59469  41.069  11.608   6.901
 4645POPC   C4B59470  41.361  11.567   7.207
 4646POPC   NC359471  13.266  25.973   5.474
 4646POPC   PO459472  12.579  25.844   5.452
 4646POPC   GL159473  12.751  26.131   5.750
 4646POPC   GL259474  12.469  26.345   5.783
 4646POPC   C1A59475  13.033  26.200   6.126
 4646POPC   D2A59476  12.976  25.936   6.495
 4646POPC   C3A59477  13.025  26.074   6.907
 4646POPC   C4A59478  13.141  25.957   7.307
 4646POPC   C1B59479  12.534  26.282   6.232
 4646POPC   C2B59480  12.760  26.418   6.593
 4646POPC   C3B59481  12.583  26.322   6.969
 4646POPC   C4B59482  12.656  26.099   7.302
 4647POPC   NC359483  34.150  20.474   5.557
 4647POPC   PO459484  33.709  20.963   5.352
 4647POPC   GL159485  33.658  20.653   5.705
 4647POPC   GL259486  33.892  20.854   5.873
 4647POPC   C1A59487  33.606  20.559   6.185
 4647POPC   D2A59488  33.738  20.777   6.594
 4647POPC   C3A59489  33.510  20.607   6.949
 4647POPC   C4A59490  33.363  20.749   7.335
 4647POPC   C1B59491  34.098  20.614   6.232
 4647POPC   C2B59492  34.292  20.636   6.610
 4647POPC   C3B59493  34.192  20.762   6.993
 4647POPC   C4B59494  33.889  20.670   7.264
 4648POPC   NC359495   6.102  40.771   5.274
 4648POPC   PO459496   6.762  40.634   5.481
 4648POPC   GL159497   6.988  40.706   5.850
 4648POPC   GL259498   6.701  40.920   5.904
 4648POPC   C1A59499   6.898  40.701   6.294
 4648POPC   D2A59500   6.768  40.877   6.660
 4648POPC   C3A59501   6.865  40.610   6.993
 4648POPC   C4A59502   6.878  40.867   7.303
 4648POPC   C1B59503   6.389  40.868   6.263
 4648POPC   C2B59504   6.263  40.744   6.645
 4648POPC   C3B59505   6.404  40.785   7.051
 4648POPC   C4B59506   6.335  40.685   7.471
 4649POPC   NC359507  35.240  42.675   5.486
 4649POPC   PO459508  35.488  42.038   5.435
 4649POPC   GL159509  35.488  42.254   5.805
 4649POPC   GL259510  35.660  42.553   5.879
 4649POPC   C1A59511  35.316  42.293   6.192
 4649POPC   D2A59512  35.394  42.051   6.552
 4649POPC   C3A59513  35.261  42.125   6.957
 4649POPC   C4A59514  35.574  42.214   7.264
 4649POPC   C1B59515  35.677  42.783   6.220
 4649POPC   C2B59516  35.438  42.614   6.576
 4649POPC   C3B59517  35.484  42.597   6.981
 4649POPC   C4B59518  35.726  42.860   7.237
 4650POPC   NC359519  42.832  22.285   5.417
 4650POPC   PO459520  43.226  21.705   5.557
 4650POPC   GL159521  43.155  22.147   5.794
 4650POPC   GL259522  42.810  22.284   5.924
 4650POPC   C1A59523  43.268  22.486   6.117
 4650POPC   D2A59524  43.368  22.380   6.566
 4650POPC   C3A59525  43.222  22.479   6.987
 4650POPC   C4A59526  43.034  22.228   7.296
 4650POPC   C1B59527  42.952  22.148   6.336
 4650POPC   C2B59528  42.957  22.073   6.773
 4650POPC   C3B59529  42.775  21.830   7.104
 4650POPC   C4B59530  42.794  21.896   7.591
 4651POPC   NC359531  12.214  31.885   5.361
 4651POPC   PO459532  12.025  31.205   5.270
 4651POPC   GL159533  11.928  31.263   5.723
 4651POPC   GL259534  11.869  31.613   5.780
 4651POPC   C1A59535  12.011  31.285   6.205
 4651POPC   D2A59536  11.859  31.432   6.634
 4651POPC   C3A59537  11.945  31.361   7.098
 4651POPC   C4A59538  12.111  31.679   7.384
 4651POPC   C1B59539  11.794  31.775   6.190
 4651POPC   C2B59540  11.928  31.964   6.564
 4651POPC   C3B59541  11.835  31.852   6.972
 4651POPC   C4B59542  11.603  31.812   7.342
 4652POPC   NC359543  37.271  36.123   5.493
 4652POPC   PO459544  36.593  36.256   5.450
 4652POPC   GL159545  36.850  36.097   5.822
 4652POPC   GL259546  37.211  36.131   5.990
 4652POPC   C1A59547  36.801  35.886   6.230
 4652POPC   D2A59548  36.787  36.074   6.645
 4652POPC   C3A59549  36.995  35.897   6.982
 4652POPC   C4A59550  37.246  35.822   7.345
 4652POPC   C1B59551  36.948  36.377   6.252
 4652POPC   C2B59552  37.016  36.566   6.621
 4652POPC   C3B59553  37.120  36.409   6.998
 4652POPC   C4B59554  36.964  36.248   7.375
 4653POPC   NC359555  29.978  25.836   5.458
 4653POPC   PO459556  30.373  26.370   5.451
 4653POPC   GL159557  30.058  26.187   5.810
 4653POPC   GL259558  30.196  25.835   5.911
 4653POPC   C1A59559  29.776  26.097   6.192
 4653POPC   D2A59560  29.791  25.942   6.636
 4653POPC   C3A59561  29.544  25.963   7.044
 4653POPC   C4A59562  29.668  26.068   7.476
 4653POPC   C1B59563  30.281  26.011   6.303
 4653POPC   C2B59564  30.316  25.865   6.715
 4653POPC   C3B59565  30.233  26.053   7.083
 4653POPC   C4B59566  30.340  26.066   7.512
 4654POPC   NC359567  30.695  29.013   5.517
 4654POPC   PO459568  31.327  28.928   5.423
 4654POPC   GL159569  31.066  29.170   5.847
 4654POPC   GL259570  30.776  29.341   5.930
 4654POPC   C1A59571  30.856  29.077   6.328
 4654POPC   D2A59572  30.429  29.151   6.546
 4654POPC   C3A59573  30.434  29.023   6.977
 4654POPC   C4A59574  30.829  28.953   7.186
 4654POPC   C1B59575  31.118  29.504   6.229
 4654POPC   C2B59576  31.303  29.511   6.667
 4654POPC   C3B59577  31.116  29.599   7.078
 4654POPC   C4B59578  30.737  29.431   7.105
 4655POPC   NC359579  23.350  17.374   5.670
 4655POPC   PO459580  22.976  17.972   5.534
 4655POPC   GL159581  22.856  17.657   5.866
 4655POPC   GL259582  22.793  17.296   5.844
 4655POPC   C1A59583  22.941  17.692   6.317
 4655POPC   D2A59584  22.858  17.513   6.733
 4655POPC   C3A59585  23.018  17.717   7.092
 4655POPC   C4A59586  23.135  17.980   7.474
 4655POPC   C1B59587  22.904  17.185   6.299
 4655POPC   C2B59588  23.133  17.065   6.700
 4655POPC   C3B59589  22.929  17.179   7.112
 4655POPC   C4B59590  22.613  17.477   7.269
 4656POPC   NC359591  44.884  43.305   5.392
 4656POPC   PO459592  44.421  43.831   5.308
 4656POPC   GL159593  44.481  43.853   5.789
 4656POPC   GL259594  44.701  44.144   5.847
 4656POPC   C1A59595  44.441  43.605   6.191
 4656POPC   D2A59596  44.509  43.768   6.617
 4656POPC   C3A59597  44.516  43.595   7.014
 4656POPC   C4A59598  44.526  43.816   7.390
 4656POPC   C1B59599  44.809  43.985   6.253
 4656POPC   C2B59600  44.927  44.066   6.686
 4656POPC   C3B59601  44.942  43.960   7.115
 4656POPC   C4B59602  44.859  44.206   7.520
 4657POPC   NC359603  12.941   3.626   5.395
 4657POPC   PO459604  12.440   3.239   5.305
 4657POPC   GL159605  12.540   3.471   5.699
 4657POPC   GL259606  12.471   3.143   5.852
 4657POPC   C1A59607  12.763   3.734   6.060
 4657POPC   D2A59608  12.945   3.856   6.515
 4657POPC   C3A59609  12.895   3.732   7.016
 4657POPC   C4A59610  12.994   3.827   7.504
 4657POPC   C1B59611  12.458   3.372   6.239
 4657POPC   C2B59612  12.526   3.561   6.647
 4657POPC   C3B59613  12.466   3.344   7.042
 4657POPC   C4B59614  12.722   3.397   7.404
 4658POPC   NC359615  28.444  19.290   5.438
 4658POPC   PO459616  27.966  18.935   5.479
 4658POPC   GL159617  28.226  19.006   5.811
 4658POPC   GL259618  28.547  18.833   5.719
 4658POPC   C1A59619  28.122  19.085   6.245
 4658POPC   D2A59620  28.315  19.246   6.626
 4658POPC   C3A59621  28.109  19.169   7.018
 4658POPC   C4A59622  28.265  19.262   7.465
 4658POPC   C1B59623  28.608  18.960   6.151
 4658POPC   C2B59624  28.481  18.750   6.527
 4658POPC   C3B59625  28.535  18.867   6.959
 4658POPC   C4B59626  28.530  18.814   7.402
 4659POPC   NC359627  40.647   0.882   5.688
 4659POPC   PO459628  40.496   0.234   5.510
 4659POPC   GL159629  40.668   0.247   5.922
 4659POPC   GL259630  41.016   0.320   5.873
 4659POPC   C1A59631  40.833   0.260   6.355
 4659POPC   D2A59632  40.605   0.069   6.705
 4659POPC   C3A59633  40.685   0.235   7.089
 4659POPC   C4A59634  40.648   0.577   7.339
 4659POPC   C1B59635  41.177   0.678   6.149
 4659POPC   C2B59636  40.991   0.922   6.497
 4659POPC   C3B59637  40.884   0.752   6.920
 4659POPC   C4B59638  41.025   0.912   7.331
 4660POPC   NC359639  38.031   2.118   5.293
 4660POPC   PO459640  37.545   1.774   5.529
 4660POPC   GL159641  37.749   1.924   5.870
 4660POPC   GL259642  38.072   2.096   5.818
 4660POPC   C1A59643  37.666   2.020   6.309
 4660POPC   D2A59644  37.800   1.991   6.736
 4660POPC   C3A59645  37.505   2.185   7.001
 4660POPC   C4A59646  37.251   2.113   7.346
 4660POPC   C1B59647  38.134   1.818   6.219
 4660POPC   C2B59648  38.093   1.576   6.647
 4660POPC   C3B59649  38.112   1.751   7.079
 4660POPC   C4B59650  37.998   2.195   7.192
 4661POPC   NC359651  16.401  22.115   5.532
 4661POPC   PO459652  15.796  22.262   5.424
 4661POPC   GL159653  15.966  22.213   5.851
 4661POPC   GL259654  15.893  21.899   6.029
 4661POPC   C1A59655  16.125  22.314   6.279
 4661POPC   D2A59656  16.306  22.257   6.696
 4661POPC   C3A59657  16.039  22.419   7.026
 4661POPC   C4A59658  15.765  22.143   7.213
 4661POPC   C1B59659  16.247  21.836   6.324
 4661POPC   C2B59660  16.240  21.741   6.710
 4661POPC   C3B59661  16.223  21.927   7.121
 4661POPC   C4B59662  16.196  21.942   7.575
 4662POPC   NC359663  44.603   5.595   5.101
 4662POPC   PO459664   0.151   5.277   5.371
 4662POPC   GL159665  44.895   5.112   5.761
 4662POPC   GL259666  44.545   4.932   5.701
 4662POPC   C1A59667  44.738   5.107   6.230
 4662POPC   D2A59668  44.765   4.806   6.632
 4662POPC   C3A59669  44.680   5.108   6.946
 4662POPC   C4A59670  44.742   5.403   7.274
 4662POPC   C1B59671  44.478   4.701   6.107
 4662POPC   C2B59672  44.290   4.874   6.499
 4662POPC   C3B59673  44.245   4.841   6.956
 4662POPC   C4B59674  44.305   5.141   7.312
 4663POPC   NC359675   4.368  19.157   5.376
 4663POPC   PO459676   4.215  18.654   5.728
 4663POPC   GL159677   4.529  18.830   5.970
 4663POPC   GL259678   4.380  19.136   5.891
 4663POPC   C1A59679   4.494  18.900   6.426
 4663POPC   D2A59680   4.138  18.910   6.710
 4663POPC   C3A59681   4.152  19.124   7.079
 4663POPC   C4A59682   4.283  19.033   7.496
 4663POPC   C1B59683   4.274  19.346   6.243
 4663POPC   C2B59684   4.404  19.344   6.660
 4663POPC   C3B59685   4.473  19.554   7.001
 4663POPC   C4B59686   4.297  19.517   7.372
 4664POPC   NC359687  11.768  32.522   5.465
 4664POPC   PO459688  12.328  32.319   5.220
 4664POPC   GL159689  12.211  32.262   5.695
 4664POPC   GL259690  11.951  32.406   5.904
 4664POPC   C1A59691  12.241  32.055   6.119
 4664POPC   D2A59692  12.463  32.081   6.507
 4664POPC   C3A59693  12.285  32.122   6.917
 4664POPC   C4A59694  12.492  32.313   7.257
 4664POPC   C1B59695  11.930  32.650   6.290
 4664POPC   C2B59696  11.897  32.488   6.708
 4664POPC   C3B59697  11.998  32.506   7.119
 4664POPC   C4B59698  11.971  32.175   7.382
 4665POPC   NC359699  32.686  19.517   5.573
 4665POPC   PO459700  32.291  20.033   5.487
 4665POPC   GL159701  32.201  19.774   5.873
 4665POPC   GL259702  32.519  19.724   5.987
 4665POPC   C1A59703  32.014  19.806   6.327
 4665POPC   D2A59704  32.072  20.152   6.651
 4665POPC   C3A59705  32.083  20.050   7.110
 4665POPC   C4A59706  32.073  19.657   7.425
 4665POPC   C1B59707  32.756  19.538   6.305
 4665POPC   C2B59708  32.526  19.636   6.669
 4665POPC   C3B59709  32.446  19.668   7.093
 4665POPC   C4B59710  32.552  19.490   7.526
 4666POPC   NC359711  30.597  41.871   5.138
 4666POPC   PO459712  30.993  42.351   5.490
 4666POPC   GL159713  30.866  42.524   5.887
 4666POPC   GL259714  30.581  42.336   5.938
 4666POPC   C1A59715  30.982  42.477   6.321
 4666POPC   D2A59716  30.826  42.269   6.703
 4666POPC   C3A59717  30.685  42.554   6.992
 4666POPC   C4A59718  30.294  42.726   7.130
 4666POPC   C1B59719  30.659  42.007   6.266
 4666POPC   C2B59720  30.413  41.926   6.641
 4666POPC   C3B59721  30.391  42.133   7.010
 4666POPC   C4B59722  30.772  42.117   7.246
 4667POPC   NC359723   0.619  32.353   5.512
 4667POPC   PO459724   0.168  31.880   5.527
 4667POPC   GL159725   0.348  32.176   5.892
 4667POPC   GL259726   0.421  32.579   5.927
 4667POPC   C1A59727   0.424  32.296   6.334
 4667POPC   D2A59728   0.330  32.397   6.724
 4667POPC   C3A59729   0.520  32.198   7.059
 4667POPC   C4A59730   0.551  32.297   7.492
 4667POPC   C1B59731   0.832  32.562   6.233
 4667POPC   C2B59732   0.838  32.446   6.698
 4667POPC   C3B59733   0.688  32.693   7.067
 4667POPC   C4B59734   0.880  32.949   7.404
 4668POPC   NC359735   9.636  26.697   5.389
 4668POPC   PO459736  10.173  27.017   5.494
 4668POPC   GL159737  10.012  26.882   5.908
 4668POPC   GL259738   9.704  26.712   5.905
 4668POPC   C1A59739   9.935  26.815   6.376
 4668POPC   D2A59740   9.680  26.949   6.750
 4668POPC   C3A59741   9.778  26.900   7.190
 4668POPC   C4A59742   9.681  27.181   7.597
 4668POPC   C1B59743   9.570  26.386   6.187
 4668POPC   C2B59744   9.632  26.439   6.624
 4668POPC   C3B59745   9.346  26.580   6.962
 4668POPC   C4B59746   9.276  26.424   7.403
 4669POPC   NC359747  20.520  33.402   5.567
 4669POPC   PO459748  20.664  32.749   5.420
 4669POPC   GL159749  20.634  32.970   5.836
 4669POPC   GL259750  20.319  33.153   5.968
 4669POPC   C1A59751  20.678  32.947   6.277
 4669POPC   D2A59752  20.565  32.869   6.698
 4669POPC   C3A59753  20.852  32.832   7.045
 4669POPC   C4A59754  20.541  32.819   7.314
 4669POPC   C1B59755  20.580  33.464   6.229
 4669POPC   C2B59756  20.738  33.560   6.654
 4669POPC   C3B59757  20.678  33.308   7.019
 4669POPC   C4B59758  20.319  33.300   7.291
 4670POPC   NC359759   7.278  13.911   5.210
 4670POPC   PO459760   7.478  14.525   5.341
 4670POPC   GL159761   7.524  14.583   5.779
 4670POPC   GL259762   7.612  14.931   5.788
 4670POPC   C1A59763   7.474  14.438   6.202
 4670POPC   D2A59764   7.770  14.329   6.542
 4670POPC   C3A59765   7.511  14.360   6.914
 4670POPC   C4A59766   7.507  14.550   7.328
 4670POPC   C1B59767   7.497  15.013   6.221
 4670POPC   C2B59768   7.427  14.792   6.595
 4670POPC   C3B59769   7.252  14.814   6.990
 4670POPC   C4B59770   7.220  14.951   7.421
 4671POPC   NC359771   4.102  13.021   5.334
 4671POPC   PO459772   4.706  13.185   5.447
 4671POPC   GL159773   4.555  12.823   5.710
 4671POPC   GL259774   4.179  12.773   5.803
 4671POPC   C1A59775   4.570  12.574   6.112
 4671POPC   D2A59776   4.357  12.594   6.528
 4671POPC   C3A59777   4.546  12.503   6.924
 4671POPC   C4A59778   4.616  12.805   7.236
 4671POPC   C1B59779   4.015  12.499   6.160
 4671POPC   C2B59780   3.881  12.443   6.616
 4671POPC   C3B59781   3.802  12.624   7.002
 4671POPC   C4B59782   4.121  12.837   7.180
 4672POPC   NC359783   9.651  31.820   5.138
 4672POPC   PO459784   9.761  32.482   5.428
 4672POPC   GL159785   9.679  32.373   5.905
 4672POPC   GL259786   9.515  32.081   5.989
 4672POPC   C1A59787   9.933  32.286   6.279
 4672POPC   D2A59788   9.988  32.141   6.714
 4672POPC   C3A59789   9.859  32.466   6.990
 4672POPC   C4A59790   9.609  32.770   7.188
 4672POPC   C1B59791   9.361  32.391   6.331
 4672POPC   C2B59792   9.327  32.562   6.777
 4672POPC   C3B59793   9.375  32.314   7.142
 4672POPC   C4B59794   9.707  31.974   7.117
 4673POPC   NC359795  13.397  14.399   5.354
 4673POPC   PO459796  14.071  14.322   5.506
 4673POPC   GL159797  13.936  14.373   5.904
 4673POPC   GL259798  13.578  14.378   5.852
 4673POPC   C1A59799  13.815  14.496   6.319
 4673POPC   D2A59800  13.553  14.460   6.648
 4673POPC   C3A59801  13.796  14.658   6.974
 4673POPC   C4A59802  13.994  14.625   7.372
 4673POPC   C1B59803  13.570  14.065   6.182
 4673POPC   C2B59804  13.315  13.958   6.537
 4673POPC   C3B59805  13.206  14.200   6.903
 4673POPC   C4B59806  13.465  14.354   7.252
 4674POPC   NC359807  24.824  29.983   5.314
 4674POPC   PO459808  24.147  29.839   5.299
 4674POPC   GL159809  24.316  29.913   5.716
 4674POPC   GL259810  24.669  29.931   5.805
 4674POPC   C1A59811  24.242  29.925   6.169
 4674POPC   D2A59812  24.266  29.669   6.575
 4674POPC   C3A59813  24.281  29.818   7.026
 4674POPC   C4A59814  24.437  29.650   7.414
 4674POPC   C1B59815  24.708  30.140   6.216
 4674POPC   C2B59816  24.549  30.101   6.635
 4674POPC   C3B59817  24.748  29.999   7.034
 4674POPC   C4B59818  24.728  30.062   7.468
 4675POPC   NC359819  25.426  12.092   5.149
 4675POPC   PO459820  24.784  12.017   5.459
 4675POPC   GL159821  25.039  12.087   5.819
 4675POPC   GL259822  25.352  12.088   5.690
 4675POPC   C1A59823  25.012  12.219   6.272
 4675POPC   D2A59824  24.950  12.064   6.711
 4675POPC   C3A59825  25.096  12.327   7.021
 4675POPC   C4A59826  25.102  12.190   7.460
 4675POPC   C1B59827  25.465  12.022   6.159
 4675POPC   C2B59828  25.458  12.015   6.627
 4675POPC   C3B59829  25.323  11.896   7.080
 4675POPC   C4B59830  25.521  11.902   7.455
 4676POPC   NC359831  33.429  11.990   5.497
 4676POPC   PO459832  34.119  11.783   5.472
 4676POPC   GL159833  33.996  11.799   5.900
 4676POPC   GL259834  33.678  11.967   5.950
 4676POPC   C1A59835  34.019  11.903   6.345
 4676POPC   D2A59836  34.061  12.182   6.704
 4676POPC   C3A59837  34.059  11.916   7.056
 4676POPC   C4A59838  33.729  11.833   7.305
 4676POPC   C1B59839  33.603  12.252   6.308
 4676POPC   C2B59840  33.502  12.327   6.741
 4676POPC   C3B59841  33.715  12.333   7.127
 4676POPC   C4B59842  33.695  12.552   7.533
 4677POPC   NC359843  41.395  14.896   5.439
 4677POPC   PO459844  41.275  15.593   5.452
 4677POPC   GL159845  41.401  15.307   5.816
 4677POPC   GL259846  41.665  15.038   5.843
 4677POPC   C1A59847  41.511  15.244   6.264
 4677POPC   D2A59848  41.307  15.095   6.600
 4677POPC   C3A59849  41.404  15.362   6.912
 4677POPC   C4A59850  41.376  15.142   7.278
 4677POPC   C1B59851  41.774  14.751   6.171
 4677POPC   C2B59852  41.691  14.619   6.578
 4677POPC   C3B59853  41.939  14.604   6.965
 4677POPC   C4B59854  41.603  14.641   7.222
 4678POPC   NC359855   6.675  35.792   5.577
 4678POPC   PO459856   6.415  36.430   5.520
 4678POPC   GL159857   6.541  36.198   5.863
 4678POPC   GL259858   6.290  35.894   5.864
 4678POPC   C1A59859   6.871  36.075   6.199
 4678POPC   D2A59860   7.068  36.039   6.635
 4678POPC   C3A59861   6.805  36.125   7.008
 4678POPC   C4A59862   6.619  36.492   7.157
 4678POPC   C1B59863   6.353  36.007   6.279
 4678POPC   C2B59864   6.490  35.910   6.661
 4678POPC   C3B59865   6.279  36.086   7.000
 4678POPC   C4B59866   6.274  35.908   7.383
 4679POPC   NC359867  21.810   2.841   5.397
 4679POPC   PO459868  21.172   2.629   5.337
 4679POPC   GL159869  21.295   2.626   5.782
 4679POPC   GL259870  21.155   2.928   5.970
 4679POPC   C1A59871  21.425   2.564   6.232
 4679POPC   D2A59872  21.354   2.731   6.647
 4679POPC   C3A59873  21.568   2.517   7.003
 4679POPC   C4A59874  21.483   2.578   7.437
 4679POPC   C1B59875  21.575   3.050   6.204
 4679POPC   C2B59876  21.688   3.229   6.599
 4679POPC   C3B59877  21.552   3.058   7.006
 4679POPC   C4B59878  21.097   3.116   7.172
 4680POPC   NC359879   0.028  31.445   5.654
 4680POPC   PO459880  44.393  31.674   5.613
 4680POPC   GL159881  44.604  31.522   5.942
 4680POPC   GL259882  44.655  31.178   5.907
 4680POPC   C1A59883  44.823  31.664   6.290
 4680POPC   D2A59884   0.116  31.479   6.601
 4680POPC   C3A59885  44.958  31.503   7.015
 4680POPC   C4A59886  44.783  31.806   7.269
 4680POPC   C1B59887  44.759  31.160   6.330
 4680POPC   C2B59888  44.599  31.380   6.663
 4680POPC   C3B59889  44.504  31.311   7.069
 4680POPC   C4B59890  44.291  31.620   7.242
 4681POPC   NC359891  22.998  11.034   5.512
 4681POPC   PO459892  22.881  11.692   5.487
 4681POPC   GL159893  22.611  11.497   5.824
 4681POPC   GL259894  22.665  11.120   5.896
 4681POPC   C1A59895  22.631  11.529   6.265
 4681POPC   D2A59896  22.757  11.215   6.560
 4681POPC   C3A59897  22.742  11.413   6.957
 4681POPC   C4A59898  22.669  11.705   7.278
 4681POPC   C1B59899  23.065  11.252   6.130
 4681POPC   C2B59900  23.343  11.423   6.463
 4681POPC   C3B59901  23.249  11.582   6.880
 4681POPC   C4B59902  23.184  11.293   7.201
 4682POPC   NC359903  30.955  38.016   5.558
 4682POPC   PO459904  30.878  37.386   5.350
 4682POPC   GL159905  30.841  37.428   5.810
 4682POPC   GL259906  30.500  37.347   5.844
 4682POPC   C1A59907  30.717  37.695   6.188
 4682POPC   D2A59908  30.833  37.860   6.599
 4682POPC   C3A59909  30.723  37.765   7.057
 4682POPC   C4A59910  31.010  37.784   7.437
 4682POPC   C1B59911  30.324  37.345   6.255
 4682POPC   C2B59912  30.401  37.525   6.665
 4682POPC   C3B59913  30.479  37.291   7.080
 4682POPC   C4B59914  30.687  37.389   7.477
 4683POPC   NC359915  25.812  38.965   5.511
 4683POPC   PO459916  26.428  39.236   5.568
 4683POPC   GL159917  26.135  39.137   5.855
 4683POPC   GL259918  25.916  39.444   5.930
 4683POPC   C1A59919  25.964  39.031   6.218
 4683POPC   D2A59920  25.783  39.303   6.480
 4683POPC   C3A59921  26.051  39.271   6.799
 4683POPC   C4A59922  26.054  39.082   7.173
 4683POPC   C1B59923  26.270  39.450   6.258
 4683POPC   C2B59924  26.506  39.470   6.667
 4683POPC   C3B59925  26.435  39.430   7.126
 4683POPC   C4B59926  26.208  39.626   7.466
 4684POPC   NC359927   5.222   3.803   5.413
 4684POPC   PO459928   4.596   3.581   5.570
 4684POPC   GL159929   4.954   3.587   5.808
 4684POPC   GL259930   5.149   3.887   5.911
 4684POPC   C1A59931   4.935   3.543   6.230
 4684POPC   D2A59932   5.160   3.380   6.553
 4684POPC   C3A59933   5.092   3.674   6.858
 4684POPC   C4A59934   4.992   3.598   7.284
 4684POPC   C1B59935   5.450   3.673   6.220
 4684POPC   C2B59936   5.602   3.642   6.679
 4684POPC   C3B59937   5.520   3.739   7.144
 4684POPC   C4B59938   5.341   3.796   7.574
 4685POPC   NC359939  24.213  14.145   5.514
 4685POPC   PO459940  24.771  14.507   5.337
 4685POPC   GL159941  24.572  14.482   5.787
 4685POPC   GL259942  24.382  14.194   5.982
 4685POPC   C1A59943  24.477  14.584   6.249
 4685POPC   D2A59944  24.270  14.350   6.574
 4685POPC   C3A59945  24.456  14.440   6.942
 4685POPC   C4A59946  24.245  14.414   7.292
 4685POPC   C1B59947  24.526  13.985   6.311
 4685POPC   C2B59948  24.671  13.876   6.681
 4685POPC   C3B59949  24.776  14.042   7.046
 4685POPC   C4B59950  24.572  14.067   7.440
 4686POPC   NC359951   7.553   5.965   5.385
 4686POPC   PO459952   6.920   5.790   5.614
 4686POPC   GL159953   7.294   5.944   5.810
 4686POPC   GL259954   7.651   5.730   5.827
 4686POPC   C1A59955   7.389   6.151   6.166
 4686POPC   D2A59956   7.199   6.324   6.524
 4686POPC   C3A59957   7.437   6.178   6.847
 4686POPC   C4A59958   7.413   6.127   7.278
 4686POPC   C1B59959   7.382   5.583   6.151
 4686POPC   C2B59960   7.424   5.372   6.526
 4686POPC   C3B59961   7.320   5.560   6.892
 4686POPC   C4B59962   7.384   5.613   7.316
 4687POPC   NC359963   5.552  13.146   5.598
 4687POPC   PO459964   5.824  12.589   5.267
 4687POPC   GL159965   5.811  12.712   5.690
 4687POPC   GL259966   5.538  12.541   5.781
 4687POPC   C1A59967   5.918  12.959   6.091
 4687POPC   D2A59968   6.075  13.253   6.406
 4687POPC   C3A59969   6.082  13.104   6.850
 4687POPC   C4A59970   5.822  13.169   7.220
 4687POPC   C1B59971   5.811  12.449   6.149
 4687POPC   C2B59972   5.871  12.714   6.536
 4687POPC   C3B59973   5.759  12.733   6.965
 4687POPC   C4B59974   5.661  12.712   7.411
 4688POPC   NC359975  43.725  17.181   5.057
 4688POPC   PO459976  44.166  16.701   5.344
 4688POPC   GL159977  44.094  16.616   5.780
 4688POPC   GL259978  44.386  16.770   5.864
 4688POPC   C1A59979  43.795  16.631   6.167
 4688POPC   D2A59980  43.591  16.821   6.561
 4688POPC   C3A59981  43.682  16.616   6.958
 4688POPC   C4A59982  43.803  16.701   7.352
 4688POPC   C1B59983  44.299  16.552   6.259
 4688POPC   C2B59984  44.088  16.686   6.616
 4688POPC   C3B59985  44.189  16.802   7.020
 4688POPC   C4B59986  44.281  16.483   7.293
 4689POPC   NC359987  19.461  39.105   5.415
 4689POPC   PO459988  20.022  39.219   5.351
 4689POPC   GL159989  20.064  39.307   5.785
 4689POPC   GL259990  19.765  39.130   5.851
 4689POPC   C1A59991  20.082  39.226   6.259
 4689POPC   D2A59992  19.847  39.000   6.595
 4689POPC   C3A59993  19.979  39.075   7.017
 4689POPC   C4A59994  20.133  39.421   7.265
 4689POPC   C1B59995  19.578  39.325   6.235
 4689POPC   C2B59996  19.463  39.332   6.691
 4689POPC   C3B59997  19.569  39.372   7.135
 4689POPC   C4B59998  19.438  39.625   7.485
 4690POPC   NC359999  38.167  40.962   5.479
 4690POPC   PO460000  38.466  40.400   5.391
 4690POPC   GL160001  38.503  40.666   5.753
 4690POPC   GL260002  38.820  40.588   5.869
 4690POPC   C1A60003  38.384  40.903   6.111
 4690POPC   D2A60004  38.439  41.090   6.507
 4690POPC   C3A60005  38.197  40.949   6.836
 4690POPC   C4A60006  38.333  40.836   7.229
 4690POPC   C1B60007  38.618  40.415   6.218
 4690POPC   C2B60008  38.366  40.557   6.537
 4690POPC   C3B60009  38.371  40.424   6.935
 4690POPC   C4B60010  38.719  40.436   7.156
 4691POPC   NC360011  15.408  32.087   5.441
 4691POPC   PO460012  14.746  32.073   5.596
 4691POPC   GL160013  15.050  31.977   5.879
 4691POPC   GL260014  15.255  32.287   5.892
 4691POPC   C1A60015  14.981  32.097   6.290
 4691POPC   D2A60016  14.934  32.416   6.578
 4691POPC   C3A60017  15.008  32.412   7.016
 4691POPC   C4A60018  15.012  32.076   7.302
 4691POPC   C1B60019  15.383  32.468   6.294
 4691POPC   C2B60020  15.544  32.426   6.705
 4691POPC   C3B60021  15.487  32.234   7.088
 4691POPC   C4B60022  15.356  32.439   7.419
 4692POPC   NC360023  25.215  14.609   5.316
 4692POPC   PO460024  25.630  14.095   5.532
 4692POPC   GL160025  25.386  14.348   5.841
 4692POPC   GL260026  25.089  14.541   5.801
 4692POPC   C1A60027  25.366  14.502   6.277
 4692POPC   D2A60028  25.550  14.365   6.681
 4692POPC   C3A60029  25.536  14.588   7.053
 4692POPC   C4A60030  25.299  14.368   7.379
 4692POPC   C1B60031  24.906  14.312   6.148
 4692POPC   C2B60032  24.815  14.388   6.574
 4692POPC   C3B60033  25.041  14.450   6.940
 4692POPC   C4B60034  24.812  14.501   7.325
 4693POPC   NC360035   5.232  38.323   5.544
 4693POPC   PO460036   4.582  38.274   5.454
 4693POPC   GL160037   4.808  38.245   5.846
 4693POPC   GL260038   4.922  38.573   5.953
 4693POPC   C1A60039   5.048  38.205   6.254
 4693POPC   D2A60040   5.235  38.143   6.665
 4693POPC   C3A60041   4.950  38.238   6.999
 4693POPC   C4A60042   4.782  38.653   7.151
 4693POPC   C1B60043   5.368  38.596   6.142
 4693POPC   C2B60044   5.494  38.586   6.563
 4693POPC   C3B60045   5.242  38.674   6.915
 4693POPC   C4B60046   5.274  38.869   7.329
 4694POPC   NC360047   2.317   7.970   5.516
 4694POPC   PO460048   3.011   7.956   5.564
 4694POPC   GL160049   2.976   8.195   5.914
 4694POPC   GL260050   2.829   8.559   5.856
 4694POPC   C1A60051   3.190   8.085   6.260
 4694POPC   D2A60052   3.016   7.973   6.634
 4694POPC   C3A60053   2.886   8.293   6.919
 4694POPC   C4A60054   3.140   8.291   7.291
 4694POPC   C1B60055   2.776   8.417   6.318
 4694POPC   C2B60056   2.534   8.053   6.447
 4694POPC   C3B60057   2.494   7.960   6.867
 4694POPC   C4B60058   2.454   8.237   7.220
 4695POPC   NC360059  36.153   7.785   5.377
 4695POPC   PO460060  36.371   8.459   5.349
 4695POPC   GL160061  36.137   8.212   5.695
 4695POPC   GL260062  36.279   7.916   5.840
 4695POPC   C1A60063  35.986   8.216   6.137
 4695POPC   D2A60064  35.934   8.477   6.508
 4695POPC   C3A60065  35.898   8.234   6.891
 4695POPC   C4A60066  36.118   8.267   7.280
 4695POPC   C1B60067  36.440   7.968   6.217
 4695POPC   C2B60068  36.274   8.051   6.588
 4695POPC   C3B60069  36.475   8.181   6.936
 4695POPC   C4B60070  36.575   7.986   7.298
 4696POPC   NC360071  13.110  13.444   5.429
 4696POPC   PO460072  12.562  13.682   5.404
 4696POPC   GL160073  12.815  13.667   5.803
 4696POPC   GL260074  12.962  13.330   5.905
 4696POPC   C1A60075  12.950  13.720   6.244
 4696POPC   D2A60076  12.998  13.542   6.667
 4696POPC   C3A60077  12.842  13.836   6.983
 4696POPC   C4A60078  13.139  13.909   7.314
 4696POPC   C1B60079  12.855  13.188   6.315
 4696POPC   C2B60080  12.536  13.199   6.617
 4696POPC   C3B60081  12.629  13.337   6.996
 4696POPC   C4B60082  13.010  13.415   7.206
 4697POPC   NC360083  32.581  20.433   5.460
 4697POPC   PO460084  32.166  20.970   5.361
 4697POPC   GL160085  32.115  20.876   5.804
 4697POPC   GL260086  32.377  20.835   5.865
 4697POPC   C1A60087  32.152  20.525   6.186
 4697POPC   D2A60088  32.543  20.389   6.478
 4697POPC   C3A60089  32.436  20.408   6.923
 4697POPC   C4A60090  31.991  20.567   6.977
 4697POPC   C1B60091  32.490  20.882   6.307
 4697POPC   C2B60092  32.597  20.863   6.746
 4697POPC   C3B60093  32.396  20.882   7.173
 4697POPC   C4B60094  32.519  20.801   7.649
 4698POPC   NC360095   9.477  12.152   5.523
 4698POPC   PO460096   9.916  11.723   5.309
 4698POPC   GL160097   9.867  11.924   5.788
 4698POPC   GL260098   9.753  12.281   5.936
 4698POPC   C1A60099  10.000  11.980   6.262
 4698POPC   D2A60100  10.224  11.732   6.601
 4698POPC   C3A60101  10.025  11.691   7.039
 4698POPC   C4A60102   9.707  11.953   7.268
 4698POPC   C1B60103   9.488  12.114   6.287
 4698POPC   C2B60104   9.424  12.215   6.739
 4698POPC   C3B60105   9.194  12.277   7.140
 4698POPC   C4B60106   9.351  12.236   7.566
 4699POPC   NC360107  13.689  30.756   5.360
 4699POPC   PO460108  13.795  30.119   5.626
 4699POPC   GL160109  13.603  30.489   5.814
 4699POPC   GL260110  13.351  30.732   5.734
 4699POPC   C1A60111  13.601  30.694   6.208
 4699POPC   D2A60112  13.759  30.826   6.601
 4699POPC   C3A60113  13.702  30.512   6.913
 4699POPC   C4A60114  13.870  30.494   7.316
 4699POPC   C1B60115  13.202  30.984   6.062
 4699POPC   C2B60116  13.145  30.930   6.466
 4699POPC   C3B60117  13.296  30.845   6.851
 4699POPC   C4B60118  13.402  30.749   7.260
 4700POPC   NC360119   9.027   3.701   5.492
 4700POPC   PO460120   8.632   3.132   5.553
 4700POPC   GL160121   8.846   3.388   5.876
 4700POPC   GL260122   8.728   3.753   5.905
 4700POPC   C1A60123   9.117   3.488   6.242
 4700POPC   D2A60124   9.060   3.771   6.600
 4700POPC   C3A60125   9.097   3.643   7.057
 4700POPC   C4A60126   9.243   3.842   7.444
 4700POPC   C1B60127   8.613   3.605   6.327
 4700POPC   C2B60128   8.605   3.665   6.785
 4700POPC   C3B60129   8.614   3.618   7.226
 4700POPC   C4B60130   8.720   3.211   7.398
 4701POPC   NC360131  34.883  20.881   5.380
 4701POPC   PO460132  35.547  20.989   5.401
 4701POPC   GL160133  35.491  20.729   5.750
 4701POPC   GL260134  35.152  20.715   5.793
 4701POPC   C1A60135  35.497  20.596   6.211
 4701POPC   D2A60136  35.633  20.670   6.631
 4701POPC   C3A60137  35.382  20.503   6.944
 4701POPC   C4A60138  35.309  20.195   7.245
 4701POPC   C1B60139  34.996  20.771   6.209
 4701POPC   C2B60140  35.023  20.629   6.591
 4701POPC   C3B60141  35.025  20.851   6.963
 4701POPC   C4B60142  35.169  20.736   7.342
 4702POPC   NC360143  35.235   3.931   5.584
 4702POPC   PO460144  35.612   3.461   5.431
 4702POPC   GL160145  35.633   3.564   5.827
 4702POPC   GL260146  35.683   3.886   5.865
 4702POPC   C1A60147  35.350   3.614   6.172
 4702POPC   D2A60148  35.090   3.534   6.514
 4702POPC   C3A60149  35.210   3.662   6.926
 4702POPC   C4A60150  35.194   3.447   7.309
 4702POPC   C1B60151  35.837   3.740   6.270
 4702POPC   C2B60152  35.634   3.528   6.596
 4702POPC   C3B60153  35.668   3.423   6.999
 4702POPC   C4B60154  35.652   3.682   7.355
 4703POPC   NC360155   9.501   5.203   5.495
 4703POPC   PO460156  10.116   4.910   5.510
 4703POPC   GL160157   9.827   4.904   5.832
 4703POPC   GL260158   9.503   4.713   5.718
 4703POPC   C1A60159   9.933   5.020   6.266
 4703POPC   D2A60160   9.825   5.245   6.643
 4703POPC   C3A60161  10.002   5.244   7.050
 4703POPC   C4A60162   9.692   5.260   7.389
 4703POPC   C1B60163   9.397   4.928   6.119
 4703POPC   C2B60164   9.490   4.862   6.551
 4703POPC   C3B60165   9.451   5.047   6.975
 4703POPC   C4B60166   9.258   4.893   7.358
 4704POPC   NC360167   4.011   0.739   5.576
 4704POPC   PO460168   4.104   0.026   5.504
 4704POPC   GL160169   4.130   0.328   5.846
 4704POPC   GL260170   4.460   0.512   5.859
 4704POPC   C1A60171   4.120   0.522   6.249
 4704POPC   D2A60172   4.333   0.540   6.645
 4704POPC   C3A60173   4.088   0.482   7.002
 4704POPC   C4A60174   3.986   0.526   7.418
 4704POPC   C1B60175   4.605   0.767   6.239
 4704POPC   C2B60176   4.704   0.877   6.664
 4704POPC   C3B60177   4.754   0.560   6.996
 4704POPC   C4B60178   4.509   0.474   7.319
 4705POPC   NC360179  23.740  12.602   5.623
 4705POPC   PO460180  23.931  13.282   5.642
 4705POPC   GL160181  23.734  13.027   5.917
 4705POPC   GL260182  24.042  12.869   5.949
 4705POPC   C1A60183  23.595  12.741   6.267
 4705POPC   D2A60184  23.439  12.456   6.605
 4705POPC   C3A60185  23.429  12.695   6.999
 4705POPC   C4A60186  23.440  13.132   7.170
 4705POPC   C1B60187  24.098  12.597   6.277
 4705POPC   C2B60188  23.931  12.615   6.671
 4705POPC   C3B60189  24.105  12.705   7.053
 4705POPC   C4B60190  23.951  13.060   7.195
 4706POPC   NC360191   0.948   4.129   5.487
 4706POPC   PO460192   1.392   4.693   5.465
 4706POPC   GL160193   1.302   4.411   5.777
 4706POPC   GL260194   0.973   4.546   5.758
 4706POPC   C1A60195   1.422   4.265   6.187
 4706POPC   D2A60196   1.191   4.208   6.564
 4706POPC   C3A60197   1.225   3.926   6.864
 4706POPC   C4A60198   1.607   3.964   7.110
 4706POPC   C1B60199   0.907   4.351   6.160
 4706POPC   C2B60200   0.846   4.557   6.581
 4706POPC   C3B60201   0.859   4.289   6.955
 4706POPC   C4B60202   1.163   4.208   7.278
 4707POPC   NC360203  32.502  28.344   5.245
 4707POPC   PO460204  31.836  28.356   5.267
 4707POPC   GL160205  32.062  28.259   5.678
 4707POPC   GL260206  32.428  28.139   5.718
 4707POPC   C1A60207  32.062  28.165   6.153
 4707POPC   D2A60208  31.826  28.110   6.556
 4707POPC   C3A60209  32.069  28.155   6.919
 4707POPC   C4A60210  32.171  28.443   7.219
 4707POPC   C1B60211  32.543  27.961   6.131
 4707POPC   C2B60212  32.455  28.062   6.570
 4707POPC   C3B60213  32.601  28.191   6.972
 4707POPC   C4B60214  32.427  27.988   7.310
 4708POPC   NC360215  29.646  13.627   5.492
 4708POPC   PO460216  29.152  13.447   5.066
 4708POPC   GL160217  29.033  13.605   5.585
 4708POPC   GL260218  29.308  13.648   5.847
 4708POPC   C1A60219  28.895  13.799   6.060
 4708POPC   D2A60220  29.127  13.949   6.404
 4708POPC   C3A60221  29.031  13.924   6.872
 4708POPC   C4A60222  29.075  13.702   7.299
 4708POPC   C1B60223  29.493  13.632   6.247
 4708POPC   C2B60224  29.324  13.568   6.664
 4708POPC   C3B60225  29.523  13.706   7.034
 4708POPC   C4B60226  29.539  13.570   7.441
 4709POPC   NC360227  12.512  25.443   5.201
 4709POPC   PO460228  13.048  25.170   5.162
 4709POPC   GL160229  12.757  25.125   5.589
 4709POPC   GL260230  12.511  25.406   5.716
 4709POPC   C1A60231  12.699  25.097   6.076
 4709POPC   D2A60232  12.472  24.986   6.474
 4709POPC   C3A60233  12.605  25.167   6.897
 4709POPC   C4A60234  12.989  25.120   7.167
 4709POPC   C1B60235  12.602  25.620   6.129
 4709POPC   C2B60236  12.822  25.430   6.492
 4709POPC   C3B60237  13.004  25.554   6.883
 4709POPC   C4B60238  12.749  25.583   7.240
 4710POPC   NC360239  14.153  27.441   5.553
 4710POPC   PO460240  14.620  27.867   5.305
 4710POPC   GL160241  14.408  27.835   5.750
 4710POPC   GL260242  14.537  27.533   5.905
 4710POPC   C1A60243  14.227  27.766   6.217
 4710POPC   D2A60244  14.245  27.911   6.686
 4710POPC   C3A60245  14.205  27.621   7.036
 4710POPC   C4A60246  14.354  27.645   7.506
 4710POPC   C1B60247  14.714  27.446   6.320
 4710POPC   C2B60248  14.690  27.564   6.748
 4710POPC   C3B60249  14.662  27.398   7.131
 4710POPC   C4B60250  14.836  27.221   7.484
 4711POPC   NC360251   0.320  36.784   5.511
 4711POPC   PO460252  44.620  36.872   5.436
 4711POPC   GL160253  44.773  37.019   5.852
 4711POPC   GL260254   0.110  37.164   5.854
 4711POPC   C1A60255  44.568  37.192   6.212
 4711POPC   D2A60256  44.303  37.046   6.523
 4711POPC   C3A60257  44.410  37.123   6.938
 4711POPC   C4A60258  44.394  36.885   7.321
 4711POPC   C1B60259   0.027  36.944   6.285
 4711POPC   C2B60260  44.821  36.953   6.682
 4711POPC   C3B60261  44.911  36.909   7.128
 4711POPC   C4B60262   0.236  36.648   7.387
 4712POPC   NC360263   1.520  32.461   5.430
 4712POPC   PO460264   0.970  32.063   5.465
 4712POPC   GL160265   1.140  32.115   5.896
 4712POPC   GL260266   1.493  31.994   5.985
 4712POPC   C1A60267   1.077  32.097   6.363
 4712POPC   D2A60268   1.433  32.066   6.671
 4712POPC   C3A60269   1.382  32.299   7.027
 4712POPC   C4A60270   0.992  32.311   7.205
 4712POPC   C1B60271   1.484  32.382   6.253
 4712POPC   C2B60272   1.313  32.622   6.622
 4712POPC   C3B60273   1.227  32.776   7.065
 4712POPC   C4B60274   1.412  32.609   7.446
 4713POPC   NC360275   3.683  34.918   5.370
 4713POPC   PO460276   3.696  35.546   5.190
 4713POPC   GL160277   3.781  35.371   5.685
 4713POPC   GL260278   3.592  35.116   5.845
 4713POPC   C1A60279   3.867  35.469   6.179
 4713POPC   D2A60280   4.006  35.409   6.662
 4713POPC   C3A60281   3.712  35.236   7.015
 4713POPC   C4A60282   3.320  35.423   7.214
 4713POPC   C1B60283   3.407  34.956   6.235
 4713POPC   C2B60284   3.418  35.053   6.661
 4713POPC   C3B60285   3.317  34.906   7.073
 4713POPC   C4B60286   3.458  34.902   7.505
 4714POPC   NC360287  13.844   4.766   5.371
 4714POPC   PO460288  13.470   5.268   5.502
 4714POPC   GL160289  13.631   5.135   5.899
 4714POPC   GL260290  13.655   4.784   5.857
 4714POPC   C1A60291  13.467   5.036   6.325
 4714POPC   D2A60292  13.464   5.121   6.771
 4714POPC   C3A60293  13.696   4.864   7.021
 4714POPC   C4A60294  13.813   5.095   7.369
 4714POPC   C1B60295  13.446   4.551   6.189
 4714POPC   C2B60296  13.386   4.626   6.628
 4714POPC   C3B60297  13.180   4.711   7.012
 4714POPC   C4B60298  13.293   5.033   7.301
 4715POPC   NC360299  43.419  18.604   5.527
 4715POPC   PO460300  43.470  19.245   5.445
 4715POPC   GL160301  43.233  19.176   5.819
 4715POPC   GL260302  43.047  18.859   5.815
 4715POPC   C1A60303  43.166  19.157   6.254
 4715POPC   D2A60304  43.150  19.324   6.671
 4715POPC   C3A60305  43.204  19.079   7.043
 4715POPC   C4A60306  42.954  19.219   7.382
 4715POPC   C1B60307  42.890  18.715   6.203
 4715POPC   C2B60308  43.068  18.790   6.603
 4715POPC   C3B60309  42.891  18.613   6.917
 4715POPC   C4B60310  43.012  18.660   7.308
 4716POPC   NC360311  32.429   5.711   5.690
 4716POPC   PO460312  31.901   5.962   5.383
 4716POPC   GL160313  32.079   6.100   5.839
 4716POPC   GL260314  32.402   5.982   6.095
 4716POPC   C1A60315  31.945   6.077   6.276
 4716POPC   D2A60316  32.302   6.096   6.591
 4716POPC   C3A60317  32.119   5.993   6.963
 4716POPC   C4A60318  31.909   5.585   7.084
 4716POPC   C1B60319  32.320   5.609   6.394
 4716POPC   C2B60320  32.367   5.561   6.841
 4716POPC   C3B60321  32.624   5.861   7.112
 4716POPC   C4B60322  32.747   5.839   7.566
 4717POPC   NC360323  38.285  14.704   5.468
 4717POPC   PO460324  38.926  14.565   5.536
 4717POPC   GL160325  38.689  14.350   5.859
 4717POPC   GL260326  38.349  14.305   5.822
 4717POPC   C1A60327  38.600  14.219   6.300
 4717POPC   D2A60328  38.405  14.132   6.712
 4717POPC   C3A60329  38.578  14.375   7.070
 4717POPC   C4A60330  38.902  14.509   7.395
 4717POPC   C1B60331  38.326  14.642   6.128
 4717POPC   C2B60332  38.234  14.604   6.554
 4717POPC   C3B60333  38.178  14.759   6.953
 4717POPC   C4B60334  38.208  14.589   7.336
 4718POPC   NC360335  20.372  37.162   5.515
 4718POPC   PO460336  20.687  36.606   5.246
 4718POPC   GL160337  20.535  36.580   5.709
 4718POPC   GL260338  20.609  36.888   5.897
 4718POPC   C1A60339  20.418  36.512   6.169
 4718POPC   D2A60340  20.596  36.762   6.489
 4718POPC   C3A60341  20.716  36.653   6.892
 4718POPC   C4A60342  20.690  36.675   7.292
 4718POPC   C1B60343  20.309  37.115   6.184
 4718POPC   C2B60344  20.242  37.088   6.645
 4718POPC   C3B60345  20.306  36.905   7.048
 4718POPC   C4B60346  20.374  37.045   7.467
 4719POPC   NC360347  30.044  28.667   5.266
 4719POPC   PO460348  29.908  29.289   5.289
 4719POPC   GL160349  29.778  29.160   5.707
 4719POPC   GL260350  29.709  29.505   5.823
 4719POPC   C1A60351  29.932  29.046   6.154
 4719POPC   D2A60352  29.911  29.249   6.570
 4719POPC   C3A60353  29.921  28.994   6.920
 4719POPC   C4A60354  30.052  28.868   7.308
 4719POPC   C1B60355  29.802  29.648   6.245
 4719POPC   C2B60356  29.556  29.624   6.620
 4719POPC   C3B60357  29.621  29.422   7.024
 4719POPC   C4B60358  29.934  29.359   7.332
 4720POPC   NC360359  20.356  25.033   5.507
 4720POPC   PO460360  20.897  25.441   5.458
 4720POPC   GL160361  20.666  25.423   5.827
 4720POPC   GL260362  20.464  25.741   5.817
 4720POPC   C1A60363  20.693  25.132   6.213
 4720POPC   D2A60364  20.818  25.068   6.653
 4720POPC   C3A60365  20.474  25.095   6.933
 4720POPC   C4A60366  20.645  25.242   7.288
 4720POPC   C1B60367  20.451  25.577   6.253
 4720POPC   C2B60368  20.585  25.524   6.659
 4720POPC   C3B60369  20.439  25.654   7.057
 4720POPC   C4B60370  20.701  25.821   7.324
 4721POPC   NC360371   8.568  41.669   5.236
 4721POPC   PO460372   8.134  41.179   5.338
 4721POPC   GL160373   8.156  41.321   5.796
 4721POPC   GL260374   7.966  41.622   5.920
 4721POPC   C1A60375   8.183  41.260   6.256
 4721POPC   D2A60376   7.868  41.447   6.519
 4721POPC   C3A60377   7.984  41.627   6.872
 4721POPC   C4A60378   7.808  41.582   7.263
 4721POPC   C1B60379   8.245  41.764   6.275
 4721POPC   C2B60380   8.539  41.539   6.563
 4721POPC   C3B60381   8.464  41.430   7.000
 4721POPC   C4B60382   8.282  41.719   7.292
 4722POPC   NC360383  11.444   4.836   5.498
 4722POPC   PO460384  11.497   5.505   5.223
 4722POPC   GL160385  11.386   5.308   5.724
 4722POPC   GL260386  11.524   5.007   5.956
 4722POPC   C1A60387  11.114   5.203   6.159
 4722POPC   D2A60388  11.269   5.114   6.613
 4722POPC   C3A60389  11.040   5.181   7.009
 4722POPC   C4A60390  11.153   5.144   7.431
 4722POPC   C1B60391  11.646   5.273   6.293
 4722POPC   C2B60392  11.802   5.252   6.700
 4722POPC   C3B60393  11.722   4.944   6.985
 4722POPC   C4B60394  11.672   4.783   7.368
 4723POPC   NC360395  22.509  17.832   5.472
 4723POPC   PO460396  22.439  17.170   5.460
 4723POPC   GL160397  22.292  17.466   5.785
 4723POPC   GL260398  22.137  17.813   5.832
 4723POPC   C1A60399  22.189  17.390   6.194
 4723POPC   D2A60400  22.424  17.347   6.555
 4723POPC   C3A60401  22.299  17.547   6.902
 4723POPC   C4A60402  22.027  17.340   7.214
 4723POPC   C1B60403  21.888  17.811   6.206
 4723POPC   C2B60404  21.908  17.614   6.590
 4723POPC   C3B60405  21.866  17.787   6.989
 4723POPC   C4B60406  22.169  17.818   7.356
 4724POPC   NC360407  28.646  40.675   5.482
 4724POPC   PO460408  28.112  41.079   5.535
 4724POPC   GL160409  28.237  40.952   5.902
 4724POPC   GL260410  28.565  41.084   5.867
 4724POPC   C1A60411  28.200  40.589   6.172
 4724POPC   D2A60412  28.404  40.461   6.544
 4724POPC   C3A60413  28.256  40.536   6.965
 4724POPC   C4A60414  28.474  40.719   7.309
 4724POPC   C1B60415  28.765  41.039   6.231
 4724POPC   C2B60416  28.554  40.940   6.584
 4724POPC   C3B60417  28.354  41.065   6.938
 4724POPC   C4B60418  28.603  41.229   7.261
 4725POPC   NC360419  22.895   4.702   5.224
 4725POPC   PO460420  22.590   5.149   5.630
 4725POPC   GL160421  22.864   5.334   5.932
 4725POPC   GL260422  23.162   5.142   5.853
 4725POPC   C1A60423  22.933   5.349   6.379
 4725POPC   D2A60424  23.033   5.067   6.680
 4725POPC   C3A60425  22.792   5.055   7.003
 4725POPC   C4A60426  22.807   5.327   7.317
 4725POPC   C1B60427  23.342   5.063   6.256
 4725POPC   C2B60428  23.334   4.688   6.534
 4725POPC   C3B60429  23.149   4.650   6.973
 4725POPC   C4B60430  23.195   4.927   7.327
 4726POPC   NC360431  21.204  33.991   5.425
 4726POPC   PO460432  21.669  33.429   5.405
 4726POPC   GL160433  21.474  33.633   5.733
 4726POPC   GL260434  21.567  33.972   5.816
 4726POPC   C1A60435  21.474  33.595   6.157
 4726POPC   D2A60436  21.462  33.368   6.534
 4726POPC   C3A60437  21.373  33.646   6.837
 4726POPC   C4A60438  21.431  33.621   7.265
 4726POPC   C1B60439  21.500  34.124   6.260
 4726POPC   C2B60440  21.515  34.141   6.730
 4726POPC   C3B60441  21.355  34.104   7.127
 4726POPC   C4B60442  21.397  34.121   7.577
 4727POPC   NC360443  20.179  12.278   5.269
 4727POPC   PO460444  19.713  11.818   5.542
 4727POPC   GL160445  19.718  12.147   5.821
 4727POPC   GL260446  19.390  12.288   5.765
 4727POPC   C1A60447  19.927  12.079   6.272
 4727POPC   D2A60448  19.894  12.007   6.699
 4727POPC   C3A60449  20.091  12.017   7.101
 4727POPC   C4A60450  19.785  11.828   7.426
 4727POPC   C1B60451  19.451  12.250   6.223
 4727POPC   C2B60452  19.691  12.463   6.524
 4727POPC   C3B60453  19.622  12.351   6.940
 4727POPC   C4B60454  19.788  12.368   7.327
 4728POPC   NC360455  34.228  13.911   5.187
 4728POPC   PO460456  34.514  13.425   5.536
 4728POPC   GL160457  34.541  13.526   5.956
 4728POPC   GL260458  34.755  13.764   5.906
 4728POPC   C1A60459  34.425  13.602   6.390
 4728POPC   D2A60460  34.665  13.406   6.721
 4728POPC   C3A60461  34.376  13.239   6.930
 4728POPC   C4A60462  34.274  13.582   7.150
 4728POPC   C1B60463  34.916  13.692   6.326
 4728POPC   C2B60464  34.755  13.897   6.706
 4728POPC   C3B60465  34.723  13.843   7.154
 4728POPC   C4B60466  34.631  14.067   7.552
 4729POPC   NC360467  28.583   2.726   5.394
 4729POPC   PO460468  27.995   2.919   5.626
 4729POPC   GL160469  28.213   2.773   6.009
 4729POPC   GL260470  28.483   2.594   5.883
 4729POPC   C1A60471  28.293   2.746   6.477
 4729POPC   D2A60472  28.257   3.058   6.811
 4729POPC   C3A60473  28.289   2.940   7.206
 4729POPC   C4A60474  28.183   2.884   7.611
 4729POPC   C1B60475  28.583   2.353   6.245
 4729POPC   C2B60476  28.702   2.462   6.663
 4729POPC   C3B60477  28.405   2.497   6.964
 4729POPC   C4B60478  28.306   2.443   7.372
 4730POPC   NC360479  44.339  26.147   5.241
 4730POPC   PO460480   0.042  26.081   5.367
 4730POPC   GL160481  44.838  26.290   5.693
 4730POPC   GL260482  44.715  25.984   5.812
 4730POPC   C1A60483  44.651  26.420   6.087
 4730POPC   D2A60484  44.641  26.143   6.456
 4730POPC   C3A60485  44.393  26.170   6.797
 4730POPC   C4A60486  44.446  26.196   7.213
 4730POPC   C1B60487  44.544  25.756   6.165
 4730POPC   C2B60488  44.396  25.691   6.588
 4730POPC   C3B60489  44.679  25.752   6.942
 4730POPC   C4B60490  44.585  25.713   7.376
 4731POPC   NC360491   8.528   1.175   5.120
 4731POPC   PO460492   7.967   1.148   5.486
 4731POPC   GL160493   7.984   1.266   5.944
 4731POPC   GL260494   8.302   1.424   5.988
 4731POPC   C1A60495   7.954   1.340   6.421
 4731POPC   D2A60496   7.735   1.377   6.840
 4731POPC   C3A60497   7.992   1.168   7.162
 4731POPC   C4A60498   7.995   1.333   7.580
 4731POPC   C1B60499   8.428   1.154   6.321
 4731POPC   C2B60500   8.397   1.222   6.742
 4731POPC   C3B60501   8.510   0.947   7.038
 4731POPC   C4B60502   8.455   1.025   7.437
 4732POPC   NC360503  43.898  34.685   5.501
 4732POPC   PO460504  43.201  34.684   5.326
 4732POPC   GL160505  43.000  34.536   5.706
 4732POPC   GL260506  43.262  34.252   5.798
 4732POPC   C1A60507  42.859  34.795   6.071
 4732POPC   D2A60508  42.946  34.758   6.517
 4732POPC   C3A60509  42.634  34.763   6.840
 4732POPC   C4A60510  42.503  34.495   7.190
 4732POPC   C1B60511  43.246  34.478   6.182
 4732POPC   C2B60512  43.233  34.326   6.603
 4732POPC   C3B60513  43.349  34.426   7.005
 4732POPC   C4B60514  43.186  34.264   7.353
 4733POPC   NC360515   3.107   2.096   5.501
 4733POPC   PO460516   2.547   1.642   5.544
 4733POPC   GL160517   2.854   1.798   5.829
 4733POPC   GL260518   2.569   1.953   6.002
 4733POPC   C1A60519   3.047   2.067   6.176
 4733POPC   D2A60520   2.924   2.275   6.570
 4733POPC   C3A60521   3.110   2.151   6.968
 4733POPC   C4A60522   3.049   2.071   7.393
 4733POPC   C1B60523   2.754   1.650   6.309
 4733POPC   C2B60524   2.877   1.752   6.705
 4733POPC   C3B60525   2.690   1.881   7.078
 4733POPC   C4B60526   2.726   1.648   7.444
 4734POPC   NC360527  24.237   1.722   5.542
 4734POPC   PO460528  24.835   2.017   5.577
 4734POPC   GL160529  24.550   1.878   5.917
 4734POPC   GL260530  24.185   2.055   5.926
 4734POPC   C1A60531  24.466   1.993   6.337
 4734POPC   D2A60532  24.416   2.399   6.532
 4734POPC   C3A60533  24.739   2.391   6.846
 4734POPC   C4A60534  24.620   2.213   7.242
 4734POPC   C1B60535  24.117   1.644   6.183
 4734POPC   C2B60536  24.273   1.579   6.609
 4734POPC   C3B60537  24.335   1.822   7.018
 4734POPC   C4B60538  24.363   1.777   7.502
 4735POPC   NC360539   5.931  28.739   5.382
 4735POPC   PO460540   5.938  28.126   5.410
 4735POPC   GL160541   5.975  28.393   5.789
 4735POPC   GL260542   5.648  28.456   5.807
 4735POPC   C1A60543   5.921  28.611   6.220
 4735POPC   D2A60544   6.060  28.774   6.625
 4735POPC   C3A60545   5.960  28.516   6.989
 4735POPC   C4A60546   5.874  28.566   7.431
 4735POPC   C1B60547   5.476  28.258   6.181
 4735POPC   C2B60548   5.544  28.076   6.593
 4735POPC   C3B60549   5.399  27.992   6.998
 4735POPC   C4B60550   5.559  28.120   7.407
 4736POPC   NC360551  23.061  25.696   5.452
 4736POPC   PO460552  22.664  26.265   5.558
 4736POPC   GL160553  22.867  26.010   5.826
 4736POPC   GL260554  23.234  26.062   5.862
 4736POPC   C1A60555  22.761  26.031   6.243
 4736POPC   D2A60556  22.860  25.851   6.609
 4736POPC   C3A60557  22.894  26.232   6.842
 4736POPC   C4A60558  22.679  26.139   7.161
 4736POPC   C1B60559  23.342  25.979   6.319
 4736POPC   C2B60560  23.332  25.978   6.790
 4736POPC   C3B60561  23.218  26.081   7.225
 4736POPC   C4B60562  23.302  25.982   7.682
 4737POPC   NC360563  14.050  26.392   5.543
 4737POPC   PO460564  13.606  26.000   5.150
 4737POPC   GL160565  13.702  25.963   5.742
 4737POPC   GL260566  13.829  26.261   5.954
 4737POPC   C1A60567  13.591  25.908   6.223
 4737POPC   D2A60568  13.784  26.032   6.645
 4737POPC   C3A60569  13.555  25.894   6.991
 4737POPC   C4A60570  13.618  25.768   7.402
 4737POPC   C1B60571  13.665  26.414   6.314
 4737POPC   C2B60572  13.309  26.363   6.562
 4737POPC   C3B60573  13.440  26.371   6.966
 4737POPC   C4B60574  13.538  26.260   7.401
 4738POPC   NC360575   7.650  33.021   5.289
 4738POPC   PO460576   7.132  33.326   5.463
 4738POPC   GL160577   7.421  33.134   5.747
 4738POPC   GL260578   7.352  32.791   5.694
 4738POPC   C1A60579   7.591  33.216   6.140
 4738POPC   D2A60580   7.730  33.167   6.539
 4738POPC   C3A60581   7.409  33.236   6.828
 4738POPC   C4A60582   7.502  33.209   7.238
 4738POPC   C1B60583   7.524  32.683   6.083
 4738POPC   C2B60584   7.475  32.715   6.540
 4738POPC   C3B60585   7.336  32.674   6.984
 4738POPC   C4B60586   7.530  32.732   7.390
 4739POPC   NC360587  10.488  26.695   5.430
 4739POPC   PO460588  10.832  27.266   5.490
 4739POPC   GL160589  10.782  26.927   5.807
 4739POPC   GL260590  10.749  26.540   5.819
 4739POPC   C1A60591  10.703  26.854   6.225
 4739POPC   D2A60592  10.411  27.005   6.479
 4739POPC   C3A60593  10.536  26.817   6.848
 4739POPC   C4A60594  10.545  26.837   7.262
 4739POPC   C1B60595  10.362  26.535   6.054
 4739POPC   C2B60596  10.323  26.495   6.503
 4739POPC   C3B60597  10.074  26.596   6.855
 4739POPC   C4B60598  10.164  26.504   7.265
 4740POPC   NC360599  41.404  23.104   5.389
 4740POPC   PO460600  41.446  22.397   5.478
 4740POPC   GL160601  41.406  22.771   5.772
 4740POPC   GL260602  41.744  22.964   5.788
 4740POPC   C1A60603  41.446  23.092   6.155
 4740POPC   D2A60604  41.579  23.175   6.581
 4740POPC   C3A60605  41.407  22.947   6.920
 4740POPC   C4A60606  41.183  23.087   7.285
 4740POPC   C1B60607  41.940  22.986   6.247
 4740POPC   C2B60608  42.035  22.979   6.701
 4740POPC   C3B60609  41.887  22.879   7.104
 4740POPC   C4B60610  41.699  23.091   7.430
 4741POPC   NC360611  29.188  35.208   5.250
 4741POPC   PO460612  29.584  35.612   5.493
 4741POPC   GL160613  29.398  35.518   5.909
 4741POPC   GL260614  29.380  35.185   5.841
 4741POPC   C1A60615  29.041  35.513   6.242
 4741POPC   D2A60616  28.985  35.296   6.651
 4741POPC   C3A60617  29.208  35.421   7.026
 4741POPC   C4A60618  29.483  35.780   7.003
 4741POPC   C1B60619  29.305  35.084   6.274
 4741POPC   C2B60620  29.397  34.926   6.671
 4741POPC   C3B60621  29.316  34.933   7.093
 4741POPC   C4B60622  28.940  35.021   7.300
 4742POPC   NC360623  34.666  25.686   5.254
 4742POPC   PO460624  34.406  25.028   5.400
 4742POPC   GL160625  34.404  25.405   5.676
 4742POPC   GL260626  34.737  25.533   5.747
 4742POPC   C1A60627  34.332  25.547   6.122
 4742POPC   D2A60628  34.524  25.357   6.502
 4742POPC   C3A60629  34.423  25.431   6.901
 4742POPC   C4A60630  34.437  25.104   7.162
 4742POPC   C1B60631  34.738  25.215   6.073
 4742POPC   C2B60632  34.996  25.072   6.480
 4742POPC   C3B60633  34.888  25.081   6.928
 4742POPC   C4B60634  34.882  25.120   7.403
 4743POPC   NC360635  39.601  34.580   5.439
 4743POPC   PO460636  39.202  34.094   5.355
 4743POPC   GL160637  39.120  34.416   5.751
 4743POPC   GL260638  39.372  34.707   5.867
 4743POPC   C1A60639  38.965  34.633   6.173
 4743POPC   D2A60640  38.760  34.638   6.598
 4743POPC   C3A60641  39.038  34.454   6.910
 4743POPC   C4A60642  39.328  34.574   7.230
 4743POPC   C1B60643  39.618  34.989   6.176
 4743POPC   C2B60644  39.807  34.936   6.626
 4743POPC   C3B60645  39.625  34.970   7.050
 4743POPC   C4B60646  39.690  34.856   7.474
 4744POPC   NC360647  31.014   3.185   5.520
 4744POPC   PO460648  30.803   3.793   5.507
 4744POPC   GL160649  30.816   3.575   5.904
 4744POPC   GL260650  30.608   3.857   6.049
 4744POPC   C1A60651  30.578   3.234   6.157
 4744POPC   D2A60652  30.321   3.178   6.551
 4744POPC   C3A60653  30.550   3.365   6.892
 4744POPC   C4A60654  30.835   3.383   7.207
 4744POPC   C1B60655  30.930   3.825   6.376
 4744POPC   C2B60656  30.877   3.836   6.846
 4744POPC   C3B60657  31.145   3.774   7.194
 4744POPC   C4B60658  31.131   3.627   7.606
 4745POPC   NC360659  35.620  35.156   5.619
 4745POPC   PO460660  36.210  35.476   5.441
 4745POPC   GL160661  36.151  35.226   5.801
 4745POPC   GL260662  36.274  35.500   6.007
 4745POPC   C1A60663  36.261  35.032   6.193
 4745POPC   D2A60664  36.302  35.298   6.543
 4745POPC   C3A60665  35.982  35.195   6.810
 4745POPC   C4A60666  36.192  35.218   7.179
 4745POPC   C1B60667  35.901  35.464   6.250
 4745POPC   C2B60668  35.833  35.746   6.586
 4745POPC   C3B60669  36.070  35.677   6.923
 4745POPC   C4B60670  35.894  35.647   7.269
 4746POPC   NC360671  18.944  16.095   5.441
 4746POPC   PO460672  19.038  15.424   5.271
 4746POPC   GL160673  19.061  15.572   5.821
 4746POPC   GL260674  18.941  15.918   5.928
 4746POPC   C1A60675  19.137  15.691   6.319
 4746POPC   D2A60676  18.946  15.888   6.730
 4746POPC   C3A60677  19.049  15.938   7.166
 4746POPC   C4A60678  19.309  15.908   7.524
 4746POPC   C1B60679  18.697  16.020   6.302
 4746POPC   C2B60680  18.746  16.359   6.593
 4746POPC   C3B60681  18.582  16.293   6.949
 4746POPC   C4B60682  18.535  16.003   7.254
 4747POPC   NC360683   7.450   2.853   5.248
 4747POPC   PO460684   7.056   2.326   5.608
 4747POPC   GL160685   7.276   2.728   5.724
 4747POPC   GL260686   7.588   2.847   5.748
 4747POPC   C1A60687   7.237   2.955   6.113
 4747POPC   D2A60688   7.214   2.775   6.540
 4747POPC   C3A60689   7.315   2.971   6.936
 4747POPC   C4A60690   7.240   2.715   7.314
 4747POPC   C1B60691   7.727   3.067   6.125
 4747POPC   C2B60692   7.772   2.919   6.554
 4747POPC   C3B60693   7.853   3.012   6.973
 4747POPC   C4B60694   7.705   2.896   7.354
 4748POPC   NC360695  33.938  28.745   5.270
 4748POPC   PO460696  34.117  29.286   5.695
 4748POPC   GL160697  33.862  29.117   5.980
 4748POPC   GL260698  33.657  28.877   5.785
 4748POPC   C1A60699  33.818  29.095   6.433
 4748POPC   D2A60700  34.005  28.857   6.756
 4748POPC   C3A60701  34.047  29.045   7.124
 4748POPC   C4A60702  33.941  29.420   7.346
 4748POPC   C1B60703  33.414  29.061   6.161
 4748POPC   C2B60704  33.313  29.201   6.551
 4748POPC   C3B60705  33.564  29.147   6.891
 4748POPC   C4B60706  33.569  29.055   7.291
 4749POPC   NC360707  30.927  19.398   5.515
 4749POPC   PO460708  30.400  19.652   5.530
 4749POPC   GL160709  30.686  19.740   5.879
 4749POPC   GL260710  30.730  20.107   5.851
 4749POPC   C1A60711  30.702  19.872   6.343
 4749POPC   D2A60712  30.509  19.648   6.670
 4749POPC   C3A60713  30.719  19.647   7.062
 4749POPC   C4A60714  30.829  19.843   7.475
 4749POPC   C1B60715  30.337  20.069   6.088
 4749POPC   C2B60716  30.259  20.110   6.519
 4749POPC   C3B60717  30.598  20.128   6.832
 4749POPC   C4B60718  30.410  20.028   7.228
 4750POPC   NC360719  18.429  23.881   5.245
 4750POPC   PO460720  18.420  23.151   5.220
 4750POPC   GL160721  18.426  23.503   5.616
 4750POPC   GL260722  18.710  23.816   5.653
 4750POPC   C1A60723  18.234  23.524   6.064
 4750POPC   D2A60724  18.233  23.764   6.482
 4750POPC   C3A60725  17.952  23.619   6.804
 4750POPC   C4A60726  17.914  23.532   7.231
 4750POPC   C1B60727  18.625  23.837   6.101
 4750POPC   C2B60728  18.660  23.475   6.432
 4750POPC   C3B60729  18.474  23.490   6.859
 4750POPC   C4B60730  18.413  23.816   7.147
 4751POPC   NC360731  18.191  20.563   5.373
 4751POPC   PO460732  18.814  20.629   5.373
 4751POPC   GL160733  18.575  20.862   5.734
 4751POPC   GL260734  18.174  20.853   5.810
 4751POPC   C1A60735  18.516  20.894   6.195
 4751POPC   D2A60736  18.370  20.668   6.561
 4751POPC   C3A60737  18.352  20.781   6.991
 4751POPC   C4A60738  18.600  20.517   7.258
 4751POPC   C1B60739  18.138  20.485   6.116
 4751POPC   C2B60740  18.223  20.181   6.480
 4751POPC   C3B60741  18.326  20.267   6.912
 4751POPC   C4B60742  18.069  20.457   7.269
 4752POPC   NC360743  22.247   8.601   5.536
 4752POPC   PO460744  21.729   8.957   5.507
 4752POPC   GL160745  21.961   9.104   5.868
 4752POPC   GL260746  22.342   9.039   5.860
 4752POPC   C1A60747  21.987   8.930   6.279
 4752POPC   D2A60748  22.338   8.781   6.507
 4752POPC   C3A60749  22.199   8.793   6.942
 4752POPC   C4A60750  22.175   8.612   7.330
 4752POPC   C1B60751  22.402   9.268   6.267
 4752POPC   C2B60752  22.387   9.228   6.730
 4752POPC   C3B60753  22.411   9.218   7.178
 4752POPC   C4B60754  22.350   9.393   7.612
 4753POPC   NC360755  11.196  14.165   5.420
 4753POPC   PO460756  11.512  14.805   5.384
 4753POPC   GL160757  11.346  14.559   5.750
 4753POPC   GL260758  11.583  14.272   5.788
 4753POPC   C1A60759  11.170  14.343   6.143
 4753POPC   D2A60760  11.270  14.121   6.545
 4753POPC   C3A60761  11.287  14.292   6.970
 4753POPC   C4A60762  11.049  14.569   7.256
 4753POPC   C1B60763  11.658  14.095   6.220
 4753POPC   C2B60764  11.785  14.020   6.685
 4753POPC   C3B60765  11.750  14.049   7.148
 4753POPC   C4B60766  11.429  14.162   7.489
 4754POPC   NC360767  12.714  41.397   5.468
 4754POPC   PO460768  12.433  41.960   5.734
 4754POPC   GL160769  12.862  41.748   5.824
 4754POPC   GL260770  12.938  41.381   5.967
 4754POPC   C1A60771  13.116  41.860   6.170
 4754POPC   D2A60772  13.177  41.990   6.611
 4754POPC   C3A60773  12.920  41.732   6.906
 4754POPC   C4A60774  12.940  41.765   7.340
 4754POPC   C1B60775  12.599  41.516   6.227
 4754POPC   C2B60776  12.460  41.678   6.609
 4754POPC   C3B60777  12.485  41.413   6.928
 4754POPC   C4B60778  12.502  41.554   7.272
 4755POPC   NC360779  21.601   6.778   5.408
 4755POPC   PO460780  22.112   6.362   5.608
 4755POPC   GL160781  21.745   6.596   5.867
 4755POPC   GL260782  21.354   6.710   5.841
 4755POPC   C1A60783  21.564   6.577   6.286
 4755POPC   D2A60784  21.659   6.393   6.693
 4755POPC   C3A60785  21.499   6.651   6.999
 4755POPC   C4A60786  21.496   6.592   7.403
 4755POPC   C1B60787  21.020   6.723   6.159
 4755POPC   C2B60788  21.001   6.637   6.578
 4755POPC   C3B60789  20.993   6.746   6.991
 4755POPC   C4B60790  20.967   6.923   7.381
 4756POPC   NC360791  40.491   2.887   5.449
 4756POPC   PO460792  39.844   2.668   5.487
 4756POPC   GL160793  40.113   2.613   5.811
 4756POPC   GL260794  40.187   2.948   5.843
 4756POPC   C1A60795  40.001   2.672   6.233
 4756POPC   D2A60796  39.751   2.670   6.581
 4756POPC   C3A60797  39.964   2.704   6.961
 4756POPC   C4A60798  39.840   2.539   7.335
 4756POPC   C1B60799  40.204   3.162   6.230
 4756POPC   C2B60800  40.046   3.106   6.635
 4756POPC   C3B60801  40.168   3.203   7.041
 4756POPC   C4B60802  40.012   3.051   7.419
 4757POPC   NC360803  38.924  12.422   5.575
 4757POPC   PO460804  39.243  13.050   5.300
 4757POPC   GL160805  39.204  13.183   5.735
 4757POPC   GL260806  39.204  12.827   5.851
 4757POPC   C1A60807  39.072  13.240   6.192
 4757POPC   D2A60808  38.885  13.052   6.565
 4757POPC   C3A60809  38.965  13.173   6.972
 4757POPC   C4A60810  39.290  13.092   7.234
 4757POPC   C1B60811  39.277  12.716   6.319
 4757POPC   C2B60812  39.186  12.688   6.793
 4757POPC   C3B60813  39.271  12.523   7.206
 4757POPC   C4B60814  39.267  12.761   7.609
 4758POPC   NC360815  11.516  13.362   5.426
 4758POPC   PO460816  11.135  13.797   5.142
 4758POPC   GL160817  11.001  13.753   5.654
 4758POPC   GL260818  11.063  13.391   5.745
 4758POPC   C1A60819  11.159  13.817   6.130
 4758POPC   D2A60820  11.477  13.656   6.461
 4758POPC   C3A60821  11.371  13.758   6.882
 4758POPC   C4A60822  11.429  13.672   7.299
 4758POPC   C1B60823  11.236  13.315   6.171
 4758POPC   C2B60824  11.097  13.270   6.621
 4758POPC   C3B60825  11.179  13.285   7.071
 4758POPC   C4B60826  11.155  13.291   7.558
 4759POPC   NC360827  30.291  15.300   5.437
 4759POPC   PO460828  29.700  14.867   5.411
 4759POPC   GL160829  29.929  15.045   5.754
 4759POPC   GL260830  29.896  15.407   5.758
 4759POPC   C1A60831  29.750  15.113   6.164
 4759POPC   D2A60832  29.685  15.413   6.483
 4759POPC   C3A60833  29.855  15.236   6.818
 4759POPC   C4A60834  29.828  15.207   7.241
 4759POPC   C1B60835  30.107  15.525   6.155
 4759POPC   C2B60836  30.287  15.430   6.579
 4759POPC   C3B60837  30.205  15.531   7.024
 4759POPC   C4B60838  30.025  15.647   7.390
 4760POPC   NC360839  24.742  35.742   5.218
 4760POPC   PO460840  24.361  35.204   5.281
 4760POPC   GL160841  24.528  35.396   5.691
 4760POPC   GL260842  24.225  35.584   5.803
 4760POPC   C1A60843  24.777  35.246   6.096
 4760POPC   D2A60844  24.909  34.984   6.489
 4760POPC   C3A60845  24.797  35.179   6.889
 4760POPC   C4A60846  24.624  35.164   7.283
 4760POPC   C1B60847  24.241  35.239   6.109
 4760POPC   C2B60848  24.431  35.179   6.495
 4760POPC   C3B60849  24.268  35.232   6.910
 4760POPC   C4B60850  24.234  35.541   7.230
 4761POPC   NC360851  26.969  30.750   5.429
 4761POPC   PO460852  26.401  30.399   5.329
 4761POPC   GL160853  26.673  30.464   5.739
 4761POPC   GL260854  26.475  30.460   6.025
 4761POPC   C1A60855  26.938  30.529   6.184
 4761POPC   D2A60856  26.913  30.682   6.653
 4761POPC   C3A60857  26.875  30.755   7.132
 4761POPC   C4A60858  27.213  30.970   7.418
 4761POPC   C1B60859  26.453  30.546   6.469
 4761POPC   C2B60860  26.531  30.407   6.908
 4761POPC   C3B60861  26.540  30.433   7.364
 4761POPC   C4B60862  26.597  30.548   7.795
 4762POPC   NC360863   2.603  36.472   5.202
 4762POPC   PO460864   3.064  36.167   5.369
 4762POPC   GL160865   2.786  36.185   5.714
 4762POPC   GL260866   2.856  36.504   5.863
 4762POPC   C1A60867   2.709  36.116   6.194
 4762POPC   D2A60868   2.483  36.263   6.611
 4762POPC   C3A60869   2.644  36.109   7.036
 4762POPC   C4A60870   3.038  35.918   7.201
 4762POPC   C1B60871   2.752  36.602   6.322
 4762POPC   C2B60872   2.982  36.424   6.678
 4762POPC   C3B60873   3.017  36.461   7.121
 4762POPC   C4B60874   2.659  36.473   7.414
 4763POPC   NC360875  32.017  31.469   5.268
 4763POPC   PO460876  31.286  31.493   5.301
 4763POPC   GL160877  31.352  31.655   5.823
 4763POPC   GL260878  31.609  31.793   6.068
 4763POPC   C1A60879  31.255  31.502   6.250
 4763POPC   D2A60880  31.471  31.653   6.625
 4763POPC   C3A60881  31.290  31.515   7.001
 4763POPC   C4A60882  31.422  31.355   7.405
 4763POPC   C1B60883  31.327  32.063   6.247
 4763POPC   C2B60884  31.127  32.062   6.636
 4763POPC   C3B60885  31.285  32.031   7.041
 4763POPC   C4B60886  31.686  31.877   7.094
 4764POPC   NC360887  33.509  30.800   5.351
 4764POPC   PO460888  34.227  30.670   5.208
 4764POPC   GL160889  33.921  30.686   5.629
 4764POPC   GL260890  34.008  30.464   5.900
 4764POPC   C1A60891  33.791  30.905   6.091
 4764POPC   D2A60892  33.528  30.990   6.484
 4764POPC   C3A60893  33.739  30.907   6.895
 4764POPC   C4A60894  34.150  30.672   6.880
 4764POPC   C1B60895  33.662  30.424   6.114
 4764POPC   C2B60896  33.748  30.514   6.515
 4764POPC   C3B60897  33.516  30.463   6.853
 4764POPC   C4B60898  33.638  30.521   7.255
 4765POPC   NC360899  10.858  20.778   5.413
 4765POPC   PO460900  11.396  20.402   5.220
 4765POPC   GL160901  11.313  20.568   5.673
 4765POPC   GL260902  10.983  20.509   5.830
 4765POPC   C1A60903  11.426  20.637   6.129
 4765POPC   D2A60904  11.284  20.682   6.604
 4765POPC   C3A60905  11.537  20.703   6.974
 4765POPC   C4A60906  11.343  20.673   7.368
 4765POPC   C1B60907  10.932  20.475   6.286
 4765POPC   C2B60908  10.824  20.409   6.764
 4765POPC   C3B60909  10.989  20.344   7.218
 4765POPC   C4B60910  11.061  20.371   7.696
 4766POPC   NC360911  25.378   9.341   5.509
 4766POPC   PO460912  24.937   9.725   5.232
 4766POPC   GL160913  25.050   9.769   5.690
 4766POPC   GL260914  25.010   9.438   5.871
 4766POPC   C1A60915  25.157   9.920   6.136
 4766POPC   D2A60916  25.099   9.778   6.582
 4766POPC   C3A60917  25.107   9.955   7.008
 4766POPC   C4A60918  25.366  10.201   7.270
 4766POPC   C1B60919  25.285   9.437   6.259
 4766POPC   C2B60920  25.282   9.346   6.727
 4766POPC   C3B60921  25.029   9.456   7.058
 4766POPC   C4B60922  24.818   9.663   7.381
 4767POPC   NC360923   6.149  11.592   5.461
 4767POPC   PO460924   5.740  11.021   5.404
 4767POPC   GL160925   5.904  11.214   5.781
 4767POPC   GL260926   6.188  11.002   5.846
 4767POPC   C1A60927   5.747  11.332   6.200
 4767POPC   D2A60928   5.596  11.559   6.563
 4767POPC   C3A60929   5.860  11.552   6.931
 4767POPC   C4A60930   5.817  11.400   7.364
 4767POPC   C1B60931   6.150  11.018   6.300
 4767POPC   C2B60932   5.867  11.108   6.646
 4767POPC   C3B60933   5.873  10.988   7.057
 4767POPC   C4B60934   6.098  11.008   7.461
 4768POPC   NC360935   7.905  29.475   5.411
 4768POPC   PO460936   7.270  29.165   5.381
 4768POPC   GL160937   7.118  29.291   5.794
 4768POPC   GL260938   7.134  29.646   5.763
 4768POPC   C1A60939   7.331  29.358   6.204
 4768POPC   D2A60940   7.611  29.487   6.555
 4768POPC   C3A60941   7.496  29.277   6.907
 4768POPC   C4A60942   7.635  29.049   7.258
 4768POPC   C1B60943   6.966  29.718   6.154
 4768POPC   C2B60944   7.014  29.560   6.576
 4768POPC   C3B60945   7.002  29.430   6.983
 4768POPC   C4B60946   7.133  29.070   7.207
 4769POPC   NC360947  17.045  32.042   5.526
 4769POPC   PO460948  16.336  32.013   5.479
 4769POPC   GL160949  16.613  32.335   5.741
 4769POPC   GL260950  16.971  32.496   5.715
 4769POPC   C1A60951  16.791  32.366   6.175
 4769POPC   D2A60952  16.857  32.106   6.516
 4769POPC   C3A60953  16.548  32.133   6.828
 4769POPC   C4A60954  16.492  32.101   7.254
 4769POPC   C1B60955  17.218  32.645   6.099
 4769POPC   C2B60956  17.278  32.485   6.518
 4769POPC   C3B60957  16.990  32.474   6.847
 4769POPC   C4B60958  16.931  32.365   7.268
 4770POPC   NC360959  28.435  22.884   5.401
 4770POPC   PO460960  28.086  23.531   5.386
 4770POPC   GL160961  28.100  23.159   5.726
 4770POPC   GL260962  28.475  23.125   5.835
 4770POPC   C1A60963  28.152  23.044   6.210
 4770POPC   D2A60964  28.039  23.029   6.683
 4770POPC   C3A60965  28.365  23.101   7.008
 4770POPC   C4A60966  28.262  23.269   7.403
 4770POPC   C1B60967  28.685  22.979   6.186
 4770POPC   C2B60968  28.549  22.901   6.565
 4770POPC   C3B60969  28.776  22.747   6.876
 4770POPC   C4B60970  28.894  23.010   7.163
 4771POPC   NC360971  39.362  14.668   5.390
 4771POPC   PO460972  39.185  14.040   5.172
 4771POPC   GL160973  39.267  14.149   5.620
 4771POPC   GL260974  39.492  14.402   5.786
 4771POPC   C1A60975  39.120  14.191   6.063
 4771POPC   D2A60976  39.267  14.274   6.474
 4771POPC   C3A60977  39.047  14.307   6.848
 4771POPC   C4A60978  39.296  14.247   7.210
 4771POPC   C1B60979  39.316  14.663   6.131
 4771POPC   C2B60980  39.258  14.790   6.592
 4771POPC   C3B60981  39.194  14.757   7.052
 4771POPC   C4B60982  39.385  14.688   7.475
 4772POPC   NC360983  35.465  35.948   5.411
 4772POPC   PO460984  34.925  36.366   5.486
 4772POPC   GL160985  35.191  36.154   5.801
 4772POPC   GL260986  35.509  36.352   5.758
 4772POPC   C1A60987  35.397  36.086   6.223
 4772POPC   D2A60988  35.369  36.408   6.550
 4772POPC   C3A60989  35.227  36.410   6.982
 4772POPC   C4A60990  35.164  36.329   7.416
 4772POPC   C1B60991  35.786  36.422   6.107
 4772POPC   C2B60992  35.875  36.284   6.515
 4772POPC   C3B60993  35.688  36.156   6.920
 4772POPC   C4B60994  35.591  36.032   7.365
 4773POPC   NC360995  28.881  31.274   5.017
 4773POPC   PO460996  29.173  31.148   5.552
 4773POPC   GL160997  29.272  31.260   5.972
 4773POPC   GL260998  29.254  31.602   6.014
 4773POPC   C1A60999  29.122  31.290   6.411
 4773POPC   D2A61000  29.110  31.565   6.803
 4773POPC   C3A61001  28.967  31.406   7.218
 4773POPC   C4A61002  29.037  31.253   7.629
 4773POPC   C1B61003  29.432  31.749   6.419
 4773POPC   C2B61004  29.538  31.899   6.831
 4773POPC   C3B61005  29.550  31.932   7.292
 4773POPC   C4B61006  29.319  31.657   7.556
 4774POPC   NC361007   0.287  27.267   5.741
 4774POPC   PO461008   0.549  27.702   5.329
 4774POPC   GL161009   0.416  27.777   5.779
 4774POPC   GL261010   0.122  27.728   5.960
 4774POPC   C1A61011   0.539  27.695   6.237
 4774POPC   D2A61012   0.665  27.322   6.470
 4774POPC   C3A61013   0.575  27.370   6.895
 4774POPC   C4A61014   0.861  27.397   7.180
 4774POPC   C1B61015  44.969  27.423   6.237
 4774POPC   C2B61016   0.167  27.432   6.596
 4774POPC   C3B61017   0.326  27.823   6.772
 4774POPC   C4B61018   0.165  27.975   7.180
 4775POPC   NC361019  20.102  37.994   5.254
 4775POPC   PO461020  19.468  38.070   5.309
 4775POPC   GL161021  19.741  37.804   5.671
 4775POPC   GL261022  20.098  37.936   5.759
 4775POPC   C1A61023  19.952  37.558   6.088
 4775POPC   D2A61024  20.188  37.580   6.530
 4775POPC   C3A61025  19.959  37.555   6.959
 4775POPC   C4A61026  19.517  37.409   7.154
 4775POPC   C1B61027  20.195  38.008   6.204
 4775POPC   C2B61028  20.051  38.069   6.642
 4775POPC   C3B61029  19.953  38.081   7.079
 4775POPC   C4B61030  20.214  38.100   7.427
 4776POPC   NC361031  13.025   1.902   5.424
 4776POPC   PO461032  12.472   2.245   5.199
 4776POPC   GL161033  12.610   2.188   5.640
 4776POPC   GL261034  12.974   2.234   5.812
 4776POPC   C1A61035  12.602   1.907   6.012
 4776POPC   D2A61036  12.827   2.007   6.405
 4776POPC   C3A61037  12.878   1.769   6.765
 4776POPC   C4A61038  12.690   1.770   7.146
 4776POPC   C1B61039  13.126   2.394   6.245
 4776POPC   C2B61040  13.034   2.374   6.729
 4776POPC   C3B61041  13.025   2.164   7.174
 4776POPC   C4B61042  13.183   2.138   7.634
 4777POPC   NC361043  12.970  10.026   5.493
 4777POPC   PO461044  13.056   9.353   5.479
 4777POPC   GL161045  12.786   9.574   5.831
 4777POPC   GL261046  13.018   9.837   5.956
 4777POPC   C1A61047  12.585   9.852   6.208
 4777POPC   D2A61048  12.426   9.998   6.637
 4777POPC   C3A61049  12.615   9.860   6.981
 4777POPC   C4A61050  12.783   9.976   7.375
 4777POPC   C1B61051  12.988   9.557   6.309
 4777POPC   C2B61052  13.003   9.609   6.744
 4777POPC   C3B61053  12.952   9.544   7.189
 4777POPC   C4B61054  13.188   9.713   7.561
 4778POPC   NC361055   2.547  11.221   5.374
 4778POPC   PO461056   3.195  11.034   5.350
 4778POPC   GL161057   2.916  11.209   5.734
 4778POPC   GL261058   2.635  11.098   5.857
 4778POPC   C1A61059   2.730  11.481   6.175
 4778POPC   D2A61060   2.828  11.726   6.601
 4778POPC   C3A61061   2.661  11.548   6.987
 4778POPC   C4A61062   2.795  11.415   7.392
 4778POPC   C1B61063   2.861  11.004   6.240
 4778POPC   C2B61064   2.714  11.165   6.628
 4778POPC   C3B61065   2.751  11.011   7.034
 4778POPC   C4B61066   2.945  10.910   7.405
 4779POPC   NC361067   8.709  29.347   5.142
 4779POPC   PO461068   8.159  29.038   5.502
 4779POPC   GL161069   8.147  29.289   5.857
 4779POPC   GL261070   8.432  29.086   5.984
 4779POPC   C1A61071   8.033  29.289   6.280
 4779POPC   D2A61072   8.089  29.026   6.612
 4779POPC   C3A61073   8.014  29.250   6.972
 4779POPC   C4A61074   8.132  28.969   7.285
 4779POPC   C1B61075   8.553  29.354   6.326
 4779POPC   C2B61076   8.479  29.346   6.769
 4779POPC   C3B61077   8.467  29.362   7.193
 4779POPC   C4B61078   8.631  29.615   7.489
 4780POPC   NC361079   2.472  40.066   5.185
 4780POPC   PO461080   1.941  39.785   5.582
 4780POPC   GL161081   1.691  39.947   5.928
 4780POPC   GL261082   1.867  40.221   5.891
 4780POPC   C1A61083   1.596  40.277   6.294
 4780POPC   D2A61084   1.854  40.352   6.658
 4780POPC   C3A61085   1.637  40.200   7.020
 4780POPC   C4A61086   1.756  39.947   7.338
 4780POPC   C1B61087   2.005  39.953   6.313
 4780POPC   C2B61088   1.981  39.872   6.788
 4780POPC   C3B61089   2.231  39.968   7.166
 4780POPC   C4B61090   2.506  39.698   7.389
 4781POPC   NC361091  34.369  39.521   5.627
 4781POPC   PO461092  34.633  38.876   5.616
 4781POPC   GL161093  34.679  39.226   5.890
 4781POPC   GL261094  34.897  39.536   5.790
 4781POPC   C1A61095  34.453  39.181   6.255
 4781POPC   D2A61096  34.507  38.849   6.553
 4781POPC   C3A61097  34.588  38.913   6.982
 4781POPC   C4A61098  34.351  39.229   7.168
 4781POPC   C1B61099  34.836  39.541   6.256
 4781POPC   C2B61100  34.687  39.346   6.678
 4781POPC   C3B61101  34.854  39.371   7.091
 4781POPC   C4B61102  34.835  39.730   7.399
 4782POPC   NC361103  27.613  28.678   5.606
 4782POPC   PO461104  27.640  29.290   5.364
 4782POPC   GL161105  27.451  29.329   5.799
 4782POPC   GL261106  27.348  29.007   5.891
 4782POPC   C1A61107  27.508  29.322   6.279
 4782POPC   D2A61108  27.691  29.186   6.695
 4782POPC   C3A61109  27.474  29.265   7.114
 4782POPC   C4A61110  27.498  29.571   7.475
 4782POPC   C1B61111  27.613  28.813   6.228
 4782POPC   C2B61112  27.554  28.566   6.575
 4782POPC   C3B61113  27.543  28.750   6.942
 4782POPC   C4B61114  27.515  28.733   7.343
 4783POPC   NC361115  15.488  32.963   5.370
 4783POPC   PO461116  14.876  33.138   5.395
 4783POPC   GL161117  15.165  33.173   5.748
 4783POPC   GL261118  15.284  32.821   5.832
 4783POPC   C1A61119  15.186  33.368   6.160
 4783POPC   D2A61120  15.051  33.339   6.576
 4783POPC   C3A61121  15.199  33.267   7.014
 4783POPC   C4A61122  14.905  32.913   7.197
 4783POPC   C1B61123  15.071  32.879   6.252
 4783POPC   C2B61124  15.152  32.846   6.708
 4783POPC   C3B61125  15.389  32.803   7.087
 4783POPC   C4B61126  15.270  32.918   7.544
 4784POPC   NC361127  39.420  42.662   5.492
 4784POPC   PO461128  38.989  43.244   5.439
 4784POPC   GL161129  39.067  43.045   5.785
 4784POPC   GL261130  38.728  43.164   5.901
 4784POPC   C1A61131  39.425  43.073   6.072
 4784POPC   D2A61132  39.373  42.972   6.509
 4784POPC   C3A61133  39.439  43.109   6.918
 4784POPC   C4A61134  39.426  42.920   7.305
 4784POPC   C1B61135  38.878  42.917   6.239
 4784POPC   C2B61136  38.869  42.952   6.663
 4784POPC   C3B61137  38.974  43.280   6.944
 4784POPC   C4B61138  38.935  43.078   7.315
 4785POPC   NC361139   7.089  24.955   5.194
 4785POPC   PO461140   7.117  25.631   5.089
 4785POPC   GL161141   7.394  25.441   5.534
 4785POPC   GL261142   7.374  25.093   5.671
 4785POPC   C1A61143   7.440  25.394   6.071
 4785POPC   D2A61144   7.461  25.654   6.496
 4785POPC   C3A61145   7.328  25.604   6.938
 4785POPC   C4A61146   7.525  25.537   7.374
 4785POPC   C1B61147   7.310  24.882   6.101
 4785POPC   C2B61148   7.484  24.844   6.519
 4785POPC   C3B61149   7.560  25.141   6.858
 4785POPC   C4B61150   7.485  25.032   7.282
 4786POPC   NC361151   8.017  42.463   5.490
 4786POPC   PO461152   8.168  41.786   5.439
 4786POPC   GL161153   8.237  42.099   5.838
 4786POPC   GL261154   8.315  42.489   5.900
 4786POPC   C1A61155   8.046  42.243   6.250
 4786POPC   D2A61156   7.850  42.074   6.617
 4786POPC   C3A61157   8.057  42.116   6.999
 4786POPC   C4A61158   7.906  42.227   7.368
 4786POPC   C1B61159   8.558  42.401   6.284
 4786POPC   C2B61160   8.516  42.202   6.705
 4786POPC   C3B61161   8.546  42.156   7.163
 4786POPC   C4B61162   8.345  42.145   7.564
 4787POPC   NC361163  22.903   1.504   5.651
 4787POPC   PO461164  22.883   0.853   5.472
 4787POPC   GL161165  23.085   1.037   5.814
 4787POPC   GL261166  22.733   1.105   5.901
 4787POPC   C1A61167  23.113   1.246   6.234
 4787POPC   D2A61168  22.919   1.299   6.636
 4787POPC   C3A61169  23.091   1.369   7.020
 4787POPC   C4A61170  23.201   1.137   7.382
 4787POPC   C1B61171  22.592   1.106   6.294
 4787POPC   C2B61172  22.649   0.862   6.648
 4787POPC   C3B61173  22.704   1.061   7.085
 4787POPC   C4B61174  22.709   1.235   7.540
 4788POPC   NC361175  40.732  37.377   5.559
 4788POPC   PO461176  40.979  37.910   5.243
 4788POPC   GL161177  40.680  37.907   5.605
 4788POPC   GL261178  40.934  37.768   5.798
 4788POPC   C1A61179  40.573  38.009   6.074
 4788POPC   D2A61180  40.773  37.970   6.503
 4788POPC   C3A61181  40.523  37.901   6.873
 4788POPC   C4A61182  40.582  38.091   7.268
 4788POPC   C1B61183  40.844  37.564   6.196
 4788POPC   C2B61184  40.768  37.460   6.641
 4788POPC   C3B61185  40.966  37.623   7.030
 4788POPC   C4B61186  41.063  37.438   7.430
 4789POPC   NC361187  33.682   7.555   5.495
 4789POPC   PO461188  34.053   7.041   5.310
 4789POPC   GL161189  33.861   7.089   5.756
 4789POPC   GL261190  33.503   7.192   5.823
 4789POPC   C1A61191  33.914   7.296   6.192
 4789POPC   D2A61192  34.227   7.400   6.548
 4789POPC   C3A61193  34.168   7.617   6.955
 4789POPC   C4A61194  34.121   7.554   7.419
 4789POPC   C1B61195  33.464   7.534   6.150
 4789POPC   C2B61196  33.613   7.502   6.586
 4789POPC   C3B61197  33.384   7.461   6.959
 4789POPC   C4B61198  33.269   7.436   7.376
 4790POPC   NC361199  11.138  20.094   5.501
 4790POPC   PO461200  11.280  19.469   5.403
 4790POPC   GL161201  11.262  19.753   5.871
 4790POPC   GL261202  11.253  20.117   6.030
 4790POPC   C1A61203  11.233  19.735   6.364
 4790POPC   D2A61204  11.247  19.593   6.806
 4790POPC   C3A61205  11.250  19.799   7.190
 4790POPC   C4A61206  10.978  19.910   7.496
 4790POPC   C1B61207  11.361  20.223   6.422
 4790POPC   C2B61208  11.264  20.153   6.814
 4790POPC   C3B61209  11.511  20.231   7.165
 4790POPC   C4B61210  11.545  20.217   7.607
 4791POPC   NC361211  37.992  12.784   5.562
 4791POPC   PO461212  37.509  13.221   5.509
 4791POPC   GL161213  37.631  13.020   5.874
 4791POPC   GL261214  37.563  12.673   5.825
 4791POPC   C1A61215  37.638  12.891   6.301
 4791POPC   D2A61216  37.695  12.923   6.727
 4791POPC   C3A61217  37.408  12.794   7.014
 4791POPC   C4A61218  37.610  12.835   7.406
 4791POPC   C1B61219  37.773  12.420   6.172
 4791POPC   C2B61220  37.932  12.471   6.608
 4791POPC   C3B61221  37.867  12.549   7.058
 4791POPC   C4B61222  38.060  12.625   7.480
 4792POPC   NC361223   9.473  11.412   5.328
 4792POPC   PO461224  10.140  11.024   5.338
 4792POPC   GL161225   9.862  11.026   5.760
 4792POPC   GL261226   9.652  11.349   5.808
 4792POPC   C1A61227   9.842  11.134   6.241
 4792POPC   D2A61228   9.972  11.299   6.663
 4792POPC   C3A61229   9.813  11.093   7.014
 4792POPC   C4A61230   9.395  11.069   7.165
 4792POPC   C1B61231   9.642  11.619   6.183
 4792POPC   C2B61232   9.692  11.742   6.620
 4792POPC   C3B61233   9.519  11.578   6.992
 4792POPC   C4B61234   9.234  11.777   7.301
 4793POPC   NC361235  40.447  20.384   5.524
 4793POPC   PO461236  41.138  20.611   5.562
 4793POPC   GL161237  40.861  20.381   5.828
 4793POPC   GL261238  41.022  20.528   6.068
 4793POPC   C1A61239  40.560  20.362   6.173
 4793POPC   D2A61240  40.803  20.460   6.547
 4793POPC   C3A61241  40.709  20.531   6.989
 4793POPC   C4A61242  40.910  20.625   7.433
 4793POPC   C1B61243  41.216  20.809   6.330
 4793POPC   C2B61244  40.979  20.952   6.635
 4793POPC   C3B61245  41.131  20.828   6.995
 4793POPC   C4B61246  41.213  21.031   7.317
 4794POPC   NC361247  21.072   5.699   5.462
 4794POPC   PO461248  21.407   6.364   5.475
 4794POPC   GL161249  21.295   6.184   5.922
 4794POPC   GL261250  21.381   5.794   5.862
 4794POPC   C1A61251  21.300   6.126   6.363
 4794POPC   D2A61252  21.467   5.912   6.725
 4794POPC   C3A61253  21.327   6.141   7.068
 4794POPC   C4A61254  21.680   6.097   7.260
 4794POPC   C1B61255  21.095   5.691   6.164
 4794POPC   C2B61256  21.042   5.673   6.610
 4794POPC   C3B61257  21.169   5.625   7.062
 4794POPC   C4B61258  21.024   5.446   7.471
 4795POPC   NC361259   8.429  18.039   5.476
 4795POPC   PO461260   8.009  18.538   5.436
 4795POPC   GL161261   8.113  18.302   5.764
 4795POPC   GL261262   8.374  18.501   5.827
 4795POPC   C1A61263   8.042  18.288   6.200
 4795POPC   D2A61264   8.287  18.409   6.570
 4795POPC   C3A61265   8.153  18.291   6.951
 4795POPC   C4A61266   8.361  18.226   7.304
 4795POPC   C1B61267   8.629  18.520   6.189
 4795POPC   C2B61268   8.776  18.562   6.611
 4795POPC   C3B61269   8.567  18.620   6.999
 4795POPC   C4B61270   8.499  18.683   7.444
 4796POPC   NC361271  21.280  39.159   5.321
 4796POPC   PO461272  21.413  39.716   5.678
 4796POPC   GL161273  21.276  39.288   5.822
 4796POPC   GL261274  21.515  39.019   5.778
 4796POPC   C1A61275  21.236  39.139   6.253
 4796POPC   D2A61276  21.237  39.436   6.605
 4796POPC   C3A61277  21.341  39.398   7.036
 4796POPC   C4A61278  21.207  39.222   7.446
 4796POPC   C1B61279  21.737  39.109   6.171
 4796POPC   C2B61280  21.617  39.043   6.606
 4796POPC   C3B61281  21.770  38.955   6.997
 4796POPC   C4B61282  21.716  39.214   7.306
 4797POPC   NC361283  44.018  14.534   5.347
 4797POPC   PO461284  43.492  13.990   5.461
 4797POPC   GL161285  43.570  14.126   5.929
 4797POPC   GL261286  43.908  14.338   6.014
 4797POPC   C1A61287  43.550  14.278   6.357
 4797POPC   D2A61288  43.835  14.519   6.626
 4797POPC   C3A61289  43.759  14.408   7.043
 4797POPC   C4A61290  44.066  14.341   7.323
 4797POPC   C1B61291  43.927  14.773   6.176
 4797POPC   C2B61292  43.837  15.028   6.548
 4797POPC   C3B61293  43.936  14.931   6.987
 4797POPC   C4B61294  43.768  14.788   7.411
 4798POPC   NC361295   2.992  15.491   5.424
 4798POPC   PO461296   3.554  15.008   5.360
 4798POPC   GL161297   3.599  15.218   5.723
 4798POPC   GL261298   3.277  15.307   5.791
 4798POPC   C1A61299   3.712  15.170   6.152
 4798POPC   D2A61300   3.566  14.810   6.413
 4798POPC   C3A61301   3.602  14.834   6.860
 4798POPC   C4A61302   3.554  15.095   7.231
 4798POPC   C1B61303   3.201  15.096   6.175
 4798POPC   C2B61304   3.293  15.231   6.595
 4798POPC   C3B61305   3.116  15.106   6.975
 4798POPC   C4B61306   3.134  14.863   7.381
 4799POPC   NC361307  44.912  29.140   5.443
 4799POPC   PO461308  44.384  28.763   5.446
 4799POPC   GL161309  44.542  29.026   5.861
 4799POPC   GL261310  44.767  29.381   5.873
 4799POPC   C1A61311  44.507  28.945   6.350
 4799POPC   D2A61312  44.668  29.234   6.697
 4799POPC   C3A61313  44.704  29.088   7.098
 4799POPC   C4A61314  44.487  29.154   7.463
 4799POPC   C1B61315  44.537  29.482   6.257
 4799POPC   C2B61316  44.445  29.715   6.649
 4799POPC   C3B61317  44.500  29.573   7.066
 4799POPC   C4B61318  44.846  29.523   7.362
 4800POPC   NC361319  33.742  26.060   5.183
 4800POPC   PO461320  34.284  25.846   5.434
 4800POPC   GL161321  34.000  26.033   5.765
 4800POPC   GL261322  33.637  25.956   5.703
 4800POPC   C1A61323  33.732  26.222   6.121
 4800POPC   D2A61324  33.482  26.185   6.490
 4800POPC   C3A61325  33.690  26.162   6.896
 4800POPC   C4A61326  33.943  26.202   7.296
 4800POPC   C1B61327  33.834  25.735   6.121
 4800POPC   C2B61328  33.947  25.897   6.515
 4800POPC   C3B61329  34.065  25.800   6.924
 4800POPC   C4B61330  34.363  25.844   7.222
 4801POPC   NC361331   6.336  21.827   5.427
 4801POPC   PO461332   6.779  21.223   5.467
 4801POPC   GL161333   6.753  21.538   5.767
 4801POPC   GL261334   6.425  21.461   5.758
 4801POPC   C1A61335   6.790  21.489   6.240
 4801POPC   D2A61336   6.834  21.255   6.655
 4801POPC   C3A61337   6.730  21.503   7.047
 4801POPC   C4A61338   6.967  21.750   7.355
 4801POPC   C1B61339   6.346  21.263   6.118
 4801POPC   C2B61340   6.352  21.182   6.512
 4801POPC   C3B61341   6.225  21.219   6.919
 4801POPC   C4B61342   6.245  21.480   7.254
 4802POPC   NC361343  33.451  42.478   5.525
 4802POPC   PO461344  32.903  42.105   5.601
 4802POPC   GL161345  32.753  42.374   5.919
 4802POPC   GL261346  32.888  42.682   5.818
 4802POPC   C1A61347  32.756  42.387   6.365
 4802POPC   D2A61348  33.056  42.181   6.614
 4802POPC   C3A61349  33.114  42.259   7.039
 4802POPC   C4A61350  32.809  42.207   7.331
 4802POPC   C1B61351  33.119  42.732   6.215
 4802POPC   C2B61352  33.037  42.736   6.674
 4802POPC   C3B61353  32.844  42.689   7.089
 4802POPC   C4B61354  33.027  42.600   7.538
 4803POPC   NC361355   0.936  18.941   5.444
 4803POPC   PO461356   1.610  18.955   5.511
 4803POPC   GL161357   1.287  19.116   5.830
 4803POPC   GL261358   0.964  19.339   5.783
 4803POPC   C1A61359   1.079  18.975   6.213
 4803POPC   D2A61360   0.965  19.147   6.629
 4803POPC   C3A61361   1.019  18.895   7.015
 4803POPC   C4A61362   1.402  19.016   7.246
 4803POPC   C1B61363   1.090  19.486   6.195
 4803POPC   C2B61364   1.213  19.675   6.592
 4803POPC   C3B61365   1.259  19.474   6.969
 4803POPC   C4B61366   1.006  19.344   7.244
 4804POPC   NC361367  15.998  33.518   5.193
 4804POPC   PO461368  16.379  33.981   5.278
 4804POPC   GL161369  16.104  33.873   5.667
 4804POPC   GL261370  15.990  33.525   5.783
 4804POPC   C1A61371  16.034  33.915   6.136
 4804POPC   D2A61372  15.807  33.968   6.547
 4804POPC   C3A61373  16.049  34.017   6.925
 4804POPC   C4A61374  15.827  33.985   7.314
 4804POPC   C1B61375  15.972  33.397   6.247
 4804POPC   C2B61376  16.054  33.504   6.692
 4804POPC   C3B61377  16.041  33.541   7.144
 4804POPC   C4B61378  15.913  33.552   7.546
 4805POPC   NC361379  34.724  35.873   5.462
 4805POPC   PO461380  34.062  36.183   5.481
 4805POPC   GL161381  34.318  36.285   5.863
 4805POPC   GL261382  34.667  36.168   5.895
 4805POPC   C1A61383  34.405  36.369   6.303
 4805POPC   D2A61384  34.405  36.027   6.595
 4805POPC   C3A61385  34.533  36.120   6.994
 4805POPC   C4A61386  34.358  35.857   7.311
 4805POPC   C1B61387  34.910  36.256   6.280
 4805POPC   C2B61388  34.966  36.067   6.694
 4805POPC   C3B61389  34.980  35.927   7.145
 4805POPC   C4B61390  34.797  36.029   7.568
 4806POPC   NC361391  32.607  24.496   5.270
 4806POPC   PO461392  32.180  24.077   5.376
 4806POPC   GL161393  32.203  24.361   5.779
 4806POPC   GL261394  32.507  24.581   5.771
 4806POPC   C1A61395  31.994  24.374   6.213
 4806POPC   D2A61396  31.943  24.610   6.575
 4806POPC   C3A61397  31.865  24.471   6.980
 4806POPC   C4A61398  32.176  24.339   7.273
 4806POPC   C1B61399  32.451  24.633   6.212
 4806POPC   C2B61400  32.619  24.755   6.615
 4806POPC   C3B61401  32.589  24.577   7.045
 4806POPC   C4B61402  32.503  24.655   7.487
 4807POPC   NC361403  36.509   0.701   5.311
 4807POPC   PO461404  37.019   0.247   5.281
 4807POPC   GL161405  36.851   0.373   5.679
 4807POPC   GL261406  36.667   0.680   5.779
 4807POPC   C1A61407  36.916   0.283   6.107
 4807POPC   D2A61408  36.964   0.427   6.515
 4807POPC   C3A61409  36.839   0.165   6.826
 4807POPC   C4A61410  37.186   0.315   7.053
 4807POPC   C1B61411  36.755   0.784   6.209
 4807POPC   C2B61412  36.737   0.865   6.687
 4807POPC   C3B61413  36.768   0.599   7.100
 4807POPC   C4B61414  36.846   0.166   7.395
 4808POPC   NC361415  36.760  39.756   5.613
 4808POPC   PO461416  36.845  40.443   5.493
 4808POPC   GL161417  36.901  40.197   5.862
 4808POPC   GL261418  37.200  40.418   5.907
 4808POPC   C1A61419  36.670  39.933   6.231
 4808POPC   D2A61420  36.384  39.820   6.614
 4808POPC   C3A61421  36.596  39.767   7.035
 4808POPC   C4A61422  36.774  40.058   7.377
 4808POPC   C1B61423  37.083  40.251   6.328
 4808POPC   C2B61424  36.883  40.031   6.679
 4808POPC   C3B61425  37.109  40.029   7.001
 4808POPC   C4B61426  37.373  40.351   7.136
 4809POPC   NC361427  28.000  27.766   5.543
 4809POPC   PO461428  27.387  27.345   5.479
 4809POPC   GL161429  27.580  27.552   5.827
 4809POPC   GL261430  27.894  27.355   5.850
 4809POPC   C1A61431  27.490  27.827   6.212
 4809POPC   D2A61432  27.588  27.961   6.674
 4809POPC   C3A61433  27.317  27.808   7.017
 4809POPC   C4A61434  27.253  27.448   7.333
 4809POPC   C1B61435  27.762  27.310   6.275
 4809POPC   C2B61436  27.936  27.287   6.689
 4809POPC   C3B61437  27.767  27.550   7.022
 4809POPC   C4B61438  27.893  27.962   7.138
 4810POPC   NC361439   8.537  33.128   5.739
 4810POPC   PO461440   8.085  32.783   5.321
 4810POPC   GL161441   7.910  32.871   5.776
 4810POPC   GL261442   8.057  33.160   5.921
 4810POPC   C1A61443   8.007  32.815   6.277
 4810POPC   D2A61444   8.195  33.029   6.684
 4810POPC   C3A61445   8.331  32.777   7.059
 4810POPC   C4A61446   7.944  32.947   7.176
 4810POPC   C1B61447   8.229  33.346   6.277
 4810POPC   C2B61448   8.191  33.574   6.613
 4810POPC   C3B61449   8.401  33.507   6.987
 4810POPC   C4B61450   8.601  33.162   7.200
 4811POPC   NC361451  37.464  14.582   5.282
 4811POPC   PO461452  38.085  14.259   5.383
 4811POPC   GL161453  37.832  14.368   5.727
 4811POPC   GL261454  37.492  14.428   5.775
 4811POPC   C1A61455  37.891  14.387   6.170
 4811POPC   D2A61456  37.720  14.390   6.584
 4811POPC   C3A61457  37.895  14.311   6.987
 4811POPC   C4A61458  37.600  14.263   7.349
 4811POPC   C1B61459  37.384  14.574   6.191
 4811POPC   C2B61460  37.193  14.375   6.536
 4811POPC   C3B61461  37.348  14.441   6.943
 4811POPC   C4B61462  37.243  14.809   7.159
 4812POPC   NC361463  43.809  38.075   5.470
 4812POPC   PO461464  43.552  38.731   5.723
 4812POPC   GL161465  43.814  38.426   5.863
 4812POPC   GL261466  44.165  38.509   5.880
 4812POPC   C1A61467  43.616  38.226   6.189
 4812POPC   D2A61468  43.461  38.175   6.601
 4812POPC   C3A61469  43.501  38.601   6.789
 4812POPC   C4A61470  43.554  38.677   7.219
 4812POPC   C1B61471  44.154  38.309   6.239
 4812POPC   C2B61472  43.922  38.392   6.591
 4812POPC   C3B61473  43.940  38.407   7.028
 4812POPC   C4B61474  44.165  38.388   7.391
 4813POPC   NC361475  16.297   9.103   5.463
 4813POPC   PO461476  15.665   8.866   5.576
 4813POPC   GL161477  15.718   9.092   5.921
 4813POPC   GL261478  15.999   9.278   5.850
 4813POPC   C1A61479  15.750   8.952   6.334
 4813POPC   D2A61480  15.547   8.702   6.618
 4813POPC   C3A61481  15.673   8.850   7.021
 4813POPC   C4A61482  15.899   8.836   7.397
 4813POPC   C1B61483  15.996   9.442   6.269
 4813POPC   C2B61484  16.114   9.342   6.703
 4813POPC   C3B61485  16.005   9.254   7.129
 4813POPC   C4B61486  16.199   9.222   7.579
 4814POPC   NC361487  28.821  10.678   5.354
 4814POPC   PO461488  29.437  10.376   5.505
 4814POPC   GL161489  29.231  10.554   5.858
 4814POPC   GL261490  28.916  10.524   5.828
 4814POPC   C1A61491  29.052  10.773   6.239
 4814POPC   D2A61492  28.865  10.656   6.621
 4814POPC   C3A61493  29.135  10.652   6.959
 4814POPC   C4A61494  29.175  10.719   7.360
 4814POPC   C1B61495  28.966  10.262   6.212
 4814POPC   C2B61496  28.707  10.179   6.530
 4814POPC   C3B61497  28.824  10.231   6.934
 4814POPC   C4B61498  28.765  10.223   7.372
 4815POPC   NC361499  40.999  21.841   5.290
 4815POPC   PO461500  40.560  22.357   5.339
 4815POPC   GL161501  40.592  22.151   5.764
 4815POPC   GL261502  40.934  21.992   5.856
 4815POPC   C1A61503  40.579  22.110   6.235
 4815POPC   D2A61504  40.778  21.971   6.654
 4815POPC   C3A61505  40.542  22.018   7.057
 4815POPC   C4A61506  40.286  21.885   7.430
 4815POPC   C1B61507  41.101  22.144   6.281
 4815POPC   C2B61508  41.199  22.319   6.717
 4815POPC   C3B61509  41.002  22.292   7.160
 4815POPC   C4B61510  41.025  22.496   7.600
 4816POPC   NC361511  12.374  22.029   5.220
 4816POPC   PO461512  13.003  22.183   5.259
 4816POPC   GL161513  12.891  22.351   5.752
 4816POPC   GL261514  12.553  22.290   5.846
 4816POPC   C1A61515  12.782  22.515   6.232
 4816POPC   D2A61516  12.846  22.315   6.661
 4816POPC   C3A61517  13.047  22.513   7.063
 4816POPC   C4A61518  12.972  22.451   7.513
 4816POPC   C1B61519  12.806  22.006   6.146
 4816POPC   C2B61520  12.812  21.789   6.538
 4816POPC   C3B61521  12.869  21.885   6.948
 4816POPC   C4B61522  12.674  22.203   7.168
 4817POPC   NC361523  22.571   7.886   5.539
 4817POPC   PO461524  21.929   8.256   5.512
 4817POPC   GL161525  22.188   8.170   5.880
 4817POPC   GL261526  22.366   7.849   6.008
 4817POPC   C1A61527  22.027   8.373   6.263
 4817POPC   D2A61528  22.159   8.335   6.678
 4817POPC   C3A61529  21.880   8.370   7.009
 4817POPC   C4A61530  21.928   8.170   7.401
 4817POPC   C1B61531  22.592   7.958   6.369
 4817POPC   C2B61532  22.478   7.948   6.773
 4817POPC   C3B61533  22.060   7.883   6.986
 4817POPC   C4B61534  22.090   7.672   7.380
 4818POPC   NC361535   4.521  17.658   5.429
 4818POPC   PO461536   3.948  17.340   5.457
 4818POPC   GL161537   4.145  17.215   5.842
 4818POPC   GL261538   4.406  17.463   5.939
 4818POPC   C1A61539   4.110  17.021   6.256
 4818POPC   D2A61540   3.928  17.228   6.626
 4818POPC   C3A61541   4.225  17.353   6.951
 4818POPC   C4A61542   4.218  17.683   7.254
 4818POPC   C1B61543   4.356  17.453   6.408
 4818POPC   C2B61544   4.440  17.770   6.738
 4818POPC   C3B61545   4.675  17.635   7.091
 4818POPC   C4B61546   4.660  17.612   7.552
 4819POPC   NC361547   3.137  22.344   5.520
 4819POPC   PO461548   2.502  22.040   5.647
 4819POPC   GL161549   2.850  22.038   5.906
 4819POPC   GL261550   2.814  22.389   5.896
 4819POPC   C1A61551   2.856  21.845   6.322
 4819POPC   D2A61552   2.943  21.746   6.772
 4819POPC   C3A61553   2.618  21.946   7.007
 4819POPC   C4A61554   2.567  21.774   7.392
 4819POPC   C1B61555   3.021  22.392   6.277
 4819POPC   C2B61556   2.858  22.269   6.675
 4819POPC   C3B61557   3.073  22.164   7.054
 4819POPC   C4B61558   3.403  22.133   7.342
 4820POPC   NC361559  25.985  20.882   5.368
 4820POPC   PO461560  25.667  20.470   5.660
 4820POPC   GL161561  25.943  20.608   5.890
 4820POPC   GL261562  25.856  20.957   5.849
 4820POPC   C1A61563  26.221  20.485   6.228
 4820POPC   D2A61564  26.172  20.608   6.664
 4820POPC   C3A61565  26.299  20.354   7.019
 4820POPC   C4A61566  26.265  20.717   7.247
 4820POPC   C1B61567  25.936  20.925   6.294
 4820POPC   C2B61568  25.883  21.035   6.728
 4820POPC   C3B61569  25.901  21.061   7.171
 4820POPC   C4B61570  25.590  20.950   7.485
 4821POPC   NC361571  21.130  43.853   5.580
 4821POPC   PO461572  21.753  43.812   5.220
 4821POPC   GL161573  21.657  44.147   5.706
 4821POPC   GL261574  21.311  44.183   5.924
 4821POPC   C1A61575  21.684  44.026   6.218
 4821POPC   D2A61576  21.349  43.695   6.409
 4821POPC   C3A61577  21.295  43.698   6.880
 4821POPC   C4A61578  21.635  43.686   7.181
 4821POPC   C1B61579  21.254  44.198   6.404
 4821POPC   C2B61580  21.571  44.146   6.757
 4821POPC   C3B61581  21.443  44.138   7.192
 4821POPC   C4B61582  20.990  44.088   7.188
 4822POPC   NC361583  36.373   2.469   5.516
 4822POPC   PO461584  36.137   1.828   5.436
 4822POPC   GL161585  36.025   2.107   5.769
 4822POPC   GL261586  35.680   2.210   5.797
 4822POPC   C1A61587  36.202   2.060   6.173
 4822POPC   D2A61588  36.210   1.846   6.554
 4822POPC   C3A61589  36.315   2.098   6.891
 4822POPC   C4A61590  36.259   1.937   7.282
 4822POPC   C1B61591  35.780   2.351   6.173
 4822POPC   C2B61592  36.046   2.389   6.542
 4822POPC   C3B61593  35.845   2.385   6.943
 4822POPC   C4B61594  35.799   2.178   7.308
 4823POPC   NC361595  29.447   7.653   5.477
 4823POPC   PO461596  30.030   7.353   5.603
 4823POPC   GL161597  29.948   7.445   5.980
 4823POPC   GL261598  29.749   7.747   5.914
 4823POPC   C1A61599  30.077   7.253   6.363
 4823POPC   D2A61600  29.833   6.953   6.614
 4823POPC   C3A61601  29.648   7.246   6.880
 4823POPC   C4A61602  29.539   7.323   7.311
 4823POPC   C1B61603  30.146   7.876   6.135
 4823POPC   C2B61604  30.243   7.755   6.546
 4823POPC   C3B61605  30.022   7.731   6.937
 4823POPC   C4B61606  30.043   7.434   7.262
 4824POPC   NC361607  26.857  19.745   5.477
 4824POPC   PO461608  26.572  20.311   5.668
 4824POPC   GL161609  26.564  20.001   5.976
 4824POPC   GL261610  26.808  19.713   5.977
 4824POPC   C1A61611  26.627  19.924   6.409
 4824POPC   D2A61612  26.943  19.734   6.640
 4824POPC   C3A61613  26.814  19.789   7.035
 4824POPC   C4A61614  26.567  20.013   7.336
 4824POPC   C1B61615  26.952  19.380   6.260
 4824POPC   C2B61616  27.264  19.302   6.581
 4824POPC   C3B61617  27.112  19.367   6.987
 4824POPC   C4B61618  26.821  19.374   7.329
 4825POPC   NC361619  25.232  18.684   5.436
 4825POPC   PO461620  25.272  18.019   5.207
 4825POPC   GL161621  25.458  18.253   5.620
 4825POPC   GL261622  25.167  18.305   5.812
 4825POPC   C1A61623  25.543  18.466   6.090
 4825POPC   D2A61624  25.424  18.321   6.536
 4825POPC   C3A61625  25.537  18.476   6.946
 4825POPC   C4A61626  25.352  18.676   7.277
 4825POPC   C1B61627  25.007  18.388   6.210
 4825POPC   C2B61628  24.960  18.140   6.572
 4825POPC   C3B61629  25.049  18.221   6.986
 4825POPC   C4B61630  25.000  17.862   7.247
 4826POPC   NC361631  11.609  30.833   5.513
 4826POPC   PO461632  11.106  30.452   5.272
 4826POPC   GL161633  11.180  30.611   5.714
 4826POPC   GL261634  11.482  30.472   5.831
 4826POPC   C1A61635  11.189  30.783   6.168
 4826POPC   D2A61636  10.991  30.777   6.588
 4826POPC   C3A61637  11.268  30.784   6.939
 4826POPC   C4A61638  11.148  30.874   7.361
 4826POPC   C1B61639  11.352  30.281   6.174
 4826POPC   C2B61640  11.308  30.377   6.579
 4826POPC   C3B61641  11.126  30.274   6.949
 4826POPC   C4B61642  11.373  30.421   7.288
 4827POPC   NC361643  25.760  44.218   5.765
 4827POPC   PO461644  26.162  43.847   5.305
 4827POPC   GL161645  26.173  43.742   5.745
 4827POPC   GL261646  25.837  43.707   5.727
 4827POPC   C1A61647  26.111  43.805   6.214
 4827POPC   D2A61648  25.799  44.085   6.462
 4827POPC   C3A61649  25.940  44.277   6.872
 4827POPC   C4A61650  26.002  44.065   7.277
 4827POPC   C1B61651  25.678  43.574   6.111
 4827POPC   C2B61652  25.508  43.646   6.503
 4827POPC   C3B61653  25.698  43.642   6.885
 4827POPC   C4B61654  25.681  43.660   7.300
 4828POPC   NC361655   4.972   8.276   4.988
 4828POPC   PO461656   5.375   8.490   5.440
 4828POPC   GL161657   5.180   8.300   5.815
 4828POPC   GL261658   5.290   7.970   5.988
 4828POPC   C1A61659   4.939   8.296   6.210
 4828POPC   D2A61660   5.074   8.125   6.608
 4828POPC   C3A61661   5.004   8.376   6.981
 4828POPC   C4A61662   4.981   8.316   7.419
 4828POPC   C1B61663   4.911   7.759   6.194
 4828POPC   C2B61664   4.659   7.796   6.582
 4828POPC   C3B61665   4.810   7.900   7.019
 4828POPC   C4B61666   4.963   7.822   7.454
 4829POPC   NC361667  27.896  24.663   5.448
 4829POPC   PO461668  28.528  24.427   5.429
 4829POPC   GL161669  28.229  24.397   5.782
 4829POPC   GL261670  28.291  24.726   5.952
 4829POPC   C1A61671  28.099  24.360   6.227
 4829POPC   D2A61672  28.220  24.646   6.516
 4829POPC   C3A61673  28.124  24.511   6.895
 4829POPC   C4A61674  28.278  24.261   7.247
 4829POPC   C1B61675  28.602  24.896   6.268
 4829POPC   C2B61676  28.692  24.878   6.725
 4829POPC   C3B61677  28.548  24.695   7.095
 4829POPC   C4B61678  28.139  24.739   7.349
 4830POPC   NC361679  44.768   2.437   5.299
 4830POPC   PO461680  44.494   3.107   5.492
 4830POPC   GL161681  44.568   2.950   5.903
 4830POPC   GL261682  44.566   2.617   5.785
 4830POPC   C1A61683  44.832   2.769   6.263
 4830POPC   D2A61684  44.994   2.520   6.641
 4830POPC   C3A61685  44.794   2.670   7.052
 4830POPC   C4A61686  44.555   3.090   7.103
 4830POPC   C1B61687  44.358   2.566   6.211
 4830POPC   C2B61688  44.436   2.729   6.634
 4830POPC   C3B61689  44.284   2.618   7.039
 4830POPC   C4B61690  44.379   2.741   7.428
 4831POPC   NC361691  29.947  33.970   5.580
 4831POPC   PO461692  29.728  33.439   5.434
 4831POPC   GL161693  29.873  33.513   5.821
 4831POPC   GL261694  30.198  33.499   5.901
 4831POPC   C1A61695  29.748  33.703   6.209
 4831POPC   D2A61696  29.845  34.042   6.517
 4831POPC   C3A61697  29.630  33.991   6.887
 4831POPC   C4A61698  29.546  33.961   7.308
 4831POPC   C1B61699  30.210  33.899   6.173
 4831POPC   C2B61700  30.320  33.855   6.608
 4831POPC   C3B61701  30.105  33.794   6.990
 4831POPC   C4B61702  30.070  34.007   7.360
 4832POPC   NC361703  43.665  21.785   5.365
 4832POPC   PO461704  43.747  22.475   5.378
 4832POPC   GL161705  43.822  22.195   5.770
 4832POPC   GL261706  43.628  21.888   5.845
 4832POPC   C1A61707  43.966  22.033   6.187
 4832POPC   D2A61708  43.809  22.129   6.581
 4832POPC   C3A61709  43.968  21.959   6.951
 4832POPC   C4A61710  44.023  22.109   7.335
 4832POPC   C1B61711  43.448  22.014   6.193
 4832POPC   C2B61712  43.366  21.842   6.553
 4832POPC   C3B61713  43.437  22.005   6.937
 4832POPC   C4B61714  43.526  22.136   7.310
 4833POPC   NC361715  10.312  11.458   5.304
 4833POPC   PO461716  10.548  11.771   5.768
 4833POPC   GL161717  10.655  11.326   5.865
 4833POPC   GL261718  10.329  11.225   5.798
 4833POPC   C1A61719  10.839  11.231   6.272
 4833POPC   D2A61720  10.761  11.574   6.606
 4833POPC   C3A61721  10.875  11.494   7.048
 4833POPC   C4A61722  10.693  11.308   7.450
 4833POPC   C1B61723  10.324  11.326   6.257
 4833POPC   C2B61724  10.477  11.132   6.631
 4833POPC   C3B61725  10.401  11.345   6.976
 4833POPC   C4B61726  10.198  11.294   7.318
 4834POPC   NC361727   6.021   1.583   5.507
 4834POPC   PO461728   5.561   0.997   5.538
 4834POPC   GL161729   5.726   1.297   5.829
 4834POPC   GL261730   6.041   1.137   5.887
 4834POPC   C1A61731   5.814   1.322   6.275
 4834POPC   D2A61732   5.664   1.055   6.580
 4834POPC   C3A61733   5.700   1.194   6.972
 4834POPC   C4A61734   5.871   1.415   7.285
 4834POPC   C1B61735   6.293   1.099   6.274
 4834POPC   C2B61736   6.153   1.226   6.700
 4834POPC   C3B61737   6.201   1.070   7.119
 4834POPC   C4B61738   6.317   0.784   7.422
 4835POPC   NC361739  25.262  19.538   5.441
 4835POPC   PO461740  25.660  18.922   5.392
 4835POPC   GL161741  25.423  19.051   5.766
 4835POPC   GL261742  25.167  18.809   5.931
 4835POPC   C1A61743  25.590  19.015   6.180
 4835POPC   D2A61744  25.532  18.812   6.560
 4835POPC   C3A61745  25.589  19.003   6.960
 4835POPC   C4A61746  25.498  19.202   7.327
 4835POPC   C1B61747  25.094  19.132   6.232
 4835POPC   C2B61748  25.234  19.225   6.655
 4835POPC   C3B61749  25.093  19.079   7.047
 4835POPC   C4B61750  24.756  19.156   7.319
 4836POPC   NC361751   5.875  29.332   5.453
 4836POPC   PO461752   5.475  28.729   5.392
 4836POPC   GL161753   5.669  28.965   5.761
 4836POPC   GL261754   6.041  28.937   5.834
 4836POPC   C1A61755   5.702  29.225   6.125
 4836POPC   D2A61756   5.659  29.124   6.544
 4836POPC   C3A61757   5.712  29.331   6.927
 4836POPC   C4A61758   5.763  28.982   7.179
 4836POPC   C1B61759   6.223  29.212   6.151
 4836POPC   C2B61760   6.408  29.136   6.549
 4836POPC   C3B61761   6.217  29.177   6.987
 4836POPC   C4B61762   6.134  29.183   7.451
 4837POPC   NC361763   3.294   5.550   5.615
 4837POPC   PO461764   3.684   4.972   5.572
 4837POPC   GL161765   3.352   5.093   5.863
 4837POPC   GL261766   3.588   5.292   5.999
 4837POPC   C1A61767   3.196   5.294   6.292
 4837POPC   D2A61768   3.344   5.297   6.742
 4837POPC   C3A61769   3.031   5.332   7.057
 4837POPC   C4A61770   3.095   5.163   7.484
 4837POPC   C1B61771   3.526   4.884   6.278
 4837POPC   C2B61772   3.430   4.767   6.699
 4837POPC   C3B61773   3.549   4.935   7.089
 4837POPC   C4B61774   3.496   5.341   7.253
 4838POPC   NC361775  43.275  44.111   5.624
 4838POPC   PO461776  43.068  43.586   5.375
 4838POPC   GL161777  43.010  43.665   5.817
 4838POPC   GL261778  42.844  43.986   5.915
 4838POPC   C1A61779  43.317  43.552   6.150
 4838POPC   D2A61780  43.475  43.736   6.541
 4838POPC   C3A61781  43.155  43.801   6.821
 4838POPC   C4A61782  43.244  43.761   7.226
 4838POPC   C1B61783  43.099  44.014   6.296
 4838POPC   C2B61784  43.258  44.276   6.634
 4838POPC   C3B61785  43.099  44.262   7.048
 4838POPC   C4B61786  42.786  44.005   7.272
 4839POPC   NC361787  44.327  19.982   5.347
 4839POPC   PO461788  44.995  19.749   5.363
 4839POPC   GL161789  44.764  19.764   5.762
 4839POPC   GL261790  44.422  19.666   5.752
 4839POPC   C1A61791  44.811  19.737   6.206
 4839POPC   D2A61792  44.846  20.016   6.582
 4839POPC   C3A61793  44.805  19.759   6.959
 4839POPC   C4A61794  44.688  20.047   7.278
 4839POPC   C1B61795  44.323  19.810   6.155
 4839POPC   C2B61796  44.443  19.709   6.575
 4839POPC   C3B61797  44.329  19.929   6.934
 4839POPC   C4B61798  44.337  19.669   7.280
 4840POPC   NC361799  10.226  12.067   5.389
 4840POPC   PO461800  10.811  12.376   5.524
 4840POPC   GL161801  10.610  12.250   5.871
 4840POPC   GL261802  10.277  12.251   5.846
 4840POPC   C1A61803  10.489  12.097   6.303
 4840POPC   D2A61804  10.408  12.209   6.708
 4840POPC   C3A61805  10.531  11.880   6.969
 4840POPC   C4A61806  10.469  11.742   7.349
 4840POPC   C1B61807  10.183  12.484   6.187
 4840POPC   C2B61808   9.925  12.452   6.538
 4840POPC   C3B61809   9.931  12.146   6.837
 4840POPC   C4B61810  10.176  12.162   7.225
 4841POPC   NC361811  13.388  12.727   5.420
 4841POPC   PO461812  12.756  12.741   5.374
 4841POPC   GL161813  12.781  12.841   5.764
 4841POPC   GL261814  12.554  12.594   5.831
 4841POPC   C1A61815  13.024  12.738   6.130
 4841POPC   D2A61816  13.262  12.908   6.493
 4841POPC   C3A61817  12.979  12.973   6.833
 4841POPC   C4A61818  12.946  12.600   7.108
 4841POPC   C1B61819  12.473  12.855   6.170
 4841POPC   C2B61820  12.665  12.724   6.508
 4841POPC   C3B61821  12.489  12.720   6.885
 4841POPC   C4B61822  12.521  12.893   7.274
 4842POPC   NC361823  13.833  39.983   5.516
 4842POPC   PO461824  13.252  39.697   5.277
 4842POPC   GL161825  13.255  39.830   5.777
 4842POPC   GL261826  13.337  40.201   5.767
 4842POPC   C1A61827  13.534  39.872   6.208
 4842POPC   D2A61828  13.791  39.780   6.600
 4842POPC   C3A61829  13.646  39.895   7.022
 4842POPC   C4A61830  13.701  39.852   7.457
 4842POPC   C1B61831  13.162  40.204   6.198
 4842POPC   C2B61832  13.352  40.142   6.617
 4842POPC   C3B61833  13.422  40.343   6.993
 4842POPC   C4B61834  13.418  40.244   7.380
 4843POPC   NC361835   6.895  19.505   5.603
 4843POPC   PO461836   6.374  18.940   5.444
 4843POPC   GL161837   6.602  18.894   5.792
 4843POPC   GL261838   6.646  19.232   5.954
 4843POPC   C1A61839   6.529  18.800   6.200
 4843POPC   D2A61840   6.802  18.994   6.470
 4843POPC   C3A61841   6.778  18.951   6.901
 4843POPC   C4A61842   6.689  18.794   7.294
 4843POPC   C1B61843   6.953  19.432   6.259
 4843POPC   C2B61844   7.129  19.324   6.703
 4843POPC   C3B61845   6.927  19.392   7.104
 4843POPC   C4B61846   6.957  19.562   7.493
 4844POPC   NC361847   2.519  27.026   5.609
 4844POPC   PO461848   2.995  26.592   5.218
 4844POPC   GL161849   2.861  26.642   5.674
 4844POPC   GL261850   2.993  26.938   5.817
 4844POPC   C1A61851   2.795  26.542   6.132
 4844POPC   D2A61852   2.626  26.469   6.566
 4844POPC   C3A61853   2.710  26.814   6.862
 4844POPC   C4A61854   2.917  26.734   7.258
 4844POPC   C1B61855   2.750  27.056   6.230
 4844POPC   C2B61856   2.428  27.177   6.553
 4844POPC   C3B61857   2.249  27.137   6.973
 4844POPC   C4B61858   2.539  27.069   7.286
 4845POPC   NC361859  33.798   9.188   5.608
 4845POPC   PO461860  34.040   8.577   5.402
 4845POPC   GL161861  33.928   8.739   5.833
 4845POPC   GL261862  33.623   8.837   6.020
 4845POPC   C1A61863  34.050   9.045   6.196
 4845POPC   D2A61864  33.873   9.019   6.576
 4845POPC   C3A61865  33.841   9.217   6.967
 4845POPC   C4A61866  33.877   9.040   7.309
 4845POPC   C1B61867  33.515   9.236   6.246
 4845POPC   C2B61868  33.391   9.170   6.677
 4845POPC   C3B61869  33.533   8.808   6.899
 4845POPC   C4B61870  33.489   8.713   7.304
 4846POPC   NC361871  30.881  14.498   5.524
 4846POPC   PO461872  30.643  13.919   5.431
 4846POPC   GL161873  30.417  14.102   5.786
 4846POPC   GL261874  30.456  14.478   5.823
 4846POPC   C1A61875  30.552  14.194   6.232
 4846POPC   D2A61876  30.437  14.365   6.629
 4846POPC   C3A61877  30.651  14.155   6.975
 4846POPC   C4A61878  30.649  13.954   7.350
 4846POPC   C1B61879  30.618  14.685   6.249
 4846POPC   C2B61880  30.788  14.731   6.687
 4846POPC   C3B61881  30.588  14.640   7.074
 4846POPC   C4B61882  30.510  14.788   7.505
 4847POPC   NC361883  34.380  24.535   5.367
 4847POPC   PO461884  35.070  24.460   5.421
 4847POPC   GL161885  34.803  24.506   5.756
 4847POPC   GL261886  34.478  24.357   5.845
 4847POPC   C1A61887  34.798  24.721   6.156
 4847POPC   D2A61888  34.566  24.821   6.566
 4847POPC   C3A61889  34.648  24.613   6.968
 4847POPC   C4A61890  34.348  24.630   7.265
 4847POPC   C1B61891  34.425  24.404   6.284
 4847POPC   C2B61892  34.380  24.105   6.614
 4847POPC   C3B61893  34.381  24.146   7.031
 4847POPC   C4B61894  34.530  24.204   7.443
 4848POPC   NC361895  26.809  41.771   5.546
 4848POPC   PO461896  26.689  41.075   5.273
 4848POPC   GL161897  26.805  41.284   5.711
 4848POPC   GL261898  26.542  41.507   5.885
 4848POPC   C1A61899  26.989  41.540   6.123
 4848POPC   D2A61900  26.776  41.765   6.434
 4848POPC   C3A61901  26.845  41.613   6.826
 4848POPC   C4A61902  26.759  41.694   7.230
 4848POPC   C1B61903  26.581  41.246   6.203
 4848POPC   C2B61904  26.775  41.180   6.536
 4848POPC   C3B61905  26.608  41.167   6.922
 4848POPC   C4B61906  26.733  41.194   7.310
 4849POPC   NC361907   2.564   4.919   5.353
 4849POPC   PO461908   2.846   5.508   5.469
 4849POPC   GL161909   2.870   5.279   5.849
 4849POPC   GL261910   2.844   4.907   5.788
 4849POPC   C1A61911   2.615   5.135   6.203
 4849POPC   D2A61912   2.353   5.008   6.563
 4849POPC   C3A61913   2.578   5.076   6.960
 4849POPC   C4A61914   2.610   5.197   7.390
 4849POPC   C1B61915   3.028   4.825   6.186
 4849POPC   C2B61916   2.957   4.971   6.619
 4849POPC   C3B61917   3.027   4.823   7.050
 4849POPC   C4B61918   2.792   4.730   7.426
 4850POPC   NC361919  37.045   7.325   5.316
 4850POPC   PO461920  37.525   7.797   5.722
 4850POPC   GL161921  37.532   7.394   5.910
 4850POPC   GL261922  37.897   7.254   5.961
 4850POPC   C1A61923  37.541   7.288   6.337
 4850POPC   D2A61924  37.905   7.291   6.629
 4850POPC   C3A61925  37.746   7.298   7.025
 4850POPC   C4A61926  37.479   7.080   7.250
 4850POPC   C1B61927  37.907   7.631   6.237
 4850POPC   C2B61928  37.776   7.908   6.565
 4850POPC   C3B61929  37.835   7.804   7.023
 4850POPC   C4B61930  37.702   7.609   7.448
 4851POPC   NC361931   6.829  36.567   5.363
 4851POPC   PO461932   6.501  37.094   5.082
 4851POPC   GL161933   6.556  36.964   5.581
 4851POPC   GL261934   6.926  36.993   5.719
 4851POPC   C1A61935   6.588  36.787   6.056
 4851POPC   D2A61936   6.544  36.718   6.534
 4851POPC   C3A61937   6.358  36.898   6.939
 4851POPC   C4A61938   6.257  36.769   7.395
 4851POPC   C1B61939   7.071  37.010   6.180
 4851POPC   C2B61940   6.928  37.059   6.637
 4851POPC   C3B61941   6.916  36.947   7.098
 4851POPC   C4B61942   7.022  37.141   7.506
 4852POPC   NC361943   0.058  42.592   5.441
 4852POPC   PO461944   0.752  42.373   5.301
 4852POPC   GL161945   0.423  42.470   5.751
 4852POPC   GL261946   0.111  42.327   5.881
 4852POPC   C1A61947   0.439  42.473   6.226
 4852POPC   D2A61948   0.200  42.538   6.553
 4852POPC   C3A61949   0.370  42.415   6.900
 4852POPC   C4A61950   0.368  42.525   7.277
 4852POPC   C1B61951   0.186  41.992   6.172
 4852POPC   C2B61952   0.357  41.994   6.580
 4852POPC   C3B61953   0.128  41.975   6.959
 4852POPC   C4B61954   0.202  42.048   7.367
 4853POPC   NC361955  25.387   2.474   5.268
 4853POPC   PO461956  24.892   2.910   5.453
 4853POPC   GL161957  25.232   2.732   5.770
 4853POPC   GL261958  25.560   2.512   5.772
 4853POPC   C1A61959  25.261   2.747   6.234
 4853POPC   D2A61960  25.203   2.977   6.636
 4853POPC   C3A61961  25.189   2.739   7.023
 4853POPC   C4A61962  25.155   2.829   7.469
 4853POPC   C1B61963  25.639   2.372   6.229
 4853POPC   C2B61964  25.501   2.495   6.666
 4853POPC   C3B61965  25.658   2.539   7.119
 4853POPC   C4B61966  25.574   2.558   7.586
 4854POPC   NC361967  36.292   9.603   5.181
 4854POPC   PO461968  35.891  10.032   5.488
 4854POPC   GL161969  36.075   9.929   5.855
 4854POPC   GL261970  35.813  10.167   5.973
 4854POPC   C1A61971  36.265   9.673   6.217
 4854POPC   D2A61972  36.075   9.700   6.629
 4854POPC   C3A61973  36.259   9.622   6.980
 4854POPC   C4A61974  36.322   9.599   7.385
 4854POPC   C1B61975  35.765   9.875   6.261
 4854POPC   C2B61976  35.691  10.036   6.643
 4854POPC   C3B61977  35.821   9.933   7.053
 4854POPC   C4B61978  35.629   9.856   7.412
 4855POPC   NC361979  42.497  44.482   5.300
 4855POPC   PO461980  42.086  44.900   5.646
 4855POPC   GL161981  42.430  44.829   5.917
 4855POPC   GL261982  42.556  44.509   5.859
 4855POPC   C1A61983  42.415  44.760   6.357
 4855POPC   D2A61984  42.038  44.653   6.606
 4855POPC   C3A61985  42.160  44.521   7.016
 4855POPC   C4A61986  42.008  44.645   7.413
 4855POPC   C1B61987  42.800  44.424   6.241
 4855POPC   C2B61988  42.715  44.312   6.693
 4855POPC   C3B61989  42.677  44.575   7.090
 4855POPC   C4B61990  42.693   0.035   7.241
 4856POPC   NC361991  11.599   4.398   5.109
 4856POPC   PO461992  11.012   4.153   5.423
 4856POPC   GL161993  11.121   4.217   5.849
 4856POPC   GL261994  11.159   4.577   5.893
 4856POPC   C1A61995  11.329   4.128   6.257
 4856POPC   D2A61996  11.532   4.130   6.652
 4856POPC   C3A61997  11.294   4.150   7.029
 4856POPC   C4A61998  11.449   4.321   7.366
 4856POPC   C1B61999  11.196   4.648   6.335
 4856POPC   C2B62000  11.373   4.613   6.761
 4856POPC   C3B62001  11.210   4.709   7.159
 4856POPC   C4B62002  11.242   4.690   7.638
 4857POPC   NC362003  25.599  15.243   5.321
 4857POPC   PO462004  26.232  15.415   5.119
 4857POPC   GL162005  26.049  15.322   5.583
 4857POPC   GL262006  26.136  14.980   5.665
 4857POPC   C1A62007  25.819  15.202   6.026
 4857POPC   D2A62008  25.984  15.212   6.498
 4857POPC   C3A62009  25.931  14.957   6.890
 4857POPC   C4A62010  25.857  15.148   7.294
 4857POPC   C1B62011  26.251  14.969   6.131
 4857POPC   C2B62012  26.318  14.750   6.539
 4857POPC   C3B62013  26.426  14.810   6.945
 4857POPC   C4B62014  26.353  15.008   7.330
 4858POPC   NC362015  14.161  14.784   5.576
 4858POPC   PO462016  14.412  15.305   5.277
 4858POPC   GL162017  14.476  15.179   5.738
 4858POPC   GL262018  14.179  15.201   5.890
 4858POPC   C1A62019  14.637  15.070   6.187
 4858POPC   D2A62020  14.788  15.293   6.586
 4858POPC   C3A62021  14.626  15.143   6.986
 4858POPC   C4A62022  14.376  14.964   7.343
 4858POPC   C1B62023  14.130  15.127   6.297
 4858POPC   C2B62024  14.259  15.323   6.654
 4858POPC   C3B62025  14.054  15.111   6.968
 4858POPC   C4B62026  13.907  15.190   7.361
 4859POPC   NC362027  19.499  13.457   5.401
 4859POPC   PO462028  19.198  13.975   5.355
 4859POPC   GL162029  18.985  13.883   5.721
 4859POPC   GL262030  19.126  14.106   5.983
 4859POPC   C1A62031  19.008  13.629   6.080
 4859POPC   D2A62032  19.151  13.505   6.494
 4859POPC   C3A62033  19.008  13.590   6.883
 4859POPC   C4A62034  18.984  13.529   7.316
 4859POPC   C1B62035  19.421  13.889   6.289
 4859POPC   C2B62036  19.471  13.851   6.731
 4859POPC   C3B62037  19.373  13.816   7.149
 4859POPC   C4B62038  19.319  13.802   7.629
 4860POPC   NC362039  27.816  36.641   5.404
 4860POPC   PO462040  27.426  37.128   5.213
 4860POPC   GL162041  27.557  37.009   5.701
 4860POPC   GL262042  27.918  37.030   5.761
 4860POPC   C1A62043  27.619  36.868   6.189
 4860POPC   D2A62044  27.889  36.899   6.588
 4860POPC   C3A62045  27.710  36.881   7.025
 4860POPC   C4A62046  27.663  36.917   7.507
 4860POPC   C1B62047  27.758  37.333   6.089
 4860POPC   C2B62048  27.558  37.316   6.491
 4860POPC   C3B62049  27.653  37.371   6.940
 4860POPC   C4B62050  27.937  37.320   7.312
 4861POPC   NC362051  35.751   2.047   5.334
 4861POPC   PO462052  35.198   2.243   5.593
 4861POPC   GL162053  35.316   1.854   5.821
 4861POPC   GL262054  35.646   1.687   5.706
 4861POPC   C1A62055  35.244   1.961   6.247
 4861POPC   D2A62056  35.218   2.323   6.486
 4861POPC   C3A62057  35.230   2.124   6.881
 4861POPC   C4A62058  35.317   2.069   7.278
 4861POPC   C1B62059  35.731   1.828   6.145
 4861POPC   C2B62060  35.675   2.030   6.555
 4861POPC   C3B62061  35.834   1.861   6.918
 4861POPC   C4B62062  35.633   1.645   7.225
 4862POPC   NC362063  15.495  35.009   5.500
 4862POPC   PO462064  15.283  34.332   5.380
 4862POPC   GL162065  15.179  34.645   5.736
 4862POPC   GL262066  14.865  34.862   5.723
 4862POPC   C1A62067  15.298  34.601   6.185
 4862POPC   D2A62068  15.147  34.339   6.534
 4862POPC   C3A62069  15.455  34.242   6.867
 4862POPC   C4A62070  15.376  34.529   7.182
 4862POPC   C1B62071  14.822  34.755   6.113
 4862POPC   C2B62072  14.971  34.867   6.487
 4862POPC   C3B62073  15.197  34.834   6.820
 4862POPC   C4B62074  14.963  34.867   7.201
 4863POPC   NC362075   4.881  20.589   5.497
 4863POPC   PO462076   5.044  21.260   5.477
 4863POPC   GL162077   5.153  20.958   5.794
 4863POPC   GL262078   4.810  20.892   5.925
 4863POPC   C1A62079   5.240  20.743   6.199
 4863POPC   D2A62080   5.075  20.476   6.543
 4863POPC   C3A62081   5.264  20.395   6.937
 4863POPC   C4A62082   5.325  20.768   7.145
 4863POPC   C1B62083   4.756  20.896   6.379
 4863POPC   C2B62084   4.741  20.791   6.816
 4863POPC   C3B62085   4.773  20.934   7.247
 4863POPC   C4B62086   4.913  21.026   7.660
 4864POPC   NC362087  21.662  11.813   5.377
 4864POPC   PO462088  21.115  11.363   5.294
 4864POPC   GL162089  21.314  11.277   5.707
 4864POPC   GL262090  21.650  11.461   5.767
 4864POPC   C1A62091  21.425  11.108   6.134
 4864POPC   D2A62092  21.312  11.421   6.461
 4864POPC   C3A62093  21.331  11.267   6.893
 4864POPC   C4A62094  21.056  11.282   7.260
 4864POPC   C1B62095  21.829  11.405   6.185
 4864POPC   C2B62096  21.767  11.275   6.602
 4864POPC   C3B62097  21.850  11.430   7.016
 4864POPC   C4B62098  21.591  11.293   7.342
 4865POPC   NC362099  12.996  19.551   5.460
 4865POPC   PO462100  12.397  19.847   5.403
 4865POPC   GL162101  12.647  19.773   5.811
 4865POPC   GL262102  12.970  19.942   5.815
 4865POPC   C1A62103  12.679  19.926   6.261
 4865POPC   D2A62104  12.400  19.961   6.605
 4865POPC   C3A62105  12.564  19.914   7.003
 4865POPC   C4A62106  12.849  20.012   7.286
 4865POPC   C1B62107  13.128  19.677   6.120
 4865POPC   C2B62108  13.064  19.703   6.539
 4865POPC   C3B62109  13.001  19.651   6.949
 4865POPC   C4B62110  13.090  19.562   7.346
 4866POPC   NC362111  17.761  15.068   5.379
 4866POPC   PO462112  17.103  15.398   5.238
 4866POPC   GL162113  17.423  15.444   5.682
 4866POPC   GL262114  17.676  15.189   5.897
 4866POPC   C1A62115  17.385  15.512   6.160
 4866POPC   D2A62116  17.645  15.324   6.513
 4866POPC   C3A62117  17.413  15.299   6.913
 4866POPC   C4A62118  17.531  15.232   7.346
 4866POPC   C1B62119  17.385  14.981   6.246
 4866POPC   C2B62120  17.433  14.817   6.699
 4866POPC   C3B62121  17.254  14.845   7.143
 4866POPC   C4B62122  17.241  14.932   7.646
 4867POPC   NC362123  34.027  11.330   5.492
 4867POPC   PO462124  33.605  10.931   5.368
 4867POPC   GL162125  33.621  11.262   5.799
 4867POPC   GL262126  33.945  11.275   5.982
 4867POPC   C1A62127  33.616  11.549   6.232
 4867POPC   D2A62128  33.751  11.641   6.704
 4867POPC   C3A62129  33.501  11.449   7.039
 4867POPC   C4A62130  33.383  11.176   7.377
 4867POPC   C1B62131  34.248  11.188   6.283
 4867POPC   C2B62132  34.225  10.977   6.668
 4867POPC   C3B62133  33.972  11.187   6.939
 4867POPC   C4B62134  33.925  11.197   7.353
 4868POPC   NC362135  13.767   0.789   5.386
 4868POPC   PO462136  13.972   0.173   5.377
 4868POPC   GL162137  13.888   0.445   5.783
 4868POPC   GL262138  13.544   0.515   5.836
 4868POPC   C1A62139  13.942   0.716   6.177
 4868POPC   D2A62140  13.712   0.704   6.538
 4868POPC   C3A62141  13.860   0.441   6.830
 4868POPC   C4A62142  13.843   0.578   7.219
 4868POPC   C1B62143  13.666   0.295   6.228
 4868POPC   C2B62144  13.484   0.153   6.646
 4868POPC   C3B62145  13.456   0.235   7.096
 4868POPC   C4B62146  13.601   0.248   7.522
 4869POPC   NC362147  12.626  24.648   5.388
 4869POPC   PO462148  13.275  24.640   5.599
 4869POPC   GL162149  12.891  24.631   5.838
 4869POPC   GL262150  12.794  24.284   5.747
 4869POPC   C1A62151  12.728  24.577   6.269
 4869POPC   D2A62152  12.873  24.734   6.689
 4869POPC   C3A62153  12.711  24.689   7.089
 4869POPC   C4A62154  12.718  24.372   7.410
 4869POPC   C1B62155  13.039  24.169   6.114
 4869POPC   C2B62156  13.103  24.290   6.540
 4869POPC   C3B62157  12.813  24.234   6.877
 4869POPC   C4B62158  12.992  24.023   7.188
 4870POPC   NC362159  12.464  44.250   5.435
 4870POPC   PO462160  13.103  44.607   5.506
 4870POPC   GL162161  12.743  44.630   5.803
 4870POPC   GL262162  12.940  44.873   6.008
 4870POPC   C1A62163  12.458  44.768   6.121
 4870POPC   D2A62164  12.652  44.876   6.491
 4870POPC   C3A62165  12.721  44.586   6.851
 4870POPC   C4A62166  12.678  44.712   7.294
 4870POPC   C1B62167  13.080  44.448   6.166
 4870POPC   C2B62168  13.090  44.215   6.553
 4870POPC   C3B62169  13.263  44.336   6.933
 4870POPC   C4B62170  13.103  44.433   7.318
 4871POPC   NC362171  22.316  25.843   5.574
 4871POPC   PO462172  22.002  26.395   5.417
 4871POPC   GL162173  21.985  26.176   5.850
 4871POPC   GL262174  21.994  25.860   6.007
 4871POPC   C1A62175  22.134  26.266   6.294
 4871POPC   D2A62176  22.395  26.110   6.700
 4871POPC   C3A62177  22.162  26.142   7.105
 4871POPC   C4A62178  21.777  26.381   7.082
 4871POPC   C1B62179  22.303  25.788   6.310
 4871POPC   C2B62180  22.273  25.577   6.715
 4871POPC   C3B62181  22.296  25.617   7.172
 4871POPC   C4B62182  22.004  25.734   7.515
 4872POPC   NC362183   5.278  19.213   5.172
 4872POPC   PO462184   4.890  18.751   5.341
 4872POPC   GL162185   5.109  18.999   5.687
 4872POPC   GL262186   4.878  19.229   5.834
 4872POPC   C1A62187   5.178  18.931   6.182
 4872POPC   D2A62188   5.347  18.742   6.625
 4872POPC   C3A62189   5.206  18.940   7.040
 4872POPC   C4A62190   5.087  19.370   7.189
 4872POPC   C1B62191   4.798  19.292   6.271
 4872POPC   C2B62192   4.871  19.145   6.714
 4872POPC   C3B62193   4.671  19.109   7.141
 4872POPC   C4B62194   4.701  19.307   7.605
 4873POPC   NC362195  32.092  36.685   5.211
 4873POPC   PO462196  32.454  37.227   5.280
 4873POPC   GL162197  32.375  37.023   5.717
 4873POPC   GL262198  32.064  36.824   5.810
 4873POPC   C1A62199  32.337  37.076   6.171
 4873POPC   D2A62200  32.275  36.939   6.575
 4873POPC   C3A62201  32.431  36.727   6.930
 4873POPC   C4A62202  32.117  36.998   7.083
 4873POPC   C1B62203  31.973  36.676   6.257
 4873POPC   C2B62204  31.948  36.594   6.756
 4873POPC   C3B62205  31.706  36.695   7.146
 4873POPC   C4B62206  31.755  36.682   7.604
 4874POPC   NC362207   6.444  26.282   5.693
 4874POPC   PO462208   6.847  26.802   5.323
 4874POPC   GL162209   6.616  26.799   5.750
 4874POPC   GL262210   6.498  27.117   5.856
 4874POPC   C1A62211   6.510  26.694   6.219
 4874POPC   D2A62212   6.691  26.612   6.648
 4874POPC   C3A62213   6.470  26.638   7.059
 4874POPC   C4A62214   6.532  26.509   7.517
 4874POPC   C1B62215   6.195  27.097   6.207
 4874POPC   C2B62216   6.219  27.049   6.644
 4874POPC   C3B62217   6.586  27.112   6.873
 4874POPC   C4B62218   6.548  27.257   7.263
 4875POPC   NC362219  30.200  41.823   5.763
 4875POPC   PO462220  30.591  41.455   5.355
 4875POPC   GL162221  30.668  41.555   5.774
 4875POPC   GL262222  30.407  41.330   5.824
 4875POPC   C1A62223  30.936  41.546   6.154
 4875POPC   D2A62224  30.806  41.459   6.570
 4875POPC   C3A62225  30.777  41.693   6.943
 4875POPC   C4A62226  30.443  41.692   7.251
 4875POPC   C1B62227  30.587  41.137   6.179
 4875POPC   C2B62228  30.520  41.014   6.587
 4875POPC   C3B62229  30.457  41.238   6.973
 4875POPC   C4B62230  30.417  41.049   7.396
 4876POPC   NC362231   2.226  32.555   5.602
 4876POPC   PO462232   1.768  32.067   5.506
 4876POPC   GL162233   1.995  32.117   5.885
 4876POPC   GL262234   1.823  32.432   5.884
 4876POPC   C1A62235   2.066  32.095   6.356
 4876POPC   D2A62236   2.306  32.345   6.683
 4876POPC   C3A62237   2.251  32.213   7.097
 4876POPC   C4A62238   1.813  32.064   7.134
 4876POPC   C1B62239   1.984  32.581   6.256
 4876POPC   C2B62240   1.808  32.465   6.648
 4876POPC   C3B62241   1.726  32.707   6.968
 4876POPC   C4B62242   1.913  32.566   7.294
 4877POPC   NC362243  18.487   3.034   5.300
 4877POPC   PO462244  18.081   2.543   5.400
 4877POPC   GL162245  18.335   2.686   5.768
 4877POPC   GL262246  18.675   2.480   5.785
 4877POPC   C1A62247  18.173   2.852   6.199
 4877POPC   D2A62248  18.159   2.615   6.593
 4877POPC   C3A62249  18.161   2.832   6.983
 4877POPC   C4A62250  17.847   3.076   7.173
 4877POPC   C1B62251  18.629   2.634   6.220
 4877POPC   C2B62252  18.649   2.806   6.655
 4877POPC   C3B62253  18.617   2.591   7.038
 4877POPC   C4B62254  18.357   2.565   7.403
 4878POPC   NC362255  25.270  15.518   5.729
 4878POPC   PO462256  25.177  15.059   5.180
 4878POPC   GL162257  25.092  15.030   5.641
 4878POPC   GL262258  24.841  15.242   5.688
 4878POPC   C1A62259  25.301  15.002   6.113
 4878POPC   D2A62260  25.476  15.310   6.429
 4878POPC   C3A62261  25.458  15.172   6.873
 4878POPC   C4A62262  25.389  15.356   7.263
 4878POPC   C1B62263  24.800  14.946   6.052
 4878POPC   C2B62264  24.762  15.038   6.480
 4878POPC   C3B62265  24.952  14.947   6.870
 4878POPC   C4B62266  25.140  14.887   7.255
 4879POPC   NC362267  23.074   3.918   5.552
 4879POPC   PO462268  22.770   3.356   5.528
 4879POPC   GL162269  22.854   3.634   5.923
 4879POPC   GL262270  23.232   3.613   5.931
 4879POPC   C1A62271  23.039   3.820   6.345
 4879POPC   D2A62272  23.187   3.730   6.787
 4879POPC   C3A62273  22.885   3.618   7.099
 4879POPC   C4A62274  22.775   3.800   7.492
 4879POPC   C1B62275  23.109   3.212   6.125
 4879POPC   C2B62276  23.104   3.091   6.552
 4879POPC   C3B62277  23.308   3.226   6.938
 4879POPC   C4B62278  23.232   3.375   7.353
 4880POPC   NC362279  33.309  21.158   5.172
 4880POPC   PO462280  33.077  20.591   5.523
 4880POPC   GL162281  32.869  20.780   5.845
 4880POPC   GL262282  32.713  20.474   5.980
 4880POPC   C1A62283  32.989  20.901   6.260
 4880POPC   D2A62284  33.211  20.678   6.551
 4880POPC   C3A62285  32.983  20.523   6.911
 4880POPC   C4A62286  32.869  20.785   7.264
 4880POPC   C1B62287  33.130  20.411   6.129
 4880POPC   C2B62288  33.307  20.192   6.474
 4880POPC   C3B62289  33.339  20.120   6.912
 4880POPC   C4B62290  33.250  20.261   7.302
 4881POPC   NC362291  14.800  10.523   5.496
 4881POPC   PO462292  15.464  10.454   5.559
 4881POPC   GL162293  15.175  10.397   5.886
 4881POPC   GL262294  15.077  10.714   5.897
 4881POPC   C1A62295  15.009  10.380   6.325
 4881POPC   D2A62296  14.950  10.318   6.764
 4881POPC   C3A62297  15.267  10.447   7.015
 4881POPC   C4A62298  15.155  10.554   7.407
 4881POPC   C1B62299  14.796  10.851   6.195
 4881POPC   C2B62300  14.692  10.734   6.611
 4881POPC   C3B62301  14.849  10.749   7.011
 4881POPC   C4B62302  14.675  10.744   7.413
 4882POPC   NC362303  25.598  36.190   5.475
 4882POPC   PO462304  26.225  36.018   5.416
 4882POPC   GL162305  26.088  36.267   5.743
 4882POPC   GL262306  26.267  36.062   5.935
 4882POPC   C1A62307  25.976  36.379   6.197
 4882POPC   D2A62308  25.981  36.104   6.571
 4882POPC   C3A62309  25.933  36.269   6.955
 4882POPC   C4A62310  26.234  36.321   7.242
 4882POPC   C1B62311  26.293  35.811   6.268
 4882POPC   C2B62312  26.481  35.887   6.618
 4882POPC   C3B62313  26.446  35.918   7.021
 4882POPC   C4B62314  26.064  35.820   7.173
 4883POPC   NC362315  27.986  10.355   5.642
 4883POPC   PO462316  28.493  10.260   5.198
 4883POPC   GL162317  28.435  10.622   5.663
 4883POPC   GL262318  28.233  10.841   5.879
 4883POPC   C1A62319  28.507  10.581   6.194
 4883POPC   D2A62320  28.221  10.354   6.514
 4883POPC   C3A62321  28.361  10.416   6.942
 4883POPC   C4A62322  28.663  10.685   7.159
 4883POPC   C1B62323  27.980  10.773   6.317
 4883POPC   C2B62324  27.917  10.672   6.788
 4883POPC   C3B62325  28.134  10.837   7.154
 4883POPC   C4B62326  28.000  10.947   7.579
 4884POPC   NC362327  30.419   9.230   5.465
 4884POPC   PO462328  29.818   8.892   5.390
 4884POPC   GL162329  29.731   8.964   5.781
 4884POPC   GL262330  30.056   9.021   5.897
 4884POPC   C1A62331  29.738   8.681   6.121
 4884POPC   D2A62332  29.730   8.606   6.539
 4884POPC   C3A62333  29.654   8.931   6.807
 4884POPC   C4A62334  29.584   8.912   7.239
 4884POPC   C1B62335  30.109   9.006   6.354
 4884POPC   C2B62336  30.174   9.119   6.792
 4884POPC   C3B62337  30.098   9.116   7.262
 4884POPC   C4B62338  30.292   8.959   7.673
 4885POPC   NC362339  32.669  13.310   5.360
 4885POPC   PO462340  31.992  13.587   5.289
 4885POPC   GL162341  32.154  13.622   5.776
 4885POPC   GL262342  31.940  13.394   6.008
 4885POPC   C1A62343  32.349  13.766   6.183
 4885POPC   D2A62344  32.573  13.877   6.573
 4885POPC   C3A62345  32.408  13.950   6.982
 4885POPC   C4A62346  32.363  13.620   7.302
 4885POPC   C1B62347  32.359  13.260   6.112
 4885POPC   C2B62348  32.566  13.335   6.479
 4885POPC   C3B62349  32.357  13.439   6.817
 4885POPC   C4B62350  32.340  13.149   7.132
 4886POPC   NC362351  35.721  37.490   5.421
 4886POPC   PO462352  35.067  37.736   5.455
 4886POPC   GL162353  35.366  37.735   5.764
 4886POPC   GL262354  35.362  37.386   5.805
 4886POPC   C1A62355  35.401  37.749   6.201
 4886POPC   D2A62356  35.344  37.664   6.611
 4886POPC   C3A62357  35.497  37.970   6.906
 4886POPC   C4A62358  35.460  37.854   7.321
 4886POPC   C1B62359  35.690  37.304   6.121
 4886POPC   C2B62360  35.690  37.256   6.581
 4886POPC   C3B62361  35.497  37.321   6.984
 4886POPC   C4B62362  35.603  37.368   7.434
 4887POPC   NC362363   1.658  29.354   5.543
 4887POPC   PO462364   2.380  29.177   5.436
 4887POPC   GL162365   2.100  29.190   5.774
 4887POPC   GL262366   2.034  29.530   5.876
 4887POPC   C1A62367   1.874  29.095   6.153
 4887POPC   D2A62368   2.015  29.176   6.541
 4887POPC   C3A62369   1.903  28.984   6.909
 4887POPC   C4A62370   2.007  29.135   7.318
 4887POPC   C1B62371   2.347  29.371   6.194
 4887POPC   C2B62372   2.491  29.333   6.635
 4887POPC   C3B62373   2.209  29.420   6.967
 4887POPC   C4B62374   2.203  29.625   7.380
 4888POPC   NC362375  16.442  23.957   5.470
 4888POPC   PO462376  17.056  23.673   5.463
 4888POPC   GL162377  16.846  23.829   5.834
 4888POPC   GL262378  16.507  23.678   5.902
 4888POPC   C1A62379  16.844  23.748   6.287
 4888POPC   D2A62380  16.871  23.382   6.549
 4888POPC   C3A62381  16.907  23.557   6.981
 4888POPC   C4A62382  16.923  23.965   7.244
 4888POPC   C1B62383  16.335  23.619   6.317
 4888POPC   C2B62384  16.489  23.718   6.733
 4888POPC   C3B62385  16.447  23.828   7.158
 4888POPC   C4B62386  16.281  23.710   7.524
 4889POPC   NC362387   6.703   4.110   5.330
 4889POPC   PO462388   6.989   4.739   5.409
 4889POPC   GL162389   6.878   4.392   5.736
 4889POPC   GL262390   6.691   4.033   5.826
 4889POPC   C1A62391   6.982   4.318   6.161
 4889POPC   D2A62392   7.057   4.320   6.582
 4889POPC   C3A62393   6.841   4.664   6.808
 4889POPC   C4A62394   6.774   4.685   7.265
 4889POPC   C1B62395   6.483   3.976   6.241
 4889POPC   C2B62396   6.569   4.223   6.630
 4889POPC   C3B62397   6.798   4.209   7.032
 4889POPC   C4B62398   6.448   4.241   7.267
 4890POPC   NC362399  24.865   0.642   5.230
 4890POPC   PO462400  25.307   0.217   5.505
 4890POPC   GL162401  25.084   0.359   5.889
 4890POPC   GL262402  24.999   0.727   5.864
 4890POPC   C1A62403  25.106   0.308   6.362
 4890POPC   D2A62404  25.384   0.223   6.752
 4890POPC   C3A62405  25.159   0.306   7.167
 4890POPC   C4A62406  25.042   0.419   7.607
 4890POPC   C1B62407  25.283   0.770   6.258
 4890POPC   C2B62408  25.185   0.710   6.721
 4890POPC   C3B62409  25.348   0.795   7.147
 4890POPC   C4B62410  25.502   0.609   7.524
 4891POPC   NC362411  10.697  31.241   5.549
 4891POPC   PO462412  10.259  31.818   5.464
 4891POPC   GL162413  10.493  31.650   5.828
 4891POPC   GL262414  10.867  31.675   5.762
 4891POPC   C1A62415  10.414  31.540   6.274
 4891POPC   D2A62416  10.603  31.293   6.606
 4891POPC   C3A62417  10.330  31.196   6.980
 4891POPC   C4A62418  10.106  31.003   7.339
 4891POPC   C1B62419  10.937  31.487   6.182
 4891POPC   C2B62420  10.920  31.689   6.594
 4891POPC   C3B62421  10.950  31.482   6.958
 4891POPC   C4B62422  10.861  31.091   7.004
 4892POPC   NC362423   2.337   5.747   5.416
 4892POPC   PO462424   1.753   6.212   5.375
 4892POPC   GL162425   1.985   6.063   5.739
 4892POPC   GL262426   1.668   6.062   5.947
 4892POPC   C1A62427   2.123   5.896   6.163
 4892POPC   D2A62428   1.912   5.725   6.547
 4892POPC   C3A62429   2.089   5.761   6.971
 4892POPC   C4A62430   2.264   6.008   7.269
 4892POPC   C1B62431   1.476   5.741   6.221
 4892POPC   C2B62432   1.409   5.602   6.648
 4892POPC   C3B62433   1.595   5.889   6.913
 4892POPC   C4B62434   1.732   6.010   7.269
 4893POPC   NC362435   7.214  22.696   5.181
 4893POPC   PO462436   6.652  22.965   5.319
 4893POPC   GL162437   6.745  23.162   5.725
 4893POPC   GL262438   6.773  22.903   5.938
 4893POPC   C1A62439   6.538  23.316   6.125
 4893POPC   D2A62440   6.280  23.093   6.441
 4893POPC   C3A62441   6.284  23.242   6.873
 4893POPC   C4A62442   6.543  23.086   7.204
 4893POPC   C1B62443   6.826  22.926   6.345
 4893POPC   C2B62444   6.708  22.970   6.735
 4893POPC   C3B62445   7.016  22.992   7.016
 4893POPC   C4B62446   7.022  23.149   7.442
 4894POPC   NC362447  31.838  29.809   5.573
 4894POPC   PO462448  32.376  30.098   5.201
 4894POPC   GL162449  32.266  30.071   5.703
 4894POPC   GL262450  32.336  29.743   5.873
 4894POPC   C1A62451  31.991  30.033   6.141
 4894POPC   D2A62452  32.170  29.852   6.526
 4894POPC   C3A62453  32.027  29.906   6.947
 4894POPC   C4A62454  32.205  30.150   7.247
 4894POPC   C1B62455  32.495  29.511   6.245
 4894POPC   C2B62456  32.509  29.515   6.703
 4894POPC   C3B62457  32.521  29.854   6.969
 4894POPC   C4B62458  32.615  29.906   7.422
 4895POPC   NC362459  26.825  23.424   5.424
 4895POPC   PO462460  26.711  24.137   5.549
 4895POPC   GL162461  26.838  23.831   5.851
 4895POPC   GL262462  26.649  23.531   5.881
 4895POPC   C1A62463  26.928  23.847   6.296
 4895POPC   D2A62464  26.918  24.143   6.630
 4895POPC   C3A62465  26.713  23.957   6.957
 4895POPC   C4A62466  26.896  23.677   7.250
 4895POPC   C1B62467  26.695  23.400   6.321
 4895POPC   C2B62468  26.672  23.487   6.777
 4895POPC   C3B62469  26.602  23.281   7.168
 4895POPC   C4B62470  26.471  23.266   7.607
 4896POPC   NC362471  31.956  38.266   5.613
 4896POPC   PO462472  31.340  38.272   5.400
 4896POPC   GL162473  31.418  38.532   5.738
 4896POPC   GL262474  31.273  38.284   5.945
 4896POPC   C1A62475  31.631  38.597   6.140
 4896POPC   D2A62476  31.599  38.340   6.524
 4896POPC   C3A62477  31.713  38.568   6.910
 4896POPC   C4A62478  31.517  38.770   7.287
 4896POPC   C1B62479  31.286  37.978   6.305
 4896POPC   C2B62480  31.295  37.994   6.769
 4896POPC   C3B62481  31.271  38.142   7.176
 4896POPC   C4B62482  31.237  38.417   7.553
 4897POPC   NC362483  44.786   1.087   5.383
 4897POPC   PO462484  44.768   1.664   5.716
 4897POPC   GL162485  44.671   1.321   5.935
 4897POPC   GL262486  44.873   1.034   5.920
 4897POPC   C1A62487  44.893   1.317   6.333
 4897POPC   D2A62488   0.009   1.389   6.745
 4897POPC   C3A62489  44.713   1.209   6.976
 4897POPC   C4A62490  44.324   1.343   7.047
 4897POPC   C1B62491  44.523   0.920   6.239
 4897POPC   C2B62492  44.362   0.945   6.686
 4897POPC   C3B62493  44.337   0.855   7.156
 4897POPC   C4B62494  44.627   1.036   7.464
 4898POPC   NC362495   8.898   7.731   5.373
 4898POPC   PO462496   9.144   8.325   5.326
 4898POPC   GL162497   9.170   8.119   5.742
 4898POPC   GL262498   9.276   7.776   5.808
 4898POPC   C1A62499   9.183   8.262   6.183
 4898POPC   D2A62500   9.041   8.461   6.558
 4898POPC   C3A62501   9.091   8.280   6.963
 4898POPC   C4A62502   8.746   8.379   7.258
 4898POPC   C1B62503   8.954   7.792   6.125
 4898POPC   C2B62504   8.909   7.928   6.550
 4898POPC   C3B62505   8.858   7.784   6.958
 4898POPC   C4B62506   8.971   7.940   7.344
 4899POPC   NC362507  12.409   8.378   5.354
 4899POPC   PO462508  11.718   8.080   5.458
 4899POPC   GL162509  11.946   8.116   5.802
 4899POPC   GL262510  12.033   8.443   5.784
 4899POPC   C1A62511  12.040   7.943   6.193
 4899POPC   D2A62512  12.268   7.947   6.582
 4899POPC   C3A62513  12.016   7.989   6.947
 4899POPC   C4A62514  12.070   7.897   7.382
 4899POPC   C1B62515  12.330   8.356   6.099
 4899POPC   C2B62516  12.247   8.476   6.524
 4899POPC   C3B62517  12.159   8.485   6.932
 4899POPC   C4B62518  11.958   8.386   7.285
 4900POPC   NC362519  44.237  36.535   5.378
 4900POPC   PO462520  43.622  36.923   5.473
 4900POPC   GL162521  43.498  37.090   5.833
 4900POPC   GL262522  43.389  36.796   5.949
 4900POPC   C1A62523  43.645  37.278   6.216
 4900POPC   D2A62524  43.780  37.009   6.551
 4900POPC   C3A62525  43.689  37.115   6.951
 4900POPC   C4A62526  43.909  37.062   7.366
 4900POPC   C1B62527  43.381  36.720   6.370
 4900POPC   C2B62528  43.599  36.556   6.711
 4900POPC   C3B62529  43.553  36.624   7.127
 4900POPC   C4B62530  43.387  36.965   7.334
 4901POPC   NC362531  17.429  44.662   5.344
 4901POPC   PO462532  17.178   0.240   5.165
 4901POPC   GL162533  17.462  44.935   5.742
 4901POPC   GL262534  17.475  44.520   5.830
 4901POPC   C1A62535  17.474  44.844   6.198
 4901POPC   D2A62536  17.310  44.515   6.486
 4901POPC   C3A62537  17.254  44.675   6.883
 4901POPC   C4A62538  17.304  44.857   7.259
 4901POPC   C1B62539  17.737  44.349   6.209
 4901POPC   C2B62540  17.738  44.214   6.675
 4901POPC   C3B62541  17.713  44.474   7.076
 4901POPC   C4B62542  17.760  44.527   7.546
 4902POPC   NC362543  10.214   1.005   5.442
 4902POPC   PO462544   9.547   1.154   5.415
 4902POPC   GL162545   9.682   1.102   5.822
 4902POPC   GL262546   9.973   1.292   5.882
 4902POPC   C1A62547   9.675   1.067   6.270
 4902POPC   D2A62548   9.411   1.073   6.623
 4902POPC   C3A62549   9.656   1.030   7.018
 4902POPC   C4A62550   9.752   0.913   7.462
 4902POPC   C1B62551   9.809   1.562   6.218
 4902POPC   C2B62552   9.763   1.441   6.667
 4902POPC   C3B62553   9.814   1.590   7.100
 4902POPC   C4B62554   9.880   1.541   7.532
 4903POPC   NC362555  17.723  31.666   5.291
 4903POPC   PO462556  17.136  31.600   5.470
 4903POPC   GL162557  17.326  31.693   5.858
 4903POPC   GL262558  17.654  31.850   5.786
 4903POPC   C1A62559  17.224  31.558   6.307
 4903POPC   D2A62560  16.964  31.630   6.690
 4903POPC   C3A62561  17.181  31.575   7.081
 4903POPC   C4A62562  17.022  31.436   7.502
 4903POPC   C1B62563  17.685  31.758   6.249
 4903POPC   C2B62564  17.651  31.617   6.713
 4903POPC   C3B62565  17.683  31.755   7.163
 4903POPC   C4B62566  17.526  31.552   7.544
 4904POPC   NC362567  33.586  15.879   5.269
 4904POPC   PO462568  34.060  16.151   5.602
 4904POPC   GL162569  33.844  15.896   5.907
 4904POPC   GL262570  33.470  15.840   5.922
 4904POPC   C1A62571  33.735  16.031   6.339
 4904POPC   D2A62572  34.006  16.094   6.690
 4904POPC   C3A62573  34.038  15.885   7.091
 4904POPC   C4A62574  33.793  16.000   7.459
 4904POPC   C1B62575  33.688  15.496   6.190
 4904POPC   C2B62576  33.824  15.597   6.589
 4904POPC   C3B62577  33.586  15.834   6.865
 4904POPC   C4B62578  33.624  15.602   7.222
 4905POPC   NC362579  28.281   7.955   5.518
 4905POPC   PO462580  28.446   8.653   5.535
 4905POPC   GL162581  28.435   8.423   5.862
 4905POPC   GL262582  28.087   8.342   5.812
 4905POPC   C1A62583  28.627   8.529   6.273
 4905POPC   D2A62584  28.731   8.693   6.712
 4905POPC   C3A62585  28.687   8.368   7.049
 4905POPC   C4A62586  28.387   8.255   7.402
 4905POPC   C1B62587  28.222   8.089   6.176
 4905POPC   C2B62588  28.041   8.036   6.568
 4905POPC   C3B62589  28.233   8.030   6.979
 4905POPC   C4B62590  28.206   7.771   7.366
 4906POPC   NC362591  32.973  27.397   5.478
 4906POPC   PO462592  32.863  28.076   5.300
 4906POPC   GL162593  32.894  27.857   5.713
 4906POPC   GL262594  33.264  27.808   5.704
 4906POPC   C1A62595  32.966  27.667   6.153
 4906POPC   D2A62596  32.947  27.840   6.587
 4906POPC   C3A62597  32.776  27.705   7.001
 4906POPC   C4A62598  32.746  27.621   7.464
 4906POPC   C1B62599  33.478  27.798   6.096
 4906POPC   C2B62600  33.488  27.705   6.538
 4906POPC   C3B62601  33.248  27.477   6.859
 4906POPC   C4B62602  33.209  27.639   7.267
 4907POPC   NC362603  41.813  19.387   5.510
 4907POPC   PO462604  41.562  18.783   5.430
 4907POPC   GL162605  41.583  19.008   5.824
 4907POPC   GL262606  41.283  18.932   6.030
 4907POPC   C1A62607  41.728  18.915   6.244
 4907POPC   D2A62608  42.013  19.007   6.552
 4907POPC   C3A62609  41.779  18.814   6.907
 4907POPC   C4A62610  41.749  18.782   7.346
 4907POPC   C1B62611  41.266  19.181   6.395
 4907POPC   C2B62612  41.335  19.030   6.799
 4907POPC   C3B62613  41.411  19.195   7.237
 4907POPC   C4B62614  41.171  19.379   7.672
 4908POPC   NC362615  16.155  35.717   5.473
 4908POPC   PO462616  15.617  36.145   5.664
 4908POPC   GL162617  15.887  35.959   5.972
 4908POPC   GL262618  16.194  36.204   6.047
 4908POPC   C1A62619  15.863  35.916   6.428
 4908POPC   D2A62620  16.045  36.203   6.746
 4908POPC   C3A62621  15.802  36.309   7.107
 4908POPC   C4A62622  15.856  36.172   7.544
 4908POPC   C1B62623  16.380  35.962   6.421
 4908POPC   C2B62624  16.184  35.694   6.776
 4908POPC   C3B62625  16.004  35.851   7.144
 4908POPC   C4B62626  16.313  36.166   7.210
 4909POPC   NC362627  20.471  16.419   5.574
 4909POPC   PO462628  20.223  15.794   5.531
 4909POPC   GL162629  20.584  15.846   5.799
 4909POPC   GL262630  20.479  16.126   5.976
 4909POPC   C1A62631  20.878  15.812   6.181
 4909POPC   D2A62632  20.845  16.021   6.636
 4909POPC   C3A62633  20.800  15.822   7.060
 4909POPC   C4A62634  20.679  15.954   7.494
 4909POPC   C1B62635  20.434  15.933   6.363
 4909POPC   C2B62636  20.390  15.758   6.755
 4909POPC   C3B62637  20.309  15.658   7.185
 4909POPC   C4B62638  20.160  15.930   7.505
 4910POPC   NC362639  21.682  27.354   5.481
 4910POPC   PO462640  22.263  27.375   5.344
 4910POPC   GL162641  22.167  27.466   5.753
 4910POPC   GL262642  22.507  27.581   5.786
 4910POPC   C1A62643  21.979  27.538   6.139
 4910POPC   D2A62644  22.084  27.383   6.549
 4910POPC   C3A62645  21.964  27.477   6.958
 4910POPC   C4A62646  22.099  27.266   7.342
 4910POPC   C1B62647  22.414  27.823   6.138
 4910POPC   C2B62648  22.157  27.902   6.489
 4910POPC   C3B62649  22.280  27.873   6.895
 4910POPC   C4B62650  22.331  27.707   7.273
 4911POPC   NC362651  34.800  44.294   5.568
 4911POPC   PO462652  34.587  44.839   5.189
 4911POPC   GL162653  34.606  44.781   5.684
 4911POPC   GL262654  34.408  44.511   5.837
 4911POPC   C1A62655  34.582  44.828   6.179
 4911POPC   D2A62656  34.436  44.846   6.616
 4911POPC   C3A62657  34.748  44.773   6.952
 4911POPC   C4A62658  34.687  44.975   7.345
 4911POPC   C1B62659  34.599  44.310   6.227
 4911POPC   C2B62660  34.513  44.337   6.681
 4911POPC   C3B62661  34.357  44.491   7.084
 4911POPC   C4B62662  34.365  44.472   7.529
 4912POPC   NC362663  19.253   3.228   5.561
 4912POPC   PO462664  19.031   2.712   5.140
 4912POPC   GL162665  19.145   2.717   5.609
 4912POPC   GL262666  19.507   2.780   5.625
 4912POPC   C1A62667  19.133   2.593   6.067
 4912POPC   D2A62668  19.009   2.465   6.506
 4912POPC   C3A62669  19.117   2.584   6.909
 4912POPC   C4A62670  18.983   2.926   7.156
 4912POPC   C1B62671  19.600   2.787   6.091
 4912POPC   C2B62672  19.433   2.804   6.506
 4912POPC   C3B62673  19.589   2.766   6.914
 4912POPC   C4B62674  19.436   2.743   7.296
 4913POPC   NC362675  25.358   1.622   5.625
 4913POPC   PO462676  25.388   0.966   5.289
 4913POPC   GL162677  25.336   1.122   5.718
 4913POPC   GL262678  24.981   1.247   5.679
 4913POPC   C1A62679  25.543   1.220   6.150
 4913POPC   D2A62680  25.439   1.134   6.597
 4913POPC   C3A62681  25.561   1.284   6.992
 4913POPC   C4A62682  25.636   1.156   7.403
 4913POPC   C1B62683  25.022   1.196   6.129
 4913POPC   C2B62684  24.979   1.321   6.556
 4913POPC   C3B62685  25.048   1.166   6.973
 4913POPC   C4B62686  25.151   1.348   7.351
 4914POPC   NC362687  15.718  40.155   5.283
 4914POPC   PO462688  15.090  39.897   5.335
 4914POPC   GL162689  14.847  39.868   5.735
 4914POPC   GL262690  14.957  40.203   5.828
 4914POPC   C1A62691  14.924  39.789   6.194
 4914POPC   D2A62692  15.073  39.584   6.601
 4914POPC   C3A62693  15.063  39.819   6.998
 4914POPC   C4A62694  15.454  40.028   7.147
 4914POPC   C1B62695  15.130  40.307   6.274
 4914POPC   C2B62696  15.287  40.528   6.683
 4914POPC   C3B62697  15.482  40.553   7.129
 4914POPC   C4B62698  15.336  40.450   7.575
 4915POPC   NC362699  13.035  22.660   5.375
 4915POPC   PO462700  12.776  23.316   5.540
 4915POPC   GL162701  12.656  23.049   5.870
 4915POPC   GL262702  12.509  22.776   5.691
 4915POPC   C1A62703  12.911  23.018   6.244
 4915POPC   D2A62704  13.018  22.804   6.620
 4915POPC   C3A62705  12.858  22.983   7.005
 4915POPC   C4A62706  13.132  22.935   7.370
 4915POPC   C1B62707  12.302  22.714   6.092
 4915POPC   C2B62708  12.398  22.852   6.525
 4915POPC   C3B62709  12.487  22.611   6.898
 4915POPC   C4B62710  12.577  22.681   7.310
 4916POPC   NC362711  11.882  42.769   5.427
 4916POPC   PO462712  12.437  43.067   5.505
 4916POPC   GL162713  12.314  42.790   5.814
 4916POPC   GL262714  11.997  42.933   5.927
 4916POPC   C1A62715  12.419  42.950   6.230
 4916POPC   D2A62716  12.167  43.037   6.573
 4916POPC   C3A62717  12.346  43.069   6.968
 4916POPC   C4A62718  12.201  42.886   7.347
 4916POPC   C1B62719  11.942  43.320   6.186
 4916POPC   C2B62720  11.750  43.369   6.593
 4916POPC   C3B62721  11.817  43.089   6.948
 4916POPC   C4B62722  12.011  43.357   7.249
 4917POPC   NC362723  10.148   2.942   5.392
 4917POPC   PO462724  10.680   2.471   5.415
 4917POPC   GL162725  10.623   2.672   5.825
 4917POPC   GL262726  10.740   2.999   5.821
 4917POPC   C1A62727  10.419   2.627   6.256
 4917POPC   D2A62728  10.255   2.396   6.644
 4917POPC   C3A62729  10.334   2.435   7.140
 4917POPC   C4A62730  10.402   2.672   7.565
 4917POPC   C1B62731  10.609   3.110   6.227
 4917POPC   C2B62732  10.656   2.963   6.621
 4917POPC   C3B62733  10.531   2.926   7.037
 4917POPC   C4B62734  10.815   2.870   7.369
 4918POPC   NC362735  16.706  16.704   5.448
 4918POPC   PO462736  17.148  17.169   5.494
 4918POPC   GL162737  16.906  16.944   5.842
 4918POPC   GL262738  16.528  17.027   5.851
 4918POPC   C1A62739  16.831  16.986   6.275
 4918POPC   D2A62740  16.861  16.791   6.660
 4918POPC   C3A62741  16.619  16.970   6.951
 4918POPC   C4A62742  16.566  16.770   7.326
 4918POPC   C1B62743  16.331  16.796   6.218
 4918POPC   C2B62744  16.449  16.532   6.545
 4918POPC   C3B62745  16.376  16.467   6.972
 4918POPC   C4B62746  16.602  16.219   7.280
 4919POPC   NC362747  26.485  35.703   5.639
 4919POPC   PO462748  25.969  35.387   5.301
 4919POPC   GL162749  26.003  35.525   5.749
 4919POPC   GL262750  25.847  35.819   5.715
 4919POPC   C1A62751  25.917  35.438   6.231
 4919POPC   D2A62752  26.038  35.599   6.683
 4919POPC   C3A62753  26.161  35.323   7.053
 4919POPC   C4A62754  26.323  35.258   7.490
 4919POPC   C1B62755  25.792  35.910   6.135
 4919POPC   C2B62756  25.530  35.811   6.487
 4919POPC   C3B62757  25.625  35.820   6.911
 4919POPC   C4B62758  25.688  35.469   7.188
 4920POPC   NC362759  28.616  42.298   5.375
 4920POPC   PO462760  29.267  42.436   5.345
 4920POPC   GL162761  29.322  42.263   5.742
 4920POPC   GL262762  28.981  42.251   5.810
 4920POPC   C1A62763  29.371  42.349   6.189
 4920POPC   D2A62764  29.208  42.475   6.594
 4920POPC   C3A62765  29.270  42.246   6.944
 4920POPC   C4A62766  29.501  42.166   7.333
 4920POPC   C1B62767  28.857  42.264   6.254
 4920POPC   C2B62768  28.700  42.388   6.657
 4920POPC   C3B62769  28.736  42.233   7.061
 4920POPC   C4B62770  29.008  42.294   7.372
 4921POPC   NC362771  44.751  15.825   5.571
 4921POPC   PO462772  44.124  15.932   5.425
 4921POPC   GL162773  44.317  15.880   5.834
 4921POPC   GL262774  44.449  16.214   5.891
 4921POPC   C1A62775  44.487  15.692   6.237
 4921POPC   D2A62776  44.794  15.732   6.563
 4921POPC   C3A62777  44.674  15.861   6.921
 4921POPC   C4A62778  44.628  15.616   7.308
 4921POPC   C1B62779  44.729  16.210   6.275
 4921POPC   C2B62780   0.034  16.205   6.641
 4921POPC   C3B62781   0.073  16.164   7.080
 4921POPC   C4B62782  44.708  16.144   7.344
 4922POPC   NC362783   8.269  17.182   5.066
 4922POPC   PO462784   8.061  17.776   5.375
 4922POPC   GL162785   8.094  17.581   5.773
 4922POPC   GL262786   8.265  17.836   5.926
 4922POPC   C1A62787   8.041  17.301   6.147
 4922POPC   D2A62788   8.216  17.228   6.563
 4922POPC   C3A62789   7.978  17.415   6.872
 4922POPC   C4A62790   7.944  17.427   7.307
 4922POPC   C1B62791   8.406  17.957   6.328
 4922POPC   C2B62792   8.265  17.846   6.726
 4922POPC   C3B62793   8.355  17.747   7.128
 4922POPC   C4B62794   8.695  17.862   7.446
 4923POPC   NC362795  33.216  22.696   5.368
 4923POPC   PO462796  32.783  23.299   5.200
 4923POPC   GL162797  33.129  23.148   5.560
 4923POPC   GL262798  33.434  23.258   5.733
 4923POPC   C1A62799  33.112  22.890   5.993
 4923POPC   D2A62800  33.164  22.951   6.458
 4923POPC   C3A62801  32.870  23.028   6.831
 4923POPC   C4A62802  32.652  22.772   7.161
 4923POPC   C1B62803  33.572  23.020   6.149
 4923POPC   C2B62804  33.643  22.912   6.614
 4923POPC   C3B62805  33.354  22.949   6.982
 4923POPC   C4B62806  33.311  23.013   7.439
 4924POPC   NC362807   6.034  30.949   5.454
 4924POPC   PO462808   5.676  30.342   5.503
 4924POPC   GL162809   5.909  30.577   5.786
 4924POPC   GL262810   5.678  30.871   5.837
 4924POPC   C1A62811   6.095  30.526   6.169
 4924POPC   D2A62812   5.882  30.635   6.523
 4924POPC   C3A62813   5.990  30.453   6.882
 4924POPC   C4A62814   6.028  30.679   7.251
 4924POPC   C1B62815   5.959  31.013   6.179
 4924POPC   C2B62816   5.815  31.157   6.597
 4924POPC   C3B62817   5.818  31.092   7.038
 4924POPC   C4B62818   5.907  31.120   7.511
 4925POPC   NC362819  11.918   6.986   5.423
 4925POPC   PO462820  12.355   6.450   5.557
 4925POPC   GL162821  12.084   6.647   5.788
 4925POPC   GL262822  12.256   6.932   5.812
 4925POPC   C1A62823  12.015   6.721   6.216
 4925POPC   D2A62824  12.168   6.891   6.584
 4925POPC   C3A62825  12.087   6.673   6.941
 4925POPC   C4A62826  12.271   6.664   7.311
 4925POPC   C1B62827  12.432   7.098   6.181
 4925POPC   C2B62828  12.544   7.249   6.603
 4925POPC   C3B62829  12.318   7.165   7.001
 4925POPC   C4B62830  12.446   7.121   7.416
 4926POPC   NC362831  36.391  35.020   5.395
 4926POPC   PO462832  36.744  35.648   5.376
 4926POPC   GL162833  36.688  35.348   5.727
 4926POPC   GL262834  37.025  35.156   5.774
 4926POPC   C1A62835  36.720  35.326   6.198
 4926POPC   D2A62836  36.877  35.519   6.602
 4926POPC   C3A62837  36.585  35.535   6.959
 4926POPC   C4A62838  36.647  35.322   7.371
 4926POPC   C1B62839  37.237  35.157   6.191
 4926POPC   C2B62840  37.302  34.908   6.589
 4926POPC   C3B62841  37.359  35.072   6.999
 4926POPC   C4B62842  37.082  35.405   7.105
 4927POPC   NC362843  34.520   8.745   5.354
 4927POPC   PO462844  34.699   9.329   5.390
 4927POPC   GL162845  34.666   9.085   5.750
 4927POPC   GL262846  34.324   9.035   5.742
 4927POPC   C1A62847  34.866   9.092   6.171
 4927POPC   D2A62848  35.022   9.233   6.572
 4927POPC   C3A62849  34.704   9.158   6.903
 4927POPC   C4A62850  34.607   8.875   7.286
 4927POPC   C1B62851  34.472   8.775   6.112
 4927POPC   C2B62852  34.464   8.920   6.523
 4927POPC   C3B62853  34.240   8.870   6.923
 4927POPC   C4B62854  34.142   8.600   7.281
 4928POPC   NC362855   4.689  13.772   4.954
 4928POPC   PO462856   4.189  13.678   5.368
 4928POPC   GL162857   4.258  13.593   5.836
 4928POPC   GL262858   4.488  13.309   5.897
 4928POPC   C1A62859   4.190  13.555   6.290
 4928POPC   D2A62860   4.077  13.863   6.609
 4928POPC   C3A62861   4.204  13.779   7.040
 4928POPC   C4A62862   4.068  13.870   7.474
 4928POPC   C1B62863   4.382  13.049   6.246
 4928POPC   C2B62864   4.537  13.064   6.678
 4928POPC   C3B62865   4.342  13.271   7.020
 4928POPC   C4B62866   3.994  13.372   7.265
 4929POPC   NC362867  29.431  13.082   5.305
 4929POPC   PO462868  28.928  12.596   5.446
 4929POPC   GL162869  29.197  12.784   5.771
 4929POPC   GL262870  29.399  13.121   5.834
 4929POPC   C1A62871  29.079  12.898   6.206
 4929POPC   D2A62872  29.054  13.089   6.629
 4929POPC   C3A62873  28.941  12.832   6.970
 4929POPC   C4A62874  29.018  12.817   7.381
 4929POPC   C1B62875  29.546  13.122   6.302
 4929POPC   C2B62876  29.555  13.145   6.763
 4929POPC   C3B62877  29.287  13.215   7.139
 4929POPC   C4B62878  29.391  13.095   7.590
 4930POPC   NC362879  31.171  42.791   5.560
 4930POPC   PO462880  30.631  43.138   5.367
 4930POPC   GL162881  30.719  43.017   5.812
 4930POPC   GL262882  31.035  43.069   5.971
 4930POPC   C1A62883  30.594  42.823   6.230
 4930POPC   D2A62884  30.451  42.939   6.670
 4930POPC   C3A62885  30.696  43.051   7.076
 4930POPC   C4A62886  30.495  43.037   7.511
 4930POPC   C1B62887  30.766  43.314   6.252
 4930POPC   C2B62888  30.690  43.408   6.683
 4930POPC   C3B62889  30.564  43.529   7.108
 4930POPC   C4B62890  30.843  43.432   7.471
 4931POPC   NC362891  33.170  33.064   5.279
 4931POPC   PO462892  32.611  32.779   5.375
 4931POPC   GL162893  32.721  32.917   5.810
 4931POPC   GL262894  32.903  33.216   5.733
 4931POPC   C1A62895  33.015  32.880   6.205
 4931POPC   D2A62896  33.367  33.042   6.503
 4931POPC   C3A62897  33.279  33.221   6.929
 4931POPC   C4A62898  32.994  33.051   7.239
 4931POPC   C1B62899  32.767  33.323   6.161
 4931POPC   C2B62900  32.930  33.339   6.586
 4931POPC   C3B62901  32.729  33.404   6.967
 4931POPC   C4B62902  32.541  33.241   7.340
 4932POPC   NC362903  20.141  12.970   5.519
 4932POPC   PO462904  19.741  12.437   5.341
 4932POPC   GL162905  19.652  12.722   5.681
 4932POPC   GL262906  19.963  12.591   5.791
 4932POPC   C1A62907  19.717  12.911   6.120
 4932POPC   D2A62908  19.960  12.927   6.518
 4932POPC   C3A62909  19.659  12.870   6.836
 4932POPC   C4A62910  19.650  12.924   7.256
 4932POPC   C1B62911  20.081  12.544   6.184
 4932POPC   C2B62912  20.210  12.459   6.593
 4932POPC   C3B62913  20.084  12.567   6.963
 4932POPC   C4B62914  20.277  12.476   7.332
 4933POPC   NC362915   9.839  28.305   5.463
 4933POPC   PO462916   9.176  27.987   5.408
 4933POPC   GL162917   9.382  28.214   5.791
 4933POPC   GL262918   9.688  28.429   5.918
 4933POPC   C1A62919   9.512  28.103   6.226
 4933POPC   D2A62920   9.758  28.218   6.563
 4933POPC   C3A62921   9.592  28.221   6.944
 4933POPC   C4A62922   9.421  28.513   7.242
 4933POPC   C1B62923  10.048  28.269   6.140
 4933POPC   C2B62924  10.248  28.361   6.537
 4933POPC   C3B62925  10.105  28.322   6.956
 4933POPC   C4B62926   9.933  28.635   7.209
 4934POPC   NC362927  37.185  28.361   5.354
 4934POPC   PO462928  37.071  28.911   5.619
 4934POPC   GL162929  36.986  28.575   5.919
 4934POPC   GL262930  36.881  28.288   5.757
 4934POPC   C1A62931  36.995  28.509   6.379
 4934POPC   D2A62932  36.863  28.742   6.743
 4934POPC   C3A62933  36.953  28.562   7.151
 4934POPC   C4A62934  37.226  28.736   7.443
 4934POPC   C1B62935  36.792  28.079   6.147
 4934POPC   C2B62936  37.026  28.025   6.544
 4934POPC   C3B62937  36.951  28.044   6.976
 4934POPC   C4B62938  37.077  27.938   7.362
 4935POPC   NC362939  33.345   4.296   5.360
 4935POPC   PO462940  33.952   4.343   5.312
 4935POPC   GL162941  33.790   4.420   5.721
 4935POPC   GL262942  33.588   4.147   5.881
 4935POPC   C1A62943  33.950   4.407   6.155
 4935POPC   D2A62944  33.749   4.233   6.526
 4935POPC   C3A62945  33.910   4.389   6.887
 4935POPC   C4A62946  33.909   4.580   7.256
 4935POPC   C1B62947  33.397   3.828   6.186
 4935POPC   C2B62948  33.517   3.704   6.600
 4935POPC   C3B62949  33.700   3.931   6.945
 4935POPC   C4B62950  33.634   4.176   7.307
 4936POPC   NC362951  31.191   1.120   5.525
 4936POPC   PO462952  31.772   1.429   5.360
 4936POPC   GL162953  31.590   1.352   5.807
 4936POPC   GL262954  31.440   1.003   5.947
 4936POPC   C1A62955  31.474   1.432   6.258
 4936POPC   D2A62956  31.183   1.461   6.613
 4936POPC   C3A62957  31.339   1.168   6.901
 4936POPC   C4A62958  31.450   1.103   7.347
 4936POPC   C1B62959  31.102   1.089   6.253
 4936POPC   C2B62960  30.951   0.946   6.666
 4936POPC   C3B62961  31.032   0.826   7.137
 4936POPC   C4B62962  31.119   0.808   7.614
 4937POPC   NC362963   4.697  21.563   5.362
 4937POPC   PO462964   4.033  21.391   5.364
 4937POPC   GL162965   4.260  21.233   5.718
 4937POPC   GL262966   4.400  21.554   5.799
 4937POPC   C1A62967   4.350  21.177   6.179
 4937POPC   D2A62968   4.276  21.003   6.600
 4937POPC   C3A62969   4.240  21.289   6.916
 4937POPC   C4A62970   4.423  21.380   7.290
 4937POPC   C1B62971   4.255  21.671   6.236
 4937POPC   C2B62972   4.472  21.609   6.617
 4937POPC   C3B62973   4.628  21.759   7.024
 4937POPC   C4B62974   4.611  21.846   7.449
 4938POPC   NC362975  31.779  16.532   5.410
 4938POPC   PO462976  31.130  16.651   5.391
 4938POPC   GL162977  31.203  16.879   5.783
 4938POPC   GL262978  31.582  16.832   5.821
 4938POPC   C1A62979  31.310  16.958   6.241
 4938POPC   D2A62980  31.414  16.756   6.664
 4938POPC   C3A62981  31.316  16.981   7.065
 4938POPC   C4A62982  31.340  16.643   7.374
 4938POPC   C1B62983  31.821  16.836   6.227
 4938POPC   C2B62984  31.895  17.002   6.635
 4938POPC   C3B62985  31.809  16.872   7.067
 4938POPC   C4B62986  31.716  16.961   7.524
 4939POPC   NC362987  35.473  21.649   5.130
 4939POPC   PO462988  36.037  21.276   5.327
 4939POPC   GL162989  36.133  21.328   5.746
 4939POPC   GL262990  35.903  21.043   5.802
 4939POPC   C1A62991  36.330  21.485   6.138
 4939POPC   D2A62992  36.158  21.530   6.545
 4939POPC   C3A62993  36.431  21.414   6.906
 4939POPC   C4A62994  36.296  21.448   7.319
 4939POPC   C1B62995  35.868  21.255   6.197
 4939POPC   C2B62996  35.832  21.139   6.607
 4939POPC   C3B62997  35.907  21.371   6.989
 4939POPC   C4B62998  35.777  21.569   7.406
 4940POPC   NC362999  41.361   2.486   5.162
 4940POPC   PO463000  41.714   2.979   5.468
 4940POPC   GL163001  41.711   2.742   5.854
 4940POPC   GL263002  41.379   2.853   5.964
 4940POPC   C1A63003  41.701   2.607   6.284
 4940POPC   D2A63004  41.855   2.856   6.595
 4940POPC   C3A63005  41.907   2.694   6.979
 4940POPC   C4A63006  41.843   2.877   7.358
 4940POPC   C1B63007  41.203   2.761   6.365
 4940POPC   C2B63008  41.388   2.683   6.769
 4940POPC   C3B63009  41.374   2.848   7.164
 4940POPC   C4B63010  41.409   2.901   7.644
 4941POPC   NC363011  25.458   0.627   5.638
 4941POPC   PO463012  26.101   0.427   5.407
 4941POPC   GL163013  25.892   0.355   5.825
 4941POPC   GL263014  26.183   0.442   6.025
 4941POPC   C1A63015  25.818   0.251   6.306
 4941POPC   D2A63016  26.149   0.328   6.633
 4941POPC   C3A63017  26.019   0.363   7.070
 4941POPC   C4A63018  25.640   0.194   7.262
 4941POPC   C1B63019  25.863   0.751   6.190
 4941POPC   C2B63020  25.706   0.688   6.609
 4941POPC   C3B63021  25.839   0.848   6.995
 4941POPC   C4B63022  25.970   0.784   7.411
 4942POPC   NC363023  19.272  11.857   5.510
 4942POPC   PO463024  18.865  12.284   5.288
 4942POPC   GL163025  18.857  12.227   5.763
 4942POPC   GL263026  18.852  11.872   5.870
 4942POPC   C1A63027  18.931  12.257   6.235
 4942POPC   D2A63028  19.141  12.039   6.594
 4942POPC   C3A63029  19.061  12.138   7.028
 4942POPC   C4A63030  19.332  12.176   7.359
 4942POPC   C1B63031  18.742  11.798   6.348
 4942POPC   C2B63032  18.641  11.972   6.788
 4942POPC   C3B63033  18.656  11.749   7.199
 4942POPC   C4B63034  18.789  11.557   7.622
 4943POPC   NC363035   3.355  20.109   5.443
 4943POPC   PO463036   3.522  20.823   5.277
 4943POPC   GL163037   3.401  20.805   5.737
 4943POPC   GL263038   3.456  20.442   5.831
 4943POPC   C1A63039   3.349  20.903   6.202
 4943POPC   D2A63040   3.636  20.942   6.562
 4943POPC   C3A63041   3.490  20.931   6.971
 4943POPC   C4A63042   3.575  20.606   7.254
 4943POPC   C1B63043   3.307  20.363   6.256
 4943POPC   C2B63044   3.226  20.537   6.665
 4943POPC   C3B63045   3.191  20.351   7.061
 4943POPC   C4B63046   3.150  20.421   7.515
 4944POPC   NC363047  18.439  12.055   4.994
 4944POPC   PO463048  18.118  11.927   5.580
 4944POPC   GL163049  18.369  12.084   5.926
 4944POPC   GL263050  18.333  12.415   5.952
 4944POPC   C1A63051  18.359  12.144   6.391
 4944POPC   D2A63052  18.046  12.114   6.732
 4944POPC   C3A63053  18.184  11.951   7.142
 4944POPC   C4A63054  18.393  11.957   7.574
 4944POPC   C1B63055  18.211  12.618   6.305
 4944POPC   C2B63056  18.280  12.573   6.735
 4944POPC   C3B63057  18.108  12.463   7.115
 4944POPC   C4B63058  18.185  12.435   7.557
 4945POPC   NC363059  20.553  23.346   5.129
 4945POPC   PO463060  20.373  23.832   5.519
 4945POPC   GL163061  20.619  23.618   5.777
 4945POPC   GL263062  20.730  23.926   5.918
 4945POPC   C1A63063  20.520  23.461   6.182
 4945POPC   D2A63064  20.427  23.693   6.552
 4945POPC   C3A63065  20.244  23.584   6.895
 4945POPC   C4A63066  20.412  23.676   7.247
 4945POPC   C1B63067  20.876  23.806   6.296
 4945POPC   C2B63068  20.917  23.532   6.602
 4945POPC   C3B63069  20.755  23.403   6.942
 4945POPC   C4B63070  20.904  23.597   7.294
 4946POPC   NC363071  21.711  28.345   5.608
 4946POPC   PO463072  21.121  28.619   5.518
 4946POPC   GL163073  21.287  28.487   5.884
 4946POPC   GL263074  21.528  28.766   5.866
 4946POPC   C1A63075  21.261  28.563   6.329
 4946POPC   D2A63076  21.100  28.711   6.715
 4946POPC   C3A63077  21.371  28.549   7.037
 4946POPC   C4A63078  21.518  28.220   7.275
 4946POPC   C1B63079  21.764  28.729   6.236
 4946POPC   C2B63080  21.631  28.760   6.654
 4946POPC   C3B63081  21.875  28.674   7.050
 4946POPC   C4B63082  21.712  28.635   7.488
 4947POPC   NC363083  35.607  32.608   5.707
 4947POPC   PO463084  35.249  32.153   5.317
 4947POPC   GL163085  35.167  32.040   5.740
 4947POPC   GL263086  35.499  31.949   5.758
 4947POPC   C1A63087  35.282  32.182   6.162
 4947POPC   D2A63088  35.549  32.270   6.518
 4947POPC   C3A63089  35.526  32.392   6.960
 4947POPC   C4A63090  35.589  32.603   7.385
 4947POPC   C1B63091  35.745  31.878   6.120
 4947POPC   C2B63092  35.742  31.725   6.530
 4947POPC   C3B63093  35.798  31.916   6.925
 4947POPC   C4B63094  35.778  32.113   7.322
 4948POPC   NC363095  42.949  31.597   5.487
 4948POPC   PO463096  43.493  31.252   5.510
 4948POPC   GL163097  43.153  31.194   5.811
 4948POPC   GL263098  43.320  30.915   5.944
 4948POPC   C1A63099  42.984  31.450   6.180
 4948POPC   D2A63100  43.047  31.789   6.508
 4948POPC   C3A63101  42.899  31.690   6.926
 4948POPC   C4A63102  43.204  31.717   7.246
 4948POPC   C1B63103  43.289  31.062   6.352
 4948POPC   C2B63104  43.095  31.272   6.680
 4948POPC   C3B63105  43.076  31.225   7.106
 4948POPC   C4B63106  43.225  31.256   7.535
 4949POPC   NC363107  37.632  16.335   5.297
 4949POPC   PO463108  37.816  17.003   5.202
 4949POPC   GL163109  37.730  16.816   5.632
 4949POPC   GL263110  38.037  16.837   5.864
 4949POPC   C1A63111  37.581  16.788   6.077
 4949POPC   D2A63112  37.811  16.974   6.414
 4949POPC   C3A63113  37.782  16.801   6.798
 4949POPC   C4A63114  37.718  16.891   7.177
 4949POPC   C1B63115  38.029  16.536   6.235
 4949POPC   C2B63116  37.675  16.427   6.460
 4949POPC   C3B63117  37.538  16.358   6.861
 4949POPC   C4B63118  37.631  16.405   7.248
 4950POPC   NC363119  26.573  22.335   5.199
 4950POPC   PO463120  25.997  22.250   5.432
 4950POPC   GL163121  25.959  22.210   5.872
 4950POPC   GL263122  25.677  22.008   5.925
 4950POPC   C1A63123  26.191  22.405   6.240
 4950POPC   D2A63124  26.397  22.505   6.640
 4950POPC   C3A63125  26.108  22.469   6.997
 4950POPC   C4A63126  26.176  22.099   7.232
 4950POPC   C1B63127  25.972  21.919   6.295
 4950POPC   C2B63128  25.960  22.018   6.756
 4950POPC   C3B63129  25.696  22.070   7.141
 4950POPC   C4B63130  25.807  21.957   7.576
 4951POPC   NC363131  29.793  10.158   5.678
 4951POPC   PO463132  30.201  10.583   5.475
 4951POPC   GL163133  30.031  10.573   5.898
 4951POPC   GL263134  29.723  10.612   5.896
 4951POPC   C1A63135  29.931  10.528   6.350
 4951POPC   D2A63136  29.979  10.761   6.711
 4951POPC   C3A63137  30.136  10.508   7.038
 4951POPC   C4A63138  30.420  10.699   7.313
 4951POPC   C1B63139  29.558  10.842   6.184
 4951POPC   C2B63140  29.464  10.690   6.583
 4951POPC   C3B63141  29.627  10.474   6.958
 4951POPC   C4B63142  29.603  10.461   7.406
 4952POPC   NC363143  37.034  22.090   5.650
 4952POPC   PO463144  36.571  22.501   5.521
 4952POPC   GL163145  36.700  22.370   5.921
 4952POPC   GL263146  36.510  22.056   5.891
 4952POPC   C1A63147  36.959  22.280   6.309
 4952POPC   D2A63148  36.834  22.221   6.730
 4952POPC   C3A63149  37.069  22.220   7.104
 4952POPC   C4A63150  37.383  22.489   7.211
 4952POPC   C1B63151  36.434  22.208   6.320
 4952POPC   C2B63152  36.314  22.253   6.739
 4952POPC   C3B63153  36.532  22.150   7.151
 4952POPC   C4B63154  36.498  22.025   7.632
 4953POPC   NC363155   8.676  40.581   5.508
 4953POPC   PO463156   8.952  41.194   5.254
 4953POPC   GL163157   9.023  41.060   5.739
 4953POPC   GL263158   9.114  40.676   5.789
 4953POPC   C1A63159   8.924  40.978   6.219
 4953POPC   D2A63160   8.685  40.635   6.425
 4953POPC   C3A63161   8.742  40.642   6.862
 4953POPC   C4A63162   8.681  40.829   7.249
 4953POPC   C1B63163   9.347  40.721   6.179
 4953POPC   C2B63164   9.317  40.942   6.584
 4953POPC   C3B63165   9.218  40.870   7.011
 4953POPC   C4B63166   9.103  40.509   7.202
 4954POPC   NC363167   5.288   1.502   5.239
 4954POPC   PO463168   4.734   1.929   5.431
 4954POPC   GL163169   4.916   1.859   5.855
 4954POPC   GL263170   5.226   1.732   5.726
 4954POPC   C1A63171   5.041   2.008   6.306
 4954POPC   D2A63172   5.054   1.796   6.735
 4954POPC   C3A63173   5.132   2.009   7.154
 4954POPC   C4A63174   5.016   2.302   7.477
 4954POPC   C1B63175   5.397   1.690   6.131
 4954POPC   C2B63176   5.488   1.568   6.557
 4954POPC   C3B63177   5.513   1.691   6.975
 4954POPC   C4B63178   5.431   1.646   7.368
 4955POPC   NC363179  19.271  14.428   5.463
 4955POPC   PO463180  18.637  14.762   5.440
 4955POPC   GL163181  18.834  14.461   5.735
 4955POPC   GL263182  18.608  14.199   5.830
 4955POPC   C1A63183  19.097  14.602   6.102
 4955POPC   D2A63184  19.089  14.463   6.509
 4955POPC   C3A63185  19.126  14.718   6.881
 4955POPC   C4A63186  19.158  14.594   7.304
 4955POPC   C1B63187  18.650  13.992   6.232
 4955POPC   C2B63188  18.959  13.970   6.539
 4955POPC   C3B63189  19.084  14.168   6.933
 4955POPC   C4B63190  19.003  14.117   7.382
 4956POPC   NC363191  41.123  42.544   5.396
 4956POPC   PO463192  40.551  42.174   5.271
 4956POPC   GL163193  40.695  42.403   5.698
 4956POPC   GL263194  41.009  42.394   5.860
 4956POPC   C1A63195  40.691  42.232   6.194
 4956POPC   D2A63196  40.535  42.302   6.624
 4956POPC   C3A63197  40.799  42.470   6.909
 4956POPC   C4A63198  40.953  42.421   7.293
 4956POPC   C1B63199  41.189  42.100   6.170
 4956POPC   C2B63200  41.192  42.142   6.582
 4956POPC   C3B63201  41.048  42.024   6.961
 4956POPC   C4B63202  41.274  42.022   7.322
 4957POPC   NC363203  14.043  34.431   5.499
 4957POPC   PO463204  13.485  34.825   5.457
 4957POPC   GL163205  13.407  34.587   5.818
 4957POPC   GL263206  13.673  34.349   5.860
 4957POPC   C1A63207  13.494  34.616   6.269
 4957POPC   D2A63208  13.423  34.532   6.705
 4957POPC   C3A63209  13.364  34.642   7.136
 4957POPC   C4A63210  13.072  34.921   7.384
 4957POPC   C1B63211  13.982  34.544   6.154
 4957POPC   C2B63212  13.973  34.660   6.598
 4957POPC   C3B63213  13.844  34.476   6.993
 4957POPC   C4B63214  13.808  34.577   7.412
 4958POPC   NC363215  16.796  21.599   5.348
 4958POPC   PO463216  16.242  21.728   5.698
 4958POPC   GL163217  16.603  21.542   5.844
 4958POPC   GL263218  16.728  21.213   5.710
 4958POPC   C1A63219  16.634  21.470   6.278
 4958POPC   D2A63220  16.779  21.599   6.679
 4958POPC   C3A63221  16.526  21.496   7.029
 4958POPC   C4A63222  16.582  21.684   7.406
 4958POPC   C1B63223  16.947  21.108   6.098
 4958POPC   C2B63224  16.830  21.054   6.549
 4958POPC   C3B63225  16.932  21.207   6.986
 4958POPC   C4B63226  17.181  21.182   7.376
 4959POPC   NC363227  18.943  26.151   5.284
 4959POPC   PO463228  19.378  25.736   5.651
 4959POPC   GL163229  18.987  25.811   5.833
 4959POPC   GL263230  18.946  26.162   5.804
 4959POPC   C1A63231  18.948  25.755   6.272
 4959POPC   D2A63232  19.149  25.842   6.665
 4959POPC   C3A63233  19.071  25.720   7.056
 4959POPC   C4A63234  19.063  25.964   7.468
 4959POPC   C1B63235  19.119  26.223   6.202
 4959POPC   C2B63236  18.835  26.226   6.560
 4959POPC   C3B63237  18.965  26.218   6.991
 4959POPC   C4B63238  18.887  26.462   7.348
 4960POPC   NC363239  20.798  18.250   5.435
 4960POPC   PO463240  20.676  17.610   5.514
 4960POPC   GL163241  20.488  18.018   5.823
 4960POPC   GL263242  20.634  18.374   5.877
 4960POPC   C1A63243  20.331  18.303   6.263
 4960POPC   D2A63244  20.131  18.276   6.686
 4960POPC   C3A63245  20.399  18.351   7.033
 4960POPC   C4A63246  20.580  18.103   7.369
 4960POPC   C1B63247  20.788  18.098   6.220
 4960POPC   C2B63248  20.740  18.270   6.623
 4960POPC   C3B63249  20.929  18.263   7.012
 4960POPC   C4B63250  20.908  18.476   7.430
 4961POPC   NC363251   3.492  29.592   5.547
 4961POPC   PO463252   3.724  28.931   5.438
 4961POPC   GL163253   3.693  29.048   5.847
 4961POPC   GL263254   4.014  28.913   5.910
 4961POPC   C1A63255   3.445  29.215   6.216
 4961POPC   D2A63256   3.431  29.352   6.644
 4961POPC   C3A63257   3.542  29.162   7.032
 4961POPC   C4A63258   3.732  29.320   7.432
 4961POPC   C1B63259   3.879  28.954   6.345
 4961POPC   C2B63260   3.543  28.761   6.607
 4961POPC   C3B63261   3.337  28.689   7.002
 4961POPC   C4B63262   3.642  28.762   7.339
 4962POPC   NC363263   9.289  13.689   5.353
 4962POPC   PO463264   8.642  13.814   5.312
 4962POPC   GL163265   8.723  13.561   5.740
 4962POPC   GL263266   9.095  13.474   5.816
 4962POPC   C1A63267   8.783  13.459   6.213
 4962POPC   D2A63268   9.017  13.461   6.607
 4962POPC   C3A63269   8.994  13.770   6.938
 4962POPC   C4A63270   8.689  13.840   7.261
 4962POPC   C1B63271   9.297  13.679   6.200
 4962POPC   C2B63272   9.400  13.850   6.629
 4962POPC   C3B63273   9.490  13.651   7.029
 4962POPC   C4B63274   9.217  13.692   7.405
 4963POPC   NC363275  20.962  11.821   5.517
 4963POPC   PO463276  21.381  12.286   5.277
 4963POPC   GL163277  21.264  12.231   5.716
 4963POPC   GL263278  21.382  11.903   5.836
 4963POPC   C1A63279  21.433  12.351   6.153
 4963POPC   D2A63280  21.554  12.271   6.620
 4963POPC   C3A63281  21.250  12.016   6.863
 4963POPC   C4A63282  21.012  12.117   7.233
 4963POPC   C1B63283  21.674  11.894   6.212
 4963POPC   C2B63284  21.691  11.775   6.646
 4963POPC   C3B63285  21.722  11.929   7.069
 4963POPC   C4B63286  21.828  11.743   7.464
 4964POPC   NC363287  15.634   2.399   5.830
 4964POPC   PO463288  16.247   2.222   5.513
 4964POPC   GL163289  16.212   1.993   5.915
 4964POPC   GL263290  16.074   1.666   5.913
 4964POPC   C1A63291  16.346   2.115   6.330
 4964POPC   D2A63292  16.015   2.301   6.588
 4964POPC   C3A63293  16.054   2.362   7.026
 4964POPC   C4A63294  16.246   2.158   7.374
 4964POPC   C1B63295  16.014   1.740   6.389
 4964POPC   C2B63296  16.149   1.875   6.839
 4964POPC   C3B63297  15.961   1.726   7.227
 4964POPC   C4B63298  15.663   1.717   7.571
 4965POPC   NC363299  21.436   0.658   5.477
 4965POPC   PO463300  21.198   0.044   5.389
 4965POPC   GL163301  21.407   0.183   5.744
 4965POPC   GL263302  21.177   0.086   5.924
 4965POPC   C1A63303  21.428   0.471   6.133
 4965POPC   D2A63304  21.640   0.515   6.530
 4965POPC   C3A63305  21.439   0.528   6.922
 4965POPC   C4A63306  21.613   0.523   7.309
 4965POPC   C1B63307  21.048   0.124   6.285
 4965POPC   C2B63308  21.197   0.200   6.617
 4965POPC   C3B63309  21.140  44.993   6.958
 4965POPC   C4B63310  20.956   0.005   7.323
 4966POPC   NC363311   5.266  16.175   5.458
 4966POPC   PO463312   4.832  15.635   5.494
 4966POPC   GL163313   5.085  15.748   5.831
 4966POPC   GL263314   5.061  16.089   5.918
 4966POPC   C1A63315   5.151  15.610   6.250
 4966POPC   D2A63316   5.238  15.825   6.637
 4966POPC   C3A63317   5.165  15.865   7.069
 4966POPC   C4A63318   5.396  16.067   7.373
 4966POPC   C1B63319   4.869  16.055   6.319
 4966POPC   C2B63320   4.725  16.349   6.649
 4966POPC   C3B63321   4.790  16.255   7.090
 4966POPC   C4B63322   4.650  15.829   7.164
 4967POPC   NC363323  41.230  35.964   5.518
 4967POPC   PO463324  40.640  36.228   5.377
 4967POPC   GL163325  40.724  35.947   5.711
 4967POPC   GL263326  40.426  35.935   5.896
 4967POPC   C1A63327  40.891  36.019   6.138
 4967POPC   D2A63328  41.033  36.207   6.525
 4967POPC   C3A63329  40.862  36.072   6.903
 4967POPC   C4A63330  40.993  36.118   7.302
 4967POPC   C1B63331  40.455  36.302   6.128
 4967POPC   C2B63332  40.496  36.175   6.538
 4967POPC   C3B63333  40.397  36.307   6.937
 4967POPC   C4B63334  40.463  36.077   7.263
 4968POPC   NC363335  32.522   7.433   5.446
 4968POPC   PO463336  33.198   7.518   5.515
 4968POPC   GL163337  32.987   7.322   5.857
 4968POPC   GL263338  32.779   7.634   5.843
 4968POPC   C1A63339  33.088   7.224   6.307
 4968POPC   D2A63340  32.960   7.469   6.676
 4968POPC   C3A63341  32.910   7.226   7.058
 4968POPC   C4A63342  32.868   7.194   7.572
 4968POPC   C1B63343  32.670   7.501   6.228
 4968POPC   C2B63344  32.493   7.709   6.544
 4968POPC   C3B63345  32.656   7.857   6.892
 4968POPC   C4B63346  32.622   7.589   7.228
 4969POPC   NC363347  34.068  15.451   5.530
 4969POPC   PO463348  33.589  15.077   5.268
 4969POPC   GL163349  33.789  15.069   5.744
 4969POPC   GL263350  34.089  14.861   5.814
 4969POPC   C1A63351  33.689  14.955   6.200
 4969POPC   D2A63352  33.811  15.068   6.646
 4969POPC   C3A63353  33.533  15.125   7.028
 4969POPC   C4A63354  33.585  15.179   7.486
 4969POPC   C1B63355  34.167  15.169   6.173
 4969POPC   C2B63356  34.277  15.347   6.596
 4969POPC   C3B63357  34.053  15.368   6.990
 4969POPC   C4B63358  33.995  14.963   7.183
 4970POPC   NC363359  15.629  42.734   5.560
 4970POPC   PO463360  16.042  43.284   5.459
 4970POPC   GL163361  15.838  43.134   5.810
 4970POPC   GL263362  16.008  43.321   6.050
 4970POPC   C1A63363  15.881  42.831   6.183
 4970POPC   D2A63364  15.952  42.834   6.630
 4970POPC   C3A63365  16.047  43.050   7.008
 4970POPC   C4A63366  16.182  42.795   7.328
 4970POPC   C1B63367  15.575  43.239   6.239
 4970POPC   C2B63368  15.424  43.332   6.689
 4970POPC   C3B63369  15.636  43.386   7.130
 4970POPC   C4B63370  15.783  43.342   7.624
 4971POPC   NC363371  37.523  39.621   5.621
 4971POPC   PO463372  37.549  40.137   5.207
 4971POPC   GL163373  37.599  40.183   5.683
 4971POPC   GL263374  37.887  40.013   5.809
 4971POPC   C1A63375  37.573  40.116   6.183
 4971POPC   D2A63376  37.491  40.135   6.652
 4971POPC   C3A63377  37.647  39.925   7.035
 4971POPC   C4A63378  37.730  40.118   7.429
 4971POPC   C1B63379  38.076  39.977   6.261
 4971POPC   C2B63380  38.056  40.039   6.721
 4971POPC   C3B63381  38.159  39.990   7.149
 4971POPC   C4B63382  38.008  39.651   7.362
 4972POPC   NC363383  43.540  43.267   5.479
 4972POPC   PO463384  44.231  42.936   5.538
 4972POPC   GL163385  44.128  43.110   5.912
 4972POPC   GL263386  43.751  43.121   5.940
 4972POPC   C1A63387  44.095  42.906   6.288
 4972POPC   D2A63388  44.263  42.891   6.696
 4972POPC   C3A63389  44.141  43.259   6.893
 4972POPC   C4A63390  43.841  43.086   7.156
 4972POPC   C1B63391  43.793  43.351   6.293
 4972POPC   C2B63392  43.663  43.287   6.694
 4972POPC   C3B63393  43.692  43.561   7.040
 4972POPC   C4B63394  43.610  43.457   7.463
 4973POPC   NC363395  25.422  29.435   5.466
 4973POPC   PO463396  25.288  30.121   5.339
 4973POPC   GL163397  25.166  30.112   5.757
 4973POPC   GL263398  25.306  29.778   5.840
 4973POPC   C1A63399  25.230  30.138   6.213
 4973POPC   D2A63400  25.262  29.849   6.570
 4973POPC   C3A63401  25.299  29.997   6.973
 4973POPC   C4A63402  25.334  29.800   7.317
 4973POPC   C1B63403  24.986  29.699   6.137
 4973POPC   C2B63404  24.796  29.640   6.567
 4973POPC   C3B63405  24.995  29.566   6.993
 4973POPC   C4B63406  24.933  29.597   7.502
 4974POPC   NC363407  25.912  12.539   5.554
 4974POPC   PO463408  25.770  11.863   5.390
 4974POPC   GL163409  25.843  12.085   5.780
 4974POPC   GL263410  26.179  12.151   5.754
 4974POPC   C1A63411  25.960  12.139   6.222
 4974POPC   D2A63412  26.022  12.006   6.631
 4974POPC   C3A63413  25.812  12.027   7.001
 4974POPC   C4A63414  25.978  12.100   7.376
 4974POPC   C1B63415  26.378  12.411   6.090
 4974POPC   C2B63416  26.410  12.325   6.524
 4974POPC   C3B63417  26.173  12.414   6.886
 4974POPC   C4B63418  26.327  12.433   7.257
 4975POPC   NC363419  13.233  34.124   5.562
 4975POPC   PO463420  13.844  33.980   5.522
 4975POPC   GL163421  13.787  33.846   5.946
 4975POPC   GL263422  13.455  33.901   5.992
 4975POPC   C1A63423  13.791  34.093   6.330
 4975POPC   D2A63424  13.613  34.069   6.737
 4975POPC   C3A63425  13.801  33.821   7.017
 4975POPC   C4A63426  13.825  33.454   7.219
 4975POPC   C1B63427  13.384  33.681   6.377
 4975POPC   C2B63428  13.326  33.642   6.823
 4975POPC   C3B63429  13.338  33.689   7.235
 4975POPC   C4B63430  13.255  33.651   7.644
 4976POPC   NC363431  30.625   5.621   5.208
 4976POPC   PO463432  30.968   6.251   5.243
 4976POPC   GL163433  30.876   5.914   5.564
 4976POPC   GL263434  30.511   5.872   5.660
 4976POPC   C1A63435  30.935   5.802   6.007
 4976POPC   D2A63436  30.777   5.905   6.395
 4976POPC   C3A63437  31.033   5.824   6.725
 4976POPC   C4A63438  30.925   6.118   7.057
 4976POPC   C1B63439  30.410   5.697   6.082
 4976POPC   C2B63440  30.472   5.503   6.498
 4976POPC   C3B63441  30.562   5.710   6.903
 4976POPC   C4B63442  30.402   5.872   7.300
 4977POPC   NC363443  36.957  44.820   5.455
 4977POPC   PO463444  37.357  44.334   5.505
 4977POPC   GL163445  37.178  44.459   5.899
 4977POPC   GL263446  36.836  44.499   5.843
 4977POPC   C1A63447  37.083  44.778   6.263
 4977POPC   D2A63448  37.293  44.921   6.682
 4977POPC   C3A63449  37.096  44.781   7.061
 4977POPC   C4A63450  37.101  44.378   7.272
 4977POPC   C1B63451  36.654  44.414   6.245
 4977POPC   C2B63452  36.627  44.631   6.646
 4977POPC   C3B63453  36.619  44.512   7.076
 4977POPC   C4B63454  36.732  44.657   7.494
 4978POPC   NC363455  19.252  32.787   5.442
 4978POPC   PO463456  18.874  33.294   5.451
 4978POPC   GL163457  18.829  33.194   5.891
 4978POPC   GL263458  18.829  32.852   5.897
 4978POPC   C1A63459  18.919  33.217   6.328
 4978POPC   D2A63460  19.012  32.862   6.576
 4978POPC   C3A63461  18.887  32.866   6.989
 4978POPC   C4A63462  19.061  33.258   7.115
 4978POPC   C1B63463  19.255  32.814   6.105
 4978POPC   C2B63464  19.509  32.748   6.483
 4978POPC   C3B63465  19.428  32.954   6.884
 4978POPC   C4B63466  19.295  32.818   7.277
 4979POPC   NC363467  44.925  15.045   5.505
 4979POPC   PO463468  44.439  15.442   5.617
 4979POPC   GL163469  44.775  15.401   5.843
 4979POPC   GL263470  44.658  15.091   5.947
 4979POPC   C1A63471  44.932  15.430   6.188
 4979POPC   D2A63472  44.673  15.226   6.457
 4979POPC   C3A63473  44.717  15.316   6.884
 4979POPC   C4A63474  44.890  15.125   7.251
 4979POPC   C1B63475  44.453  14.815   6.218
 4979POPC   C2B63476  44.352  14.849   6.660
 4979POPC   C3B63477  44.433  14.921   7.111
 4979POPC   C4B63478  44.310  14.774   7.524
 4980POPC   NC363479  28.697  27.786   5.360
 4980POPC   PO463480  28.197  27.351   5.307
 4980POPC   GL163481  28.386  27.436   5.713
 4980POPC   GL263482  28.446  27.782   5.845
 4980POPC   C1A63483  28.388  27.308   6.158
 4980POPC   D2A63484  28.658  27.118   6.503
 4980POPC   C3A63485  28.575  27.372   6.878
 4980POPC   C4A63486  28.183  27.294   7.167
 4980POPC   C1B63487  28.324  27.871   6.306
 4980POPC   C2B63488  28.224  27.755   6.765
 4980POPC   C3B63489  28.417  27.749   7.192
 4980POPC   C4B63490  28.601  27.903   7.593
 4981POPC   NC363491  26.982   8.999   5.365
 4981POPC   PO463492  26.324   8.878   5.377
 4981POPC   GL163493  26.671   8.872   5.740
 4981POPC   GL263494  27.080   8.807   5.818
 4981POPC   C1A63495  26.759   9.105   6.112
 4981POPC   D2A63496  26.575   9.257   6.462
 4981POPC   C3A63497  26.849   9.258   6.779
 4981POPC   C4A63498  26.905   9.008   7.148
 4981POPC   C1B63499  27.190   8.904   6.257
 4981POPC   C2B63500  27.315   8.838   6.694
 4981POPC   C3B63501  27.304   8.723   7.090
 4981POPC   C4B63502  27.083   8.654   7.486
 4982POPC   NC363503   9.844  42.230   5.377
 4982POPC   PO463504   9.373  42.662   5.343
 4982POPC   GL163505   9.534  42.432   5.746
 4982POPC   GL263506   9.897  42.543   5.831
 4982POPC   C1A63507   9.609  42.252   6.199
 4982POPC   D2A63508   9.723  42.347   6.677
 4982POPC   C3A63509   9.520  42.213   7.122
 4982POPC   C4A63510   9.486  42.087   7.603
 4982POPC   C1B63511  10.129  42.305   6.204
 4982POPC   C2B63512  10.153  42.004   6.571
 4982POPC   C3B63513  10.131  42.046   7.029
 4982POPC   C4B63514   9.955  42.182   7.420
 4983POPC   NC363515  25.216  34.349   5.592
 4983POPC   PO463516  24.934  33.871   5.206
 4983POPC   GL163517  25.140  33.852   5.651
 4983POPC   GL263518  25.478  33.975   5.809
 4983POPC   C1A63519  25.124  33.750   6.120
 4983POPC   D2A63520  25.272  33.703   6.582
 4983POPC   C3A63521  25.094  33.868   6.989
 4983POPC   C4A63522  25.293  33.769   7.429
 4983POPC   C1B63523  25.451  34.109   6.273
 4983POPC   C2B63524  25.427  34.172   6.728
 4983POPC   C3B63525  25.561  34.299   7.146
 4983POPC   C4B63526  25.740  34.136   7.544
 4984POPC   NC363527  20.436  30.622   5.102
 4984POPC   PO463528  20.487  31.076   5.521
 4984POPC   GL163529  20.497  30.803   5.853
 4984POPC   GL263530  20.774  30.983   5.947
 4984POPC   C1A63531  20.704  30.512   6.163
 4984POPC   D2A63532  20.565  30.398   6.570
 4984POPC   C3A63533  20.529  30.660   6.930
 4984POPC   C4A63534  20.656  30.583   7.312
 4984POPC   C1B63535  20.613  30.980   6.360
 4984POPC   C2B63536  20.907  30.791   6.635
 4984POPC   C3B63537  21.027  30.826   7.061
 4984POPC   C4B63538  20.946  30.943   7.563
 4985POPC   NC363539  31.374  13.219   5.178
 4985POPC   PO463540  31.710  12.636   5.417
 4985POPC   GL163541  31.619  12.756   5.893
 4985POPC   GL263542  31.540  13.066   6.037
 4985POPC   C1A63543  31.492  12.696   6.359
 4985POPC   D2A63544  31.427  12.986   6.714
 4985POPC   C3A63545  31.207  12.728   7.032
 4985POPC   C4A63546  31.365  12.479   7.347
 4985POPC   C1B63547  31.506  13.416   6.317
 4985POPC   C2B63548  31.873  13.424   6.548
 4985POPC   C3B63549  31.900  13.174   6.886
 4985POPC   C4B63550  31.584  13.043   7.208
 4986POPC   NC363551   1.724   8.179   5.388
 4986POPC   PO463552   2.313   8.541   5.448
 4986POPC   GL163553   2.122   8.329   5.813
 4986POPC   GL263554   2.447   8.214   5.950
 4986POPC   C1A63555   2.048   8.024   6.199
 4986POPC   D2A63556   2.064   7.836   6.625
 4986POPC   C3A63557   1.996   8.133   6.975
 4986POPC   C4A63558   1.689   8.245   7.255
 4986POPC   C1B63559   2.273   8.490   6.276
 4986POPC   C2B63560   2.320   8.438   6.717
 4986POPC   C3B63561   2.247   8.671   7.073
 4986POPC   C4B63562   2.022   8.591   7.453
 4987POPC   NC363563  24.688  11.578   5.587
 4987POPC   PO463564  24.294  12.306   5.678
 4987POPC   GL163565  24.548  12.110   5.953
 4987POPC   GL263566  24.410  11.837   5.928
 4987POPC   C1A63567  24.557  12.023   6.391
 4987POPC   D2A63568  24.325  12.301   6.658
 4987POPC   C3A63569  24.305  12.221   7.068
 4987POPC   C4A63570  24.692  12.072   7.174
 4987POPC   C1B63571  24.412  11.492   6.190
 4987POPC   C2B63572  24.416  11.365   6.591
 4987POPC   C3B63573  24.426  11.734   6.828
 4987POPC   C4B63574  24.308  11.742   7.229
 4988POPC   NC363575   2.649  16.957   5.571
 4988POPC   PO463576   2.483  16.375   5.275
 4988POPC   GL163577   2.550  16.433   5.779
 4988POPC   GL263578   2.557  16.756   6.027
 4988POPC   C1A63579   2.804  16.362   6.185
 4988POPC   D2A63580   2.871  16.573   6.600
 4988POPC   C3A63581   2.756  16.567   7.057
 4988POPC   C4A63582   2.644  16.983   7.280
 4988POPC   C1B63583   2.975  16.905   6.186
 4988POPC   C2B63584   3.235  16.944   6.534
 4988POPC   C3B63585   3.095  16.944   6.936
 4988POPC   C4B63586   3.123  16.810   7.325
 4989POPC   NC363587   6.559  27.162   5.335
 4989POPC   PO463588   6.685  27.798   5.362
 4989POPC   GL163589   6.554  27.629   5.741
 4989POPC   GL263590   6.867  27.488   5.769
 4989POPC   C1A63591   6.425  27.750   6.172
 4989POPC   D2A63592   6.462  27.514   6.564
 4989POPC   C3A63593   6.300  27.600   6.987
 4989POPC   C4A63594   6.566  27.761   7.336
 4989POPC   C1B63595   6.836  27.379   6.207
 4989POPC   C2B63596   7.018  27.558   6.589
 4989POPC   C3B63597   6.872  27.576   6.974
 4989POPC   C4B63598   6.998  27.424   7.378
 4990POPC   NC363599  39.086  19.542   5.422
 4990POPC   PO463600  38.848  18.968   5.283
 4990POPC   GL163601  38.932  19.062   5.708
 4990POPC   GL263602  39.284  19.174   5.716
 4990POPC   C1A63603  39.048  18.960   6.137
 4990POPC   D2A63604  39.266  18.911   6.521
 4990POPC   C3A63605  39.031  19.028   6.891
 4990POPC   C4A63606  39.103  18.997   7.336
 4990POPC   C1B63607  39.531  19.114   6.094
 4990POPC   C2B63608  39.655  19.241   6.535
 4990POPC   C3B63609  39.514  19.166   7.006
 4990POPC   C4B63610  39.455  19.353   7.458
 4991POPC   NC363611  43.687   8.364   5.411
 4991POPC   PO463612  44.035   7.885   5.618
 4991POPC   GL163613  43.797   8.075   5.926
 4991POPC   GL263614  43.826   8.434   5.887
 4991POPC   C1A63615  43.717   7.915   6.354
 4991POPC   D2A63616  43.901   7.802   6.711
 4991POPC   C3A63617  43.796   7.958   7.121
 4991POPC   C4A63618  43.667   7.954   7.532
 4991POPC   C1B63619  43.775   8.425   6.316
 4991POPC   C2B63620  43.920   8.303   6.718
 4991POPC   C3B63621  43.913   8.492   7.118
 4991POPC   C4B63622  43.990   8.761   7.442
 4992POPC   NC363623  19.389  33.874   5.496
 4992POPC   PO463624  18.705  33.994   5.384
 4992POPC   GL163625  18.909  33.945   5.789
 4992POPC   GL263626  19.073  33.625   5.785
 4992POPC   C1A63627  18.870  33.740   6.219
 4992POPC   D2A63628  18.690  33.696   6.621
 4992POPC   C3A63629  18.946  33.743   6.998
 4992POPC   C4A63630  18.946  34.006   7.344
 4992POPC   C1B63631  19.330  33.365   6.058
 4992POPC   C2B63632  19.430  33.305   6.505
 4992POPC   C3B63633  19.487  33.480   6.932
 4992POPC   C4B63634  19.432  33.637   7.347
 4993POPC   NC363635   2.706  24.213   5.231
 4993POPC   PO463636   2.813  23.580   5.504
 4993POPC   GL163637   3.012  23.546   5.873
 4993POPC   GL263638   2.671  23.640   6.012
 4993POPC   C1A63639   3.003  23.422   6.305
 4993POPC   D2A63640   2.976  23.690   6.649
 4993POPC   C3A63641   3.015  23.462   7.048
 4993POPC   C4A63642   2.605  23.451   7.210
 4993POPC   C1B63643   3.010  23.951   6.173
 4993POPC   C2B63644   2.966  24.196   6.538
 4993POPC   C3B63645   2.745  24.095   6.894
 4993POPC   C4B63646   2.840  23.893   7.244
 4994POPC   NC363647  24.621  39.339   5.130
 4994POPC   PO463648  25.044  38.964   5.536
 4994POPC   GL163649  25.204  39.172   5.934
 4994POPC   GL263650  25.546  39.058   5.931
 4994POPC   C1A63651  25.316  39.453   6.304
 4994POPC   D2A63652  25.481  39.686   6.703
 4994POPC   C3A63653  25.400  39.497   7.121
 4994POPC   C4A63654  25.095  39.184   7.313
 4994POPC   C1B63655  25.468  38.876   6.318
 4994POPC   C2B63656  25.255  39.018   6.647
 4994POPC   C3B63657  25.572  39.077   6.902
 4994POPC   C4B63658  25.583  38.901   7.246
 4995POPC   NC363659  36.954   8.310   5.367
 4995POPC   PO463660  36.658   7.691   5.547
 4995POPC   GL163661  36.773   8.052   5.798
 4995POPC   GL263662  36.631   8.344   5.770
 4995POPC   C1A63663  36.919   8.142   6.208
 4995POPC   D2A63664  36.827   7.946   6.616
 4995POPC   C3A63665  37.032   8.066   7.029
 4995POPC   C4A63666  37.257   8.480   7.190
 4995POPC   C1B63667  36.462   8.463   6.135
 4995POPC   C2B63668  36.624   8.423   6.513
 4995POPC   C3B63669  36.898   8.506   6.812
 4995POPC   C4B63670  36.760   8.495   7.225
 4996POPC   NC363671  36.708  36.776   5.429
 4996POPC   PO463672  37.366  36.580   5.447
 4996POPC   GL163673  37.029  36.612   5.796
 4996POPC   GL263674  36.978  36.988   5.811
 4996POPC   C1A63675  36.647  36.748   6.100
 4996POPC   D2A63676  36.570  37.031   6.465
 4996POPC   C3A63677  36.496  36.908   6.902
 4996POPC   C4A63678  36.684  36.783   7.322
 4996POPC   C1B63679  37.113  36.915   6.225
 4996POPC   C2B63680  37.267  37.006   6.623
 4996POPC   C3B63681  37.032  36.946   6.987
 4996POPC   C4B63682  36.761  37.271   7.167
 4997POPC   NC363683  13.898  10.189   5.220
 4997POPC   PO463684  13.531  10.702   5.438
 4997POPC   GL163685  13.361  10.581   5.890
 4997POPC   GL263686  13.323  10.266   6.000
 4997POPC   C1A63687  13.472  10.573   6.353
 4997POPC   D2A63688  13.889  10.584   6.507
 4997POPC   C3A63689  13.908  10.610   6.913
 4997POPC   C4A63690  13.772  10.868   7.250
 4997POPC   C1B63691  13.768  10.146   6.236
 4997POPC   C2B63692  13.956  10.080   6.632
 4997POPC   C3B63693  13.673  10.162   6.958
 4997POPC   C4B63694  13.691  10.362   7.331
 4998POPC   NC363695   8.641  34.681   5.114
 4998POPC   PO463696   9.237  34.752   5.239
 4998POPC   GL163697   9.254  34.730   5.709
 4998POPC   GL263698   9.330  34.362   5.831
 4998POPC   C1A63699   9.035  34.848   6.111
 4998POPC   D2A63700   8.851  34.619   6.468
 4998POPC   C3A63701   9.170  34.586   6.786
 4998POPC   C4A63702   9.135  34.854   7.123
 4998POPC   C1B63703   8.970  34.234   6.127
 4998POPC   C2B63704   8.953  34.093   6.572
 4998POPC   C3B63705   8.813  34.280   6.966
 4998POPC   C4B63706   9.036  34.399   7.331
 4999POPC   NC363707  44.397  42.528   5.327
 4999POPC   PO463708  44.962  42.072   5.479
 4999POPC   GL163709  44.623  42.211   5.731
 4999POPC   GL263710  44.652  42.566   5.769
 4999POPC   C1A63711  44.658  42.249   6.178
 4999POPC   D2A63712  44.835  42.171   6.559
 4999POPC   C3A63713  44.552  42.308   6.863
 4999POPC   C4A63714  44.728  42.198   7.231
 4999POPC   C1B63715  44.897  42.709   6.141
 4999POPC   C2B63716  44.728  42.705   6.567
 4999POPC   C3B63717  44.903  42.638   6.997
 4999POPC   C4B63718  44.553  42.664   7.282
 5000POPC   NC363719  16.462  18.506   5.300
 5000POPC   PO463720  17.024  18.144   5.458
 5000POPC   GL163721  16.717  18.139   5.795
 5000POPC   GL263722  16.552  18.479   5.826
 5000POPC   C1A63723  16.669  17.968   6.218
 5000POPC   D2A63724  16.429  18.022   6.588
 5000POPC   C3A63725  16.682  18.045   6.944
 5000POPC   C4A63726  16.579  18.281   7.265
 5000POPC   C1B63727  16.822  18.503   6.181
 5000POPC   C2B63728  16.890  18.322   6.560
 5000POPC   C3B63729  16.881  18.541   6.931
 5000POPC   C4B63730  17.049  18.508   7.294
 5001POPC   NC363731  12.878  39.905   5.435
 5001POPC   PO463732  12.253  40.127   5.476
 5001POPC   GL163733  12.538  39.996   5.840
 5001POPC   GL263734  12.800  40.257   5.805
 5001POPC   C1A63735  12.693  39.815   6.286
 5001POPC   D2A63736  12.811  39.655   6.748
 5001POPC   C3A63737  12.512  39.660   7.107
 5001POPC   C4A63738  12.359  40.056   7.283
 5001POPC   C1B63739  12.680  40.348   6.222
 5001POPC   C2B63740  12.840  40.192   6.641
 5001POPC   C3B63741  12.976  40.102   7.082
 5001POPC   C4B63742  12.959  40.333   7.526
 5002POPC   NC363743   0.660   6.540   5.457
 5002POPC   PO463744   0.354   7.095   5.592
 5002POPC   GL163745   0.535   6.784   5.876
 5002POPC   GL263746   0.287   6.512   5.832
 5002POPC   C1A63747   0.662   6.453   6.181
 5002POPC   D2A63748   0.601   6.358   6.623
 5002POPC   C3A63749   0.489   6.679   6.938
 5002POPC   C4A63750   0.627   6.736   7.346
 5002POPC   C1B63751   0.157   6.306   6.219
 5002POPC   C2B63752   0.086   6.495   6.603
 5002POPC   C3B63753   0.124   6.328   6.976
 5002POPC   C4B63754   0.193   6.478   7.354
 5003POPC   NC363755  38.217  29.623   5.285
 5003POPC   PO463756  38.683  29.087   5.395
 5003POPC   GL163757  38.489  29.058   5.782
 5003POPC   GL263758  38.334  29.367   5.741
 5003POPC   C1A63759  38.618  29.147   6.206
 5003POPC   D2A63760  38.839  28.975   6.566
 5003POPC   C3A63761  38.672  29.124   6.947
 5003POPC   C4A63762  38.528  28.887   7.273
 5003POPC   C1B63763  38.166  29.408   6.160
 5003POPC   C2B63764  38.290  29.284   6.582
 5003POPC   C3B63765  38.093  29.447   6.950
 5003POPC   C4B63766  38.300  29.336   7.316
 5004POPC   NC363767  31.252   3.982   5.501
 5004POPC   PO463768  31.483   3.274   5.473
 5004POPC   GL163769  31.353   3.543   5.803
 5004POPC   GL263770  31.290   3.245   5.957
 5004POPC   C1A63771  31.438   3.681   6.248
 5004POPC   D2A63772  31.358   3.805   6.675
 5004POPC   C3A63773  31.631   3.758   7.007
 5004POPC   C4A63774  31.574   3.559   7.391
 5004POPC   C1B63775  31.061   3.322   6.302
 5004POPC   C2B63776  31.042   3.379   6.720
 5004POPC   C3B63777  31.323   3.292   7.038
 5004POPC   C4B63778  31.211   3.149   7.463
 5005POPC   NC363779   8.626  24.052   5.571
 5005POPC   PO463780   9.051  24.589   5.415
 5005POPC   GL163781   9.110  24.405   5.798
 5005POPC   GL263782   9.458  24.327   5.859
 5005POPC   C1A63783   8.993  24.195   6.183
 5005POPC   D2A63784   8.772  24.339   6.549
 5005POPC   C3A63785   8.930  24.328   6.964
 5005POPC   C4A63786   8.743  24.650   7.223
 5005POPC   C1B63787   9.414  24.490   6.259
 5005POPC   C2B63788   9.317  24.622   6.678
 5005POPC   C3B63789   9.365  24.541   7.120
 5005POPC   C4B63790   9.360  24.124   7.348
 5006POPC   NC363791  21.122  42.311   5.250
 5006POPC   PO463792  21.640  42.808   5.334
 5006POPC   GL163793  21.591  42.532   5.698
 5006POPC   GL263794  21.218  42.626   5.663
 5006POPC   C1A63795  21.736  42.295   6.122
 5006POPC   D2A63796  21.603  42.064   6.522
 5006POPC   C3A63797  21.715  42.216   6.943
 5006POPC   C4A63798  21.455  42.258   7.309
 5006POPC   C1B63799  21.232  42.301   5.981
 5006POPC   C2B63800  21.197  42.354   6.428
 5006POPC   C3B63801  21.194  42.370   6.866
 5006POPC   C4B63802  21.133  42.631   7.233
 5007POPC   NC363803  32.533   3.028   5.356
 5007POPC   PO463804  33.081   2.575   5.413
 5007POPC   GL163805  33.106   2.769   5.784
 5007POPC   GL263806  32.962   3.107   5.727
 5007POPC   C1A63807  32.995   2.621   6.159
 5007POPC   D2A63808  32.973   2.833   6.512
 5007POPC   C3A63809  32.974   2.642   6.878
 5007POPC   C4A63810  33.182   2.791   7.221
 5007POPC   C1B63811  32.733   3.121   6.128
 5007POPC   C2B63812  32.718   3.254   6.560
 5007POPC   C3B63813  32.857   3.133   6.986
 5007POPC   C4B63814  32.868   3.106   7.438
 5008POPC   NC363815   4.577   1.412   5.564
 5008POPC   PO463816   5.084   1.086   5.205
 5008POPC   GL163817   5.094   1.209   5.683
 5008POPC   GL263818   4.806   1.157   5.941
 5008POPC   C1A63819   5.289   1.188   6.119
 5008POPC   D2A63820   5.153   1.033   6.509
 5008POPC   C3A63821   5.198   1.272   6.858
 5008POPC   C4A63822   5.272   1.189   7.262
 5008POPC   C1B63823   4.848   1.445   6.322
 5008POPC   C2B63824   4.707   1.403   6.771
 5008POPC   C3B63825   4.882   1.549   7.171
 5008POPC   C4B63826   4.780   1.798   7.505
 5009POPC   NC363827   4.620  27.440   4.957
 5009POPC   PO463828   4.468  27.690   5.536
 5009POPC   GL163829   4.326  27.612   5.907
 5009POPC   GL263830   4.650  27.509   6.007
 5009POPC   C1A63831   4.287  27.613   6.352
 5009POPC   D2A63832   4.494  27.521   6.732
 5009POPC   C3A63833   4.154  27.476   7.031
 5009POPC   C4A63834   4.118  27.706   7.447
 5009POPC   C1B63835   4.613  27.197   6.291
 5009POPC   C2B63836   4.434  27.003   6.631
 5009POPC   C3B63837   4.559  27.113   7.020
 5009POPC   C4B63838   4.474  27.317   7.381
 5010POPC   NC363839  40.146  44.892   5.596
 5010POPC   PO463840  39.814  44.341   5.413
 5010POPC   GL163841  39.945  44.464   5.879
 5010POPC   GL263842  39.829  44.815   5.973
 5010POPC   C1A63843  39.902  44.521   6.371
 5010POPC   D2A63844  39.590  44.808   6.580
 5010POPC   C3A63845  39.645  44.749   7.036
 5010POPC   C4A63846  40.011  44.526   7.193
 5010POPC   C1B63847  40.214  44.900   6.241
 5010POPC   C2B63848  40.107  44.930   6.674
 5010POPC   C3B63849  40.242  44.974   7.078
 5010POPC   C4B63850  40.283   0.256   7.438
 5011POPC   NC363851  43.346  35.141   5.304
 5011POPC   PO463852  43.069  35.664   5.475
 5011POPC   GL163853  43.238  35.468   5.839
 5011POPC   GL263854  43.589  35.467   5.737
 5011POPC   C1A63855  43.174  35.505   6.317
 5011POPC   D2A63856  43.051  35.760   6.697
 5011POPC   C3A63857  42.821  35.533   7.023
 5011POPC   C4A63858  42.707  35.154   7.251
 5011POPC   C1B63859  43.629  35.276   6.183
 5011POPC   C2B63860  43.359  35.081   6.529
 5011POPC   C3B63861  43.048  35.099   6.880
 5011POPC   C4B63862  43.208  35.221   7.323
 5012POPC   NC363863   8.596  36.856   5.276
 5012POPC   PO463864   7.974  36.975   5.573
 5012POPC   GL163865   8.020  36.917   5.954
 5012POPC   GL263866   8.349  36.733   5.941
 5012POPC   C1A63867   8.243  37.039   6.333
 5012POPC   D2A63868   8.556  37.126   6.638
 5012POPC   C3A63869   8.373  37.039   7.042
 5012POPC   C4A63870   8.376  37.141   7.512
 5012POPC   C1B63871   8.078  36.558   6.287
 5012POPC   C2B63872   8.018  36.742   6.689
 5012POPC   C3B63873   8.079  36.582   7.083
 5012POPC   C4B63874   8.281  36.648   7.494
 5013POPC   NC363875  18.416  44.502   5.377
 5013POPC   PO463876  18.613   0.161   5.517
 5013POPC   GL163877  18.466  44.854   5.820
 5013POPC   GL263878  18.160  44.625   5.807
 5013POPC   C1A63879  18.491  44.698   6.236
 5013POPC   D2A63880  18.676  44.848   6.622
 5013POPC   C3A63881  18.399  44.735   6.945
 5013POPC   C4A63882  18.451  44.743   7.380
 5013POPC   C1B63883  17.992  44.819   6.190
 5013POPC   C2B63884  17.784  44.721   6.592
 5013POPC   C3B63885  17.696  44.964   6.945
 5013POPC   C4B63886  17.993  44.926   7.245
 5014POPC   NC363887  14.921  17.115   5.382
 5014POPC   PO463888  15.415  16.557   5.412
 5014POPC   GL163889  15.210  16.458   5.792
 5014POPC   GL263890  15.062  16.768   5.758
 5014POPC   C1A63891  15.287  16.411   6.223
 5014POPC   D2A63892  15.216  16.640   6.583
 5014POPC   C3A63893  15.317  16.511   6.971
 5014POPC   C4A63894  15.068  16.357   7.306
 5014POPC   C1B63895  15.226  16.932   6.149
 5014POPC   C2B63896  15.094  17.147   6.519
 5014POPC   C3B63897  15.082  17.034   6.961
 5014POPC   C4B63898  14.795  16.923   7.311
 5015POPC   NC363899  17.114   0.222   5.613
 5015POPC   PO463900  16.731   0.719   5.376
 5015POPC   GL163901  16.719   0.588   5.792
 5015POPC   GL263902  16.689   0.254   5.907
 5015POPC   C1A63903  16.875   0.702   6.195
 5015POPC   D2A63904  16.838   0.419   6.545
 5015POPC   C3A63905  16.721   0.640   6.908
 5015POPC   C4A63906  16.370   0.603   7.176
 5015POPC   C1B63907  16.978   0.009   6.216
 5015POPC   C2B63908  17.247   0.090   6.578
 5015POPC   C3B63909  17.077   0.217   6.963
 5015POPC   C4B63910  16.815   0.046   7.263
 5016POPC   NC363911  19.145  44.877   5.459
 5016POPC   PO463912  18.821  44.286   5.402
 5016POPC   GL163913  18.897  44.526   5.806
 5016POPC   GL263914  19.270  44.563   5.866
 5016POPC   C1A63915  18.966  44.545   6.277
 5016POPC   D2A63916  18.767  44.339   6.640
 5016POPC   C3A63917  18.884  44.569   7.026
 5016POPC   C4A63918  18.959  44.780   7.428
 5016POPC   C1B63919  19.465  44.434   6.261
 5016POPC   C2B63920  19.304  44.513   6.698
 5016POPC   C3B63921  19.385  44.544   7.162
 5016POPC   C4B63922  19.403  44.583   7.627
 5017POPC   NC363923  21.109  26.565   5.415
 5017POPC   PO463924  20.497  26.506   5.263
 5017POPC   GL163925  20.487  26.710   5.716
 5017POPC   GL263926  20.833  26.720   5.828
 5017POPC   C1A63927  20.513  26.712   6.219
 5017POPC   D2A63928  20.721  26.562   6.615
 5017POPC   C3A63929  20.460  26.654   6.977
 5017POPC   C4A63930  20.406  26.995   7.260
 5017POPC   C1B63931  21.040  26.848   6.224
 5017POPC   C2B63932  21.022  27.029   6.627
 5017POPC   C3B63933  20.877  26.952   7.016
 5017POPC   C4B63934  20.886  26.763   7.380
 5018POPC   NC363935  12.017  25.698   5.339
 5018POPC   PO463936  12.295  24.999   5.366
 5018POPC   GL163937  12.061  25.169   5.698
 5018POPC   GL263938  12.268  24.924   5.874
 5018POPC   C1A63939  12.130  25.379   6.098
 5018POPC   D2A63940  12.285  25.451   6.518
 5018POPC   C3A63941  11.969  25.445   6.803
 5018POPC   C4A63942  11.949  25.414   7.198
 5018POPC   C1B63943  12.043  24.780   6.226
 5018POPC   C2B63944  11.970  24.936   6.639
 5018POPC   C3B63945  12.136  24.953   7.054
 5018POPC   C4B63946  11.929  24.987   7.457
 5019POPC   NC363947  22.302   9.601   5.565
 5019POPC   PO463948  21.825   9.947   5.399
 5019POPC   GL163949  21.960   9.905   5.808
 5019POPC   GL263950  22.285  10.061   5.914
 5019POPC   C1A63951  22.050   9.665   6.196
 5019POPC   D2A63952  21.856   9.764   6.595
 5019POPC   C3A63953  22.059   9.559   6.908
 5019POPC   C4A63954  22.012   9.626   7.319
 5019POPC   C1B63955  22.551   9.789   6.155
 5019POPC   C2B63956  22.608   9.641   6.569
 5019POPC   C3B63957  22.540   9.676   7.009
 5019POPC   C4B63958  22.536   9.813   7.402
 5020POPC   NC363959  40.294  44.102   5.514
 5020POPC   PO463960  39.843  43.627   5.660
 5020POPC   GL163961  40.042  43.932   5.930
 5020POPC   GL263962  40.387  43.899   5.960
 5020POPC   C1A63963  40.052  44.029   6.365
 5020POPC   D2A63964  39.726  43.921   6.674
 5020POPC   C3A63965  39.803  44.022   7.105
 5020POPC   C4A63966  39.645  44.259   7.436
 5020POPC   C1B63967  40.437  43.588   6.225
 5020POPC   C2B63968  40.089  43.527   6.482
 5020POPC   C3B63969  40.107  43.647   6.880
 5020POPC   C4B63970  40.191  43.714   7.287
 5021POPC   NC363971   3.335  34.254   5.651
 5021POPC   PO463972   3.591  34.556   5.092
 5021POPC   GL163973   3.789  34.495   5.613
 5021POPC   GL263974   3.990  34.791   5.770
 5021POPC   C1A63975   3.767  34.461   6.115
 5021POPC   D2A63976   3.550  34.564   6.531
 5021POPC   C3A63977   3.315  34.382   6.884
 5021POPC   C4A63978   3.413  34.425   7.312
 5021POPC   C1B63979   3.925  34.961   6.210
 5021POPC   C2B63980   3.914  34.898   6.653
 5021POPC   C3B63981   3.771  34.683   7.020
 5021POPC   C4B63982   3.936  34.913   7.356
 5022POPC   NC363983  31.944  43.010   5.370
 5022POPC   PO463984  31.246  43.257   5.529
 5022POPC   GL163985  31.552  43.048   5.799
 5022POPC   GL263986  31.685  43.383   5.746
 5022POPC   C1A63987  31.413  42.827   6.211
 5022POPC   D2A63988  31.061  42.967   6.514
 5022POPC   C3A63989  31.167  43.293   6.829
 5022POPC   C4A63990  31.285  43.271   7.245
 5022POPC   C1B63991  31.450  43.389   6.163
 5022POPC   C2B63992  31.606  43.183   6.534
 5022POPC   C3B63993  31.618  43.013   6.932
 5022POPC   C4B63994  31.808  43.199   7.268
 5023POPC   NC363995  14.769  26.593   5.508
 5023POPC   PO463996  15.198  27.055   5.220
 5023POPC   GL163997  15.166  26.846   5.728
 5023POPC   GL263998  14.860  26.793   5.945
 5023POPC   C1A63999  15.276  26.597   6.149
 5023POPC   D2A64000  15.352  26.806   6.564
 5023POPC   C3A64001  15.328  26.658   7.001
 5023POPC   C4A64002  15.254  26.946   7.367
 5023POPC   C1B64003  14.896  26.939   6.327
 5023POPC   C2B64004  14.813  26.735   6.684
 5023POPC   C3B64005  14.820  26.851   7.093
 5023POPC   C4B64006  14.618  26.762   7.437
 5024POPC   NC364007   0.669   2.863   5.220
 5024POPC   PO464008   0.031   2.819   5.351
 5024POPC   GL164009   0.380   2.896   5.677
 5024POPC   GL264010   0.775   2.882   5.710
 5024POPC   C1A64011   0.338   2.781   6.114
 5024POPC   D2A64012   0.485   2.783   6.541
 5024POPC   C3A64013   0.294   2.833   6.945
 5024POPC   C4A64014   0.058   3.071   7.213
 5024POPC   C1B64015   0.834   2.908   6.123
 5024POPC   C2B64016   0.948   2.988   6.519
 5024POPC   C3B64017   0.800   2.896   6.928
 5024POPC   C4B64018   0.695   2.947   7.319
 5025POPC   NC364019  24.095  23.743   5.508
 5025POPC   PO464020  24.628  24.231   5.512
 5025POPC   GL164021  24.598  23.924   5.864
 5025POPC   GL264022  24.471  23.615   5.830
 5025POPC   C1A64023  24.472  23.964   6.308
 5025POPC   D2A64024  24.343  24.126   6.659
 5025POPC   C3A64025  24.456  23.920   6.976
 5025POPC   C4A64026  24.248  23.782   7.301
 5025POPC   C1B64027  24.245  23.545   6.215
 5025POPC   C2B64028  24.406  23.515   6.659
 5025POPC   C3B64029  24.226  23.351   7.067
 5025POPC   C4B64030  24.420  23.367   7.526
 5026POPC   NC364031   6.672  16.199   5.471
 5026POPC   PO464032   6.071  16.489   5.761
 5026POPC   GL164033   6.422  16.191   5.915
 5026POPC   GL264034   6.807  16.327   5.942
 5026POPC   C1A64035   6.652  15.918   6.211
 5026POPC   D2A64036   6.734  16.230   6.533
 5026POPC   C3A64037   6.616  16.178   6.943
 5026POPC   C4A64038   6.372  15.891   7.168
 5026POPC   C1B64039   7.130  16.153   6.248
 5026POPC   C2B64040   7.092  15.904   6.663
 5026POPC   C3B64041   6.922  15.790   7.108
 5026POPC   C4B64042   7.079  15.925   7.536
 5027POPC   NC364043  22.649  31.823   5.499
 5027POPC   PO464044  23.004  32.457   5.419
 5027POPC   GL164045  22.965  32.171   5.822
 5027POPC   GL264046  23.061  31.824   5.895
 5027POPC   C1A64047  23.077  32.155   6.285
 5027POPC   D2A64048  23.138  32.160   6.743
 5027POPC   C3A64049  22.769  32.274   6.995
 5027POPC   C4A64050  22.999  32.324   7.330
 5027POPC   C1B64051  22.693  31.814   6.218
 5027POPC   C2B64052  22.601  31.898   6.681
 5027POPC   C3B64053  22.907  31.792   7.028
 5027POPC   C4B64054  23.264  31.903   7.285
 5028POPC   NC364055  13.388  29.990   5.359
 5028POPC   PO464056  13.926  29.613   5.165
 5028POPC   GL164057  13.740  29.599   5.650
 5028POPC   GL264058  13.413  29.766   5.808
 5028POPC   C1A64059  13.796  29.729   6.130
 5028POPC   D2A64060  13.770  29.671   6.591
 5028POPC   C3A64061  13.890  29.987   6.936
 5028POPC   C4A64062  13.814  29.966   7.399
 5028POPC   C1B64063  13.322  29.858   6.250
 5028POPC   C2B64064  13.390  30.043   6.670
 5028POPC   C3B64065  13.425  30.104   7.108
 5028POPC   C4B64066  13.417  30.295   7.505
 5029POPC   NC364067   1.377  16.289   5.361
 5029POPC   PO464068   1.146  16.874   5.252
 5029POPC   GL164069   1.239  16.689   5.683
 5029POPC   GL264070   1.077  16.846   5.890
 5029POPC   C1A64071   1.357  16.607   6.197
 5029POPC   D2A64072   1.334  16.819   6.595
 5029POPC   C3A64073   1.335  16.552   6.945
 5029POPC   C4A64074   1.375  16.702   7.356
 5029POPC   C1B64075   0.915  16.961   6.300
 5029POPC   C2B64076   0.837  16.965   6.716
 5029POPC   C3B64077   1.112  17.029   7.041
 5029POPC   C4B64078   0.923  16.991   7.426
 5030POPC   NC364079  10.619  28.052   5.269
 5030POPC   PO464080  10.253  28.578   5.452
 5030POPC   GL164081  10.446  28.440   5.887
 5030POPC   GL264082  10.705  28.198   5.931
 5030POPC   C1A64083  10.693  28.605   6.264
 5030POPC   D2A64084  10.650  28.837   6.680
 5030POPC   C3A64085  10.537  28.575   7.024
 5030POPC   C4A64086  10.422  28.478   7.456
 5030POPC   C1B64087  10.639  28.109   6.368
 5030POPC   C2B64088  10.606  28.078   6.793
 5030POPC   C3B64089  10.524  28.062   7.200
 5030POPC   C4B64090  10.408  27.917   7.609
 5031POPC   NC364091  27.180  27.781   5.514
 5031POPC   PO464092  26.532  27.865   5.441
 5031POPC   GL164093  26.696  27.572   5.777
 5031POPC   GL264094  26.483  27.264   5.818
 5031POPC   C1A64095  26.960  27.388   6.137
 5031POPC   D2A64096  27.175  27.557   6.533
 5031POPC   C3A64097  26.952  27.452   6.917
 5031POPC   C4A64098  26.733  27.604   7.273
 5031POPC   C1B64099  26.452  27.453   6.233
 5031POPC   C2B64100  26.565  27.291   6.636
 5031POPC   C3B64101  26.391  27.296   7.064
 5031POPC   C4B64102  26.421  27.292   7.556
 5032POPC   NC364103  39.901  37.047   5.244
 5032POPC   PO464104  40.093  36.454   5.358
 5032POPC   GL164105  39.987  36.783   5.693
 5032POPC   GL264106  40.301  36.774   5.803
 5032POPC   C1A64107  40.020  37.061   6.121
 5032POPC   D2A64108  39.868  36.978   6.552
 5032POPC   C3A64109  39.918  37.093   6.988
 5032POPC   C4A64110  39.751  36.849   7.328
 5032POPC   C1B64111  40.459  36.821   6.169
 5032POPC   C2B64112  40.406  37.060   6.542
 5032POPC   C3B64113  40.404  36.887   6.946
 5032POPC   C4B64114  40.259  36.800   7.354
 5033POPC   NC364115   2.932  42.915   5.357
 5033POPC   PO464116   3.476  43.202   5.181
 5033POPC   GL164117   3.352  43.120   5.618
 5033POPC   GL264118   3.540  43.300   5.861
 5033POPC   C1A64119   3.393  42.851   6.021
 5033POPC   D2A64120   3.430  42.959   6.469
 5033POPC   C3A64121   3.479  42.909   6.913
 5033POPC   C4A64122   3.359  43.000   7.329
 5033POPC   C1B64123   3.579  43.446   6.283
 5033POPC   C2B64124   3.525  43.398   6.717
 5033POPC   C3B64125   3.347  43.438   7.080
 5033POPC   C4B64126   3.651  43.577   7.357
 5034POPC   NC364127  31.991  37.280   5.450
 5034POPC   PO464128  32.234  37.959   5.383
 5034POPC   GL164129  32.074  37.741   5.727
 5034POPC   GL264130  32.363  37.544   5.757
 5034POPC   C1A64131  32.062  37.543   6.158
 5034POPC   D2A64132  31.948  37.362   6.545
 5034POPC   C3A64133  32.075  37.589   6.896
 5034POPC   C4A64134  31.991  37.465   7.273
 5034POPC   C1B64135  32.601  37.515   6.140
 5034POPC   C2B64136  32.454  37.437   6.549
 5034POPC   C3B64137  32.586  37.645   6.933
 5034POPC   C4B64138  32.413  37.797   7.308
 5035POPC   NC364139  27.190  26.886   5.417
 5035POPC   PO464140  26.534  26.878   5.469
 5035POPC   GL164141  26.799  26.854   5.811
 5035POPC   GL264142  27.070  26.618   5.829
 5035POPC   C1A64143  26.655  26.944   6.225
 5035POPC   D2A64144  26.426  26.788   6.589
 5035POPC   C3A64145  26.672  26.868   6.964
 5035POPC   C4A64146  26.822  27.110   7.315
 5035POPC   C1B64147  27.203  26.925   6.133
 5035POPC   C2B64148  27.058  27.040   6.552
 5035POPC   C3B64149  27.193  26.980   6.968
 5035POPC   C4B64150  27.126  26.711   7.329
 5036POPC   NC364151  11.217  40.264   5.584
 5036POPC   PO464152  11.277  40.859   5.193
 5036POPC   GL164153  11.203  40.832   5.691
 5036POPC   GL264154  11.376  40.562   5.939
 5036POPC   C1A64155  11.275  40.999   6.131
 5036POPC   D2A64156  11.250  41.097   6.568
 5036POPC   C3A64157  11.298  40.964   7.009
 5036POPC   C4A64158  11.041  40.861   7.378
 5036POPC   C1B64159  11.281  40.523   6.354
 5036POPC   C2B64160  11.485  40.541   6.738
 5036POPC   C3B64161  11.594  40.583   7.175
 5036POPC   C4B64162  11.669  40.566   7.624
 5037POPC   NC364163  35.690  19.175   5.440
 5037POPC   PO464164  35.117  18.744   5.584
 5037POPC   GL164165  35.423  18.852   5.887
 5037POPC   GL264166  35.779  18.800   5.806
 5037POPC   C1A64167  35.410  18.914   6.324
 5037POPC   D2A64168  35.372  19.180   6.662
 5037POPC   C3A64169  35.188  19.008   7.048
 5037POPC   C4A64170  35.539  19.270   7.161
 5037POPC   C1B64171  35.811  18.588   6.210
 5037POPC   C2B64172  35.688  18.502   6.605
 5037POPC   C3B64173  35.611  18.787   6.888
 5037POPC   C4B64174  35.640  18.799   7.297
 5038POPC   NC364175  43.638  26.789   5.544
 5038POPC   PO464176  43.527  26.268   6.021
 5038POPC   GL164177  43.718  26.635   6.018
 5038POPC   GL264178  44.024  26.695   5.886
 5038POPC   C1A64179  43.686  26.925   6.307
 5038POPC   D2A64180  43.868  26.758   6.645
 5038POPC   C3A64181  43.656  26.820   6.989
 5038POPC   C4A64182  43.798  26.882   7.387
 5038POPC   C1B64183  44.187  26.917   6.249
 5038POPC   C2B64184  44.209  27.116   6.674
 5038POPC   C3B64185  44.189  26.894   7.064
 5038POPC   C4B64186  44.245  26.599   7.432
 5039POPC   NC364187  29.773   6.960   5.560
 5039POPC   PO464188  30.121   6.360   5.532
 5039POPC   GL164189  29.956   6.576   5.891
 5039POPC   GL264190  30.058   6.921   5.976
 5039POPC   C1A64191  29.975   6.537   6.330
 5039POPC   D2A64192  29.982   6.367   6.714
 5039POPC   C3A64193  29.800   6.566   7.060
 5039POPC   C4A64194  29.487   6.855   7.165
 5039POPC   C1B64195  30.382   6.836   6.300
 5039POPC   C2B64196  30.315   6.779   6.715
 5039POPC   C3B64197  30.127   6.962   7.054
 5039POPC   C4B64198  30.373   6.812   7.368
 5040POPC   NC364199  29.239  20.391   5.444
 5040POPC   PO464200  28.858  20.904   5.415
 5040POPC   GL164201  28.922  20.591   5.804
 5040POPC   GL264202  29.292  20.531   5.928
 5040POPC   C1A64203  28.927  20.308   6.181
 5040POPC   D2A64204  29.168  20.346   6.561
 5040POPC   C3A64205  29.001  20.726   6.778
 5040POPC   C4A64206  29.166  20.817   7.187
 5040POPC   C1B64207  29.219  20.786   6.305
 5040POPC   C2B64208  29.456  20.883   6.694
 5040POPC   C3B64209  29.480  20.486   6.956
 5040POPC   C4B64210  29.429  20.331   7.349
 5041POPC   NC364211   5.516  15.287   5.249
 5041POPC   PO464212   6.156  15.064   5.199
 5041POPC   GL164213   5.900  15.225   5.600
 5041POPC   GL264214   5.959  15.570   5.734
 5041POPC   C1A64215   5.873  15.140   6.084
 5041POPC   D2A64216   6.114  15.138   6.497
 5041POPC   C3A64217   5.937  15.135   6.903
 5041POPC   C4A64218   5.840  15.149   7.341
 5041POPC   C1B64219   5.668  15.622   6.092
 5041POPC   C2B64220   5.663  15.458   6.501
 5041POPC   C3B64221   5.484  15.457   6.912
 5041POPC   C4B64222   5.535  15.570   7.336
 5042POPC   NC364223  32.341  35.459   5.473
 5042POPC   PO464224  32.639  34.805   5.629
 5042POPC   GL164225  32.460  35.160   5.877
 5042POPC   GL264226  32.139  35.317   6.000
 5042POPC   C1A64227  32.562  35.389   6.266
 5042POPC   D2A64228  32.691  35.271   6.671
 5042POPC   C3A64229  32.377  35.273   7.008
 5042POPC   C4A64230  32.487  35.599   7.307
 5042POPC   C1B64231  32.080  35.343   6.453
 5042POPC   C2B64232  31.811  35.286   6.815
 5042POPC   C3B64233  31.922  35.085   7.211
 5042POPC   C4B64234  32.180  35.289   7.562
 5043POPC   NC364235   6.791  29.250   5.398
 5043POPC   PO464236   6.202  29.654   5.585
 5043POPC   GL164237   6.584  29.437   5.826
 5043POPC   GL264238   6.572  29.057   5.815
 5043POPC   C1A64239   6.803  29.240   6.212
 5043POPC   D2A64240   6.969  29.028   6.581
 5043POPC   C3A64241   6.705  29.024   6.932
 5043POPC   C4A64242   6.642  29.210   7.316
 5043POPC   C1B64243   6.522  28.785   6.185
 5043POPC   C2B64244   6.636  28.578   6.556
 5043POPC   C3B64245   6.451  28.591   6.937
 5043POPC   C4B64246   6.386  28.757   7.317
 5044POPC   NC364247   5.169   6.492   5.501
 5044POPC   PO464248   5.542   6.814   5.754
 5044POPC   GL164249   5.305   6.550   6.014
 5044POPC   GL264250   4.932   6.444   5.939
 5044POPC   C1A64251   5.378   6.456   6.464
 5044POPC   D2A64252   5.638   6.338   6.832
 5044POPC   C3A64253   5.362   6.507   7.100
 5044POPC   C4A64254   5.246   6.958   7.206
 5044POPC   C1B64255   4.934   6.716   6.318
 5044POPC   C2B64256   5.049   6.753   6.749
 5044POPC   C3B64257   4.857   6.596   7.098
 5044POPC   C4B64258   4.483   6.733   7.188
 5045POPC   NC364259  17.085   3.331   5.442
 5045POPC   PO464260  16.703   3.943   5.392
 5045POPC   GL164261  16.658   3.738   5.820
 5045POPC   GL264262  16.760   3.389   5.830
 5045POPC   C1A64263  16.638   3.652   6.279
 5045POPC   D2A64264  16.939   3.821   6.602
 5045POPC   C3A64265  16.711   3.865   6.995
 5045POPC   C4A64266  16.570   3.490   7.208
 5045POPC   C1B64267  17.085   3.453   6.150
 5045POPC   C2B64268  16.946   3.313   6.554
 5045POPC   C3B64269  17.066   3.456   6.958
 5045POPC   C4B64270  17.004   3.249   7.318
 5046POPC   NC364271  38.759  42.045   5.519
 5046POPC   PO464272  38.317  42.504   5.472
 5046POPC   GL164273  38.273  42.159   5.783
 5046POPC   GL264274  38.589  42.157   5.978
 5046POPC   C1A64275  38.175  41.968   6.200
 5046POPC   D2A64276  38.398  42.103   6.577
 5046POPC   C3A64277  38.211  42.218   6.951
 5046POPC   C4A64278  38.303  42.122   7.389
 5046POPC   C1B64279  38.771  42.416   6.289
 5046POPC   C2B64280  38.845  42.348   6.672
 5046POPC   C3B64281  38.706  42.266   7.033
 5046POPC   C4B64282  38.647  42.627   7.249
 5047POPC   NC364283  39.704  15.434   5.416
 5047POPC   PO464284  39.163  15.039   5.162
 5047POPC   GL164285  39.221  14.988   5.728
 5047POPC   GL264286  39.581  14.962   5.758
 5047POPC   C1A64287  39.088  15.120   6.191
 5047POPC   D2A64288  38.909  15.230   6.622
 5047POPC   C3A64289  39.148  15.260   7.013
 5047POPC   C4A64290  39.033  15.068   7.437
 5047POPC   C1B64291  39.616  15.077   6.172
 5047POPC   C2B64292  39.486  15.257   6.549
 5047POPC   C3B64293  39.608  15.052   6.917
 5047POPC   C4B64294  39.528  15.127   7.313
 5048POPC   NC364295  25.098  28.836   5.328
 5048POPC   PO464296  25.540  29.037   5.665
 5048POPC   GL164297  25.295  29.242   5.907
 5048POPC   GL264298  25.013  29.080   5.807
 5048POPC   C1A64299  25.416  29.428   6.262
 5048POPC   D2A64300  25.602  29.238   6.613
 5048POPC   C3A64301  25.530  29.495   6.940
 5048POPC   C4A64302  25.343  29.278   7.246
 5048POPC   C1B64303  24.912  29.206   6.221
 5048POPC   C2B64304  25.087  29.215   6.594
 5048POPC   C3B64305  25.045  29.028   6.936
 5048POPC   C4B64306  24.834  29.175   7.260
 5049POPC   NC364307   5.906  25.553   5.564
 5049POPC   PO464308   5.893  24.919   5.538
 5049POPC   GL164309   5.970  25.168   5.878
 5049POPC   GL264310   5.630  25.225   5.871
 5049POPC   C1A64311   6.078  25.353   6.268
 5049POPC   D2A64312   5.828  25.422   6.647
 5049POPC   C3A64313   5.989  25.252   7.047
 5049POPC   C4A64314   6.175  25.328   7.481
 5049POPC   C1B64315   5.473  25.351   6.271
 5049POPC   C2B64316   5.287  25.439   6.669
 5049POPC   C3B64317   5.516  25.549   7.051
 5049POPC   C4B64318   5.653  25.309   7.421
 5050POPC   NC364319  41.507  37.837   5.268
 5050POPC   PO464320  41.856  37.332   5.631
 5050POPC   GL164321  41.692  37.668   5.833
 5050POPC   GL264322  41.367  37.502   5.755
 5050POPC   C1A64323  41.889  37.745   6.255
 5050POPC   D2A64324  41.714  37.687   6.668
 5050POPC   C3A64325  41.782  37.811   7.088
 5050POPC   C4A64326  41.390  37.834   7.342
 5050POPC   C1B64327  41.372  37.526   6.216
 5050POPC   C2B64328  41.280  37.402   6.632
 5050POPC   C3B64329  41.452  37.415   7.040
 5050POPC   C4B64330  41.554  37.364   7.465
 5051POPC   NC364331  27.449  15.171   5.506
 5051POPC   PO464332  28.063  14.829   5.472
 5051POPC   GL164333  27.855  15.092   5.852
 5051POPC   GL264334  27.535  14.948   5.992
 5051POPC   C1A64335  27.607  15.393   6.200
 5051POPC   D2A64336  27.262  15.286   6.529
 5051POPC   C3A64337  27.386  15.098   6.952
 5051POPC   C4A64338  27.489  15.298   7.361
 5051POPC   C1B64339  27.834  14.821   6.322
 5051POPC   C2B64340  27.856  14.944   6.764
 5051POPC   C3B64341  27.812  14.907   7.214
 5051POPC   C4B64342  27.793  14.922   7.674
 5052POPC   NC364343   2.459   4.257   5.614
 5052POPC   PO464344   2.951   4.551   5.409
 5052POPC   GL164345   2.947   4.360   5.800
 5052POPC   GL264346   2.872   3.985   5.805
 5052POPC   C1A64347   2.881   4.344   6.236
 5052POPC   D2A64348   3.009   4.450   6.677
 5052POPC   C3A64349   2.631   4.440   6.972
 5052POPC   C4A64350   2.412   4.380   7.375
 5052POPC   C1B64351   2.867   3.830   6.218
 5052POPC   C2B64352   2.775   4.004   6.597
 5052POPC   C3B64353   2.796   3.920   6.977
 5052POPC   C4B64354   2.671   3.939   7.352
 5053POPC   NC364355  42.504  14.990   5.433
 5053POPC   PO464356  41.873  14.857   5.397
 5053POPC   GL164357  42.116  15.195   5.694
 5053POPC   GL264358  42.201  14.926   5.923
 5053POPC   C1A64359  42.419  15.360   6.049
 5053POPC   D2A64360  42.537  15.131   6.449
 5053POPC   C3A64361  42.316  15.141   6.870
 5053POPC   C4A64362  42.384  14.944   7.266
 5053POPC   C1B64363  42.030  15.158   6.310
 5053POPC   C2B64364  41.824  15.107   6.735
 5053POPC   C3B64365  41.897  15.060   7.212
 5053POPC   C4B64366  42.103  15.123   7.662
 5054POPC   NC364367   3.263  14.736   5.118
 5054POPC   PO464368   2.812  14.350   5.349
 5054POPC   GL164369   2.738  14.533   5.738
 5054POPC   GL264370   2.622  14.204   5.833
 5054POPC   C1A64371   2.878  14.630   6.180
 5054POPC   D2A64372   2.858  14.917   6.535
 5054POPC   C3A64373   2.853  14.689   6.920
 5054POPC   C4A64374   2.732  14.586   7.293
 5054POPC   C1B64375   2.401  14.263   6.228
 5054POPC   C2B64376   2.626  14.350   6.605
 5054POPC   C3B64377   2.700  14.172   7.017
 5054POPC   C4B64378   2.868  13.813   7.242
 5055POPC   NC364379  27.898  11.993   5.171
 5055POPC   PO464380  27.290  12.114   5.373
 5055POPC   GL164381  27.479  12.022   5.774
 5055POPC   GL264382  27.842  12.108   5.821
 5055POPC   C1A64383  27.544  12.125   6.219
 5055POPC   D2A64384  27.588  11.865   6.570
 5055POPC   C3A64385  27.670  12.052   6.926
 5055POPC   C4A64386  27.711  12.345   7.246
 5055POPC   C1B64387  28.007  11.883   6.217
 5055POPC   C2B64388  28.103  11.754   6.662
 5055POPC   C3B64389  28.127  11.925   7.102
 5055POPC   C4B64390  27.779  11.841   7.389
 5056POPC   NC364391   3.764   2.934   5.397
 5056POPC   PO464392   3.548   2.295   5.473
 5056POPC   GL164393   3.663   2.600   5.777
 5056POPC   GL264394   3.392   2.874   5.804
 5056POPC   C1A64395   3.583   2.610   6.196
 5056POPC   D2A64396   3.334   2.620   6.548
 5056POPC   C3A64397   3.556   2.485   6.881
 5056POPC   C4A64398   3.381   2.493   7.258
 5056POPC   C1B64399   3.459   3.105   6.208
 5056POPC   C2B64400   3.428   3.117   6.630
 5056POPC   C3B64401   3.594   2.964   7.026
 5056POPC   C4B64402   3.591   3.154   7.451
 5057POPC   NC364403   2.663  29.555   5.445
 5057POPC   PO464404   2.485  30.135   5.170
 5057POPC   GL164405   2.617  30.106   5.665
 5057POPC   GL264406   2.840  29.839   5.859
 5057POPC   C1A64407   2.668  30.236   6.143
 5057POPC   D2A64408   2.641  29.913   6.512
 5057POPC   C3A64409   2.773  29.975   6.929
 5057POPC   C4A64410   3.095  29.806   7.175
 5057POPC   C1B64411   3.010  29.615   6.267
 5057POPC   C2B64412   2.956  29.518   6.730
 5057POPC   C3B64413   2.685  29.495   7.113
 5057POPC   C4B64414   2.701  29.645   7.538
 5058POPC   NC364415  42.665  43.814   5.426
 5058POPC   PO464416  42.088  44.265   5.412
 5058POPC   GL164417  42.345  44.056   5.759
 5058POPC   GL264418  42.398  43.693   5.845
 5058POPC   C1A64419  42.431  44.074   6.217
 5058POPC   D2A64420  42.203  44.168   6.592
 5058POPC   C3A64421  42.346  44.024   6.989
 5058POPC   C4A64422  42.307  44.174   7.394
 5058POPC   C1B64423  42.118  43.662   6.200
 5058POPC   C2B64424  42.295  43.641   6.622
 5058POPC   C3B64425  42.291  43.510   7.056
 5058POPC   C4B64426  42.405  43.651   7.489
 5059POPC   NC364427  11.881  24.731   5.507
 5059POPC   PO464428  12.362  24.259   5.451
 5059POPC   GL164429  12.305  24.403   5.886
 5059POPC   GL264430  11.948  24.375   5.891
 5059POPC   C1A64431  12.277  24.351   6.365
 5059POPC   D2A64432  12.343  24.571   6.758
 5059POPC   C3A64433  12.272  24.398   7.181
 5059POPC   C4A64434  12.306  24.219   7.659
 5059POPC   C1B64435  11.776  24.247   6.292
 5059POPC   C2B64436  11.830  24.426   6.708
 5059POPC   C3B64437  11.796  24.556   7.142
 5059POPC   C4B64438  11.821  24.295   7.518
 5060POPC   NC364439   9.022   8.738   5.483
 5060POPC   PO464440   8.588   9.162   5.287
 5060POPC   GL164441   8.577   9.246   5.742
 5060POPC   GL264442   8.897   9.100   5.857
 5060POPC   C1A64443   8.510   9.217   6.189
 5060POPC   D2A64444   8.751   9.005   6.516
 5060POPC   C3A64445   8.674   9.131   6.940
 5060POPC   C4A64446   8.516   8.835   7.213
 5060POPC   C1B64447   9.107   8.812   6.160
 5060POPC   C2B64448   9.262   8.936   6.542
 5060POPC   C3B64449   9.087   8.821   6.945
 5060POPC   C4B64450   9.128   9.174   7.211
 5061POPC   NC364451  23.945  10.734   5.624
 5061POPC   PO464452  23.431  10.269   5.396
 5061POPC   GL164453  23.609  10.404   5.787
 5061POPC   GL264454  23.932  10.234   5.698
 5061POPC   C1A64455  23.812  10.537   6.209
 5061POPC   D2A64456  23.639  10.507   6.606
 5061POPC   C3A64457  23.867  10.643   6.974
 5061POPC   C4A64458  23.563  10.510   7.280
 5061POPC   C1B64459  24.004  10.056   6.110
 5061POPC   C2B64460  24.061  10.180   6.520
 5061POPC   C3B64461  23.860  10.139   6.874
 5061POPC   C4B64462  23.974  10.223   7.278
 5062POPC   NC364463   2.850  38.137   5.555
 5062POPC   PO464464   2.373  37.661   5.294
 5062POPC   GL164465   2.543  37.698   5.725
 5062POPC   GL264466   2.936  37.701   5.787
 5062POPC   C1A64467   2.573  37.929   6.125
 5062POPC   D2A64468   2.462  38.080   6.539
 5062POPC   C3A64469   2.600  37.774   6.850
 5062POPC   C4A64470   2.608  37.665   7.294
 5062POPC   C1B64471   3.014  37.582   6.220
 5062POPC   C2B64472   3.053  37.557   6.664
 5062POPC   C3B64473   2.996  37.390   7.072
 5062POPC   C4B64474   2.950  37.296   7.504
 5063POPC   NC364475  36.707  11.618   5.479
 5063POPC   PO464476  37.179  11.190   5.588
 5063POPC   GL164477  36.969  11.241   5.965
 5063POPC   GL264478  36.746  11.504   5.974
 5063POPC   C1A64479  37.048  11.430   6.361
 5063POPC   D2A64480  36.744  11.394   6.603
 5063POPC   C3A64481  36.822  11.168   6.936
 5063POPC   C4A64482  36.827  11.262   7.306
 5063POPC   C1B64483  36.661  11.824   6.237
 5063POPC   C2B64484  36.482  11.836   6.606
 5063POPC   C3B64485  36.477  11.605   6.967
 5063POPC   C4B64486  36.559  11.738   7.310
 5064POPC   NC364487  23.563  40.960   5.598
 5064POPC   PO464488  23.931  40.552   5.272
 5064POPC   GL164489  24.020  40.860   5.716
 5064POPC   GL264490  23.737  40.620   5.917
 5064POPC   C1A64491  23.931  40.979   6.199
 5064POPC   D2A64492  23.844  40.828   6.639
 5064POPC   C3A64493  23.650  40.801   7.010
 5064POPC   C4A64494  23.612  40.828   7.434
 5064POPC   C1B64495  23.933  40.447   6.310
 5064POPC   C2B64496  24.290  40.622   6.511
 5064POPC   C3B64497  24.238  40.630   6.939
 5064POPC   C4B64498  23.947  40.462   7.263
 5065POPC   NC364499  11.293  29.369   5.333
 5065POPC   PO464500  11.564  28.747   5.500
 5065POPC   GL164501  11.608  29.174   5.714
 5065POPC   GL264502  11.274  29.349   5.842
 5065POPC   C1A64503  11.735  29.311   6.135
 5065POPC   D2A64504  11.711  29.098   6.551
 5065POPC   C3A64505  11.478  29.341   6.865
 5065POPC   C4A64506  11.483  29.329   7.305
 5065POPC   C1B64507  10.999  29.449   6.213
 5065POPC   C2B64508  10.917  29.410   6.661
 5065POPC   C3B64509  11.004  29.295   7.101
 5065POPC   C4B64510  11.187  28.876   7.208
 5066POPC   NC364511  19.470  27.662   5.184
 5066POPC   PO464512  19.965  27.181   5.419
 5066POPC   GL164513  19.702  27.396   5.741
 5066POPC   GL264514  19.595  27.744   5.868
 5066POPC   C1A64515  19.789  27.441   6.206
 5066POPC   D2A64516  20.152  27.502   6.485
 5066POPC   C3A64517  20.082  27.479   6.925
 5066POPC   C4A64518  19.762  27.451   7.236
 5066POPC   C1B64519  19.974  27.909   6.137
 5066POPC   C2B64520  19.988  28.053   6.564
 5066POPC   C3B64521  19.804  27.926   6.937
 5066POPC   C4B64522  20.090  27.966   7.235
 5067POPC   NC364523  39.871  10.846   5.524
 5067POPC   PO464524  40.103  10.224   5.510
 5067POPC   GL164525  40.064  10.468   5.866
 5067POPC   GL264526  39.712  10.576   5.917
 5067POPC   C1A64527  40.206  10.404   6.281
 5067POPC   D2A64528  40.012  10.591   6.635
 5067POPC   C3A64529  40.238  10.508   6.981
 5067POPC   C4A64530  40.326  10.099   7.145
 5067POPC   C1B64531  39.650  10.962   6.171
 5067POPC   C2B64532  39.642  11.077   6.606
 5067POPC   C3B64533  39.807  10.966   7.004
 5067POPC   C4B64534  39.779  10.604   7.245
 5068POPC   NC364535  17.623  27.067   5.354
 5068POPC   PO464536  17.852  26.481   5.483
 5068POPC   GL164537  17.639  26.746   5.817
 5068POPC   GL264538  17.467  27.052   5.845
 5068POPC   C1A64539  17.525  26.680   6.232
 5068POPC   D2A64540  17.527  26.484   6.601
 5068POPC   C3A64541  17.619  26.680   6.962
 5068POPC   C4A64542  17.340  26.792   7.231
 5068POPC   C1B64543  17.453  27.185   6.265
 5068POPC   C2B64544  17.632  27.049   6.629
 5068POPC   C3B64545  17.628  27.259   7.044
 5068POPC   C4B64546  17.396  27.257   7.436
 5069POPC   NC364547  39.205  21.068   5.437
 5069POPC   PO464548  38.961  21.618   5.578
 5069POPC   GL164549  39.162  21.343   5.872
 5069POPC   GL264550  39.524  21.310   5.815
 5069POPC   C1A64551  39.262  21.401   6.284
 5069POPC   D2A64552  39.070  21.327   6.663
 5069POPC   C3A64553  39.272  21.446   7.046
 5069POPC   C4A64554  39.054  21.744   7.227
 5069POPC   C1B64555  39.597  21.015   6.178
 5069POPC   C2B64556  39.435  20.976   6.603
 5069POPC   C3B64557  39.616  21.055   7.013
 5069POPC   C4B64558  39.785  21.226   7.407
 5070POPC   NC364559  21.681  30.194   5.093
 5070POPC   PO464560  21.275  29.630   5.328
 5070POPC   GL164561  21.351  29.917   5.719
 5070POPC   GL264562  21.628  30.188   5.726
 5070POPC   C1A64563  21.154  29.876   6.153
 5070POPC   D2A64564  21.369  29.724   6.529
 5070POPC   C3A64565  21.206  29.910   6.887
 5070POPC   C4A64566  20.918  29.843   7.221
 5070POPC   C1B64567  21.630  30.039   6.168
 5070POPC   C2B64568  21.603  30.231   6.583
 5070POPC   C3B64569  21.463  30.324   6.995
 5070POPC   C4B64570  21.494  30.005   7.342
 5071POPC   NC364571  25.153  23.303   5.435
 5071POPC   PO464572  25.615  22.972   5.326
 5071POPC   GL164573  25.385  22.987   5.747
 5071POPC   GL264574  25.070  22.834   5.672
 5071POPC   C1A64575  25.250  23.261   6.138
 5071POPC   D2A64576  24.990  23.220   6.544
 5071POPC   C3A64577  25.185  23.203   6.946
 5071POPC   C4A64578  25.205  22.989   7.332
 5071POPC   C1B64579  25.104  22.781   6.131
 5071POPC   C2B64580  25.120  22.714   6.589
 5071POPC   C3B64581  24.936  22.695   6.990
 5071POPC   C4B64582  24.966  22.480   7.383
 5072POPC   NC364583   2.970  27.811   5.536
 5072POPC   PO464584   2.863  28.464   5.383
 5072POPC   GL164585   2.719  28.371   5.804
 5072POPC   GL264586   2.721  28.027   5.916
 5072POPC   C1A64587   2.831  28.424   6.224
 5072POPC   D2A64588   3.113  28.458   6.538
 5072POPC   C3A64589   2.849  28.579   6.853
 5072POPC   C4A64590   2.967  28.318   7.158
 5072POPC   C1B64591   2.441  28.071   6.238
 5072POPC   C2B64592   2.421  28.332   6.559
 5072POPC   C3B64593   2.488  28.216   6.960
 5072POPC   C4B64594   2.519  28.515   7.268
 5073POPC   NC364595  18.817  25.188   5.239
 5073POPC   PO464596  18.075  25.181   5.335
 5073POPC   GL164597  18.189  25.338   5.765
 5073POPC   GL264598  18.380  25.657   5.821
 5073POPC   C1A64599  18.045  25.340   6.207
 5073POPC   D2A64600  18.225  25.394   6.641
 5073POPC   C3A64601  18.119  25.092   6.950
 5073POPC   C4A64602  18.080  25.114   7.382
 5073POPC   C1B64603  18.532  25.486   6.221
 5073POPC   C2B64604  18.725  25.514   6.655
 5073POPC   C3B64605  18.554  25.685   6.965
 5073POPC   C4B64606  18.286  25.576   7.258
 5074POPC   NC364607  43.322  36.275   5.036
 5074POPC   PO464608  42.937  36.212   5.634
 5074POPC   GL164609  43.232  35.992   5.884
 5074POPC   GL264610  42.948  35.863   6.053
 5074POPC   C1A64611  43.310  36.024   6.346
 5074POPC   D2A64612  43.143  36.324   6.625
 5074POPC   C3A64613  43.119  36.261   7.069
 5074POPC   C4A64614  43.200  35.843   7.197
 5074POPC   C1B64615  42.736  36.073   6.395
 5074POPC   C2B64616  42.524  35.888   6.763
 5074POPC   C3B64617  42.623  35.986   7.199
 5074POPC   C4B64618  42.881  36.116   7.521
 5075POPC   NC364619  14.846  34.532   5.342
 5075POPC   PO464620  14.236  34.895   5.424
 5075POPC   GL164621  14.354  34.715   5.818
 5075POPC   GL264622  14.585  34.426   5.788
 5075POPC   C1A64623  14.350  34.901   6.230
 5075POPC   D2A64624  14.485  34.769   6.659
 5075POPC   C3A64625  14.263  34.899   7.056
 5075POPC   C4A64626  14.529  34.947   7.432
 5075POPC   C1B64627  14.476  34.414   6.245
 5075POPC   C2B64628  14.300  34.267   6.614
 5075POPC   C3B64629  14.337  34.397   7.035
 5075POPC   C4B64630  14.125  34.105   7.291
 5076POPC   NC364631  29.595  39.601   5.689
 5076POPC   PO464632  29.668  40.287   5.425
 5076POPC   GL164633  29.786  40.266   5.829
 5076POPC   GL264634  29.973  39.956   5.797
 5076POPC   C1A64635  29.979  40.250   6.225
 5076POPC   D2A64636  29.846  39.954   6.522
 5076POPC   C3A64637  29.842  40.198   6.864
 5076POPC   C4A64638  29.797  40.335   7.278
 5076POPC   C1B64639  30.191  39.754   6.154
 5076POPC   C2B64640  30.238  39.600   6.598
 5076POPC   C3B64641  30.117  39.776   7.008
 5076POPC   C4B64642  29.708  39.821   7.195
 5077POPC   NC364643   6.015  14.729   5.481
 5077POPC   PO464644   5.664  14.183   5.501
 5077POPC   GL164645   5.864  14.396   5.846
 5077POPC   GL264646   5.917  14.088   5.978
 5077POPC   C1A64647   5.842  14.605   6.278
 5077POPC   D2A64648   5.627  14.497   6.704
 5077POPC   C3A64649   5.847  14.648   7.086
 5077POPC   C4A64650   6.184  14.432   7.253
 5077POPC   C1B64651   5.613  14.138   6.278
 5077POPC   C2B64652   5.755  13.996   6.653
 5077POPC   C3B64653   5.761  14.133   7.051
 5077POPC   C4B64654   5.444  13.970   7.358
 5078POPC   NC364655  14.650  42.930   5.497
 5078POPC   PO464656  14.195  43.440   5.531
 5078POPC   GL164657  14.331  43.163   5.865
 5078POPC   GL264658  14.298  42.787   5.874
 5078POPC   C1A64659  14.256  43.129   6.297
 5078POPC   D2A64660  14.154  43.048   6.693
 5078POPC   C3A64661  14.249  43.362   6.975
 5078POPC   C4A64662  14.205  43.150   7.316
 5078POPC   C1B64663  14.661  42.832   6.163
 5078POPC   C2B64664  14.668  42.983   6.588
 5078POPC   C3B64665  14.561  42.926   7.006
 5078POPC   C4B64666  14.780  42.908   7.391
 5079POPC   NC364667  10.357  24.627   5.483
 5079POPC   PO464668  10.616  23.965   5.593
 5079POPC   GL164669  10.666  24.383   5.808
 5079POPC   GL264670  10.343  24.289   5.922
 5079POPC   C1A64671  10.456  24.708   6.149
 5079POPC   D2A64672  10.248  24.506   6.517
 5079POPC   C3A64673  10.336  24.659   6.932
 5079POPC   C4A64674  10.507  24.600   7.336
 5079POPC   C1B64675  10.670  24.272   6.292
 5079POPC   C2B64676  10.618  24.045   6.648
 5079POPC   C3B64677  10.540  24.163   7.037
 5079POPC   C4B64678  10.845  24.227   7.326
 5080POPC   NC364679  38.604   8.043   5.132
 5080POPC   PO464680  38.183   8.485   5.416
 5080POPC   GL164681  38.480   8.374   5.802
 5080POPC   GL264682  38.618   8.013   5.737
 5080POPC   C1A64683  38.471   8.345   6.293
 5080POPC   D2A64684  38.506   8.191   6.738
 5080POPC   C3A64685  38.595   8.507   7.076
 5080POPC   C4A64686  38.373   8.450   7.515
 5080POPC   C1B64687  38.840   7.998   6.148
 5080POPC   C2B64688  38.815   7.765   6.561
 5080POPC   C3B64689  38.690   7.713   7.001
 5080POPC   C4B64690  38.557   8.035   7.279
 5081POPC   NC364691  30.103  29.702   5.364
 5081POPC   PO464692  29.780  30.224   5.550
 5081POPC   GL164693  29.801  30.037   5.910
 5081POPC   GL264694  30.108  29.903   5.862
 5081POPC   C1A64695  29.752  30.226   6.307
 5081POPC   D2A64696  29.432  30.308   6.564
 5081POPC   C3A64697  29.541  30.078   6.898
 5081POPC   C4A64698  29.820  29.883   7.171
 5081POPC   C1B64699  30.204  30.004   6.289
 5081POPC   C2B64700  30.021  29.863   6.678
 5081POPC   C3B64701  30.190  29.542   6.932
 5081POPC   C4B64702  30.357  29.616   7.342
 5082POPC   NC364703  35.679   5.370   5.361
 5082POPC   PO464704  35.075   5.179   5.463
 5082POPC   GL164705  35.409   5.134   5.761
 5082POPC   GL264706  35.758   4.983   5.689
 5082POPC   C1A64707  35.304   5.102   6.197
 5082POPC   D2A64708  35.152   4.973   6.572
 5082POPC   C3A64709  35.159   5.246   6.884
 5082POPC   C4A64710  35.198   5.133   7.268
 5082POPC   C1B64711  35.806   5.120   6.106
 5082POPC   C2B64712  35.690   4.978   6.546
 5082POPC   C3B64713  35.578   4.922   6.957
 5082POPC   C4B64714  35.596   4.665   7.351
 5083POPC   NC364715   8.142  33.980   5.407
 5083POPC   PO464716   7.869  33.359   5.501
 5083POPC   GL164717   7.992  33.663   5.814
 5083POPC   GL264718   8.362  33.640   5.880
 5083POPC   C1A64719   7.981  33.859   6.227
 5083POPC   D2A64720   7.976  34.113   6.620
 5083POPC   C3A64721   8.000  33.857   7.004
 5083POPC   C4A64722   7.890  33.409   6.981
 5083POPC   C1B64723   8.486  33.876   6.283
 5083POPC   C2B64724   8.465  33.983   6.732
 5083POPC   C3B64725   8.463  33.991   7.190
 5083POPC   C4B64726   8.578  34.084   7.646
 5084POPC   NC364727  34.247  38.562   5.524
 5084POPC   PO464728  34.865  38.436   5.320
 5084POPC   GL164729  34.732  38.373   5.767
 5084POPC   GL264730  34.435  38.132   5.877
 5084POPC   C1A64731  34.791  38.590   6.167
 5084POPC   D2A64732  34.910  38.568   6.572
 5084POPC   C3A64733  34.654  38.385   6.851
 5084POPC   C4A64734  34.667  38.474   7.267
 5084POPC   C1B64735  34.290  38.430   6.260
 5084POPC   C2B64736  34.152  38.519   6.736
 5084POPC   C3B64737  34.227  38.167   7.056
 5084POPC   C4B64738  34.620  37.960   7.217
 5085POPC   NC364739  12.571  31.088   5.414
 5085POPC   PO464740  12.768  31.776   5.443
 5085POPC   GL164741  12.862  31.428   5.709
 5085POPC   GL264742  13.197  31.279   5.631
 5085POPC   C1A64743  12.682  31.367   6.127
 5085POPC   D2A64744  12.557  31.579   6.534
 5085POPC   C3A64745  12.445  31.358   6.897
 5085POPC   C4A64746  12.604  31.267   7.274
 5085POPC   C1B64747  13.226  31.495   6.060
 5085POPC   C2B64748  13.053  31.456   6.467
 5085POPC   C3B64749  12.966  31.247   6.830
 5085POPC   C4B64750  13.234  31.269   7.158
 5086POPC   NC364751  29.694  34.809   5.690
 5086POPC   PO464752  29.211  34.735   5.191
 5086POPC   GL164753  29.171  34.732   5.698
 5086POPC   GL264754  28.930  34.886   5.946
 5086POPC   C1A64755  29.268  34.587   6.184
 5086POPC   D2A64756  29.212  34.432   6.646
 5086POPC   C3A64757  29.457  34.450   7.062
 5086POPC   C4A64758  29.281  34.565   7.506
 5086POPC   C1B64759  28.805  34.876   6.380
 5086POPC   C2B64760  28.917  34.822   6.811
 5086POPC   C3B64761  28.944  34.525   7.132
 5086POPC   C4B64762  28.755  34.611   7.559
 5087POPC   NC364763   4.089   5.194   5.454
 5087POPC   PO464764   4.789   5.219   5.497
 5087POPC   GL164765   4.560   4.998   5.848
 5087POPC   GL264766   4.199   4.859   5.820
 5087POPC   C1A64767   4.460   4.898   6.282
 5087POPC   D2A64768   4.318   5.215   6.580
 5087POPC   C3A64769   4.415   5.180   7.011
 5087POPC   C4A64770   4.552   4.800   7.228
 5087POPC   C1B64771   3.997   5.038   6.173
 5087POPC   C2B64772   3.948   4.819   6.557
 5087POPC   C3B64773   4.167   4.749   6.881
 5087POPC   C4B64774   4.045   4.915   7.259
 5088POPC   NC364775  38.919  40.303   5.446
 5088POPC   PO464776  39.346  40.874   5.365
 5088POPC   GL164777  39.193  40.955   5.809
 5088POPC   GL264778  38.827  41.110   5.814
 5088POPC   C1A64779  39.383  41.051   6.235
 5088POPC   D2A64780  39.257  41.034   6.679
 5088POPC   C3A64781  39.206  40.677   6.971
 5088POPC   C4A64782  39.509  40.424   7.166
 5088POPC   C1B64783  38.881  40.956   6.223
 5088POPC   C2B64784  38.855  40.720   6.562
 5088POPC   C3B64785  38.729  40.887   6.911
 5088POPC   C4B64786  38.878  40.896   7.326
 5089POPC   NC364787  36.713  42.448   5.280
 5089POPC   PO464788  37.060  41.985   5.405
 5089POPC   GL164789  36.914  42.247   5.775
 5089POPC   GL264790  36.859  42.613   5.797
 5089POPC   C1A64791  37.019  42.261   6.242
 5089POPC   D2A64792  36.844  42.253   6.663
 5089POPC   C3A64793  37.047  42.223   7.096
 5089POPC   C4A64794  37.054  42.092   7.552
 5089POPC   C1B64795  36.713  42.832   6.220
 5089POPC   C2B64796  36.822  42.799   6.680
 5089POPC   C3B64797  36.751  42.825   7.145
 5089POPC   C4B64798  36.919  42.603   7.480
 5090POPC   NC364799  12.329  10.710   5.487
 5090POPC   PO464800  11.725  10.454   5.532
 5090POPC   GL164801  12.057  10.517   5.879
 5090POPC   GL264802  12.311  10.253   5.874
 5090POPC   C1A64803  12.060  10.737   6.295
 5090POPC   D2A64804  11.821  10.660   6.682
 5090POPC   C3A64805  12.035  10.675   7.083
 5090POPC   C4A64806  11.953  10.328   7.332
 5090POPC   C1B64807  12.444  10.355   6.267
 5090POPC   C2B64808  12.358  10.508   6.683
 5090POPC   C3B64809  12.400  10.312   7.083
 5090POPC   C4B64810  12.460  10.502   7.475
 5091POPC   NC364811  25.568  11.594   5.693
 5091POPC   PO464812  25.021  11.205   5.469
 5091POPC   GL164813  25.216  11.252   5.860
 5091POPC   GL264814  25.091  11.588   5.928
 5091POPC   C1A64815  25.299  11.019   6.253
 5091POPC   D2A64816  25.099  11.116   6.681
 5091POPC   C3A64817  25.286  11.158   7.079
 5091POPC   C4A64818  25.176  11.472   7.389
 5091POPC   C1B64819  25.327  11.525   6.322
 5091POPC   C2B64820  25.396  11.529   6.765
 5091POPC   C3B64821  25.654  11.495   7.201
 5091POPC   C4B64822  25.591  11.449   7.689
 5092POPC   NC364823   5.966  16.841   5.493
 5092POPC   PO464824   5.547  17.329   5.569
 5092POPC   GL164825   5.673  17.078   5.897
 5092POPC   GL264826   5.625  16.755   5.893
 5092POPC   C1A64827   5.875  16.991   6.298
 5092POPC   D2A64828   6.120  16.981   6.685
 5092POPC   C3A64829   5.981  16.849   7.099
 5092POPC   C4A64830   6.169  16.489   7.286
 5092POPC   C1B64831   5.603  16.550   6.297
 5092POPC   C2B64832   5.639  16.640   6.753
 5092POPC   C3B64833   5.572  16.516   7.214
 5092POPC   C4B64834   5.353  16.462   7.670
 5093POPC   NC364835  37.399   3.975   5.520
 5093POPC   PO464836  37.837   3.539   5.259
 5093POPC   GL164837  37.626   3.451   5.729
 5093POPC   GL264838  37.425   3.685   5.917
 5093POPC   C1A64839  37.489   3.285   6.194
 5093POPC   D2A64840  37.655   3.219   6.600
 5093POPC   C3A64841  37.477   3.292   7.014
 5093POPC   C4A64842  37.510   3.080   7.412
 5093POPC   C1B64843  37.678   3.760   6.278
 5093POPC   C2B64844  37.554   3.735   6.711
 5093POPC   C3B64845  37.369   3.770   7.113
 5093POPC   C4B64846  37.505   3.577   7.507
 5094POPC   NC364847  31.654  40.514   5.380
 5094POPC   PO464848  31.327  41.025   5.621
 5094POPC   GL164849  31.549  40.806   5.942
 5094POPC   GL264850  31.783  41.002   6.101
 5094POPC   C1A64851  31.447  40.674   6.383
 5094POPC   D2A64852  31.142  40.577   6.725
 5094POPC   C3A64853  31.317  40.836   7.030
 5094POPC   C4A64854  31.293  41.103   7.376
 5094POPC   C1B64855  31.941  40.560   6.187
 5094POPC   C2B64856  31.943  40.394   6.631
 5094POPC   C3B64857  31.816  40.725   6.912
 5094POPC   C4B64858  31.736  40.853   7.318
 5095POPC   NC364859  19.444  15.415   5.496
 5095POPC   PO464860  20.028  15.321   5.158
 5095POPC   GL164861  20.012  15.279   5.644
 5095POPC   GL264862  20.242  15.443   5.877
 5095POPC   C1A64863  19.984  15.061   6.092
 5095POPC   D2A64864  19.814  15.037   6.538
 5095POPC   C3A64865  19.629  14.915   6.952
 5095POPC   C4A64866  19.585  15.157   7.309
 5095POPC   C1B64867  20.190  15.497   6.308
 5095POPC   C2B64868  20.239  15.276   6.681
 5095POPC   C3B64869  20.017  15.237   7.057
 5095POPC   C4B64870  20.038  14.930   7.416
 5096POPC   NC364871  13.402   6.444   5.447
 5096POPC   PO464872  13.867   6.912   5.274
 5096POPC   GL164873  13.808   6.696   5.737
 5096POPC   GL264874  13.511   6.583   5.899
 5096POPC   C1A64875  13.794   6.800   6.239
 5096POPC   D2A64876  13.952   6.743   6.697
 5096POPC   C3A64877  13.722   6.864   7.091
 5096POPC   C4A64878  13.690   7.019   7.558
 5096POPC   C1B64879  13.250   6.662   6.209
 5096POPC   C2B64880  13.232   6.445   6.563
 5096POPC   C3B64881  13.494   6.433   6.903
 5096POPC   C4B64882  13.539   6.473   7.352
 5097POPC   NC364883  43.527  19.688   5.399
 5097POPC   PO464884  43.074  20.166   5.435
 5097POPC   GL164885  43.153  19.864   5.739
 5097POPC   GL264886  43.485  19.942   5.824
 5097POPC   C1A64887  42.916  19.616   6.046
 5097POPC   D2A64888  42.783  19.635   6.490
 5097POPC   C3A64889  43.027  19.818   6.831
 5097POPC   C4A64890  42.968  19.755   7.278
 5097POPC   C1B64891  43.398  19.619   6.182
 5097POPC   C2B64892  43.611  19.522   6.561
 5097POPC   C3B64893  43.466  19.597   6.976
 5097POPC   C4B64894  43.437  19.943   7.289
 5098POPC   NC364895  19.326  23.751   5.360
 5098POPC   PO464896  18.881  23.342   5.724
 5098POPC   GL164897  19.225  23.572   5.847
 5098POPC   GL264898  19.194  23.940   5.838
 5098POPC   C1A64899  19.302  23.465   6.254
 5098POPC   D2A64900  19.374  23.676   6.629
 5098POPC   C3A64901  19.356  23.474   7.019
 5098POPC   C4A64902  19.340  23.755   7.335
 5098POPC   C1B64903  19.100  23.932   6.267
 5098POPC   C2B64904  18.775  23.944   6.594
 5098POPC   C3B64905  18.920  23.772   6.964
 5098POPC   C4B64906  18.858  23.892   7.379
 5099POPC   NC364907  23.982   8.087   5.071
 5099POPC   PO464908  23.521   8.506   5.258
 5099POPC   GL164909  23.777   8.350   5.659
 5099POPC   GL264910  23.515   8.209   5.898
 5099POPC   C1A64911  23.959   8.437   6.104
 5099POPC   D2A64912  23.823   8.349   6.551
 5099POPC   C3A64913  24.008   8.306   6.981
 5099POPC   C4A64914  24.031   8.546   7.367
 5099POPC   C1B64915  23.591   7.969   6.274
 5099POPC   C2B64916  23.495   8.006   6.710
 5099POPC   C3B64917  23.508   8.221   7.105
 5099POPC   C4B64918  23.482   7.847   7.238
 5100POPC   NC364919  28.603  12.181   5.405
 5100POPC   PO464920  28.004  11.733   5.524
 5100POPC   GL164921  28.325  11.938   5.756
 5100POPC   GL264922  28.646  11.754   5.716
 5100POPC   C1A64923  28.395  12.224   6.116
 5100POPC   D2A64924  28.262  12.248   6.574
 5100POPC   C3A64925  28.549  12.347   6.939
 5100POPC   C4A64926  28.396  12.324   7.379
 5100POPC   C1B64927  28.568  11.721   6.145
 5100POPC   C2B64928  28.691  11.974   6.483
 5100POPC   C3B64929  28.577  11.833   6.862
 5100POPC   C4B64930  28.682  11.903   7.269
 5101POPC   NC364931  20.937   7.520   5.481
 5101POPC   PO464932  20.534   6.980   5.565
 5101POPC   GL164933  20.447   7.181   5.952
 5101POPC   GL264934  20.658   7.482   5.945
 5101POPC   C1A64935  20.662   7.097   6.333
 5101POPC   D2A64936  20.927   7.170   6.686
 5101POPC   C3A64937  20.692   7.210   7.069
 5101POPC   C4A64938  20.508   7.179   7.495
 5101POPC   C1B64939  20.871   7.588   6.354
 5101POPC   C2B64940  20.742   7.657   6.788
 5101POPC   C3B64941  20.619   7.692   7.233
 5101POPC   C4B64942  20.645   7.664   7.695
 5102POPC   NC364943  42.495  41.779   5.406
 5102POPC   PO464944  42.158  42.393   5.532
 5102POPC   GL164945  42.270  42.288   5.936
 5102POPC   GL264946  42.469  42.004   5.872
 5102POPC   C1A64947  42.218  42.206   6.376
 5102POPC   D2A64948  42.097  41.997   6.759
 5102POPC   C3A64949  41.994  42.384   6.926
 5102POPC   C4A64950  42.086  42.556   7.306
 5102POPC   C1B64951  42.715  42.192   6.190
 5102POPC   C2B64952  42.740  42.313   6.627
 5102POPC   C3B64953  42.577  42.109   7.009
 5102POPC   C4B64954  42.363  42.126   7.417
 5103POPC   NC364955   9.197  38.893   5.509
 5103POPC   PO464956   8.929  38.266   5.189
 5103POPC   GL164957   8.979  38.287   5.670
 5103POPC   GL264958   8.729  38.022   5.762
 5103POPC   C1A64959   9.185  38.534   6.052
 5103POPC   D2A64960   9.078  38.775   6.437
 5103POPC   C3A64961   9.042  38.507   6.803
 5103POPC   C4A64962   8.922  38.460   7.231
 5103POPC   C1B64963   8.601  37.946   6.164
 5103POPC   C2B64964   8.787  38.106   6.510
 5103POPC   C3B64965   8.693  38.132   6.898
 5103POPC   C4B64966   8.783  37.968   7.254
 5104POPC   NC364967   0.637  23.235   5.376
 5104POPC   PO464968   0.389  22.652   5.386
 5104POPC   GL164969   0.445  22.844   5.750
 5104POPC   GL264970   0.783  22.995   5.830
 5104POPC   C1A64971   0.323  22.819   6.161
 5104POPC   D2A64972   0.630  22.918   6.448
 5104POPC   C3A64973   0.429  22.730   6.765
 5104POPC   C4A64974   0.391  22.751   7.174
 5104POPC   C1B64975   0.508  23.290   6.071
 5104POPC   C2B64976   0.266  23.272   6.468
 5104POPC   C3B64977   0.344  23.214   6.930
 5104POPC   C4B64978   0.643  23.283   7.274
 5105POPC   NC364979  25.070  43.711   5.447
 5105POPC   PO464980  24.328  43.793   5.418
 5105POPC   GL164981  24.364  43.881   5.841
 5105POPC   GL264982  24.700  43.688   5.819
 5105POPC   C1A64983  24.223  44.135   6.240
 5105POPC   D2A64984  24.248  44.274   6.695
 5105POPC   C3A64985  24.174  43.920   6.980
 5105POPC   C4A64986  24.291  43.481   7.081
 5105POPC   C1B64987  24.615  43.728   6.248
 5105POPC   C2B64988  24.504  43.674   6.649
 5105POPC   C3B64989  24.698  43.915   6.968
 5105POPC   C4B64990  24.637  44.097   7.357
 5106POPC   NC364991  30.973  30.186   5.461
 5106POPC   PO464992  30.861  29.459   5.452
 5106POPC   GL164993  30.570  29.743   5.704
 5106POPC   GL264994  30.609  30.081   5.807
 5106POPC   C1A64995  30.659  29.765   6.184
 5106POPC   D2A64996  30.755  29.580   6.584
 5106POPC   C3A64997  30.628  29.871   6.866
 5106POPC   C4A64998  30.759  29.956   7.263
 5106POPC   C1B64999  30.619  30.296   6.198
 5106POPC   C2B65000  30.757  30.308   6.611
 5106POPC   C3B65001  30.602  30.381   7.023
 5106POPC   C4B65002  30.285  30.096   7.174
 5107POPC   NC365003  14.758   3.712   5.513
 5107POPC   PO465004  14.116   3.605   5.438
 5107POPC   GL165005  14.368   3.565   5.833
 5107POPC   GL265006  14.607   3.303   5.847
 5107POPC   C1A65007  14.299   3.390   6.272
 5107POPC   D2A65008  14.202   3.544   6.684
 5107POPC   C3A65009  14.216   3.347   7.081
 5107POPC   C4A65010  14.252   3.693   7.371
 5107POPC   C1B65011  14.778   3.545   6.214
 5107POPC   C2B65012  14.735   3.417   6.675
 5107POPC   C3B65013  14.678   3.562   7.132
 5107POPC   C4B65014  14.700   3.605   7.649
 5108POPC   NC365015  33.659  29.587   5.534
 5108POPC   PO465016  34.012  30.192   5.452
 5108POPC   GL165017  33.853  29.978   5.857
 5108POPC   GL265018  33.878  29.631   5.991
 5108POPC   C1A65019  33.886  30.017   6.319
 5108POPC   D2A65020  33.998  29.900   6.729
 5108POPC   C3A65021  33.718  30.023   7.065
 5108POPC   C4A65022  33.737  29.881   7.493
 5108POPC   C1B65023  33.549  29.595   6.307
 5108POPC   C2B65024  33.508  29.656   6.761
 5108POPC   C3B65025  33.456  29.562   7.201
 5108POPC   C4B65026  33.518  29.426   7.646
 5109POPC   NC365027  14.473  14.078   5.500
 5109POPC   PO465028  14.691  14.724   5.540
 5109POPC   GL165029  14.441  14.480   5.864
 5109POPC   GL265030  14.449  14.122   5.993
 5109POPC   C1A65031  14.306  14.619   6.260
 5109POPC   D2A65032  14.392  14.830   6.647
 5109POPC   C3A65033  14.422  14.580   7.017
 5109POPC   C4A65034  14.469  14.433   7.486
 5109POPC   C1B65035  14.137  14.120   6.296
 5109POPC   C2B65036  14.053  14.296   6.723
 5109POPC   C3B65037  14.177  14.167   7.145
 5109POPC   C4B65038  14.342  13.907   7.495
 5110POPC   NC365039  19.991  24.102   5.509
 5110POPC   PO465040  19.786  23.457   5.315
 5110POPC   GL165041  19.732  23.697   5.710
 5110POPC   GL265042  20.062  23.725   5.908
 5110POPC   C1A65043  19.631  23.832   6.147
 5110POPC   D2A65044  19.896  23.685   6.499
 5110POPC   C3A65045  19.779  23.768   6.932
 5110POPC   C4A65046  19.864  23.622   7.328
 5110POPC   C1B65047  20.283  24.006   6.187
 5110POPC   C2B65048  20.201  24.189   6.621
 5110POPC   C3B65049  20.169  24.088   7.065
 5110POPC   C4B65050  20.127  24.005   7.545
 5111POPC   NC365051   7.097   7.917   5.104
 5111POPC   PO465052   7.369   7.319   5.360
 5111POPC   GL165053   7.475   7.307   5.821
 5111POPC   GL265054   7.184   7.162   5.876
 5111POPC   C1A65055   7.557   7.525   6.240
 5111POPC   D2A65056   7.298   7.642   6.595
 5111POPC   C3A65057   7.507   7.557   6.965
 5111POPC   C4A65058   7.740   7.618   7.285
 5111POPC   C1B65059   7.128   7.234   6.294
 5111POPC   C2B65060   6.814   7.304   6.623
 5111POPC   C3B65061   7.034   7.351   7.000
 5111POPC   C4B65062   7.386   7.070   7.087
 5112POPC   NC365063  25.082  14.064   5.531
 5112POPC   PO465064  25.390  13.551   5.124
 5112POPC   GL165065  25.250  13.527   5.594
 5112POPC   GL265066  25.417  13.750   5.836
 5112POPC   C1A65067  25.145  13.353   6.024
 5112POPC   D2A65068  25.307  13.406   6.466
 5112POPC   C3A65069  25.063  13.528   6.840
 5112POPC   C4A65070  25.102  13.391   7.286
 5112POPC   C1B65071  25.124  13.841   6.194
 5112POPC   C2B65072  25.157  14.022   6.601
 5112POPC   C3B65073  25.314  13.984   7.024
 5112POPC   C4B65074  25.083  13.904   7.419
 5113POPC   NC365075  12.762  12.290   5.451
 5113POPC   PO465076  13.214  11.866   5.532
 5113POPC   GL165077  12.915  12.018   5.847
 5113POPC   GL265078  12.595  11.911   5.872
 5113POPC   C1A65079  12.831  12.253   6.215
 5113POPC   D2A65080  13.000  12.351   6.626
 5113POPC   C3A65081  12.798  12.126   6.980
 5113POPC   C4A65082  12.536  12.363   7.258
 5113POPC   C1B65083  12.480  11.848   6.274
 5113POPC   C2B65084  12.690  11.730   6.639
 5113POPC   C3B65085  12.480  11.637   7.001
 5113POPC   C4B65086  12.465  11.866   7.345
 5114POPC   NC365087  30.476  25.404   5.719
 5114POPC   PO465088  30.993  25.044   5.456
 5114POPC   GL165089  30.962  25.103   5.914
 5114POPC   GL265090  30.881  25.435   6.049
 5114POPC   C1A65091  30.744  25.057   6.336
 5114POPC   D2A65092  30.796  25.302   6.706
 5114POPC   C3A65093  30.791  25.062   7.057
 5114POPC   C4A65094  30.382  24.902   7.182
 5114POPC   C1B65095  30.546  25.570   6.334
 5114POPC   C2B65096  30.281  25.349   6.619
 5114POPC   C3B65097  30.399  25.396   7.019
 5114POPC   C4B65098  30.315  25.606   7.323
 5115POPC   NC365099   8.068  10.687   5.303
 5115POPC   PO465100   7.906  10.137   5.568
 5115POPC   GL165101   8.096  10.428   5.888
 5115POPC   GL265102   8.361  10.190   6.028
 5115POPC   C1A65103   8.274  10.635   6.255
 5115POPC   D2A65104   8.352  10.470   6.676
 5115POPC   C3A65105   8.018  10.606   6.946
 5115POPC   C4A65106   8.027  10.734   7.357
 5115POPC   C1B65107   8.046  10.153   6.363
 5115POPC   C2B65108   7.938  10.126   6.809
 5115POPC   C3B65109   8.139  10.216   7.243
 5115POPC   C4B65110   8.003  10.296   7.664
 5116POPC   NC365111   0.642  14.218   5.644
 5116POPC   PO465112   0.306  14.788   5.558
 5116POPC   GL165113   0.380  14.547   5.931
 5116POPC   GL265114   0.191  14.224   5.940
 5116POPC   C1A65115   0.587  14.412   6.311
 5116POPC   D2A65116   0.407  14.316   6.725
 5116POPC   C3A65117   0.633  14.321   7.132
 5116POPC   C4A65118   0.517  14.085   7.498
 5116POPC   C1B65119   0.021  14.076   6.354
 5116POPC   C2B65120  44.926  14.072   6.805
 5116POPC   C3B65121   0.124  14.256   7.149
 5116POPC   C4B65122   0.198  14.709   7.163
 5117POPC   NC365123  30.216  23.997   5.347
 5117POPC   PO465124  29.730  23.594   5.469
 5117POPC   GL165125  29.731  23.694   5.913
 5117POPC   GL265126  29.421  23.497   5.954
 5117POPC   C1A65127  30.021  23.831   6.272
 5117POPC   D2A65128  30.323  23.811   6.633
 5117POPC   C3A65129  30.253  23.867   7.087
 5117POPC   C4A65130  30.040  23.473   7.182
 5117POPC   C1B65131  29.350  23.857   6.220
 5117POPC   C2B65132  29.602  23.951   6.553
 5117POPC   C3B65133  29.757  23.861   6.939
 5117POPC   C4B65134  29.533  23.663   7.237
 5118POPC   NC365135  44.177   4.645   5.396
 5118POPC   PO465136  43.795   4.095   5.511
 5118POPC   GL165137  43.811   4.393   5.850
 5118POPC   GL265138  44.184   4.359   5.841
 5118POPC   C1A65139  43.550   4.447   6.281
 5118POPC   D2A65140  43.542   4.195   6.694
 5118POPC   C3A65141  43.509   4.264   7.171
 5118POPC   C4A65142  43.584   4.496   7.572
 5118POPC   C1B65143  44.063   4.463   6.267
 5118POPC   C2B65144  43.938   4.538   6.647
 5118POPC   C3B65145  43.959   4.415   6.996
 5118POPC   C4B65146  44.081   4.326   7.340
 5119POPC   NC365147   9.131   1.332   5.311
 5119POPC   PO465148   8.524   1.326   5.552
 5119POPC   GL165149   8.908   1.175   5.751
 5119POPC   GL265150   9.228   1.387   5.802
 5119POPC   C1A65151   8.943   1.047   6.173
 5119POPC   D2A65152   8.892   1.179   6.592
 5119POPC   C3A65153   9.031   1.006   6.956
 5119POPC   C4A65154   8.971   1.124   7.365
 5119POPC   C1B65155   9.286   1.423   6.237
 5119POPC   C2B65156   9.177   1.615   6.609
 5119POPC   C3B65157   9.333   1.450   6.968
 5119POPC   C4B65158   9.449   1.323   7.388
 5120POPC   NC365159  37.602  31.774   5.524
 5120POPC   PO465160  37.697  32.342   5.164
 5120POPC   GL165161  37.742  32.271   5.648
 5120POPC   GL265162  37.400  32.185   5.779
 5120POPC   C1A65163  37.803  32.191   6.123
 5120POPC   D2A65164  37.607  32.299   6.541
 5120POPC   C3A65165  37.763  32.131   6.941
 5120POPC   C4A65166  37.676  32.135   7.385
 5120POPC   C1B65167  37.283  32.066   6.215
 5120POPC   C2B65168  37.169  32.021   6.673
 5120POPC   C3B65169  37.249  32.199   7.106
 5120POPC   C4B65170  37.214  32.184   7.583
 5121POPC   NC365171  37.278  19.771   5.359
 5121POPC   PO465172  36.716  20.045   5.592
 5121POPC   GL165173  37.054  19.891   5.842
 5121POPC   GL265174  36.866  19.583   5.876
 5121POPC   C1A65175  37.207  19.943   6.285
 5121POPC   D2A65176  37.130  19.792   6.723
 5121POPC   C3A65177  36.697  19.853   6.899
 5121POPC   C4A65178  36.660  19.855   7.346
 5121POPC   C1B65179  36.990  19.470   6.306
 5121POPC   C2B65180  36.835  19.351   6.729
 5121POPC   C3B65181  36.960  19.488   7.146
 5121POPC   C4B65182  36.875  19.402   7.604
 5122POPC   NC365183   6.871  17.764   5.739
 5122POPC   PO465184   6.394  17.376   5.432
 5122POPC   GL165185   6.464  17.494   5.873
 5122POPC   GL265186   6.729  17.256   5.855
 5122POPC   C1A65187   6.662  17.544   6.321
 5122POPC   D2A65188   6.782  17.529   6.777
 5122POPC   C3A65189   6.493  17.624   7.112
 5122POPC   C4A65190   6.357  17.580   7.533
 5122POPC   C1B65191   6.929  17.023   6.180
 5122POPC   C2B65192   7.117  16.908   6.552
 5122POPC   C3B65193   7.073  17.141   6.919
 5122POPC   C4B65194   6.911  17.390   7.276
 5123POPC   NC365195  19.824  18.475   5.444
 5123POPC   PO465196  20.072  17.818   5.539
 5123POPC   GL165197  20.000  18.196   5.860
 5123POPC   GL265198  20.127  18.537   5.861
 5123POPC   C1A65199  19.829  18.176   6.291
 5123POPC   D2A65200  19.688  17.935   6.624
 5123POPC   C3A65201  19.812  18.051   7.040
 5123POPC   C4A65202  19.725  17.941   7.447
 5123POPC   C1B65203  19.663  18.592   6.090
 5123POPC   C2B65204  19.407  18.458   6.478
 5123POPC   C3B65205  19.473  18.415   6.921
 5123POPC   C4B65206  19.885  18.556   7.103
 5124POPC   NC365207  42.589   4.936   5.456
 5124POPC   PO465208  42.134   5.355   5.439
 5124POPC   GL165209  42.219   5.098   5.825
 5124POPC   GL265210  42.344   4.777   5.883
 5124POPC   C1A65211  41.996   4.983   6.218
 5124POPC   D2A65212  42.068   4.728   6.625
 5124POPC   C3A65213  42.185   4.952   7.034
 5124POPC   C4A65214  42.397   5.394   7.089
 5124POPC   C1B65215  42.470   4.811   6.294
 5124POPC   C2B65216  42.426   5.118   6.622
 5124POPC   C3B65217  42.693   5.012   6.941
 5124POPC   C4B65218  42.621   4.799   7.305
 5125POPC   NC365219  40.342  33.481   5.597
 5125POPC   PO465220  40.712  33.942   5.215
 5125POPC   GL165221  40.943  33.914   5.674
 5125POPC   GL265222  40.836  33.546   5.761
 5125POPC   C1A65223  40.896  33.854   6.173
 5125POPC   D2A65224  41.013  33.910   6.633
 5125POPC   C3A65225  40.680  33.953   6.965
 5125POPC   C4A65226  40.798  33.926   7.398
 5125POPC   C1B65227  41.118  33.390   6.074
 5125POPC   C2B65228  41.136  33.361   6.520
 5125POPC   C3B65229  40.924  33.484   6.917
 5125POPC   C4B65230  41.045  33.496   7.349
 5126POPC   NC365231   6.931  16.777   5.590
 5126POPC   PO465232   7.507  16.954   5.297
 5126POPC   GL165233   7.432  16.919   5.754
 5126POPC   GL265234   7.752  16.935   5.901
 5126POPC   C1A65235   7.321  16.653   6.142
 5126POPC   D2A65236   7.404  16.459   6.561
 5126POPC   C3A65237   7.353  16.683   6.948
 5126POPC   C4A65238   7.492  16.560   7.350
 5126POPC   C1B65239   7.545  17.089   6.280
 5126POPC   C2B65240   7.545  17.172   6.721
 5126POPC   C3B65241   7.751  16.984   7.070
 5126POPC   C4B65242   7.698  17.007   7.489
 5127POPC   NC365243   9.941  44.288   5.503
 5127POPC   PO465244   9.786  43.572   5.302
 5127POPC   GL165245   9.786  43.631   5.757
 5127POPC   GL265246   9.687  43.995   5.845
 5127POPC   C1A65247   9.860  43.671   6.201
 5127POPC   D2A65248   9.600  43.752   6.560
 5127POPC   C3A65249   9.856  43.670   6.926
 5127POPC   C4A65250  10.102  43.842   7.287
 5127POPC   C1B65251   9.835  44.197   6.252
 5127POPC   C2B65252   9.732  44.228   6.712
 5127POPC   C3B65253   9.510  44.002   7.068
 5127POPC   C4B65254   9.656  43.995   7.528
 5128POPC   NC365255  43.712  40.465   5.603
 5128POPC   PO465256  43.216  40.831   5.197
 5128POPC   GL165257  43.148  40.839   5.706
 5128POPC   GL265258  43.451  40.809   5.895
 5128POPC   C1A65259  43.034  40.594   6.136
 5128POPC   D2A65260  42.811  40.428   6.541
 5128POPC   C3A65261  42.987  40.560   6.930
 5128POPC   C4A65262  43.242  40.536   7.306
 5128POPC   C1B65263  43.507  40.679   6.328
 5128POPC   C2B65264  43.373  40.844   6.738
 5128POPC   C3B65265  43.588  40.858   7.146
 5128POPC   C4B65266  43.511  40.814   7.647
 5129POPC   NC365267  12.343  40.559   5.625
 5129POPC   PO465268  11.636  40.638   5.512
 5129POPC   GL165269  11.728  40.907   5.860
 5129POPC   GL265270  12.072  40.902   5.885
 5129POPC   C1A65271  11.702  40.810   6.313
 5129POPC   D2A65272  11.960  40.808   6.660
 5129POPC   C3A65273  11.849  41.008   7.009
 5129POPC   C4A65274  12.069  40.802   7.286
 5129POPC   C1B65275  12.168  40.607   6.238
 5129POPC   C2B65276  12.380  40.510   6.592
 5129POPC   C3B65277  12.455  40.731   6.933
 5129POPC   C4B65278  12.537  40.540   7.338
 5130POPC   NC365279  38.508  39.475   5.524
 5130POPC   PO465280  38.709  38.835   5.434
 5130POPC   GL165281  38.549  39.030   5.831
 5130POPC   GL265282  38.192  39.102   5.784
 5130POPC   C1A65283  38.460  39.320   6.192
 5130POPC   D2A65284  38.627  39.293   6.613
 5130POPC   C3A65285  38.394  39.422   6.979
 5130POPC   C4A65286  38.580  39.145   7.277
 5130POPC   C1B65287  38.144  38.908   6.189
 5130POPC   C2B65288  38.111  39.015   6.633
 5130POPC   C3B65289  38.153  38.983   7.075
 5130POPC   C4B65290  38.146  39.191   7.509
 5131POPC   NC365291  40.313  21.349   5.470
 5131POPC   PO465292  39.810  21.711   5.482
 5131POPC   GL165293  40.016  21.525   5.854
 5131POPC   GL265294  40.020  21.150   5.832
 5131POPC   C1A65295  39.805  21.491   6.255
 5131POPC   D2A65296  39.603  21.456   6.655
 5131POPC   C3A65297  39.847  21.535   6.996
 5131POPC   C4A65298  39.815  21.741   7.368
 5131POPC   C1B65299  40.165  21.129   6.243
 5131POPC   C2B65300  39.980  21.053   6.636
 5131POPC   C3B65301  40.142  21.106   7.042
 5131POPC   C4B65302  40.291  21.414   7.279
 5132POPC   NC365303  43.252  30.831   5.435
 5132POPC   PO465304  43.103  30.142   5.358
 5132POPC   GL165305  43.140  30.430   5.747
 5132POPC   GL265306  42.883  30.683   5.778
 5132POPC   C1A65307  43.243  30.467   6.188
 5132POPC   D2A65308  43.107  30.273   6.567
 5132POPC   C3A65309  43.256  30.396   6.985
 5132POPC   C4A65310  43.276  30.747   7.166
 5132POPC   C1B65311  42.864  30.815   6.226
 5132POPC   C2B65312  42.983  30.749   6.676
 5132POPC   C3B65313  42.768  30.824   7.052
 5132POPC   C4B65314  42.572  31.207   7.030
 5133POPC   NC365315  28.056  22.218   5.386
 5133POPC   PO465316  28.685  22.451   5.376
 5133POPC   GL165317  28.438  22.333   5.730
 5133POPC   GL265318  28.286  22.635   5.843
 5133POPC   C1A65319  28.265  22.067   6.062
 5133POPC   D2A65320  28.104  21.970   6.457
 5133POPC   C3A65321  28.214  21.959   6.875
 5133POPC   C4A65322  28.236  22.106   7.271
 5133POPC   C1B65323  28.312  22.550   6.271
 5133POPC   C2B65324  28.377  22.435   6.697
 5133POPC   C3B65325  28.394  22.549   7.130
 5133POPC   C4B65326  28.149  22.525   7.550
 5134POPC   NC365327   0.021  20.702   5.341
 5134POPC   PO465328  44.387  20.505   5.288
 5134POPC   GL165329  44.648  20.273   5.647
 5134POPC   GL265330   0.026  20.223   5.607
 5134POPC   C1A65331  44.630  20.247   6.138
 5134POPC   D2A65332  44.494  20.548   6.498
 5134POPC   C3A65333  44.545  20.418   6.936
 5134POPC   C4A65334  44.614  20.693   7.286
 5134POPC   C1B65335   0.077  20.473   6.010
 5134POPC   C2B65336   0.019  20.499   6.459
 5134POPC   C3B65337  44.978  20.687   6.867
 5134POPC   C4B65338   0.047  20.393   7.179
 5135POPC   NC365339  34.958  36.844   5.421
 5135POPC   PO465340  35.614  37.036   5.446
 5135POPC   GL165341  35.636  36.872   5.862
 5135POPC   GL265342  35.274  36.893   5.912
 5135POPC   C1A65343  35.568  36.829   6.320
 5135POPC   D2A65344  35.341  36.894   6.705
 5135POPC   C3A65345  35.642  36.808   6.987
 5135POPC   C4A65346  35.609  36.532   7.292
 5135POPC   C1B65347  35.235  37.231   6.297
 5135POPC   C2B65348  35.012  37.291   6.678
 5135POPC   C3B65349  34.934  37.051   6.999
 5135POPC   C4B65350  35.225  36.903   7.261
 5136POPC   NC365351  34.480  31.029   5.418
 5136POPC   PO465352  34.779  31.700   5.472
 5136POPC   GL165353  34.596  31.457   5.830
 5136POPC   GL265354  34.289  31.636   5.886
 5136POPC   C1A65355  34.793  31.336   6.263
 5136POPC   D2A65356  34.929  31.251   6.709
 5136POPC   C3A65357  34.636  31.438   6.985
 5136POPC   C4A65358  34.621  31.784   7.270
 5136POPC   C1B65359  34.046  31.728   6.281
 5136POPC   C2B65360  34.206  31.685   6.730
 5136POPC   C3B65361  34.162  31.977   7.122
 5136POPC   C4B65362  34.243  31.890   7.600
 5137POPC   NC365363   2.925  41.478   5.366
 5137POPC   PO465364   2.387  41.916   5.526
 5137POPC   GL165365   2.519  41.791   5.938
 5137POPC   GL265366   2.723  41.552   5.807
 5137POPC   C1A65367   2.845  41.764   6.261
 5137POPC   D2A65368   2.688  41.681   6.650
 5137POPC   C3A65369   2.859  41.750   7.051
 5137POPC   C4A65370   2.510  41.786   7.290
 5137POPC   C1B65371   2.817  41.275   6.073
 5137POPC   C2B65372   2.783  41.192   6.473
 5137POPC   C3B65373   2.900  41.269   6.855
 5137POPC   C4B65374   2.736  41.306   7.279
 5138POPC   NC365375  12.491   6.035   5.414
 5138POPC   PO465376  13.138   6.074   5.317
 5138POPC   GL165377  12.995   5.822   5.715
 5138POPC   GL265378  12.648   5.875   5.877
 5138POPC   C1A65379  13.070   5.715   6.167
 5138POPC   D2A65380  13.024   5.959   6.566
 5138POPC   C3A65381  13.119   5.889   6.983
 5138POPC   C4A65382  12.854   5.889   7.319
 5138POPC   C1B65383  12.593   5.786   6.329
 5138POPC   C2B65384  12.657   5.649   6.771
 5138POPC   C3B65385  12.607   6.024   6.902
 5138POPC   C4B65386  12.549   6.273   7.230
 5139POPC   NC365387  35.740  29.110   5.379
 5139POPC   PO465388  35.146  29.394   5.476
 5139POPC   GL165389  35.235  29.459   5.878
 5139POPC   GL265390  34.924  29.655   5.872
 5139POPC   C1A65391  35.379  29.194   6.235
 5139POPC   D2A65392  35.350  29.022   6.657
 5139POPC   C3A65393  35.623  28.911   6.984
 5139POPC   C4A65394  35.380  29.015   7.315
 5139POPC   C1B65395  34.976  29.520   6.309
 5139POPC   C2B65396  35.317  29.536   6.615
 5139POPC   C3B65397  35.348  29.459   7.057
 5139POPC   C4B65398  35.133  29.435   7.468
 5140POPC   NC365399  21.879  41.480   5.401
 5140POPC   PO465400  22.497  41.310   5.395
 5140POPC   GL165401  22.228  41.481   5.784
 5140POPC   GL265402  21.833  41.446   5.890
 5140POPC   C1A65403  22.310  41.548   6.221
 5140POPC   D2A65404  22.437  41.427   6.647
 5140POPC   C3A65405  22.293  41.659   7.002
 5140POPC   C4A65406  22.047  41.512   7.322
 5140POPC   C1B65407  21.866  41.785   6.165
 5140POPC   C2B65408  22.048  41.819   6.582
 5140POPC   C3B65409  21.799  41.711   6.889
 5140POPC   C4B65410  21.646  41.805   7.267
 5141POPC   NC365411  23.290  39.290   5.541
 5141POPC   PO465412  22.674  39.151   5.416
 5141POPC   GL165413  22.851  39.294   5.788
 5141POPC   GL265414  23.062  39.032   5.889
 5141POPC   C1A65415  22.744  39.263   6.210
 5141POPC   D2A65416  22.914  39.121   6.600
 5141POPC   C3A65417  22.721  39.273   6.959
 5141POPC   C4A65418  22.723  39.130   7.362
 5141POPC   C1B65419  23.289  39.234   6.234
 5141POPC   C2B65420  23.408  39.354   6.661
 5141POPC   C3B65421  23.232  39.183   7.033
 5141POPC   C4B65422  23.487  39.298   7.362
 5142POPC   NC365423  19.755   1.056   5.407
 5142POPC   PO465424  20.082   1.583   5.768
 5142POPC   GL165425  19.888   1.215   5.878
 5142POPC   GL265426  19.536   1.254   5.840
 5142POPC   C1A65427  19.902   1.116   6.294
 5142POPC   D2A65428  19.905   1.445   6.609
 5142POPC   C3A65429  19.978   1.291   7.009
 5142POPC   C4A65430  20.084   1.294   7.458
 5142POPC   C1B65431  19.466   0.910   6.069
 5142POPC   C2B65432  19.474   0.998   6.526
 5142POPC   C3B65433  19.367   0.913   6.951
 5142POPC   C4B65434  19.608   1.073   7.273
 5143POPC   NC365435   5.946  36.460   5.423
 5143POPC   PO465436   5.688  35.875   5.170
 5143POPC   GL165437   5.804  35.941   5.658
 5143POPC   GL265438   5.923  36.243   5.878
 5143POPC   C1A65439   5.707  35.858   6.153
 5143POPC   D2A65440   5.944  35.943   6.570
 5143POPC   C3A65441   5.832  35.809   6.979
 5143POPC   C4A65442   5.750  35.876   7.407
 5143POPC   C1B65443   6.157  36.476   6.225
 5143POPC   C2B65444   6.070  36.508   6.663
 5143POPC   C3B65445   5.797  36.325   6.985
 5143POPC   C4B65446   5.984  36.345   7.375
 5144POPC   NC365447  30.142  14.677   5.431
 5144POPC   PO465448  29.839  14.062   5.453
 5144POPC   GL165449  29.944  14.364   5.793
 5144POPC   GL265450  29.693  14.600   5.900
 5144POPC   C1A65451  30.101  14.544   6.205
 5144POPC   D2A65452  29.877  14.450   6.586
 5144POPC   C3A65453  30.067  14.412   6.995
 5144POPC   C4A65454  30.132  14.812   7.183
 5144POPC   C1B65455  29.418  14.702   6.239
 5144POPC   C2B65456  29.456  14.921   6.628
 5144POPC   C3B65457  29.683  14.773   6.959
 5144POPC   C4B65458  29.661  14.734   7.395
 5145POPC   NC365459  37.498  11.541   5.504
 5145POPC   PO465460  38.126  11.292   5.569
 5145POPC   GL165461  37.832  11.475   5.916
 5145POPC   GL265462  37.442  11.459   5.996
 5145POPC   C1A65463  37.796  11.348   6.353
 5145POPC   D2A65464  37.781  10.956   6.628
 5145POPC   C3A65465  37.763  11.161   7.024
 5145POPC   C4A65466  37.975  11.565   7.177
 5145POPC   C1B65467  37.385  11.067   6.249
 5145POPC   C2B65468  37.292  11.105   6.700
 5145POPC   C3B65469  37.292  11.302   7.124
 5145POPC   C4B65470  37.256  11.089   7.547
 5146POPC   NC365471   2.335   2.054   5.550
 5146POPC   PO465472   1.690   2.092   5.280
 5146POPC   GL165473   1.861   1.991   5.715
 5146POPC   GL265474   2.074   1.693   5.816
 5146POPC   C1A65475   1.943   2.069   6.166
 5146POPC   D2A65476   1.864   1.916   6.594
 5146POPC   C3A65477   2.032   2.076   6.995
 5146POPC   C4A65478   1.805   1.968   7.368
 5146POPC   C1B65479   2.238   1.625   6.251
 5146POPC   C2B65480   2.335   1.713   6.697
 5146POPC   C3B65481   2.307   1.555   7.131
 5146POPC   C4B65482   2.228   1.762   7.511
 5147POPC   NC365483  34.523  43.652   5.253
 5147POPC   PO465484  35.054  43.994   5.327
 5147POPC   GL165485  34.732  43.824   5.703
 5147POPC   GL265486  34.848  43.645   5.979
 5147POPC   C1A65487  34.400  43.863   6.060
 5147POPC   D2A65488  34.147  43.721   6.431
 5147POPC   C3A65489  34.098  44.019   6.799
 5147POPC   C4A65490  34.169  44.062   7.270
 5147POPC   C1B65491  34.799  43.750   6.377
 5147POPC   C2B65492  34.588  43.586   6.720
 5147POPC   C3B65493  34.569  43.920   6.976
 5147POPC   C4B65494  34.692  44.074   7.341
 5148POPC   NC365495  44.708  16.805   5.378
 5148POPC   PO465496   0.023  16.239   5.568
 5148POPC   GL165497  44.849  16.576   5.844
 5148POPC   GL265498  44.900  16.976   5.819
 5148POPC   C1A65499  44.776  16.746   6.248
 5148POPC   D2A65500  44.925  16.710   6.623
 5148POPC   C3A65501  44.666  16.492   6.910
 5148POPC   C4A65502  44.898  16.618   7.239
 5148POPC   C1B65503  44.543  17.179   6.127
 5148POPC   C2B65504  44.453  17.054   6.558
 5148POPC   C3B65505  44.679  17.019   6.948
 5148POPC   C4B65506  44.565  16.958   7.343
 5149POPC   NC365507  42.195  12.537   5.348
 5149POPC   PO465508  42.716  12.938   5.477
 5149POPC   GL165509  42.409  12.845   5.776
 5149POPC   GL265510  42.071  12.773   5.801
 5149POPC   C1A65511  42.363  12.980   6.187
 5149POPC   D2A65512  42.621  12.880   6.507
 5149POPC   C3A65513  42.424  12.941   6.877
 5149POPC   C4A65514  42.577  13.058   7.235
 5149POPC   C1B65515  41.899  12.729   6.202
 5149POPC   C2B65516  41.821  12.856   6.609
 5149POPC   C3B65517  41.941  12.721   6.995
 5149POPC   C4B65518  42.195  12.776   7.349
 5150POPC   NC365519  22.581   2.211   5.465
 5150POPC   PO465520  23.194   1.845   5.534
 5150POPC   GL165521  22.960   1.931   5.923
 5150POPC   GL265522  22.698   2.162   5.965
 5150POPC   C1A65523  23.097   1.766   6.323
 5150POPC   D2A65524  23.309   1.711   6.709
 5150POPC   C3A65525  23.061   1.905   7.036
 5150POPC   C4A65526  22.961   2.284   7.270
 5150POPC   C1B65527  22.573   1.800   6.268
 5150POPC   C2B65528  22.635   1.714   6.722
 5150POPC   C3B65529  22.588   1.618   7.157
 5150POPC   C4B65530  22.864   1.740   7.489
 5151POPC   NC365531  42.934  16.645   5.336
 5151POPC   PO465532  43.558  16.719   5.295
 5151POPC   GL165533  43.302  16.916   5.711
 5151POPC   GL265534  42.947  16.849   5.933
 5151POPC   C1A65535  43.343  17.074   6.167
 5151POPC   D2A65536  43.072  16.984   6.540
 5151POPC   C3A65537  43.164  16.710   6.902
 5151POPC   C4A65538  43.307  16.858   7.312
 5151POPC   C1B65539  42.604  16.869   6.316
 5151POPC   C2B65540  42.614  16.922   6.813
 5151POPC   C3B65541  42.791  16.881   7.214
 5151POPC   C4B65542  42.877  17.090   7.605
 5152POPC   NC365543  41.838  24.721   5.430
 5152POPC   PO465544  41.238  24.982   5.443
 5152POPC   GL165545  41.386  24.558   5.659
 5152POPC   GL265546  41.684  24.376   5.828
 5152POPC   C1A65547  41.327  24.526   6.138
 5152POPC   D2A65548  41.443  24.754   6.538
 5152POPC   C3A65549  41.352  24.563   6.925
 5152POPC   C4A65550  41.480  24.506   7.312
 5152POPC   C1B65551  41.787  24.710   6.145
 5152POPC   C2B65552  41.967  24.777   6.545
 5152POPC   C3B65553  41.841  24.588   6.917
 5152POPC   C4B65554  41.976  24.704   7.307
 5153POPC   NC365555  23.045  44.146   5.632
 5153POPC   PO465556  22.997  44.861   5.416
 5153POPC   GL165557  22.999  44.662   5.756
 5153POPC   GL265558  23.320  44.554   5.749
 5153POPC   C1A65559  22.824  44.673   6.154
 5153POPC   D2A65560  22.898  44.460   6.513
 5153POPC   C3A65561  22.913  44.715   6.881
 5153POPC   C4A65562  22.709  44.726   7.265
 5153POPC   C1B65563  23.343  44.741   6.156
 5153POPC   C2B65564  23.376  44.842   6.570
 5153POPC   C3B65565  23.423  44.675   6.968
 5153POPC   C4B65566  23.199  44.558   7.326
 5154POPC   NC365567  29.355  12.353   5.469
 5154POPC   PO465568  28.971  11.881   5.336
 5154POPC   GL165569  29.160  11.901   5.724
 5154POPC   GL265570  28.959  12.182   5.795
 5154POPC   C1A65571  29.088  11.806   6.163
 5154POPC   D2A65572  29.201  12.034   6.537
 5154POPC   C3A65573  29.077  11.827   6.860
 5154POPC   C4A65574  29.203  11.923   7.204
 5154POPC   C1B65575  29.160  12.370   6.140
 5154POPC   C2B65576  29.042  12.522   6.561
 5154POPC   C3B65577  29.174  12.375   6.959
 5154POPC   C4B65578  28.916  12.342   7.316
 5155POPC   NC365579  13.855   4.010   5.373
 5155POPC   PO465580  13.415   4.581   5.439
 5155POPC   GL165581  13.590   4.283   5.727
 5155POPC   GL265582  13.938   4.365   5.767
 5155POPC   C1A65583  13.538   4.059   6.119
 5155POPC   D2A65584  13.394   4.130   6.532
 5155POPC   C3A65585  13.569   4.299   6.959
 5155POPC   C4A65586  13.508   4.516   7.357
 5155POPC   C1B65587  13.995   4.271   6.168
 5155POPC   C2B65588  13.852   4.424   6.536
 5155POPC   C3B65589  14.049   4.503   6.929
 5155POPC   C4B65590  14.073   4.163   7.218
 5156POPC   NC365591  17.600  17.146   5.524
 5156POPC   PO465592  18.056  16.748   5.556
 5156POPC   GL165593  17.730  16.671   5.881
 5156POPC   GL265594  17.383  16.722   5.712
 5156POPC   C1A65595  17.698  16.479   6.321
 5156POPC   D2A65596  17.576  16.332   6.750
 5156POPC   C3A65597  17.715  16.593   7.103
 5156POPC   C4A65598  17.474  16.654   7.493
 5156POPC   C1B65599  17.281  16.728   6.139
 5156POPC   C2B65600  17.348  16.769   6.559
 5156POPC   C3B65601  17.323  16.867   6.958
 5156POPC   C4B65602  17.044  16.920   7.261
 5157POPC   NC365603  43.084  38.764   5.683
 5157POPC   PO465604  43.503  38.414   5.308
 5157POPC   GL165605  43.310  38.308   5.811
 5157POPC   GL265606  42.967  38.250   5.907
 5157POPC   C1A65607  43.216  38.543   6.283
 5157POPC   D2A65608  42.985  38.699   6.687
 5157POPC   C3A65609  43.091  38.487   7.061
 5157POPC   C4A65610  43.439  38.183   7.123
 5157POPC   C1B65611  43.006  38.089   6.356
 5157POPC   C2B65612  43.004  38.038   6.828
 5157POPC   C3B65613  42.711  38.162   7.163
 5157POPC   C4B65614  42.543  38.609   7.180
 5158POPC   NC365615  11.712   2.949   5.498
 5158POPC   PO465616  12.251   2.630   5.587
 5158POPC   GL165617  12.083   2.774   5.892
 5158POPC   GL265618  11.784   2.586   5.842
 5158POPC   C1A65619  12.318   2.847   6.250
 5158POPC   D2A65620  12.093   2.918   6.585
 5158POPC   C3A65621  12.237   2.882   6.972
 5158POPC   C4A65622  12.078   3.073   7.354
 5158POPC   C1B65623  11.616   2.680   6.225
 5158POPC   C2B65624  11.659   2.650   6.661
 5158POPC   C3B65625  11.735   2.772   7.068
 5158POPC   C4B65626  11.701   2.760   7.503
 5159POPC   NC365627  41.257   8.231   5.578
 5159POPC   PO465628  41.861   8.431   5.583
 5159POPC   GL165629  41.851   8.191   5.934
 5159POPC   GL265630  41.625   7.925   5.865
 5159POPC   C1A65631  41.690   8.248   6.360
 5159POPC   D2A65632  41.673   8.558   6.717
 5159POPC   C3A65633  41.810   8.353   7.118
 5159POPC   C4A65634  41.919   7.916   7.120
 5159POPC   C1B65635  41.266   7.974   6.192
 5159POPC   C2B65636  41.208   8.206   6.601
 5159POPC   C3B65637  41.363   8.107   7.015
 5159POPC   C4B65638  41.241   8.125   7.434
 5160POPC   NC365639  37.053  13.942   5.597
 5160POPC   PO465640  36.608  13.555   5.233
 5160POPC   GL165641  36.795  13.462   5.679
 5160POPC   GL265642  37.142  13.477   5.789
 5160POPC   C1A65643  36.746  13.430   6.168
 5160POPC   D2A65644  36.595  13.610   6.591
 5160POPC   C3A65645  36.762  13.577   7.018
 5160POPC   C4A65646  36.615  13.269   7.313
 5160POPC   C1B65647  37.211  13.641   6.210
 5160POPC   C2B65648  37.112  13.518   6.642
 5160POPC   C3B65649  37.263  13.467   7.083
 5160POPC   C4B65650  37.116  13.458   7.536
 5161POPC   NC365651  25.848   0.810   5.310
 5161POPC   PO465652  25.701   1.404   5.422
 5161POPC   GL165653  25.861   1.118   5.740
 5161POPC   GL265654  26.161   0.876   5.749
 5161POPC   C1A65655  26.066   1.239   6.109
 5161POPC   D2A65656  25.935   1.167   6.531
 5161POPC   C3A65657  26.102   1.287   6.930
 5161POPC   C4A65658  25.961   1.573   7.223
 5161POPC   C1B65659  26.376   0.859   6.210
 5161POPC   C2B65660  26.278   0.830   6.679
 5161POPC   C3B65661  26.362   0.888   7.112
 5161POPC   C4B65662  26.547   1.022   7.502
 5162POPC   NC365663  37.962  32.807   5.641
 5162POPC   PO465664  37.460  33.199   5.523
 5162POPC   GL165665  37.625  33.082   5.892
 5162POPC   GL265666  37.549  32.721   5.934
 5162POPC   C1A65667  37.687  33.283   6.250
 5162POPC   D2A65668  37.506  33.390   6.618
 5162POPC   C3A65669  37.785  33.189   6.858
 5162POPC   C4A65670  37.742  33.016   7.216
 5162POPC   C1B65671  37.570  32.808   6.410
 5162POPC   C2B65672  37.879  32.691   6.765
 5162POPC   C3B65673  37.899  32.552   7.206
 5162POPC   C4B65674  37.466  32.623   7.432
 5163POPC   NC365675   8.534   7.144   5.427
 5163POPC   PO465676   9.227   7.393   5.412
 5163POPC   GL165677   8.877   7.397   5.753
 5163POPC   GL265678   9.111   7.318   5.967
 5163POPC   C1A65679   8.648   7.355   6.170
 5163POPC   D2A65680   8.620   7.434   6.632
 5163POPC   C3A65681   8.823   7.276   7.010
 5163POPC   C4A65682   8.673   7.516   7.381
 5163POPC   C1B65683   9.117   7.372   6.389
 5163POPC   C2B65684   9.215   7.111   6.693
 5163POPC   C3B65685   9.350   7.269   7.034
 5163POPC   C4B65686   9.185   7.396   7.377
 5164POPC   NC365687   2.767  28.913   5.435
 5164POPC   PO465688   3.056  29.425   5.634
 5164POPC   GL165689   2.703  29.231   5.865
 5164POPC   GL265690   2.520  28.887   5.875
 5164POPC   C1A65691   2.764  29.067   6.288
 5164POPC   D2A65692   3.077  28.977   6.578
 5164POPC   C3A65693   2.985  29.067   6.982
 5164POPC   C4A65694   3.130  29.306   7.295
 5164POPC   C1B65695   2.322  28.788   6.280
 5164POPC   C2B65696   2.373  28.824   6.735
 5164POPC   C3B65697   2.488  29.005   7.129
 5164POPC   C4B65698   2.822  28.895   7.446
 5165POPC   NC365699  41.606  44.268   5.351
 5165POPC   PO465700  41.405  43.615   5.345
 5165POPC   GL165701  41.401  43.834   5.761
 5165POPC   GL265702  41.575  43.565   5.870
 5165POPC   C1A65703  41.633  43.946   6.187
 5165POPC   D2A65704  41.810  43.821   6.604
 5165POPC   C3A65705  41.824  44.129   6.962
 5165POPC   C4A65706  41.429  44.158   7.201
 5165POPC   C1B65707  41.315  43.532   6.252
 5165POPC   C2B65708  41.404  43.492   6.688
 5165POPC   C3B65709  41.559  43.701   7.044
 5165POPC   C4B65710  41.943  43.775   7.307
 5166POPC   NC365711  28.803  21.955   5.438
 5166POPC   PO465712  29.480  22.221   5.437
 5166POPC   GL165713  29.308  22.284   5.847
 5166POPC   GL265714  28.965  22.245   5.812
 5166POPC   C1A65715  29.185  22.040   6.248
 5166POPC   D2A65716  29.114  21.859   6.691
 5166POPC   C3A65717  29.405  21.967   7.039
 5166POPC   C4A65718  29.184  22.051   7.452
 5166POPC   C1B65719  28.716  22.245   6.182
 5166POPC   C2B65720  28.636  22.027   6.562
 5166POPC   C3B65721  28.708  22.139   6.985
 5166POPC   C4B65722  28.713  21.909   7.347
 5167POPC   NC365723  22.676  43.217   5.610
 5167POPC   PO465724  23.332  42.949   5.481
 5167POPC   GL165725  23.199  42.955   5.906
 5167POPC   GL265726  23.058  43.276   5.972
 5167POPC   C1A65727  23.328  43.072   6.345
 5167POPC   D2A65728  22.975  43.304   6.545
 5167POPC   C3A65729  22.840  43.203   6.957
 5167POPC   C4A65730  23.043  43.192   7.320
 5167POPC   C1B65731  22.780  42.970   6.199
 5167POPC   C2B65732  22.536  42.965   6.565
 5167POPC   C3B65733  22.609  42.740   6.932
 5167POPC   C4B65734  22.852  42.715   7.311
 5168POPC   NC365735  39.423  33.450   5.528
 5168POPC   PO465736  39.065  32.847   5.480
 5168POPC   GL165737  39.143  32.686   5.895
 5168POPC   GL265738  39.536  32.628   5.876
 5168POPC   C1A65739  38.994  32.849   6.297
 5168POPC   D2A65740  39.227  33.019   6.664
 5168POPC   C3A65741  39.034  33.084   7.060
 5168POPC   C4A65742  38.976  32.723   7.275
 5168POPC   C1B65743  39.538  32.806   6.276
 5168POPC   C2B65744  39.643  32.682   6.672
 5168POPC   C3B65745  39.553  32.901   7.073
 5168POPC   C4B65746  39.496  33.301   7.243
 5169POPC   NC365747  22.472  16.069   5.712
 5169POPC   PO465748  23.044  15.983   5.462
 5169POPC   GL165749  22.958  15.989   5.888
 5169POPC   GL265750  23.219  15.777   6.011
 5169POPC   C1A65751  22.972  16.164   6.313
 5169POPC   D2A65752  23.100  16.002   6.705
 5169POPC   C3A65753  23.021  16.195   7.077
 5169POPC   C4A65754  22.757  16.104   7.402
 5169POPC   C1B65755  22.819  15.676   6.274
 5169POPC   C2B65756  22.692  15.697   6.719
 5169POPC   C3B65757  23.003  15.695   7.106
 5169POPC   C4B65758  23.267  15.413   7.339
 5170POPC   NC365759  14.382  16.443   4.873
 5170POPC   PO465760  14.406  16.884   5.382
 5170POPC   GL165761  14.525  16.722   5.764
 5170POPC   GL265762  14.685  16.407   5.709
 5170POPC   C1A65763  14.300  16.619   6.159
 5170POPC   D2A65764  14.235  16.873   6.535
 5170POPC   C3A65765  14.279  16.676   6.930
 5170POPC   C4A65766  14.238  16.844   7.329
 5170POPC   C1B65767  14.809  16.566   6.144
 5170POPC   C2B65768  14.722  16.738   6.531
 5170POPC   C3B65769  14.791  16.612   6.924
 5170POPC   C4B65770  14.574  16.458   7.310
 5171POPC   NC365771  38.737  34.127   5.262
 5171POPC   PO465772  38.100  33.931   5.286
 5171POPC   GL165773  38.297  33.992   5.751
 5171POPC   GL265774  38.661  34.118   5.790
 5171POPC   C1A65775  38.462  33.804   6.175
 5171POPC   D2A65776  38.606  33.617   6.575
 5171POPC   C3A65777  38.401  33.846   6.913
 5171POPC   C4A65778  38.262  33.718   7.310
 5171POPC   C1B65779  38.840  34.146   6.205
 5171POPC   C2B65780  38.772  34.096   6.657
 5171POPC   C3B65781  38.845  34.017   7.136
 5171POPC   C4B65782  38.738  33.933   7.588
 5172POPC   NC365783  30.160   2.590   5.400
 5172POPC   PO465784  30.823   2.798   5.387
 5172POPC   GL165785  30.870   2.761   5.817
 5172POPC   GL265786  30.510   2.750   5.840
 5172POPC   C1A65787  30.899   2.823   6.264
 5172POPC   D2A65788  30.739   2.905   6.670
 5172POPC   C3A65789  30.941   2.921   7.059
 5172POPC   C4A65790  30.758   2.850   7.461
 5172POPC   C1B65791  30.391   2.741   6.276
 5172POPC   C2B65792  30.374   2.503   6.669
 5172POPC   C3B65793  30.503   2.593   7.093
 5172POPC   C4B65794  30.371   2.510   7.535
 5173POPC   NC365795  42.949   8.418   5.261
 5173POPC   PO465796  43.424   7.979   5.290
 5173POPC   GL165797  43.253   8.152   5.684
 5173POPC   GL265798  42.928   8.030   5.829
 5173POPC   C1A65799  43.314   8.097   6.132
 5173POPC   D2A65800  43.241   8.239   6.544
 5173POPC   C3A65801  43.450   8.353   6.934
 5173POPC   C4A65802  43.245   8.194   7.321
 5173POPC   C1B65803  42.787   8.183   6.270
 5173POPC   C2B65804  42.829   7.923   6.679
 5173POPC   C3B65805  42.859   7.843   7.128
 5173POPC   C4B65806  42.819   7.687   7.589
 5174POPC   NC365807  42.594  25.375   5.466
 5174POPC   PO465808  41.979  25.610   5.392
 5174POPC   GL165809  42.170  25.428   5.764
 5174POPC   GL265810  42.432  25.556   5.909
 5174POPC   C1A65811  42.262  25.104   6.132
 5174POPC   D2A65812  42.269  25.269   6.540
 5174POPC   C3A65813  42.128  25.095   6.938
 5174POPC   C4A65814  42.457  25.045   7.225
 5174POPC   C1B65815  42.692  25.452   6.243
 5174POPC   C2B65816  42.646  25.662   6.631
 5174POPC   C3B65817  42.350  25.576   6.941
 5174POPC   C4B65818  42.566  25.548   7.269
 5175POPC   NC365819  31.069  32.890   5.082
 5175POPC   PO465820  30.623  33.074   5.455
 5175POPC   GL165821  30.919  33.058   5.782
 5175POPC   GL265822  30.738  32.820   5.915
 5175POPC   C1A65823  30.850  33.196   6.230
 5175POPC   D2A65824  30.492  33.195   6.530
 5175POPC   C3A65825  30.609  33.051   6.913
 5175POPC   C4A65826  30.542  33.196   7.300
 5175POPC   C1B65827  30.960  32.689   6.203
 5175POPC   C2B65828  30.957  32.848   6.593
 5175POPC   C3B65829  30.980  32.612   6.943
 5175POPC   C4B65830  30.712  32.687   7.299
 5176POPC   NC365831  10.239  39.932   5.268
 5176POPC   PO465832  10.887  40.020   5.380
 5176POPC   GL165833  10.579  40.165   5.751
 5176POPC   GL265834  10.328  39.899   5.890
 5176POPC   C1A65835  10.526  40.235   6.242
 5176POPC   D2A65836  10.474  40.049   6.681
 5176POPC   C3A65837  10.382  40.214   7.126
 5176POPC   C4A65838  10.726  40.236   7.394
 5176POPC   C1B65839  10.549  39.711   6.281
 5176POPC   C2B65840  10.892  39.723   6.606
 5176POPC   C3B65841  10.789  39.827   7.025
 5176POPC   C4B65842  10.333  39.734   7.078
 5177POPC   NC365843  31.721  23.972   5.383
 5177POPC   PO465844  31.208  23.456   5.459
 5177POPC   GL165845  31.354  23.739   5.799
 5177POPC   GL265846  31.716  23.822   5.858
 5177POPC   C1A65847  31.460  23.603   6.226
 5177POPC   D2A65848  31.294  23.415   6.595
 5177POPC   C3A65849  31.528  23.607   6.928
 5177POPC   C4A65850  31.747  23.528   7.306
 5177POPC   C1B65851  31.918  23.866   6.249
 5177POPC   C2B65852  31.885  24.074   6.644
 5177POPC   C3B65853  31.888  23.968   7.079
 5177POPC   C4B65854  31.958  23.931   7.524
 5178POPC   NC365855   1.936  27.815   5.417
 5178POPC   PO465856   2.310  27.317   5.296
 5178POPC   GL165857   2.154  27.449   5.706
 5178POPC   GL265858   1.805  27.487   5.805
 5178POPC   C1A65859   2.229  27.487   6.174
 5178POPC   D2A65860   2.307  27.691   6.589
 5178POPC   C3A65861   1.945  27.596   6.827
 5178POPC   C4A65862   1.828  27.607   7.236
 5178POPC   C1B65863   1.713  27.247   6.182
 5178POPC   C2B65864   1.898  27.120   6.585
 5178POPC   C3B65865   1.718  27.162   7.020
 5178POPC   C4B65866   1.719  27.163   7.487
 5179POPC   NC365867  12.307   4.398   5.453
 5179POPC   PO465868  11.817   4.020   5.258
 5179POPC   GL165869  11.975   4.113   5.730
 5179POPC   GL265870  12.343   4.044   5.828
 5179POPC   C1A65871  12.006   4.312   6.188
 5179POPC   D2A65872  11.887   4.589   6.571
 5179POPC   C3A65873  11.822   4.410   7.004
 5179POPC   C4A65874  11.888   4.036   7.295
 5179POPC   C1B65875  12.519   4.137   6.239
 5179POPC   C2B65876  12.523   4.094   6.683
 5179POPC   C3B65877  12.313   4.220   7.038
 5179POPC   C4B65878  12.575   4.025   7.314
 5180POPC   NC365879  12.398  21.253   5.394
 5180POPC   PO465880  12.001  21.744   5.350
 5180POPC   GL165881  11.988  21.592   5.777
 5180POPC   GL265882  11.723  21.807   5.853
 5180POPC   C1A65883  12.190  21.391   6.160
 5180POPC   D2A65884  12.501  21.358   6.512
 5180POPC   C3A65885  12.345  21.239   6.929
 5180POPC   C4A65886  12.042  21.453   7.199
 5180POPC   C1B65887  11.828  21.767   6.279
 5180POPC   C2B65888  11.852  21.773   6.736
 5180POPC   C3B65889  11.820  21.899   7.157
 5180POPC   C4B65890  11.633  21.639   7.460
 5181POPC   NC365891   7.523  30.987   5.464
 5181POPC   PO465892   7.062  30.529   5.562
 5181POPC   GL165893   7.269  30.753   5.840
 5181POPC   GL265894   7.615  30.639   5.872
 5181POPC   C1A65895   7.171  30.780   6.248
 5181POPC   D2A65896   7.367  30.745   6.627
 5181POPC   C3A65897   7.128  30.498   6.881
 5181POPC   C4A65898   7.238  30.717   7.219
 5181POPC   C1B65899   7.891  30.690   6.219
 5181POPC   C2B65900   7.884  30.688   6.643
 5181POPC   C3B65901   7.712  30.741   7.010
 5181POPC   C4B65902   7.716  30.613   7.379
 5182POPC   NC365903  37.232   9.237   5.485
 5182POPC   PO465904  37.712   8.802   5.561
 5182POPC   GL165905  37.579   9.024   5.883
 5182POPC   GL265906  37.886   9.223   5.909
 5182POPC   C1A65907  37.434   8.854   6.290
 5182POPC   D2A65908  37.355   8.713   6.716
 5182POPC   C3A65909  37.703   8.747   6.992
 5182POPC   C4A65910  37.868   9.130   7.209
 5182POPC   C1B65911  37.753   9.264   6.301
 5182POPC   C2B65912  37.670   9.137   6.679
 5182POPC   C3B65913  37.412   9.224   7.008
 5182POPC   C4B65914  37.556   9.571   7.245
 5183POPC   NC365915  37.253  26.577   5.488
 5183POPC   PO465916  37.550  27.151   5.451
 5183POPC   GL165917  37.786  26.947   5.794
 5183POPC   GL265918  37.642  26.613   5.849
 5183POPC   C1A65919  38.028  26.956   6.202
 5183POPC   D2A65920  37.861  26.925   6.650
 5183POPC   C3A65921  38.098  27.012   7.051
 5183POPC   C4A65922  38.257  26.721   7.411
 5183POPC   C1B65923  37.526  26.813   6.261
 5183POPC   C2B65924  37.281  26.723   6.658
 5183POPC   C3B65925  37.393  26.564   7.083
 5183POPC   C4B65926  37.338  26.360   7.491
 5184POPC   NC365927  25.915   7.556   5.337
 5184POPC   PO465928  25.815   8.092   5.729
 5184POPC   GL165929  25.992   7.690   5.909
 5184POPC   GL265930  25.884   7.334   5.861
 5184POPC   C1A65931  25.890   7.557   6.348
 5184POPC   D2A65932  25.585   7.604   6.698
 5184POPC   C3A65933  25.801   7.876   7.004
 5184POPC   C4A65934  26.133   7.611   7.146
 5184POPC   C1B65935  25.879   7.050   6.264
 5184POPC   C2B65936  25.736   7.099   6.730
 5184POPC   C3B65937  25.847   6.963   7.175
 5184POPC   C4B65938  25.882   6.822   7.631
 5185POPC   NC365939   1.181  25.782   5.738
 5185POPC   PO465940   1.320  25.231   5.344
 5185POPC   GL165941   1.353  25.202   5.854
 5185POPC   GL265942   1.040  24.964   5.939
 5185POPC   C1A65943   1.312  25.441   6.281
 5185POPC   D2A65944   1.177  25.629   6.689
 5185POPC   C3A65945   0.936  25.373   6.976
 5185POPC   C4A65946   1.113  25.517   7.362
 5185POPC   C1B65947   1.275  24.946   6.335
 5185POPC   C2B65948   1.349  25.134   6.732
 5185POPC   C3B65949   1.334  25.111   7.157
 5185POPC   C4B65950   1.023  25.003   7.483
 5186POPC   NC365951   6.198  39.697   5.604
 5186POPC   PO465952   5.899  40.377   5.474
 5186POPC   GL165953   5.940  40.160   5.875
 5186POPC   GL265954   5.927  39.786   6.019
 5186POPC   C1A65955   5.975  40.175   6.319
 5186POPC   D2A65956   5.648  40.042   6.570
 5186POPC   C3A65957   5.861  40.045   6.938
 5186POPC   C4A65958   5.965  40.344   7.247
 5186POPC   C1B65959   5.551  39.634   6.248
 5186POPC   C2B65960   5.457  39.590   6.684
 5186POPC   C3B65961   5.417  39.798   7.058
 5186POPC   C4B65962   5.650  39.922   7.372
 5187POPC   NC365963   3.569  21.272   5.426
 5187POPC   PO465964   3.461  21.959   5.377
 5187POPC   GL165965   3.558  21.678   5.772
 5187POPC   GL265966   3.507  21.321   5.919
 5187POPC   C1A65967   3.735  21.687   6.216
 5187POPC   D2A65968   3.909  21.383   6.506
 5187POPC   C3A65969   3.741  21.389   6.916
 5187POPC   C4A65970   3.820  21.210   7.316
 5187POPC   C1B65971   3.246  21.530   6.198
 5187POPC   C2B65972   3.321  21.417   6.612
 5187POPC   C3B65973   3.237  21.386   7.049
 5187POPC   C4B65974   3.094  21.706   7.315
 5188POPC   NC365975  10.650  10.952   5.498
 5188POPC   PO465976  10.431  10.372   5.257
 5188POPC   GL165977  10.507  10.447   5.680
 5188POPC   GL265978  10.267  10.699   5.741
 5188POPC   C1A65979  10.623  10.482   6.122
 5188POPC   D2A65980  10.470  10.492   6.511
 5188POPC   C3A65981  10.641  10.488   6.880
 5188POPC   C4A65982  10.472  10.387   7.231
 5188POPC   C1B65983  10.248  10.825   6.168
 5188POPC   C2B65984  10.089  10.806   6.597
 5188POPC   C3B65985  10.254  10.823   7.027
 5188POPC   C4B65986  10.698  10.932   7.103
 5189POPC   NC365987  41.205  27.067   5.211
 5189POPC   PO465988  40.765  26.566   5.247
 5189POPC   GL165989  40.764  26.875   5.645
 5189POPC   GL265990  41.092  27.009   5.784
 5189POPC   C1A65991  40.717  26.847   6.131
 5189POPC   D2A65992  40.528  26.937   6.566
 5189POPC   C3A65993  40.753  26.713   6.926
 5189POPC   C4A65994  41.002  26.613   7.303
 5189POPC   C1B65995  41.175  27.174   6.237
 5189POPC   C2B65996  41.013  27.100   6.679
 5189POPC   C3B65997  40.988  27.127   7.141
 5189POPC   C4B65998  41.180  27.088   7.593
 5190POPC   NC365999  16.268  23.094   5.381
 5190POPC   PO466000  15.605  22.917   5.356
 5190POPC   GL166001  15.889  22.907   5.707
 5190POPC   GL266002  15.934  23.220   5.908
 5190POPC   C1A66003  15.907  22.745   6.132
 5190POPC   D2A66004  15.802  22.660   6.580
 5190POPC   C3A66005  15.987  22.946   6.898
 5190POPC   C4A66006  16.050  22.894   7.358
 5190POPC   C1B66007  16.036  23.189   6.381
 5190POPC   C2B66008  16.381  23.215   6.697
 5190POPC   C3B66009  16.410  23.308   7.148
 5190POPC   C4B66010  16.364  23.220   7.605
 5191POPC   NC366011  38.009  40.236   5.346
 5191POPC   PO466012  38.001  39.530   5.554
 5191POPC   GL166013  38.338  39.795   5.852
 5191POPC   GL266014  38.394  40.162   5.840
 5191POPC   C1A66015  38.603  39.847   6.216
 5191POPC   D2A66016  38.553  40.058   6.615
 5191POPC   C3A66017  38.649  39.871   7.040
 5191POPC   C4A66018  38.503  39.634   7.456
 5191POPC   C1B66019  38.096  40.458   6.097
 5191POPC   C2B66020  37.872  40.464   6.531
 5191POPC   C3B66021  37.871  40.446   7.015
 5191POPC   C4B66022  38.134  40.422   7.440
 5192POPC   NC366023  30.815   2.341   5.490
 5192POPC   PO466024  30.335   1.896   5.273
 5192POPC   GL166025  30.428   1.799   5.786
 5192POPC   GL266026  30.780   1.963   5.844
 5192POPC   C1A66027  30.510   1.935   6.249
 5192POPC   D2A66028  30.820   2.111   6.570
 5192POPC   C3A66029  30.849   1.949   7.006
 5192POPC   C4A66030  30.467   2.090   7.192
 5192POPC   C1B66031  30.994   2.315   6.118
 5192POPC   C2B66032  31.195   2.454   6.527
 5192POPC   C3B66033  31.001   2.438   6.941
 5192POPC   C4B66034  30.870   2.323   7.374
 5193POPC   NC366035   0.362  21.578   5.458
 5193POPC   PO466036   0.977  21.245   5.466
 5193POPC   GL166037   0.642  21.266   5.761
 5193POPC   GL266038   0.701  21.623   5.827
 5193POPC   C1A66039   0.567  21.306   6.231
 5193POPC   D2A66040   0.759  21.275   6.664
 5193POPC   C3A66041   0.559  21.336   7.102
 5193POPC   C4A66042   0.615  21.109   7.498
 5193POPC   C1B66043   0.514  21.824   6.159
 5193POPC   C2B66044   0.387  21.710   6.547
 5193POPC   C3B66045   0.488  21.815   6.948
 5193POPC   C4B66046   0.167  21.663   7.205
 5194POPC   NC366047  36.797  17.972   5.568
 5194POPC   PO466048  37.071  17.378   5.494
 5194POPC   GL166049  36.908  17.554   5.868
 5194POPC   GL266050  37.177  17.774   5.870
 5194POPC   C1A66051  36.952  17.493   6.326
 5194POPC   D2A66052  36.759  17.487   6.761
 5194POPC   C3A66053  36.871  17.423   7.221
 5194POPC   C4A66054  36.729  17.224   7.629
 5194POPC   C1B66055  37.315  17.871   6.270
 5194POPC   C2B66056  37.191  17.796   6.665
 5194POPC   C3B66057  37.352  17.656   7.037
 5194POPC   C4B66058  37.195  17.868   7.362
 5195POPC   NC366059  40.646   8.665   5.408
 5195POPC   PO466060  40.910   7.953   5.413
 5195POPC   GL166061  40.843   8.033   5.829
 5195POPC   GL266062  40.543   8.212   5.756
 5195POPC   C1A66063  40.793   8.202   6.246
 5195POPC   D2A66064  40.677   8.151   6.654
 5195POPC   C3A66065  40.891   8.327   7.001
 5195POPC   C4A66066  40.736   8.142   7.346
 5195POPC   C1B66067  40.448   8.525   6.095
 5195POPC   C2B66068  40.341   8.532   6.549
 5195POPC   C3B66069  40.388   8.391   7.002
 5195POPC   C4B66070  40.436   8.587   7.424
 5196POPC   NC366071  42.495  38.901   5.471
 5196POPC   PO466072  41.933  39.170   5.236
 5196POPC   GL166073  42.122  39.273   5.727
 5196POPC   GL266074  42.468  39.338   5.783
 5196POPC   C1A66075  42.054  39.185   6.226
 5196POPC   D2A66076  42.081  39.246   6.694
 5196POPC   C3A66077  42.238  39.042   7.078
 5196POPC   C4A66078  42.101  39.116   7.510
 5196POPC   C1B66079  42.566  39.256   6.205
 5196POPC   C2B66080  42.617  39.286   6.645
 5196POPC   C3B66081  42.436  39.502   7.002
 5196POPC   C4B66082  42.511  39.456   7.431
 5197POPC   NC366083  37.500  30.889   5.507
 5197POPC   PO466084  37.775  30.300   5.380
 5197POPC   GL166085  37.770  30.568   5.795
 5197POPC   GL266086  37.859  30.918   5.895
 5197POPC   C1A66087  37.743  30.522   6.238
 5197POPC   D2A66088  37.916  30.751   6.549
 5197POPC   C3A66089  37.661  30.728   6.870
 5197POPC   C4A66090  37.754  30.661   7.237
 5197POPC   C1B66091  37.756  31.145   6.263
 5197POPC   C2B66092  37.727  31.226   6.700
 5197POPC   C3B66093  37.741  31.205   7.158
 5197POPC   C4B66094  37.583  31.040   7.580
 5198POPC   NC366095   0.610  30.669   5.471
 5198POPC   PO466096   0.120  31.008   5.783
 5198POPC   GL166097   0.563  30.862   5.950
 5198POPC   GL266098   0.576  30.491   5.953
 5198POPC   C1A66099   0.665  30.917   6.383
 5198POPC   D2A66100   0.232  30.964   6.543
 5198POPC   C3A66101   0.147  30.584   6.759
 5198POPC   C4A66102   0.245  30.721   7.168
 5198POPC   C1B66103   0.905  30.477   6.273
 5198POPC   C2B66104   0.938  30.605   6.712
 5198POPC   C3B66105   0.737  30.533   7.110
 5198POPC   C4B66106   0.622  30.714   7.512
 5199POPC   NC366107  34.699  33.145   5.383
 5199POPC   PO466108  34.410  32.622   5.592
 5199POPC   GL166109  34.805  32.883   5.804
 5199POPC   GL266110  34.857  33.294   5.838
 5199POPC   C1A66111  34.947  32.964   6.229
 5199POPC   D2A66112  34.782  32.801   6.606
 5199POPC   C3A66113  34.852  32.954   7.027
 5199POPC   C4A66114  34.705  32.759   7.431
 5199POPC   C1B66115  34.474  33.146   6.082
 5199POPC   C2B66116  34.323  32.927   6.437
 5199POPC   C3B66117  34.351  33.015   6.874
 5199POPC   C4B66118  34.435  33.167   7.278
 5200POPC   NC366119  17.944  13.582   5.545
 5200POPC   PO466120  17.315  13.870   5.399
 5200POPC   GL166121  17.472  13.742   5.809
 5200POPC   GL266122  17.720  13.532   5.991
 5200POPC   C1A66123  17.293  13.767   6.211
 5200POPC   D2A66124  17.187  13.600   6.589
 5200POPC   C3A66125  17.335  13.718   6.982
 5200POPC   C4A66126  17.220  13.430   7.280
 5200POPC   C1B66127  17.922  13.284   6.302
 5200POPC   C2B66128  17.995  13.425   6.726
 5200POPC   C3B66129  17.744  13.412   7.106
 5200POPC   C4B66130  17.629  13.658   7.466
 5201POPC   NC366131  32.772   4.809   5.428
 5201POPC   PO466132  32.868   4.135   5.268
 5201POPC   GL166133  32.890   4.341   5.683
 5201POPC   GL266134  33.098   4.089   5.774
 5201POPC   C1A66135  32.675   4.478   6.094
 5201POPC   D2A66136  32.639   4.571   6.571
 5201POPC   C3A66137  32.936   4.455   6.934
 5201POPC   C4A66138  33.388   4.555   7.062
 5201POPC   C1B66139  32.966   4.080   6.206
 5201POPC   C2B66140  33.228   4.151   6.583
 5201POPC   C3B66141  33.219   4.023   6.999
 5201POPC   C4B66142  32.975   4.070   7.340
 5202POPC   NC366143  30.009   8.458   5.372
 5202POPC   PO466144  29.406   8.106   5.396
 5202POPC   GL166145  29.558   8.231   5.839
 5202POPC   GL266146  29.929   8.261   5.849
 5202POPC   C1A66147  29.698   8.147   6.301
 5202POPC   D2A66148  29.435   8.227   6.703
 5202POPC   C3A66149  29.629   8.350   7.090
 5202POPC   C4A66150  29.992   8.177   7.230
 5202POPC   C1B66151  30.173   8.393   6.225
 5202POPC   C2B66152  30.217   8.581   6.626
 5202POPC   C3B66153  30.045   8.651   6.999
 5202POPC   C4B66154  30.263   8.596   7.337
 5203POPC   NC366155   4.384  43.960   5.431
 5203POPC   PO466156   3.845  43.568   5.576
 5203POPC   GL166157   4.166  43.735   5.845
 5203POPC   GL266158   4.458  43.541   5.966
 5203POPC   C1A66159   4.276  43.977   6.219
 5203POPC   D2A66160   4.276  44.183   6.622
 5203POPC   C3A66161   4.470  44.038   6.990
 5203POPC   C4A66162   4.199  44.201   7.306
 5203POPC   C1B66163   4.103  43.500   6.289
 5203POPC   C2B66164   3.920  43.722   6.657
 5203POPC   C3B66165   4.077  43.718   7.096
 5203POPC   C4B66166   4.508  43.559   7.196
 5204POPC   NC366167  18.892  18.527   5.109
 5204POPC   PO466168  19.092  18.010   5.483
 5204POPC   GL166169  19.210  17.895   5.876
 5204POPC   GL266170  19.394  18.162   6.017
 5204POPC   C1A66171  18.933  17.835   6.225
 5204POPC   D2A66172  19.136  17.983   6.601
 5204POPC   C3A66173  18.937  18.036   7.016
 5204POPC   C4A66174  19.242  18.145   7.366
 5204POPC   C1B66175  19.005  18.328   6.201
 5204POPC   C2B66176  18.811  18.398   6.618
 5204POPC   C3B66177  18.933  18.534   7.053
 5204POPC   C4B66178  19.269  18.662   7.347
 5205POPC   NC366179  30.878  10.296   5.572
 5205POPC   PO466180  30.861  10.917   5.719
 5205POPC   GL166181  30.498  10.796   5.993
 5205POPC   GL266182  30.518  10.447   5.917
 5205POPC   C1A66183  30.439  10.649   6.419
 5205POPC   D2A66184  30.775  10.432   6.665
 5205POPC   C3A66185  30.882  10.645   7.063
 5205POPC   C4A66186  30.891  10.685   7.512
 5205POPC   C1B66187  30.291  10.181   6.225
 5205POPC   C2B66188  30.322  10.158   6.682
 5205POPC   C3B66189  30.555  10.242   7.095
 5205POPC   C4B66190  30.329  10.212   7.452
 5206POPC   NC366191  21.564  24.650   5.140
 5206POPC   PO466192  21.195  24.222   5.382
 5206POPC   GL166193  21.265  24.372   5.797
 5206POPC   GL266194  21.583  24.211   5.848
 5206POPC   C1A66195  21.290  24.565   6.241
 5206POPC   D2A66196  21.104  24.648   6.661
 5206POPC   C3A66197  21.296  24.470   7.053
 5206POPC   C4A66198  21.554  24.413   7.438
 5206POPC   C1B66199  21.300  24.045   6.173
 5206POPC   C2B66200  21.219  24.160   6.595
 5206POPC   C3B66201  21.120  23.963   6.976
 5206POPC   C4B66202  21.169  24.043   7.405
 5207POPC   NC366203   3.237  11.513   5.434
 5207POPC   PO466204   3.840  11.258   5.358
 5207POPC   GL166205   3.685  11.347   5.766
 5207POPC   GL266206   3.428  11.143   5.775
 5207POPC   C1A66207   3.707  11.171   6.213
 5207POPC   D2A66208   3.693  11.405   6.610
 5207POPC   C3A66209   3.678  11.256   7.017
 5207POPC   C4A66210   3.747  11.559   7.364
 5207POPC   C1B66211   3.227  11.343   6.087
 5207POPC   C2B66212   3.159  11.360   6.478
 5207POPC   C3B66213   3.134  11.310   6.911
 5207POPC   C4B66214   3.290  11.287   7.333
 5208POPC   NC366215  39.456  22.729   5.248
 5208POPC   PO466216  40.029  23.071   5.243
 5208POPC   GL166217  39.914  22.863   5.611
 5208POPC   GL266218  40.214  22.987   5.764
 5208POPC   C1A66219  39.862  22.824   6.093
 5208POPC   D2A66220  39.997  22.975   6.516
 5208POPC   C3A66221  39.767  22.991   6.923
 5208POPC   C4A66222  39.921  23.332   7.202
 5208POPC   C1B66223  40.444  22.928   6.180
 5208POPC   C2B66224  40.519  22.940   6.634
 5208POPC   C3B66225  40.270  22.935   7.014
 5208POPC   C4B66226  40.015  22.841   7.363
 5209POPC   NC366227  22.108  44.028   5.474
 5209POPC   PO466228  22.599  43.577   5.333
 5209POPC   GL166229  22.368  43.631   5.812
 5209POPC   GL266230  22.089  43.819   5.923
 5209POPC   C1A66231  22.419  43.903   6.275
 5209POPC   D2A66232  22.649  44.025   6.686
 5209POPC   C3A66233  22.452  43.894   7.102
 5209POPC   C4A66234  22.010  44.057   7.215
 5209POPC   C1B66235  21.977  43.608   6.295
 5209POPC   C2B66236  21.786  43.662   6.661
 5209POPC   C3B66237  22.063  43.623   6.937
 5209POPC   C4B66238  22.081  43.505   7.347
 5210POPC   NC366239  38.253  19.963   5.300
 5210POPC   PO466240  38.991  20.005   5.387
 5210POPC   GL166241  38.637  20.049   5.686
 5210POPC   GL266242  38.528  19.703   5.765
 5210POPC   C1A66243  38.656  20.043   6.152
 5210POPC   D2A66244  38.452  20.094   6.575
 5210POPC   C3A66245  38.663  20.019   6.990
 5210POPC   C4A66246  38.598  19.997   7.448
 5210POPC   C1B66247  38.396  19.597   6.225
 5210POPC   C2B66248  38.477  19.591   6.698
 5210POPC   C3B66249  38.462  19.566   7.156
 5210POPC   C4B66250  38.176  19.356   7.465
 5211POPC   NC366251  31.931  43.741   5.410
 5211POPC   PO466252  32.611  43.558   5.633
 5211POPC   GL166253  32.334  43.731   5.974
 5211POPC   GL266254  31.958  43.786   5.980
 5211POPC   C1A66255  32.243  43.643   6.406
 5211POPC   D2A66256  32.119  43.864   6.742
 5211POPC   C3A66257  32.468  43.789   6.921
 5211POPC   C4A66258  32.621  43.824   7.314
 5211POPC   C1B66259  32.138  44.131   6.294
 5211POPC   C2B66260  32.333  44.337   6.701
 5211POPC   C3B66261  32.339  44.225   7.145
 5211POPC   C4B66262  32.003  43.906   7.234
 5212POPC   NC366263   7.542  38.857   5.477
 5212POPC   PO466264   7.309  38.202   5.490
 5212POPC   GL166265   7.372  38.492   5.807
 5212POPC   GL266266   7.696  38.436   5.829
 5212POPC   C1A66267   7.277  38.503   6.241
 5212POPC   D2A66268   7.360  38.285   6.622
 5212POPC   C3A66269   7.463  38.545   6.981
 5212POPC   C4A66270   7.472  38.237   7.317
 5212POPC   C1B66271   7.786  38.583   6.245
 5212POPC   C2B66272   7.847  38.407   6.617
 5212POPC   C3B66273   7.850  38.212   7.003
 5212POPC   C4B66274   7.872  38.560   7.308
 5213POPC   NC366275  32.998   1.436   5.536
 5213POPC   PO466276  33.416   0.841   5.433
 5213POPC   GL166277  33.244   1.059   5.769
 5213POPC   GL266278  32.875   1.032   5.827
 5213POPC   C1A66279  33.203   1.314   6.155
 5213POPC   D2A66280  33.375   1.234   6.549
 5213POPC   C3A66281  33.229   1.040   6.897
 5213POPC   C4A66282  33.125   1.270   7.267
 5213POPC   C1B66283  32.715   1.083   6.243
 5213POPC   C2B66284  32.786   1.202   6.679
 5213POPC   C3B66285  32.739   0.996   7.077
 5213POPC   C4B66286  32.786   0.999   7.543
 5214POPC   NC366287  28.839  15.971   5.321
 5214POPC   PO466288  29.523  16.214   5.467
 5214POPC   GL166289  29.324  16.076   5.849
 5214POPC   GL266290  28.983  16.120   5.802
 5214POPC   C1A66291  29.214  15.864   6.232
 5214POPC   D2A66292  29.358  15.804   6.660
 5214POPC   C3A66293  29.161  15.788   7.102
 5214POPC   C4A66294  29.218  15.957   7.562
 5214POPC   C1B66295  29.056  16.396   6.141
 5214POPC   C2B66296  29.188  16.294   6.524
 5214POPC   C3B66297  29.128  16.272   6.926
 5214POPC   C4B66298  29.033  16.349   7.325
 5215POPC   NC366299  18.902  21.266   5.413
 5215POPC   PO466300  19.418  21.780   5.373
 5215POPC   GL166301  19.259  21.576   5.757
 5215POPC   GL266302  19.441  21.319   5.659
 5215POPC   C1A66303  19.127  21.499   6.211
 5215POPC   D2A66304  18.997  21.328   6.647
 5215POPC   C3A66305  18.909  21.453   7.056
 5215POPC   C4A66306  18.960  21.849   7.251
 5215POPC   C1B66307  19.491  21.157   6.052
 5215POPC   C2B66308  19.460  21.200   6.474
 5215POPC   C3B66309  19.327  20.991   6.827
 5215POPC   C4B66310  19.274  21.154   7.249
 5216POPC   NC366311  19.368  22.197   5.600
 5216POPC   PO466312  19.792  22.379   5.124
 5216POPC   GL166313  19.868  22.267   5.600
 5216POPC   GL266314  19.767  21.953   5.788
 5216POPC   C1A66315  19.738  22.342   6.081
 5216POPC   D2A66316  19.658  22.357   6.513
 5216POPC   C3A66317  19.986  22.315   6.827
 5216POPC   C4A66318  19.773  22.269   7.212
 5216POPC   C1B66319  20.031  21.949   6.190
 5216POPC   C2B66320  20.180  21.893   6.619
 5216POPC   C3B66321  19.964  21.814   7.010
 5216POPC   C4B66322  20.085  21.711   7.420
 5217POPC   NC366323  11.968  19.710   5.409
 5217POPC   PO466324  11.575  20.126   5.671
 5217POPC   GL166325  11.904  20.030   5.850
 5217POPC   GL266326  11.823  20.265   6.111
 5217POPC   C1A66327  12.193  19.855   6.131
 5217POPC   D2A66328  12.104  19.563   6.486
 5217POPC   C3A66329  12.143  19.633   6.926
 5217POPC   C4A66330  12.254  19.690   7.357
 5217POPC   C1B66331  11.742  19.907   6.363
 5217POPC   C2B66332  11.704  19.879   6.811
 5217POPC   C3B66333  11.761  19.803   7.268
 5217POPC   C4B66334  11.490  19.702   7.638
 5218POPC   NC366335  40.413  22.821   5.280
 5218POPC   PO466336  41.067  22.778   5.246
 5218POPC   GL166337  40.874  22.892   5.618
 5218POPC   GL266338  40.622  22.682   5.735
 5218POPC   C1A66339  40.959  23.000   6.046
 5218POPC   D2A66340  41.110  22.868   6.470
 5218POPC   C3A66341  41.001  23.191   6.761
 5218POPC   C4A66342  40.714  23.177   7.085
 5218POPC   C1B66343  40.799  22.537   6.114
 5218POPC   C2B66344  40.763  22.493   6.533
 5218POPC   C3B66345  40.883  22.708   6.911
 5218POPC   C4B66346  40.660  22.691   7.276
 5219POPC   NC366347  31.960  11.474   5.427
 5219POPC   PO466348  32.620  11.102   5.383
 5219POPC   GL166349  32.334  11.215   5.705
 5219POPC   GL266350  32.348  11.546   5.793
 5219POPC   C1A66351  32.100  11.208   6.102
 5219POPC   D2A66352  32.225  11.286   6.520
 5219POPC   C3A66353  32.136  11.356   6.946
 5219POPC   C4A66354  32.483  11.146   7.138
 5219POPC   C1B66355  32.418  11.647   6.204
 5219POPC   C2B66356  32.307  11.783   6.616
 5219POPC   C3B66357  32.549  11.727   6.994
 5219POPC   C4B66358  32.501  11.612   7.397
 5220POPC   NC366359  31.154  25.546   5.397
 5220POPC   PO466360  31.713  25.208   5.492
 5220POPC   GL166361  31.724  25.300   5.872
 5220POPC   GL266362  31.381  25.437   5.884
 5220POPC   C1A66363  31.634  25.192   6.294
 5220POPC   D2A66364  31.235  25.195   6.482
 5220POPC   C3A66365  31.261  25.254   6.942
 5220POPC   C4A66366  31.640  25.200   7.152
 5220POPC   C1B66367  31.245  25.687   6.257
 5220POPC   C2B66368  31.125  25.685   6.674
 5220POPC   C3B66369  31.247  25.771   7.094
 5220POPC   C4B66370  31.388  25.526   7.455
 5221POPC   NC366371  28.232   6.970   4.935
 5221POPC   PO466372  28.217   7.511   5.347
 5221POPC   GL166373  28.339   7.490   5.761
 5221POPC   GL266374  28.605   7.258   5.840
 5221POPC   C1A66375  28.226   7.573   6.194
 5221POPC   D2A66376  28.368   7.655   6.629
 5221POPC   C3A66377  28.078   7.512   6.953
 5221POPC   C4A66378  28.205   7.155   7.217
 5221POPC   C1B66379  28.728   7.418   6.263
 5221POPC   C2B66380  28.723   7.273   6.712
 5221POPC   C3B66381  28.634   7.459   7.133
 5221POPC   C4B66382  28.699   7.888   7.277
 5222POPC   NC366383  23.543  13.927   5.301
 5222POPC   PO466384  23.783  14.484   5.486
 5222POPC   GL166385  23.896  14.337   5.861
 5222POPC   GL266386  24.087  14.609   5.903
 5222POPC   C1A66387  23.948  14.084   6.205
 5222POPC   D2A66388  23.707  14.218   6.541
 5222POPC   C3A66389  23.861  14.309   6.950
 5222POPC   C4A66390  23.564  14.534   7.230
 5222POPC   C1B66391  23.941  14.638   6.308
 5222POPC   C2B66392  23.816  14.762   6.718
 5222POPC   C3B66393  23.977  14.805   7.127
 5222POPC   C4B66394  23.893  14.624   7.585
 5223POPC   NC366395   7.504  14.979   5.273
 5223POPC   PO466396   7.069  15.437   5.367
 5223POPC   GL166397   7.214  15.310   5.799
 5223POPC   GL266398   7.538  15.452   5.887
 5223POPC   C1A66399   6.999  15.137   6.207
 5223POPC   D2A66400   6.912  14.998   6.650
 5223POPC   C3A66401   6.989  15.257   7.046
 5223POPC   C4A66402   7.109  15.440   7.456
 5223POPC   C1B66403   7.626  15.493   6.321
 5223POPC   C2B66404   7.687  15.240   6.708
 5223POPC   C3B66405   7.555  15.186   7.134
 5223POPC   C4B66406   7.586  15.282   7.566
 5224POPC   NC366407  24.755   7.979   5.534
 5224POPC   PO466408  24.285   8.399   5.294
 5224POPC   GL166409  24.369   8.328   5.747
 5224POPC   GL266410  24.707   8.394   5.862
 5224POPC   C1A66411  24.369   8.138   6.173
 5224POPC   D2A66412  24.333   8.301   6.585
 5224POPC   C3A66413  24.417   7.949   6.876
 5224POPC   C4A66414  24.411   7.840   7.297
 5224POPC   C1B66415  24.562   8.617   6.228
 5224POPC   C2B66416  24.770   8.741   6.607
 5224POPC   C3B66417  24.780   8.611   7.072
 5224POPC   C4B66418  24.478   8.340   7.197
 5225POPC   NC366419  23.905  25.465   5.556
 5225POPC   PO466420  23.466  24.998   5.346
 5225POPC   GL166421  23.601  25.118   5.816
 5225POPC   GL266422  23.568  25.478   5.984
 5225POPC   C1A66423  23.474  25.071   6.289
 5225POPC   D2A66424  23.329  25.064   6.735
 5225POPC   C3A66425  23.555  25.203   7.079
 5225POPC   C4A66426  23.678  24.841   7.322
 5225POPC   C1B66427  23.930  25.405   6.249
 5225POPC   C2B66428  23.882  25.220   6.664
 5225POPC   C3B66429  24.067  25.104   7.060
 5225POPC   C4B66430  24.025  25.429   7.365
 5226POPC   NC366431  28.266   0.365   5.335
 5226POPC   PO466432  27.862   0.853   5.629
 5226POPC   GL166433  28.238   0.612   5.803
 5226POPC   GL266434  28.309   0.234   5.828
 5226POPC   C1A66435  28.504   0.747   6.124
 5226POPC   D2A66436  28.573   0.857   6.533
 5226POPC   C3A66437  28.512   0.620   6.924
 5226POPC   C4A66438  28.187   0.743   7.199
 5226POPC   C1B66439  28.341   0.286   6.257
 5226POPC   C2B66440  28.079   0.429   6.591
 5226POPC   C3B66441  28.079   0.271   6.976
 5226POPC   C4B66442  28.309   0.123   7.263
 5227POPC   NC366443  41.013  43.498   5.116
 5227POPC   PO466444  40.562  43.685   5.513
 5227POPC   GL166445  40.867  43.838   5.792
 5227POPC   GL266446  40.789  44.185   5.813
 5227POPC   C1A66447  40.932  43.871   6.236
 5227POPC   D2A66448  41.255  43.974   6.539
 5227POPC   C3A66449  41.097  43.855   6.913
 5227POPC   C4A66450  40.656  43.790   7.053
 5227POPC   C1B66451  40.598  44.252   6.247
 5227POPC   C2B66452  40.507  43.963   6.583
 5227POPC   C3B66453  40.290  44.133   6.941
 5227POPC   C4B66454  40.431  44.292   7.326
 5228POPC   NC366455   6.363  44.017   5.360
 5228POPC   PO466456   5.823  43.671   5.502
 5228POPC   GL166457   5.788  43.971   5.840
 5228POPC   GL266458   6.150  44.050   5.845
 5228POPC   C1A66459   5.591  44.015   6.256
 5228POPC   D2A66460   5.603  43.724   6.632
 5228POPC   C3A66461   5.626  43.886   7.063
 5228POPC   C4A66462   5.726  43.697   7.467
 5228POPC   C1B66463   6.097  43.923   6.300
 5228POPC   C2B66464   6.059  43.955   6.761
 5228POPC   C3B66465   6.151  43.823   7.185
 5228POPC   C4B66466   6.102  44.018   7.609
 5229POPC   NC366467  29.435  43.828   5.389
 5229POPC   PO466468  28.863  44.196   5.422
 5229POPC   GL166469  28.993  43.860   5.693
 5229POPC   GL266470  29.269  43.972   5.861
 5229POPC   C1A66471  28.927  43.718   6.135
 5229POPC   D2A66472  28.867  43.918   6.534
 5229POPC   C3A66473  28.671  43.743   6.894
 5229POPC   C4A66474  28.875  43.737   7.286
 5229POPC   C1B66475  29.120  44.222   6.192
 5229POPC   C2B66476  29.280  44.234   6.584
 5229POPC   C3B66477  29.188  44.011   6.933
 5229POPC   C4B66478  29.167  44.164   7.309
 5230POPC   NC366479  25.980   3.250   5.479
 5230POPC   PO466480  25.830   2.604   5.323
 5230POPC   GL166481  26.078   2.592   5.728
 5230POPC   GL266482  26.246   2.928   5.827
 5230POPC   C1A66483  26.134   2.553   6.197
 5230POPC   D2A66484  25.999   2.609   6.632
 5230POPC   C3A66485  26.208   2.527   7.026
 5230POPC   C4A66486  26.079   2.667   7.439
 5230POPC   C1B66487  26.349   3.003   6.306
 5230POPC   C2B66488  26.458   2.897   6.768
 5230POPC   C3B66489  26.529   2.887   7.255
 5230POPC   C4B66490  26.352   3.055   7.657
 5231POPC   NC366491   7.575  36.170   5.360
 5231POPC   PO466492   7.132  35.733   5.516
 5231POPC   GL166493   7.324  36.018   5.803
 5231POPC   GL266494   7.074  36.240   5.686
 5231POPC   C1A66495   7.391  36.207   6.239
 5231POPC   D2A66496   7.648  36.399   6.585
 5231POPC   C3A66497   7.596  36.282   7.024
 5231POPC   C4A66498   7.255  36.082   7.227
 5231POPC   C1B66499   7.051  36.530   6.008
 5231POPC   C2B66500   7.041  36.549   6.461
 5231POPC   C3B66501   7.144  36.514   6.902
 5231POPC   C4B66502   7.224  36.575   7.354
 5232POPC   NC366503  19.894  13.909   4.878
 5232POPC   PO466504  20.015  13.398   5.365
 5232POPC   GL166505  19.861  13.639   5.725
 5232POPC   GL266506  19.487  13.750   5.805
 5232POPC   C1A66507  19.878  13.644   6.174
 5232POPC   D2A66508  19.951  13.852   6.538
 5232POPC   C3A66509  19.892  13.612   6.944
 5232POPC   C4A66510  19.834  13.777   7.355
 5232POPC   C1B66511  19.458  13.372   6.096
 5232POPC   C2B66512  19.639  13.344   6.534
 5232POPC   C3B66513  19.456  13.334   6.949
 5232POPC   C4B66514  19.485  13.394   7.384
 5233POPC   NC366515  23.300  35.195   5.396
 5233POPC   PO466516  22.848  35.598   5.457
 5233POPC   GL166517  22.964  35.409   5.816
 5233POPC   GL266518  22.779  35.145   5.783
 5233POPC   C1A66519  22.826  35.529   6.229
 5233POPC   D2A66520  22.651  35.483   6.625
 5233POPC   C3A66521  22.885  35.592   6.964
 5233POPC   C4A66522  22.877  35.491   7.383
 5233POPC   C1B66523  22.939  35.014   6.186
 5233POPC   C2B66524  23.038  35.141   6.607
 5233POPC   C3B66525  22.935  35.083   7.059
 5233POPC   C4B66526  22.860  34.987   7.505
 5234POPC   NC366527   3.629  37.513   5.490
 5234POPC   PO466528   3.289  37.998   5.512
 5234POPC   GL166529   3.447  37.793   5.913
 5234POPC   GL266530   3.400  37.415   5.938
 5234POPC   C1A66531   3.516  37.690   6.379
 5234POPC   D2A66532   3.789  37.639   6.766
 5234POPC   C3A66533   3.513  37.788   7.091
 5234POPC   C4A66534   3.065  37.931   7.073
 5234POPC   C1B66535   3.443  37.176   6.345
 5234POPC   C2B66536   3.453  37.256   6.800
 5234POPC   C3B66537   3.606  37.307   7.235
 5234POPC   C4B66538   3.833  37.385   7.666
 5235POPC   NC366539  44.959   4.163   5.503
 5235POPC   PO466540   0.538   4.387   5.457
 5235POPC   GL166541   0.475   4.319   5.861
 5235POPC   GL266542   0.191   4.129   5.967
 5235POPC   C1A66543   0.437   4.490   6.258
 5235POPC   D2A66544   0.417   4.296   6.646
 5235POPC   C3A66545   0.458   4.597   6.974
 5235POPC   C4A66546   0.312   4.627   7.388
 5235POPC   C1B66547   0.169   3.828   6.319
 5235POPC   C2B66548   0.238   3.806   6.767
 5235POPC   C3B66549   0.368   4.089   7.112
 5235POPC   C4B66550   0.337   4.126   7.555
 5236POPC   NC366551  13.541  33.572   5.601
 5236POPC   PO466552  13.348  33.178   5.188
 5236POPC   GL166553  13.509  33.068   5.698
 5236POPC   GL266554  13.811  32.858   5.780
 5236POPC   C1A66555  13.575  33.217   6.185
 5236POPC   D2A66556  13.727  33.388   6.635
 5236POPC   C3A66557  13.490  33.176   6.997
 5236POPC   C4A66558  13.433  33.198   7.454
 5236POPC   C1B66559  13.754  32.718   6.199
 5236POPC   C2B66560  13.725  32.876   6.630
 5236POPC   C3B66561  14.003  33.057   6.955
 5236POPC   C4B66562  13.927  33.002   7.408
 5237POPC   NC366563  24.332  30.923   5.425
 5237POPC   PO466564  24.713  30.384   5.508
 5237POPC   GL166565  24.422  30.389   5.858
 5237POPC   GL266566  24.168  30.563   5.772
 5237POPC   C1A66567  24.238  30.418   6.282
 5237POPC   D2A66568  24.496  30.621   6.565
 5237POPC   C3A66569  24.580  30.511   6.980
 5237POPC   C4A66570  24.853  30.836   7.173
 5237POPC   C1B66571  24.291  30.896   6.096
 5237POPC   C2B66572  24.164  31.018   6.538
 5237POPC   C3B66573  24.365  30.977   6.949
 5237POPC   C4B66574  24.242  30.918   7.363
 5238POPC   NC366575  12.891   0.788   5.496
 5238POPC   PO466576  12.956   1.450   5.284
 5238POPC   GL166577  12.893   1.484   5.733
 5238POPC   GL266578  12.927   1.134   5.906
 5238POPC   C1A66579  12.981   1.562   6.163
 5238POPC   D2A66580  12.987   1.267   6.525
 5238POPC   C3A66581  12.674   1.290   6.858
 5238POPC   C4A66582  12.680   1.299   7.301
 5238POPC   C1B66583  12.699   0.913   6.272
 5238POPC   C2B66584  12.727   0.792   6.728
 5238POPC   C3B66585  12.962   0.925   7.118
 5238POPC   C4B66586  12.836   0.886   7.571
 5239POPC   NC366587  11.162  24.038   5.561
 5239POPC   PO466588  11.436  24.633   5.408
 5239POPC   GL166589  11.498  24.642   5.879
 5239POPC   GL266590  11.290  24.333   5.976
 5239POPC   C1A66591  11.454  24.647   6.348
 5239POPC   D2A66592  11.149  24.333   6.473
 5239POPC   C3A66593  10.984  24.375   6.851
 5239POPC   C4A66594  11.279  24.579   7.101
 5239POPC   C1B66595  10.974  24.678   6.137
 5239POPC   C2B66596  10.745  24.751   6.577
 5239POPC   C3B66597  10.833  24.831   7.044
 5239POPC   C4B66598  10.975  24.696   7.520
 5240POPC   NC366599  39.765  27.490   5.280
 5240POPC   PO466600  40.164  28.046   5.446
 5240POPC   GL166601  39.939  27.829   5.830
 5240POPC   GL266602  39.869  27.439   5.846
 5240POPC   C1A66603  40.034  27.734   6.282
 5240POPC   D2A66604  40.143  27.760   6.730
 5240POPC   C3A66605  39.789  27.867   6.964
 5240POPC   C4A66606  39.686  27.768   7.408
 5240POPC   C1B66607  40.143  27.235   6.200
 5240POPC   C2B66608  40.081  27.187   6.680
 5240POPC   C3B66609  40.048  27.397   7.094
 5240POPC   C4B66610  39.805  27.270   7.432
 5241POPC   NC366611  36.411   6.938   5.647
 5241POPC   PO466612  35.946   7.361   5.318
 5241POPC   GL166613  35.935   7.451   5.730
 5241POPC   GL266614  36.267   7.415   5.737
 5241POPC   C1A66615  35.835   7.237   6.124
 5241POPC   D2A66616  35.957   7.321   6.562
 5241POPC   C3A66617  36.052   7.644   6.853
 5241POPC   C4A66618  36.192   7.529   7.286
 5241POPC   C1B66619  36.285   7.478   6.160
 5241POPC   C2B66620  36.460   7.560   6.534
 5241POPC   C3B66621  36.563   7.647   6.928
 5241POPC   C4B66622  36.665   7.395   7.244
 5242POPC   NC366623  39.443  39.656   5.473
 5242POPC   PO466624  38.824  39.826   5.497
 5242POPC   GL166625  39.104  39.793   5.853
 5242POPC   GL266626  38.956  40.096   5.942
 5242POPC   C1A66627  39.350  39.749   6.271
 5242POPC   D2A66628  39.398  39.907   6.716
 5242POPC   C3A66629  39.520  39.788   7.148
 5242POPC   C4A66630  39.445  40.071   7.523
 5242POPC   C1B66631  39.099  40.220   6.338
 5242POPC   C2B66632  38.996  40.257   6.749
 5242POPC   C3B66633  39.113  40.102   7.112
 5242POPC   C4B66634  38.974  39.882   7.435
 5243POPC   NC366635  42.221   1.017   5.440
 5243POPC   PO466636  42.863   1.349   5.290
 5243POPC   GL166637  42.700   1.385   5.770
 5243POPC   GL266638  42.429   1.159   5.869
 5243POPC   C1A66639  42.700   1.312   6.260
 5243POPC   D2A66640  42.670   0.896   6.517
 5243POPC   C3A66641  42.566   0.957   6.964
 5243POPC   C4A66642  42.580   1.321   7.215
 5243POPC   C1B66643  42.156   1.300   6.205
 5243POPC   C2B66644  42.191   1.123   6.616
 5243POPC   C3B66645  42.150   1.353   6.983
 5243POPC   C4B66646  41.883   1.369   7.325
 5244POPC   NC366647  23.966   6.945   5.570
 5244POPC   PO466648  23.983   6.289   5.529
 5244POPC   GL166649  23.692   6.343   5.873
 5244POPC   GL266650  23.745   6.710   5.987
 5244POPC   C1A66651  23.488   6.391   6.292
 5244POPC   D2A66652  23.630   6.608   6.671
 5244POPC   C3A66653  23.478   6.436   7.053
 5244POPC   C4A66654  23.296   6.665   7.393
 5244POPC   C1B66655  23.766   7.016   6.357
 5244POPC   C2B66656  23.806   7.089   6.821
 5244POPC   C3B66657  23.764   6.858   7.226
 5244POPC   C4B66658  24.008   6.824   7.607
 5245POPC   NC366659  21.249  10.922   5.188
 5245POPC   PO466660  21.815  10.601   5.392
 5245POPC   GL166661  21.490  10.608   5.730
 5245POPC   GL266662  21.142  10.570   5.596
 5245POPC   C1A66663  21.544  10.545   6.207
 5245POPC   D2A66664  21.517  10.797   6.616
 5245POPC   C3A66665  21.514  10.506   6.992
 5245POPC   C4A66666  21.730  10.483   7.398
 5245POPC   C1B66667  21.078  10.660   6.072
 5245POPC   C2B66668  21.083  10.552   6.543
 5245POPC   C3B66669  21.083  10.819   6.954
 5245POPC   C4B66670  21.306  10.844   7.341
 5246POPC   NC366671  40.745  19.431   5.567
 5246POPC   PO466672  40.954  20.068   5.445
 5246POPC   GL166673  40.994  19.858   5.825
 5246POPC   GL266674  40.650  19.825   5.891
 5246POPC   C1A66675  40.955  20.014   6.241
 5246POPC   D2A66676  40.592  19.976   6.487
 5246POPC   C3A66677  40.761  20.030   6.866
 5246POPC   C4A66678  40.877  20.141   7.294
 5246POPC   C1B66679  40.759  19.522   6.277
 5246POPC   C2B66680  40.579  19.529   6.729
 5246POPC   C3B66681  40.663  19.647   7.173
 5246POPC   C4B66682  40.389  19.735   7.494
 5247POPC   NC366683   6.970   1.850   5.678
 5247POPC   PO466684   6.331   2.002   5.444
 5247POPC   GL166685   6.547   2.064   5.845
 5247POPC   GL266686   6.633   2.371   5.991
 5247POPC   C1A66687   6.627   1.954   6.277
 5247POPC   D2A66688   6.444   2.203   6.587
 5247POPC   C3A66689   6.406   2.048   6.976
 5247POPC   C4A66690   6.820   1.859   7.081
 5247POPC   C1B66691   7.019   2.347   6.265
 5247POPC   C2B66692   7.187   2.157   6.645
 5247POPC   C3B66693   7.154   2.281   7.074
 5247POPC   C4B66694   7.034   2.305   7.567
 5248POPC   NC366695  29.158  22.597   5.409
 5248POPC   PO466696  28.828  23.161   5.456
 5248POPC   GL166697  29.088  22.989   5.766
 5248POPC   GL266698  28.828  22.727   5.791
 5248POPC   C1A66699  29.326  23.042   6.160
 5248POPC   D2A66700  29.076  23.014   6.545
 5248POPC   C3A66701  29.304  22.866   6.865
 5248POPC   C4A66702  29.344  22.839   7.291
 5248POPC   C1B66703  29.070  22.607   6.179
 5248POPC   C2B66704  29.046  22.404   6.590
 5248POPC   C3B66705  29.157  22.401   7.013
 5248POPC   C4B66706  28.928  22.522   7.324
 5249POPC   NC366707   6.829  32.563   5.633
 5249POPC   PO466708   6.383  31.989   5.452
 5249POPC   GL166709   6.573  32.177   5.868
 5249POPC   GL266710   6.725  32.456   6.121
 5249POPC   C1A66711   6.720  31.980   6.251
 5249POPC   D2A66712   6.940  31.952   6.649
 5249POPC   C3A66713   6.784  32.259   6.957
 5249POPC   C4A66714   6.800  32.269   7.421
 5249POPC   C1B66715   6.372  32.387   6.390
 5249POPC   C2B66716   6.075  32.677   6.556
 5249POPC   C3B66717   6.218  32.736   6.978
 5249POPC   C4B66718   6.645  32.723   7.175
 5250POPC   NC366719  39.946  37.780   5.566
 5250POPC   PO466720  40.330  37.175   5.455
 5250POPC   GL166721  40.292  37.465   5.851
 5250POPC   GL266722  39.921  37.540   6.004
 5250POPC   C1A66723  40.325  37.529   6.321
 5250POPC   D2A66724  39.914  37.508   6.563
 5250POPC   C3A66725  39.885  37.598   7.014
 5250POPC   C4A66726  40.264  37.608   7.266
 5250POPC   C1B66727  40.057  37.938   6.174
 5250POPC   C2B66728  40.128  38.045   6.560
 5250POPC   C3B66729  39.927  38.084   6.933
 5250POPC   C4B66730  40.063  38.083   7.375
 5251POPC   NC366731   5.348  11.328   5.450
 5251POPC   PO466732   4.665  11.308   5.576
 5251POPC   GL166733   5.018  11.431   5.873
 5251POPC   GL266734   5.399  11.538   5.899
 5251POPC   C1A66735   5.194  11.227   6.252
 5251POPC   D2A66736   5.344  11.099   6.638
 5251POPC   C3A66737   5.142  11.201   7.013
 5251POPC   C4A66738   5.343  11.240   7.393
 5251POPC   C1B66739   5.184  11.739   6.246
 5251POPC   C2B66740   5.104  11.615   6.660
 5251POPC   C3B66741   5.357  11.658   7.030
 5251POPC   C4B66742   5.015  11.699   7.254
 5252POPC   NC366743  29.633  18.283   5.298
 5252POPC   PO466744  30.225  18.131   5.351
 5252POPC   GL166745  30.101  18.303   5.789
 5252POPC   GL266746  30.129  18.662   5.833
 5252POPC   C1A66747  29.887  18.260   6.220
 5252POPC   D2A66748  29.959  18.077   6.616
 5252POPC   C3A66749  29.680  18.023   6.939
 5252POPC   C4A66750  29.874  18.241   7.256
 5252POPC   C1B66751  29.901  18.755   6.195
 5252POPC   C2B66752  29.973  18.693   6.639
 5252POPC   C3B66753  29.857  18.712   7.084
 5252POPC   C4B66754  29.990  18.688   7.528
 5253POPC   NC366755   3.975  20.919   5.231
 5253POPC   PO466756   4.455  20.467   5.322
 5253POPC   GL166757   4.405  20.634   5.725
 5253POPC   GL266758   4.506  20.292   5.836
 5253POPC   C1A66759   4.314  20.663   6.183
 5253POPC   D2A66760   4.331  20.493   6.617
 5253POPC   C3A66761   4.031  20.656   6.939
 5253POPC   C4A66762   4.226  20.921   7.245
 5253POPC   C1B66763   4.693  20.318   6.241
 5253POPC   C2B66764   4.702  20.144   6.668
 5253POPC   C3B66765   4.786  20.319   7.059
 5253POPC   C4B66766   4.473  20.511   7.169
 5254POPC   NC366767  22.385  26.645   5.418
 5254POPC   PO466768  21.731  26.869   5.477
 5254POPC   GL166769  21.996  26.973   5.734
 5254POPC   GL266770  22.116  26.670   5.847
 5254POPC   C1A66771  22.001  27.036   6.172
 5254POPC   D2A66772  21.893  26.894   6.559
 5254POPC   C3A66773  22.094  26.963   6.926
 5254POPC   C4A66774  22.071  26.764   7.323
 5254POPC   C1B66775  22.411  26.718   6.182
 5254POPC   C2B66776  22.312  26.611   6.618
 5254POPC   C3B66777  22.463  26.565   7.013
 5254POPC   C4B66778  22.442  26.472   7.482
 5255POPC   NC366779   2.171  33.272   5.252
 5255POPC   PO466780   1.833  32.781   5.492
 5255POPC   GL166781   1.968  32.952   5.865
 5255POPC   GL266782   2.293  33.080   5.781
 5255POPC   C1A66783   1.809  33.076   6.282
 5255POPC   D2A66784   1.692  33.208   6.701
 5255POPC   C3A66785   1.942  33.163   7.074
 5255POPC   C4A66786   1.722  33.013   7.439
 5255POPC   C1B66787   2.314  32.997   6.238
 5255POPC   C2B66788   2.140  32.882   6.646
 5255POPC   C3B66789   2.315  32.792   7.035
 5255POPC   C4B66790   2.239  32.906   7.457
 5256POPC   NC366791  16.381   3.606   5.406
 5256POPC   PO466792  15.862   3.271   5.058
 5256POPC   GL166793  15.901   3.425   5.551
 5256POPC   GL266794  15.629   3.362   5.813
 5256POPC   C1A66795  16.155   3.350   5.983
 5256POPC   D2A66796  16.213   3.151   6.428
 5256POPC   C3A66797  16.219   3.324   6.858
 5256POPC   C4A66798  16.117   3.702   7.140
 5256POPC   C1B66799  15.726   3.239   6.267
 5256POPC   C2B66800  15.734   3.402   6.671
 5256POPC   C3B66801  15.633   3.505   7.088
 5256POPC   C4B66802  15.493   3.146   7.310
 5257POPC   NC366803  17.166  13.563   5.097
 5257POPC   PO466804  16.593  13.475   5.417
 5257POPC   GL166805  16.726  13.540   5.807
 5257POPC   GL266806  16.955  13.781   5.772
 5257POPC   C1A66807  16.592  13.438   6.206
 5257POPC   D2A66808  16.294  13.436   6.543
 5257POPC   C3A66809  16.524  13.302   6.901
 5257POPC   C4A66810  16.730  13.283   7.311
 5257POPC   C1B66811  16.789  13.922   6.192
 5257POPC   C2B66812  16.715  13.743   6.615
 5257POPC   C3B66813  16.836  13.684   7.031
 5257POPC   C4B66814  16.496  13.708   7.317
 5258POPC   NC366815   3.112  13.122   5.430
 5258POPC   PO466816   3.714  12.800   5.409
 5258POPC   GL166817   3.531  12.892   5.778
 5258POPC   GL266818   3.360  12.583   5.853
 5258POPC   C1A66819   3.631  13.087   6.173
 5258POPC   D2A66820   3.907  12.953   6.523
 5258POPC   C3A66821   3.732  13.123   6.905
 5258POPC   C4A66822   3.512  13.016   7.294
 5258POPC   C1B66823   3.500  12.610   6.299
 5258POPC   C2B66824   3.350  12.635   6.750
 5258POPC   C3B66825   3.322  12.540   7.220
 5258POPC   C4B66826   3.473  12.618   7.671
 5259POPC   NC366827  32.136  25.363   5.430
 5259POPC   PO466828  32.673  24.947   5.398
 5259POPC   GL166829  32.390  25.078   5.782
 5259POPC   GL266830  32.075  24.897   5.698
 5259POPC   C1A66831  32.174  25.386   6.099
 5259POPC   D2A66832  32.115  25.611   6.508
 5259POPC   C3A66833  32.040  25.352   6.870
 5259POPC   C4A66834  32.194  25.346   7.280
 5259POPC   C1B66835  32.008  24.890   6.125
 5259POPC   C2B66836  32.199  25.042   6.503
 5259POPC   C3B66837  32.210  24.888   6.945
 5259POPC   C4B66838  31.967  24.845   7.319
 5260POPC   NC366839  12.067  16.093   5.553
 5260POPC   PO466840  11.734  16.637   5.650
 5260POPC   GL166841  11.853  16.225   5.986
 5260POPC   GL266842  12.228  16.019   6.007
 5260POPC   C1A66843  11.892  15.914   6.379
 5260POPC   D2A66844  11.818  15.936   6.848
 5260POPC   C3A66845  11.963  16.303   7.068
 5260POPC   C4A66846  12.319  16.236   7.331
 5260POPC   C1B66847  12.509  15.805   6.282
 5260POPC   C2B66848  12.436  15.644   6.686
 5260POPC   C3B66849  12.209  15.685   7.066
 5260POPC   C4B66850  11.834  15.510   7.270
 5261POPC   NC366851   4.238  23.494   5.464
 5261POPC   PO466852   4.691  23.928   5.269
 5261POPC   GL166853   4.450  23.871   5.744
 5261POPC   GL266854   4.054  23.791   5.815
 5261POPC   C1A66855   4.417  23.722   6.205
 5261POPC   D2A66856   4.583  23.615   6.660
 5261POPC   C3A66857   4.342  23.843   7.015
 5261POPC   C4A66858   4.038  24.128   7.215
 5261POPC   C1B66859   3.911  23.625   6.193
 5261POPC   C2B66860   4.064  23.684   6.617
 5261POPC   C3B66861   4.196  23.370   6.960
 5261POPC   C4B66862   3.939  23.442   7.340
 5262POPC   NC366863  25.226  41.144   5.456
 5262POPC   PO466864  24.900  40.478   5.511
 5262POPC   GL166865  25.110  40.545   5.889
 5262POPC   GL266866  24.952  40.288   6.008
 5262POPC   C1A66867  25.208  40.912   6.162
 5262POPC   D2A66868  25.181  41.244   6.489
 5262POPC   C3A66869  25.301  41.062   6.865
 5262POPC   C4A66870  25.511  40.957   7.211
 5262POPC   C1B66871  25.092  40.258   6.397
 5262POPC   C2B66872  25.238  40.612   6.592
 5262POPC   C3B66873  25.331  40.546   6.987
 5262POPC   C4B66874  25.123  40.398   7.285
 5263POPC   NC366875  23.928  30.197   5.505
 5263POPC   PO466876  23.858  30.890   5.395
 5263POPC   GL166877  23.798  30.894   5.821
 5263POPC   GL266878  23.641  30.540   5.801
 5263POPC   C1A66879  23.825  30.770   6.241
 5263POPC   D2A66880  23.627  30.868   6.619
 5263POPC   C3A66881  23.882  30.805   6.958
 5263POPC   C4A66882  23.748  30.729   7.356
 5263POPC   C1B66883  23.729  30.280   6.171
 5263POPC   C2B66884  23.789  30.389   6.601
 5263POPC   C3B66885  23.711  30.316   7.036
 5263POPC   C4B66886  24.122  30.266   7.268
 5264POPC   NC366887   3.772  13.902   5.329
 5264POPC   PO466888   3.196  13.579   5.318
 5264POPC   GL166889   3.211  13.515   5.752
 5264POPC   GL266890   3.075  13.811   5.901
 5264POPC   C1A66891   3.527  13.605   6.097
 5264POPC   D2A66892   3.585  13.877   6.467
 5264POPC   C3A66893   3.675  13.712   6.901
 5264POPC   C4A66894   3.377  13.843   7.192
 5264POPC   C1B66895   3.053  13.468   6.230
 5264POPC   C2B66896   3.355  13.369   6.562
 5264POPC   C3B66897   3.278  13.365   6.991
 5264POPC   C4B66898   3.129  13.371   7.386
 5265POPC   NC366899  38.843  27.859   5.543
 5265POPC   PO466900  39.341  27.478   5.441
 5265POPC   GL166901  39.387  27.749   5.802
 5265POPC   GL266902  39.085  27.930   5.975
 5265POPC   C1A66903  39.524  27.650   6.218
 5265POPC   D2A66904  39.352  27.463   6.601
 5265POPC   C3A66905  39.440  27.504   7.034
 5265POPC   C4A66906  39.187  27.799   7.285
 5265POPC   C1B66907  39.013  27.551   6.152
 5265POPC   C2B66908  38.839  27.467   6.545
 5265POPC   C3B66909  38.930  27.451   6.959
 5265POPC   C4B66910  38.864  27.397   7.380
 5266POPC   NC366911   1.634  22.882   5.253
 5266POPC   PO466912   1.089  23.158   5.379
 5266POPC   GL166913   1.298  22.992   5.755
 5266POPC   GL266914   1.385  22.648   5.720
 5266POPC   C1A66915   1.177  23.080   6.210
 5266POPC   D2A66916   1.409  23.212   6.578
 5266POPC   C3A66917   1.234  23.075   6.996
 5266POPC   C4A66918   0.909  22.795   7.201
 5266POPC   C1B66919   1.191  22.576   6.134
 5266POPC   C2B66920   1.361  22.686   6.548
 5266POPC   C3B66921   1.311  22.549   6.969
 5266POPC   C4B66922   1.452  22.765   7.344
 5267POPC   NC366923  30.110  32.099   5.447
 5267POPC   PO466924  29.693  31.714   5.776
 5267POPC   GL166925  30.030  32.010   5.919
 5267POPC   GL266926  29.894  32.339   5.872
 5267POPC   C1A66927  30.257  32.071   6.276
 5267POPC   D2A66928  30.141  32.293   6.647
 5267POPC   C3A66929  29.939  32.140   7.030
 5267POPC   C4A66930  30.043  32.068   7.479
 5267POPC   C1B66931  29.750  32.215   6.312
 5267POPC   C2B66932  29.663  32.451   6.708
 5267POPC   C3B66933  29.732  32.590   7.146
 5267POPC   C4B66934  29.609  32.380   7.555
 5268POPC   NC366935   0.701  37.489   5.623
 5268POPC   PO466936   0.037  37.685   5.518
 5268POPC   GL166937   0.302  37.715   5.869
 5268POPC   GL266938   0.534  37.968   5.743
 5268POPC   C1A66939   0.413  37.568   6.295
 5268POPC   D2A66940   0.242  37.736   6.720
 5268POPC   C3A66941   0.337  37.557   7.126
 5268POPC   C4A66942   0.363  37.856   7.447
 5268POPC   C1B66943   0.684  37.997   6.167
 5268POPC   C2B66944   0.715  37.855   6.583
 5268POPC   C3B66945   0.689  37.916   7.009
 5268POPC   C4B66946   0.826  37.673   7.353
 5269POPC   NC366947  30.137  20.877   5.497
 5269POPC   PO466948  29.690  20.350   5.438
 5269POPC   GL166949  29.818  20.558   5.803
 5269POPC   GL266950  29.648  20.890   5.825
 5269POPC   C1A66951  30.102  20.498   6.155
 5269POPC   D2A66952  30.297  20.641   6.529
 5269POPC   C3A66953  30.201  20.424   6.941
 5269POPC   C4A66954  30.147  20.658   7.356
 5269POPC   C1B66955  29.728  20.812   6.252
 5269POPC   C2B66956  29.818  20.540   6.591
 5269POPC   C3B66957  29.890  20.816   6.949
 5269POPC   C4B66958  29.669  20.811   7.322
 5270POPC   NC366959   6.383  41.429   5.473
 5270POPC   PO466960   7.000  41.550   5.746
 5270POPC   GL166961   6.687  41.417   5.900
 5270POPC   GL266962   6.530  41.709   5.877
 5270POPC   C1A66963   6.732  41.243   6.292
 5270POPC   D2A66964   6.865  41.427   6.659
 5270POPC   C3A66965   6.664  41.244   7.029
 5270POPC   C4A66966   6.348  41.183   7.368
 5270POPC   C1B66967   6.621  41.745   6.305
 5270POPC   C2B66968   6.514  41.908   6.672
 5270POPC   C3B66969   6.779  41.802   7.001
 5270POPC   C4B66970   6.860  41.846   7.407
 5271POPC   NC366971  11.139  29.999   5.152
 5271POPC   PO466972  11.665  29.641   5.448
 5271POPC   GL166973  11.474  29.947   5.685
 5271POPC   GL266974  11.804  30.086   5.812
 5271POPC   C1A66975  11.123  29.884   5.978
 5271POPC   D2A66976  10.999  29.965   6.433
 5271POPC   C3A66977  11.288  29.815   6.751
 5271POPC   C4A66978  11.343  29.844   7.207
 5271POPC   C1B66979  11.638  29.848   6.159
 5271POPC   C2B66980  11.702  30.048   6.523
 5271POPC   C3B66981  11.642  30.158   6.926
 5271POPC   C4B66982  11.804  30.136   7.308
 5272POPC   NC366983  27.646  23.377   5.473
 5272POPC   PO466984  27.933  22.716   5.477
 5272POPC   GL166985  27.778  22.789   5.909
 5272POPC   GL266986  27.540  23.051   5.895
 5272POPC   C1A66987  27.485  22.689   6.258
 5272POPC   D2A66988  27.429  22.880   6.671
 5272POPC   C3A66989  27.581  22.788   7.062
 5272POPC   C4A66990  27.972  22.872   7.237
 5272POPC   C1B66991  27.676  23.175   6.312
 5272POPC   C2B66992  27.611  23.383   6.716
 5272POPC   C3B66993  27.598  23.283   7.169
 5272POPC   C4B66994  27.430  23.495   7.588
 5273POPC   NC366995  20.133  11.893   5.703
 5273POPC   PO466996  20.607  11.953   5.212
 5273POPC   GL166997  20.717  12.258   5.614
 5273POPC   GL266998  20.413  12.330   5.813
 5273POPC   C1A66999  20.896  12.282   6.081
 5273POPC   D2A67000  20.848  12.194   6.571
 5273POPC   C3A67001  20.594  12.334   6.952
 5273POPC   C4A67002  20.764  12.571   7.327
 5273POPC   C1B67003  20.433  12.168   6.250
 5273POPC   C2B67004  20.395  11.949   6.634
 5273POPC   C3B67005  20.621  11.819   7.000
 5273POPC   C4B67006  20.546  12.026   7.394
 5274POPC   NC367007   6.526   4.760   5.531
 5274POPC   PO467008   6.301   5.381   5.218
 5274POPC   GL167009   6.576   5.361   5.736
 5274POPC   GL267010   6.831   5.102   5.778
 5274POPC   C1A67011   6.804   5.440   6.182
 5274POPC   D2A67012   6.914   5.326   6.624
 5274POPC   C3A67013   6.718   5.135   7.009
 5274POPC   C4A67014   6.525   5.255   7.407
 5274POPC   C1B67015   6.740   4.910   6.212
 5274POPC   C2B67016   6.405   4.760   6.502
 5274POPC   C3B67017   6.332   4.616   6.914
 5274POPC   C4B67018   6.284   4.841   7.274
 5275POPC   NC367019  20.429  31.622   5.088
 5275POPC   PO467020  19.850  31.421   5.508
 5275POPC   GL167021  19.852  31.622   5.888
 5275POPC   GL267022  19.761  31.294   6.036
 5275POPC   C1A67023  19.601  31.749   6.237
 5275POPC   D2A67024  19.822  31.532   6.512
 5275POPC   C3A67025  19.788  31.664   6.892
 5275POPC   C4A67026  19.726  31.367   7.208
 5275POPC   C1B67027  20.088  31.128   6.280
 5275POPC   C2B67028  20.270  31.256   6.639
 5275POPC   C3B67029  20.171  31.214   7.041
 5275POPC   C4B67030  20.188  30.840   7.273
 5276POPC   NC367031  13.222  23.478   5.540
 5276POPC   PO467032  13.830  23.878   5.484
 5276POPC   GL167033  13.655  23.659   5.822
 5276POPC   GL267034  13.359  23.813   5.916
 5276POPC   C1A67035  13.790  23.740   6.259
 5276POPC   D2A67036  14.075  23.780   6.583
 5276POPC   C3A67037  13.887  23.628   6.929
 5276POPC   C4A67038  13.796  23.742   7.322
 5276POPC   C1B67039  13.398  23.429   6.211
 5276POPC   C2B67040  13.467  23.560   6.647
 5276POPC   C3B67041  13.393  23.779   7.040
 5276POPC   C4B67042  13.372  23.914   7.508
 5277POPC   NC367043  35.456  43.264   5.393
 5277POPC   PO467044  34.838  42.913   5.455
 5277POPC   GL167045  35.034  43.014   5.856
 5277POPC   GL267046  35.414  43.041   5.844
 5277POPC   C1A67047  35.185  42.931   6.273
 5277POPC   D2A67048  35.487  43.147   6.503
 5277POPC   C3A67049  35.383  43.068   6.889
 5277POPC   C4A67050  35.196  42.923   7.278
 5277POPC   C1B67051  35.261  43.407   6.127
 5277POPC   C2B67052  35.380  43.709   6.428
 5277POPC   C3B67053  35.500  43.581   6.853
 5277POPC   C4B67054  35.548  43.373   7.246
 5278POPC   NC367055  13.915   2.334   5.574
 5278POPC   PO467056  13.434   2.017   5.214
 5278POPC   GL167057  13.489   1.940   5.671
 5278POPC   GL267058  13.837   1.873   5.771
 5278POPC   C1A67059  13.347   1.927   6.115
 5278POPC   D2A67060  13.315   1.663   6.512
 5278POPC   C3A67061  13.368   1.802   6.944
 5278POPC   C4A67062  13.547   1.941   7.326
 5278POPC   C1B67063  13.894   1.804   6.210
 5278POPC   C2B67064  13.799   1.639   6.625
 5278POPC   C3B67065  13.924   1.758   7.026
 5278POPC   C4B67066  13.976   1.705   7.492
 5279POPC   NC367067  32.719  11.603   5.435
 5279POPC   PO467068  33.075  12.175   5.263
 5279POPC   GL167069  32.963  12.112   5.741
 5279POPC   GL267070  32.844  11.779   5.895
 5279POPC   C1A67071  33.103  12.117   6.206
 5279POPC   D2A67072  33.319  11.869   6.550
 5279POPC   C3A67073  33.297  11.946   7.011
 5279POPC   C4A67074  33.241  12.305   7.272
 5279POPC   C1B67075  32.903  11.650   6.331
 5279POPC   C2B67076  32.801  11.984   6.621
 5279POPC   C3B67077  32.819  12.184   6.997
 5279POPC   C4B67078  32.885  11.958   7.379
 5280POPC   NC367079   5.336  28.271   5.412
 5280POPC   PO467080   4.685  28.600   5.582
 5280POPC   GL167081   5.001  28.413   5.819
 5280POPC   GL267082   5.201  28.697   5.835
 5280POPC   C1A67083   5.021  28.483   6.274
 5280POPC   D2A67084   5.102  28.339   6.686
 5280POPC   C3A67085   4.964  28.603   7.020
 5280POPC   C4A67086   5.070  28.340   7.323
 5280POPC   C1B67087   5.447  28.768   6.208
 5280POPC   C2B67088   5.553  28.609   6.642
 5280POPC   C3B67089   5.472  28.536   7.111
 5280POPC   C4B67090   5.404  28.565   7.628
 5281POPC   NC367091   7.856  37.432   5.585
 5281POPC   PO467092   8.262  37.984   5.502
 5281POPC   GL167093   8.228  37.742   5.865
 5281POPC   GL267094   8.519  37.531   5.766
 5281POPC   C1A67095   8.088  37.693   6.318
 5281POPC   D2A67096   8.078  37.632   6.799
 5281POPC   C3A67097   8.256  37.917   7.095
 5281POPC   C4A67098   8.387  37.852   7.547
 5281POPC   C1B67099   8.513  37.442   6.215
 5281POPC   C2B67100   8.540  37.669   6.614
 5281POPC   C3B67101   8.567  37.524   7.031
 5281POPC   C4B67102   8.762  37.443   7.403
 5282POPC   NC367103  32.631  43.048   5.579
 5282POPC   PO467104  32.200  43.393   5.265
 5282POPC   GL167105  32.174  43.322   5.719
 5282POPC   GL267106  32.185  43.007   5.846
 5282POPC   C1A67107  31.967  43.317   6.151
 5282POPC   D2A67108  32.148  43.124   6.496
 5282POPC   C3A67109  32.044  43.362   6.839
 5282POPC   C4A67110  32.252  43.452   7.220
 5282POPC   C1B67111  31.923  42.813   6.135
 5282POPC   C2B67112  31.872  42.698   6.584
 5282POPC   C3B67113  32.102  42.844   6.962
 5282POPC   C4B67114  31.932  42.701   7.346
 5283POPC   NC367115   8.336   6.329   5.508
 5283POPC   PO467116   8.034   6.960   5.364
 5283POPC   GL167117   8.304   6.808   5.735
 5283POPC   GL267118   8.515   6.586   5.901
 5283POPC   C1A67119   8.330   6.950   6.175
 5283POPC   D2A67120   8.092   6.911   6.535
 5283POPC   C3A67121   8.358   7.041   6.839
 5283POPC   C4A67122   8.437   7.053   7.241
 5283POPC   C1B67123   8.251   6.452   6.270
 5283POPC   C2B67124   8.155   6.422   6.707
 5283POPC   C3B67125   8.267   6.583   7.091
 5283POPC   C4B67126   8.562   6.262   7.186
 5284POPC   NC367127  26.960   2.084   5.352
 5284POPC   PO467128  27.140   1.556   5.639
 5284POPC   GL167129  26.918   1.750   5.965
 5284POPC   GL267130  26.904   2.089   5.886
 5284POPC   C1A67131  26.559   1.895   6.220
 5284POPC   D2A67132  26.595   2.039   6.645
 5284POPC   C3A67133  26.614   2.173   7.063
 5284POPC   C4A67134  26.873   1.840   7.203
 5284POPC   C1B67135  27.050   2.075   6.359
 5284POPC   C2B67136  27.098   2.166   6.833
 5284POPC   C3B67137  27.064   2.316   7.284
 5284POPC   C4B67138  27.052   2.468   7.686
 5285POPC   NC367139  10.836  44.656   5.251
 5285POPC   PO467140  10.149  44.770   5.427
 5285POPC   GL167141  10.426  44.651   5.769
 5285POPC   GL267142  10.793  44.749   5.783
 5285POPC   C1A67143  10.395  44.593   6.222
 5285POPC   D2A67144  10.237  44.444   6.612
 5285POPC   C3A67145  10.410  44.661   6.950
 5285POPC   C4A67146  10.308  44.551   7.340
 5285POPC   C1B67147  10.895  44.531   6.171
 5285POPC   C2B67148  10.793  44.576   6.602
 5285POPC   C3B67149  10.906  44.608   7.036
 5285POPC   C4B67150  10.793  44.524   7.425
 5286POPC   NC367151  22.280  37.562   4.885
 5286POPC   PO467152  21.947  37.757   5.500
 5286POPC   GL167153  22.026  37.688   5.903
 5286POPC   GL267154  22.280  37.466   5.863
 5286POPC   C1A67155  22.045  37.918   6.310
 5286POPC   D2A67156  22.112  38.088   6.708
 5286POPC   C3A67157  22.056  37.793   7.039
 5286POPC   C4A67158  21.831  37.679   7.405
 5286POPC   C1B67159  22.489  37.749   6.157
 5286POPC   C2B67160  22.415  37.699   6.593
 5286POPC   C3B67161  22.563  37.843   6.980
 5286POPC   C4B67162  22.408  37.922   7.418
 5287POPC   NC367163  10.606  37.886   5.351
 5287POPC   PO467164  10.350  37.300   5.454
 5287POPC   GL167165  10.541  37.565   5.779
 5287POPC   GL267166  10.478  37.950   5.829
 5287POPC   C1A67167  10.518  37.443   6.214
 5287POPC   D2A67168  10.540  37.636   6.608
 5287POPC   C3A67169  10.741  37.504   6.959
 5287POPC   C4A67170  10.499  37.405   7.298
 5287POPC   C1B67171  10.323  37.933   6.246
 5287POPC   C2B67172  10.343  38.119   6.646
 5287POPC   C3B67173  10.451  37.938   7.037
 5287POPC   C4B67174  10.181  38.020   7.358
 5288POPC   NC367175   3.144   9.918   5.407
 5288POPC   PO467176   3.770   9.629   5.378
 5288POPC   GL167177   3.526   9.516   5.761
 5288POPC   GL267178   3.173   9.572   5.813
 5288POPC   C1A67179   3.518   9.504   6.204
 5288POPC   D2A67180   3.340   9.384   6.545
 5288POPC   C3A67181   3.498   9.579   6.901
 5288POPC   C4A67182   3.803   9.790   7.187
 5288POPC   C1B67183   3.380   9.951   6.044
 5288POPC   C2B67184   3.409   9.963   6.505
 5288POPC   C3B67185   3.326  10.070   6.935
 5288POPC   C4B67186   3.298   9.802   7.314
 5289POPC   NC367187  31.716  20.935   5.459
 5289POPC   PO467188  31.360  20.396   5.506
 5289POPC   GL167189  31.396  20.731   5.817
 5289POPC   GL267190  31.723  20.573   5.838
 5289POPC   C1A67191  31.282  20.862   6.256
 5289POPC   D2A67192  31.542  20.701   6.613
 5289POPC   C3A67193  31.540  20.880   6.982
 5289POPC   C4A67194  31.329  20.780   7.306
 5289POPC   C1B67195  31.539  20.409   6.199
 5289POPC   C2B67196  31.175  20.340   6.484
 5289POPC   C3B67197  31.204  20.394   6.940
 5289POPC   C4B67198  31.582  20.322   7.188
 5290POPC   NC367199  17.317  34.560   5.371
 5290POPC   PO467200  17.935  34.451   5.389
 5290POPC   GL167201  17.700  34.610   5.741
 5290POPC   GL267202  17.377  34.741   5.852
 5290POPC   C1A67203  17.790  34.677   6.172
 5290POPC   D2A67204  17.723  34.425   6.546
 5290POPC   C3A67205  17.675  34.614   6.967
 5290POPC   C4A67206  17.744  34.458   7.385
 5290POPC   C1B67207  17.282  34.611   6.279
 5290POPC   C2B67208  17.208  34.602   6.716
 5290POPC   C3B67209  17.253  34.878   7.082
 5290POPC   C4B67210  17.363  34.793   7.507
 5291POPC   NC367211  27.097  18.028   5.455
 5291POPC   PO467212  26.641  18.519   5.607
 5291POPC   GL167213  26.708  18.166   5.811
 5291POPC   GL267214  26.452  17.957   5.667
 5291POPC   C1A67215  26.784  18.246   6.253
 5291POPC   D2A67216  26.992  18.335   6.613
 5291POPC   C3A67217  26.773  18.359   6.959
 5291POPC   C4A67218  26.846  18.249   7.370
 5291POPC   C1B67219  26.388  17.944   6.141
 5291POPC   C2B67220  26.599  17.846   6.542
 5291POPC   C3B67221  26.446  17.930   6.952
 5291POPC   C4B67222  26.598  17.817   7.315
 5292POPC   NC367223  13.650  11.762   5.416
 5292POPC   PO467224  13.698  12.410   5.319
 5292POPC   GL167225  13.725  12.177   5.752
 5292POPC   GL267226  13.413  12.099   5.940
 5292POPC   C1A67227  13.830  12.134   6.231
 5292POPC   D2A67228  13.942  11.997   6.643
 5292POPC   C3A67229  13.851  12.171   7.050
 5292POPC   C4A67230  13.736  11.877   7.383
 5292POPC   C1B67231  13.485  12.506   6.153
 5292POPC   C2B67232  13.596  12.489   6.581
 5292POPC   C3B67233  13.426  12.159   6.813
 5292POPC   C4B67234  13.296  12.129   7.235
 5293POPC   NC367235  37.266  21.135   5.489
 5293POPC   PO467236  37.985  21.424   5.485
 5293POPC   GL167237  37.843  21.493   5.873
 5293POPC   GL267238  37.657  21.188   5.861
 5293POPC   C1A67239  37.646  21.497   6.289
 5293POPC   D2A67240  37.568  21.588   6.728
 5293POPC   C3A67241  37.367  21.315   7.022
 5293POPC   C4A67242  37.213  21.583   7.358
 5293POPC   C1B67243  37.972  21.093   6.202
 5293POPC   C2B67244  37.816  21.115   6.610
 5293POPC   C3B67245  37.878  21.224   7.021
 5293POPC   C4B67246  37.746  21.601   7.225
 5294POPC   NC367247  25.136  30.555   5.447
 5294POPC   PO467248  25.739  30.687   5.435
 5294POPC   GL167249  25.506  30.587   5.823
 5294POPC   GL267250  25.156  30.603   5.947
 5294POPC   C1A67251  25.552  30.524   6.277
 5294POPC   D2A67252  25.489  30.367   6.666
 5294POPC   C3A67253  25.348  30.679   6.969
 5294POPC   C4A67254  25.342  30.907   7.373
 5294POPC   C1B67255  24.992  30.562   6.365
 5294POPC   C2B67256  24.995  30.344   6.747
 5294POPC   C3B67257  25.047  30.368   7.223
 5294POPC   C4B67258  25.024  30.596   7.620
 5295POPC   NC367259  21.694   7.770   5.500
 5295POPC   PO467260  21.340   7.162   5.430
 5295POPC   GL167261  21.450   7.400   5.781
 5295POPC   GL267262  21.685   7.134   5.845
 5295POPC   C1A67263  21.378   7.605   6.198
 5295POPC   D2A67264  21.372   7.504   6.663
 5295POPC   C3A67265  21.554   7.597   7.107
 5295POPC   C4A67266  21.145   7.744   7.107
 5295POPC   C1B67267  21.393   7.075   6.194
 5295POPC   C2B67268  21.405   6.984   6.624
 5295POPC   C3B67269  21.315   7.148   7.043
 5295POPC   C4B67270  21.437   7.082   7.458
 5296POPC   NC367271  33.281  37.092   5.414
 5296POPC   PO467272  33.113  36.464   5.338
 5296POPC   GL167273  33.310  36.661   5.708
 5296POPC   GL267274  32.994  36.799   5.754
 5296POPC   C1A67275  33.370  36.901   6.109
 5296POPC   D2A67276  33.296  37.133   6.513
 5296POPC   C3A67277  33.135  36.886   6.861
 5296POPC   C4A67278  32.874  36.852   7.234
 5296POPC   C1B67279  32.863  37.060   6.081
 5296POPC   C2B67280  32.777  37.025   6.502
 5296POPC   C3B67281  32.692  37.168   6.906
 5296POPC   C4B67282  32.486  37.283   7.311
 5297POPC   NC367283  40.015  19.537   5.215
 5297POPC   PO467284  39.974  20.188   5.374
 5297POPC   GL167285  40.144  20.020   5.776
 5297POPC   GL267286  40.188  19.630   5.737
 5297POPC   C1A67287  40.043  20.122   6.222
 5297POPC   D2A67288  39.737  20.087   6.584
 5297POPC   C3A67289  39.895  20.175   6.993
 5297POPC   C4A67290  40.359  20.178   7.144
 5297POPC   C1B67291  40.278  19.662   6.184
 5297POPC   C2B67292  40.139  19.743   6.593
 5297POPC   C3B67293  40.146  19.728   7.032
 5297POPC   C4B67294  39.703  19.663   7.103
 5298POPC   NC367295  20.882  29.787   5.535
 5298POPC   PO467296  20.395  30.257   5.377
 5298POPC   GL167297  20.355  30.047   5.812
 5298POPC   GL267298  20.411  29.683   5.772
 5298POPC   C1A67299  20.509  29.940   6.271
 5298POPC   D2A67300  20.694  29.924   6.718
 5298POPC   C3A67301  20.513  30.140   7.084
 5298POPC   C4A67302  20.642  30.121   7.536
 5298POPC   C1B67303  20.219  29.503   6.152
 5298POPC   C2B67304  20.150  29.647   6.569
 5298POPC   C3B67305  20.357  29.567   6.952
 5298POPC   C4B67306  20.426  29.696   7.358
 5299POPC   NC367307  28.100  29.371   5.398
 5299POPC   PO467308  28.086  28.707   5.513
 5299POPC   GL167309  28.234  29.029   5.788
 5299POPC   GL267310  27.958  29.236   5.914
 5299POPC   C1A67311  28.475  29.266   6.072
 5299POPC   D2A67312  28.557  29.291   6.481
 5299POPC   C3A67313  28.256  29.285   6.791
 5299POPC   C4A67314  28.443  29.167   7.163
 5299POPC   C1B67315  28.090  29.017   6.321
 5299POPC   C2B67316  28.033  28.805   6.725
 5299POPC   C3B67317  27.953  29.003   7.135
 5299POPC   C4B67318  27.979  29.441   7.289
 5300POPC   NC367319  41.950  14.403   5.488
 5300POPC   PO467320  42.659  14.543   5.477
 5300POPC   GL167321  42.366  14.423   5.809
 5300POPC   GL267322  42.128  14.129   5.860
 5300POPC   C1A67323  42.234  14.500   6.215
 5300POPC   D2A67324  42.193  14.745   6.552
 5300POPC   C3A67325  42.474  14.636   6.865
 5300POPC   C4A67326  42.532  14.462   7.264
 5300POPC   C1B67327  42.409  14.015   6.169
 5300POPC   C2B67328  42.390  13.872   6.586
 5300POPC   C3B67329  42.285  14.142   6.935
 5300POPC   C4B67330  42.146  14.145   7.370
 5301POPC   NC367331  18.331  14.388   5.443
 5301POPC   PO467332  17.705  14.605   5.325
 5301POPC   GL167333  17.984  14.618   5.764
 5301POPC   GL267334  18.370  14.670   5.867
 5301POPC   C1A67335  18.102  14.431   6.202
 5301POPC   D2A67336  18.249  14.695   6.560
 5301POPC   C3A67337  18.172  14.525   6.957
 5301POPC   C4A67338  18.237  14.181   7.209
 5301POPC   C1B67339  18.613  14.495   6.233
 5301POPC   C2B67340  18.610  14.334   6.664
 5301POPC   C3B67341  18.689  14.453   7.084
 5301POPC   C4B67342  18.462  14.726   7.317
 5302POPC   NC367343  14.609  13.121   5.547
 5302POPC   PO467344  14.476  12.448   5.445
 5302POPC   GL167345  14.450  12.676   5.822
 5302POPC   GL267346  14.218  12.953   5.817
 5302POPC   C1A67347  14.484  12.779   6.265
 5302POPC   D2A67348  14.366  12.929   6.671
 5302POPC   C3A67349  14.546  12.628   6.928
 5302POPC   C4A67350  14.401  12.460   7.299
 5302POPC   C1B67351  14.140  13.190   6.194
 5302POPC   C2B67352  14.101  13.385   6.590
 5302POPC   C3B67353  14.038  13.224   7.010
 5302POPC   C4B67354  14.361  12.992   7.216
 5303POPC   NC367355  23.247   9.842   5.340
 5303POPC   PO467356  22.587   9.976   5.508
 5303POPC   GL167357  22.936   9.895   5.793
 5303POPC   GL267358  22.909   9.547   5.722
 5303POPC   C1A67359  23.035   9.927   6.245
 5303POPC   D2A67360  22.858  10.065   6.625
 5303POPC   C3A67361  22.989   9.866   6.925
 5303POPC   C4A67362  23.084   9.778   7.286
 5303POPC   C1B67363  22.920   9.436   6.167
 5303POPC   C2B67364  23.099   9.512   6.587
 5303POPC   C3B67365  22.912   9.340   6.980
 5303POPC   C4B67366  22.828   9.381   7.437
 5304POPC   NC367367  44.990  22.498   5.571
 5304POPC   PO467368  44.977  21.843   5.370
 5304POPC   GL167369  44.744  22.094   5.789
 5304POPC   GL267370  44.366  22.199   5.914
 5304POPC   C1A67371  44.744  22.291   6.258
 5304POPC   D2A67372  44.720  22.400   6.713
 5304POPC   C3A67373  44.551  22.041   6.995
 5304POPC   C4A67374  44.490  21.985   7.459
 5304POPC   C1B67375  44.258  22.453   6.336
 5304POPC   C2B67376  44.213  22.416   6.811
 5304POPC   C3B67377  44.378  22.463   7.248
 5304POPC   C4B67378  44.242  22.412   7.690
 5305POPC   NC367379  42.675  35.815   5.644
 5305POPC   PO467380  42.428  35.269   5.306
 5305POPC   GL167381  42.340  35.274   5.701
 5305POPC   GL267382  42.196  35.584   5.688
 5305POPC   C1A67383  42.515  35.200   6.108
 5305POPC   D2A67384  42.708  35.237   6.516
 5305POPC   C3A67385  42.407  35.237   6.843
 5305POPC   C4A67386  42.251  34.940   7.147
 5305POPC   C1B67387  42.140  35.555   6.113
 5305POPC   C2B67388  42.141  35.579   6.550
 5305POPC   C3B67389  42.061  35.638   6.990
 5305POPC   C4B67390  42.364  35.539   7.279
 5306POPC   NC367391   4.499  33.103   5.118
 5306POPC   PO467392   4.123  33.068   5.693
 5306POPC   GL167393   4.389  32.853   6.000
 5306POPC   GL267394   4.651  32.634   5.804
 5306POPC   C1A67395   4.378  33.078   6.403
 5306POPC   D2A67396   4.193  33.388   6.719
 5306POPC   C3A67397   4.440  33.245   7.034
 5306POPC   C4A67398   4.310  32.837   7.079
 5306POPC   C1B67399   4.774  32.576   6.243
 5306POPC   C2B67400   4.632  32.695   6.654
 5306POPC   C3B67401   4.794  32.779   7.066
 5306POPC   C4B67402   4.615  32.695   7.495
 5307POPC   NC367403  18.485  27.536   5.301
 5307POPC   PO467404  18.566  28.151   5.416
 5307POPC   GL167405  18.385  27.845   5.749
 5307POPC   GL267406  18.197  27.523   5.735
 5307POPC   C1A67407  18.357  27.676   6.208
 5307POPC   D2A67408  18.239  27.829   6.641
 5307POPC   C3A67409  18.537  27.775   6.995
 5307POPC   C4A67410  18.379  27.765   7.390
 5307POPC   C1B67411  17.929  27.390   6.104
 5307POPC   C2B67412  18.064  27.320   6.545
 5307POPC   C3B67413  18.124  27.466   6.976
 5307POPC   C4B67414  18.130  27.319   7.371
 5308POPC   NC367415  28.901  17.327   5.391
 5308POPC   PO467416  29.248  17.929   5.430
 5308POPC   GL167417  29.225  17.606   5.786
 5308POPC   GL267418  29.041  17.314   5.866
 5308POPC   C1A67419  29.181  17.605   6.256
 5308POPC   D2A67420  29.303  17.802   6.647
 5308POPC   C3A67421  29.228  17.585   7.038
 5308POPC   C4A67422  29.205  17.157   7.222
 5308POPC   C1B67423  28.908  17.133   6.231
 5308POPC   C2B67424  28.995  17.274   6.635
 5308POPC   C3B67425  28.733  17.332   6.951
 5308POPC   C4B67426  28.800  17.463   7.340
 5309POPC   NC367427   6.508  13.354   5.521
 5309POPC   PO467428   6.797  13.882   5.189
 5309POPC   GL167429   6.607  13.828   5.675
 5309POPC   GL267430   6.780  13.542   5.903
 5309POPC   C1A67431   6.662  13.967   6.150
 5309POPC   D2A67432   6.841  13.712   6.507
 5309POPC   C3A67433   6.716  13.795   6.952
 5309POPC   C4A67434   6.707  13.725   7.395
 5309POPC   C1B67435   6.569  13.336   6.261
 5309POPC   C2B67436   6.462  13.411   6.702
 5309POPC   C3B67437   6.392  13.400   7.146
 5309POPC   C4B67438   6.579  13.276   7.577
 5310POPC   NC367439  21.466  37.444   5.344
 5310POPC   PO467440  21.211  38.029   5.592
 5310POPC   GL167441  21.507  37.748   5.803
 5310POPC   GL267442  21.375  37.401   5.847
 5310POPC   C1A67443  21.625  37.659   6.232
 5310POPC   D2A67444  21.785  37.595   6.654
 5310POPC   C3A67445  21.521  37.737   6.990
 5310POPC   C4A67446  21.347  38.024   7.289
 5310POPC   C1B67447  21.137  37.536   6.221
 5310POPC   C2B67448  21.192  37.441   6.672
 5310POPC   C3B67449  21.026  37.507   7.088
 5310POPC   C4B67450  20.851  37.198   7.342
 5311POPC   NC367451  27.325   0.237   5.451
 5311POPC   PO467452  27.848   0.452   5.159
 5311POPC   GL167453  27.832   0.314   5.640
 5311POPC   GL267454  27.579   0.111   5.864
 5311POPC   C1A67455  27.865   0.437   6.112
 5311POPC   D2A67456  27.570   0.364   6.425
 5311POPC   C3A67457  27.589   0.405   6.843
 5311POPC   C4A67458  27.719   0.517   7.234
 5311POPC   C1B67459  27.213   0.332   6.076
 5311POPC   C2B67460  27.059   0.251   6.489
 5311POPC   C3B67461  27.040   0.361   6.889
 5311POPC   C4B67462  27.265   0.294   7.233
 5312POPC   NC367463  22.498   3.039   5.328
 5312POPC   PO467464  22.198   2.476   5.370
 5312POPC   GL167465  22.142   2.726   5.770
 5312POPC   GL267466  22.286   3.064   5.794
 5312POPC   C1A67467  21.961   2.627   6.180
 5312POPC   D2A67468  21.869   2.770   6.589
 5312POPC   C3A67469  22.076   2.645   6.958
 5312POPC   C4A67470  22.014   2.475   7.347
 5312POPC   C1B67471  22.119   3.114   6.224
 5312POPC   C2B67472  22.289   3.088   6.652
 5312POPC   C3B67473  22.330   3.048   7.097
 5312POPC   C4B67474  22.443   2.997   7.534
 5313POPC   NC367475   7.401   4.801   5.141
 5313POPC   PO467476   7.310   4.244   5.471
 5313POPC   GL167477   7.275   4.018   5.867
 5313POPC   GL267478   7.529   4.237   5.934
 5313POPC   C1A67479   7.460   3.925   6.313
 5313POPC   D2A67480   7.673   4.002   6.695
 5313POPC   C3A67481   7.307   4.062   6.949
 5313POPC   C4A67482   7.141   3.876   7.308
 5313POPC   C1B67483   7.483   4.473   6.312
 5313POPC   C2B67484   7.485   4.509   6.747
 5313POPC   C3B67485   7.254   4.547   7.091
 5313POPC   C4B67486   7.543   4.361   7.358
 5314POPC   NC367487   7.474  15.698   5.444
 5314POPC   PO467488   7.164  16.374   5.561
 5314POPC   GL167489   7.308  16.018   5.802
 5314POPC   GL267490   6.992  15.809   5.787
 5314POPC   C1A67491   7.614  15.969   6.165
 5314POPC   D2A67492   7.682  15.885   6.641
 5314POPC   C3A67493   7.444  16.117   6.975
 5314POPC   C4A67494   7.080  16.286   7.150
 5314POPC   C1B67495   7.129  15.637   6.199
 5314POPC   C2B67496   7.221  15.410   6.598
 5314POPC   C3B67497   7.381  15.607   6.964
 5314POPC   C4B67498   7.516  15.766   7.349
 5315POPC   NC367499  31.773  26.936   5.685
 5315POPC   PO467500  31.138  26.714   5.501
 5315POPC   GL167501  31.385  26.622   5.856
 5315POPC   GL267502  31.729  26.448   5.893
 5315POPC   C1A67503  31.384  26.752   6.264
 5315POPC   D2A67504  31.398  26.504   6.596
 5315POPC   C3A67505  31.273  26.687   6.951
 5315POPC   C4A67506  31.287  26.977   7.266
 5315POPC   C1B67507  31.871  26.595   6.310
 5315POPC   C2B67508  31.785  26.815   6.673
 5315POPC   C3B67509  31.738  26.995   7.053
 5315POPC   C4B67510  31.660  26.627   7.297
 5316POPC   NC367511  13.460  18.805   5.380
 5316POPC   PO467512  14.001  19.126   5.167
 5316POPC   GL167513  13.884  19.164   5.641
 5316POPC   GL267514  13.982  18.881   5.776
 5316POPC   C1A67515  13.798  19.274   6.125
 5316POPC   D2A67516  13.722  19.052   6.579
 5316POPC   C3A67517  13.792  19.194   7.035
 5316POPC   C4A67518  13.465  19.242   7.350
 5316POPC   C1B67519  14.058  18.850   6.226
 5316POPC   C2B67520  14.093  18.669   6.649
 5316POPC   C3B67521  13.802  18.687   6.974
 5316POPC   C4B67522  13.418  18.828   7.039
 5317POPC   NC367523  44.497   3.364   5.119
 5317POPC   PO467524  44.775   3.754   5.593
 5317POPC   GL167525  44.595   3.472   5.901
 5317POPC   GL267526  44.238   3.371   5.884
 5317POPC   C1A67527  44.735   3.300   6.323
 5317POPC   D2A67528   0.038   3.282   6.714
 5317POPC   C3A67529  44.937   3.543   7.104
 5317POPC   C4A67530  44.922   3.412   7.579
 5317POPC   C1B67531  44.257   3.674   6.269
 5317POPC   C2B67532  44.498   3.831   6.664
 5317POPC   C3B67533  44.390   3.967   7.092
 5317POPC   C4B67534  44.562   3.699   7.408
 5318POPC   NC367535  37.780   0.126   5.540
 5318POPC   PO467536  37.648   0.793   5.643
 5318POPC   GL167537  37.644   0.476   5.886
 5318POPC   GL267538  37.356   0.279   5.843
 5318POPC   C1A67539  37.863   0.457   6.235
 5318POPC   D2A67540  37.686   0.617   6.608
 5318POPC   C3A67541  37.712   0.487   7.023
 5318POPC   C4A67542  37.396   0.723   7.277
 5318POPC   C1B67543  37.417   0.226   6.292
 5318POPC   C2B67544  37.779   0.079   6.555
 5318POPC   C3B67545  37.792  44.935   6.958
 5318POPC   C4B67546  37.546   0.060   7.260
 5319POPC   NC367547  26.893  12.366   5.465
 5319POPC   PO467548  26.724  11.680   5.362
 5319POPC   GL167549  26.943  11.906   5.718
 5319POPC   GL267550  26.663  12.063   5.827
 5319POPC   C1A67551  27.044  12.116   6.135
 5319POPC   D2A67552  26.927  12.288   6.544
 5319POPC   C3A67553  27.136  12.041   6.837
 5319POPC   C4A67554  27.270  12.085   7.238
 5319POPC   C1B67555  26.432  11.898   6.201
 5319POPC   C2B67556  26.449  11.744   6.634
 5319POPC   C3B67557  26.513  11.991   7.005
 5319POPC   C4B67558  26.801  12.260   7.193
 5320POPC   NC367559  41.081  16.792   5.531
 5320POPC   PO467560  40.442  16.630   5.619
 5320POPC   GL167561  40.702  16.917   5.904
 5320POPC   GL267562  41.058  17.038   5.967
 5320POPC   C1A67563  40.559  17.007   6.306
 5320POPC   D2A67564  40.426  16.784   6.636
 5320POPC   C3A67565  40.486  16.937   7.038
 5320POPC   C4A67566  40.546  16.617   7.321
 5320POPC   C1B67567  41.061  16.851   6.363
 5320POPC   C2B67568  40.948  16.921   6.787
 5320POPC   C3B67569  40.971  16.908   7.236
 5320POPC   C4B67570  41.148  17.097   7.624
 5321POPC   NC367571  16.990  33.283   5.307
 5321POPC   PO467572  16.618  32.818   5.481
 5321POPC   GL167573  16.857  32.964   5.835
 5321POPC   GL267574  16.854  33.264   5.802
 5321POPC   C1A67575  16.787  32.875   6.259
 5321POPC   D2A67576  16.579  32.666   6.593
 5321POPC   C3A67577  16.709  32.883   6.954
 5321POPC   C4A67578  17.085  32.858   7.188
 5321POPC   C1B67579  16.897  33.373   6.230
 5321POPC   C2B67580  16.899  33.231   6.624
 5321POPC   C3B67581  17.016  33.347   7.004
 5321POPC   C4B67582  16.840  33.272   7.356
 5322POPC   NC367583  10.321   0.234   5.498
 5322POPC   PO467584  10.917   0.087   5.407
 5322POPC   GL167585  10.757   0.275   5.806
 5322POPC   GL267586  10.447   0.119   5.980
 5322POPC   C1A67587  10.661   0.566   6.159
 5322POPC   D2A67588  10.558   0.871   6.473
 5322POPC   C3A67589  10.627   0.605   6.830
 5322POPC   C4A67590  10.603   0.470   7.233
 5322POPC   C1B67591  10.767   0.036   6.312
 5322POPC   C2B67592  10.718   0.072   6.777
 5322POPC   C3B67593  10.298   0.164   6.979
 5322POPC   C4B67594  10.142   0.131   7.393
 5323POPC   NC367595  39.288  16.103   5.359
 5323POPC   PO467596  39.303  15.484   5.654
 5323POPC   GL167597  39.394  15.886   5.907
 5323POPC   GL267598  39.462  16.274   5.816
 5323POPC   C1A67599  39.435  15.859   6.378
 5323POPC   D2A67600  39.160  15.680   6.703
 5323POPC   C3A67601  39.149  15.786   7.138
 5323POPC   C4A67602  39.262  15.549   7.479
 5323POPC   C1B67603  39.071  16.298   6.068
 5323POPC   C2B67604  39.013  16.135   6.474
 5323POPC   C3B67605  39.282  16.190   6.829
 5323POPC   C4B67606  39.344  16.248   7.267
 5324POPC   NC367607   9.942  35.466   5.461
 5324POPC   PO467608   9.316  35.677   5.506
 5324POPC   GL167609   9.648  35.592   5.856
 5324POPC   GL267610   9.860  35.258   5.908
 5324POPC   C1A67611   9.968  35.684   6.183
 5324POPC   D2A67612  10.168  35.622   6.600
 5324POPC   C3A67613   9.880  35.690   6.937
 5324POPC   C4A67614   9.754  35.575   7.330
 5324POPC   C1B67615   9.482  35.152   6.098
 5324POPC   C2B67616   9.494  35.220   6.550
 5324POPC   C3B67617   9.631  35.199   6.986
 5324POPC   C4B67618   9.515  35.066   7.387
 5325POPC   NC367619  17.161  37.128   5.397
 5325POPC   PO467620  16.541  37.054   5.515
 5325POPC   GL167621  16.666  36.830   5.870
 5325POPC   GL267622  16.987  36.966   5.868
 5325POPC   C1A67623  16.646  36.886   6.316
 5325POPC   D2A67624  16.715  36.815   6.721
 5325POPC   C3A67625  16.637  37.131   7.028
 5325POPC   C4A67626  16.680  37.331   7.424
 5325POPC   C1B67627  17.116  36.690   6.172
 5325POPC   C2B67628  17.103  36.497   6.537
 5325POPC   C3B67629  17.165  36.680   6.923
 5325POPC   C4B67630  16.990  36.869   7.235
 5326POPC   NC367631   9.198  19.950   5.460
 5326POPC   PO467632   8.607  19.695   5.603
 5326POPC   GL167633   8.829  19.979   5.920
 5326POPC   GL267634   9.176  20.139   5.965
 5326POPC   C1A67635   8.871  20.061   6.381
 5326POPC   D2A67636   8.967  19.846   6.774
 5326POPC   C3A67637   8.733  19.899   7.165
 5326POPC   C4A67638   8.826  19.871   7.607
 5326POPC   C1B67639   9.234  19.760   6.218
 5326POPC   C2B67640   9.328  19.564   6.580
 5326POPC   C3B67641   9.412  19.679   6.961
 5326POPC   C4B67642   9.232  19.817   7.319
 5327POPC   NC367643  17.876  21.512   5.345
 5327POPC   PO467644  18.516  21.579   5.474
 5327POPC   GL167645  18.388  21.348   5.839
 5327POPC   GL267646  18.721  21.357   5.921
 5327POPC   C1A67647  18.103  21.221   6.193
 5327POPC   D2A67648  18.018  21.039   6.627
 5327POPC   C3A67649  18.003  21.310   7.024
 5327POPC   C4A67650  18.132  21.563   7.418
 5327POPC   C1B67651  18.607  21.374   6.342
 5327POPC   C2B67652  18.499  21.215   6.762
 5327POPC   C3B67653  18.467  21.224   7.229
 5327POPC   C4B67654  18.669  21.514   7.509
 5328POPC   NC367655   3.624  10.832   5.362
 5328POPC   PO467656   3.156  10.342   5.573
 5328POPC   GL167657   3.476  10.462   5.839
 5328POPC   GL267658   3.711  10.744   5.879
 5328POPC   C1A67659   3.634  10.377   6.240
 5328POPC   D2A67660   3.443  10.465   6.623
 5328POPC   C3A67661   3.699  10.503   6.967
 5328POPC   C4A67662   3.630  10.238   7.301
 5328POPC   C1B67663   3.348  10.816   6.199
 5328POPC   C2B67664   3.418  10.964   6.631
 5328POPC   C3B67665   3.327  10.846   7.052
 5328POPC   C4B67666   3.658  10.833   7.364
 5329POPC   NC367667  21.752  32.312   5.576
 5329POPC   PO467668  22.196  31.907   5.629
 5329POPC   GL167669  22.010  31.995   5.989
 5329POPC   GL267670  21.658  31.989   5.996
 5329POPC   C1A67671  22.245  32.138   6.371
 5329POPC   D2A67672  22.349  32.431   6.712
 5329POPC   C3A67673  22.242  32.250   7.102
 5329POPC   C4A67674  22.433  31.876   7.204
 5329POPC   C1B67675  21.811  32.401   6.216
 5329POPC   C2B67676  21.892  32.639   6.579
 5329POPC   C3B67677  21.939  32.652   6.991
 5329POPC   C4B67678  21.815  32.420   7.349
 5330POPC   NC367679   6.524  43.320   5.401
 5330POPC   PO467680   6.722  42.611   5.441
 5330POPC   GL167681   6.842  42.898   5.747
 5330POPC   GL267682   6.531  42.968   5.810
 5330POPC   C1A67683   6.929  43.073   6.180
 5330POPC   D2A67684   6.898  43.335   6.566
 5330POPC   C3A67685   6.796  43.162   6.978
 5330POPC   C4A67686   6.490  43.386   7.291
 5330POPC   C1B67687   6.520  42.772   6.198
 5330POPC   C2B67688   6.467  43.039   6.540
 5330POPC   C3B67689   6.295  43.130   6.907
 5330POPC   C4B67690   6.414  42.860   7.233
 5331POPC   NC367691  41.585  28.127   5.485
 5331POPC   PO467692  41.603  28.737   5.661
 5331POPC   GL167693  41.782  28.503   5.913
 5331POPC   GL267694  41.535  28.253   5.978
 5331POPC   C1A67695  41.739  28.542   6.337
 5331POPC   D2A67696  41.613  28.306   6.639
 5331POPC   C3A67697  41.571  28.631   6.897
 5331POPC   C4A67698  41.693  28.467   7.224
 5331POPC   C1B67699  41.910  28.045   6.183
 5331POPC   C2B67700  42.118  28.028   6.587
 5331POPC   C3B67701  41.913  28.021   7.014
 5331POPC   C4B67702  41.849  28.042   7.458
 5332POPC   NC367703   3.390  19.339   5.084
 5332POPC   PO467704   3.919  18.989   5.378
 5332POPC   GL167705   3.868  18.972   5.853
 5332POPC   GL267706   3.538  18.800   5.871
 5332POPC   C1A67707   3.880  18.973   6.274
 5332POPC   D2A67708   3.567  18.871   6.578
 5332POPC   C3A67709   3.655  19.052   6.966
 5332POPC   C4A67710   3.754  18.989   7.389
 5332POPC   C1B67711   3.395  19.150   6.157
 5332POPC   C2B67712   3.382  19.347   6.545
 5332POPC   C3B67713   3.159  19.126   6.863
 5332POPC   C4B67714   3.218  19.115   7.274
 5333POPC   NC367715  37.618  38.184   5.071
 5333POPC   PO467716  37.856  38.629   5.502
 5333POPC   GL167717  37.750  38.681   5.920
 5333POPC   GL267718  37.457  38.486   5.930
 5333POPC   C1A67719  37.736  38.682   6.394
 5333POPC   D2A67720  37.915  38.480   6.739
 5333POPC   C3A67721  37.908  38.568   7.183
 5333POPC   C4A67722  37.599  38.540   7.502
 5333POPC   C1B67723  37.612  38.207   6.291
 5333POPC   C2B67724  37.427  38.317   6.660
 5333POPC   C3B67725  37.537  38.280   7.029
 5333POPC   C4B67726  37.883  38.071   7.179
 5334POPC   NC367727   1.722  13.803   5.437
 5334POPC   PO467728   2.363  13.912   5.468
 5334POPC   GL167729   2.103  13.799   5.815
 5334POPC   GL267730   1.785  13.615   5.927
 5334POPC   C1A67731   2.181  13.686   6.240
 5334POPC   D2A67732   1.914  13.540   6.572
 5334POPC   C3A67733   2.183  13.368   6.890
 5334POPC   C4A67734   2.154  13.375   7.338
 5334POPC   C1B67735   1.757  14.025   6.106
 5334POPC   C2B67736   1.771  14.071   6.521
 5334POPC   C3B67737   1.581  13.826   6.856
 5334POPC   C4B67738   1.687  13.469   7.127
 5335POPC   NC367739  28.632  21.227   5.673
 5335POPC   PO467740  28.301  21.790   5.392
 5335POPC   GL167741  28.440  21.675   5.791
 5335POPC   GL267742  28.260  21.361   5.960
 5335POPC   C1A67743  28.593  21.664   6.208
 5335POPC   D2A67744  28.373  21.527   6.569
 5335POPC   C3A67745  28.574  21.597   6.955
 5335POPC   C4A67746  28.299  21.610   7.310
 5335POPC   C1B67747  28.202  21.051   6.273
 5335POPC   C2B67748  28.002  21.128   6.631
 5335POPC   C3B67749  28.200  21.215   6.985
 5335POPC   C4B67750  28.091  20.877   7.183
 5336POPC   NC367751  26.213  18.495   5.420
 5336POPC   PO467752  26.021  17.884   5.389
 5336POPC   GL167753  25.952  18.055   5.812
 5336POPC   GL267754  26.187  18.344   5.889
 5336POPC   C1A67755  25.912  18.152   6.273
 5336POPC   D2A67756  25.890  18.194   6.714
 5336POPC   C3A67757  25.929  18.047   7.124
 5336POPC   C4A67758  25.858  18.427   7.381
 5336POPC   C1B67759  26.336  18.521   6.255
 5336POPC   C2B67760  26.374  18.301   6.604
 5336POPC   C3B67761  26.258  18.410   7.008
 5336POPC   C4B67762  26.455  18.598   7.283
 5337POPC   NC367763  27.317  24.016   5.755
 5337POPC   PO467764  27.541  24.434   5.267
 5337POPC   GL167765  27.652  24.413   5.799
 5337POPC   GL267766  27.709  24.128   6.025
 5337POPC   C1A67767  27.794  24.756   6.135
 5337POPC   D2A67768  27.784  24.953   6.557
 5337POPC   C3A67769  27.615  24.673   6.829
 5337POPC   C4A67770  27.722  24.497   7.206
 5337POPC   C1B67771  27.585  24.342   6.373
 5337POPC   C2B67772  27.769  24.184   6.719
 5337POPC   C3B67773  27.857  24.012   7.102
 5337POPC   C4B67774  27.595  24.080   7.470
 5338POPC   NC367775   4.226  31.143   5.435
 5338POPC   PO467776   4.197  31.742   5.070
 5338POPC   GL167777   4.377  31.654   5.528
 5338POPC   GL267778   4.088  31.731   5.722
 5338POPC   C1A67779   4.480  31.444   6.001
 5338POPC   D2A67780   4.317  31.215   6.422
 5338POPC   C3A67781   4.435  31.321   6.860
 5338POPC   C4A67782   4.558  31.413   7.314
 5338POPC   C1B67783   3.985  31.544   6.129
 5338POPC   C2B67784   3.790  31.412   6.500
 5338POPC   C3B67785   3.901  31.278   6.887
 5338POPC   C4B67786   4.077  31.549   7.167
 5339POPC   NC367787   9.291  19.258   5.471
 5339POPC   PO467788   8.852  18.848   5.436
 5339POPC   GL167789   8.920  19.094   5.825
 5339POPC   GL267790   8.976  19.461   5.873
 5339POPC   C1A67791   8.796  19.015   6.257
 5339POPC   D2A67792   8.998  19.144   6.641
 5339POPC   C3A67793   9.046  18.850   6.934
 5339POPC   C4A67794   8.960  18.861   7.334
 5339POPC   C1B67795   8.780  19.536   6.311
 5339POPC   C2B67796   8.624  19.453   6.754
 5339POPC   C3B67797   8.939  19.415   7.116
 5339POPC   C4B67798   8.828  19.306   7.562
 5340POPC   NC367799  20.053  30.992   5.627
 5340POPC   PO467800  19.701  30.452   5.399
 5340POPC   GL167801  19.982  30.493   5.762
 5340POPC   GL267802  19.717  30.719   5.899
 5340POPC   C1A67803  20.171  30.556   6.187
 5340POPC   D2A67804  20.156  30.737   6.607
 5340POPC   C3A67805  20.045  30.472   6.966
 5340POPC   C4A67806  19.744  30.393   7.308
 5340POPC   C1B67807  19.701  30.803   6.332
 5340POPC   C2B67808  19.775  31.066   6.709
 5340POPC   C3B67809  19.730  30.875   7.094
 5340POPC   C4B67810  19.601  30.986   7.518
 5341POPC   NC367811   8.779  27.707   5.488
 5341POPC   PO467812   9.241  27.222   5.789
 5341POPC   GL167813   8.998  27.533   5.906
 5341POPC   GL267814   9.287  27.732   5.869
 5341POPC   C1A67815   8.694  27.593   6.224
 5341POPC   D2A67816   8.939  27.545   6.582
 5341POPC   C3A67817   8.703  27.361   6.852
 5341POPC   C4A67818   8.688  27.698   7.105
 5341POPC   C1B67819   9.426  27.611   6.296
 5341POPC   C2B67820   9.620  27.718   6.689
 5341POPC   C3B67821   9.387  27.734   7.051
 5341POPC   C4B67822   9.102  27.432   7.188
 5342POPC   NC367823  11.514  39.436   5.502
 5342POPC   PO467824  11.002  39.027   5.393
 5342POPC   GL167825  11.175  38.936   5.798
 5342POPC   GL267826  11.536  38.974   5.835
 5342POPC   C1A67827  11.203  39.162   6.188
 5342POPC   D2A67828  11.368  39.257   6.590
 5342POPC   C3A67829  11.320  39.133   6.998
 5342POPC   C4A67830  11.070  39.426   7.231
 5342POPC   C1B67831  11.739  39.142   6.228
 5342POPC   C2B67832  11.802  39.522   6.534
 5342POPC   C3B67833  11.622  39.562   6.968
 5342POPC   C4B67834  11.714  39.281   7.312
 5343POPC   NC367835  27.693   2.731   5.321
 5343POPC   PO467836  27.232   3.131   5.521
 5343POPC   GL167837  27.536   2.902   5.833
 5343POPC   GL267838  27.724   2.547   5.862
 5343POPC   C1A67839  27.604   2.834   6.289
 5343POPC   D2A67840  27.469   2.473   6.578
 5343POPC   C3A67841  27.378   2.623   7.025
 5343POPC   C4A67842  27.150   2.870   7.362
 5343POPC   C1B67843  27.923   2.442   6.292
 5343POPC   C2B67844  27.940   2.498   6.764
 5343POPC   C3B67845  27.867   2.658   7.193
 5343POPC   C4B67846  27.537   2.584   7.526
 5344POPC   NC367847   9.983  30.155   5.264
 5344POPC   PO467848   9.880  29.506   5.421
 5344POPC   GL167849   9.896  29.772   5.731
 5344POPC   GL267850   9.598  29.980   5.597
 5344POPC   C1A67851   9.965  29.588   6.161
 5344POPC   D2A67852   9.855  29.480   6.606
 5344POPC   C3A67853  10.114  29.757   6.861
 5344POPC   C4A67854   9.998  30.033   7.220
 5344POPC   C1B67855   9.523  29.899   6.048
 5344POPC   C2B67856   9.795  29.988   6.440
 5344POPC   C3B67857   9.639  29.928   6.847
 5344POPC   C4B67858   9.479  30.020   7.230
 5345POPC   NC367859  18.894  24.427   5.382
 5345POPC   PO467860  19.279  24.960   5.212
 5345POPC   GL167861  19.333  24.789   5.694
 5345POPC   GL267862  19.080  24.518   5.832
 5345POPC   C1A67863  19.292  24.841   6.171
 5345POPC   D2A67864  19.069  24.814   6.615
 5345POPC   C3A67865  19.254  24.685   7.022
 5345POPC   C4A67866  18.937  24.694   7.357
 5345POPC   C1B67867  18.970  24.426   6.245
 5345POPC   C2B67868  19.123  24.310   6.636
 5345POPC   C3B67869  18.947  24.278   7.058
 5345POPC   C4B67870  19.194  24.252   7.473
 5346POPC   NC367871  35.101  44.643   4.917
 5346POPC   PO467872  35.526  44.752   5.423
 5346POPC   GL167873  35.198  44.674   5.742
 5346POPC   GL267874  35.495  44.643   5.967
 5346POPC   C1A67875  35.046  44.611   6.178
 5346POPC   D2A67876  35.359  44.511   6.470
 5346POPC   C3A67877  35.295  44.761   6.820
 5346POPC   C4A67878  35.184  44.825   7.223
 5346POPC   C1B67879  35.487  44.970   6.288
 5346POPC   C2B67880  35.727   0.003   6.692
 5346POPC   C3B67881  35.634   0.039   7.132
 5346POPC   C4B67882  35.517   0.031   7.574
 5347POPC   NC367883  19.079   3.259   4.829
 5347POPC   PO467884  19.314   3.637   5.347
 5347POPC   GL167885  19.082   3.596   5.840
 5347POPC   GL267886  19.162   3.759   6.111
 5347POPC   C1A67887  18.929   3.324   6.202
 5347POPC   D2A67888  18.825   3.448   6.630
 5347POPC   C3A67889  19.060   3.393   6.986
 5347POPC   C4A67890  19.034   3.347   7.431
 5347POPC   C1B67891  19.436   3.840   6.400
 5347POPC   C2B67892  19.380   3.817   6.833
 5347POPC   C3B67893  19.259   3.783   7.229
 5347POPC   C4B67894  19.057   4.071   7.462
 5348POPC   NC367895  40.548   1.420   5.206
 5348POPC   PO467896  41.035   1.118   5.588
 5348POPC   GL167897  40.766   1.417   5.815
 5348POPC   GL267898  40.390   1.359   5.810
 5348POPC   C1A67899  40.693   1.393   6.255
 5348POPC   D2A67900  40.748   1.507   6.653
 5348POPC   C3A67901  40.982   1.249   6.919
 5348POPC   C4A67902  41.092   1.433   7.280
 5348POPC   C1B67903  40.300   1.089   6.210
 5348POPC   C2B67904  40.495   1.049   6.640
 5348POPC   C3B67905  40.490   1.278   7.052
 5348POPC   C4B67906  40.570   1.076   7.455
 5349POPC   NC367907  26.164  30.805   5.333
 5349POPC   PO467908  26.659  31.064   5.561
 5349POPC   GL167909  26.242  30.876   5.841
 5349POPC   GL267910  26.035  30.532   5.806
 5349POPC   C1A67911  25.960  30.868   6.263
 5349POPC   D2A67912  25.695  30.940   6.680
 5349POPC   C3A67913  25.824  30.786   7.139
 5349POPC   C4A67914  26.164  30.749   7.467
 5349POPC   C1B67915  26.026  30.366   6.240
 5349POPC   C2B67916  25.976  30.504   6.684
 5349POPC   C3B67917  26.055  30.325   7.097
 5349POPC   C4B67918  26.029  30.249   7.533
 5350POPC   NC367919  35.496  43.865   5.352
 5350POPC   PO467920  35.055  43.459   5.526
 5350POPC   GL167921  35.285  43.815   5.809
 5350POPC   GL267922  35.466  44.163   5.767
 5350POPC   C1A67923  35.125  44.094   6.146
 5350POPC   D2A67924  34.992  44.187   6.571
 5350POPC   C3A67925  35.061  43.853   6.829
 5350POPC   C4A67926  35.115  43.798   7.238
 5350POPC   C1B67927  35.650  44.160   6.204
 5350POPC   C2B67928  35.790  43.984   6.615
 5350POPC   C3B67929  35.605  44.047   7.046
 5350POPC   C4B67930  35.208  44.299   7.127
 5351POPC   NC367931   7.880  25.499   5.333
 5351POPC   PO467932   8.365  25.081   5.335
 5351POPC   GL167933   8.206  25.205   5.726
 5351POPC   GL267934   7.851  25.243   5.759
 5351POPC   C1A67935   8.329  25.087   6.144
 5351POPC   D2A67936   8.427  25.333   6.497
 5351POPC   C3A67937   8.296  25.201   6.909
 5351POPC   C4A67938   8.409  25.026   7.309
 5351POPC   C1B67939   7.974  25.452   6.136
 5351POPC   C2B67940   7.941  25.499   6.568
 5351POPC   C3B67941   7.849  25.586   6.962
 5351POPC   C4B67942   7.953  25.301   7.267
 5352POPC   NC367943   5.594  10.563   5.424
 5352POPC   PO467944   6.326  10.411   5.458
 5352POPC   GL167945   6.156  10.474   5.838
 5352POPC   GL267946   5.824  10.620   5.876
 5352POPC   C1A67947   6.077  10.359   6.255
 5352POPC   D2A67948   5.979  10.616   6.602
 5352POPC   C3A67949   5.808  10.460   6.975
 5352POPC   C4A67950   6.019  10.538   7.310
 5352POPC   C1B67951   5.638  10.804   6.257
 5352POPC   C2B67952   5.453  10.604   6.640
 5352POPC   C3B67953   5.368  10.740   7.069
 5352POPC   C4B67954   5.614  10.810   7.456
 5353POPC   NC367955  33.012  41.371   5.407
 5353POPC   PO467956  33.098  40.688   5.265
 5353POPC   GL167957  33.020  40.660   5.692
 5353POPC   GL267958  33.014  40.971   5.776
 5353POPC   C1A67959  32.943  40.511   6.101
 5353POPC   D2A67960  33.106  40.669   6.483
 5353POPC   C3A67961  32.950  40.659   6.913
 5353POPC   C4A67962  33.152  40.703   7.328
 5353POPC   C1B67963  32.790  41.044   6.165
 5353POPC   C2B67964  32.652  40.920   6.544
 5353POPC   C3B67965  32.658  41.091   6.917
 5353POPC   C4B67966  32.730  41.016   7.293
 5354POPC   NC367967  44.380  43.405   5.532
 5354POPC   PO467968  44.712  42.874   5.316
 5354POPC   GL167969  44.693  43.065   5.782
 5354POPC   GL267970  44.809  43.410   5.882
 5354POPC   C1A67971  44.569  43.090   6.213
 5354POPC   D2A67972  44.594  43.272   6.599
 5354POPC   C3A67973  44.665  43.088   6.976
 5354POPC   C4A67974  44.412  43.148   7.317
 5354POPC   C1B67975  44.954  43.487   6.306
 5354POPC   C2B67976  44.994  43.552   6.776
 5354POPC   C3B67977  44.953  43.442   7.224
 5354POPC   C4B67978  44.725  43.419   7.646
 5355POPC   NC367979   2.844  42.032   5.631
 5355POPC   PO467980   2.638  42.548   5.233
 5355POPC   GL167981   2.519  42.319   5.856
 5355POPC   GL267982   2.700  42.656   6.088
 5355POPC   C1A67983   2.634  42.260   6.347
 5355POPC   D2A67984   2.721  42.709   6.590
 5355POPC   C3A67985   2.948  42.573   6.927
 5355POPC   C4A67986   2.725  42.266   7.178
 5355POPC   C1B67987   3.119  42.543   6.347
 5355POPC   C2B67988   3.348  42.295   6.699
 5355POPC   C3B67989   3.222  42.098   7.109
 5355POPC   C4B67990   3.006  42.067   7.541
 5356POPC   NC367991  23.725  27.073   5.449
 5356POPC   PO467992  23.546  26.425   5.350
 5356POPC   GL167993  23.553  26.670   5.710
 5356POPC   GL267994  23.273  26.874   5.727
 5356POPC   C1A67995  23.879  26.801   6.016
 5356POPC   D2A67996  24.130  26.797   6.407
 5356POPC   C3A67997  23.836  26.775   6.748
 5356POPC   C4A67998  23.845  26.831   7.170
 5356POPC   C1B67999  23.406  26.940   6.143
 5356POPC   C2B68000  23.376  26.961   6.571
 5356POPC   C3B68001  23.494  27.149   6.938
 5356POPC   C4B68002  23.359  26.883   7.262
 5357POPC   NC368003  10.169  23.741   5.465
 5357POPC   PO468004   9.449  23.779   5.394
 5357POPC   GL168005   9.620  23.838   5.820
 5357POPC   GL268006   9.969  23.892   5.919
 5357POPC   C1A68007   9.596  23.904   6.273
 5357POPC   D2A68008   9.728  23.673   6.629
 5357POPC   C3A68009   9.650  23.896   6.967
 5357POPC   C4A68010   9.867  23.844   7.317
 5357POPC   C1B68011  10.019  23.521   6.229
 5357POPC   C2B68012  10.137  23.338   6.650
 5357POPC   C3B68013   9.919  23.388   7.070
 5357POPC   C4B68014   9.856  23.358   7.532
 5358POPC   NC368015  11.555  28.277   5.541
 5358POPC   PO468016  10.886  28.352   5.491
 5358POPC   GL168017  11.158  28.432   5.831
 5358POPC   GL268018  11.233  28.068   5.867
 5358POPC   C1A68019  11.491  28.554   6.153
 5358POPC   D2A68020  11.669  28.466   6.562
 5358POPC   C3A68021  11.631  28.718   6.950
 5358POPC   C4A68022  11.470  28.431   7.246
 5358POPC   C1B68023  11.139  28.197   6.283
 5358POPC   C2B68024  11.050  28.313   6.677
 5358POPC   C3B68025  11.114  28.096   7.044
 5358POPC   C4B68026  11.042  28.155   7.458
 5359POPC   NC368027   4.534  16.849   5.558
 5359POPC   PO468028   3.921  16.623   5.533
 5359POPC   GL168029   4.204  16.488   5.834
 5359POPC   GL268030   4.528  16.372   5.973
 5359POPC   C1A68031   4.092  16.485   6.246
 5359POPC   D2A68032   4.247  16.541   6.638
 5359POPC   C3A68033   3.968  16.554   6.987
 5359POPC   C4A68034   4.119  16.903   7.182
 5359POPC   C1B68035   4.585  16.712   6.221
 5359POPC   C2B68036   4.811  16.866   6.546
 5359POPC   C3B68037   4.576  16.955   6.902
 5359POPC   C4B68038   4.614  16.743   7.261
 5360POPC   NC368039  21.136  34.791   4.997
 5360POPC   PO468040  21.575  34.319   5.330
 5360POPC   GL168041  21.499  34.477   5.729
 5360POPC   GL268042  21.184  34.332   5.795
 5360POPC   C1A68043  21.441  34.640   6.141
 5360POPC   D2A68044  21.672  34.661   6.515
 5360POPC   C3A68045  21.479  34.691   6.898
 5360POPC   C4A68046  21.436  34.905   7.269
 5360POPC   C1B68047  21.015  34.312   6.192
 5360POPC   C2B68048  21.181  34.470   6.556
 5360POPC   C3B68049  21.032  34.468   6.978
 5360POPC   C4B68050  21.126  34.499   7.360
 5361POPC   NC368051  35.081  39.837   5.363
 5361POPC   PO468052  35.563  40.273   5.370
 5361POPC   GL168053  35.297  40.150   5.734
 5361POPC   GL268054  35.359  39.801   5.817
 5361POPC   C1A68055  35.224  40.096   6.206
 5361POPC   D2A68056  35.354  39.955   6.656
 5361POPC   C3A68057  35.458  40.183   7.087
 5361POPC   C4A68058  35.367  40.157   7.553
 5361POPC   C1B68059  35.355  39.571   6.233
 5361POPC   C2B68060  35.189  39.479   6.661
 5361POPC   C3B68061  35.261  39.680   7.080
 5361POPC   C4B68062  35.330  39.640   7.526
 5362POPC   NC368063   4.612   8.790   5.056
 5362POPC   PO468064   4.165   8.880   5.502
 5362POPC   GL168065   4.189   9.110   5.865
 5362POPC   GL268066   4.477   9.340   5.755
 5362POPC   C1A68067   4.090   8.990   6.310
 5362POPC   D2A68068   4.052   8.927   6.764
 5362POPC   C3A68069   4.351   8.701   6.941
 5362POPC   C4A68070   4.578   8.779   7.306
 5362POPC   C1B68071   4.540   9.264   6.193
 5362POPC   C2B68072   4.530   9.051   6.569
 5362POPC   C3B68073   4.482   9.192   6.978
 5362POPC   C4B68074   4.392   9.245   7.359
 5363POPC   NC368075  15.644  16.956   5.532
 5363POPC   PO468076  16.233  16.665   5.475
 5363POPC   GL168077  15.964  16.663   5.840
 5363POPC   GL268078  15.994  17.005   5.904
 5363POPC   C1A68079  15.809  16.530   6.263
 5363POPC   D2A68080  15.968  16.693   6.661
 5363POPC   C3A68081  15.842  16.445   7.025
 5363POPC   C4A68082  15.582  16.433   7.404
 5363POPC   C1B68083  15.726  17.026   6.269
 5363POPC   C2B68084  15.556  17.000   6.698
 5363POPC   C3B68085  15.740  16.946   7.105
 5363POPC   C4B68086  15.810  16.872   7.539
 5364POPC   NC368087  26.907  29.035   5.398
 5364POPC   PO468088  27.023  29.665   5.603
 5364POPC   GL168089  26.927  29.304   5.848
 5364POPC   GL268090  26.824  28.934   5.900
 5364POPC   C1A68091  27.004  29.263   6.260
 5364POPC   D2A68092  26.723  29.204   6.567
 5364POPC   C3A68093  26.891  29.335   6.963
 5364POPC   C4A68094  26.825  29.248   7.400
 5364POPC   C1B68095  27.098  28.779   6.268
 5364POPC   C2B68096  27.180  28.979   6.680
 5364POPC   C3B68097  27.078  28.892   7.137
 5364POPC   C4B68098  27.148  28.936   7.621
 5365POPC   NC368099   1.776  12.073   5.508
 5365POPC   PO468100   2.334  12.322   5.676
 5365POPC   GL168101   2.120  12.116   5.986
 5365POPC   GL268102   1.972  11.800   5.880
 5365POPC   C1A68103   2.102  12.104   6.443
 5365POPC   D2A68104   1.846  12.029   6.829
 5365POPC   C3A68105   1.986  12.087   7.274
 5365POPC   C4A68106   2.096  12.176   7.716
 5365POPC   C1B68107   2.223  11.629   6.196
 5365POPC   C2B68108   2.324  11.682   6.618
 5365POPC   C3B68109   2.146  11.654   7.021
 5365POPC   C4B68110   2.313  11.708   7.418
 5366POPC   NC368111  26.276  29.316   5.433
 5366POPC   PO468112  25.855  28.835   5.228
 5366POPC   GL168113  26.055  28.985   5.724
 5366POPC   GL268114  25.904  29.292   5.909
 5366POPC   C1A68115  26.321  29.074   6.129
 5366POPC   D2A68116  26.211  29.045   6.590
 5366POPC   C3A68117  26.465  29.041   6.984
 5366POPC   C4A68118  26.379  29.430   7.227
 5366POPC   C1B68119  25.804  28.948   6.240
 5366POPC   C2B68120  25.804  28.735   6.645
 5366POPC   C3B68121  25.852  28.986   7.005
 5366POPC   C4B68122  26.105  28.950   7.328
 5367POPC   NC368123  13.102  39.306   5.485
 5367POPC   PO468124  13.682  39.575   5.670
 5367POPC   GL168125  13.410  39.331   5.933
 5367POPC   GL268126  13.399  38.977   5.796
 5367POPC   C1A68127  13.490  39.389   6.379
 5367POPC   D2A68128  13.325  39.575   6.749
 5367POPC   C3A68129  13.579  39.394   7.058
 5367POPC   C4A68130  13.997  39.352   7.077
 5367POPC   C1B68131  13.640  38.930   6.204
 5367POPC   C2B68132  13.679  39.005   6.662
 5367POPC   C3B68133  13.547  38.886   7.071
 5367POPC   C4B68134  13.724  39.064   7.424
 5368POPC   NC368135   3.033  33.465   5.507
 5368POPC   PO468136   2.831  34.134   5.348
 5368POPC   GL168137   2.737  33.869   5.733
 5368POPC   GL268138   2.486  33.604   5.682
 5368POPC   C1A68139   2.747  33.984   6.177
 5368POPC   D2A68140   3.004  34.031   6.565
 5368POPC   C3A68141   2.840  33.850   6.929
 5368POPC   C4A68142   2.681  33.748   7.293
 5368POPC   C1B68143   2.545  33.496   6.106
 5368POPC   C2B68144   2.652  33.603   6.519
 5368POPC   C3B68145   2.405  33.584   6.894
 5368POPC   C4B68146   2.393  33.326   7.248
 5369POPC   NC368147  38.115  28.060   5.567
 5369POPC   PO468148  37.683  28.543   5.420
 5369POPC   GL168149  37.461  28.381   5.765
 5369POPC   GL268150  37.720  28.164   5.886
 5369POPC   C1A68151  37.291  28.176   6.117
 5369POPC   D2A68152  37.516  28.186   6.486
 5369POPC   C3A68153  37.312  28.384   6.813
 5369POPC   C4A68154  37.386  28.296   7.254
 5369POPC   C1B68155  37.695  28.551   6.171
 5369POPC   C2B68156  37.840  28.570   6.597
 5369POPC   C3B68157  37.820  28.394   7.004
 5369POPC   C4B68158  37.726  28.639   7.370
 5370POPC   NC368159   4.813   7.422   5.589
 5370POPC   PO468160   4.213   7.713   5.678
 5370POPC   GL168161   4.319   7.332   5.856
 5370POPC   GL268162   4.007   7.124   5.812
 5370POPC   C1A68163   4.385   7.447   6.279
 5370POPC   D2A68164   4.195   7.514   6.651
 5370POPC   C3A68165   4.494   7.505   6.971
 5370POPC   C4A68166   4.488   7.676   7.364
 5370POPC   C1B68167   4.166   6.972   6.211
 5370POPC   C2B68168   4.057   6.844   6.609
 5370POPC   C3B68169   4.183   7.093   6.935
 5370POPC   C4B68170   4.019   7.486   7.154
 5371POPC   NC368171  23.255   2.302   5.547
 5371POPC   PO468172  23.846   1.960   5.438
 5371POPC   GL168173  23.735   1.828   5.845
 5371POPC   GL268174  23.456   1.993   5.936
 5371POPC   C1A68175  23.785   1.999   6.296
 5371POPC   D2A68176  24.040   2.019   6.618
 5371POPC   C3A68177  23.798   1.932   6.946
 5371POPC   C4A68178  23.890   1.792   7.332
 5371POPC   C1B68179  23.327   2.251   6.300
 5371POPC   C2B68180  23.401   2.226   6.731
 5371POPC   C3B68181  23.564   2.371   7.095
 5371POPC   C4B68182  23.471   2.085   7.315
 5372POPC   NC368183  25.603  22.503   5.375
 5372POPC   PO468184  25.009  22.426   5.372
 5372POPC   GL168185  25.180  22.337   5.787
 5372POPC   GL268186  24.843  22.389   5.909
 5372POPC   C1A68187  25.491  22.436   6.163
 5372POPC   D2A68188  25.615  22.508   6.630
 5372POPC   C3A68189  25.360  22.422   7.021
 5372POPC   C4A68190  25.171  22.002   7.182
 5372POPC   C1B68191  25.022  22.290   6.303
 5372POPC   C2B68192  24.966  22.225   6.746
 5372POPC   C3B68193  24.690  22.139   7.105
 5372POPC   C4B68194  24.786  22.012   7.544
 5373POPC   NC368195  29.451  42.839   5.472
 5373POPC   PO468196  29.047  43.390   5.467
 5373POPC   GL168197  29.172  43.127   5.825
 5373POPC   GL268198  29.143  42.743   5.849
 5373POPC   C1A68199  29.279  43.274   6.231
 5373POPC   D2A68200  29.307  43.638   6.511
 5373POPC   C3A68201  29.199  43.494   6.928
 5373POPC   C4A68202  29.155  43.164   7.239
 5373POPC   C1B68203  29.021  42.814   6.256
 5373POPC   C2B68204  29.127  42.981   6.658
 5373POPC   C3B68205  29.000  42.729   7.007
 5373POPC   C4B68206  29.348  42.667   7.232
 5374POPC   NC368207  37.824  21.893   5.475
 5374POPC   PO468208  37.374  22.388   5.558
 5374POPC   GL168209  37.629  22.236   5.861
 5374POPC   GL268210  37.975  22.306   5.749
 5374POPC   C1A68211  37.526  22.078   6.279
 5374POPC   D2A68212  37.365  22.216   6.672
 5374POPC   C3A68213  37.561  22.037   7.025
 5374POPC   C4A68214  37.537  22.030   7.458
 5374POPC   C1B68215  37.973  22.339   6.230
 5374POPC   C2B68216  37.912  22.201   6.682
 5374POPC   C3B68217  37.880  22.469   7.088
 5374POPC   C4B68218  37.791  22.455   7.536
 5375POPC   NC368219  30.582  36.169   5.404
 5375POPC   PO468220  31.121  36.532   5.476
 5375POPC   GL168221  30.899  36.202   5.786
 5375POPC   GL268222  30.623  36.433   5.862
 5375POPC   C1A68223  30.676  36.098   6.226
 5375POPC   D2A68224  30.324  35.963   6.502
 5375POPC   C3A68225  30.455  35.952   6.934
 5375POPC   C4A68226  30.339  35.998   7.343
 5375POPC   C1B68227  31.010  36.509   6.143
 5375POPC   C2B68228  31.093  36.243   6.482
 5375POPC   C3B68229  30.912  36.333   6.855
 5375POPC   C4B68230  30.730  36.347   7.255
 5376POPC   NC368231  12.417  11.492   5.602
 5376POPC   PO468232  11.779  11.451   5.495
 5376POPC   GL168233  11.993  11.345   5.870
 5376POPC   GL268234  12.263  11.075   5.908
 5376POPC   C1A68235  12.011  11.393   6.290
 5376POPC   D2A68236  11.925  11.172   6.631
 5376POPC   C3A68237  11.896  11.504   6.893
 5376POPC   C4A68238  11.976  11.738   7.226
 5376POPC   C1B68239  12.516  11.329   6.214
 5376POPC   C2B68240  12.469  11.257   6.641
 5376POPC   C3B68241  12.278  11.145   7.024
 5376POPC   C4B68242  12.292  10.969   7.458
 5377POPC   NC368243  28.145  35.869   5.422
 5377POPC   PO468244  27.606  36.207   5.413
 5377POPC   GL168245  27.697  36.130   5.820
 5377POPC   GL268246  27.746  36.482   5.886
 5377POPC   C1A68247  27.639  35.983   6.256
 5377POPC   D2A68248  27.316  35.944   6.567
 5377POPC   C3A68249  27.440  35.925   6.999
 5377POPC   C4A68250  27.589  36.026   7.387
 5377POPC   C1B68251  27.869  36.423   6.298
 5377POPC   C2B68252  27.680  36.296   6.685
 5377POPC   C3B68253  27.508  36.424   7.073
 5377POPC   C4B68254  27.877  36.459   7.298
 5378POPC   NC368255  11.564   8.524   5.558
 5378POPC   PO468256  11.359   9.108   5.355
 5378POPC   GL168257  11.307   8.945   5.786
 5378POPC   GL268258  11.663   8.948   5.873
 5378POPC   C1A68259  11.078   8.900   6.201
 5378POPC   D2A68260  10.988   9.014   6.618
 5378POPC   C3A68261  11.226   8.867   6.992
 5378POPC   C4A68262  11.104   8.794   7.451
 5378POPC   C1B68263  11.565   8.744   6.272
 5378POPC   C2B68264  11.750   8.696   6.676
 5378POPC   C3B68265  11.733   8.807   7.081
 5378POPC   C4B68266  11.517   9.086   7.336
 5379POPC   NC368267  33.754  39.784   5.327
 5379POPC   PO468268  33.772  40.394   5.480
 5379POPC   GL168269  33.685  40.044   5.778
 5379POPC   GL268270  34.003  39.839   5.817
 5379POPC   C1A68271  33.728  39.992   6.225
 5379POPC   D2A68272  33.739  39.760   6.598
 5379POPC   C3A68273  33.528  39.940   6.953
 5379POPC   C4A68274  33.542  40.132   7.376
 5379POPC   C1B68275  33.986  39.521   6.173
 5379POPC   C2B68276  34.153  39.431   6.583
 5379POPC   C3B68277  34.024  39.553   6.969
 5379POPC   C4B68278  33.967  39.904   7.192
 5380POPC   NC368279  29.873   2.032   5.359
 5380POPC   PO468280  30.386   2.271   5.656
 5380POPC   GL168281  30.007   2.129   5.873
 5380POPC   GL268282  29.915   1.779   5.857
 5380POPC   C1A68283  30.009   1.997   6.321
 5380POPC   D2A68284  30.275   1.975   6.696
 5380POPC   C3A68285  30.003   1.968   7.029
 5380POPC   C4A68286  30.021   2.352   7.210
 5380POPC   C1B68287  29.630   1.684   6.214
 5380POPC   C2B68288  29.534   1.858   6.627
 5380POPC   C3B68289  29.548   1.717   7.030
 5380POPC   C4B68290  29.676   1.806   7.431
 5381POPC   NC368291   1.719  24.116   5.360
 5381POPC   PO468292   2.387  23.901   5.367
 5381POPC   GL168293   2.185  23.744   5.796
 5381POPC   GL268294   1.856  23.924   5.823
 5381POPC   C1A68295   2.206  23.702   6.277
 5381POPC   D2A68296   2.474  23.653   6.677
 5381POPC   C3A68297   2.313  23.830   7.068
 5381POPC   C4A68298   2.094  23.458   7.218
 5381POPC   C1B68299   1.605  24.114   6.118
 5381POPC   C2B68300   1.806  23.986   6.476
 5381POPC   C3B68301   1.913  23.677   6.762
 5381POPC   C4B68302   1.799  23.870   7.139
 5382POPC   NC368303  38.620   2.522   5.464
 5382POPC   PO468304  38.235   3.028   5.517
 5382POPC   GL168305  38.413   2.813   5.863
 5382POPC   GL268306  38.747   2.917   5.811
 5382POPC   C1A68307  38.310   2.754   6.299
 5382POPC   D2A68308  38.142   3.059   6.609
 5382POPC   C3A68309  38.252   2.987   7.030
 5382POPC   C4A68310  38.334   2.582   7.148
 5382POPC   C1B68311  38.818   2.888   6.261
 5382POPC   C2B68312  38.645   2.790   6.687
 5382POPC   C3B68313  38.816   2.780   7.103
 5382POPC   C4B68314  38.728   2.509   7.461
 5383POPC   NC368315  35.471  14.959   5.593
 5383POPC   PO468316  34.999  15.454   5.478
 5383POPC   GL168317  35.186  15.338   5.835
 5383POPC   GL268318  35.468  15.498   5.916
 5383POPC   C1A68319  35.221  15.166   6.247
 5383POPC   D2A68320  35.082  15.013   6.646
 5383POPC   C3A68321  35.301  15.148   6.990
 5383POPC   C4A68322  35.535  14.895   7.237
 5383POPC   C1B68323  35.683  15.444   6.274
 5383POPC   C2B68324  35.644  15.134   6.589
 5383POPC   C3B68325  35.831  15.223   6.964
 5383POPC   C4B68326  35.647  15.566   7.102
 5384POPC   NC368327  14.313  43.852   5.369
 5384POPC   PO468328  14.911  43.754   5.239
 5384POPC   GL168329  14.692  43.933   5.688
 5384POPC   GL268330  14.570  43.647   5.828
 5384POPC   C1A68331  14.299  44.041   6.035
 5384POPC   D2A68332  14.107  44.125   6.499
 5384POPC   C3A68333  14.230  43.889   6.865
 5384POPC   C4A68334  14.276  43.864   7.285
 5384POPC   C1B68335  14.759  43.882   6.208
 5384POPC   C2B68336  14.681  44.035   6.650
 5384POPC   C3B68337  14.737  43.812   7.063
 5384POPC   C4B68338  14.669  43.417   7.342
 5385POPC   NC368339   6.947  37.560   5.366
 5385POPC   PO468340   6.553  38.096   5.575
 5385POPC   GL168341   6.553  37.790   5.899
 5385POPC   GL268342   6.591  37.437   5.803
 5385POPC   C1A68343   6.640  37.760   6.334
 5385POPC   D2A68344   6.889  37.624   6.679
 5385POPC   C3A68345   6.710  37.859   6.998
 5385POPC   C4A68346   6.591  38.024   7.387
 5385POPC   C1B68347   6.620  37.271   6.223
 5385POPC   C2B68348   6.469  37.333   6.636
 5385POPC   C3B68349   6.592  37.341   7.065
 5385POPC   C4B68350   6.752  37.552   7.411
 5386POPC   NC368351  39.773   2.204   5.584
 5386POPC   PO468352  40.281   1.781   5.336
 5386POPC   GL168353  40.122   1.828   5.766
 5386POPC   GL268354  40.295   2.124   5.792
 5386POPC   C1A68355  39.999   2.046   6.198
 5386POPC   D2A68356  39.893   1.902   6.594
 5386POPC   C3A68357  39.757   2.217   6.877
 5386POPC   C4A68358  39.919   2.043   7.213
 5386POPC   C1B68359  40.393   2.343   6.196
 5386POPC   C2B68360  40.181   2.357   6.606
 5386POPC   C3B68361  40.326   2.288   7.011
 5386POPC   C4B68362  40.278   2.284   7.468
 5387POPC   NC368363  32.683  37.618   5.383
 5387POPC   PO468364  33.380  37.579   5.419
 5387POPC   GL168365  33.102  37.490   5.739
 5387POPC   GL268366  32.896  37.782   5.804
 5387POPC   C1A68367  33.144  37.490   6.172
 5387POPC   D2A68368  32.939  37.564   6.544
 5387POPC   C3A68369  33.104  37.553   6.941
 5387POPC   C4A68370  32.980  37.370   7.312
 5387POPC   C1B68371  32.929  37.984   6.185
 5387POPC   C2B68372  32.756  38.045   6.580
 5387POPC   C3B68373  32.872  38.055   7.007
 5387POPC   C4B68374  32.971  37.881   7.383
 5388POPC   NC368375  21.015  22.974   5.395
 5388POPC   PO468376  21.662  22.750   5.423
 5388POPC   GL168377  21.508  22.825   5.827
 5388POPC   GL268378  21.195  22.649   5.756
 5388POPC   C1A68379  21.554  23.047   6.261
 5388POPC   D2A68380  21.215  23.102   6.594
 5388POPC   C3A68381  21.317  22.990   7.006
 5388POPC   C4A68382  21.658  23.142   7.302
 5388POPC   C1B68383  21.120  22.782   6.187
 5388POPC   C2B68384  20.981  22.556   6.553
 5388POPC   C3B68385  21.100  22.466   6.967
 5388POPC   C4B68386  21.048  22.677   7.309
 5389POPC   NC368387   3.777  16.191   5.551
 5389POPC   PO468388   3.235  15.895   5.475
 5389POPC   GL168389   3.435  15.986   5.869
 5389POPC   GL268390   3.652  15.713   5.818
 5389POPC   C1A68391   3.598  16.089   6.292
 5389POPC   D2A68392   3.930  16.106   6.575
 5389POPC   C3A68393   3.718  16.100   6.917
 5389POPC   C4A68394   3.592  16.033   7.305
 5389POPC   C1B68395   3.435  15.593   6.206
 5389POPC   C2B68396   3.429  15.745   6.643
 5389POPC   C3B68397   3.438  15.604   7.067
 5389POPC   C4B68398   3.628  15.540   7.498
 5390POPC   NC368399   6.009  16.080   5.575
 5390POPC   PO468400   5.561  16.573   5.424
 5390POPC   GL168401   5.582  16.251   5.839
 5390POPC   GL268402   5.894  16.105   6.055
 5390POPC   C1A68403   5.434  16.067   6.233
 5390POPC   D2A68404   5.737  15.950   6.528
 5390POPC   C3A68405   5.634  16.053   6.923
 5390POPC   C4A68406   5.893  16.071   7.278
 5390POPC   C1B68407   6.151  15.745   6.211
 5390POPC   C2B68408   6.201  15.621   6.646
 5390POPC   C3B68409   5.963  15.623   7.027
 5390POPC   C4B68410   6.058  15.604   7.471
 5391POPC   NC368411   9.634   7.730   5.455
 5391POPC   PO468412   9.949   7.195   5.415
 5391POPC   GL168413   9.844   7.132   5.837
 5391POPC   GL268414   9.588   7.340   5.795
 5391POPC   C1A68415  10.126   7.075   6.208
 5391POPC   D2A68416  10.318   7.336   6.530
 5391POPC   C3A68417  10.030   7.434   6.861
 5391POPC   C4A68418   9.764   7.529   7.208
 5391POPC   C1B68419   9.614   7.519   6.204
 5391POPC   C2B68420   9.530   7.548   6.661
 5391POPC   C3B68421   9.353   7.787   7.044
 5391POPC   C4B68422   9.425   7.816   7.504
 5392POPC   NC368423  15.117  38.721   5.442
 5392POPC   PO468424  15.122  38.056   5.473
 5392POPC   GL168425  15.129  38.347   5.804
 5392POPC   GL268426  15.465  38.470   5.727
 5392POPC   C1A68427  15.042  38.273   6.250
 5392POPC   D2A68428  15.252  38.235   6.659
 5392POPC   C3A68429  15.016  38.071   6.994
 5392POPC   C4A68430  14.803  38.442   7.104
 5392POPC   C1B68431  15.461  38.556   6.181
 5392POPC   C2B68432  15.707  38.488   6.558
 5392POPC   C3B68433  15.611  38.455   6.997
 5392POPC   C4B68434  15.265  38.426   7.300
 5393POPC   NC368435   3.594  19.259   5.574
 5393POPC   PO468436   3.816  19.885   5.458
 5393POPC   GL168437   3.626  19.906   5.844
 5393POPC   GL268438   3.409  19.633   5.862
 5393POPC   C1A68439   3.749  20.054   6.239
 5393POPC   D2A68440   3.726  19.863   6.626
 5393POPC   C3A68441   3.650  20.107   6.994
 5393POPC   C4A68442   3.398  19.993   7.345
 5393POPC   C1B68443   3.310  19.793   6.284
 5393POPC   C2B68444   3.234  19.878   6.714
 5393POPC   C3B68445   3.321  19.589   7.011
 5393POPC   C4B68446   3.611  19.465   7.304
 5394POPC   NC368447   8.361  10.225   5.525
 5394POPC   PO468448   8.089   9.646   5.272
 5394POPC   GL168449   8.019   9.634   5.732
 5394POPC   GL268450   8.346   9.712   5.740
 5394POPC   C1A68451   7.976   9.559   6.179
 5394POPC   D2A68452   8.153   9.671   6.580
 5394POPC   C3A68453   7.971   9.652   7.021
 5394POPC   C4A68454   8.045   9.749   7.470
 5394POPC   C1B68455   8.509   9.725   6.151
 5394POPC   C2B68456   8.550  10.006   6.494
 5394POPC   C3B68457   8.419   9.954   6.903
 5394POPC   C4B68458   8.521   9.882   7.303
 5395POPC   NC368459  19.702  20.977   5.405
 5395POPC   PO468460  19.949  20.429   5.282
 5395POPC   GL168461  19.927  20.611   5.707
 5395POPC   GL268462  19.639  20.708   5.821
 5395POPC   C1A68463  19.969  20.713   6.189
 5395POPC   D2A68464  19.770  20.814   6.607
 5395POPC   C3A68465  20.024  20.791   7.022
 5395POPC   C4A68466  20.308  20.814   7.353
 5395POPC   C1B68467  19.403  20.673   6.177
 5395POPC   C2B68468  19.295  20.484   6.531
 5395POPC   C3B68469  19.495  20.478   6.902
 5395POPC   C4B68470  19.562  20.749   7.195
 5396POPC   NC368471  33.641  16.335   5.718
 5396POPC   PO468472  33.530  16.994   5.506
 5396POPC   GL168473  33.830  16.873   5.862
 5396POPC   GL268474  34.122  16.634   5.837
 5396POPC   C1A68475  33.863  17.029   6.313
 5396POPC   D2A68476  33.514  16.982   6.612
 5396POPC   C3A68477  33.624  16.891   7.037
 5396POPC   C4A68478  34.018  16.804   7.075
 5396POPC   C1B68479  33.965  16.526   6.270
 5396POPC   C2B68480  33.749  16.530   6.669
 5396POPC   C3B68481  33.744  16.348   7.081
 5396POPC   C4B68482  33.872  16.496   7.520
 5397POPC   NC368483  27.676  19.304   5.400
 5397POPC   PO468484  27.348  18.690   5.291
 5397POPC   GL168485  27.485  18.907   5.724
 5397POPC   GL268486  27.744  19.177   5.874
 5397POPC   C1A68487  27.647  18.792   6.160
 5397POPC   D2A68488  27.745  19.015   6.571
 5397POPC   C3A68489  27.659  18.901   6.969
 5397POPC   C4A68490  27.364  19.002   7.230
 5397POPC   C1B68491  27.688  19.413   6.248
 5397POPC   C2B68492  27.870  19.502   6.653
 5397POPC   C3B68493  27.639  19.422   7.012
 5397POPC   C4B68494  27.755  19.267   7.417
 5398POPC   NC368495  16.986  35.103   5.221
 5398POPC   PO468496  16.538  35.470   5.553
 5398POPC   GL168497  16.583  35.477   5.959
 5398POPC   GL268498  16.333  35.724   5.957
 5398POPC   C1A68499  16.942  35.355   6.218
 5398POPC   D2A68500  17.116  35.079   6.527
 5398POPC   C3A68501  16.980  35.317   6.863
 5398POPC   C4A68502  16.858  35.382   7.258
 5398POPC   C1B68503  16.193  35.526   6.279
 5398POPC   C2B68504  16.512  35.372   6.527
 5398POPC   C3B68505  16.470  35.276   6.935
 5398POPC   C4B68506  16.344  35.507   7.257
 5399POPC   NC368507  16.165  13.545   5.245
 5399POPC   PO468508  15.637  13.314   5.345
 5399POPC   GL168509  15.916  13.369   5.704
 5399POPC   GL268510  16.211  13.598   5.759
 5399POPC   C1A68511  15.937  13.445   6.154
 5399POPC   D2A68512  15.856  13.726   6.514
 5399POPC   C3A68513  15.853  13.501   6.897
 5399POPC   C4A68514  16.126  13.333   7.189
 5399POPC   C1B68515  16.268  13.839   6.154
 5399POPC   C2B68516  16.308  14.022   6.546
 5399POPC   C3B68517  16.252  13.804   6.901
 5399POPC   C4B68518  16.009  13.837   7.289
 5400POPC   NC368519   5.855   9.600   5.501
 5400POPC   PO468520   5.425  10.074   5.337
 5400POPC   GL168521   5.601  10.100   5.764
 5400POPC   GL268522   5.966   9.990   5.872
 5400POPC   C1A68523   5.580  10.019   6.207
 5400POPC   D2A68524   5.662   9.649   6.450
 5400POPC   C3A68525   5.674   9.769   6.889
 5400POPC   C4A68526   5.775  10.005   7.257
 5400POPC   C1B68527   6.144   9.767   6.286
 5400POPC   C2B68528   6.113   9.503   6.720
 5400POPC   C3B68529   6.071   9.525   7.216
 5400POPC   C4B68530   6.204   9.423   7.717
 5401POPC   NC368531  15.492  41.755   5.412
 5401POPC   PO468532  14.799  41.871   5.466
 5401POPC   GL168533  15.123  41.706   5.791
 5401POPC   GL268534  15.432  41.932   5.870
 5401POPC   C1A68535  15.092  41.459   6.186
 5401POPC   D2A68536  14.940  41.612   6.594
 5401POPC   C3A68537  15.052  41.426   6.978
 5401POPC   C4A68538  15.304  41.353   7.329
 5401POPC   C1B68539  15.239  41.974   6.248
 5401POPC   C2B68540  15.380  41.975   6.626
 5401POPC   C3B68541  15.145  41.932   6.960
 5401POPC   C4B68542  15.188  42.046   7.352
 5402POPC   NC368543  34.275  26.328   5.457
 5402POPC   PO468544  34.861  26.103   5.188
 5402POPC   GL168545  34.715  26.044   5.657
 5402POPC   GL268546  34.630  26.319   5.875
 5402POPC   C1A68547  34.721  25.888   6.136
 5402POPC   D2A68548  34.497  25.875   6.581
 5402POPC   C3A68549  34.721  26.071   6.947
 5402POPC   C4A68550  34.763  26.341   7.309
 5402POPC   C1B68551  34.224  26.377   6.116
 5402POPC   C2B68552  33.991  26.416   6.522
 5402POPC   C3B68553  34.226  26.286   6.887
 5402POPC   C4B68554  34.320  26.564   7.222
 5403POPC   NC368555  44.560  23.972   4.982
 5403POPC   PO468556  44.853  23.494   5.336
 5403POPC   GL168557  44.613  23.708   5.737
 5403POPC   GL268558  44.361  23.999   5.683
 5403POPC   C1A68559  44.807  23.782   6.168
 5403POPC   D2A68560  44.809  23.508   6.544
 5403POPC   C3A68561  44.795  23.688   6.939
 5403POPC   C4A68562   0.034  23.539   7.230
 5403POPC   C1B68563  44.293  23.912   6.143
 5403POPC   C2B68564  44.487  23.917   6.562
 5403POPC   C3B68565  44.350  23.906   6.995
 5403POPC   C4B68566  44.548  23.772   7.410
 5404POPC   NC368567  21.520  22.312   5.456
 5404POPC   PO468568  20.978  22.065   5.554
 5404POPC   GL168569  21.277  22.158   5.881
 5404POPC   GL268570  21.648  22.114   5.903
 5404POPC   C1A68571  21.344  22.326   6.258
 5404POPC   D2A68572  21.300  22.150   6.634
 5404POPC   C3A68573  21.563  22.215   6.971
 5404POPC   C4A68574  21.445  22.332   7.370
 5404POPC   C1B68575  21.513  21.833   6.282
 5404POPC   C2B68576  21.438  21.683   6.742
 5404POPC   C3B68577  21.375  21.799   7.198
 5404POPC   C4B68578  21.712  21.912   7.497
 5405POPC   NC368579   4.628  29.787   5.428
 5405POPC   PO468580   3.951  29.848   5.492
 5405POPC   GL168581   4.200  29.825   5.866
 5405POPC   GL268582   4.512  29.636   5.892
 5405POPC   C1A68583   4.072  29.893   6.279
 5405POPC   D2A68584   4.043  30.126   6.639
 5405POPC   C3A68585   4.077  29.892   6.999
 5405POPC   C4A68586   4.373  29.958   7.305
 5405POPC   C1B68587   4.633  29.978   6.142
 5405POPC   C2B68588   4.529  29.953   6.576
 5405POPC   C3B68589   4.483  29.584   6.849
 5405POPC   C4B68590   4.743  29.618   7.205
 5406POPC   NC368591  26.338  24.234   5.309
 5406POPC   PO468592  25.792  24.670   5.275
 5406POPC   GL168593  26.159  24.589   5.651
 5406POPC   GL268594  26.219  24.220   5.799
 5406POPC   C1A68595  26.204  24.557   6.163
 5406POPC   D2A68596  25.913  24.437   6.539
 5406POPC   C3A68597  25.755  24.731   6.844
 5406POPC   C4A68598  25.821  24.611   7.256
 5406POPC   C1B68599  26.021  24.057   6.211
 5406POPC   C2B68600  25.771  23.900   6.592
 5406POPC   C3B68601  25.838  24.018   7.035
 5406POPC   C4B68602  26.211  24.266   7.174
 5407POPC   NC368603   9.191   4.448   5.281
 5407POPC   PO468604   8.613   4.264   5.442
 5407POPC   GL168605   8.812   4.294   5.818
 5407POPC   GL268606   9.109   4.170   5.734
 5407POPC   C1A68607   8.911   4.094   6.230
 5407POPC   D2A68608   8.922   4.339   6.603
 5407POPC   C3A68609   9.018   4.131   6.953
 5407POPC   C4A68610   8.806   4.075   7.314
 5407POPC   C1B68611   9.250   4.429   6.084
 5407POPC   C2B68612   9.426   4.333   6.519
 5407POPC   C3B68613   9.336   4.530   6.922
 5407POPC   C4B68614   9.232   4.367   7.343
 5408POPC   NC368615  38.596  35.963   5.208
 5408POPC   PO468616  38.182  36.271   5.654
 5408POPC   GL168617  38.605  36.186   5.770
 5408POPC   GL268618  38.690  35.839   5.843
 5408POPC   C1A68619  38.750  36.289   6.194
 5408POPC   D2A68620  38.630  36.446   6.634
 5408POPC   C3A68621  38.526  36.221   7.050
 5408POPC   C4A68622  38.205  36.145   7.354
 5408POPC   C1B68623  38.412  35.897   6.234
 5408POPC   C2B68624  38.245  36.023   6.633
 5408POPC   C3B68625  38.086  35.829   6.983
 5408POPC   C4B68626  38.355  35.674   7.304
 5409POPC   NC368627   4.592  33.995   5.560
 5409POPC   PO468628   4.196  33.455   5.253
 5409POPC   GL168629   4.274  33.597   5.688
 5409POPC   GL268630   4.005  33.799   5.782
 5409POPC   C1A68631   4.466  33.668   6.131
 5409POPC   D2A68632   4.646  33.510   6.535
 5409POPC   C3A68633   4.531  33.735   6.916
 5409POPC   C4A68634   4.217  33.651   7.277
 5409POPC   C1B68635   4.036  34.017   6.181
 5409POPC   C2B68636   4.194  33.910   6.581
 5409POPC   C3B68637   4.168  34.088   6.988
 5409POPC   C4B68638   3.830  34.125   7.249
 5410POPC   NC368639  38.019   1.591   5.522
 5410POPC   PO468640  38.485   2.078   5.375
 5410POPC   GL168641  38.653   2.069   5.774
 5410POPC   GL268642  38.456   1.770   5.803
 5410POPC   C1A68643  38.472   2.207   6.164
 5410POPC   D2A68644  38.209   2.268   6.530
 5410POPC   C3A68645  38.416   2.144   6.908
 5410POPC   C4A68646  38.520   2.043   7.328
 5410POPC   C1B68647  38.632   1.659   6.156
 5410POPC   C2B68648  38.540   1.818   6.536
 5410POPC   C3B68649  38.594   1.664   6.925
 5410POPC   C4B68650  38.922   1.737   7.185
 5411POPC   NC368651   2.249  24.222   5.650
 5411POPC   PO468652   1.740  24.642   5.547
 5411POPC   GL168653   1.919  24.489   5.892
 5411POPC   GL268654   2.247  24.671   5.922
 5411POPC   C1A68655   2.072  24.378   6.270
 5411POPC   D2A68656   2.081  24.600   6.620
 5411POPC   C3A68657   1.817  24.348   6.838
 5411POPC   C4A68658   1.738  24.363   7.229
 5411POPC   C1B68659   1.937  24.896   6.190
 5411POPC   C2B68660   1.822  25.036   6.594
 5411POPC   C3B68661   1.762  24.848   6.982
 5411POPC   C4B68662   2.062  24.744   7.278
 5412POPC   NC368663   9.993  15.588   5.202
 5412POPC   PO468664   9.685  16.145   5.302
 5412POPC   GL168665   9.651  16.091   5.786
 5412POPC   GL268666   9.618  15.718   5.844
 5412POPC   C1A68667   9.640  16.009   6.270
 5412POPC   D2A68668   9.707  16.060   6.761
 5412POPC   C3A68669   9.917  16.303   7.133
 5412POPC   C4A68670   9.799  16.507   7.571
 5412POPC   C1B68671   9.355  15.550   6.183
 5412POPC   C2B68672   9.263  15.545   6.620
 5412POPC   C3B68673   9.490  15.653   6.988
 5412POPC   C4B68674   9.935  15.714   7.142
 5413POPC   NC368675  27.116  24.276   5.350
 5413POPC   PO468676  26.575  24.682   5.344
 5413POPC   GL168677  26.640  24.590   5.822
 5413POPC   GL268678  26.967  24.393   5.901
 5413POPC   C1A68679  26.765  24.691   6.276
 5413POPC   D2A68680  27.145  24.593   6.502
 5413POPC   C3A68681  27.123  24.568   6.947
 5413POPC   C4A68682  27.189  24.183   7.169
 5413POPC   C1B68683  26.602  24.215   6.179
 5413POPC   C2B68684  26.430  24.350   6.574
 5413POPC   C3B68685  26.543  24.606   6.912
 5413POPC   C4B68686  26.736  24.381   7.214
 5414POPC   NC368687   2.155  16.092   5.418
 5414POPC   PO468688   1.523  15.801   5.366
 5414POPC   GL168689   1.837  15.858   5.788
 5414POPC   GL268690   2.095  16.146   5.914
 5414POPC   C1A68691   2.071  15.774   6.242
 5414POPC   D2A68692   1.982  16.047   6.620
 5414POPC   C3A68693   2.103  15.970   7.064
 5414POPC   C4A68694   1.892  16.027   7.452
 5414POPC   C1B68695   2.314  16.317   6.301
 5414POPC   C2B68696   2.388  16.330   6.767
 5414POPC   C3B68697   2.314  16.390   7.250
 5414POPC   C4B68698   2.227  16.360   7.697
 5415POPC   NC368699  20.213  36.392   5.346
 5415POPC   PO468700  20.817  36.154   5.576
 5415POPC   GL168701  20.706  35.989   5.908
 5415POPC   GL268702  20.366  36.093   5.870
 5415POPC   C1A68703  20.798  36.022   6.317
 5415POPC   D2A68704  20.534  36.240   6.602
 5415POPC   C3A68705  20.713  36.130   6.960
 5415POPC   C4A68706  20.905  36.183   7.327
 5415POPC   C1B68707  20.299  35.909   6.290
 5415POPC   C2B68708  20.447  35.730   6.680
 5415POPC   C3B68709  20.271  35.781   7.093
 5415POPC   C4B68710  20.400  36.072   7.425
 5416POPC   NC368711  44.360   1.659   5.476
 5416POPC   PO468712  44.738   2.061   5.035
 5416POPC   GL168713  44.571   2.112   5.596
 5416POPC   GL268714  44.334   1.973   5.874
 5416POPC   C1A68715  44.725   2.224   6.062
 5416POPC   D2A68716  44.488   2.081   6.421
 5416POPC   C3A68717  44.575   2.263   6.805
 5416POPC   C4A68718  44.573   2.221   7.255
 5416POPC   C1B68719  44.321   1.616   6.186
 5416POPC   C2B68720  44.508   1.561   6.595
 5416POPC   C3B68721  44.483   1.797   6.961
 5416POPC   C4B68722  44.758   1.634   7.253
 5417POPC   NC368723  40.271  42.653   5.410
 5417POPC   PO468724  39.930  42.100   5.480
 5417POPC   GL168725  39.864  42.342   5.830
 5417POPC   GL268726  40.214  42.371   5.862
 5417POPC   C1A68727  39.683  42.271   6.249
 5417POPC   D2A68728  39.791  42.473   6.664
 5417POPC   C3A68729  40.080  42.325   6.986
 5417POPC   C4A68730  39.980  42.355   7.433
 5417POPC   C1B68731  40.170  42.431   6.285
 5417POPC   C2B68732  40.244  42.720   6.609
 5417POPC   C3B68733  40.376  42.756   6.990
 5417POPC   C4B68734  40.458  42.517   7.310
 5418POPC   NC368735  19.714  24.752   5.307
 5418POPC   PO468736  19.521  24.148   5.520
 5418POPC   GL168737  19.737  24.476   5.756
 5418POPC   GL268738  19.522  24.376   6.007
 5418POPC   C1A68739  19.835  24.771   6.117
 5418POPC   D2A68740  20.027  24.699   6.555
 5418POPC   C3A68741  19.819  24.514   6.936
 5418POPC   C4A68742  20.027  24.467   7.365
 5418POPC   C1B68743  19.850  24.282   6.254
 5418POPC   C2B68744  19.650  24.136   6.601
 5418POPC   C3B68745  19.433  24.133   6.982
 5418POPC   C4B68746  19.680  24.132   7.290
 5419POPC   NC368747  24.290  29.158   5.429
 5419POPC   PO468748  24.978  29.300   5.347
 5419POPC   GL168749  24.646  29.415   5.705
 5419POPC   GL268750  24.498  29.072   5.883
 5419POPC   C1A68751  24.520  29.509   6.134
 5419POPC   D2A68752  24.478  29.196   6.488
 5419POPC   C3A68753  24.511  29.349   6.907
 5419POPC   C4A68754  24.322  29.170   7.269
 5419POPC   C1B68755  24.759  28.736   6.111
 5419POPC   C2B68756  24.802  28.778   6.561
 5419POPC   C3B68757  24.586  28.819   6.988
 5419POPC   C4B68758  24.660  28.758   7.448
 5420POPC   NC368759   4.473   6.437   5.459
 5420POPC   PO468760   4.861   6.965   5.536
 5420POPC   GL168761   4.532   6.797   5.865
 5420POPC   GL268762   4.176   6.620   5.834
 5420POPC   C1A68763   4.464   6.521   6.239
 5420POPC   D2A68764   4.526   6.622   6.666
 5420POPC   C3A68765   4.230   6.422   6.897
 5420POPC   C4A68766   4.199   6.333   7.316
 5420POPC   C1B68767   3.898   6.509   6.208
 5420POPC   C2B68768   3.808   6.294   6.615
 5420POPC   C3B68769   3.764   6.596   6.957
 5420POPC   C4B68770   4.004   6.793   7.289
 5421POPC   NC368771  43.027  15.704   5.405
 5421POPC   PO468772  42.666  16.268   5.264
 5421POPC   GL168773  42.821  16.123   5.719
 5421POPC   GL268774  43.196  16.001   5.791
 5421POPC   C1A68775  42.906  16.045   6.204
 5421POPC   D2A68776  42.767  15.969   6.637
 5421POPC   C3A68777  42.975  16.064   7.002
 5421POPC   C4A68778  43.377  16.221   7.128
 5421POPC   C1B68779  43.287  15.679   6.125
 5421POPC   C2B68780  43.265  15.752   6.580
 5421POPC   C3B68781  43.308  15.678   7.021
 5421POPC   C4B68782  43.545  15.779   7.368
 5422POPC   NC368783  15.447  35.282   4.917
 5422POPC   PO468784  14.993  35.170   5.348
 5422POPC   GL168785  15.088  35.326   5.759
 5422POPC   GL268786  14.865  35.623   5.827
 5422POPC   C1A68787  15.249  35.136   6.149
 5422POPC   D2A68788  15.304  35.308   6.565
 5422POPC   C3A68789  15.179  35.312   6.997
 5422POPC   C4A68790  15.425  35.049   7.266
 5422POPC   C1B68791  15.105  35.656   6.230
 5422POPC   C2B68792  15.079  35.752   6.688
 5422POPC   C3B68793  15.017  35.788   7.144
 5422POPC   C4B68794  15.196  35.524   7.509
 5423POPC   NC368795  42.622  19.971   5.443
 5423POPC   PO468796  42.475  19.366   5.467
 5423POPC   GL168797  42.424  19.595   5.839
 5423POPC   GL268798  42.168  19.802   5.728
 5423POPC   C1A68799  42.495  19.915   6.160
 5423POPC   D2A68800  42.405  20.000   6.604
 5423POPC   C3A68801  42.544  19.753   6.971
 5423POPC   C4A68802  42.458  19.784   7.407
 5423POPC   C1B68803  41.991  19.804   6.121
 5423POPC   C2B68804  41.899  19.840   6.548
 5423POPC   C3B68805  42.042  19.826   6.928
 5423POPC   C4B68806  42.038  19.554   7.257
 5424POPC   NC368807  17.148  15.808   5.481
 5424POPC   PO468808  17.781  15.864   5.605
 5424POPC   GL168809  17.613  16.142   5.911
 5424POPC   GL268810  17.248  16.245   5.849
 5424POPC   C1A68811  17.644  15.969   6.318
 5424POPC   D2A68812  17.498  15.780   6.678
 5424POPC   C3A68813  17.701  15.887   7.031
 5424POPC   C4A68814  17.472  16.178   7.270
 5424POPC   C1B68815  17.149  15.995   6.206
 5424POPC   C2B68816  16.995  15.785   6.579
 5424POPC   C3B68817  17.098  15.946   6.980
 5424POPC   C4B68818  17.293  15.676   7.244
 5425POPC   NC368819  22.593  44.872   5.209
 5425POPC   PO468820  22.003  44.755   5.438
 5425POPC   GL168821  22.050  44.510   5.833
 5425POPC   GL268822  22.012  44.816   6.014
 5425POPC   C1A68823  22.326  44.480   6.242
 5425POPC   D2A68824  22.433  44.690   6.652
 5425POPC   C3A68825  22.405  44.391   6.984
 5425POPC   C4A68826  22.376  44.343   7.443
 5425POPC   C1B68827  21.813  44.548   6.338
 5425POPC   C2B68828  21.920  44.559   6.780
 5425POPC   C3B68829  21.790  44.532   7.206
 5425POPC   C4B68830  21.746  44.331   7.605
 5426POPC   NC368831   2.089   3.408   5.436
 5426POPC   PO468832   2.112   3.999   5.470
 5426POPC   GL168833   2.237   3.690   5.859
 5426POPC   GL268834   2.155   3.305   5.932
 5426POPC   C1A68835   2.047   3.649   6.288
 5426POPC   D2A68836   2.009   3.395   6.631
 5426POPC   C3A68837   1.981   3.614   6.996
 5426POPC   C4A68838   2.058   3.458   7.395
 5426POPC   C1B68839   1.725   3.279   6.122
 5426POPC   C2B68840   1.559   3.211   6.537
 5426POPC   C3B68841   1.776   3.109   7.021
 5426POPC   C4B68842   1.717   3.105   7.505
 5427POPC   NC368843  38.285  21.094   5.370
 5427POPC   PO468844  38.271  20.425   5.430
 5427POPC   GL168845  38.422  20.711   5.755
 5427POPC   GL268846  38.348  20.438   5.962
 5427POPC   C1A68847  38.492  20.876   6.206
 5427POPC   D2A68848  38.286  20.916   6.633
 5427POPC   C3A68849  38.522  20.818   7.009
 5427POPC   C4A68850  38.652  20.490   7.300
 5427POPC   C1B68851  38.065  20.563   6.301
 5427POPC   C2B68852  38.001  20.322   6.647
 5427POPC   C3B68853  38.238  20.350   7.032
 5427POPC   C4B68854  38.208  20.333   7.483
 5428POPC   NC368855  28.998  39.178   5.414
 5428POPC   PO468856  29.673  39.289   5.364
 5428POPC   GL168857  29.368  39.154   5.766
 5428POPC   GL268858  28.992  39.068   5.899
 5428POPC   C1A68859  29.325  39.243   6.230
 5428POPC   D2A68860  29.021  39.150   6.586
 5428POPC   C3A68861  29.187  39.080   7.034
 5428POPC   C4A68862  29.041  39.007   7.460
 5428POPC   C1B68863  28.827  39.456   6.142
 5428POPC   C2B68864  28.705  39.597   6.572
 5428POPC   C3B68865  28.773  39.392   6.978
 5428POPC   C4B68866  28.861  39.481   7.432
 5429POPC   NC368867  22.660  39.787   5.380
 5429POPC   PO468868  22.889  40.436   5.339
 5429POPC   GL168869  22.987  40.200   5.761
 5429POPC   GL268870  23.057  39.828   5.751
 5429POPC   C1A68871  22.890  40.119   6.224
 5429POPC   D2A68872  22.765  40.029   6.674
 5429POPC   C3A68873  23.005  40.163   7.055
 5429POPC   C4A68874  22.872  40.094   7.457
 5429POPC   C1B68875  23.260  39.746   6.156
 5429POPC   C2B68876  23.011  39.620   6.502
 5429POPC   C3B68877  23.037  39.665   6.945
 5429POPC   C4B68878  23.019  39.547   7.360
 5430POPC   NC368879  36.618  24.898   5.507
 5430POPC   PO468880  36.069  25.250   5.581
 5430POPC   GL168881  35.959  24.957   5.886
 5430POPC   GL268882  36.311  24.988   5.978
 5430POPC   C1A68883  35.957  24.899   6.335
 5430POPC   D2A68884  35.948  25.223   6.653
 5430POPC   C3A68885  35.868  25.268   7.076
 5430POPC   C4A68886  36.088  25.561   7.362
 5430POPC   C1B68887  36.311  25.348   6.304
 5430POPC   C2B68888  36.407  25.444   6.768
 5430POPC   C3B68889  36.385  25.209   7.153
 5430POPC   C4B68890  36.669  25.056   7.491
 5431POPC   NC368891  35.223  18.296   5.535
 5431POPC   PO468892  35.821  18.419   5.438
 5431POPC   GL168893  35.621  18.284   5.863
 5431POPC   GL268894  35.388  18.004   5.949
 5431POPC   C1A68895  35.309  18.427   6.223
 5431POPC   D2A68896  35.186  18.602   6.655
 5431POPC   C3A68897  35.297  18.429   7.068
 5431POPC   C4A68898  35.166  18.317   7.488
 5431POPC   C1B68899  35.639  18.047   6.359
 5431POPC   C2B68900  35.497  18.002   6.836
 5431POPC   C3B68901  35.113  17.922   7.166
 5431POPC   C4B68902  35.102  17.823   7.657
 5432POPC   NC368903   3.324  26.922   5.342
 5432POPC   PO468904   3.827  26.989   5.649
 5432POPC   GL168905   3.488  26.762   5.803
 5432POPC   GL268906   3.630  26.485   5.659
 5432POPC   C1A68907   3.322  26.881   6.197
 5432POPC   D2A68908   3.086  26.753   6.529
 5432POPC   C3A68909   3.252  26.905   6.920
 5432POPC   C4A68910   3.631  26.934   7.171
 5432POPC   C1B68911   3.777  26.517   6.131
 5432POPC   C2B68912   3.602  26.596   6.534
 5432POPC   C3B68913   3.807  26.406   6.854
 5432POPC   C4B68914   3.925  26.456   7.249
 5433POPC   NC368915  16.394   4.284   5.613
 5433POPC   PO468916  17.050   4.644   5.471
 5433POPC   GL168917  16.908   4.308   5.732
 5433POPC   GL268918  16.723   4.512   5.967
 5433POPC   C1A68919  16.920   4.086   6.155
 5433POPC   D2A68920  16.672   4.250   6.524
 5433POPC   C3A68921  16.839   4.444   6.892
 5433POPC   C4A68922  16.794   4.301   7.290
 5433POPC   C1B68923  16.397   4.631   6.284
 5433POPC   C2B68924  16.393   4.640   6.740
 5433POPC   C3B68925  16.344   4.304   7.029
 5433POPC   C4B68926  16.204   4.428   7.414
 5434POPC   NC368927   7.897  13.417   5.658
 5434POPC   PO468928   8.364  12.989   5.460
 5434POPC   GL168929   8.345  13.170   5.852
 5434POPC   GL268930   8.033  12.967   5.901
 5434POPC   C1A68931   8.372  13.057   6.289
 5434POPC   D2A68932   8.148  12.717   6.491
 5434POPC   C3A68933   8.087  12.740   6.926
 5434POPC   C4A68934   8.417  13.011   7.042
 5434POPC   C1B68935   7.835  13.134   6.241
 5434POPC   C2B68936   7.854  13.104   6.634
 5434POPC   C3B68937   7.687  13.095   7.002
 5434POPC   C4B68938   7.972  13.123   7.305
 5435POPC   NC368939   2.202   7.181   5.336
 5435POPC   PO468940   1.942   7.773   5.314
 5435POPC   GL168941   2.042   7.575   5.754
 5435POPC   GL268942   2.256   7.269   5.828
 5435POPC   C1A68943   1.832   7.337   6.119
 5435POPC   D2A68944   1.727   7.126   6.530
 5435POPC   C3A68945   1.800   7.422   6.858
 5435POPC   C4A68946   1.936   7.349   7.271
 5435POPC   C1B68947   2.319   7.529   6.186
 5435POPC   C2B68948   2.212   7.328   6.551
 5435POPC   C3B68949   2.325   7.453   6.949
 5435POPC   C4B68950   2.225   7.773   7.259
 5436POPC   NC368951  35.063  27.554   5.340
 5436POPC   PO468952  35.696  27.852   5.284
 5436POPC   GL168953  35.500  27.566   5.640
 5436POPC   GL268954  35.229  27.725   5.791
 5436POPC   C1A68955  35.417  27.396   6.118
 5436POPC   D2A68956  35.135  27.474   6.505
 5436POPC   C3A68957  35.326  27.537   6.914
 5436POPC   C4A68958  35.021  27.760   7.185
 5436POPC   C1B68959  35.175  27.896   6.232
 5436POPC   C2B68960  35.458  28.001   6.610
 5436POPC   C3B68961  35.573  27.976   7.080
 5436POPC   C4B68962  35.319  28.125   7.436
 5437POPC   NC368963  16.731   2.396   5.419
 5437POPC   PO468964  16.600   3.151   5.399
 5437POPC   GL168965  16.556   2.906   5.750
 5437POPC   GL268966  16.912   2.853   5.741
 5437POPC   C1A68967  16.627   3.028   6.172
 5437POPC   D2A68968  16.739   2.858   6.567
 5437POPC   C3A68969  16.687   3.034   6.957
 5437POPC   C4A68970  16.570   2.692   7.186
 5437POPC   C1B68971  17.127   2.945   6.146
 5437POPC   C2B68972  17.236   2.817   6.540
 5437POPC   C3B68973  17.063   2.593   6.895
 5437POPC   C4B68974  17.056   2.733   7.295
 5438POPC   NC368975  28.549  37.970   5.347
 5438POPC   PO468976  28.132  37.483   5.557
 5438POPC   GL168977  28.324  37.781   5.799
 5438POPC   GL268978  27.993  37.942   5.842
 5438POPC   C1A68979  28.563  37.679   6.193
 5438POPC   D2A68980  28.498  37.847   6.617
 5438POPC   C3A68981  28.617  37.568   6.937
 5438POPC   C4A68982  28.453  37.297   7.237
 5438POPC   C1B68983  28.066  37.702   6.230
 5438POPC   C2B68984  27.890  37.671   6.593
 5438POPC   C3B68985  28.101  37.665   6.934
 5438POPC   C4B68986  28.219  37.764   7.300
 5439POPC   NC368987  21.121  17.348   5.442
 5439POPC   PO468988  21.812  17.610   5.483
 5439POPC   GL168989  21.778  17.436   5.887
 5439POPC   GL268990  21.457  17.527   5.917
 5439POPC   C1A68991  21.667  17.268   6.287
 5439POPC   D2A68992  21.425  17.484   6.590
 5439POPC   C3A68993  21.552  17.305   6.956
 5439POPC   C4A68994  21.534  17.356   7.368
 5439POPC   C1B68995  21.196  17.763   6.225
 5439POPC   C2B68996  21.020  17.825   6.639
 5439POPC   C3B68997  21.259  17.728   7.014
 5439POPC   C4B68998  21.543  17.873   7.341
 5440POPC   NC368999  27.846  16.078   5.363
 5440POPC   PO469000  27.785  15.529   5.548
 5440POPC   GL169001  27.802  15.916   5.847
 5440POPC   GL269002  27.577  16.231   5.808
 5440POPC   C1A69003  27.788  16.100   6.263
 5440POPC   D2A69004  27.780  16.250   6.690
 5440POPC   C3A69005  27.787  15.893   6.963
 5440POPC   C4A69006  27.649  15.776   7.380
 5440POPC   C1B69007  27.351  15.898   6.068
 5440POPC   C2B69008  27.357  15.837   6.501
 5440POPC   C3B69009  27.326  16.087   6.857
 5440POPC   C4B69010  27.251  16.097   7.262
 5441POPC   NC369011   6.200   3.819   5.618
 5441POPC   PO469012   5.594   3.539   5.540
 5441POPC   GL169013   5.864   3.496   5.904
 5441POPC   GL269014   6.151   3.302   5.764
 5441POPC   C1A69015   5.974   3.769   6.285
 5441POPC   D2A69016   6.177   3.897   6.689
 5441POPC   C3A69017   6.034   3.807   7.118
 5441POPC   C4A69018   5.826   3.980   7.524
 5441POPC   C1B69019   6.250   3.337   6.206
 5441POPC   C2B69020   6.055   3.384   6.631
 5441POPC   C3B69021   5.864   3.317   7.047
 5441POPC   C4B69022   6.063   3.161   7.431
 5442POPC   NC369023   7.245  34.577   5.738
 5442POPC   PO469024   7.750  34.096   5.620
 5442POPC   GL169025   7.611  34.298   5.972
 5442POPC   GL269026   7.695  34.656   5.934
 5442POPC   C1A69027   7.324  34.269   6.343
 5442POPC   D2A69028   7.502  34.263   6.760
 5442POPC   C3A69029   7.299  34.498   7.087
 5442POPC   C4A69030   7.226  34.325   7.480
 5442POPC   C1B69031   7.675  34.621   6.386
 5442POPC   C2B69032   7.579  34.807   6.757
 5442POPC   C3B69033   7.805  34.586   7.057
 5442POPC   C4B69034   7.686  34.549   7.494
 5443POPC   NC369035  33.450  37.950   5.111
 5443POPC   PO469036  33.777  38.426   5.520
 5443POPC   GL169037  33.674  38.620   5.883
 5443POPC   GL269038  33.356  38.728   5.799
 5443POPC   C1A69039  33.779  38.526   6.304
 5443POPC   D2A69040  33.618  38.316   6.633
 5443POPC   C3A69041  33.743  38.395   7.042
 5443POPC   C4A69042  33.803  38.131   7.398
 5443POPC   C1B69043  33.380  38.865   6.250
 5443POPC   C2B69044  33.513  38.820   6.700
 5443POPC   C3B69045  33.494  38.836   7.159
 5443POPC   C4B69046  33.563  38.570   7.517
 5444POPC   NC369047  38.502  28.667   5.212
 5444POPC   PO469048  38.550  28.159   5.739
 5444POPC   GL169049  38.431  28.537   5.967
 5444POPC   GL269050  38.101  28.504   5.864
 5444POPC   C1A69051  38.473  28.642   6.419
 5444POPC   D2A69052  38.740  28.416   6.745
 5444POPC   C3A69053  38.710  28.367   7.219
 5444POPC   C4A69054  38.824  28.118   7.626
 5444POPC   C1B69055  38.089  28.223   6.243
 5444POPC   C2B69056  38.232  28.254   6.651
 5444POPC   C3B69057  38.296  28.575   6.931
 5444POPC   C4B69058  38.213  28.507   7.354
 5445POPC   NC369059  34.575  11.675   5.406
 5445POPC   PO469060  34.365  11.016   5.476
 5445POPC   GL169061  34.571  11.182   5.821
 5445POPC   GL269062  34.399  11.478   5.857
 5445POPC   C1A69063  34.767  11.187   6.228
 5445POPC   D2A69064  34.637  11.251   6.637
 5445POPC   C3A69065  34.794  11.260   7.037
 5445POPC   C4A69066  34.778  11.196   7.493
 5445POPC   C1B69067  34.479  11.636   6.281
 5445POPC   C2B69068  34.282  11.595   6.713
 5445POPC   C3B69069  34.334  11.500   7.177
 5445POPC   C4B69070  34.151  11.680   7.567
 5446POPC   NC369071   5.438  29.815   5.366
 5446POPC   PO469072   4.881  30.216   5.485
 5446POPC   GL169073   5.091  30.009   5.823
 5446POPC   GL269074   5.057  29.680   5.755
 5446POPC   C1A69075   5.147  30.068   6.279
 5446POPC   D2A69076   5.077  29.881   6.684
 5446POPC   C3A69077   5.050  30.042   7.108
 5446POPC   C4A69078   5.224  30.254   7.467
 5446POPC   C1B69079   5.377  29.643   6.122
 5446POPC   C2B69080   5.573  29.734   6.544
 5446POPC   C3B69081   5.507  29.804   6.990
 5446POPC   C4B69082   5.229  29.486   7.131
 5447POPC   NC369083   9.610  34.520   5.383
 5447POPC   PO469084  10.344  34.254   5.418
 5447POPC   GL169085   9.944  34.355   5.746
 5447POPC   GL269086   9.738  34.666   5.866
 5447POPC   C1A69087   9.785  34.314   6.216
 5447POPC   D2A69088  10.026  34.368   6.637
 5447POPC   C3A69089   9.789  34.273   7.021
 5447POPC   C4A69090   9.512  34.532   7.206
 5447POPC   C1B69091   9.819  34.834   6.292
 5447POPC   C2B69092   9.682  34.750   6.718
 5447POPC   C3B69093   9.945  34.762   7.070
 5447POPC   C4B69094  10.139  34.578   7.444
 5448POPC   NC369095  20.555  43.058   5.361
 5448POPC   PO469096  20.991  43.441   5.751
 5448POPC   GL169097  20.707  43.142   5.889
 5448POPC   GL269098  20.764  42.848   5.768
 5448POPC   C1A69099  20.563  43.065   6.278
 5448POPC   D2A69100  20.763  43.192   6.638
 5448POPC   C3A69101  20.464  43.288   6.930
 5448POPC   C4A69102  20.463  43.308   7.345
 5448POPC   C1B69103  20.948  42.731   6.144
 5448POPC   C2B69104  20.745  42.654   6.538
 5448POPC   C3B69105  20.718  42.823   7.006
 5448POPC   C4B69106  20.887  43.062   7.382
 5449POPC   NC369107  34.767  17.413   5.558
 5449POPC   PO469108  34.208  17.716   5.373
 5449POPC   GL169109  34.373  17.672   5.790
 5449POPC   GL269110  34.356  17.324   5.857
 5449POPC   C1A69111  34.568  17.686   6.210
 5449POPC   D2A69112  34.545  17.891   6.610
 5449POPC   C3A69113  34.674  17.699   6.945
 5449POPC   C4A69114  34.660  17.636   7.350
 5449POPC   C1B69115  34.507  17.129   6.221
 5449POPC   C2B69116  34.583  17.226   6.642
 5449POPC   C3B69117  34.382  17.290   7.052
 5449POPC   C4B69118  34.595  17.119   7.409
 5450POPC   NC369119   0.666  15.129   5.504
 5450POPC   PO469120   0.087  15.502   5.450
 5450POPC   GL169121   0.345  15.380   5.809
 5450POPC   GL269122   0.207  15.111   5.921
 5450POPC   C1A69123   0.438  15.456   6.258
 5450POPC   D2A69124   0.177  15.267   6.587
 5450POPC   C3A69125   0.310  15.189   6.967
 5450POPC   C4A69126   0.387  15.382   7.379
 5450POPC   C1B69127   0.488  14.959   6.188
 5450POPC   C2B69128   0.401  14.806   6.574
 5450POPC   C3B69129   0.637  14.775   6.900
 5450POPC   C4B69130   0.642  14.947   7.257
 5451POPC   NC369131  12.107  13.755   5.373
 5451POPC   PO469132  11.489  13.799   5.585
 5451POPC   GL169133  11.881  13.768   5.863
 5451POPC   GL269134  12.267  13.710   5.843
 5451POPC   C1A69135  12.034  13.759   6.304
 5451POPC   D2A69136  12.060  13.454   6.614
 5451POPC   C3A69137  11.801  13.506   6.960
 5451POPC   C4A69138  11.931  13.555   7.381
 5451POPC   C1B69139  12.476  13.517   6.193
 5451POPC   C2B69140  12.511  13.704   6.605
 5451POPC   C3B69141  12.287  13.731   7.013
 5451POPC   C4B69142  12.316  13.863   7.439
 5452POPC   NC369143  20.930  28.194   5.426
 5452POPC   PO469144  20.394  28.666   5.453
 5452POPC   GL169145  20.341  28.384   5.832
 5452POPC   GL269146  20.532  28.073   5.807
 5452POPC   C1A69147  20.382  28.223   6.268
 5452POPC   D2A69148  20.648  28.344   6.580
 5452POPC   C3A69149  20.421  28.350   6.915
 5452POPC   C4A69150  20.377  28.403   7.335
 5452POPC   C1B69151  20.862  28.147   6.124
 5452POPC   C2B69152  20.998  27.990   6.555
 5452POPC   C3B69153  21.036  28.155   6.979
 5452POPC   C4B69154  20.847  28.546   7.125
 5453POPC   NC369155   0.543  44.057   5.413
 5453POPC   PO469156  44.885  43.760   5.517
 5453POPC   GL169157   0.276  43.671   5.702
 5453POPC   GL269158   0.209  43.980   5.883
 5453POPC   C1A69159   0.534  43.631   6.094
 5453POPC   D2A69160   0.318  43.827   6.457
 5453POPC   C3A69161   0.415  43.847   6.907
 5453POPC   C4A69162   0.534  43.641   7.291
 5453POPC   C1B69163   0.552  44.146   6.119
 5453POPC   C2B69164   0.579  44.279   6.561
 5453POPC   C3B69165   0.298  44.360   6.920
 5453POPC   C4B69166   0.338  44.187   7.325
 5454POPC   NC369167   6.162  34.945   5.436
 5454POPC   PO469168   5.668  34.439   5.468
 5454POPC   GL169169   5.655  34.667   5.849
 5454POPC   GL269170   5.852  34.971   5.845
 5454POPC   C1A69171   5.790  34.691   6.271
 5454POPC   D2A69172   5.648  34.857   6.612
 5454POPC   C3A69173   5.807  34.711   6.979
 5454POPC   C4A69174   5.623  34.532   7.307
 5454POPC   C1B69175   6.152  35.051   6.202
 5454POPC   C2B69176   6.155  34.932   6.665
 5454POPC   C3B69177   6.207  35.007   7.129
 5454POPC   C4B69178   6.194  35.084   7.579
 5455POPC   NC369179  28.725  44.599   5.235
 5455POPC   PO469180  28.163  44.910   5.443
 5455POPC   GL169181  28.386  44.701   5.768
 5455POPC   GL269182  28.277  44.369   5.783
 5455POPC   C1A69183  28.430  44.728   6.234
 5455POPC   D2A69184  28.382  44.957   6.654
 5455POPC   C3A69185  28.601  44.763   7.023
 5455POPC   C4A69186  28.434  44.666   7.435
 5455POPC   C1B69187  28.079  44.320   6.198
 5455POPC   C2B69188  28.087  44.545   6.579
 5455POPC   C3B69189  28.094  44.691   7.003
 5455POPC   C4B69190  27.855  44.447   7.261
 5456POPC   NC369191  10.675  28.742   5.564
 5456POPC   PO469192  10.818  29.362   5.494
 5456POPC   GL169193  10.641  29.201   5.845
 5456POPC   GL269194  10.317  29.024   5.797
 5456POPC   C1A69195  10.590  29.123   6.265
 5456POPC   D2A69196  10.332  29.288   6.576
 5456POPC   C3A69197  10.497  29.394   6.972
 5456POPC   C4A69198  10.373  29.653   7.297
 5456POPC   C1B69199  10.205  28.780   6.196
 5456POPC   C2B69200  10.094  28.832   6.638
 5456POPC   C3B69201  10.062  29.089   6.993
 5456POPC   C4B69202  10.389  29.003   7.282
 5457POPC   NC369203   3.817  33.385   5.537
 5457POPC   PO469204   3.347  32.898   5.385
 5457POPC   GL169205   3.556  32.999   5.793
 5457POPC   GL269206   3.401  33.342   5.878
 5457POPC   C1A69207   3.628  32.735   6.180
 5457POPC   D2A69208   3.528  32.792   6.650
 5457POPC   C3A69209   3.803  32.744   7.008
 5457POPC   C4A69210   3.937  33.177   7.171
 5457POPC   C1B69211   3.305  33.119   6.287
 5457POPC   C2B69212   3.103  33.041   6.711
 5457POPC   C3B69213   3.301  33.151   7.145
 5457POPC   C4B69214   3.222  33.148   7.626
 5458POPC   NC369215  14.522  22.369   5.455
 5458POPC   PO469216  14.370  21.728   5.404
 5458POPC   GL169217  14.330  21.970   5.772
 5458POPC   GL269218  14.656  22.063   5.883
 5458POPC   C1A69219  14.275  22.108   6.215
 5458POPC   D2A69220  14.518  22.091   6.572
 5458POPC   C3A69221  14.367  22.161   6.999
 5458POPC   C4A69222  14.113  22.002   7.351
 5458POPC   C1B69223  14.732  22.409   6.224
 5458POPC   C2B69224  14.673  22.636   6.643
 5458POPC   C3B69225  14.639  22.601   7.127
 5458POPC   C4B69226  14.491  22.387   7.524
 5459POPC   NC369227   2.382  34.053   5.425
 5459POPC   PO469228   2.003  33.661   5.047
 5459POPC   GL169229   2.002  33.687   5.536
 5459POPC   GL269230   2.051  33.950   5.790
 5459POPC   C1A69231   2.032  33.471   5.994
 5459POPC   D2A69232   2.146  33.428   6.477
 5459POPC   C3A69233   1.909  33.649   6.851
 5459POPC   C4A69234   1.667  33.575   7.258
 5459POPC   C1B69235   2.247  33.895   6.218
 5459POPC   C2B69236   2.454  34.050   6.609
 5459POPC   C3B69237   2.344  34.065   7.035
 5459POPC   C4B69238   2.148  33.780   7.321
 5460POPC   NC369239   9.073  42.305   5.398
 5460POPC   PO469240   8.492  42.732   5.458
 5460POPC   GL169241   8.798  42.519   5.767
 5460POPC   GL269242   9.080  42.702   5.786
 5460POPC   C1A69243   9.072  42.286   6.088
 5460POPC   D2A69244   9.214  42.366   6.516
 5460POPC   C3A69245   9.012  42.255   6.901
 5460POPC   C4A69246   9.035  42.189   7.346
 5460POPC   C1B69247   8.951  42.748   6.259
 5460POPC   C2B69248   8.736  42.734   6.671
 5460POPC   C3B69249   8.733  42.623   7.116
 5460POPC   C4B69250   8.703  42.548   7.577
 5461POPC   NC369251   3.857  27.484   5.601
 5461POPC   PO469252   3.113  27.354   5.407
 5461POPC   GL169253   3.368  27.601   5.802
 5461POPC   GL269254   3.433  27.269   5.848
 5461POPC   C1A69255   3.631  27.811   6.204
 5461POPC   D2A69256   3.841  27.682   6.610
 5461POPC   C3A69257   3.812  27.860   7.029
 5461POPC   C4A69258   3.614  27.745   7.422
 5461POPC   C1B69259   3.650  27.304   6.239
 5461POPC   C2B69260   3.528  27.247   6.658
 5461POPC   C3B69261   3.458  27.408   7.077
 5461POPC   C4B69262   3.473  27.278   7.553
 5462POPC   NC369263  42.087   1.886   5.499
 5462POPC   PO469264  42.718   2.012   5.406
 5462POPC   GL169265  42.504   2.124   5.821
 5462POPC   GL269266  42.144   2.264   5.850
 5462POPC   C1A69267  42.341   1.845   6.173
 5462POPC   D2A69268  42.395   1.594   6.563
 5462POPC   C3A69269  42.452   1.770   6.961
 5462POPC   C4A69270  42.258   1.719   7.368
 5462POPC   C1B69271  41.948   2.159   6.258
 5462POPC   C2B69272  42.088   2.017   6.659
 5462POPC   C3B69273  42.119   2.155   7.105
 5462POPC   C4B69274  41.883   2.043   7.449
 5463POPC   NC369275  42.835  43.191   5.376
 5463POPC   PO469276  43.421  42.831   5.482
 5463POPC   GL169277  43.286  42.895   5.881
 5463POPC   GL269278  43.011  43.131   5.865
 5463POPC   C1A69279  43.330  43.037   6.311
 5463POPC   D2A69280  43.102  43.325   6.587
 5463POPC   C3A69281  43.246  43.316   6.988
 5463POPC   C4A69282  43.346  43.038   7.260
 5463POPC   C1B69283  42.805  43.025   6.268
 5463POPC   C2B69284  42.891  42.815   6.692
 5463POPC   C3B69285  42.831  43.033   7.098
 5463POPC   C4B69286  42.794  43.501   7.150
 5464POPC   NC369287  34.710  15.571   5.804
 5464POPC   PO469288  34.874  16.179   5.509
 5464POPC   GL169289  34.793  16.243   5.946
 5464POPC   GL269290  34.495  16.059   5.881
 5464POPC   C1A69291  34.771  16.020   6.362
 5464POPC   D2A69292  34.437  15.821   6.641
 5464POPC   C3A69293  34.534  15.729   7.063
 5464POPC   C4A69294  34.834  15.980   7.276
 5464POPC   C1B69295  34.289  16.139   6.256
 5464POPC   C2B69296  34.459  16.340   6.651
 5464POPC   C3B69297  34.260  16.358   7.046
 5464POPC   C4B69298  34.273  16.184   7.445
 5465POPC   NC369299   5.595  41.073   5.383
 5465POPC   PO469300   6.251  40.971   5.649
 5465POPC   GL169301   5.865  40.896   5.875
 5465POPC   GL269302   5.591  40.670   5.763
 5465POPC   C1A69303   5.865  40.671   6.274
 5465POPC   D2A69304   5.813  40.505   6.714
 5465POPC   C3A69305   5.902  40.810   7.034
 5465POPC   C4A69306   5.831  41.169   7.278
 5465POPC   C1B69307   5.369  40.747   6.142
 5465POPC   C2B69308   5.499  40.883   6.568
 5465POPC   C3B69309   5.408  40.804   6.956
 5465POPC   C4B69310   5.264  40.938   7.349
 5466POPC   NC369311  41.027   5.528   5.535
 5466POPC   PO469312  40.789   6.230   5.379
 5466POPC   GL169313  40.889   6.057   5.772
 5466POPC   GL269314  41.205   6.145   5.932
 5466POPC   C1A69315  40.589   5.988   6.107
 5466POPC   D2A69316  40.518   5.801   6.498
 5466POPC   C3A69317  40.657   5.938   6.900
 5466POPC   C4A69318  40.612   5.671   7.258
 5466POPC   C1B69319  41.043   5.781   6.201
 5466POPC   C2B69320  41.052   5.631   6.600
 5466POPC   C3B69321  41.065   5.641   7.015
 5466POPC   C4B69322  41.052   5.962   7.286
 5467POPC   NC369323  31.168  26.500   5.098
 5467POPC   PO469324  30.681  26.950   5.186
 5467POPC   GL169325  30.669  26.835   5.649
 5467POPC   GL269326  30.395  26.735   5.814
 5467POPC   C1A69327  30.875  26.875   6.088
 5467POPC   D2A69328  30.938  26.790   6.551
 5467POPC   C3A69329  30.867  27.012   6.977
 5467POPC   C4A69330  30.847  26.797   7.428
 5467POPC   C1B69331  30.380  26.947   6.204
 5467POPC   C2B69332  30.414  26.788   6.603
 5467POPC   C3B69333  30.256  26.703   6.967
 5467POPC   C4B69334  30.360  26.875   7.339
 5468POPC   NC369335  38.973  37.723   5.615
 5468POPC   PO469336  39.570  37.635   5.296
 5468POPC   GL169337  39.467  37.612   5.745
 5468POPC   GL269338  39.465  37.966   5.799
 5468POPC   C1A69339  39.285  37.483   6.170
 5468POPC   D2A69340  39.095  37.469   6.600
 5468POPC   C3A69341  39.350  37.381   6.961
 5468POPC   C4A69342  39.187  37.459   7.365
 5468POPC   C1B69343  39.548  37.944   6.250
 5468POPC   C2B69344  39.495  37.835   6.688
 5468POPC   C3B69345  39.278  37.891   7.080
 5468POPC   C4B69346  39.570  37.851   7.396
 5469POPC   NC369347  19.755  19.437   5.709
 5469POPC   PO469348  19.615  18.877   5.330
 5469POPC   GL169349  19.825  18.939   5.758
 5469POPC   GL269350  19.575  19.079   6.002
 5469POPC   C1A69351  20.044  18.898   6.200
 5469POPC   D2A69352  19.855  18.720   6.581
 5469POPC   C3A69353  19.733  19.012   6.909
 5469POPC   C4A69354  19.723  18.957   7.395
 5469POPC   C1B69355  19.763  19.288   6.355
 5469POPC   C2B69356  19.926  19.475   6.724
 5469POPC   C3B69357  19.875  19.428   7.168
 5469POPC   C4B69358  19.906  19.541   7.581
 5470POPC   NC369359  27.038  37.197   4.958
 5470POPC   PO469360  26.532  36.928   5.341
 5470POPC   GL169361  26.682  37.013   5.739
 5470POPC   GL269362  27.036  37.082   5.812
 5470POPC   C1A69363  26.682  36.870   6.149
 5470POPC   D2A69364  26.800  36.719   6.558
 5470POPC   C3A69365  26.774  36.989   6.911
 5470POPC   C4A69366  26.731  36.883   7.327
 5470POPC   C1B69367  27.137  37.065   6.281
 5470POPC   C2B69368  27.276  36.952   6.707
 5470POPC   C3B69369  27.239  37.061   7.139
 5470POPC   C4B69370  27.207  36.709   7.408
 5471POPC   NC369371  38.404  31.176   5.507
 5471POPC   PO469372  38.223  31.796   5.298
 5471POPC   GL169373  38.522  31.644   5.742
 5471POPC   GL269374  38.713  31.309   5.880
 5471POPC   C1A69375  38.565  31.640   6.242
 5471POPC   D2A69376  38.369  31.834   6.634
 5471POPC   C3A69377  38.498  31.827   7.071
 5471POPC   C4A69378  38.755  31.436   7.229
 5471POPC   C1B69379  38.325  31.160   6.140
 5471POPC   C2B69380  38.184  31.335   6.502
 5471POPC   C3B69381  38.418  31.384   6.846
 5471POPC   C4B69382  38.259  31.367   7.225
 5472POPC   NC369383  12.368  26.207   5.243
 5472POPC   PO469384  11.725  26.140   5.345
 5472POPC   GL169385  12.002  26.144   5.704
 5472POPC   GL269386  12.211  25.857   5.814
 5472POPC   C1A69387  12.026  26.376   6.107
 5472POPC   D2A69388  11.830  26.383   6.529
 5472POPC   C3A69389  12.099  26.224   6.850
 5472POPC   C4A69390  12.133  26.205   7.295
 5472POPC   C1B69391  12.181  25.907   6.276
 5472POPC   C2B69392  12.467  25.920   6.641
 5472POPC   C3B69393  12.315  25.774   7.044
 5472POPC   C4B69394  12.315  25.773   7.498
 5473POPC   NC369395  43.552  22.973   5.369
 5473POPC   PO469396  42.912  22.715   5.549
 5473POPC   GL169397  43.129  22.938   5.864
 5473POPC   GL269398  43.425  23.161   5.817
 5473POPC   C1A69399  42.935  22.839   6.253
 5473POPC   D2A69400  42.881  22.594   6.607
 5473POPC   C3A69401  42.938  22.895   6.929
 5473POPC   C4A69402  42.840  22.706   7.297
 5473POPC   C1B69403  43.543  22.983   6.223
 5473POPC   C2B69404  43.333  22.891   6.566
 5473POPC   C3B69405  43.486  22.947   6.924
 5473POPC   C4B69406  43.350  22.907   7.281
 5474POPC   NC369407   4.281  20.034   5.404
 5474POPC   PO469408   4.727  19.479   5.402
 5474POPC   GL169409   4.320  19.599   5.659
 5474POPC   GL269410   4.001  19.477   5.751
 5474POPC   C1A69411   4.191  19.840   6.053
 5474POPC   D2A69412   4.212  19.787   6.514
 5474POPC   C3A69413   4.173  20.068   6.852
 5474POPC   C4A69414   4.385  20.014   7.201
 5474POPC   C1B69415   3.791  19.508   6.190
 5474POPC   C2B69416   3.889  19.371   6.621
 5474POPC   C3B69417   3.971  19.611   6.991
 5474POPC   C4B69418   3.924  19.885   7.374
 5475POPC   NC369419  24.912  41.899   5.432
 5475POPC   PO469420  25.445  41.549   5.500
 5475POPC   GL169421  25.294  41.622   5.865
 5475POPC   GL269422  25.659  41.648   5.937
 5475POPC   C1A69423  25.113  41.711   6.250
 5475POPC   D2A69424  24.994  41.831   6.679
 5475POPC   C3A69425  24.997  41.446   6.943
 5475POPC   C4A69426  25.231  41.369   7.319
 5475POPC   C1B69427  25.567  41.293   6.148
 5475POPC   C2B69428  25.700  41.249   6.538
 5475POPC   C3B69429  25.824  41.288   6.934
 5475POPC   C4B69430  25.720  41.453   7.284
 5476POPC   NC369431   9.106  15.197   5.285
 5476POPC   PO469432   8.638  15.524   5.542
 5476POPC   GL169433   8.946  15.250   5.767
 5476POPC   GL269434   8.886  14.908   5.663
 5476POPC   C1A69435   9.224  15.070   6.090
 5476POPC   D2A69436   9.073  15.065   6.514
 5476POPC   C3A69437   9.308  15.104   6.897
 5476POPC   C4A69438   9.202  15.308   7.271
 5476POPC   C1B69439   8.759  14.853   6.102
 5476POPC   C2B69440   8.813  14.623   6.503
 5476POPC   C3B69441   8.855  14.679   6.920
 5476POPC   C4B69442   9.160  14.741   7.237
 5477POPC   NC369443  32.966   3.662   5.449
 5477POPC   PO469444  32.314   3.807   5.312
 5477POPC   GL169445  32.649   3.848   5.796
 5477POPC   GL269446  33.008   3.605   5.924
 5477POPC   C1A69447  32.655   3.673   6.235
 5477POPC   D2A69448  32.985   3.690   6.601
 5477POPC   C3A69449  32.865   3.653   7.057
 5477POPC   C4A69450  32.930   3.607   7.552
 5477POPC   C1B69451  33.181   3.344   6.255
 5477POPC   C2B69452  33.271   3.235   6.681
 5477POPC   C3B69453  33.299   3.379   7.089
 5477POPC   C4B69454  33.335   3.257   7.525
 5478POPC   NC369455  17.995  24.785   5.635
 5478POPC   PO469456  18.430  24.374   5.292
 5478POPC   GL169457  18.458  24.286   5.749
 5478POPC   GL269458  18.218  23.977   5.764
 5478POPC   C1A69459  18.485  24.584   6.155
 5478POPC   D2A69460  18.567  24.911   6.518
 5478POPC   C3A69461  18.609  24.709   6.937
 5478POPC   C4A69462  18.251  24.614   7.198
 5478POPC   C1B69463  18.180  24.166   6.177
 5478POPC   C2B69464  18.257  24.295   6.607
 5478POPC   C3B69465  18.065  24.163   6.986
 5478POPC   C4B69466  18.116  24.110   7.418
 5479POPC   NC369467  29.638  36.402   5.128
 5479POPC   PO469468  30.140  36.112   5.317
 5479POPC   GL169469  30.125  36.092   5.771
 5479POPC   GL269470  30.404  35.914   5.853
 5479POPC   C1A69471  29.873  36.092   6.190
 5479POPC   D2A69472  29.874  36.327   6.585
 5479POPC   C3A69473  29.973  36.223   7.013
 5479POPC   C4A69474  29.960  36.337   7.447
 5479POPC   C1B69475  30.124  35.672   6.113
 5479POPC   C2B69476  29.882  35.661   6.509
 5479POPC   C3B69477  29.983  35.725   6.936
 5479POPC   C4B69478  29.845  35.848   7.376
 5480POPC   NC369479   4.613  10.844   5.511
 5480POPC   PO469480   4.597  10.173   5.287
 5480POPC   GL169481   4.365  10.305   5.700
 5480POPC   GL269482   4.459  10.578   5.913
 5480POPC   C1A69483   4.231  10.199   6.167
 5480POPC   D2A69484   4.030  10.354   6.573
 5480POPC   C3A69485   4.087  10.174   6.987
 5480POPC   C4A69486   4.122  10.391   7.371
 5480POPC   C1B69487   4.263  10.723   6.269
 5480POPC   C2B69488   4.434  10.674   6.666
 5480POPC   C3B69489   4.234  10.742   7.028
 5480POPC   C4B69490   4.453  10.813   7.389
 5481POPC   NC369491   6.753  18.555   5.421
 5481POPC   PO469492   6.497  17.980   5.588
 5481POPC   GL169493   6.542  18.333   5.866
 5481POPC   GL269494   6.897  18.479   5.918
 5481POPC   C1A69495   6.554  18.307   6.325
 5481POPC   D2A69496   6.842  18.500   6.638
 5481POPC   C3A69497   6.737  18.351   7.048
 5481POPC   C4A69498   6.361  18.105   7.134
 5481POPC   C1B69499   7.037  18.192   6.250
 5481POPC   C2B69500   6.944  17.993   6.668
 5481POPC   C3B69501   6.930  17.883   7.121
 5481POPC   C4B69502   6.695  17.938   7.506
 5482POPC   NC369503  40.106  14.043   5.297
 5482POPC   PO469504  39.887  14.703   5.432
 5482POPC   GL169505  40.012  14.596   5.785
 5482POPC   GL269506  39.971  14.248   5.757
 5482POPC   C1A69507  39.814  14.554   6.164
 5482POPC   D2A69508  39.774  14.336   6.537
 5482POPC   C3A69509  39.628  14.524   6.904
 5482POPC   C4A69510  39.838  14.705   7.247
 5482POPC   C1B69511  40.072  14.093   6.183
 5482POPC   C2B69512  40.064  13.908   6.591
 5482POPC   C3B69513  40.011  14.158   6.960
 5482POPC   C4B69514  40.311  14.437   7.165
 5483POPC   NC369515  25.915   2.158   5.413
 5483POPC   PO469516  26.535   1.952   5.474
 5483POPC   GL169517  26.251   1.800   5.795
 5483POPC   GL269518  25.885   1.688   5.794
 5483POPC   C1A69519  26.043   2.072   6.075
 5483POPC   D2A69520  26.108   2.104   6.504
 5483POPC   C3A69521  25.872   2.138   6.870
 5483POPC   C4A69522  26.114   2.081   7.248
 5483POPC   C1B69523  25.847   1.655   6.274
 5483POPC   C2B69524  25.788   1.649   6.709
 5483POPC   C3B69525  25.542   1.791   7.066
 5483POPC   C4B69526  25.631   2.095   7.383
 5484POPC   NC369527   9.500  39.818   5.735
 5484POPC   PO469528   9.075  40.214   5.415
 5484POPC   GL169529   9.006  40.163   5.823
 5484POPC   GL269530   9.022  39.827   5.898
 5484POPC   C1A69531   9.046  40.292   6.239
 5484POPC   D2A69532   9.158  40.407   6.656
 5484POPC   C3A69533   8.991  40.084   6.936
 5484POPC   C4A69534   9.036  40.002   7.370
 5484POPC   C1B69535   9.211  39.783   6.328
 5484POPC   C2B69536   9.375  39.776   6.763
 5484POPC   C3B69537   9.238  39.583   7.144
 5484POPC   C4B69538   9.054  39.489   7.563
 5485POPC   NC369539  27.749  14.383   5.391
 5485POPC   PO469540  27.214  14.726   5.674
 5485POPC   GL169541  27.477  14.410   5.821
 5485POPC   GL269542  27.803  14.540   5.872
 5485POPC   C1A69543  27.466  14.330   6.222
 5485POPC   D2A69544  27.400  14.597   6.562
 5485POPC   C3A69545  27.512  14.322   6.867
 5485POPC   C4A69546  27.453  14.257   7.291
 5485POPC   C1B69547  27.980  14.294   6.223
 5485POPC   C2B69548  28.065  14.455   6.635
 5485POPC   C3B69549  27.981  14.341   7.059
 5485POPC   C4B69550  27.898  14.471   7.467
 5486POPC   NC369551  43.500  38.961   5.317
 5486POPC   PO469552  42.886  39.166   5.537
 5486POPC   GL169553  43.018  39.215   5.912
 5486POPC   GL269554  43.306  39.365   5.744
 5486POPC   C1A69555  43.047  39.070   6.325
 5486POPC   D2A69556  43.279  39.255   6.660
 5486POPC   C3A69557  43.189  39.037   7.029
 5486POPC   C4A69558  42.758  39.071   7.091
 5486POPC   C1B69559  43.419  39.423   6.155
 5486POPC   C2B69560  43.448  39.761   6.420
 5486POPC   C3B69561  43.346  39.734   6.842
 5486POPC   C4B69562  43.403  39.476   7.178
 5487POPC   NC369563   6.740   5.521   5.300
 5487POPC   PO469564   6.371   6.119   5.579
 5487POPC   GL169565   6.440   6.130   5.973
 5487POPC   GL269566   6.534   5.809   5.953
 5487POPC   C1A69567   6.755   6.125   6.311
 5487POPC   D2A69568   7.052   5.831   6.519
 5487POPC   C3A69569   6.999   5.952   6.959
 5487POPC   C4A69570   6.960   5.925   7.407
 5487POPC   C1B69571   6.385   5.745   6.326
 5487POPC   C2B69572   6.557   5.784   6.707
 5487POPC   C3B69573   6.609   5.651   7.109
 5487POPC   C4B69574   6.509   5.761   7.532
 5488POPC   NC369575  39.118   3.967   5.445
 5488POPC   PO469576  39.559   3.469   5.418
 5488POPC   GL169577  39.278   3.582   5.742
 5488POPC   GL269578  38.912   3.500   5.684
 5488POPC   C1A69579  39.414   3.742   6.117
 5488POPC   D2A69580  39.362   3.785   6.538
 5488POPC   C3A69581  39.317   3.519   6.846
 5488POPC   C4A69582  39.378   3.674   7.228
 5488POPC   C1B69583  38.900   3.662   6.119
 5488POPC   C2B69584  38.856   3.764   6.564
 5488POPC   C3B69585  38.872   3.690   7.018
 5488POPC   C4B69586  39.008   3.277   7.191
 5489POPC   NC369587  31.329  18.023   5.541
 5489POPC   PO469588  31.655  18.665   5.445
 5489POPC   GL169589  31.542  18.392   5.807
 5489POPC   GL269590  31.734  18.083   5.912
 5489POPC   C1A69591  31.292  18.226   6.163
 5489POPC   D2A69592  31.544  18.211   6.484
 5489POPC   C3A69593  31.424  18.190   6.901
 5489POPC   C4A69594  31.454  18.301   7.306
 5489POPC   C1B69595  31.852  17.858   6.314
 5489POPC   C2B69596  31.872  17.946   6.786
 5489POPC   C3B69597  31.684  17.858   7.187
 5489POPC   C4B69598  31.760  18.003   7.613
 5490POPC   NC369599  23.441  24.098   5.594
 5490POPC   PO469600  23.714  23.469   5.500
 5490POPC   GL169601  23.709  23.733   5.864
 5490POPC   GL269602  23.375  23.743   6.000
 5490POPC   C1A69603  23.879  23.949   6.226
 5490POPC   D2A69604  23.977  23.783   6.617
 5490POPC   C3A69605  23.912  23.990   6.982
 5490POPC   C4A69606  23.751  23.742   7.330
 5490POPC   C1B69607  23.522  23.631   6.423
 5490POPC   C2B69608  23.442  23.831   6.860
 5490POPC   C3B69609  23.364  24.017   7.257
 5490POPC   C4B69610  23.506  23.990   7.725
 5491POPC   NC369611   6.208  30.007   5.166
 5491POPC   PO469612   6.811  29.735   5.369
 5491POPC   GL169613   6.709  29.980   5.772
 5491POPC   GL269614   6.434  29.890   6.004
 5491POPC   C1A69615   6.804  30.190   6.192
 5491POPC   D2A69616   6.597  30.148   6.615
 5491POPC   C3A69617   6.816  29.958   6.964
 5491POPC   C4A69618   6.957  30.204   7.284
 5491POPC   C1B69619   6.501  29.630   6.358
 5491POPC   C2B69620   6.532  29.559   6.799
 5491POPC   C3B69621   6.416  29.650   7.211
 5491POPC   C4B69622   6.376  29.575   7.662
 5492POPC   NC369623   4.738  40.808   4.948
 5492POPC   PO469624   5.288  40.725   5.338
 5492POPC   GL169625   5.060  40.765   5.710
 5492POPC   GL269626   5.088  40.424   5.826
 5492POPC   C1A69627   4.911  41.017   6.066
 5492POPC   D2A69628   5.003  40.870   6.506
 5492POPC   C3A69629   4.963  41.049   6.912
 5492POPC   C4A69630   4.676  40.927   7.228
 5492POPC   C1B69631   4.845  40.508   6.169
 5492POPC   C2B69632   4.759  40.418   6.590
 5492POPC   C3B69633   4.968  40.547   6.965
 5492POPC   C4B69634   4.944  40.532   7.426
 5493POPC   NC369635  34.913  22.723   5.471
 5493POPC   PO469636  34.308  23.102   5.449
 5493POPC   GL169637  34.442  23.036   5.910
 5493POPC   GL269638  34.552  22.710   5.862
 5493POPC   C1A69639  34.474  22.992   6.408
 5493POPC   D2A69640  34.164  23.072   6.744
 5493POPC   C3A69641  34.212  22.717   7.012
 5493POPC   C4A69642  34.510  22.821   7.272
 5493POPC   C1B69643  34.494  22.512   6.257
 5493POPC   C2B69644  34.662  22.599   6.682
 5493POPC   C3B69645  34.805  22.419   7.070
 5493POPC   C4B69646  34.560  22.359   7.464
 5494POPC   NC369647  23.536  32.264   5.373
 5494POPC   PO469648  24.126  32.512   5.628
 5494POPC   GL169649  23.746  32.349   5.841
 5494POPC   GL269650  23.386  32.469   5.828
 5494POPC   C1A69651  23.525  32.012   6.067
 5494POPC   D2A69652  23.453  31.832   6.485
 5494POPC   C3A69653  23.668  32.104   6.799
 5494POPC   C4A69654  23.740  32.042   7.252
 5494POPC   C1B69655  23.486  32.474   6.284
 5494POPC   C2B69656  23.472  32.625   6.709
 5494POPC   C3B69657  23.461  32.451   7.121
 5494POPC   C4B69658  23.437  32.370   7.571
 5495POPC   NC369659  22.106  24.957   5.661
 5495POPC   PO469660  22.391  24.500   5.304
 5495POPC   GL169661  22.316  24.515   5.784
 5495POPC   GL269662  22.097  24.281   5.947
 5495POPC   C1A69663  22.324  24.651   6.255
 5495POPC   D2A69664  22.133  24.537   6.686
 5495POPC   C3A69665  22.183  24.543   7.173
 5495POPC   C4A69666  22.044  24.337   7.583
 5495POPC   C1B69667  21.810  24.501   6.248
 5495POPC   C2B69668  21.631  24.698   6.630
 5495POPC   C3B69669  21.821  24.850   7.005
 5495POPC   C4B69670  21.855  24.833   7.442
 5496POPC   NC369671  11.021  39.564   5.330
 5496POPC   PO469672  10.307  39.390   5.287
 5496POPC   GL169673  10.310  39.199   5.718
 5496POPC   GL269674  10.162  38.870   5.683
 5496POPC   C1A69675  10.609  39.233   6.078
 5496POPC   D2A69676  10.795  39.223   6.490
 5496POPC   C3A69677  10.596  39.361   6.833
 5496POPC   C4A69678  10.565  39.317   7.239
 5496POPC   C1B69679  10.272  38.859   6.127
 5496POPC   C2B69680  10.308  39.028   6.557
 5496POPC   C3B69681  10.356  38.900   7.005
 5496POPC   C4B69682  10.250  39.032   7.482
 5497POPC   NC369683  35.995  44.851   5.424
 5497POPC   PO469684  36.567  44.361   5.401
 5497POPC   GL169685  36.325  44.586   5.775
 5497POPC   GL269686  35.978  44.482   5.864
 5497POPC   C1A69687  36.373  44.834   6.190
 5497POPC   D2A69688  36.289   0.024   6.604
 5497POPC   C3A69689  36.163  44.759   6.907
 5497POPC   C4A69690  36.229  44.750   7.300
 5497POPC   C1B69691  35.907  44.624   6.314
 5497POPC   C2B69692  35.785  44.476   6.734
 5497POPC   C3B69693  35.708  44.542   7.170
 5497POPC   C4B69694  35.859  44.598   7.603
 5498POPC   NC369695  34.618  28.432   5.164
 5498POPC   PO469696  34.462  28.503   5.803
 5498POPC   GL169697  34.289  28.407   6.111
 5498POPC   GL269698  34.381  28.060   6.100
 5498POPC   C1A69699  34.296  28.676   6.405
 5498POPC   D2A69700  34.586  28.593   6.657
 5498POPC   C3A69701  34.487  28.257   6.840
 5498POPC   C4A69702  34.402  28.279   7.248
 5498POPC   C1B69703  34.755  28.212   6.327
 5498POPC   C2B69704  34.969  28.108   6.709
 5498POPC   C3B69705  34.922  28.265   7.123
 5498POPC   C4B69706  34.782  28.091   7.519
 5499POPC   NC369707  17.762  43.863   5.512
 5499POPC   PO469708  17.280  44.237   5.441
 5499POPC   GL169709  17.300  43.959   5.831
 5499POPC   GL269710  17.092  44.205   6.040
 5499POPC   C1A69711  17.628  43.676   6.106
 5499POPC   D2A69712  17.925  43.779   6.452
 5499POPC   C3A69713  17.855  43.723   6.901
 5499POPC   C4A69714  17.731  43.982   7.234
 5499POPC   C1B69715  17.368  44.015   6.345
 5499POPC   C2B69716  17.355  43.794   6.719
 5499POPC   C3B69717  17.316  44.160   6.944
 5499POPC   C4B69718  17.275  44.343   7.304
 5500POPC   NC369719  28.092   8.891   5.373
 5500POPC   PO469720  27.437   8.961   5.452
 5500POPC   GL169721  27.605   8.999   5.848
 5500POPC   GL269722  27.650   8.650   5.860
 5500POPC   C1A69723  27.808   9.130   6.239
 5500POPC   D2A69724  27.950   8.924   6.629
 5500POPC   C3A69725  27.696   9.043   6.972
 5500POPC   C4A69726  27.726   9.378   7.232
 5500POPC   C1B69727  27.612   8.665   6.298
 5500POPC   C2B69728  27.727   8.467   6.650
 5500POPC   C3B69729  27.761   8.530   7.057
 5500POPC   C4B69730  27.619   8.660   7.469
 5501POPC   NC369731  20.268  31.634   5.566
 5501POPC   PO469732  20.780  31.298   5.163
 5501POPC   GL169733  20.722  31.463   5.698
 5501POPC   GL269734  20.371  31.323   5.928
 5501POPC   C1A69735  20.768  31.465   6.168
 5501POPC   D2A69736  20.916  31.553   6.541
 5501POPC   C3A69737  20.759  31.251   6.830
 5501POPC   C4A69738  20.621  31.085   7.215
 5501POPC   C1B69739  20.280  31.620   6.256
 5501POPC   C2B69740  20.455  31.725   6.672
 5501POPC   C3B69741  20.243  31.735   7.088
 5501POPC   C4B69742  20.167  31.690   7.540
 5502POPC   NC369743  32.620   8.700   5.518
 5502POPC   PO469744  32.513   9.342   5.548
 5502POPC   GL169745  32.180   9.155   5.815
 5502POPC   GL269746  32.301   8.817   5.904
 5502POPC   C1A69747  31.998   9.043   6.255
 5502POPC   D2A69748  32.080   9.048   6.735
 5502POPC   C3A69749  32.141   8.835   7.151
 5502POPC   C4A69750  32.161   8.906   7.587
 5502POPC   C1B69751  32.428   8.707   6.343
 5502POPC   C2B69752  32.443   8.627   6.790
 5502POPC   C3B69753  32.405   8.368   7.164
 5502POPC   C4B69754  32.252   8.403   7.611
 5503POPC   NC369755  10.172  36.421   5.277
 5503POPC   PO469756  10.791  36.192   5.507
 5503POPC   GL169757  10.654  36.105   5.868
 5503POPC   GL269758  10.342  36.223   5.753
 5503POPC   C1A69759  10.767  36.177   6.277
 5503POPC   D2A69760  10.717  36.497   6.565
 5503POPC   C3A69761  10.700  36.262   6.936
 5503POPC   C4A69762  10.482  36.330   7.297
 5503POPC   C1B69763  10.191  36.154   6.156
 5503POPC   C2B69764  10.335  36.118   6.574
 5503POPC   C3B69765  10.140  36.139   6.961
 5503POPC   C4B69766  10.165  35.908   7.338
 5504POPC   NC369767  11.880   7.649   5.549
 5504POPC   PO469768  12.365   7.261   5.439
 5504POPC   GL169769  12.209   7.438   5.871
 5504POPC   GL269770  11.859   7.278   5.942
 5504POPC   C1A69771  12.147   7.479   6.343
 5504POPC   D2A69772  11.829   7.622   6.636
 5504POPC   C3A69773  11.937   7.501   7.079
 5504POPC   C4A69774  12.065   7.414   7.522
 5504POPC   C1B69775  11.743   7.141   6.395
 5504POPC   C2B69776  11.746   7.064   6.872
 5504POPC   C3B69777  11.898   6.993   7.311
 5504POPC   C4B69778  11.758   7.088   7.763
 5505POPC   NC369779  17.469  20.239   5.342
 5505POPC   PO469780  17.839  20.852   5.361
 5505POPC   GL169781  17.712  20.570   5.704
 5505POPC   GL269782  17.330  20.489   5.764
 5505POPC   C1A69783  17.642  20.641   6.151
 5505POPC   D2A69784  17.750  20.443   6.551
 5505POPC   C3A69785  17.753  20.699   6.935
 5505POPC   C4A69786  17.571  20.711   7.366
 5505POPC   C1B69787  17.110  20.624   6.144
 5505POPC   C2B69788  17.284  20.784   6.521
 5505POPC   C3B69789  17.239  20.813   6.957
 5505POPC   C4B69790  17.050  20.698   7.346
 5506POPC   NC369791  17.383  21.950   5.442
 5506POPC   PO469792  17.445  22.443   4.999
 5506POPC   GL169793  17.421  22.454   5.527
 5506POPC   GL269794  17.191  22.295   5.765
 5506POPC   C1A69795  17.642  22.282   5.981
 5506POPC   D2A69796  17.564  22.205   6.430
 5506POPC   C3A69797  17.725  22.426   6.817
 5506POPC   C4A69798  17.695  22.253   7.248
 5506POPC   C1B69799  17.234  21.942   6.081
 5506POPC   C2B69800  17.214  21.828   6.507
 5506POPC   C3B69801  17.353  22.005   6.876
 5506POPC   C4B69802  17.194  22.179   7.214
 5507POPC   NC369803  20.930  32.364   5.394
 5507POPC   PO469804  21.466  31.950   5.486
 5507POPC   GL169805  21.232  32.193   5.788
 5507POPC   GL269806  21.413  32.522   5.900
 5507POPC   C1A69807  21.196  32.169   6.234
 5507POPC   D2A69808  21.434  32.367   6.545
 5507POPC   C3A69809  21.718  32.199   6.834
 5507POPC   C4A69810  21.510  31.980   7.145
 5507POPC   C1B69811  21.138  32.678   6.229
 5507POPC   C2B69812  20.971  32.563   6.628
 5507POPC   C3B69813  21.025  32.353   7.051
 5507POPC   C4B69814  20.797  32.355   7.445
 5508POPC   NC369815  43.380  14.804   5.383
 5508POPC   PO469816  42.869  15.265   5.358
 5508POPC   GL169817  43.018  15.353   5.784
 5508POPC   GL269818  42.821  15.635   5.893
 5508POPC   C1A69819  43.149  15.191   6.187
 5508POPC   D2A69820  43.365  15.250   6.589
 5508POPC   C3A69821  43.092  15.215   6.967
 5508POPC   C4A69822  42.879  14.848   7.146
 5508POPC   C1B69823  42.827  15.548   6.348
 5508POPC   C2B69824  42.652  15.510   6.781
 5508POPC   C3B69825  42.781  15.590   7.195
 5508POPC   C4B69826  43.095  15.542   7.493
 5509POPC   NC369827  34.208  18.765   5.471
 5509POPC   PO469828  33.676  19.105   5.316
 5509POPC   GL169829  33.755  19.104   5.784
 5509POPC   GL269830  33.428  19.163   5.891
 5509POPC   C1A69831  33.928  18.912   6.197
 5509POPC   D2A69832  33.987  18.745   6.643
 5509POPC   C3A69833  34.018  19.037   7.000
 5509POPC   C4A69834  33.998  18.931   7.441
 5509POPC   C1B69835  33.569  19.261   6.304
 5509POPC   C2B69836  33.529  19.014   6.653
 5509POPC   C3B69837  33.555  19.251   6.980
 5509POPC   C4B69838  33.698  19.321   7.326
 5510POPC   NC369839   6.010  38.822   5.546
 5510POPC   PO469840   5.779  39.459   5.582
 5510POPC   GL169841   6.043  39.300   5.900
 5510POPC   GL269842   6.223  39.041   5.976
 5510POPC   C1A69843   6.003  39.335   6.339
 5510POPC   D2A69844   5.971  39.661   6.614
 5510POPC   C3A69845   5.861  39.516   7.033
 5510POPC   C4A69846   5.898  39.439   7.487
 5510POPC   C1B69847   5.849  38.860   6.225
 5510POPC   C2B69848   5.847  38.950   6.663
 5510POPC   C3B69849   6.073  39.012   7.011
 5510POPC   C4B69850   5.794  38.970   7.321
 5511POPC   NC369851  35.495  22.387   5.342
 5511POPC   PO469852  35.129  21.889   5.341
 5511POPC   GL169853  35.406  22.044   5.736
 5511POPC   GL269854  35.536  22.399   5.843
 5511POPC   C1A69855  35.546  22.056   6.197
 5511POPC   D2A69856  35.317  22.020   6.570
 5511POPC   C3A69857  35.466  22.063   6.973
 5511POPC   C4A69858  35.223  22.203   7.318
 5511POPC   C1B69859  35.392  22.543   6.262
 5511POPC   C2B69860  35.211  22.525   6.705
 5511POPC   C3B69861  35.400  22.625   7.121
 5511POPC   C4B69862  35.432  22.631   7.620
 5512POPC   NC369863   4.851  27.403   5.539
 5512POPC   PO469864   4.946  28.031   5.321
 5512POPC   GL169865   4.904  27.892   5.763
 5512POPC   GL269866   5.150  27.626   5.886
 5512POPC   C1A69867   4.960  27.977   6.211
 5512POPC   D2A69868   5.076  27.790   6.609
 5512POPC   C3A69869   4.894  27.909   7.011
 5512POPC   C4A69870   5.110  27.865   7.407
 5512POPC   C1B69871   5.180  27.248   6.170
 5512POPC   C2B69872   5.133  27.204   6.613
 5512POPC   C3B69873   5.218  27.441   6.967
 5512POPC   C4B69874   4.939  27.434   7.262
 5513POPC   NC369875  31.848  10.522   5.484
 5513POPC   PO469876  31.297  10.177   5.304
 5513POPC   GL169877  31.380  10.228   5.767
 5513POPC   GL269878  31.654  10.385   5.931
 5513POPC   C1A69879  31.224  10.350   6.221
 5513POPC   D2A69880  31.446  10.387   6.640
 5513POPC   C3A69881  31.351  10.450   7.092
 5513POPC   C4A69882  31.328  10.849   7.331
 5513POPC   C1B69883  31.874  10.220   6.283
 5513POPC   C2B69884  32.059  10.084   6.653
 5513POPC   C3B69885  31.793  10.180   6.989
 5513POPC   C4B69886  31.688  10.013   7.381
 5514POPC   NC369887  14.622   9.834   5.336
 5514POPC   PO469888  13.953   9.716   5.228
 5514POPC   GL169889  14.261   9.552   5.582
 5514POPC   GL269890  14.344   9.888   5.768
 5514POPC   C1A69891  14.367   9.487   6.064
 5514POPC   D2A69892  14.439   9.672   6.460
 5514POPC   C3A69893  14.220   9.688   6.862
 5514POPC   C4A69894  14.114  10.033   7.170
 5514POPC   C1B69895  14.732   9.886   6.046
 5514POPC   C2B69896  14.874   9.912   6.487
 5514POPC   C3B69897  14.684   9.896   6.869
 5514POPC   C4B69898  14.556   9.798   7.267
 5515POPC   NC369899  25.458   8.423   5.120
 5515POPC   PO469900  26.018   8.099   5.244
 5515POPC   GL169901  26.075   8.492   5.630
 5515POPC   GL269902  26.351   8.493   5.814
 5515POPC   C1A69903  25.984   8.492   6.179
 5515POPC   D2A69904  26.075   8.234   6.585
 5515POPC   C3A69905  25.927   8.438   6.977
 5515POPC   C4A69906  25.759   8.337   7.391
 5515POPC   C1B69907  26.421   8.239   6.198
 5515POPC   C2B69908  26.605   8.298   6.552
 5515POPC   C3B69909  26.449   8.257   6.952
 5515POPC   C4B69910  26.218   8.114   7.259
 5516POPC   NC369911  41.102  43.398   5.647
 5516POPC   PO469912  40.594  43.019   5.406
 5516POPC   GL169913  40.554  42.923   5.809
 5516POPC   GL269914  40.932  42.904   5.854
 5516POPC   C1A69915  40.589  42.710   6.179
 5516POPC   D2A69916  40.938  42.636   6.440
 5516POPC   C3A69917  40.881  42.948   6.759
 5516POPC   C4A69918  40.790  42.939   7.206
 5516POPC   C1B69919  40.813  43.185   6.227
 5516POPC   C2B69920  40.883  43.461   6.596
 5516POPC   C3B69921  40.995  43.380   7.039
 5516POPC   C4B69922  41.032  43.672   7.399
 5517POPC   NC369923  43.850  16.996   5.532
 5517POPC   PO469924  43.830  17.630   5.187
 5517POPC   GL169925  43.817  17.633   5.696
 5517POPC   GL269926  43.720  17.311   5.906
 5517POPC   C1A69927  43.973  17.663   6.148
 5517POPC   D2A69928  43.922  17.901   6.556
 5517POPC   C3A69929  43.884  17.631   6.932
 5517POPC   C4A69930  43.753  17.566   7.354
 5517POPC   C1B69931  43.939  17.141   6.289
 5517POPC   C2B69932  43.973  17.174   6.740
 5517POPC   C3B69933  43.694  17.132   7.103
 5517POPC   C4B69934  43.723  17.138   7.600
 5518POPC   NC369935  40.326   6.240   5.519
 5518POPC   PO469936  39.886   5.832   5.219
 5518POPC   GL169937  39.885   5.734   5.692
 5518POPC   GL269938  39.772   6.048   5.864
 5518POPC   C1A69939  40.142   5.654   6.101
 5518POPC   D2A69940  40.142   5.444   6.528
 5518POPC   C3A69941  40.186   5.679   6.903
 5518POPC   C4A69942  40.099   5.635   7.315
 5518POPC   C1B69943  39.793   6.162   6.312
 5518POPC   C2B69944  39.674   6.243   6.762
 5518POPC   C3B69945  39.784   6.046   7.191
 5518POPC   C4B69946  39.876   6.174   7.632
 5519POPC   NC369947  41.694   6.955   5.596
 5519POPC   PO469948  41.789   6.291   5.374
 5519POPC   GL169949  41.674   6.475   5.801
 5519POPC   GL269950  41.401   6.628   6.002
 5519POPC   C1A69951  41.776   6.407   6.234
 5519POPC   D2A69952  41.503   6.409   6.592
 5519POPC   C3A69953  41.670   6.442   6.993
 5519POPC   C4A69954  41.406   6.319   7.307
 5519POPC   C1B69955  41.565   6.897   6.328
 5519POPC   C2B69956  41.521   6.890   6.767
 5519POPC   C3B69957  41.275   6.772   7.101
 5519POPC   C4B69958  41.132   6.847   7.509
 5520POPC   NC369959   3.194   8.374   5.496
 5520POPC   PO469960   3.707   7.994   5.437
 5520POPC   GL169961   3.496   8.107   5.816
 5520POPC   GL269962   3.372   7.777   5.885
 5520POPC   C1A69963   3.626   8.361   6.188
 5520POPC   D2A69964   3.918   8.502   6.486
 5520POPC   C3A69965   3.761   8.510   6.899
 5520POPC   C4A69966   3.997   8.485   7.254
 5520POPC   C1B69967   3.681   7.857   6.228
 5520POPC   C2B69968   3.589   8.084   6.626
 5520POPC   C3B69969   3.710   8.017   7.054
 5520POPC   C4B69970   3.630   8.181   7.451
 5521POPC   NC369971  26.056  20.237   5.533
 5521POPC   PO469972  25.726  19.642   5.328
 5521POPC   GL169973  26.000  19.748   5.733
 5521POPC   GL269974  26.303  19.571   5.831
 5521POPC   C1A69975  26.116  19.886   6.189
 5521POPC   D2A69976  26.155  19.668   6.604
 5521POPC   C3A69977  25.990  19.846   6.989
 5521POPC   C4A69978  26.079  19.934   7.416
 5521POPC   C1B69979  26.449  19.455   6.244
 5521POPC   C2B69980  26.573  19.394   6.705
 5521POPC   C3B69981  26.386  19.551   7.139
 5521POPC   C4B69982  26.365  19.539   7.612
 5522POPC   NC369983   9.359   2.972   5.416
 5522POPC   PO469984   8.888   2.518   5.439
 5522POPC   GL169985   9.022   2.746   5.771
 5522POPC   GL269986   9.058   2.429   5.932
 5522POPC   C1A69987   8.956   2.972   6.146
 5522POPC   D2A69988   8.760   3.145   6.488
 5522POPC   C3A69989   9.107   3.249   6.729
 5522POPC   C4A69990   9.056   3.027   7.070
 5522POPC   C1B69991   9.284   2.590   6.283
 5522POPC   C2B69992   9.325   2.717   6.716
 5522POPC   C3B69993   9.150   2.527   7.080
 5522POPC   C4B69994   8.747   2.378   7.194
 5523POPC   NC369995   9.665  25.093   5.471
 5523POPC   PO469996  10.058  25.680   5.479
 5523POPC   GL169997   9.947  25.404   5.849
 5523POPC   GL269998   9.586  25.397   5.883
 5523POPC   C1A69999   9.863  25.351   6.323
 5523POPC   D2A70000   9.962  25.550   6.740
 5523POPC   C3A70001   9.786  25.310   7.092
 5523POPC   C4A70002   9.856  25.132   7.524
 5523POPC   C1B70003   9.345  25.498   6.258
 5523POPC   C2B70004   9.441  25.452   6.697
 5523POPC   C3B70005   9.269  25.456   7.111
 5523POPC   C4B70006   9.518  25.497   7.497
 5524POPC   NC370007  26.826  18.793   5.276
 5524POPC   PO470008  26.509  19.450   5.386
 5524POPC   GL170009  26.677  19.213   5.829
 5524POPC   GL270010  26.960  18.963   5.857
 5524POPC   C1A70011  26.653  18.971   6.294
 5524POPC   D2A70012  26.538  18.773   6.710
 5524POPC   C3A70013  26.473  19.050   7.064
 5524POPC   C4A70014  26.495  19.047   7.524
 5524POPC   C1B70015  27.151  18.905   6.285
 5524POPC   C2B70016  27.026  18.887   6.763
 5524POPC   C3B70017  26.914  18.792   7.207
 5524POPC   C4B70018  27.200  18.577   7.512
 5525POPC   NC370019   9.290  23.305   5.603
 5525POPC   PO470020   8.781  23.679   5.321
 5525POPC   GL170021   8.890  23.628   5.728
 5525POPC   GL270022   9.109  23.895   5.771
 5525POPC   C1A70023   8.622  23.602   6.091
 5525POPC   D2A70024   8.668  23.504   6.510
 5525POPC   C3A70025   8.723  23.858   6.778
 5525POPC   C4A70026   8.998  23.807   7.132
 5525POPC   C1B70027   9.122  23.685   6.193
 5525POPC   C2B70028   9.201  23.716   6.633
 5525POPC   C3B70029   9.379  23.456   6.938
 5525POPC   C4B70030   9.438  23.568   7.329
 5526POPC   NC370031  32.197   1.393   5.513
 5526POPC   PO470032  32.672   1.013   5.358
 5526POPC   GL170033  32.385   0.884   5.751
 5526POPC   GL270034  32.294   1.192   5.964
 5526POPC   C1A70035  32.265   0.766   6.219
 5526POPC   D2A70036  32.269   1.163   6.503
 5526POPC   C3A70037  32.315   1.257   6.935
 5526POPC   C4A70038  32.654   1.474   7.141
 5526POPC   C1B70039  31.876   1.097   6.190
 5526POPC   C2B70040  31.776   1.067   6.638
 5526POPC   C3B70041  31.796   1.334   7.023
 5526POPC   C4B70042  32.064   1.471   7.322
 5527POPC   NC370043   8.321   0.936   5.705
 5527POPC   PO470044   8.400   0.260   5.646
 5527POPC   GL170045   8.135   0.470   5.914
 5527POPC   GL270046   7.876   0.733   5.833
 5527POPC   C1A70047   8.248   0.418   6.321
 5527POPC   D2A70048   8.095   0.296   6.675
 5527POPC   C3A70049   8.405   0.308   6.923
 5527POPC   C4A70050   8.661   0.153   7.244
 5527POPC   C1B70051   7.999   0.852   6.256
 5527POPC   C2B70052   8.110   0.811   6.680
 5527POPC   C3B70053   8.000   0.650   7.066
 5527POPC   C4B70054   8.311   0.550   7.353
 5528POPC   NC370055   0.052  24.848   5.440
 5528POPC   PO470056  44.714  24.222   5.346
 5528POPC   GL170057  44.805  24.257   5.790
 5528POPC   GL270058  44.743  24.610   5.823
 5528POPC   C1A70059  44.646  24.279   6.211
 5528POPC   D2A70060  44.756  24.516   6.561
 5528POPC   C3A70061  44.628  24.330   6.935
 5528POPC   C4A70062  44.766  24.432   7.343
 5528POPC   C1B70063  44.504  24.774   6.193
 5528POPC   C2B70064  44.329  24.771   6.635
 5528POPC   C3B70065  44.503  24.819   7.048
 5528POPC   C4B70066  44.194  24.803   7.338
 5529POPC   NC370067  39.368  13.639   5.317
 5529POPC   PO470068  38.796  13.584   5.580
 5529POPC   GL170069  39.083  13.713   5.861
 5529POPC   GL270070  39.445  13.689   5.859
 5529POPC   C1A70071  39.102  13.750   6.304
 5529POPC   D2A70072  39.170  13.551   6.673
 5529POPC   C3A70073  39.072  13.796   7.030
 5529POPC   C4A70074  38.972  13.541   7.356
 5529POPC   C1B70075  39.591  13.916   6.267
 5529POPC   C2B70076  39.552  13.908   6.756
 5529POPC   C3B70077  39.531  13.543   7.067
 5529POPC   C4B70078  39.759  13.276   7.361
 5530POPC   NC370079  27.462   0.955   5.406
 5530POPC   PO470080  28.006   1.470   5.417
 5530POPC   GL170081  27.874   1.328   5.829
 5530POPC   GL270082  27.506   1.230   5.837
 5530POPC   C1A70083  27.803   1.142   6.250
 5530POPC   D2A70084  27.718   0.861   6.609
 5530POPC   C3A70085  27.756   1.077   7.016
 5530POPC   C4A70086  27.802   0.973   7.435
 5530POPC   C1B70087  27.403   0.831   6.125
 5530POPC   C2B70088  27.221   0.731   6.546
 5530POPC   C3B70089  27.321   0.799   6.996
 5530POPC   C4B70090  27.131   1.071   7.259
 5531POPC   NC370091  35.108  15.119   5.201
 5531POPC   PO470092  34.496  15.253   5.556
 5531POPC   GL170093  34.614  14.994   5.877
 5531POPC   GL270094  34.942  14.888   5.838
 5531POPC   C1A70095  34.697  15.107   6.305
 5531POPC   D2A70096  34.804  15.438   6.608
 5531POPC   C3A70097  34.676  15.227   6.991
 5531POPC   C4A70098  34.378  15.290   7.362
 5531POPC   C1B70099  34.897  14.617   6.197
 5531POPC   C2B70100  34.758  14.607   6.659
 5531POPC   C3B70101  35.013  14.686   7.065
 5531POPC   C4B70102  35.027  14.988   7.401
 5532POPC   NC370103  18.801  17.831   5.163
 5532POPC   PO470104  18.254  17.488   5.325
 5532POPC   GL170105  18.340  17.443   5.780
 5532POPC   GL270106  18.457  17.730   5.992
 5532POPC   C1A70107  18.021  17.408   6.109
 5532POPC   D2A70108  17.987  17.379   6.557
 5532POPC   C3A70109  18.114  17.688   6.869
 5532POPC   C4A70110  18.129  17.490   7.252
 5532POPC   C1B70111  18.454  17.499   6.389
 5532POPC   C2B70112  18.484  17.330   6.813
 5532POPC   C3B70113  18.604  17.633   7.097
 5532POPC   C4B70114  18.576  17.642   7.533
 5533POPC   NC370115  24.729  12.457   5.613
 5533POPC   PO470116  24.719  13.078   5.416
 5533POPC   GL170117  24.620  13.138   5.875
 5533POPC   GL270118  24.545  12.797   5.924
 5533POPC   C1A70119  24.381  13.091   6.289
 5533POPC   D2A70120  24.415  12.847   6.673
 5533POPC   C3A70121  24.473  13.069   7.078
 5533POPC   C4A70122  24.737  13.059   7.458
 5533POPC   C1B70123  24.609  12.547   6.284
 5533POPC   C2B70124  24.819  12.556   6.670
 5533POPC   C3B70125  24.650  12.595   7.098
 5533POPC   C4B70126  24.643  12.485   7.540
 5534POPC   NC370127  19.862  21.645   5.405
 5534POPC   PO470128  20.133  21.083   5.521
 5534POPC   GL170129  19.957  21.119   5.871
 5534POPC   GL270130  19.882  21.460   5.877
 5534POPC   C1A70131  19.949  21.204   6.302
 5534POPC   D2A70132  19.859  21.496   6.602
 5534POPC   C3A70133  19.805  21.237   6.938
 5534POPC   C4A70134  19.962  21.186   7.359
 5534POPC   C1B70135  19.615  21.642   6.156
 5534POPC   C2B70136  19.427  21.778   6.521
 5534POPC   C3B70137  19.394  21.536   6.897
 5534POPC   C4B70138  19.606  21.539   7.290
 5535POPC   NC370139  25.167  16.141   5.405
 5535POPC   PO470140  25.649  15.688   5.512
 5535POPC   GL170141  25.515  15.950   5.883
 5535POPC   GL270142  25.186  16.107   5.897
 5535POPC   C1A70143  25.359  15.888   6.332
 5535POPC   D2A70144  25.390  15.976   6.777
 5535POPC   C3A70145  25.111  15.770   7.069
 5535POPC   C4A70146  25.419  15.961   7.300
 5535POPC   C1B70147  24.938  16.221   6.237
 5535POPC   C2B70148  24.921  16.060   6.644
 5535POPC   C3B70149  24.976  16.274   7.049
 5535POPC   C4B70150  24.992  16.167   7.491
 5536POPC   NC370151   9.636  14.604   5.148
 5536POPC   PO470152   9.626  13.947   5.191
 5536POPC   GL170153   9.641  14.160   5.627
 5536POPC   GL270154   9.843  14.455   5.701
 5536POPC   C1A70155   9.559  14.235   6.104
 5536POPC   D2A70156   9.530  14.472   6.507
 5536POPC   C3A70157   9.707  14.335   6.877
 5536POPC   C4A70158   9.557  14.408   7.271
 5536POPC   C1B70159  10.067  14.338   6.099
 5536POPC   C2B70160  10.286  14.345   6.476
 5536POPC   C3B70161  10.215  14.434   6.901
 5536POPC   C4B70162  10.090  14.490   7.299
 5537POPC   NC370163  40.236  33.984   5.296
 5537POPC   PO470164  40.059  34.675   5.410
 5537POPC   GL170165  39.918  34.642   5.824
 5537POPC   GL270166  39.938  34.302   5.775
 5537POPC   C1A70167  40.035  34.700   6.230
 5537POPC   D2A70168  40.144  34.441   6.599
 5537POPC   C3A70169  40.053  34.654   6.989
 5537POPC   C4A70170  40.337  34.683   7.331
 5537POPC   C1B70171  39.839  34.221   6.195
 5537POPC   C2B70172  39.655  34.353   6.592
 5537POPC   C3B70173  39.854  34.161   6.936
 5537POPC   C4B70174  40.191  34.214   7.210
 5538POPC   NC370175   2.392  15.122   5.480
 5538POPC   PO470176   2.990  14.985   5.424
 5538POPC   GL170177   2.772  15.071   5.848
 5538POPC   GL270178   2.767  15.421   5.860
 5538POPC   C1A70179   2.433  15.260   6.180
 5538POPC   D2A70180   2.271  15.299   6.595
 5538POPC   C3A70181   2.528  15.101   6.914
 5538POPC   C4A70182   2.695  15.126   7.300
 5538POPC   C1B70183   2.917  15.500   6.247
 5538POPC   C2B70184   2.807  15.443   6.653
 5538POPC   C3B70185   2.909  15.563   7.057
 5538POPC   C4B70186   3.140  15.373   7.411
 5539POPC   NC370187  28.844  18.161   5.312
 5539POPC   PO470188  28.155  18.067   5.322
 5539POPC   GL170189  28.270  18.336   5.678
 5539POPC   GL270190  28.440  18.031   5.801
 5539POPC   C1A70191  28.155  18.575   6.083
 5539POPC   D2A70192  27.932  18.533   6.489
 5539POPC   C3A70193  28.084  18.640   6.873
 5539POPC   C4A70194  28.185  18.358   7.185
 5539POPC   C1B70195  28.507  18.223   6.211
 5539POPC   C2B70196  28.374  18.246   6.638
 5539POPC   C3B70197  28.636  18.275   6.966
 5539POPC   C4B70198  28.657  18.331   7.397
 5540POPC   NC370199  35.951  20.818   5.282
 5540POPC   PO470200  36.330  20.313   5.222
 5540POPC   GL170201  36.402  20.536   5.618
 5540POPC   GL270202  36.364  20.894   5.597
 5540POPC   C1A70203  36.407  20.468   6.065
 5540POPC   D2A70204  36.105  20.626   6.391
 5540POPC   C3A70205  36.106  20.458   6.812
 5540POPC   C4A70206  35.848  20.656   7.108
 5540POPC   C1B70207  36.348  20.971   6.052
 5540POPC   C2B70208  36.358  21.070   6.485
 5540POPC   C3B70209  36.212  20.954   6.889
 5540POPC   C4B70210  36.444  20.969   7.235
 5541POPC   NC370211   2.826  39.133   5.477
 5541POPC   PO470212   2.663  39.787   5.513
 5541POPC   GL170213   2.801  39.489   5.866
 5541POPC   GL270214   2.679  39.106   5.943
 5541POPC   C1A70215   2.822  39.406   6.315
 5541POPC   D2A70216   3.174  39.302   6.536
 5541POPC   C3A70217   3.009  39.306   6.926
 5541POPC   C4A70218   3.184  39.157   7.285
 5541POPC   C1B70219   2.442  39.041   6.300
 5541POPC   C2B70220   2.516  39.103   6.718
 5541POPC   C3B70221   2.377  38.980   7.091
 5541POPC   C4B70222   2.644  39.216   7.298
 5542POPC   NC370223  31.660   0.203   5.572
 5542POPC   PO470224  31.192   0.646   5.586
 5542POPC   GL170225  31.299   0.345   5.911
 5542POPC   GL270226  31.638   0.509   5.989
 5542POPC   C1A70227  31.366   0.267   6.351
 5542POPC   D2A70228  31.395   0.697   6.532
 5542POPC   C3A70229  31.554   0.714   6.932
 5542POPC   C4A70230  31.465   0.583   7.306
 5542POPC   C1B70231  31.841   0.467   6.391
 5542POPC   C2B70232  31.713   0.242   6.780
 5542POPC   C3B70233  31.944   0.431   7.127
 5542POPC   C4B70234  31.918   0.864   7.283
 5543POPC   NC370235  37.107  13.296   5.300
 5543POPC   PO470236  36.919  12.608   5.164
 5543POPC   GL170237  36.946  12.635   5.664
 5543POPC   GL270238  37.122  12.952   5.724
 5543POPC   C1A70239  36.757  12.840   6.074
 5543POPC   D2A70240  36.662  12.848   6.533
 5543POPC   C3A70241  36.939  12.583   6.804
 5543POPC   C4A70242  37.020  12.513   7.241
 5543POPC   C1B70243  37.200  13.117   6.146
 5543POPC   C2B70244  37.183  12.993   6.560
 5543POPC   C3B70245  36.943  13.087   6.916
 5543POPC   C4B70246  37.066  13.015   7.315
 5544POPC   NC370247  13.202  44.151   5.508
 5544POPC   PO470248  12.617  43.734   5.468
 5544POPC   GL170249  12.780  43.812   5.850
 5544POPC   GL270250  12.800  44.137   5.858
 5544POPC   C1A70251  13.050  43.803   6.204
 5544POPC   D2A70252  12.834  43.742   6.577
 5544POPC   C3A70253  13.075  43.834   6.953
 5544POPC   C4A70254  13.037  43.615   7.338
 5544POPC   C1B70255  12.633  44.179   6.290
 5544POPC   C2B70256  12.529  44.091   6.756
 5544POPC   C3B70257  12.723  44.146   7.168
 5544POPC   C4B70258  12.683  44.301   7.627
 5545POPC   NC370259  31.153  37.086   5.117
 5545POPC   PO470260  30.638  36.869   5.553
 5545POPC   GL170261  30.770  36.921   5.972
 5545POPC   GL270262  30.470  36.887   6.092
 5545POPC   C1A70263  30.819  37.195   6.313
 5545POPC   D2A70264  30.551  37.045   6.627
 5545POPC   C3A70265  30.724  36.811   6.947
 5545POPC   C4A70266  30.694  36.898   7.366
 5545POPC   C1B70267  30.600  36.584   6.416
 5545POPC   C2B70268  30.407  36.425   6.775
 5545POPC   C3B70269  30.301  36.603   7.163
 5545POPC   C4B70270  30.386  36.557   7.593
 5546POPC   NC370271  41.347  41.572   5.460
 5546POPC   PO470272  42.064  41.625   5.339
 5546POPC   GL170273  41.806  41.525   5.733
 5546POPC   GL270274  41.563  41.768   5.889
 5546POPC   C1A70275  41.806  41.389   6.168
 5546POPC   D2A70276  41.798  41.273   6.603
 5546POPC   C3A70277  41.790  41.557   6.924
 5546POPC   C4A70278  41.668  41.609   7.343
 5546POPC   C1B70279  41.307  41.573   6.221
 5546POPC   C2B70280  41.298  41.472   6.670
 5546POPC   C3B70281  41.225  41.561   7.094
 5546POPC   C4B70282  40.863  41.713   7.342
 5547POPC   NC370283  14.199  18.730   5.308
 5547POPC   PO470284  14.364  19.348   5.618
 5547POPC   GL170285  14.333  19.212   5.981
 5547POPC   GL270286  14.495  18.895   5.911
 5547POPC   C1A70287  14.242  19.383   6.369
 5547POPC   D2A70288  14.191  19.192   6.728
 5547POPC   C3A70289  14.288  19.371   7.117
 5547POPC   C4A70290  14.335  19.198   7.496
 5547POPC   C1B70291  14.528  18.927   6.386
 5547POPC   C2B70292  14.540  18.845   6.818
 5547POPC   C3B70293  14.227  18.848   7.137
 5547POPC   C4B70294  14.167  18.552   7.496
 5548POPC   NC370295  10.883  33.145   5.388
 5548POPC   PO470296  11.500  32.879   5.223
 5548POPC   GL170297  11.318  33.218   5.622
 5548POPC   GL270298  11.112  32.948   5.802
 5548POPC   C1A70299  11.375  33.283   6.116
 5548POPC   D2A70300  11.598  33.229   6.518
 5548POPC   C3A70301  11.395  33.336   6.904
 5548POPC   C4A70302  11.305  33.093   7.302
 5548POPC   C1B70303  11.205  32.809   6.210
 5548POPC   C2B70304  11.459  32.715   6.540
 5548POPC   C3B70305  11.237  32.853   6.851
 5548POPC   C4B70306  10.937  32.772   7.198
 5549POPC   NC370307  33.365  26.386   5.588
 5549POPC   PO470308  33.222  27.020   5.420
 5549POPC   GL170309  33.213  26.861   5.855
 5549POPC   GL270310  32.996  26.558   5.923
 5549POPC   C1A70311  33.171  26.890   6.305
 5549POPC   D2A70312  33.013  26.651   6.633
 5549POPC   C3A70313  33.121  26.926   6.947
 5549POPC   C4A70314  33.372  26.714   7.200
 5549POPC   C1B70315  32.693  26.800   6.210
 5549POPC   C2B70316  32.657  27.004   6.628
 5549POPC   C3B70317  32.648  26.726   7.031
 5549POPC   C4B70318  32.692  26.783   7.488
 5550POPC   NC370319  28.672  24.821   5.607
 5550POPC   PO470320  28.905  25.471   5.519
 5550POPC   GL170321  28.982  25.310   5.900
 5550POPC   GL270322  29.089  24.987   5.841
 5550POPC   C1A70323  29.042  25.164   6.312
 5550POPC   D2A70324  29.126  25.144   6.712
 5550POPC   C3A70325  29.333  25.447   6.949
 5550POPC   C4A70326  29.002  25.241   7.216
 5550POPC   C1B70327  29.380  24.801   6.119
 5550POPC   C2B70328  29.543  24.950   6.490
 5550POPC   C3B70329  29.470  24.846   6.911
 5550POPC   C4B70330  29.490  25.079   7.248
 5551POPC   NC370331   9.859  13.559   5.138
 5551POPC   PO470332   9.298  13.226   5.417
 5551POPC   GL170333   9.599  13.298   5.703
 5551POPC   GL270334   9.726  13.639   5.650
 5551POPC   C1A70335   9.736  13.303   6.121
 5551POPC   D2A70336   9.750  13.532   6.481
 5551POPC   C3A70337   9.919  13.408   6.849
 5551POPC   C4A70338   9.992  13.518   7.251
 5551POPC   C1B70339   9.819  13.817   6.062
 5551POPC   C2B70340   9.872  14.031   6.496
 5551POPC   C3B70341   9.995  13.936   6.954
 5551POPC   C4B70342   9.734  13.947   7.367
 5552POPC   NC370343  37.866  42.648   5.510
 5552POPC   PO470344  37.836  41.970   5.536
 5552POPC   GL170345  37.572  42.246   5.769
 5552POPC   GL270346  37.343  42.485   5.601
 5552POPC   C1A70347  37.746  42.419   6.160
 5552POPC   D2A70348  37.880  42.232   6.549
 5552POPC   C3A70349  37.689  42.388   6.926
 5552POPC   C4A70350  37.852  42.331   7.311
 5552POPC   C1B70351  37.294  42.642   6.056
 5552POPC   C2B70352  37.335  42.669   6.547
 5552POPC   C3B70353  37.251  42.688   7.023
 5552POPC   C4B70354  37.386  42.450   7.422
 5553POPC   NC370355  27.859  21.643   5.334
 5553POPC   PO470356  28.111  21.086   5.528
 5553POPC   GL170357  27.781  21.408   5.783
 5553POPC   GL270358  27.923  21.735   5.868
 5553POPC   C1A70359  27.460  21.369   6.171
 5553POPC   D2A70360  27.447  21.169   6.606
 5553POPC   C3A70361  27.358  21.414   7.006
 5553POPC   C4A70362  27.348  21.248   7.459
 5553POPC   C1B70363  27.924  21.522   6.308
 5553POPC   C2B70364  27.849  21.583   6.792
 5553POPC   C3B70365  27.814  21.469   7.259
 5553POPC   C4B70366  27.982  21.513   7.718
 5554POPC   NC370367  24.605  22.608   5.486
 5554POPC   PO470368  24.707  23.377   5.440
 5554POPC   GL170369  24.760  23.182   5.879
 5554POPC   GL270370  24.602  22.857   5.917
 5554POPC   C1A70371  24.551  23.159   6.306
 5554POPC   D2A70372  24.407  22.996   6.707
 5554POPC   C3A70373  24.662  23.105   7.068
 5554POPC   C4A70374  24.717  22.915   7.455
 5554POPC   C1B70375  24.649  22.654   6.330
 5554POPC   C2B70376  24.533  22.491   6.727
 5554POPC   C3B70377  24.454  22.588   7.154
 5554POPC   C4B70378  24.476  22.493   7.610
 5555POPC   NC370379   7.251  27.030   5.258
 5555POPC   PO470380   7.745  26.647   5.463
 5555POPC   GL170381   7.486  26.881   5.758
 5555POPC   GL270382   7.183  27.089   5.750
 5555POPC   C1A70383   7.536  26.942   6.216
 5555POPC   D2A70384   7.665  27.110   6.643
 5555POPC   C3A70385   7.558  26.859   7.014
 5555POPC   C4A70386   7.783  26.780   7.416
 5555POPC   C1B70387   7.006  26.902   6.115
 5555POPC   C2B70388   7.106  27.045   6.544
 5555POPC   C3B70389   7.087  27.092   6.993
 5555POPC   C4B70390   6.891  26.889   7.358
 5556POPC   NC370391  19.746   4.337   5.449
 5556POPC   PO470392  20.482   4.266   5.521
 5556POPC   GL170393  20.165   4.311   5.840
 5556POPC   GL270394  19.903   4.563   5.894
 5556POPC   C1A70395  19.887   4.175   6.221
 5556POPC   D2A70396  19.790   4.078   6.668
 5556POPC   C3A70397  19.991   4.233   7.048
 5556POPC   C4A70398  19.881   4.609   7.294
 5556POPC   C1B70399  19.488   4.689   6.089
 5556POPC   C2B70400  19.404   4.823   6.508
 5556POPC   C3B70401  19.497   4.671   6.923
 5556POPC   C4B70402  19.338   4.735   7.328
 5557POPC   NC370403   5.985   0.827   5.481
 5557POPC   PO470404   5.937   0.176   5.458
 5557POPC   GL170405   5.735   0.232   5.844
 5557POPC   GL270406   5.770   0.595   5.880
 5557POPC   C1A70407   5.719   0.264   6.292
 5557POPC   D2A70408   5.961   0.220   6.679
 5557POPC   C3A70409   5.765   0.142   7.073
 5557POPC   C4A70410   5.555   0.376   7.403
 5557POPC   C1B70411   5.944   0.733   6.266
 5557POPC   C2B70412   6.103   0.718   6.680
 5557POPC   C3B70413   5.897   0.650   7.063
 5557POPC   C4B70414   5.775   0.877   7.376
 5558POPC   NC370415  32.591  26.392   5.511
 5558POPC   PO470416  32.352  25.767   5.323
 5558POPC   GL170417  32.239  25.790   5.769
 5558POPC   GL270418  32.121  26.116   5.824
 5558POPC   C1A70419  32.437  25.882   6.185
 5558POPC   D2A70420  32.541  25.913   6.628
 5558POPC   C3A70421  32.276  25.782   6.957
 5558POPC   C4A70422  32.323  25.843   7.363
 5558POPC   C1B70423  31.974  26.112   6.244
 5558POPC   C2B70424  32.037  26.197   6.682
 5558POPC   C3B70425  32.377  26.266   6.974
 5558POPC   C4B70426  31.999  26.204   7.230
 5559POPC   NC370427  30.971  43.615   5.659
 5559POPC   PO470428  31.482  43.746   5.223
 5559POPC   GL170429  31.479  43.842   5.685
 5559POPC   GL270430  31.257  44.094   5.719
 5559POPC   C1A70431  31.501  43.907   6.155
 5559POPC   D2A70432  31.691  43.711   6.515
 5559POPC   C3A70433  31.580  43.843   6.943
 5559POPC   C4A70434  31.574  43.672   7.372
 5559POPC   C1B70435  31.128  44.258   6.103
 5559POPC   C2B70436  31.283  44.237   6.514
 5559POPC   C3B70437  31.312  44.293   6.963
 5559POPC   C4B70438  31.502  44.194   7.381
 5560POPC   NC370439   4.379   2.162   5.236
 5560POPC   PO470440   4.153   1.611   5.505
 5560POPC   GL170441   4.360   1.872   5.787
 5560POPC   GL270442   4.355   2.245   5.750
 5560POPC   C1A70443   4.536   2.001   6.164
 5560POPC   D2A70444   4.421   2.227   6.521
 5560POPC   C3A70445   4.665   2.138   6.888
 5560POPC   C4A70446   4.490   2.163   7.282
 5560POPC   C1B70447   4.060   2.404   6.079
 5560POPC   C2B70448   3.907   2.329   6.503
 5560POPC   C3B70449   4.057   2.189   6.903
 5560POPC   C4B70450   3.967   2.187   7.340
 5561POPC   NC370451  13.343  17.830   5.347
 5561POPC   PO470452  13.767  18.440   5.408
 5561POPC   GL170453  13.914  18.392   5.814
 5561POPC   GL270454  13.637  18.438   5.993
 5561POPC   C1A70455  14.111  18.352   6.240
 5561POPC   D2A70456  14.098  18.138   6.627
 5561POPC   C3A70457  13.692  18.241   6.799
 5561POPC   C4A70458  13.583  18.327   7.255
 5561POPC   C1B70459  13.510  18.104   6.298
 5561POPC   C2B70460  13.279  17.957   6.673
 5561POPC   C3B70461  13.163  18.082   7.105
 5561POPC   C4B70462  13.147  18.183   7.568
 5562POPC   NC370463  17.309   2.058   5.359
 5562POPC   PO470464  17.847   1.748   5.426
 5562POPC   GL170465  17.588   1.803   5.812
 5562POPC   GL270466  17.208   1.820   5.804
 5562POPC   C1A70467  17.648   1.926   6.255
 5562POPC   D2A70468  17.928   2.113   6.575
 5562POPC   C3A70469  17.774   1.962   6.995
 5562POPC   C4A70470  17.453   1.699   7.222
 5562POPC   C1B70471  17.165   2.110   6.150
 5562POPC   C2B70472  17.157   1.971   6.583
 5562POPC   C3B70473  17.269   2.124   6.986
 5562POPC   C4B70474  17.134   2.225   7.375
 5563POPC   NC370475  41.447  27.370   5.642
 5563POPC   PO470476  41.410  26.732   5.464
 5563POPC   GL170477  41.605  26.864   5.809
 5563POPC   GL270478  41.923  27.051   5.744
 5563POPC   C1A70479  41.451  26.752   6.203
 5563POPC   D2A70480  41.197  26.625   6.545
 5563POPC   C3A70481  41.328  26.762   6.946
 5563POPC   C4A70482  41.510  27.103   7.166
 5563POPC   C1B70483  41.964  26.864   6.182
 5563POPC   C2B70484  41.749  26.900   6.590
 5563POPC   C3B70485  41.848  26.733   6.966
 5563POPC   C4B70486  42.032  26.912   7.309
 5564POPC   NC370487  10.113  33.783   5.401
 5564POPC   PO470488   9.502  34.030   5.449
 5564POPC   GL170489   9.724  33.902   5.823
 5564POPC   GL270490   9.630  33.567   5.869
 5564POPC   C1A70491   9.846  33.768   6.265
 5564POPC   D2A70492   9.811  33.482   6.613
 5564POPC   C3A70493   9.770  33.716   6.993
 5564POPC   C4A70494   9.795  33.725   7.448
 5564POPC   C1B70495   9.422  33.451   6.256
 5564POPC   C2B70496   9.290  33.610   6.679
 5564POPC   C3B70497   9.307  33.607   7.165
 5564POPC   C4B70498   9.135  33.559   7.603
 5565POPC   NC370499   5.511  12.162   5.426
 5565POPC   PO470500   5.036  11.680   5.384
 5565POPC   GL170501   5.178  11.975   5.781
 5565POPC   GL270502   5.504  12.048   5.936
 5565POPC   C1A70503   4.969  12.195   6.128
 5565POPC   D2A70504   4.805  12.028   6.519
 5565POPC   C3A70505   5.049  12.106   6.896
 5565POPC   C4A70506   4.885  12.311   7.301
 5565POPC   C1B70507   5.426  12.175   6.373
 5565POPC   C2B70508   5.408  12.469   6.689
 5565POPC   C3B70509   5.392  12.415   7.112
 5565POPC   C4B70510   5.348  12.084   7.325
 5566POPC   NC370511   4.175  41.407   5.036
 5566POPC   PO470512   4.396  41.823   5.455
 5566POPC   GL170513   4.079  41.758   5.790
 5566POPC   GL270514   4.120  41.422   5.917
 5566POPC   C1A70515   4.161  41.850   6.233
 5566POPC   D2A70516   4.296  41.614   6.596
 5566POPC   C3A70517   4.238  41.762   7.024
 5566POPC   C4A70518   4.638  41.833   7.282
 5566POPC   C1B70519   4.505  41.377   6.138
 5566POPC   C2B70520   4.722  41.302   6.518
 5566POPC   C3B70521   4.649  41.439   6.927
 5566POPC   C4B70522   4.413  41.356   7.278
 5567POPC   NC370523  10.796  35.743   5.498
 5567POPC   PO470524  10.693  35.154   5.485
 5567POPC   GL170525  10.390  35.343   5.809
 5567POPC   GL270526  10.291  35.700   5.781
 5567POPC   C1A70527  10.256  35.230   6.252
 5567POPC   D2A70528  10.187  35.045   6.690
 5567POPC   C3A70529  10.419  35.254   7.048
 5567POPC   C4A70530  10.414  35.471   7.465
 5567POPC   C1B70531  10.494  35.727   6.180
 5567POPC   C2B70532  10.678  35.725   6.580
 5567POPC   C3B70533  10.523  35.764   6.993
 5567POPC   C4B70534  10.731  35.880   7.368
 5568POPC   NC370535   7.239   7.713   5.646
 5568POPC   PO470536   7.214   8.306   5.309
 5568POPC   GL170537   7.257   8.230   5.774
 5568POPC   GL270538   7.611   8.309   5.877
 5568POPC   C1A70539   7.333   8.020   6.209
 5568POPC   D2A70540   7.433   8.262   6.577
 5568POPC   C3A70541   7.461   8.073   6.939
 5568POPC   C4A70542   7.387   7.978   7.328
 5568POPC   C1B70543   7.818   8.132   6.268
 5568POPC   C2B70544   7.935   8.121   6.710
 5568POPC   C3B70545   7.931   8.074   7.167
 5568POPC   C4B70546   7.838   8.014   7.609
 5569POPC   NC370547  30.114  40.436   5.506
 5569POPC   PO470548  29.739  41.089   5.436
 5569POPC   GL170549  29.828  40.790   5.786
 5569POPC   GL270550  30.189  40.851   5.823
 5569POPC   C1A70551  29.787  40.790   6.265
 5569POPC   D2A70552  29.951  41.075   6.639
 5569POPC   C3A70553  30.066  40.893   7.035
 5569POPC   C4A70554  29.958  40.797   7.452
 5569POPC   C1B70555  30.295  40.691   6.234
 5569POPC   C2B70556  30.128  40.571   6.636
 5569POPC   C3B70557  30.260  40.404   7.057
 5569POPC   C4B70558  30.417  40.561   7.432
 5570POPC   NC370559  25.903  38.152   5.706
 5570POPC   PO470560  26.102  38.675   5.268
 5570POPC   GL170561  26.224  38.610   5.757
 5570POPC   GL270562  26.422  38.316   5.842
 5570POPC   C1A70563  26.078  38.540   6.265
 5570POPC   D2A70564  25.946  38.777   6.655
 5570POPC   C3A70565  25.934  38.567   7.049
 5570POPC   C4A70566  25.949  38.391   7.442
 5570POPC   C1B70567  26.520  38.309   6.287
 5570POPC   C2B70568  26.263  38.313   6.699
 5570POPC   C3B70569  26.324  38.205   7.141
 5570POPC   C4B70570  26.420  38.281   7.608
 5571POPC   NC370571  31.465   7.784   5.635
 5571POPC   PO470572  31.520   8.364   5.266
 5571POPC   GL170573  31.648   8.285   5.724
 5571POPC   GL270574  31.882   8.010   5.828
 5571POPC   C1A70575  31.501   8.169   6.155
 5571POPC   D2A70576  31.265   8.113   6.523
 5571POPC   C3A70577  31.472   8.384   6.813
 5571POPC   C4A70578  31.428   8.366   7.229
 5571POPC   C1B70579  31.961   7.905   6.230
 5571POPC   C2B70580  31.786   8.039   6.597
 5571POPC   C3B70581  31.614   7.923   6.994
 5571POPC   C4B70582  31.727   7.781   7.400
 5572POPC   NC370583  40.145   0.557   5.436
 5572POPC   PO470584  39.707   0.158   5.593
 5572POPC   GL170585  40.015   0.322   5.910
 5572POPC   GL270586  40.251   0.622   5.925
 5572POPC   C1A70587  40.047   0.364   6.359
 5572POPC   D2A70588  39.756   0.299   6.706
 5572POPC   C3A70589  39.971   0.406   7.049
 5572POPC   C4A70590  39.808   0.754   7.188
 5572POPC   C1B70591  40.489   0.626   6.312
 5572POPC   C2B70592  40.429   0.541   6.746
 5572POPC   C3B70593  40.301   0.805   7.064
 5572POPC   C4B70594  40.205   0.744   7.491
 5573POPC   NC370595  18.661  36.952   5.478
 5573POPC   PO470596  19.114  36.509   5.475
 5573POPC   GL170597  19.070  36.729   5.849
 5573POPC   GL270598  18.877  37.014   5.960
 5573POPC   C1A70599  18.970  36.596   6.259
 5573POPC   D2A70600  19.040  36.832   6.631
 5573POPC   C3A70601  18.975  36.619   7.008
 5573POPC   C4A70602  19.140  36.674   7.462
 5573POPC   C1B70603  18.624  36.995   6.353
 5573POPC   C2B70604  18.555  36.865   6.784
 5573POPC   C3B70605  18.770  37.063   7.162
 5573POPC   C4B70606  18.840  37.031   7.653
 5574POPC   NC370607  37.170  10.715   5.544
 5574POPC   PO470608  37.849  10.449   5.588
 5574POPC   GL170609  37.663  10.191   5.921
 5574POPC   GL270610  37.367  10.383   5.910
 5574POPC   C1A70611  37.750  10.160   6.399
 5574POPC   D2A70612  38.032  10.343   6.678
 5574POPC   C3A70613  37.958  10.388   7.063
 5574POPC   C4A70614  37.824  10.672   7.297
 5574POPC   C1B70615  37.417  10.548   6.333
 5574POPC   C2B70616  37.511  10.526   6.761
 5574POPC   C3B70617  37.395  10.777   7.093
 5574POPC   C4B70618  37.351  10.589   7.493
 5575POPC   NC370619  43.517  24.545   5.402
 5575POPC   PO470620  42.923  24.256   5.453
 5575POPC   GL170621  43.142  24.498   5.789
 5575POPC   GL270622  43.303  24.863   5.765
 5575POPC   C1A70623  43.118  24.297   6.199
 5575POPC   D2A70624  42.806  24.159   6.484
 5575POPC   C3A70625  42.872  24.210   6.928
 5575POPC   C4A70626  43.114  24.333   7.295
 5575POPC   C1B70627  43.186  24.788   6.219
 5575POPC   C2B70628  43.179  24.599   6.640
 5575POPC   C3B70629  43.290  24.807   7.026
 5575POPC   C4B70630  43.337  24.757   7.475
 5576POPC   NC370631  16.300  31.601   5.279
 5576POPC   PO470632  15.648  31.674   5.524
 5576POPC   GL170633  15.825  31.442   5.868
 5576POPC   GL270634  16.192  31.442   5.826
 5576POPC   C1A70635  15.896  31.575   6.300
 5576POPC   D2A70636  15.657  31.652   6.657
 5576POPC   C3A70637  15.850  31.574   7.026
 5576POPC   C4A70638  16.254  31.658   7.152
 5576POPC   C1B70639  16.271  31.232   6.260
 5576POPC   C2B70640  16.034  31.201   6.671
 5576POPC   C3B70641  15.939  31.078   7.129
 5576POPC   C4B70642  16.221  31.034   7.491
 5577POPC   NC370643  36.704  12.247   4.990
 5577POPC   PO470644  37.139  11.830   5.350
 5577POPC   GL170645  37.106  11.785   5.762
 5577POPC   GL270646  36.826  12.020   5.786
 5577POPC   C1A70647  37.158  11.899   6.182
 5577POPC   D2A70648  36.996  12.071   6.561
 5577POPC   C3A70649  36.979  11.773   6.910
 5577POPC   C4A70650  37.019  11.995   7.278
 5577POPC   C1B70651  36.736  12.319   6.121
 5577POPC   C2B70652  36.553  12.339   6.543
 5577POPC   C3B70653  36.648  12.179   6.948
 5577POPC   C4B70654  36.576  12.274   7.336
 5578POPC   NC370655  39.429   5.835   5.341
 5578POPC   PO470656  38.900   6.182   5.523
 5578POPC   GL170657  39.251   6.019   5.779
 5578POPC   GL270658  39.365   5.677   5.835
 5578POPC   C1A70659  39.298   6.038   6.223
 5578POPC   D2A70660  39.137   6.177   6.615
 5578POPC   C3A70661  39.218   5.813   6.846
 5578POPC   C4A70662  39.133   5.706   7.266
 5578POPC   C1B70663  39.641   5.648   6.209
 5578POPC   C2B70664  39.721   5.744   6.652
 5578POPC   C3B70665  39.614   5.570   7.063
 5578POPC   C4B70666  39.645   5.643   7.530
 5579POPC   NC370667  40.611  27.915   5.575
 5579POPC   PO470668  41.105  27.501   5.353
 5579POPC   GL170669  40.817  27.470   5.768
 5579POPC   GL270670  40.408  27.572   5.881
 5579POPC   C1A70671  40.712  27.351   6.197
 5579POPC   D2A70672  40.479  27.459   6.508
 5579POPC   C3A70673  40.603  27.388   6.888
 5579POPC   C4A70674  40.567  27.432   7.311
 5579POPC   C1B70675  40.520  27.890   6.241
 5579POPC   C2B70676  40.638  27.915   6.687
 5579POPC   C3B70677  40.555  27.904   7.131
 5579POPC   C4B70678  40.215  27.790   7.425
 5580POPC   NC370679  40.735  10.730   5.332
 5580POPC   PO470680  40.793  10.085   5.424
 5580POPC   GL170681  40.750  10.437   5.752
 5580POPC   GL270682  41.013  10.744   5.777
 5580POPC   C1A70683  40.649  10.648   6.149
 5580POPC   D2A70684  40.610  10.835   6.560
 5580POPC   C3A70685  40.784  10.708   6.947
 5580POPC   C4A70686  40.647  10.487   7.296
 5580POPC   C1B70687  41.141  10.423   6.077
 5580POPC   C2B70688  41.183  10.253   6.490
 5580POPC   C3B70689  41.263  10.509   6.831
 5580POPC   C4B70690  41.222  10.607   7.215
 5581POPC   NC370691   1.218  43.554   5.676
 5581POPC   PO470692   1.263  42.906   5.501
 5581POPC   GL170693   1.158  43.031   5.893
 5581POPC   GL270694   1.446  43.188   5.974
 5581POPC   C1A70695   1.008  43.325   6.236
 5581POPC   D2A70696   1.071  43.360   6.660
 5581POPC   C3A70697   1.055  42.971   6.848
 5581POPC   C4A70698   1.117  42.882   7.257
 5581POPC   C1B70699   1.360  42.957   6.370
 5581POPC   C2B70700   1.558  42.986   6.763
 5581POPC   C3B70701   1.504  43.208   7.120
 5581POPC   C4B70702   1.723  43.478   7.412
 5582POPC   NC370703  43.074  33.463   5.402
 5582POPC   PO470704  42.873  32.795   5.422
 5582POPC   GL170705  43.122  32.882   5.764
 5582POPC   GL270706  43.147  33.218   5.854
 5582POPC   C1A70707  43.159  32.812   6.189
 5582POPC   D2A70708  42.954  32.779   6.568
 5582POPC   C3A70709  43.142  32.715   6.958
 5582POPC   C4A70710  43.072  32.875   7.377
 5582POPC   C1B70711  43.402  33.260   6.228
 5582POPC   C2B70712  43.285  33.325   6.657
 5582POPC   C3B70713  43.305  33.226   7.098
 5582POPC   C4B70714  43.218  33.382   7.522
 5583POPC   NC370715   6.199  32.495   5.472
 5583POPC   PO470716   5.665  32.124   5.446
 5583POPC   GL170717   5.845  32.100   5.826
 5583POPC   GL270718   6.078  32.342   5.952
 5583POPC   C1A70719   5.693  32.054   6.218
 5583POPC   D2A70720   5.912  32.174   6.561
 5583POPC   C3A70721   5.734  32.082   6.943
 5583POPC   C4A70722   5.839  32.333   7.280
 5583POPC   C1B70723   6.208  31.957   6.169
 5583POPC   C2B70724   6.337  31.877   6.614
 5583POPC   C3B70725   6.260  32.189   6.953
 5583POPC   C4B70726   6.316  32.389   7.362
 5584POPC   NC370727   3.620  17.007   5.503
 5584POPC   PO470728   3.020  16.638   5.579
 5584POPC   GL170729   3.355  16.771   5.852
 5584POPC   GL270730   3.629  16.504   5.942
 5584POPC   C1A70731   3.599  16.975   6.172
 5584POPC   D2A70732   3.732  16.727   6.528
 5584POPC   C3A70733   3.612  16.932   6.889
 5584POPC   C4A70734   3.624  16.879   7.269
 5584POPC   C1B70735   3.305  16.497   6.268
 5584POPC   C2B70736   3.327  16.342   6.674
 5584POPC   C3B70737   3.405  16.466   7.095
 5584POPC   C4B70738   3.254  16.376   7.540
 5585POPC   NC370739  31.996  26.081   5.337
 5585POPC   PO470740  31.298  26.074   5.213
 5585POPC   GL170741  31.354  26.115   5.691
 5585POPC   GL270742  31.650  25.904   5.804
 5585POPC   C1A70743  31.385  26.186   6.175
 5585POPC   D2A70744  31.557  26.021   6.580
 5585POPC   C3A70745  31.513  26.207   7.009
 5585POPC   C4A70746  31.124  26.300   7.252
 5585POPC   C1B70747  31.731  25.681   6.205
 5585POPC   C2B70748  31.619  25.538   6.673
 5585POPC   C3B70749  31.763  25.723   7.098
 5585POPC   C4B70750  31.835  25.765   7.552
 5586POPC   NC370751  29.560   3.087   4.962
 5586POPC   PO470752  29.049   2.814   5.377
 5586POPC   GL170753  28.998   2.669   5.782
 5586POPC   GL270754  28.845   2.975   5.865
 5586POPC   C1A70755  29.204   2.593   6.173
 5586POPC   D2A70756  29.402   2.881   6.465
 5586POPC   C3A70757  29.246   2.891   6.869
 5586POPC   C4A70758  29.198   2.545   7.114
 5586POPC   C1B70759  28.772   2.819   6.272
 5586POPC   C2B70760  28.759   2.977   6.690
 5586POPC   C3B70761  28.778   2.814   7.107
 5586POPC   C4B70762  28.680   2.815   7.532
 5587POPC   NC370763   0.399  16.082   5.369
 5587POPC   PO470764   0.920  15.577   5.528
 5587POPC   GL170765   0.658  15.843   5.738
 5587POPC   GL270766   0.274  15.870   5.807
 5587POPC   C1A70767   0.659  15.926   6.150
 5587POPC   D2A70768   0.500  16.208   6.432
 5587POPC   C3A70769   0.546  16.168   6.870
 5587POPC   C4A70770   0.600  15.799   7.127
 5587POPC   C1B70771   0.151  15.890   6.233
 5587POPC   C2B70772   0.300  15.760   6.665
 5587POPC   C3B70773   0.103  15.651   7.065
 5587POPC   C4B70774   0.162  15.850   7.489
 5588POPC   NC370775  10.184  14.129   5.428
 5588POPC   PO470776  10.801  14.415   5.421
 5588POPC   GL170777  10.609  14.226   5.727
 5588POPC   GL270778  10.382  14.493   5.743
 5588POPC   C1A70779  10.710  14.063   6.115
 5588POPC   D2A70780  10.791  14.246   6.497
 5588POPC   C3A70781  10.575  14.074   6.827
 5588POPC   C4A70782  10.625  14.207   7.249
 5588POPC   C1B70783  10.645  14.571   6.108
 5588POPC   C2B70784  10.621  14.732   6.499
 5588POPC   C3B70785  10.703  14.589   6.884
 5588POPC   C4B70786  10.542  14.710   7.260
 5589POPC   NC370787   3.642  24.808   5.403
 5589POPC   PO470788   3.211  24.283   5.252
 5589POPC   GL170789   3.295  24.417   5.711
 5589POPC   GL270790   3.656  24.518   5.833
 5589POPC   C1A70791   3.294  24.394   6.179
 5589POPC   D2A70792   3.267  24.608   6.605
 5589POPC   C3A70793   3.370  24.456   7.004
 5589POPC   C4A70794   3.123  24.300   7.325
 5589POPC   C1B70795   3.830  24.637   6.261
 5589POPC   C2B70796   3.761  24.716   6.744
 5589POPC   C3B70797   3.787  24.689   7.233
 5589POPC   C4B70798   3.854  24.716   7.724
 5590POPC   NC370799  16.096   4.507   5.079
 5590POPC   PO470800  16.038   3.939   5.533
 5590POPC   GL170801  15.773   4.287   5.736
 5590POPC   GL270802  15.575   4.076   5.956
 5590POPC   C1A70803  15.825   4.487   6.181
 5590POPC   D2A70804  15.989   4.359   6.609
 5590POPC   C3A70805  15.907   4.592   7.001
 5590POPC   C4A70806  15.738   4.677   7.452
 5590POPC   C1B70807  15.703   3.798   6.299
 5590POPC   C2B70808  15.830   3.890   6.746
 5590POPC   C3B70809  15.796   4.100   7.142
 5590POPC   C4B70810  15.562   3.873   7.492
 5591POPC   NC370811  23.067  42.529   5.532
 5591POPC   PO470812  22.490  42.310   5.423
 5591POPC   GL170813  22.729  42.262   5.834
 5591POPC   GL270814  23.065  42.233   5.982
 5591POPC   C1A70815  22.688  42.392   6.302
 5591POPC   D2A70816  22.975  42.288   6.670
 5591POPC   C3A70817  22.768  42.279   7.074
 5591POPC   C4A70818  22.622  42.075   7.440
 5591POPC   C1B70819  23.155  42.581   6.255
 5591POPC   C2B70820  23.021  42.800   6.628
 5591POPC   C3B70821  23.218  42.817   6.989
 5591POPC   C4B70822  23.274  42.384   7.141
 5592POPC   NC370823   8.426  15.099   5.496
 5592POPC   PO470824   7.772  15.334   5.403
 5592POPC   GL170825   8.020  15.240   5.825
 5592POPC   GL270826   8.278  14.983   5.940
 5592POPC   C1A70827   8.006  15.185   6.287
 5592POPC   D2A70828   8.168  15.406   6.622
 5592POPC   C3A70829   8.124  15.186   6.997
 5592POPC   C4A70830   7.932  15.488   7.279
 5592POPC   C1B70831   8.499  15.285   6.203
 5592POPC   C2B70832   8.564  15.089   6.596
 5592POPC   C3B70833   8.755  15.195   6.975
 5592POPC   C4B70834   8.662  14.939   7.314
 5593POPC   NC370835   8.896  21.753   5.505
 5593POPC   PO470836   9.116  21.085   5.521
 5593POPC   GL170837   9.036  21.379   5.818
 5593POPC   GL270838   9.297  21.640   5.873
 5593POPC   C1A70839   8.936  21.557   6.217
 5593POPC   D2A70840   9.041  21.413   6.618
 5593POPC   C3A70841   8.778  21.170   6.858
 5593POPC   C4A70842   8.709  21.224   7.278
 5593POPC   C1B70843   9.435  21.757   6.317
 5593POPC   C2B70844   9.421  21.700   6.784
 5593POPC   C3B70845   9.054  21.656   7.087
 5593POPC   C4B70846   9.048  21.743   7.552
 5594POPC   NC370847  37.804  39.096   5.437
 5594POPC   PO470848  37.102  39.194   5.371
 5594POPC   GL170849  37.384  39.039   5.737
 5594POPC   GL270850  37.687  39.210   5.908
 5594POPC   C1A70851  37.357  38.949   6.186
 5594POPC   D2A70852  37.602  39.151   6.528
 5594POPC   C3A70853  37.648  38.906   6.902
 5594POPC   C4A70854  37.710  39.005   7.318
 5594POPC   C1B70855  37.830  39.520   6.197
 5594POPC   C2B70856  37.740  39.655   6.593
 5594POPC   C3B70857  37.823  39.407   6.953
 5594POPC   C4B70858  37.540  39.472   7.280
 5595POPC   NC370859  40.932  29.922   5.560
 5595POPC   PO470860  40.235  29.836   5.316
 5595POPC   GL170861  40.439  29.781   5.825
 5595POPC   GL270862  40.620  30.123   5.951
 5595POPC   C1A70863  40.620  29.747   6.302
 5595POPC   D2A70864  40.725  30.046   6.692
 5595POPC   C3A70865  40.820  29.830   7.100
 5595POPC   C4A70866  40.492  29.599   7.327
 5595POPC   C1B70867  41.007  30.104   6.257
 5595POPC   C2B70868  41.213  30.241   6.686
 5595POPC   C3B70869  41.194  30.231   7.157
 5595POPC   C4B70870  41.042  30.167   7.622
 5596POPC   NC370871  34.199   6.120   5.381
 5596POPC   PO470872  33.647   5.616   5.561
 5596POPC   GL170873  33.571   5.815   5.978
 5596POPC   GL270874  33.884   5.974   6.109
 5596POPC   C1A70875  33.476   5.950   6.418
 5596POPC   D2A70876  33.727   6.065   6.776
 5596POPC   C3A70877  33.665   5.797   7.119
 5596POPC   C4A70878  33.409   5.463   7.286
 5596POPC   C1B70879  34.137   5.987   6.448
 5596POPC   C2B70880  34.265   6.062   6.873
 5596POPC   C3B70881  34.035   6.171   7.190
 5596POPC   C4B70882  33.617   6.271   7.253
 5597POPC   NC370883   7.813  41.498   5.432
 5597POPC   PO470884   7.193  41.511   5.268
 5597POPC   GL170885   7.452  41.402   5.755
 5597POPC   GL270886   7.237  41.168   5.973
 5597POPC   C1A70887   7.475  41.559   6.211
 5597POPC   D2A70888   7.385  41.866   6.544
 5597POPC   C3A70889   7.447  41.781   6.954
 5597POPC   C4A70890   7.484  41.955   7.358
 5597POPC   C1B70891   7.221  41.113   6.372
 5597POPC   C2B70892   7.367  41.316   6.689
 5597POPC   C3B70893   7.170  41.317   7.053
 5597POPC   C4B70894   7.333  41.461   7.347
 5598POPC   NC370895  20.272  22.514   5.311
 5598POPC   PO470896  20.230  21.899   5.554
 5598POPC   GL170897  20.357  22.212   5.874
 5598POPC   GL270898  20.181  22.542   5.890
 5598POPC   C1A70899  20.546  22.095   6.299
 5598POPC   D2A70900  20.671  21.741   6.612
 5598POPC   C3A70901  20.955  21.910   6.929
 5598POPC   C4A70902  20.948  22.115   7.320
 5598POPC   C1B70903  20.175  22.455   6.325
 5598POPC   C2B70904  20.449  22.553   6.657
 5598POPC   C3B70905  20.585  22.305   6.996
 5598POPC   C4B70906  20.257  22.196   7.292
 5599POPC   NC370907  30.921  21.495   5.553
 5599POPC   PO470908  30.584  21.027   5.511
 5599POPC   GL170909  30.620  21.169   5.887
 5599POPC   GL270910  30.958  21.089   5.904
 5599POPC   C1A70911  30.481  21.397   6.252
 5599POPC   D2A70912  30.279  21.602   6.591
 5599POPC   C3A70913  30.389  21.401   6.976
 5599POPC   C4A70914  30.739  21.476   7.223
 5599POPC   C1B70915  30.996  21.368   6.238
 5599POPC   C2B70916  30.841  21.684   6.529
 5599POPC   C3B70917  31.070  21.692   6.910
 5599POPC   C4B70918  31.219  21.329   7.176
 5600POPC   NC370919   7.693  34.590   5.421
 5600POPC   PO470920   8.309  34.380   5.205
 5600POPC   GL170921   8.131  34.451   5.669
 5600POPC   GL270922   8.154  34.804   5.776
 5600POPC   C1A70923   8.110  34.405   6.149
 5600POPC   D2A70924   8.193  34.598   6.570
 5600POPC   C3A70925   8.274  34.408   6.964
 5600POPC   C4A70926   8.084  34.275   7.351
 5600POPC   C1B70927   8.005  34.937   6.204
 5600POPC   C2B70928   7.999  35.057   6.612
 5600POPC   C3B70929   8.167  35.057   7.027
 5600POPC   C4B70930   8.150  34.798   7.393
 5601POPC   NC370931  30.940  33.486   5.497
 5601POPC   PO470932  30.345  33.758   5.480
 5601POPC   GL170933  30.611  33.793   5.853
 5601POPC   GL270934  30.953  33.749   5.939
 5601POPC   C1A70935  30.590  33.605   6.244
 5601POPC   D2A70936  30.855  33.631   6.580
 5601POPC   C3A70937  30.606  33.579   6.940
 5601POPC   C4A70938  30.498  33.713   7.336
 5601POPC   C1B70939  31.249  33.585   6.197
 5601POPC   C2B70940  31.396  33.616   6.615
 5601POPC   C3B70941  31.145  33.590   7.012
 5601POPC   C4B70942  30.902  33.952   7.172
 5602POPC   NC370943  38.542  11.498   5.547
 5602POPC   PO470944  38.758  10.859   5.512
 5602POPC   GL170945  38.657  11.147   5.910
 5602POPC   GL270946  38.786  11.540   5.984
 5602POPC   C1A70947  38.331  11.274   6.255
 5602POPC   D2A70948  38.158  11.308   6.709
 5602POPC   C3A70949  38.433  11.338   7.077
 5602POPC   C4A70950  38.352  11.385   7.508
 5602POPC   C1B70951  38.832  11.337   6.362
 5602POPC   C2B70952  38.648  11.148   6.646
 5602POPC   C3B70953  38.719  10.907   6.933
 5602POPC   C4B70954  38.861  11.095   7.317
 5603POPC   NC370955  43.813   6.201   5.175
 5603POPC   PO470956  44.205   5.599   5.328
 5603POPC   GL170957  44.200   5.892   5.694
 5603POPC   GL270958  43.873   6.105   5.714
 5603POPC   C1A70959  44.061   5.842   6.147
 5603POPC   D2A70960  43.710   5.833   6.468
 5603POPC   C3A70961  43.915   5.744   6.866
 5603POPC   C4A70962  44.006   5.580   7.277
 5603POPC   C1B70963  43.782   6.281   6.139
 5603POPC   C2B70964  43.775   6.338   6.585
 5603POPC   C3B70965  43.584   6.134   6.941
 5603POPC   C4B70966  43.950   6.114   7.202
 5604POPC   NC370967  32.570  44.045   5.619
 5604POPC   PO470968  33.277  43.950   5.398
 5604POPC   GL170969  33.386  43.892   5.831
 5604POPC   GL270970  33.539  44.239   5.821
 5604POPC   C1A70971  33.142  43.655   6.177
 5604POPC   D2A70972  32.808  43.670   6.532
 5604POPC   C3A70973  32.970  43.656   6.970
 5604POPC   C4A70974  33.001  43.505   7.400
 5604POPC   C1B70975  33.244  44.286   6.159
 5604POPC   C2B70976  33.093  44.206   6.571
 5604POPC   C3B70977  32.838  44.144   6.919
 5604POPC   C4B70978  33.063  44.054   7.298
 5605POPC   NC370979  23.425  27.798   5.460
 5605POPC   PO470980  23.933  27.429   5.256
 5605POPC   GL170981  23.832  27.590   5.752
 5605POPC   GL270982  23.526  27.663   5.949
 5605POPC   C1A70983  23.931  27.763   6.235
 5605POPC   D2A70984  23.723  27.859   6.672
 5605POPC   C3A70985  23.764  27.615   7.073
 5605POPC   C4A70986  23.793  27.732   7.551
 5605POPC   C1B70987  23.359  27.467   6.319
 5605POPC   C2B70988  23.187  27.739   6.636
 5605POPC   C3B70989  23.274  27.718   7.063
 5605POPC   C4B70990  23.416  27.395   7.388
 5606POPC   NC370991  39.680  10.143   5.336
 5606POPC   PO470992  39.062   9.907   5.456
 5606POPC   GL170993  39.238   9.769   5.822
 5606POPC   GL270994  39.035   9.484   5.833
 5606POPC   C1A70995  39.398   9.827   6.229
 5606POPC   D2A70996  39.271   9.951   6.640
 5606POPC   C3A70997  39.437   9.727   6.981
 5606POPC   C4A70998  39.519   9.538   7.370
 5606POPC   C1B70999  38.875   9.674   6.208
 5606POPC   C2B71000  38.732   9.765   6.625
 5606POPC   C3B71001  38.814   9.612   7.052
 5606POPC   C4B71002  39.085   9.837   7.359
 5607POPC   NC371003   2.169  44.678   4.984
 5607POPC   PO471004   1.598  44.509   5.350
 5607POPC   GL171005   1.689  44.558   5.821
 5607POPC   GL271006   1.972  44.841   5.863
 5607POPC   C1A71007   1.687  44.626   6.278
 5607POPC   D2A71008   2.045  44.874   6.474
 5607POPC   C3A71009   2.145  44.861   6.909
 5607POPC   C4A71010   1.901  44.665   7.218
 5607POPC   C1B71011   2.153  44.497   6.113
 5607POPC   C2B71012   2.043  44.369   6.534
 5607POPC   C3B71013   2.200  44.350   6.921
 5607POPC   C4B71014   2.305  44.352   7.321
 5608POPC   NC371015  18.239  17.905   5.542
 5608POPC   PO471016  18.288  18.481   5.216
 5608POPC   GL171017  18.403  18.359   5.727
 5608POPC   GL271018  18.227  18.610   5.987
 5608POPC   C1A71019  18.507  18.217   6.161
 5608POPC   D2A71020  18.313  18.015   6.506
 5608POPC   C3A71021  18.418  18.170   6.904
 5608POPC   C4A71022  18.295  18.023   7.308
 5608POPC   C1B71023  17.995  18.343   6.247
 5608POPC   C2B71024  17.899  18.409   6.673
 5608POPC   C3B71025  17.960  18.352   7.100
 5608POPC   C4B71026  17.987  18.627   7.445
 5609POPC   NC371027  15.113  20.975   5.486
 5609POPC   PO471028  15.286  20.312   5.415
 5609POPC   GL171029  15.221  20.565   5.818
 5609POPC   GL271030  15.397  20.902   5.897
 5609POPC   C1A71031  15.090  20.659   6.249
 5609POPC   D2A71032  14.996  20.383   6.623
 5609POPC   C3A71033  15.192  20.371   6.998
 5609POPC   C4A71034  14.988  20.482   7.331
 5609POPC   C1B71035  15.483  20.997   6.344
 5609POPC   C2B71036  15.198  20.931   6.721
 5609POPC   C3B71037  15.240  20.890   7.177
 5609POPC   C4B71038  15.361  20.884   7.624
 5610POPC   NC371039  31.608  39.516   5.426
 5610POPC   PO471040  31.399  40.112   5.479
 5610POPC   GL171041  31.591  39.858   5.819
 5610POPC   GL271042  31.864  40.107   5.887
 5610POPC   C1A71043  31.477  39.688   6.249
 5610POPC   D2A71044  31.303  39.695   6.675
 5610POPC   C3A71045  31.584  39.841   7.019
 5610POPC   C4A71046  31.574  40.058   7.438
 5610POPC   C1B71047  31.568  40.199   6.199
 5610POPC   C2B71048  31.463  40.178   6.613
 5610POPC   C3B71049  31.492  40.347   7.008
 5610POPC   C4B71050  31.242  40.438   7.353
 5611POPC   NC371051  31.763  41.187   5.610
 5611POPC   PO471052  31.868  41.835   5.399
 5611POPC   GL171053  31.681  41.759   5.801
 5611POPC   GL271054  31.409  41.501   5.860
 5611POPC   C1A71055  31.610  41.863   6.229
 5611POPC   D2A71056  31.622  41.744   6.640
 5611POPC   C3A71057  31.307  41.508   6.765
 5611POPC   C4A71058  31.235  41.544   7.141
 5611POPC   C1B71059  31.466  41.364   6.287
 5611POPC   C2B71060  31.657  41.136   6.632
 5611POPC   C3B71061  31.666  41.278   7.064
 5611POPC   C4B71062  31.725  41.308   7.564
 5612POPC   NC371063  28.584  37.388   5.554
 5612POPC   PO471064  28.292  36.722   5.432
 5612POPC   GL171065  28.427  36.936   5.786
 5612POPC   GL271066  28.533  36.634   5.892
 5612POPC   C1A71067  28.272  37.218   6.138
 5612POPC   D2A71068  28.267  37.323   6.576
 5612POPC   C3A71069  28.358  36.966   6.848
 5612POPC   C4A71070  28.168  36.886   7.233
 5612POPC   C1B71071  28.282  36.717   6.258
 5612POPC   C2B71072  28.225  36.493   6.647
 5612POPC   C3B71073  28.322  36.448   7.047
 5612POPC   C4B71074  28.633  36.677   7.289
 5613POPC   NC371075   1.652  20.040   5.589
 5613POPC   PO471076   2.239  19.618   5.550
 5613POPC   GL171077   1.941  19.662   5.866
 5613POPC   GL271078   1.937  20.030   6.017
 5613POPC   C1A71079   1.995  19.498   6.254
 5613POPC   D2A71080   1.969  19.806   6.528
 5613POPC   C3A71081   2.087  19.686   6.901
 5613POPC   C4A71082   2.003  19.777   7.299
 5613POPC   C1B71083   2.343  19.883   6.166
 5613POPC   C2B71084   2.495  19.803   6.566
 5613POPC   C3B71085   2.455  19.995   7.006
 5613POPC   C4B71086   2.459  19.955   7.444
 5614POPC   NC371087  10.574   8.405   5.516
 5614POPC   PO471088  10.796   7.727   5.395
 5614POPC   GL171089  10.584   7.818   5.811
 5614POPC   GL271090  10.331   8.052   5.809
 5614POPC   C1A71091  10.575   8.021   6.248
 5614POPC   D2A71092  10.823   8.214   6.577
 5614POPC   C3A71093  10.620   8.147   6.966
 5614POPC   C4A71094  10.688   7.900   7.311
 5614POPC   C1B71095  10.152   8.314   6.132
 5614POPC   C2B71096   9.975   8.271   6.520
 5614POPC   C3B71097  10.126   8.292   6.939
 5614POPC   C4B71098  10.288   8.260   7.372
 5615POPC   NC371099  39.297   9.497   5.385
 5615POPC   PO471100  39.536   8.865   5.466
 5615POPC   GL171101  39.397   9.051   5.820
 5615POPC   GL271102  39.549   9.366   5.832
 5615POPC   C1A71103  39.347   8.851   6.232
 5615POPC   D2A71104  39.424   8.977   6.674
 5615POPC   C3A71105  39.169   8.756   7.003
 5615POPC   C4A71106  39.077   8.834   7.454
 5615POPC   C1B71107  39.278   9.341   6.233
 5615POPC   C2B71108  39.130   9.427   6.646
 5615POPC   C3B71109  39.212   9.267   7.054
 5615POPC   C4B71110  39.035   9.328   7.448
 5616POPC   NC371111  17.562  33.628   5.338
 5616POPC   PO471112  17.123  34.164   5.239
 5616POPC   GL171113  17.433  34.115   5.615
 5616POPC   GL271114  17.446  33.790   5.810
 5616POPC   C1A71115  17.553  34.208   6.075
 5616POPC   D2A71116  17.325  34.117   6.472
 5616POPC   C3A71117  17.477  34.126   6.905
 5616POPC   C4A71118  17.260  34.365   7.176
 5616POPC   C1B71119  17.333  33.666   6.208
 5616POPC   C2B71120  17.509  33.475   6.579
 5616POPC   C3B71121  17.461  33.602   7.004
 5616POPC   C4B71122  17.589  33.446   7.425
 5617POPC   NC371123  37.221  12.304   5.350
 5617POPC   PO471124  37.826  12.344   5.491
 5617POPC   GL171125  37.557  12.056   5.748
 5617POPC   GL271126  37.277  12.261   5.858
 5617POPC   C1A71127  37.671  11.901   6.173
 5617POPC   D2A71128  38.014  11.947   6.489
 5617POPC   C3A71129  37.858  12.029   6.917
 5617POPC   C4A71130  37.499  11.812   7.147
 5617POPC   C1B71131  37.210  12.570   6.184
 5617POPC   C2B71132  37.401  12.510   6.570
 5617POPC   C3B71133  37.359  12.265   6.924
 5617POPC   C4B71134  37.475  12.335   7.323
 5618POPC   NC371135  13.556  32.589   5.421
 5618POPC   PO471136  13.771  31.877   5.491
 5618POPC   GL171137  13.567  32.131   5.786
 5618POPC   GL271138  13.852  32.339   5.813
 5618POPC   C1A71139  13.561  32.212   6.253
 5618POPC   D2A71140  13.801  32.145   6.660
 5618POPC   C3A71141  13.529  32.247   7.026
 5618POPC   C4A71142  13.447  32.690   7.145
 5618POPC   C1B71143  14.066  32.311   6.216
 5618POPC   C2B71144  14.119  32.562   6.580
 5618POPC   C3B71145  13.968  32.552   7.017
 5618POPC   C4B71146  14.021  32.484   7.459
 5619POPC   NC371147  21.107  40.090   5.643
 5619POPC   PO471148  20.408  40.032   5.408
 5619POPC   GL171149  20.614  40.101   5.825
 5619POPC   GL271150  20.490  40.410   5.971
 5619POPC   C1A71151  20.860  40.084   6.236
 5619POPC   D2A71152  21.043  39.918   6.577
 5619POPC   C3A71153  20.894  40.167   6.872
 5619POPC   C4A71154  20.649  40.072   7.196
 5619POPC   C1B71155  20.358  40.103   6.291
 5619POPC   C2B71156  20.429  39.976   6.732
 5619POPC   C3B71157  20.175  39.911   7.120
 5619POPC   C4B71158  19.924  39.831   7.492
 5620POPC   NC371159  41.322   6.277   5.434
 5620POPC   PO471160  41.429   5.693   5.710
 5620POPC   GL171161  41.672   5.951   5.928
 5620POPC   GL271162  41.984   6.084   5.826
 5620POPC   C1A71163  41.529   5.962   6.328
 5620POPC   D2A71164  41.576   5.712   6.644
 5620POPC   C3A71165  41.486   5.938   6.961
 5620POPC   C4A71166  41.524   5.616   7.240
 5620POPC   C1B71167  42.050   5.955   6.252
 5620POPC   C2B71168  41.942   6.097   6.635
 5620POPC   C3B71169  42.112   6.182   6.990
 5620POPC   C4B71170  41.856   6.036   7.299
 5621POPC   NC371171  32.321  29.305   5.454
 5621POPC   PO471172  32.730  28.748   5.452
 5621POPC   GL171173  32.574  29.024   5.857
 5621POPC   GL271174  32.212  29.216   5.930
 5621POPC   C1A71175  32.391  28.894   6.276
 5621POPC   D2A71176  32.065  28.675   6.549
 5621POPC   C3A71177  32.135  28.862   6.942
 5621POPC   C4A71178  31.879  28.932   7.288
 5621POPC   C1B71179  31.969  29.478   6.222
 5621POPC   C2B71180  31.834  29.495   6.680
 5621POPC   C3B71181  32.115  29.375   7.032
 5621POPC   C4B71182  32.548  29.401   7.223
 5622POPC   NC371183  33.878  25.120   5.496
 5622POPC   PO471184  33.329  25.557   5.360
 5622POPC   GL171185  33.510  25.496   5.852
 5622POPC   GL271186  33.289  25.495   6.124
 5622POPC   C1A71187  33.690  25.236   6.259
 5622POPC   D2A71188  33.712  24.902   6.615
 5622POPC   C3A71189  33.942  25.028   6.997
 5622POPC   C4A71190  34.053  25.399   7.281
 5622POPC   C1B71191  33.455  25.667   6.474
 5622POPC   C2B71192  33.745  25.449   6.723
 5622POPC   C3B71193  33.594  25.400   7.094
 5622POPC   C4B71194  33.684  25.782   7.257
 5623POPC   NC371195   7.171   0.176   5.530
 5623POPC   PO471196   7.164   0.805   5.341
 5623POPC   GL171197   7.241   0.628   5.778
 5623POPC   GL271198   7.520   0.373   5.843
 5623POPC   C1A71199   7.150   0.446   6.207
 5623POPC   D2A71200   7.125   0.694   6.578
 5623POPC   C3A71201   7.163   0.476   6.930
 5623POPC   C4A71202   7.477   0.492   7.235
 5623POPC   C1B71203   7.719   0.396   6.245
 5623POPC   C2B71204   7.611   0.463   6.665
 5623POPC   C3B71205   7.685   0.148   6.924
 5623POPC   C4B71206   7.993   0.152   7.197
 5624POPC   NC371207  40.717   6.775   5.329
 5624POPC   PO471208  41.304   6.733   5.530
 5624POPC   GL171209  40.958   6.577   5.747
 5624POPC   GL271210  40.812   6.883   5.817
 5624POPC   C1A71211  40.858   6.427   6.175
 5624POPC   D2A71212  41.046   6.165   6.533
 5624POPC   C3A71213  41.009   6.346   6.944
 5624POPC   C4A71214  40.580   6.428   7.082
 5624POPC   C1B71215  41.042   6.913   6.222
 5624POPC   C2B71216  41.003   6.810   6.673
 5624POPC   C3B71217  40.784   6.892   7.106
 5624POPC   C4B71218  40.639   6.847   7.561
 5625POPC   NC371219  33.930  31.629   5.525
 5625POPC   PO471220  33.385  31.250   5.392
 5625POPC   GL171221  33.504  31.502   5.793
 5625POPC   GL271222  33.833  31.397   5.957
 5625POPC   C1A71223  33.497  31.555   6.270
 5625POPC   D2A71224  33.708  31.444   6.628
 5625POPC   C3A71225  33.776  31.599   6.983
 5625POPC   C4A71226  33.733  31.256   7.271
 5625POPC   C1B71227  34.187  31.247   6.220
 5625POPC   C2B71228  34.061  31.098   6.570
 5625POPC   C3B71229  34.163  31.190   6.968
 5625POPC   C4B71230  34.198  31.494   7.247
 5626POPC   NC371231  21.757  40.149   5.166
 5626POPC   PO471232  22.336  40.081   5.559
 5626POPC   GL171233  22.253  39.930   5.933
 5626POPC   GL271234  22.532  39.693   5.877
 5626POPC   C1A71235  22.201  40.138   6.346
 5626POPC   D2A71236  22.414  40.414   6.667
 5626POPC   C3A71237  22.486  40.234   7.066
 5626POPC   C4A71238  22.378  40.296   7.487
 5626POPC   C1B71239  22.544  39.731   6.303
 5626POPC   C2B71240  22.327  39.742   6.663
 5626POPC   C3B71241  22.491  39.713   7.048
 5626POPC   C4B71242  22.207  39.862   7.302
 5627POPC   NC371243  16.819  35.802   5.318
 5627POPC   PO471244  16.308  36.172   5.477
 5627POPC   GL171245  16.661  36.063   5.773
 5627POPC   GL271246  16.919  36.320   5.854
 5627POPC   C1A71247  16.842  35.891   6.174
 5627POPC   D2A71248  17.001  35.911   6.618
 5627POPC   C3A71249  16.679  35.795   6.940
 5627POPC   C4A71250  16.692  35.857   7.396
 5627POPC   C1B71251  16.671  36.379   6.238
 5627POPC   C2B71252  16.652  36.288   6.691
 5627POPC   C3B71253  16.843  36.297   7.080
 5627POPC   C4B71254  16.554  36.631   7.159
 5628POPC   NC371255   0.232  40.786   5.524
 5628POPC   PO471256   0.819  40.828   5.475
 5628POPC   GL171257   0.677  40.604   5.889
 5628POPC   GL271258   0.312  40.675   6.001
 5628POPC   C1A71259   0.632  40.568   6.370
 5628POPC   D2A71260   0.556  40.847   6.733
 5628POPC   C3A71261   0.671  40.608   7.093
 5628POPC   C4A71262   0.593  40.528   7.517
 5628POPC   C1B71263  44.998  40.973   6.211
 5628POPC   C2B71264  44.905  41.118   6.618
 5628POPC   C3B71265   0.118  40.955   6.986
 5628POPC   C4B71266   0.152  40.590   7.225
 5629POPC   NC371267   1.501  20.622   5.393
 5629POPC   PO471268   0.950  20.355   5.611
 5629POPC   GL171269   1.047  20.674   5.947
 5629POPC   GL271270   1.328  20.847   5.794
 5629POPC   C1A71271   0.949  20.856   6.358
 5629POPC   D2A71272   0.830  20.635   6.736
 5629POPC   C3A71273   1.050  20.482   7.072
 5629POPC   C4A71274   1.507  20.332   7.052
 5629POPC   C1B71275   1.468  20.877   6.216
 5629POPC   C2B71276   1.444  20.693   6.653
 5629POPC   C3B71277   1.415  20.824   7.086
 5629POPC   C4B71278   1.339  21.046   7.482
 5630POPC   NC371279   8.190   4.200   5.265
 5630POPC   PO471280   7.802   4.763   5.423
 5630POPC   GL171281   7.941   4.510   5.790
 5630POPC   GL271282   8.245   4.310   5.790
 5630POPC   C1A71283   7.950   4.284   6.217
 5630POPC   D2A71284   7.973   4.500   6.596
 5630POPC   C3A71285   7.932   4.354   7.015
 5630POPC   C4A71286   8.014   4.557   7.436
 5630POPC   C1B71287   8.469   4.338   6.183
 5630POPC   C2B71288   8.473   4.097   6.527
 5630POPC   C3B71289   8.511   4.234   6.912
 5630POPC   C4B71290   8.321   4.187   7.296
 5631POPC   NC371291  36.504  30.801   5.534
 5631POPC   PO471292  37.099  30.671   5.490
 5631POPC   GL171293  36.976  30.574   5.900
 5631POPC   GL271294  37.300  30.618   6.022
 5631POPC   C1A71295  36.911  30.487   6.352
 5631POPC   D2A71296  36.898  30.728   6.745
 5631POPC   C3A71297  36.675  30.613   7.121
 5631POPC   C4A71298  36.577  30.771   7.556
 5631POPC   C1B71299  37.349  30.871   6.416
 5631POPC   C2B71300  37.278  31.054   6.825
 5631POPC   C3B71301  37.201  30.810   7.164
 5631POPC   C4B71302  37.337  30.588   7.489
 5632POPC   NC371303  11.960  14.737   5.447
 5632POPC   PO471304  12.265  14.176   5.576
 5632POPC   GL171305  12.069  14.350   5.948
 5632POPC   GL271306  11.985  14.703   5.954
 5632POPC   C1A71307  12.068  14.391   6.401
 5632POPC   D2A71308  12.288  14.157   6.706
 5632POPC   C3A71309  12.238  14.265   7.131
 5632POPC   C4A71310  12.233  14.346   7.568
 5632POPC   C1B71311  11.621  14.603   6.183
 5632POPC   C2B71312  11.598  14.500   6.589
 5632POPC   C3B71313  11.844  14.516   6.908
 5632POPC   C4B71314  11.813  14.559   7.328
 5633POPC   NC371315  35.740  23.329   5.113
 5633POPC   PO471316  35.380  22.833   5.438
 5633POPC   GL171317  35.276  22.857   5.842
 5633POPC   GL271318  34.959  23.032   5.869
 5633POPC   C1A71319  35.386  23.053   6.207
 5633POPC   D2A71320  35.618  23.190   6.542
 5633POPC   C3A71321  35.402  23.124   6.921
 5633POPC   C4A71322  35.352  23.087   7.344
 5633POPC   C1B71323  34.928  22.803   6.233
 5633POPC   C2B71324  35.016  22.997   6.605
 5633POPC   C3B71325  34.935  22.969   7.042
 5633POPC   C4B71326  34.982  22.725   7.430
 5634POPC   NC371327  40.281  30.293   5.137
 5634POPC   PO471328  39.755  30.254   5.626
 5634POPC   GL171329  39.918  29.937   5.925
 5634POPC   GL271330  40.121  30.199   6.096
 5634POPC   C1A71331  40.068  29.749   6.324
 5634POPC   D2A71332  39.942  29.556   6.699
 5634POPC   C3A71333  40.125  29.795   7.029
 5634POPC   C4A71334  40.300  30.209   6.934
 5634POPC   C1B71335  39.768  30.165   6.344
 5634POPC   C2B71336  39.828  30.070   6.717
 5634POPC   C3B71337  39.656  30.204   7.045
 5634POPC   C4B71338  39.761  30.116   7.402
 5635POPC   NC371339  25.529  25.775   5.403
 5635POPC   PO471340  25.001  26.101   5.186
 5635POPC   GL171341  25.156  26.120   5.689
 5635POPC   GL271342  24.898  26.222   5.947
 5635POPC   C1A71343  25.354  26.078   6.166
 5635POPC   D2A71344  25.196  26.087   6.638
 5635POPC   C3A71345  25.451  26.011   7.049
 5635POPC   C4A71346  25.554  26.073   7.537
 5635POPC   C1B71347  24.935  25.771   6.157
 5635POPC   C2B71348  24.850  25.546   6.568
 5635POPC   C3B71349  24.905  25.748   6.961
 5635POPC   C4B71350  25.138  25.755   7.327
 5636POPC   NC371351   4.171  26.673   5.613
 5636POPC   PO471352   4.617  27.087   5.283
 5636POPC   GL171353   4.557  26.999   5.778
 5636POPC   GL271354   4.241  27.108   5.936
 5636POPC   C1A71355   4.455  26.708   6.188
 5636POPC   D2A71356   4.202  26.532   6.530
 5636POPC   C3A71357   4.379  26.557   6.939
 5636POPC   C4A71358   4.614  26.682   7.282
 5636POPC   C1B71359   4.009  26.956   6.316
 5636POPC   C2B71360   3.951  26.908   6.772
 5636POPC   C3B71361   4.129  26.928   7.186
 5636POPC   C4B71362   3.979  27.218   7.458
 5637POPC   NC371363  34.669  29.396   5.473
 5637POPC   PO471364  34.412  28.829   5.282
 5637POPC   GL171365  34.646  28.978   5.752
 5637POPC   GL271366  34.552  29.305   5.965
 5637POPC   C1A71367  34.743  28.923   6.223
 5637POPC   D2A71368  34.838  29.103   6.605
 5637POPC   C3A71369  34.477  29.051   6.804
 5637POPC   C4A71370  34.486  28.762   7.145
 5637POPC   C1B71371  34.294  29.189   6.332
 5637POPC   C2B71372  34.090  29.391   6.732
 5637POPC   C3B71373  34.371  29.455   7.072
 5637POPC   C4B71374  34.768  29.210   7.172
 5638POPC   NC371375  40.237  13.312   5.689
 5638POPC   PO471376  39.805  13.707   5.426
 5638POPC   GL171377  39.965  13.733   5.838
 5638POPC   GL271378  40.299  13.849   5.787
 5638POPC   C1A71379  39.958  13.524   6.249
 5638POPC   D2A71380  40.251  13.405   6.576
 5638POPC   C3A71381  40.052  13.515   6.949
 5638POPC   C4A71382  40.216  13.498   7.332
 5638POPC   C1B71383  40.444  13.718   6.201
 5638POPC   C2B71384  40.587  13.817   6.611
 5638POPC   C3B71385  40.419  13.880   7.005
 5638POPC   C4B71386  40.292  14.005   7.456
 5639POPC   NC371387   3.847  38.206   5.594
 5639POPC   PO471388   3.467  38.703   5.389
 5639POPC   GL171389   3.610  38.638   5.804
 5639POPC   GL271390   3.385  38.357   5.869
 5639POPC   C1A71391   3.511  38.727   6.236
 5639POPC   D2A71392   3.359  38.532   6.603
 5639POPC   C3A71393   3.374  38.815   6.932
 5639POPC   C4A71394   3.483  38.720   7.347
 5639POPC   C1B71395   3.612  38.198   6.234
 5639POPC   C2B71396   3.775  38.165   6.665
 5639POPC   C3B71397   3.584  38.312   7.057
 5639POPC   C4B71398   3.382  38.150   7.439
 5640POPC   NC371399  13.037  33.144   5.523
 5640POPC   PO471400  12.318  33.271   5.526
 5640POPC   GL171401  12.645  33.305   5.848
 5640POPC   GL271402  12.701  32.945   5.857
 5640POPC   C1A71403  12.983  33.263   6.203
 5640POPC   D2A71404  13.131  33.196   6.650
 5640POPC   C3A71405  12.981  33.088   7.116
 5640POPC   C4A71406  13.098  32.807   7.509
 5640POPC   C1B71407  12.569  32.988   6.277
 5640POPC   C2B71408  12.573  33.193   6.652
 5640POPC   C3B71409  12.320  33.341   6.958
 5640POPC   C4B71410  12.467  33.345   7.342
 5641POPC   NC371411  33.313   7.979   5.510
 5641POPC   PO471412  32.964   8.490   5.281
 5641POPC   GL171413  33.036   8.522   5.756
 5641POPC   GL271414  32.956   8.166   5.865
 5641POPC   C1A71415  32.893   8.543   6.214
 5641POPC   D2A71416  32.796   8.276   6.602
 5641POPC   C3A71417  32.926   8.425   7.025
 5641POPC   C4A71418  33.187   8.312   7.406
 5641POPC   C1B71419  33.042   7.919   6.260
 5641POPC   C2B71420  33.259   7.904   6.675
 5641POPC   C3B71421  33.129   7.882   7.123
 5641POPC   C4B71422  32.762   8.059   7.344
 5642POPC   NC371423  32.522  30.886   5.217
 5642POPC   PO471424  33.092  30.555   5.306
 5642POPC   GL171425  33.104  30.785   5.718
 5642POPC   GL271426  32.772  30.840   5.878
 5642POPC   C1A71427  33.211  30.704   6.170
 5642POPC   D2A71428  33.037  30.859   6.566
 5642POPC   C3A71429  33.225  30.914   6.925
 5642POPC   C4A71430  33.127  30.581   7.173
 5642POPC   C1B71431  32.689  30.658   6.285
 5642POPC   C2B71432  32.802  30.332   6.631
 5642POPC   C3B71433  32.708  30.313   7.081
 5642POPC   C4B71434  32.614  30.740   7.072
 5643POPC   NC371435  13.335  15.377   5.552
 5643POPC   PO471436  13.878  15.141   5.482
 5643POPC   GL171437  13.620  15.048   5.816
 5643POPC   GL271438  13.815  14.855   5.972
 5643POPC   C1A71439  13.520  15.273   6.209
 5643POPC   D2A71440  13.749  15.369   6.608
 5643POPC   C3A71441  13.538  15.290   7.016
 5643POPC   C4A71442  13.419  15.365   7.455
 5643POPC   C1B71443  13.422  14.758   6.189
 5643POPC   C2B71444  13.412  14.954   6.603
 5643POPC   C3B71445  13.306  14.821   6.984
 5643POPC   C4B71446  13.530  14.873   7.348
 5644POPC   NC371447   5.344  34.807   5.460
 5644POPC   PO471448   4.839  34.361   5.424
 5644POPC   GL171449   5.183  34.407   5.757
 5644POPC   GL271450   5.069  34.738   5.880
 5644POPC   C1A71451   5.349  34.436   6.200
 5644POPC   D2A71452   5.174  34.647   6.580
 5644POPC   C3A71453   5.257  34.430   6.954
 5644POPC   C4A71454   4.976  34.214   7.240
 5644POPC   C1B71455   5.322  34.972   6.182
 5644POPC   C2B71456   5.249  35.159   6.609
 5644POPC   C3B71457   5.338  34.947   7.038
 5644POPC   C4B71458   5.160  34.669   7.411
 5645POPC   NC371459  35.961  29.984   5.341
 5645POPC   PO471460  36.439  29.518   5.492
 5645POPC   GL171461  36.142  29.768   5.769
 5645POPC   GL271462  35.926  30.094   5.824
 5645POPC   C1A71463  36.194  29.698   6.193
 5645POPC   D2A71464  36.295  29.502   6.590
 5645POPC   C3A71465  36.224  29.793   6.895
 5645POPC   C4A71466  36.094  29.858   7.293
 5645POPC   C1B71467  35.708  30.204   6.200
 5645POPC   C2B71468  35.861  30.273   6.613
 5645POPC   C3B71469  36.041  30.298   7.017
 5645POPC   C4B71470  35.835  30.277   7.427
 5646POPC   NC371471  33.269  10.905   5.699
 5646POPC   PO471472  32.854  10.583   5.279
 5646POPC   GL171473  32.892  10.433   5.714
 5646POPC   GL271474  33.160  10.539   6.014
 5646POPC   C1A71475  32.694  10.441   6.094
 5646POPC   D2A71476  32.871  10.665   6.456
 5646POPC   C3A71477  32.865  10.487   6.846
 5646POPC   C4A71478  32.717  10.319   7.208
 5646POPC   C1B71479  33.371  10.765   6.375
 5646POPC   C2B71480  33.364  10.605   6.798
 5646POPC   C3B71481  33.250  10.417   7.193
 5646POPC   C4B71482  33.327  10.703   7.533
 5647POPC   NC371483   1.064   2.171   5.573
 5647POPC   PO471484   1.125   2.825   5.319
 5647POPC   GL171485   1.316   2.862   5.725
 5647POPC   GL271486   1.206   2.570   5.847
 5647POPC   C1A71487   1.348   2.918   6.176
 5647POPC   D2A71488   1.371   2.718   6.563
 5647POPC   C3A71489   1.295   2.999   6.890
 5647POPC   C4A71490   1.288   2.964   7.272
 5647POPC   C1B71491   1.086   2.413   6.242
 5647POPC   C2B71492   0.920   2.478   6.647
 5647POPC   C3B71493   1.133   2.532   7.015
 5647POPC   C4B71494   1.008   2.569   7.442
 5648POPC   NC371495   8.231  35.510   5.495
 5648POPC   PO471496   7.742  35.070   5.569
 5648POPC   GL171497   7.873  35.335   5.909
 5648POPC   GL271498   8.234  35.285   5.940
 5648POPC   C1A71499   7.954  35.480   6.342
 5648POPC   D2A71500   8.227  35.516   6.709
 5648POPC   C3A71501   8.082  35.577   7.137
 5648POPC   C4A71502   7.837  35.406   7.459
 5648POPC   C1B71503   8.496  34.953   6.179
 5648POPC   C2B71504   8.513  35.015   6.596
 5648POPC   C3B71505   8.639  34.776   6.917
 5648POPC   C4B71506   8.654  34.997   7.241
 5649POPC   NC371507  21.975  34.561   5.434
 5649POPC   PO471508  22.629  34.810   5.434
 5649POPC   GL171509  22.316  34.809   5.760
 5649POPC   GL271510  22.316  34.437   5.805
 5649POPC   C1A71511  22.058  34.827   6.153
 5649POPC   D2A71512  22.168  34.720   6.581
 5649POPC   C3A71513  21.954  34.888   6.918
 5649POPC   C4A71514  22.140  34.822   7.306
 5649POPC   C1B71515  21.950  34.330   6.068
 5649POPC   C2B71516  21.958  34.248   6.499
 5649POPC   C3B71517  21.948  34.356   6.944
 5649POPC   C4B71518  21.688  34.474   7.309
 5650POPC   NC371519   9.348  30.876   5.270
 5650POPC   PO471520   8.749  30.528   5.413
 5650POPC   GL171521   8.908  30.623   5.802
 5650POPC   GL271522   9.093  30.935   5.739
 5650POPC   C1A71523   9.182  30.650   6.186
 5650POPC   D2A71524   9.076  30.495   6.558
 5650POPC   C3A71525   9.086  30.645   6.955
 5650POPC   C4A71526   8.730  30.640   7.219
 5650POPC   C1B71527   8.852  31.021   6.134
 5650POPC   C2B71528   8.793  30.934   6.588
 5650POPC   C3B71529   8.673  31.101   7.002
 5650POPC   C4B71530   8.686  31.082   7.485
 5651POPC   NC371531  40.180   5.472   5.249
 5651POPC   PO471532  39.863   4.867   5.448
 5651POPC   GL171533  39.849   5.192   5.749
 5651POPC   GL271534  40.210   5.221   5.795
 5651POPC   C1A71535  39.882   5.176   6.194
 5651POPC   D2A71536  39.827   4.861   6.493
 5651POPC   C3A71537  39.855   4.982   6.922
 5651POPC   C4A71538  39.831   5.195   7.317
 5651POPC   C1B71539  40.394   5.057   6.204
 5651POPC   C2B71540  40.293   4.970   6.658
 5651POPC   C3B71541  40.308   5.194   7.080
 5651POPC   C4B71542  40.487   4.985   7.446
 5652POPC   NC371543  14.744  27.025   5.198
 5652POPC   PO471544  14.259  26.727   5.323
 5652POPC   GL171545  14.364  26.756   5.765
 5652POPC   GL271546  14.296  27.062   5.844
 5652POPC   C1A71547  14.438  26.758   6.244
 5652POPC   D2A71548  14.377  26.454   6.588
 5652POPC   C3A71549  14.331  26.624   7.013
 5652POPC   C4A71550  14.158  26.456   7.451
 5652POPC   C1B71551  14.250  27.231   6.248
 5652POPC   C2B71552  14.434  27.119   6.643
 5652POPC   C3B71553  14.196  27.112   7.005
 5652POPC   C4B71554  14.322  27.155   7.413
 5653POPC   NC371555   2.032  18.753   5.527
 5653POPC   PO471556   1.921  18.133   5.588
 5653POPC   GL171557   2.222  18.250   5.882
 5653POPC   GL271558   2.352  18.620   5.893
 5653POPC   C1A71559   2.136  18.380   6.297
 5653POPC   D2A71560   1.812  18.466   6.591
 5653POPC   C3A71561   1.923  18.363   7.001
 5653POPC   C4A71562   1.699  18.042   7.223
 5653POPC   C1B71563   2.495  18.747   6.300
 5653POPC   C2B71564   2.279  18.689   6.691
 5653POPC   C3B71565   2.436  18.597   7.068
 5653POPC   C4B71566   2.249  18.650   7.438
 5654POPC   NC371567  41.838  32.112   5.425
 5654POPC   PO471568  41.214  32.303   5.286
 5654POPC   GL171569  41.275  32.391   5.734
 5654POPC   GL271570  41.636  32.381   5.787
 5654POPC   C1A71571  41.372  32.184   6.161
 5654POPC   D2A71572  41.601  32.138   6.558
 5654POPC   C3A71573  41.564  32.384   6.924
 5654POPC   C4A71574  41.326  32.288   7.276
 5654POPC   C1B71575  41.918  32.167   6.127
 5654POPC   C2B71576  42.107  32.130   6.566
 5654POPC   C3B71577  42.022  32.026   7.005
 5654POPC   C4B71578  41.815  32.198   7.359
 5655POPC   NC371579  44.190  30.579   5.438
 5655POPC   PO471580  43.558  30.488   5.414
 5655POPC   GL171581  43.679  30.576   5.836
 5655POPC   GL271582  44.026  30.659   5.906
 5655POPC   C1A71583  43.739  30.491   6.278
 5655POPC   D2A71584  43.510  30.669   6.617
 5655POPC   C3A71585  43.767  30.694   6.981
 5655POPC   C4A71586  43.732  30.397   7.304
 5655POPC   C1B71587  44.288  30.928   6.216
 5655POPC   C2B71588  44.165  31.115   6.648
 5655POPC   C3B71589  44.047  31.140   7.127
 5655POPC   C4B71590  44.117  30.981   7.565
 5656POPC   NC371591  12.799  43.309   5.378
 5656POPC   PO471592  13.388  43.025   5.424
 5656POPC   GL171593  13.029  43.017   5.732
 5656POPC   GL271594  13.053  43.372   5.816
 5656POPC   C1A71595  12.992  42.908   6.190
 5656POPC   D2A71596  13.236  42.927   6.585
 5656POPC   C3A71597  13.010  42.914   6.969
 5656POPC   C4A71598  12.990  43.110   7.361
 5656POPC   C1B71599  12.761  43.369   6.157
 5656POPC   C2B71600  12.771  43.223   6.578
 5656POPC   C3B71601  12.753  43.388   6.988
 5656POPC   C4B71602  12.517  43.321   7.395
 5657POPC   NC371603  11.809  17.047   5.490
 5657POPC   PO471604  12.140  17.439   5.212
 5657POPC   GL171605  12.184  17.408   5.682
 5657POPC   GL271606  12.050  17.702   5.847
 5657POPC   C1A71607  12.073  17.267   6.145
 5657POPC   D2A71608  12.066  17.340   6.640
 5657POPC   C3A71609  12.304  17.218   7.054
 5657POPC   C4A71610  12.182  17.232   7.512
 5657POPC   C1B71611  11.915  17.733   6.302
 5657POPC   C2B71612  11.712  17.693   6.721
 5657POPC   C3B71613  11.905  17.522   7.123
 5657POPC   C4B71614  12.226  17.728   7.432
 5658POPC   NC371615  24.357  13.377   5.485
 5658POPC   PO471616  24.640  13.987   5.621
 5658POPC   GL171617  24.558  13.670   5.897
 5658POPC   GL271618  24.209  13.702   5.853
 5658POPC   C1A71619  24.718  13.498   6.296
 5658POPC   D2A71620  24.528  13.389   6.689
 5658POPC   C3A71621  24.617  13.566   7.123
 5658POPC   C4A71622  24.697  13.604   7.569
 5658POPC   C1B71623  24.186  13.588   6.281
 5658POPC   C2B71624  24.112  13.848   6.630
 5658POPC   C3B71625  24.262  13.972   7.003
 5658POPC   C4B71626  24.148  13.817   7.374
 5659POPC   NC371627   8.536   4.714   5.602
 5659POPC   PO471628   9.121   4.959   5.430
 5659POPC   GL171629   8.963   4.847   5.848
 5659POPC   GL271630   8.684   5.075   5.999
 5659POPC   C1A71631   8.895   4.735   6.291
 5659POPC   D2A71632   8.976   4.864   6.728
 5659POPC   C3A71633   9.011   5.328   6.865
 5659POPC   C4A71634   9.220   5.449   7.265
 5659POPC   C1B71635   8.370   5.203   6.333
 5659POPC   C2B71636   8.469   5.357   6.751
 5659POPC   C3B71637   8.612   5.046   7.047
 5659POPC   C4B71638   8.464   4.659   7.187
 5660POPC   NC371639  38.687  42.828   5.469
 5660POPC   PO471640  38.273  43.320   5.533
 5660POPC   GL171641  38.279  42.936   5.835
 5660POPC   GL271642  38.531  42.669   5.916
 5660POPC   C1A71643  38.352  43.011   6.298
 5660POPC   D2A71644  38.187  43.126   6.716
 5660POPC   C3A71645  38.490  43.094   7.031
 5660POPC   C4A71646  38.479  43.333   7.401
 5660POPC   C1B71647  38.269  42.503   6.252
 5660POPC   C2B71648  38.385  42.628   6.685
 5660POPC   C3B71649  38.149  42.708   7.066
 5660POPC   C4B71650  38.211  42.647   7.505
 5661POPC   NC371651  39.396  21.970   5.500
 5661POPC   PO471652  39.039  22.601   5.418
 5661POPC   GL171653  39.058  22.304   5.791
 5661POPC   GL271654  38.878  22.540   5.983
 5661POPC   C1A71655  39.164  21.983   6.177
 5661POPC   D2A71656  39.181  21.821   6.656
 5661POPC   C3A71657  39.468  21.956   7.034
 5661POPC   C4A71658  39.379  22.019   7.506
 5661POPC   C1B71659  38.804  22.301   6.374
 5661POPC   C2B71660  38.957  22.263   6.822
 5661POPC   C3B71661  39.152  22.373   7.237
 5661POPC   C4B71662  39.101  22.824   7.462
 5662POPC   NC371663  34.785  34.243   5.041
 5662POPC   PO471664  34.324  34.506   5.441
 5662POPC   GL171665  34.457  34.656   5.821
 5662POPC   GL271666  34.456  34.329   5.928
 5662POPC   C1A71667  34.583  34.718   6.257
 5662POPC   D2A71668  34.444  34.866   6.664
 5662POPC   C3A71669  34.590  34.613   7.018
 5662POPC   C4A71670  34.536  34.640   7.468
 5662POPC   C1B71671  34.175  34.383   6.274
 5662POPC   C2B71672  34.249  34.343   6.716
 5662POPC   C3B71673  34.104  34.520   7.117
 5662POPC   C4B71674  34.072  34.543   7.608
 5663POPC   NC371675  18.986   1.481   5.255
 5663POPC   PO471676  18.395   1.540   5.549
 5663POPC   GL171677  18.229   1.232   5.870
 5663POPC   GL271678  18.556   1.144   5.894
 5663POPC   C1A71679  18.152   1.076   6.308
 5663POPC   D2A71680  18.253   1.299   6.709
 5663POPC   C3A71681  18.308   1.165   7.146
 5663POPC   C4A71682  18.322   1.220   7.615
 5663POPC   C1B71683  18.612   1.250   6.300
 5663POPC   C2B71684  18.735   1.534   6.566
 5663POPC   C3B71685  18.670   1.571   6.978
 5663POPC   C4B71686  18.652   1.500   7.387
 5664POPC   NC371687   5.631  44.820   5.426
 5664POPC   PO471688   6.298  44.504   5.420
 5664POPC   GL171689   6.006  44.672   5.739
 5664POPC   GL271690   5.685  44.504   5.854
 5664POPC   C1A71691   6.003  44.871   6.127
 5664POPC   D2A71692   5.997  44.715   6.547
 5664POPC   C3A71693   6.335  44.875   6.790
 5664POPC   C4A71694   6.248  44.913   7.218
 5664POPC   C1B71695   5.437  44.827   6.129
 5664POPC   C2B71696   5.412  44.988   6.585
 5664POPC   C3B71697   5.536  44.699   6.880
 5664POPC   C4B71698   5.812  44.614   7.207
 5665POPC   NC371699  11.442  31.733   5.453
 5665POPC   PO471700  11.143  31.143   5.590
 5665POPC   GL171701  11.427  31.347   5.842
 5665POPC   GL271702  11.351  31.686   5.929
 5665POPC   C1A71703  11.483  31.344   6.271
 5665POPC   D2A71704  11.207  31.240   6.581
 5665POPC   C3A71705  11.444  31.268   6.938
 5665POPC   C4A71706  11.341  31.377   7.301
 5665POPC   C1B71707  11.299  31.849   6.294
 5665POPC   C2B71708  11.428  31.707   6.668
 5665POPC   C3B71709  11.237  31.882   7.005
 5665POPC   C4B71710  11.021  31.786   7.370
 5666POPC   NC371711  18.021  25.755   5.450
 5666POPC   PO471712  18.502  26.083   5.276
 5666POPC   GL171713  18.445  26.165   5.715
 5666POPC   GL271714  18.107  26.124   5.807
 5666POPC   C1A71715  18.532  26.046   6.141
 5666POPC   D2A71716  18.339  25.897   6.524
 5666POPC   C3A71717  18.413  26.170   6.891
 5666POPC   C4A71718  18.580  26.075   7.299
 5666POPC   C1B71719  17.948  25.838   6.134
 5666POPC   C2B71720  17.816  25.690   6.539
 5666POPC   C3B71721  17.958  25.770   6.949
 5666POPC   C4B71722  18.076  26.055   7.321
 5667POPC   NC371723  41.111  27.822   5.017
 5667POPC   PO471724  41.723  27.680   5.399
 5667POPC   GL171725  41.618  27.774   5.858
 5667POPC   GL271726  41.257  27.832   5.773
 5667POPC   C1A71727  41.512  27.701   6.315
 5667POPC   D2A71728  41.526  27.766   6.786
 5667POPC   C3A71729  41.663  27.612   7.220
 5667POPC   C4A71730  41.691  27.291   7.596
 5667POPC   C1B71731  41.021  27.801   6.153
 5667POPC   C2B71732  41.007  27.589   6.549
 5667POPC   C3B71733  41.023  27.678   6.989
 5667POPC   C4B71734  41.186  27.533   7.374
 5668POPC   NC371735  18.374  26.546   5.390
 5668POPC   PO471736  18.116  27.233   5.312
 5668POPC   GL171737  18.062  27.004   5.742
 5668POPC   GL271738  18.177  26.637   5.848
 5668POPC   C1A71739  17.976  26.902   6.216
 5668POPC   D2A71740  18.023  26.700   6.616
 5668POPC   C3A71741  18.057  26.971   6.957
 5668POPC   C4A71742  17.845  26.912   7.361
 5668POPC   C1B71743  18.406  26.562   6.243
 5668POPC   C2B71744  18.530  26.805   6.614
 5668POPC   C3B71745  18.509  26.680   7.019
 5668POPC   C4B71746  18.115  26.515   7.145
 5669POPC   NC371747  16.641  12.029   5.413
 5669POPC   PO471748  17.260  11.741   5.542
 5669POPC   GL171749  17.003  12.049   5.849
 5669POPC   GL271750  16.687  12.252   5.851
 5669POPC   C1A71751  16.775  12.031   6.291
 5669POPC   D2A71752  16.383  11.893   6.549
 5669POPC   C3A71753  16.527  11.892   6.996
 5669POPC   C4A71754  16.921  11.993   7.264
 5669POPC   C1B71755  16.481  12.426   6.184
 5669POPC   C2B71756  16.482  12.387   6.630
 5669POPC   C3B71757  16.565  12.372   7.095
 5669POPC   C4B71758  16.829  12.486   7.444
 5670POPC   NC371759  12.829  29.420   5.389
 5670POPC   PO471760  13.099  28.773   5.402
 5670POPC   GL171761  12.957  29.008   5.777
 5670POPC   GL271762  12.650  29.049   5.720
 5670POPC   C1A71763  13.063  29.226   6.181
 5670POPC   D2A71764  13.060  28.927   6.516
 5670POPC   C3A71765  13.166  29.032   6.910
 5670POPC   C4A71766  13.092  28.855   7.329
 5670POPC   C1B71767  12.628  28.987   6.184
 5670POPC   C2B71768  12.571  28.880   6.631
 5670POPC   C3B71769  12.680  29.051   7.040
 5670POPC   C4B71770  12.428  29.249   7.301
 5671POPC   NC371771  23.783  14.947   5.456
 5671POPC   PO471772  23.455  15.481   5.582
 5671POPC   GL171773  23.576  15.207   5.904
 5671POPC   GL271774  23.911  15.098   5.908
 5671POPC   C1A71775  23.587  15.015   6.311
 5671POPC   D2A71776  23.359  15.007   6.691
 5671POPC   C3A71777  23.601  15.178   7.016
 5671POPC   C4A71778  23.631  15.031   7.425
 5671POPC   C1B71779  23.965  15.418   6.188
 5671POPC   C2B71780  23.940  15.270   6.612
 5671POPC   C3B71781  24.128  15.276   7.005
 5671POPC   C4B71782  24.030  15.323   7.447
 5672POPC   NC371783   5.702  26.891   5.415
 5672POPC   PO471784   6.015  26.282   5.421
 5672POPC   GL171785   5.843  26.517   5.777
 5672POPC   GL271786   6.064  26.810   5.790
 5672POPC   C1A71787   5.956  26.613   6.233
 5672POPC   D2A71788   6.161  26.545   6.607
 5672POPC   C3A71789   5.929  26.669   6.952
 5672POPC   C4A71790   6.064  26.619   7.364
 5672POPC   C1B71791   5.702  27.009   6.051
 5672POPC   C2B71792   5.709  27.057   6.497
 5672POPC   C3B71793   5.567  27.040   6.929
 5672POPC   C4B71794   5.890  27.084   7.245
 5673POPC   NC371795  25.742  13.608   5.412
 5673POPC   PO471796  26.374  13.474   5.287
 5673POPC   GL171797  26.248  13.541   5.744
 5673POPC   GL271798  25.953  13.768   5.849
 5673POPC   C1A71799  26.265  13.564   6.217
 5673POPC   D2A71800  26.284  13.788   6.631
 5673POPC   C3A71801  26.189  13.564   7.008
 5673POPC   C4A71802  25.962  13.696   7.383
 5673POPC   C1B71803  25.744  13.524   6.203
 5673POPC   C2B71804  25.806  13.415   6.682
 5673POPC   C3B71805  25.575  13.508   7.084
 5673POPC   C4B71806  25.580  13.372   7.546
 5674POPC   NC371807  39.518  41.941   5.338
 5674POPC   PO471808  39.001  42.470   5.483
 5674POPC   GL171809  39.038  42.459   5.846
 5674POPC   GL271810  39.344  42.229   5.806
 5674POPC   C1A71811  39.273  42.595   6.163
 5674POPC   D2A71812  39.302  42.473   6.537
 5674POPC   C3A71813  39.232  42.640   6.908
 5674POPC   C4A71814  39.574  42.453   7.142
 5674POPC   C1B71815  39.104  42.057   6.156
 5674POPC   C2B71816  39.271  41.980   6.558
 5674POPC   C3B71817  39.196  42.117   6.978
 5674POPC   C4B71818  38.977  41.804   7.231
 5675POPC   NC371819  44.833  25.659   5.419
 5675POPC   PO471820  44.551  24.989   5.521
 5675POPC   GL171821  44.746  25.294   5.755
 5675POPC   GL271822  44.437  25.527   5.736
 5675POPC   C1A71823  44.944  25.389   6.165
 5675POPC   D2A71824   0.078  25.549   6.597
 5675POPC   C3A71825  44.951  25.263   6.920
 5675POPC   C4A71826  44.754  25.233   7.314
 5675POPC   C1B71827  44.428  25.272   6.145
 5675POPC   C2B71828  44.584  25.216   6.567
 5675POPC   C3B71829  44.395  25.326   6.978
 5675POPC   C4B71830  44.231  25.306   7.398
 5676POPC   NC371831  37.993  13.757   5.333
 5676POPC   PO471832  37.248  13.745   5.220
 5676POPC   GL171833  37.557  13.704   5.611
 5676POPC   GL271834  37.502  13.935   5.829
 5676POPC   C1A71835  37.692  13.527   6.054
 5676POPC   D2A71836  37.574  13.374   6.476
 5676POPC   C3A71837  37.786  13.410   6.875
 5676POPC   C4A71838  37.716  13.318   7.294
 5676POPC   C1B71839  37.495  14.063   6.242
 5676POPC   C2B71840  37.451  13.919   6.656
 5676POPC   C3B71841  37.635  13.857   7.049
 5676POPC   C4B71842  37.504  13.764   7.447
 5677POPC   NC371843   1.562   1.589   5.118
 5677POPC   PO471844   1.051   1.690   5.616
 5677POPC   GL171845   1.107   1.880   5.976
 5677POPC   GL271846   1.410   2.088   5.915
 5677POPC   C1A71847   0.897   1.932   6.361
 5677POPC   D2A71848   0.914   1.785   6.769
 5677POPC   C3A71849   1.001   2.055   7.052
 5677POPC   C4A71850   0.986   2.057   7.457
 5677POPC   C1B71851   1.443   2.022   6.310
 5677POPC   C2B71852   1.310   2.159   6.648
 5677POPC   C3B71853   1.514   2.108   6.975
 5677POPC   C4B71854   1.416   2.280   7.344
 5678POPC   NC371855  33.651  27.055   5.234
 5678POPC   PO471856  33.812  26.415   5.482
 5678POPC   GL171857  33.695  26.738   5.745
 5678POPC   GL271858  33.936  26.890   5.864
 5678POPC   C1A71859  33.624  26.704   6.223
 5678POPC   D2A71860  33.534  26.658   6.678
 5678POPC   C3A71861  33.852  26.641   7.001
 5678POPC   C4A71862  33.842  26.911   7.347
 5678POPC   C1B71863  34.102  26.859   6.237
 5678POPC   C2B71864  34.023  26.962   6.635
 5678POPC   C3B71865  34.242  27.032   7.023
 5678POPC   C4B71866  34.312  27.011   7.476
 5679POPC   NC371867  13.506   0.079   5.293
 5679POPC   PO471868  13.980  44.676   5.067
 5679POPC   GL171869  13.724  44.697   5.555
 5679POPC   GL271870  13.619  44.987   5.785
 5679POPC   C1A71871  13.655  44.458   5.987
 5679POPC   D2A71872  13.586  44.441   6.483
 5679POPC   C3A71873  13.888  44.556   6.849
 5679POPC   C4A71874  14.011  44.403   7.295
 5679POPC   C1B71875  13.415  44.858   6.203
 5679POPC   C2B71876  13.145  44.762   6.571
 5679POPC   C3B71877  13.134  44.853   7.012
 5679POPC   C4B71878  13.542  44.729   7.200
 5680POPC   NC371879   8.475   1.779   5.480
 5680POPC   PO471880   8.054   2.317   5.547
 5680POPC   GL171881   7.996   1.990   5.820
 5680POPC   GL271882   8.346   1.953   5.955
 5680POPC   C1A71883   7.859   2.114   6.205
 5680POPC   D2A71884   8.095   2.246   6.534
 5680POPC   C3A71885   7.913   2.137   6.910
 5680POPC   C4A71886   8.142   2.050   7.219
 5680POPC   C1B71887   8.244   1.770   6.356
 5680POPC   C2B71888   8.135   1.680   6.781
 5680POPC   C3B71889   8.312   1.566   7.157
 5680POPC   C4B71890   8.613   1.881   7.253
 5681POPC   NC371891  34.893   1.887   5.534
 5681POPC   PO471892  34.219   2.138   5.508
 5681POPC   GL171893  34.490   2.067   5.818
 5681POPC   GL271894  34.441   1.747   5.888
 5681POPC   C1A71895  34.607   2.132   6.232
 5681POPC   D2A71896  34.810   2.027   6.596
 5681POPC   C3A71897  34.631   2.152   6.997
 5681POPC   C4A71898  34.210   2.275   7.035
 5681POPC   C1B71899  34.833   1.661   6.159
 5681POPC   C2B71900  35.042   1.579   6.572
 5681POPC   C3B71901  34.885   1.714   6.984
 5681POPC   C4B71902  35.109   1.627   7.289
 5682POPC   NC371903  26.102  15.786   5.354
 5682POPC   PO471904  26.292  16.426   5.308
 5682POPC   GL171905  26.259  16.135   5.733
 5682POPC   GL271906  26.062  15.818   5.845
 5682POPC   C1A71907  26.034  16.197   6.182
 5682POPC   D2A71908  25.799  16.255   6.598
 5682POPC   C3A71909  25.914  16.087   7.000
 5682POPC   C4A71910  25.864  16.131   7.435
 5682POPC   C1B71911  25.823  15.686   6.193
 5682POPC   C2B71912  25.775  15.710   6.610
 5682POPC   C3B71913  25.812  15.565   6.998
 5682POPC   C4B71914  26.232  15.471   7.151
 5683POPC   NC371915  44.695   6.277   5.455
 5683POPC   PO471916  44.575   6.929   5.658
 5683POPC   GL171917  44.596   6.700   6.008
 5683POPC   GL271918  44.766   6.422   5.924
 5683POPC   C1A71919  44.624   6.703   6.448
 5683POPC   D2A71920  44.343   6.909   6.744
 5683POPC   C3A71921  44.558   6.803   7.098
 5683POPC   C4A71922   0.008   6.849   7.063
 5683POPC   C1B71923  44.572   6.206   6.259
 5683POPC   C2B71924  44.722   6.123   6.681
 5683POPC   C3B71925  44.633   6.287   7.093
 5683POPC   C4B71926  44.816   6.172   7.497
 5684POPC   NC371927  10.201   6.853   5.587
 5684POPC   PO471928  10.753   6.617   5.276
 5684POPC   GL171929  10.687   6.513   5.785
 5684POPC   GL271930  10.937   6.693   5.967
 5684POPC   C1A71931  10.358   6.545   6.179
 5684POPC   D2A71932  10.191   6.670   6.639
 5684POPC   C3A71933  10.372   6.414   7.022
 5684POPC   C4A71934  10.744   6.224   7.215
 5684POPC   C1B71935  10.702   6.983   6.278
 5684POPC   C2B71936  10.782   7.134   6.684
 5684POPC   C3B71937  10.532   6.899   6.968
 5684POPC   C4B71938  10.174   6.992   7.176
 5685POPC   NC371939  21.729   6.117   5.688
 5685POPC   PO471940  22.183   5.755   5.314
 5685POPC   GL171941  22.152   5.833   5.723
 5685POPC   GL271942  21.957   5.553   5.818
 5685POPC   C1A71943  22.266   5.932   6.144
 5685POPC   D2A71944  22.343   5.835   6.567
 5685POPC   C3A71945  22.012   5.947   6.858
 5685POPC   C4A71946  22.207   6.077   7.228
 5685POPC   C1B71947  21.808   5.467   6.246
 5685POPC   C2B71948  22.061   5.419   6.656
 5685POPC   C3B71949  22.141   5.506   7.091
 5685POPC   C4B71950  21.704   5.593   7.132
 5686POPC   NC371951  25.987  28.422   5.131
 5686POPC   PO471952  26.496  28.814   5.493
 5686POPC   GL171953  26.406  28.603   5.944
 5686POPC   GL271954  26.049  28.564   6.023
 5686POPC   C1A71955  26.305  28.185   6.207
 5686POPC   D2A71956  26.030  28.170   6.593
 5686POPC   C3A71957  26.269  28.145   6.952
 5686POPC   C4A71958  26.285  28.460   7.265
 5686POPC   C1B71959  25.664  28.413   6.264
 5686POPC   C2B71960  25.520  28.246   6.681
 5686POPC   C3B71961  25.754  28.220   7.070
 5686POPC   C4B71962  25.798  28.530   7.387
 5687POPC   NC371963  33.635  14.662   5.475
 5687POPC   PO471964  34.196  14.304   5.452
 5687POPC   GL171965  33.909  14.308   5.773
 5687POPC   GL271966  33.576  14.205   5.696
 5687POPC   C1A71967  33.941  14.482   6.160
 5687POPC   D2A71968  33.863  14.559   6.563
 5687POPC   C3A71969  33.811  14.225   6.831
 5687POPC   C4A71970  33.972  14.393   7.205
 5687POPC   C1B71971  33.433  14.461   6.069
 5687POPC   C2B71972  33.381  14.405   6.511
 5687POPC   C3B71973  33.463  14.624   6.908
 5687POPC   C4B71974  33.593  14.691   7.345
 5688POPC   NC371975  23.398  38.299   5.461
 5688POPC   PO471976  24.092  38.214   5.679
 5688POPC   GL171977  23.888  38.517   5.941
 5688POPC   GL271978  23.549  38.442   5.921
 5688POPC   C1A71979  23.768  38.492   6.385
 5688POPC   D2A71980  23.824  38.186   6.658
 5688POPC   C3A71981  23.586  38.174   7.024
 5688POPC   C4A71982  23.763  38.266   7.396
 5688POPC   C1B71983  23.354  38.719   6.193
 5688POPC   C2B71984  23.386  38.846   6.586
 5688POPC   C3B71985  23.366  38.662   6.961
 5688POPC   C4B71986  23.339  38.803   7.390
 5689POPC   NC371987   5.697  43.232   5.476
 5689POPC   PO471988   6.252  42.936   5.364
 5689POPC   GL171989   6.122  43.248   5.733
 5689POPC   GL271990   5.972  42.934   5.836
 5689POPC   C1A71991   5.891  43.434   6.137
 5689POPC   D2A71992   6.064  43.465   6.576
 5689POPC   C3A71993   5.848  43.412   6.988
 5689POPC   C4A71994   6.001  43.279   7.398
 5689POPC   C1B71995   6.041  42.957   6.264
 5689POPC   C2B71996   5.873  42.975   6.666
 5689POPC   C3B71997   5.896  42.889   7.094
 5689POPC   C4B71998   5.679  42.642   7.308
 5690POPC   NC371999  13.426  24.994   5.347
 5690POPC   PO472000  13.864  25.448   5.625
 5690POPC   GL172001  13.610  25.094   5.855
 5690POPC   GL272002  13.223  25.082   5.847
 5690POPC   C1A72003  13.565  25.160   6.309
 5690POPC   D2A72004  13.533  25.524   6.607
 5690POPC   C3A72005  13.480  25.408   7.028
 5690POPC   C4A72006  13.796  25.302   7.282
 5690POPC   C1B72007  13.132  24.909   6.270
 5690POPC   C2B72008  13.238  25.082   6.700
 5690POPC   C3B72009  13.456  24.914   7.073
 5690POPC   C4B72010  13.389  25.038   7.514
 5691POPC   NC372011  18.240   7.215   5.471
 5691POPC   PO472012  18.779   6.880   5.571
 5691POPC   GL172013  18.510   7.179   5.897
 5691POPC   GL272014  18.099   7.224   5.957
 5691POPC   C1A72015  18.430   7.330   6.332
 5691POPC   D2A72016  18.427   7.042   6.681
 5691POPC   C3A72017  18.472   7.235   7.097
 5691POPC   C4A72018  18.462   7.444   7.517
 5691POPC   C1B72019  17.961   7.099   6.408
 5691POPC   C2B72020  17.972   7.164   6.870
 5691POPC   C3B72021  17.998   7.420   7.238
 5691POPC   C4B72022  17.990   7.290   7.686
 5692POPC   NC372023  32.177  17.707   5.356
 5692POPC   PO472024  31.876  17.235   5.675
 5692POPC   GL172025  32.100  17.556   5.906
 5692POPC   GL272026  32.236  17.898   5.955
 5692POPC   C1A72027  32.222  17.502   6.329
 5692POPC   D2A72028  32.130  17.505   6.758
 5692POPC   C3A72029  32.433  17.411   7.070
 5692POPC   C4A72030  32.108  17.230   7.310
 5692POPC   C1B72031  32.579  17.863   6.266
 5692POPC   C2B72032  32.579  17.788   6.707
 5692POPC   C3B72033  32.315  17.929   7.047
 5692POPC   C4B72034  32.132  17.748   7.390
 5693POPC   NC372035  33.550  10.051   5.453
 5693POPC   PO472036  34.077   9.565   5.547
 5693POPC   GL172037  33.790   9.656   5.833
 5693POPC   GL272038  33.767  10.008   5.924
 5693POPC   C1A72039  33.934   9.566   6.236
 5693POPC   D2A72040  33.771   9.529   6.598
 5693POPC   C3A72041  33.973   9.725   6.963
 5693POPC   C4A72042  34.008   9.985   7.330
 5693POPC   C1B72043  33.459   9.788   6.188
 5693POPC   C2B72044  33.284   9.652   6.542
 5693POPC   C3B72045  33.437   9.672   6.956
 5693POPC   C4B72046  33.454   9.956   7.286
 5694POPC   NC372047  19.693   0.277   5.414
 5694POPC   PO472048  20.082   0.758   5.548
 5694POPC   GL172049  19.990   0.384   5.832
 5694POPC   GL272050  19.627   0.345   5.924
 5694POPC   C1A72051  20.039   0.188   6.247
 5694POPC   D2A72052  19.888   0.247   6.703
 5694POPC   C3A72053  19.844   0.693   6.877
 5694POPC   C4A72054  20.058   0.815   7.251
 5694POPC   C1B72055  19.702   0.553   6.321
 5694POPC   C2B72056  19.419   0.509   6.634
 5694POPC   C3B72057  19.462   0.393   7.032
 5694POPC   C4B72058  19.599   0.583   7.349
 5695POPC   NC372059  10.544  32.205   5.373
 5695POPC   PO472060  11.157  32.095   5.435
 5695POPC   GL172061  10.820  32.187   5.799
 5695POPC   GL272062  10.404  32.163   5.854
 5695POPC   C1A72063  10.718  31.955   6.191
 5695POPC   D2A72064  10.466  31.966   6.595
 5695POPC   C3A72065  10.709  31.969   6.994
 5695POPC   C4A72066  10.593  32.053   7.432
 5695POPC   C1B72067  10.456  32.403   6.242
 5695POPC   C2B72068  10.287  32.551   6.640
 5695POPC   C3B72069  10.372  32.367   7.049
 5695POPC   C4B72070  10.111  32.201   7.390
 5696POPC   NC372071  23.168   0.688   5.138
 5696POPC   PO472072  23.774   0.402   5.411
 5696POPC   GL172073  23.682   0.314   5.823
 5696POPC   GL272074  23.348   0.116   5.808
 5696POPC   C1A72075  23.825   0.541   6.187
 5696POPC   D2A72076  23.668   0.645   6.602
 5696POPC   C3A72077  23.952   0.590   6.934
 5696POPC   C4A72078  23.834   0.477   7.306
 5696POPC   C1B72079  23.354   0.295   6.249
 5696POPC   C2B72080  23.220   0.313   6.687
 5696POPC   C3B72081  23.412   0.404   7.061
 5696POPC   C4B72082  23.351   0.275   7.517
 5697POPC   NC372083  36.027  38.418   5.540
 5697POPC   PO472084  36.515  38.810   5.533
 5697POPC   GL172085  36.295  38.636   5.928
 5697POPC   GL272086  36.293  38.241   5.950
 5697POPC   C1A72087  35.884  38.541   6.173
 5697POPC   D2A72088  35.717  38.217   6.467
 5697POPC   C3A72089  35.954  38.289   6.864
 5697POPC   C4A72090  36.094  38.577   7.227
 5697POPC   C1B72091  36.521  38.363   6.313
 5697POPC   C2B72092  36.463  38.420   6.753
 5697POPC   C3B72093  36.498  38.252   7.130
 5697POPC   C4B72094  36.145  38.078   7.295
 5698POPC   NC372095  35.276  34.243   5.419
 5698POPC   PO472096  35.232  34.914   5.538
 5698POPC   GL172097  35.276  34.589   5.784
 5698POPC   GL272098  34.934  34.455   5.744
 5698POPC   C1A72099  35.530  34.356   6.096
 5698POPC   D2A72100  35.548  34.226   6.539
 5698POPC   C3A72101  35.778  34.456   6.877
 5698POPC   C4A72102  35.538  34.552   7.251
 5698POPC   C1B72103  35.022  34.446   6.195
 5698POPC   C2B72104  35.006  34.288   6.612
 5698POPC   C3B72105  35.085  34.421   7.026
 5698POPC   C4B72106  35.008  34.755   7.281
 5699POPC   NC372107  12.801  27.683   5.386
 5699POPC   PO472108  13.303  27.258   5.464
 5699POPC   GL172109  13.093  27.521   5.774
 5699POPC   GL272110  12.724  27.438   5.812
 5699POPC   C1A72111  12.987  27.698   6.169
 5699POPC   D2A72112  12.795  27.521   6.534
 5699POPC   C3A72113  12.847  27.793   6.877
 5699POPC   C4A72114  13.028  27.745   7.274
 5699POPC   C1B72115  12.461  27.356   6.163
 5699POPC   C2B72116  12.310  27.238   6.583
 5699POPC   C3B72117  12.491  27.381   6.962
 5699POPC   C4B72118  12.677  27.397   7.347
 5700POPC   NC372119  10.066  37.153   5.111
 5700POPC   PO472120   9.524  36.831   5.428
 5700POPC   GL172121   9.616  36.876   5.840
 5700POPC   GL272122   9.423  36.588   5.868
 5700POPC   C1A72123   9.763  37.085   6.261
 5700POPC   D2A72124   9.791  36.983   6.704
 5700POPC   C3A72125  10.037  37.069   7.076
 5700POPC   C4A72126   9.976  37.025   7.515
 5700POPC   C1B72127   9.445  36.663   6.269
 5700POPC   C2B72128   9.485  36.573   6.646
 5700POPC   C3B72129   9.381  36.767   7.004
 5700POPC   C4B72130   9.564  36.765   7.383
 5701POPC   NC372131  44.808  32.983   5.354
 5701POPC   PO472132  44.182  33.231   5.354
 5701POPC   GL172133  44.426  32.963   5.756
 5701POPC   GL272134  44.805  32.927   5.854
 5701POPC   C1A72135  44.498  32.923   6.270
 5701POPC   D2A72136  44.723  33.111   6.646
 5701POPC   C3A72137  44.667  33.075   7.102
 5701POPC   C4A72138  44.860  33.270   7.496
 5701POPC   C1B72139   0.017  32.864   6.259
 5701POPC   C2B72140  44.877  32.614   6.606
 5701POPC   C3B72141  44.729  32.545   7.033
 5701POPC   C4B72142  44.909  32.756   7.414
 5702POPC   NC372143   8.098  30.262   5.391
 5702POPC   PO472144   8.342  29.623   5.285
 5702POPC   GL172145   8.297  29.863   5.693
 5702POPC   GL272146   8.507  30.184   5.733
 5702POPC   C1A72147   8.239  29.744   6.149
 5702POPC   D2A72148   8.290  29.793   6.618
 5702POPC   C3A72149   7.887  29.811   6.870
 5702POPC   C4A72150   7.784  29.871   7.311
 5702POPC   C1B72151   8.497  30.179   6.198
 5702POPC   C2B72152   8.610  30.324   6.616
 5702POPC   C3B72153   8.505  30.207   7.032
 5702POPC   C4B72154   8.281  29.852   7.204
 5703POPC   NC372155  23.480  15.896   5.399
 5703POPC   PO472156  24.037  16.201   5.449
 5703POPC   GL172157  23.734  16.128   5.779
 5703POPC   GL272158  23.389  16.264   5.758
 5703POPC   C1A72159  23.732  15.910   6.150
 5703POPC   D2A72160  23.931  15.794   6.531
 5703POPC   C3A72161  23.644  15.736   6.871
 5703POPC   C4A72162  23.886  15.758   7.239
 5703POPC   C1B72163  23.439  16.372   6.186
 5703POPC   C2B72164  23.534  16.170   6.550
 5703POPC   C3B72165  23.521  16.310   6.937
 5703POPC   C4B72166  23.514  16.091   7.241
 5704POPC   NC372167   9.304  32.530   5.596
 5704POPC   PO472168   8.631  32.711   5.509
 5704POPC   GL172169   8.719  32.354   5.765
 5704POPC   GL272170   9.008  32.114   5.778
 5704POPC   C1A72171   8.855  32.359   6.192
 5704POPC   D2A72172   8.855  32.488   6.577
 5704POPC   C3A72173   8.951  32.201   6.847
 5704POPC   C4A72174   8.839  32.275   7.247
 5704POPC   C1B72175   9.086  31.892   6.214
 5704POPC   C2B72176   9.276  31.847   6.637
 5704POPC   C3B72177   9.202  31.841   7.098
 5704POPC   C4B72178   9.202  31.835   7.551
 5705POPC   NC372179  32.598  14.229   5.491
 5705POPC   PO472180  33.182  14.589   5.421
 5705POPC   GL172181  33.073  14.315   5.728
 5705POPC   GL272182  33.024  13.966   5.757
 5705POPC   C1A72183  32.891  14.443   6.086
 5705POPC   D2A72184  32.705  14.370   6.460
 5705POPC   C3A72185  32.947  14.554   6.750
 5705POPC   C4A72186  33.028  14.511   7.173
 5705POPC   C1B72187  33.158  14.037   6.214
 5705POPC   C2B72188  33.041  14.045   6.679
 5705POPC   C3B72189  33.116  14.007   7.117
 5705POPC   C4B72190  33.486  14.205   7.230
 5706POPC   NC372191  31.075  37.018   5.596
 5706POPC   PO472192  31.715  36.814   5.428
 5706POPC   GL172193  31.578  37.018   5.757
 5706POPC   GL272194  31.422  36.738   5.871
 5706POPC   C1A72195  31.727  37.124   6.154
 5706POPC   D2A72196  31.636  36.942   6.579
 5706POPC   C3A72197  31.663  37.215   6.952
 5706POPC   C4A72198  31.621  37.124   7.389
 5706POPC   C1B72199  31.255  36.951   6.210
 5706POPC   C2B72200  31.080  36.808   6.563
 5706POPC   C3B72201  31.230  36.944   6.931
 5706POPC   C4B72202  31.186  36.777   7.300
 5707POPC   NC372203  15.604   8.416   5.435
 5707POPC   PO472204  16.064   8.012   5.242
 5707POPC   GL172205  16.042   8.177   5.683
 5707POPC   GL272206  16.007   7.900   5.885
 5707POPC   C1A72207  15.831   8.321   6.113
 5707POPC   D2A72208  15.674   8.213   6.549
 5707POPC   C3A72209  15.785   8.355   6.958
 5707POPC   C4A72210  15.994   8.345   7.364
 5707POPC   C1B72211  16.018   7.742   6.293
 5707POPC   C2B72212  16.005   7.851   6.728
 5707POPC   C3B72213  15.846   7.879   7.151
 5707POPC   C4B72214  15.830   7.903   7.614
 5708POPC   NC372215  41.598  31.227   5.326
 5708POPC   PO472216  42.049  31.714   5.413
 5708POPC   GL172217  41.761  31.666   5.789
 5708POPC   GL272218  41.554  31.347   5.834
 5708POPC   C1A72219  41.653  31.720   6.249
 5708POPC   D2A72220  41.798  31.664   6.691
 5708POPC   C3A72221  41.523  31.850   7.014
 5708POPC   C4A72222  41.305  31.574   7.274
 5708POPC   C1B72223  41.599  31.214   6.270
 5708POPC   C2B72224  41.629  31.114   6.687
 5708POPC   C3B72225  41.682  31.323   7.090
 5708POPC   C4B72226  41.723  31.201   7.569
 5709POPC   NC372227   4.571  44.925   5.613
 5709POPC   PO472228   4.308  44.388   5.241
 5709POPC   GL172229   4.262  44.508   5.737
 5709POPC   GL272230   4.205  44.835   5.946
 5709POPC   C1A72231   4.415  44.472   6.204
 5709POPC   D2A72232   4.589  44.610   6.593
 5709POPC   C3A72233   4.432  44.561   6.987
 5709POPC   C4A72234   4.669  44.385   7.302
 5709POPC   C1B72235   4.357   0.026   6.317
 5709POPC   C2B72236   4.349   0.041   6.747
 5709POPC   C3B72237   4.173  44.988   7.109
 5709POPC   C4B72238   4.248   0.102   7.485
 5710POPC   NC372239  22.781  22.553   5.444
 5710POPC   PO472240  23.272  22.884   5.323
 5710POPC   GL172241  23.145  22.960   5.746
 5710POPC   GL272242  23.344  23.260   5.811
 5710POPC   C1A72243  22.907  22.935   6.141
 5710POPC   D2A72244  22.986  22.991   6.597
 5710POPC   C3A72245  22.795  22.883   6.997
 5710POPC   C4A72246  22.925  22.766   7.405
 5710POPC   C1B72247  23.369  23.142   6.254
 5710POPC   C2B72248  23.490  23.053   6.674
 5710POPC   C3B72249  23.310  23.110   7.092
 5710POPC   C4B72250  23.265  23.137   7.521
 5711POPC   NC372251  36.979  38.782   5.555
 5711POPC   PO472252  37.313  38.218   5.421
 5711POPC   GL172253  37.029  38.229   5.788
 5711POPC   GL272254  36.788  38.484   5.905
 5711POPC   C1A72255  37.097  38.276   6.252
 5711POPC   D2A72256  36.947  38.477   6.603
 5711POPC   C3A72257  36.989  38.250   6.962
 5711POPC   C4A72258  36.939  38.194   7.403
 5711POPC   C1B72259  36.725  38.805   6.247
 5711POPC   C2B72260  36.655  38.886   6.704
 5711POPC   C3B72261  36.793  38.722   7.074
 5711POPC   C4B72262  37.226  38.638   7.183
 5712POPC   NC372263  37.010  18.192   5.160
 5712POPC   PO472264  36.626  18.564   5.654
 5712POPC   GL172265  36.981  18.603   5.798
 5712POPC   GL272266  37.076  18.272   5.857
 5712POPC   C1A72267  37.149  18.624   6.208
 5712POPC   D2A72268  37.124  18.326   6.537
 5712POPC   C3A72269  37.098  18.588   6.918
 5712POPC   C4A72270  36.826  18.514   7.284
 5712POPC   C1B72271  36.826  18.029   6.194
 5712POPC   C2B72272  36.694  17.984   6.598
 5712POPC   C3B72273  36.902  18.092   6.974
 5712POPC   C4B72274  36.691  17.972   7.312
 5713POPC   NC372275  31.172  11.252   5.587
 5713POPC   PO472276  31.831  11.002   5.493
 5713POPC   GL172277  31.662  11.335   5.833
 5713POPC   GL272278  31.325  11.539   5.955
 5713POPC   C1A72279  31.608  11.255   6.276
 5713POPC   D2A72280  31.783  11.083   6.646
 5713POPC   C3A72281  31.653  11.146   7.052
 5713POPC   C4A72282  31.678  11.518   7.211
 5713POPC   C1B72283  31.117  11.411   6.317
 5713POPC   C2B72284  31.318  11.366   6.714
 5713POPC   C3B72285  31.180  11.343   7.127
 5713POPC   C4B72286  31.233  11.601   7.466
 5714POPC   NC372287  14.399   1.483   5.371
 5714POPC   PO472288  14.156   0.914   5.611
 5714POPC   GL172289  14.371   1.205   5.832
 5714POPC   GL272290  14.119   1.450   5.809
 5714POPC   C1A72291  14.605   1.083   6.195
 5714POPC   D2A72292  14.851   1.094   6.571
 5714POPC   C3A72293  14.618   1.337   6.882
 5714POPC   C4A72294  14.664   1.204   7.280
 5714POPC   C1B72295  14.010   1.286   6.207
 5714POPC   C2B72296  14.074   1.061   6.572
 5714POPC   C3B72297  13.877   1.047   6.963
 5714POPC   C4B72298  14.146   1.333   7.171
 5715POPC   NC372299  41.864  43.424   5.424
 5715POPC   PO472300  41.330  43.025   5.495
 5715POPC   GL172301  41.412  43.079   5.942
 5715POPC   GL272302  41.758  43.094   5.863
 5715POPC   C1A72303  41.290  43.043   6.408
 5715POPC   D2A72304  41.373  43.021   6.868
 5715POPC   C3A72305  41.715  42.809   7.051
 5715POPC   C4A72306  41.771  42.902   7.487
 5715POPC   C1B72307  41.764  43.288   6.291
 5715POPC   C2B72308  41.922  43.298   6.719
 5715POPC   C3B72309  41.806  43.291   7.141
 5715POPC   C4B72310  41.405  43.308   7.342
 5716POPC   NC372311  36.095  34.280   5.536
 5716POPC   PO472312  35.942  34.878   5.448
 5716POPC   GL172313  35.909  34.737   5.876
 5716POPC   GL272314  36.259  34.597   5.921
 5716POPC   C1A72315  35.897  34.637   6.335
 5716POPC   D2A72316  36.242  34.522   6.599
 5716POPC   C3A72317  36.224  34.739   6.968
 5716POPC   C4A72318  35.983  34.765   7.325
 5716POPC   C1B72319  36.182  34.209   6.189
 5716POPC   C2B72320  36.032  34.052   6.601
 5716POPC   C3B72321  36.231  34.163   6.980
 5716POPC   C4B72322  36.114  34.248   7.365
 5717POPC   NC372323  36.255  12.510   5.487
 5717POPC   PO472324  36.069  13.071   5.512
 5717POPC   GL172325  36.039  12.899   5.918
 5717POPC   GL272326  36.267  12.614   5.978
 5717POPC   C1A72327  36.154  13.090   6.339
 5717POPC   D2A72328  36.123  13.306   6.765
 5717POPC   C3A72329  36.182  13.008   7.115
 5717POPC   C4A72330  36.592  12.776   7.178
 5717POPC   C1B72331  35.981  12.588   6.313
 5717POPC   C2B72332  36.187  12.675   6.695
 5717POPC   C3B72333  36.197  12.484   7.072
 5717POPC   C4B72334  35.985  12.610   7.440
 5718POPC   NC372335  44.581  21.597   5.421
 5718POPC   PO472336   0.122  21.157   5.474
 5718POPC   GL172337   0.165  21.378   5.906
 5718POPC   GL272338  44.938  21.603   5.815
 5718POPC   C1A72339  44.974  21.368   6.360
 5718POPC   D2A72340  44.540  21.226   6.570
 5718POPC   C3A72341  44.614  21.112   6.998
 5718POPC   C4A72342   0.052  21.157   7.131
 5718POPC   C1B72343   0.004  21.842   6.160
 5718POPC   C2B72344  44.890  21.892   6.563
 5718POPC   C3B72345  44.812  21.584   6.857
 5718POPC   C4B72346  44.674  21.548   7.279
 5719POPC   NC372347  43.441   9.210   5.624
 5719POPC   PO472348  43.025   8.885   5.146
 5719POPC   GL172349  42.994   8.916   5.608
 5719POPC   GL272350  43.262   8.677   5.668
 5719POPC   C1A72351  42.959   9.012   6.084
 5719POPC   D2A72352  42.807   9.071   6.551
 5719POPC   C3A72353  42.899   9.222   6.994
 5719POPC   C4A72354  42.923   8.941   7.366
 5719POPC   C1B72355  43.313   8.603   6.103
 5719POPC   C2B72356  43.184   8.744   6.493
 5719POPC   C3B72357  43.090   8.732   6.918
 5719POPC   C4B72358  43.404   8.771   7.238
 5720POPC   NC372359  32.922  28.379   5.656
 5720POPC   PO472360  33.530  28.506   5.440
 5720POPC   GL172361  33.407  28.314   5.905
 5720POPC   GL272362  33.070  28.168   6.088
 5720POPC   C1A72363  33.460  28.236   6.382
 5720POPC   D2A72364  33.141  28.295   6.650
 5720POPC   C3A72365  33.194  28.263   7.066
 5720POPC   C4A72366  32.950  28.078   7.355
 5720POPC   C1B72367  32.721  28.416   6.316
 5720POPC   C2B72368  32.558  28.625   6.689
 5720POPC   C3B72369  32.630  28.699   7.119
 5720POPC   C4B72370  32.596  28.431   7.485
 5721POPC   NC372371  32.997  43.579   5.392
 5721POPC   PO472372  33.282  42.966   5.576
 5721POPC   GL172373  32.982  43.190   5.919
 5721POPC   GL272374  32.597  43.260   6.039
 5721POPC   C1A72375  32.957  43.192   6.374
 5721POPC   D2A72376  33.242  43.374   6.631
 5721POPC   C3A72377  33.093  43.171   6.961
 5721POPC   C4A72378  33.154  43.020   7.317
 5721POPC   C1B72379  32.553  42.837   6.203
 5721POPC   C2B72380  32.511  42.763   6.633
 5721POPC   C3B72381  32.554  43.144   6.863
 5721POPC   C4B72382  32.659  43.147   7.272
 5722POPC   NC372383  22.397   0.225   5.558
 5722POPC   PO472384  21.899   0.747   5.513
 5722POPC   GL172385  22.138   0.569   5.805
 5722POPC   GL272386  21.919   0.250   5.733
 5722POPC   C1A72387  22.369   0.593   6.231
 5722POPC   D2A72388  22.160   0.544   6.613
 5722POPC   C3A72389  22.293   0.735   6.976
 5722POPC   C4A72390  22.113   0.622   7.314
 5722POPC   C1B72391  21.940   0.303   6.171
 5722POPC   C2B72392  22.108   0.051   6.469
 5722POPC   C3B72393  22.155   0.117   6.903
 5722POPC   C4B72394  22.218  44.813   7.177
 5723POPC   NC372395  37.531  29.902   5.355
 5723POPC   PO472396  38.174  29.841   5.675
 5723POPC   GL172397  37.802  29.798   5.769
 5723POPC   GL272398  37.694  30.079   5.846
 5723POPC   C1A72399  37.593  29.624   6.111
 5723POPC   D2A72400  37.808  29.557   6.506
 5723POPC   C3A72401  37.577  29.564   6.889
 5723POPC   C4A72402  37.746  29.726   7.254
 5723POPC   C1B72403  37.891  30.021   6.253
 5723POPC   C2B72404  37.723  30.059   6.666
 5723POPC   C3B72405  37.612  30.192   7.084
 5723POPC   C4B72406  37.926  30.203   7.413
 5724POPC   NC372407  36.493  10.501   4.790
 5724POPC   PO472408  36.816  10.388   5.356
 5724POPC   GL172409  36.771  10.391   5.780
 5724POPC   GL272410  36.743  10.767   5.845
 5724POPC   C1A72411  36.951  10.411   6.171
 5724POPC   D2A72412  36.954  10.817   6.394
 5724POPC   C3A72413  36.984  10.708   6.799
 5724POPC   C4A72414  36.925  10.754   7.260
 5724POPC   C1B72415  36.516  10.645   6.201
 5724POPC   C2B72416  36.615  10.410   6.561
 5724POPC   C3B72417  36.542  10.502   6.960
 5724POPC   C4B72418  36.431  10.771   7.286
 5725POPC   NC372419  29.291  23.396   5.464
 5725POPC   PO472420  28.901  23.992   5.425
 5725POPC   GL172421  29.021  23.804   5.789
 5725POPC   GL272422  28.848  23.489   5.852
 5725POPC   C1A72423  28.837  23.920   6.154
 5725POPC   D2A72424  28.776  23.855   6.564
 5725POPC   C3A72425  29.137  23.917   6.808
 5725POPC   C4A72426  29.083  23.867   7.231
 5725POPC   C1B72427  29.020  23.448   6.265
 5725POPC   C2B72428  29.330  23.468   6.586
 5725POPC   C3B72429  29.166  23.404   6.991
 5725POPC   C4B72430  29.169  23.362   7.451
 5726POPC   NC372431  34.168  28.833   5.702
 5726POPC   PO472432  34.157  28.299   5.260
 5726POPC   GL172433  34.060  28.147   5.689
 5726POPC   GL272434  33.897  28.426   5.775
 5726POPC   C1A72435  33.886  28.120   6.152
 5726POPC   D2A72436  33.951  28.302   6.572
 5726POPC   C3A72437  33.693  28.131   6.907
 5726POPC   C4A72438  33.901  28.255   7.300
 5726POPC   C1B72439  33.773  28.624   6.201
 5726POPC   C2B72440  33.546  28.695   6.591
 5726POPC   C3B72441  33.639  28.628   7.008
 5726POPC   C4B72442  33.488  28.535   7.379
 5727POPC   NC372443  33.558  33.966   5.088
 5727POPC   PO472444  34.045  33.628   5.497
 5727POPC   GL172445  33.793  33.882   5.790
 5727POPC   GL272446  34.046  34.002   5.956
 5727POPC   C1A72447  33.669  33.796   6.232
 5727POPC   D2A72448  33.628  33.496   6.553
 5727POPC   C3A72449  33.605  33.678   6.947
 5727POPC   C4A72450  33.531  33.458   7.305
 5727POPC   C1B72451  34.207  33.867   6.280
 5727POPC   C2B72452  34.015  33.845   6.644
 5727POPC   C3B72453  34.007  34.007   7.015
 5727POPC   C4B72454  33.898  33.810   7.364
 5728POPC   NC372455  34.845  26.880   5.437
 5728POPC   PO472456  34.197  26.803   5.453
 5728POPC   GL172457  34.446  26.779   5.792
 5728POPC   GL272458  34.568  27.066   5.852
 5728POPC   C1A72459  34.592  26.735   6.227
 5728POPC   D2A72460  34.435  26.658   6.608
 5728POPC   C3A72461  34.735  26.635   6.888
 5728POPC   C4A72462  34.759  26.858   7.263
 5728POPC   C1B72463  34.842  27.242   6.145
 5728POPC   C2B72464  34.988  26.982   6.468
 5728POPC   C3B72465  35.006  27.083   6.877
 5728POPC   C4B72466  35.091  27.249   7.277
 5729POPC   NC372467  15.239   4.774   5.484
 5729POPC   PO472468  15.052   4.085   5.446
 5729POPC   GL172469  15.160   4.333   5.813
 5729POPC   GL272470  14.940   4.570   5.918
 5729POPC   C1A72471  15.314   4.423   6.254
 5729POPC   D2A72472  15.491   4.229   6.568
 5729POPC   C3A72473  15.412   4.413   6.935
 5729POPC   C4A72474  15.389   4.328   7.348
 5729POPC   C1B72475  14.837   4.271   6.276
 5729POPC   C2B72476  14.982   4.127   6.689
 5729POPC   C3B72477  14.947   4.280   7.092
 5729POPC   C4B72478  14.943   4.567   7.425
 5730POPC   NC372479  20.157   7.292   5.531
 5730POPC   PO472480  19.509   7.542   5.414
 5730POPC   GL172481  19.772   7.453   5.833
 5730POPC   GL272482  20.132   7.612   5.930
 5730POPC   C1A72483  19.910   7.254   6.248
 5730POPC   D2A72484  19.690   7.189   6.668
 5730POPC   C3A72485  19.699   7.268   7.102
 5730POPC   C4A72486  19.455   7.562   7.331
 5730POPC   C1B72487  20.336   7.527   6.362
 5730POPC   C2B72488  20.181   7.449   6.807
 5730POPC   C3B72489  20.122   7.540   7.288
 5730POPC   C4B72490  20.212   7.922   7.550
 5731POPC   NC372491   9.353  15.866   5.440
 5731POPC   PO472492   8.779  16.246   5.303
 5731POPC   GL172493   8.822  16.050   5.775
 5731POPC   GL272494   9.057  15.784   5.854
 5731POPC   C1A72495   8.612  15.839   6.177
 5731POPC   D2A72496   8.624  15.657   6.638
 5731POPC   C3A72497   8.725  15.935   7.021
 5731POPC   C4A72498   9.086  15.806   7.289
 5731POPC   C1B72499   9.099  15.960   6.316
 5731POPC   C2B72500   9.173  16.021   6.799
 5731POPC   C3B72501   9.423  16.163   7.185
 5731POPC   C4B72502   9.369  16.111   7.646
 5732POPC   NC372503  11.865   6.222   5.570
 5732POPC   PO472504  12.216   5.655   5.278
 5732POPC   GL172505  12.104   5.774   5.703
 5732POPC   GL272506  11.728   5.735   5.613
 5732POPC   C1A72507  12.148   5.984   6.159
 5732POPC   D2A72508  12.187   6.312   6.543
 5732POPC   C3A72509  12.117   6.162   6.986
 5732POPC   C4A72510  12.286   5.805   7.240
 5732POPC   C1B72511  11.723   5.700   6.042
 5732POPC   C2B72512  11.769   5.747   6.485
 5732POPC   C3B72513  11.842   5.724   6.928
 5732POPC   C4B72514  11.626   6.071   7.094
 5733POPC   NC372515   6.122  37.913   5.654
 5733POPC   PO472516   5.711  38.461   5.556
 5733POPC   GL172517   5.660  38.200   5.897
 5733POPC   GL272518   6.009  38.299   5.961
 5733POPC   C1A72519   5.714  38.158   6.356
 5733POPC   D2A72520   6.007  38.437   6.619
 5733POPC   C3A72521   5.799  38.545   6.996
 5733POPC   C4A72522   5.475  38.264   7.106
 5733POPC   C1B72523   6.228  38.069   6.281
 5733POPC   C2B72524   6.269  37.967   6.725
 5733POPC   C3B72525   6.188  38.200   7.089
 5733POPC   C4B72526   6.096  38.118   7.527
 5734POPC   NC372527   8.115  26.341   5.474
 5734POPC   PO472528   8.750  26.170   5.307
 5734POPC   GL172529   8.498  26.056   5.694
 5734POPC   GL272530   8.307  25.719   5.634
 5734POPC   C1A72531   8.257  26.195   6.089
 5734POPC   D2A72532   8.281  26.343   6.515
 5734POPC   C3A72533   8.071  26.110   6.824
 5734POPC   C4A72534   8.066  25.964   7.215
 5734POPC   C1B72535   8.441  25.685   6.070
 5734POPC   C2B72536   8.315  25.828   6.462
 5734POPC   C3B72537   8.372  25.700   6.892
 5734POPC   C4B72538   8.384  25.571   7.328
 5735POPC   NC372539   2.548   2.924   5.448
 5735POPC   PO472540   2.692   2.338   5.591
 5735POPC   GL172541   2.803   2.714   5.856
 5735POPC   GL272542   2.528   2.953   5.950
 5735POPC   C1A72543   2.990   2.855   6.243
 5735POPC   D2A72544   2.945   2.989   6.685
 5735POPC   C3A72545   2.949   2.630   6.945
 5735POPC   C4A72546   2.578   2.403   7.115
 5735POPC   C1B72547   2.466   2.907   6.381
 5735POPC   C2B72548   2.433   3.118   6.756
 5735POPC   C3B72549   2.636   2.996   7.119
 5735POPC   C4B72550   2.690   3.038   7.544
 5736POPC   NC372551  40.700  15.518   5.409
 5736POPC   PO472552  40.878  14.840   5.489
 5736POPC   GL172553  40.874  15.176   5.775
 5736POPC   GL272554  40.514  15.163   5.731
 5736POPC   C1A72555  40.998  15.305   6.211
 5736POPC   D2A72556  40.905  15.449   6.650
 5736POPC   C3A72557  40.945  15.147   7.011
 5736POPC   C4A72558  40.869  15.099   7.463
 5736POPC   C1B72559  40.480  15.381   6.112
 5736POPC   C2B72560  40.373  15.203   6.508
 5736POPC   C3B72561  40.472  15.301   6.895
 5736POPC   C4B72562  40.490  15.384   7.273
 5737POPC   NC372563  44.299  24.574   5.504
 5737POPC   PO472564  43.703  24.977   5.423
 5737POPC   GL172565  43.815  24.692   5.800
 5737POPC   GL272566  44.053  24.396   5.905
 5737POPC   C1A72567  43.614  24.478   6.174
 5737POPC   D2A72568  43.710  24.499   6.627
 5737POPC   C3A72569  43.563  24.384   7.046
 5737POPC   C4A72570  43.772  24.504   7.450
 5737POPC   C1B72571  44.141  24.406   6.298
 5737POPC   C2B72572  44.166  24.279   6.672
 5737POPC   C3B72573  44.088  24.418   7.027
 5737POPC   C4B72574  44.272  24.299   7.378
 5738POPC   NC372575   0.079   8.224   5.597
 5738POPC   PO472576   0.642   8.534   5.547
 5738POPC   GL172577   0.517   8.361   5.944
 5738POPC   GL272578   0.412   8.007   5.911
 5738POPC   C1A72579   0.505   8.506   6.388
 5738POPC   D2A72580   0.402   8.427   6.807
 5738POPC   C3A72581   0.615   8.590   7.146
 5738POPC   C4A72582   0.420   8.660   7.510
 5738POPC   C1B72583   0.240   8.068   6.310
 5738POPC   C2B72584   0.407   7.945   6.701
 5738POPC   C3B72585   0.287   7.982   7.099
 5738POPC   C4B72586   0.411   7.670   7.426
 5739POPC   NC372587  27.587   9.428   5.503
 5739POPC   PO472588  27.606  10.121   5.483
 5739POPC   GL172589  27.618   9.847   5.822
 5739POPC   GL272590  27.270   9.749   5.808
 5739POPC   C1A72591  27.531   9.805   6.259
 5739POPC   D2A72592  27.713   9.670   6.640
 5739POPC   C3A72593  27.543   9.817   7.004
 5739POPC   C4A72594  27.816   9.864   7.348
 5739POPC   C1B72595  27.216   9.410   6.124
 5739POPC   C2B72596  27.346   9.321   6.561
 5739POPC   C3B72597  27.270   9.378   7.018
 5739POPC   C4B72598  27.132   9.520   7.458
 5740POPC   NC372599   0.079  18.118   5.521
 5740POPC   PO472600  44.490  18.248   5.403
 5740POPC   GL172601  44.593  18.339   5.822
 5740POPC   GL272602  44.749  18.073   5.912
 5740POPC   C1A72603  44.587  18.413   6.269
 5740POPC   D2A72604  44.503  18.595   6.664
 5740POPC   C3A72605  44.588  18.361   7.034
 5740POPC   C4A72606  44.406  18.289   7.414
 5740POPC   C1B72607   0.048  18.147   6.236
 5740POPC   C2B72608  44.908  18.193   6.660
 5740POPC   C3B72609  44.756  17.855   6.902
 5740POPC   C4B72610  44.594  17.788   7.323
 5741POPC   NC372611  30.218   1.466   5.433
 5741POPC   PO472612  29.622   1.197   5.232
 5741POPC   GL172613  29.721   1.278   5.736
 5741POPC   GL272614  30.078   1.291   5.899
 5741POPC   C1A72615  29.710   1.167   6.205
 5741POPC   D2A72616  29.938   1.093   6.593
 5741POPC   C3A72617  30.119   0.935   6.983
 5741POPC   C4A72618  29.879   0.971   7.376
 5741POPC   C1B72619  30.163   1.510   6.284
 5741POPC   C2B72620  29.956   1.581   6.692
 5741POPC   C3B72621  29.967   1.440   7.127
 5741POPC   C4B72622  30.289   1.275   7.369
 5742POPC   NC372623  14.912  36.813   5.419
 5742POPC   PO472624  14.358  36.955   5.153
 5742POPC   GL172625  14.457  36.888   5.671
 5742POPC   GL272626  14.655  36.593   5.825
 5742POPC   C1A72627  14.143  36.897   6.058
 5742POPC   D2A72628  14.172  37.180   6.426
 5742POPC   C3A72629  14.144  37.071   6.873
 5742POPC   C4A72630  14.481  37.118   7.140
 5742POPC   C1B72631  14.588  36.807   6.230
 5742POPC   C2B72632  14.311  36.694   6.578
 5742POPC   C3B72633  14.453  36.636   7.014
 5742POPC   C4B72634  14.492  36.725   7.463
 5743POPC   NC372635  18.582  32.125   5.106
 5743POPC   PO472636  19.149  32.332   5.418
 5743POPC   GL172637  19.164  32.066   5.776
 5743POPC   GL272638  18.983  32.350   5.901
 5743POPC   C1A72639  19.068  31.988   6.229
 5743POPC   D2A72640  19.063  32.182   6.618
 5743POPC   C3A72641  19.011  31.943   6.987
 5743POPC   C4A72642  19.136  32.175   7.344
 5743POPC   C1B72643  18.835  32.500   6.261
 5743POPC   C2B72644  18.661  32.505   6.653
 5743POPC   C3B72645  18.744  32.375   7.048
 5743POPC   C4B72646  18.807  32.540   7.451
 5744POPC   NC372647   0.591  38.745   5.496
 5744POPC   PO472648  44.981  38.550   5.422
 5744POPC   GL172649   0.211  38.602   5.846
 5744POPC   GL272650   0.563  38.452   5.909
 5744POPC   C1A72651   0.202  38.472   6.303
 5744POPC   D2A72652  44.943  38.516   6.692
 5744POPC   C3A72653   0.154  38.609   7.066
 5744POPC   C4A72654   0.346  38.832   7.414
 5744POPC   C1B72655   0.769  38.497   6.308
 5744POPC   C2B72656   0.563  38.446   6.708
 5744POPC   C3B72657   0.639  38.426   7.143
 5744POPC   C4B72658   0.782  38.173   7.472
 5745POPC   NC372659   8.772   0.241   5.382
 5745POPC   PO472660   8.909   0.916   5.244
 5745POPC   GL172661   8.792   0.686   5.659
 5745POPC   GL272662   9.045   0.467   5.752
 5745POPC   C1A72663   8.728   0.582   6.138
 5745POPC   D2A72664   8.621   0.719   6.572
 5745POPC   C3A72665   8.856   0.529   6.923
 5745POPC   C4A72666   8.818   0.643   7.352
 5745POPC   C1B72667   9.157   0.260   6.119
 5745POPC   C2B72668   9.060   0.153   6.550
 5745POPC   C3B72669   9.218   0.085   6.939
 5745POPC   C4B72670   9.170   0.253   7.308
 5746POPC   NC372671  42.125   7.924   5.539
 5746POPC   PO472672  42.672   8.392   5.621
 5746POPC   GL172673  42.398   8.174   5.909
 5746POPC   GL272674  42.464   7.866   5.967
 5746POPC   C1A72675  42.219   8.321   6.288
 5746POPC   D2A72676  42.100   8.250   6.705
 5746POPC   C3A72677  42.399   8.204   7.035
 5746POPC   C4A72678  42.224   8.221   7.443
 5746POPC   C1B72679  42.086   7.821   6.211
 5746POPC   C2B72680  42.030   7.748   6.632
 5746POPC   C3B72681  42.392   7.709   6.890
 5746POPC   C4B72682  42.393   7.767   7.315
 5747POPC   NC372683  35.918  33.489   5.558
 5747POPC   PO472684  36.566  33.635   5.412
 5747POPC   GL172685  36.228  33.845   5.779
 5747POPC   GL272686  36.351  33.596   5.917
 5747POPC   C1A72687  35.800  33.881   6.154
 5747POPC   D2A72688  35.598  33.725   6.579
 5747POPC   C3A72689  35.712  33.958   7.014
 5747POPC   C4A72690  35.769  33.789   7.457
 5747POPC   C1B72691  36.232  33.684   6.298
 5747POPC   C2B72692  36.249  33.574   6.676
 5747POPC   C3B72693  36.101  33.663   7.009
 5747POPC   C4B72694  36.274  33.757   7.352
 5748POPC   NC372695  41.710  39.475   5.499
 5748POPC   PO472696  41.959  38.802   5.611
 5748POPC   GL172697  41.705  39.031   5.893
 5748POPC   GL272698  41.356  39.073   5.854
 5748POPC   C1A72699  41.583  38.945   6.322
 5748POPC   D2A72700  41.353  39.197   6.613
 5748POPC   C3A72701  41.530  39.052   6.906
 5748POPC   C4A72702  41.662  38.993   7.240
 5748POPC   C1B72703  41.496  39.419   6.178
 5748POPC   C2B72704  41.768  39.600   6.492
 5748POPC   C3B72705  41.694  39.526   6.915
 5748POPC   C4B72706  41.583  39.470   7.303
 5749POPC   NC372707  35.838  36.622   5.447
 5749POPC   PO472708  36.325  37.009   5.531
 5749POPC   GL172709  36.244  37.007   5.897
 5749POPC   GL272710  36.494  37.243   5.977
 5749POPC   C1A72711  36.140  36.773   6.232
 5749POPC   D2A72712  36.016  36.863   6.614
 5749POPC   C3A72713  36.084  36.561   6.880
 5749POPC   C4A72714  36.189  36.647   7.227
 5749POPC   C1B72715  36.166  37.306   6.303
 5749POPC   C2B72716  36.187  37.355   6.730
 5749POPC   C3B72717  36.008  37.166   7.059
 5749POPC   C4B72718  36.298  37.115   7.341
 5750POPC   NC372719  17.015  17.655   5.460
 5750POPC   PO472720  16.315  17.704   5.455
 5750POPC   GL172721  16.556  17.615   5.843
 5750POPC   GL272722  16.885  17.450   5.900
 5750POPC   C1A72723  16.543  17.451   6.261
 5750POPC   D2A72724  16.670  17.586   6.645
 5750POPC   C3A72725  16.393  17.640   6.991
 5750POPC   C4A72726  16.586  17.758   7.414
 5750POPC   C1B72727  17.082  17.435   6.319
 5750POPC   C2B72728  17.038  17.256   6.730
 5750POPC   C3B72729  16.876  17.424   7.094
 5750POPC   C4B72730  16.892  17.336   7.493
 5751POPC   NC372731   8.549  22.832   5.406
 5751POPC   PO472732   7.946  23.141   5.441
 5751POPC   GL172733   8.106  23.015   5.850
 5751POPC   GL272734   8.234  22.688   5.801
 5751POPC   C1A72735   8.070  23.076   6.301
 5751POPC   D2A72736   8.335  23.104   6.674
 5751POPC   C3A72737   8.079  22.981   7.045
 5751POPC   C4A72738   7.908  23.088   7.467
 5751POPC   C1B72739   8.442  22.761   6.195
 5751POPC   C2B72740   8.316  22.609   6.578
 5751POPC   C3B72741   8.476  22.670   6.974
 5751POPC   C4B72742   8.600  22.998   7.249
 5752POPC   NC372743  30.882  39.450   5.461
 5752POPC   PO472744  30.584  38.898   5.523
 5752POPC   GL172745  30.811  39.115   5.842
 5752POPC   GL272746  30.674  39.444   5.915
 5752POPC   C1A72747  30.792  39.146   6.292
 5752POPC   D2A72748  30.600  39.020   6.660
 5752POPC   C3A72749  30.745  39.100   7.060
 5752POPC   C4A72750  30.810  39.209   7.499
 5752POPC   C1B72751  30.677  39.672   6.283
 5752POPC   C2B72752  30.747  39.549   6.661
 5752POPC   C3B72753  30.932  39.552   7.004
 5752POPC   C4B72754  30.671  39.642   7.304
 5753POPC   NC372755  17.392  26.416   5.524
 5753POPC   PO472756  17.582  25.824   5.569
 5753POPC   GL172757  17.398  25.991   5.917
 5753POPC   GL272758  17.624  26.253   5.947
 5753POPC   C1A72759  17.464  26.024   6.380
 5753POPC   D2A72760  17.245  25.875   6.773
 5753POPC   C3A72761  17.462  25.738   7.129
 5753POPC   C4A72762  17.480  25.980   7.524
 5753POPC   C1B72763  17.925  26.340   6.254
 5753POPC   C2B72764  17.935  26.195   6.677
 5753POPC   C3B72765  17.667  26.190   7.042
 5753POPC   C4B72766  17.704  26.425   7.432
 5754POPC   NC372767  15.436  10.923   5.525
 5754POPC   PO472768  16.060  10.705   5.398
 5754POPC   GL172769  15.903  10.776   5.837
 5754POPC   GL272770  15.580  10.772   5.983
 5754POPC   C1A72771  15.976  10.682   6.300
 5754POPC   D2A72772  15.820  10.460   6.708
 5754POPC   C3A72773  16.100  10.316   7.099
 5754POPC   C4A72774  16.238  10.534   7.489
 5754POPC   C1B72775  15.518  10.426   6.271
 5754POPC   C2B72776  15.412  10.137   6.604
 5754POPC   C3B72777  15.634  10.097   7.017
 5754POPC   C4B72778  15.667  10.385   7.389
 5755POPC   NC372779  28.283   1.009   5.489
 5755POPC   PO472780  28.772   1.502   5.512
 5755POPC   GL172781  28.483   1.357   5.813
 5755POPC   GL272782  28.696   1.064   5.788
 5755POPC   C1A72783  28.311   1.269   6.229
 5755POPC   D2A72784  28.148   1.157   6.651
 5755POPC   C3A72785  28.160   1.397   7.034
 5755POPC   C4A72786  28.247   1.218   7.434
 5755POPC   C1B72787  28.819   1.202   6.178
 5755POPC   C2B72788  28.731   1.337   6.579
 5755POPC   C3B72789  28.584   1.146   6.966
 5755POPC   C4B72790  28.662   0.960   7.358
 5756POPC   NC372791  32.851  21.982   5.287
 5756POPC   PO472792  33.453  22.285   5.429
 5756POPC   GL172793  33.134  22.397   5.769
 5756POPC   GL272794  32.962  22.135   5.765
 5756POPC   C1A72795  32.833  22.459   6.160
 5756POPC   D2A72796  32.847  22.578   6.592
 5756POPC   C3A72797  32.695  22.328   6.930
 5756POPC   C4A72798  32.769  22.254   7.348
 5756POPC   C1B72799  33.148  22.085   6.189
 5756POPC   C2B72800  32.990  22.091   6.595
 5756POPC   C3B72801  33.075  21.990   7.026
 5756POPC   C4B72802  32.886  21.682   7.307
 5757POPC   NC372803  37.104  15.266   5.441
 5757POPC   PO472804  36.504  15.228   5.459
 5757POPC   GL172805  36.794  15.274   5.871
 5757POPC   GL272806  37.169  15.374   5.939
 5757POPC   C1A72807  36.994  14.953   6.173
 5757POPC   D2A72808  37.198  14.891   6.577
 5757POPC   C3A72809  36.925  15.066   6.864
 5757POPC   C4A72810  36.756  14.926   7.256
 5757POPC   C1B72811  36.990  15.472   6.318
 5757POPC   C2B72812  36.881  15.662   6.687
 5757POPC   C3B72813  37.145  15.534   6.949
 5757POPC   C4B72814  36.965  15.393   7.265
 5758POPC   NC372815   5.514  22.375   5.580
 5758POPC   PO472816   6.217  22.466   5.535
 5758POPC   GL172817   5.988  22.301   5.884
 5758POPC   GL272818   5.981  21.934   5.830
 5758POPC   C1A72819   6.152  22.123   6.289
 5758POPC   D2A72820   5.909  22.076   6.678
 5758POPC   C3A72821   6.074  22.252   7.055
 5758POPC   C4A72822   5.709  22.481   7.202
 5758POPC   C1B72823   5.683  21.944   6.201
 5758POPC   C2B72824   5.496  21.659   6.494
 5758POPC   C3B72825   5.388  21.840   6.868
 5758POPC   C4B72826   5.659  21.975   7.195
 5759POPC   NC372827  38.700  30.345   5.379
 5759POPC   PO472828  38.208  30.761   5.563
 5759POPC   GL172829  38.551  30.791   5.824
 5759POPC   GL272830  38.623  30.476   5.862
 5759POPC   C1A72831  38.683  30.771   6.256
 5759POPC   D2A72832  38.525  30.949   6.612
 5759POPC   C3A72833  38.193  30.943   6.939
 5759POPC   C4A72834  38.546  30.958   7.267
 5759POPC   C1B72835  38.246  30.556   6.185
 5759POPC   C2B72836  38.203  30.317   6.540
 5759POPC   C3B72837  38.425  30.499   6.848
 5759POPC   C4B72838  38.264  30.547   7.252
 5760POPC   NC372839  33.053  40.242   5.417
 5760POPC   PO472840  33.238  39.570   5.289
 5760POPC   GL172841  33.196  39.835   5.728
 5760POPC   GL272842  32.854  39.983   5.826
 5760POPC   C1A72843  33.213  39.984   6.202
 5760POPC   D2A72844  33.229  39.706   6.598
 5760POPC   C3A72845  33.047  39.779   7.014
 5760POPC   C4A72846  32.924  39.744   7.462
 5760POPC   C1B72847  32.719  40.060   6.267
 5760POPC   C2B72848  32.923  40.142   6.670
 5760POPC   C3B72849  32.789  40.209   7.115
 5760POPC   C4B72850  32.665  40.533   7.413
 5761POPC   NC372851  35.121  15.845   5.289
 5761POPC   PO472852  35.513  16.302   5.598
 5761POPC   GL172853  35.332  16.115   5.933
 5761POPC   GL272854  35.134  15.863   5.815
 5761POPC   C1A72855  35.574  16.053   6.293
 5761POPC   D2A72856  35.642  16.289   6.663
 5761POPC   C3A72857  35.454  16.010   6.953
 5761POPC   C4A72858  35.334  15.893   7.369
 5761POPC   C1B72859  35.179  15.708   6.257
 5761POPC   C2B72860  35.330  15.568   6.657
 5761POPC   C3B72861  35.083  15.604   7.030
 5761POPC   C4B72862  34.844  15.477   7.401
 5762POPC   NC372863  11.702  22.110   5.421
 5762POPC   PO472864  12.290  22.465   5.342
 5762POPC   GL172865  12.035  22.415   5.701
 5762POPC   GL272866  12.122  22.089   5.695
 5762POPC   C1A72867  11.996  22.276   6.138
 5762POPC   D2A72868  12.311  22.341   6.466
 5762POPC   C3A72869  12.100  22.236   6.844
 5762POPC   C4A72870  12.183  22.259   7.266
 5762POPC   C1B72871  12.310  21.884   6.042
 5762POPC   C2B72872  12.299  21.836   6.469
 5762POPC   C3B72873  12.374  21.752   6.874
 5762POPC   C4B72874  12.406  21.804   7.279
 5763POPC   NC372875  36.635   4.888   5.509
 5763POPC   PO472876  36.057   5.091   5.294
 5763POPC   GL172877  36.249   5.207   5.696
 5763POPC   GL272878  36.245   4.881   5.840
 5763POPC   C1A72879  36.297   5.289   6.155
 5763POPC   D2A72880  36.061   5.307   6.529
 5763POPC   C3A72881  36.088   5.293   6.989
 5763POPC   C4A72882  36.232   5.245   7.434
 5763POPC   C1B72883  36.118   4.756   6.249
 5763POPC   C2B72884  36.160   4.807   6.704
 5763POPC   C3B72885  36.082   4.807   7.144
 5763POPC   C4B72886  36.051   4.731   7.566
 5764POPC   NC372887  44.131   6.991   5.518
 5764POPC   PO472888  44.223   6.344   5.411
 5764POPC   GL172889  44.112   6.565   5.808
 5764POPC   GL272890  43.740   6.639   5.768
 5764POPC   C1A72891  44.146   6.623   6.281
 5764POPC   D2A72892  44.272   6.400   6.688
 5764POPC   C3A72893  44.093   6.577   7.077
 5764POPC   C4A72894  44.197   6.817   7.459
 5764POPC   C1B72895  43.643   6.791   6.223
 5764POPC   C2B72896  43.832   6.844   6.660
 5764POPC   C3B72897  43.868   7.030   7.084
 5764POPC   C4B72898  43.714   6.960   7.513
 5765POPC   NC372899  31.666   1.860   5.498
 5765POPC   PO472900  31.084   1.570   5.666
 5765POPC   GL172901  31.296   1.975   5.839
 5765POPC   GL272902  31.598   1.842   6.004
 5765POPC   C1A72903  31.516   2.307   6.143
 5765POPC   D2A72904  31.777   2.143   6.511
 5765POPC   C3A72905  31.727   2.328   6.933
 5765POPC   C4A72906  31.381   2.251   7.228
 5765POPC   C1B72907  31.265   1.913   6.344
 5765POPC   C2B72908  31.322   2.001   6.772
 5765POPC   C3B72909  31.354   1.673   7.065
 5765POPC   C4B72910  31.018   1.396   7.200
 5766POPC   NC372911  44.256  29.895   5.473
 5766POPC   PO472912  44.815  29.595   5.403
 5766POPC   GL172913  44.793  29.954   5.686
 5766POPC   GL272914  44.502  30.151   5.826
 5766POPC   C1A72915  44.852  29.955   6.140
 5766POPC   D2A72916  44.660  30.161   6.496
 5766POPC   C3A72917  44.833  30.072   6.878
 5766POPC   C4A72918   0.160  30.203   7.113
 5766POPC   C1B72919  44.325  29.937   6.163
 5766POPC   C2B72920  44.106  30.078   6.525
 5766POPC   C3B72921  44.324  30.225   6.891
 5766POPC   C4B72922  44.520  30.070   7.264
 5767POPC   NC372923  18.028  23.213   5.444
 5767POPC   PO472924  18.322  22.560   5.466
 5767POPC   GL172925  18.073  22.783   5.749
 5767POPC   GL272926  18.326  23.036   5.839
 5767POPC   C1A72927  18.008  22.666   6.171
 5767POPC   D2A72928  18.320  22.587   6.492
 5767POPC   C3A72929  18.279  22.576   6.927
 5767POPC   C4A72930  17.952  22.722   7.197
 5767POPC   C1B72931  18.354  23.065   6.298
 5767POPC   C2B72932  18.521  23.002   6.726
 5767POPC   C3B72933  18.386  23.021   7.152
 5767POPC   C4B72934  18.383  23.370   7.381
 5768POPC   NC372935  43.213  10.193   5.330
 5768POPC   PO472936  43.165   9.524   5.390
 5768POPC   GL172937  43.009   9.435   5.810
 5768POPC   GL272938  43.310   9.511   5.997
 5768POPC   C1A72939  42.883   9.524   6.249
 5768POPC   D2A72940  43.102   9.767   6.550
 5768POPC   C3A72941  43.035   9.725   6.974
 5768POPC   C4A72942  42.918   9.592   7.400
 5768POPC   C1B72943  43.295   9.253   6.380
 5768POPC   C2B72944  43.368   9.361   6.804
 5768POPC   C3B72945  43.443   9.555   7.213
 5768POPC   C4B72946  43.309   9.276   7.524
 5769POPC   NC372947  16.192  12.583   5.513
 5769POPC   PO472948  15.475  12.420   5.488
 5769POPC   GL172949  15.725  12.720   5.761
 5769POPC   GL272950  15.944  12.516   5.962
 5769POPC   C1A72951  15.722  12.962   6.157
 5769POPC   D2A72952  15.864  13.129   6.553
 5769POPC   C3A72953  15.753  12.976   6.960
 5769POPC   C4A72954  15.714  13.072   7.378
 5769POPC   C1B72955  16.118  12.722   6.350
 5769POPC   C2B72956  16.197  12.786   6.783
 5769POPC   C3B72957  16.069  12.611   7.175
 5769POPC   C4B72958  16.338  12.522   7.542
 5770POPC   NC372959  27.010  11.562   5.010
 5770POPC   PO472960  26.780  11.163   5.508
 5770POPC   GL172961  26.610  11.181   5.894
 5770POPC   GL272962  26.567  11.541   5.847
 5770POPC   C1A72963  26.883  10.984   6.249
 5770POPC   D2A72964  27.092  10.961   6.680
 5770POPC   C3A72965  26.942  11.145   7.114
 5770POPC   C4A72966  27.056  11.241   7.575
 5770POPC   C1B72967  26.809  11.513   6.225
 5770POPC   C2B72968  26.738  11.322   6.623
 5770POPC   C3B72969  26.891  11.612   6.905
 5770POPC   C4B72970  26.861  11.679   7.324
 5771POPC   NC372971   7.117  12.609   5.504
 5771POPC   PO472972   7.687  13.055   5.471
 5771POPC   GL172973   7.504  13.011   5.852
 5771POPC   GL272974   7.516  12.651   5.827
 5771POPC   C1A72975   7.326  12.872   6.252
 5771POPC   D2A72976   7.460  12.773   6.653
 5771POPC   C3A72977   7.241  12.833   7.078
 5771POPC   C4A72978   7.189  12.606   7.491
 5771POPC   C1B72979   7.775  12.580   6.180
 5771POPC   C2B72980   7.796  12.368   6.592
 5771POPC   C3B72981   7.645  12.457   6.987
 5771POPC   C4B72982   7.711  12.679   7.319
 5772POPC   NC372983  29.376  40.774   5.486
 5772POPC   PO472984  28.909  40.283   5.361
 5772POPC   GL172985  29.023  40.537   5.782
 5772POPC   GL272986  29.343  40.503   5.932
 5772POPC   C1A72987  28.893  40.508   6.236
 5772POPC   D2A72988  29.077  40.668   6.627
 5772POPC   C3A72989  28.862  40.813   6.985
 5772POPC   C4A72990  28.985  40.821   7.414
 5772POPC   C1B72991  29.268  40.885   6.182
 5772POPC   C2B72992  29.424  41.050   6.589
 5772POPC   C3B72993  29.473  40.841   7.018
 5772POPC   C4B72994  29.484  40.976   7.462
 5773POPC   NC372995  40.851  21.029   5.560
 5773POPC   PO472996  40.547  21.701   5.310
 5773POPC   GL172997  40.559  21.634   5.791
 5773POPC   GL272998  40.550  21.252   5.910
 5773POPC   C1A72999  40.689  21.626   6.215
 5773POPC   D2A73000  40.587  21.318   6.511
 5773POPC   C3A73001  40.577  21.527   6.875
 5773POPC   C4A73002  40.771  21.617   7.261
 5773POPC   C1B73003  40.623  20.882   6.212
 5773POPC   C2B73004  40.473  20.847   6.650
 5773POPC   C3B73005  40.650  21.039   7.041
 5773POPC   C4B73006  40.708  21.095   7.472
 5774POPC   NC373007   5.808   8.612   5.359
 5774POPC   PO473008   6.074   9.201   5.370
 5774POPC   GL173009   5.926   8.903   5.778
 5774POPC   GL273010   5.647   8.632   5.844
 5774POPC   C1A73011   5.825   8.848   6.256
 5774POPC   D2A73012   5.757   9.110   6.612
 5774POPC   C3A73013   5.952   9.056   6.996
 5774POPC   C4A73014   6.060   9.057   7.414
 5774POPC   C1B73015   5.356   8.633   6.184
 5774POPC   C2B73016   5.451   8.624   6.620
 5774POPC   C3B73017   5.416   8.890   6.938
 5774POPC   C4B73018   5.575   8.893   7.343
 5775POPC   NC373019  16.430  20.892   5.432
 5775POPC   PO473020  17.052  20.562   5.349
 5775POPC   GL173021  16.798  20.631   5.716
 5775POPC   GL273022  16.813  20.294   5.835
 5775POPC   C1A73023  16.594  20.751   6.126
 5775POPC   D2A73024  16.486  20.654   6.548
 5775POPC   C3A73025  16.663  20.776   6.951
 5775POPC   C4A73026  16.525  20.668   7.347
 5775POPC   C1B73027  16.742  20.275   6.280
 5775POPC   C2B73028  16.920  20.439   6.685
 5775POPC   C3B73029  16.808  20.299   7.123
 5775POPC   C4B73030  16.814  20.350   7.612
 5776POPC   NC373031  16.191  11.151   5.252
 5776POPC   PO473032  15.567  11.431   5.372
 5776POPC   GL173033  15.695  11.287   5.782
 5776POPC   GL273034  16.074  11.260   5.780
 5776POPC   C1A73035  15.770  11.204   6.208
 5776POPC   D2A73036  15.673  10.989   6.578
 5776POPC   C3A73037  15.884  11.119   6.947
 5776POPC   C4A73038  15.675  11.217   7.313
 5776POPC   C1B73039  16.182  11.512   6.178
 5776POPC   C2B73040  16.014  11.496   6.598
 5776POPC   C3B73041  16.064  11.625   7.038
 5776POPC   C4B73042  16.115  11.418   7.451
 5777POPC   NC373043  12.526  17.698   5.261
 5777POPC   PO473044  13.093  17.452   5.460
 5777POPC   GL173045  12.902  17.607   5.838
 5777POPC   GL273046  12.573  17.769   5.770
 5777POPC   C1A73047  13.162  17.667   6.233
 5777POPC   D2A73048  13.357  17.435   6.586
 5777POPC   C3A73049  13.238  17.576   7.013
 5777POPC   C4A73050  13.035  17.680   7.404
 5777POPC   C1B73051  12.440  17.636   6.204
 5777POPC   C2B73052  12.509  17.612   6.674
 5777POPC   C3B73053  12.621  17.624   7.119
 5777POPC   C4B73054  12.668  17.344   7.489
 5778POPC   NC373055   7.016  35.321   5.344
 5778POPC   PO473056   6.372  35.431   5.522
 5778POPC   GL173057   6.490  35.381   5.911
 5778POPC   GL273058   6.825  35.361   5.839
 5778POPC   C1A73059   6.658  35.599   6.275
 5778POPC   D2A73060   6.940  35.523   6.648
 5778POPC   C3A73061   6.807  35.611   7.069
 5778POPC   C4A73062   6.515  35.403   7.343
 5778POPC   C1B73063   7.021  35.220   6.239
 5778POPC   C2B73064   7.085  34.991   6.618
 5778POPC   C3B73065   7.158  35.107   7.044
 5778POPC   C4B73066   6.988  35.302   7.448
 5779POPC   NC373067  34.910  41.011   5.064
 5779POPC   PO473068  34.325  41.004   5.444
 5779POPC   GL173069  34.374  40.879   5.845
 5779POPC   GL273070  34.670  40.793   5.867
 5779POPC   C1A73071  34.351  40.661   6.225
 5779POPC   D2A73072  34.587  40.622   6.582
 5779POPC   C3A73073  34.481  40.907   6.879
 5779POPC   C4A73074  34.357  40.716   7.245
 5779POPC   C1B73075  34.880  40.889   6.232
 5779POPC   C2B73076  35.050  40.830   6.635
 5779POPC   C3B73077  34.916  40.625   7.005
 5779POPC   C4B73078  34.836  40.722   7.385
 5780POPC   NC373079  31.401  24.890   5.617
 5780POPC   PO473080  31.207  24.301   5.431
 5780POPC   GL173081  31.470  24.273   5.804
 5780POPC   GL273082  31.694  24.551   5.862
 5780POPC   C1A73083  31.499  24.168   6.261
 5780POPC   D2A73084  31.429  24.349   6.698
 5780POPC   C3A73085  31.392  24.118   7.107
 5780POPC   C4A73086  31.184  24.231   7.503
 5780POPC   C1B73087  31.518  24.691   6.288
 5780POPC   C2B73088  31.528  24.853   6.747
 5780POPC   C3B73089  31.443  24.710   7.190
 5780POPC   C4B73090  31.555  24.794   7.648
 5781POPC   NC373091  27.961   3.296   5.337
 5781POPC   PO473092  28.519   3.633   5.598
 5781POPC   GL173093  28.404   3.252   5.848
 5781POPC   GL273094  28.077   3.289   5.951
 5781POPC   C1A73095  28.457   3.197   6.309
 5781POPC   D2A73096  28.554   3.466   6.674
 5781POPC   C3A73097  28.645   3.305   7.103
 5781POPC   C4A73098  28.517   3.271   7.539
 5781POPC   C1B73099  28.212   3.624   6.235
 5781POPC   C2B73100  28.164   3.828   6.645
 5781POPC   C3B73101  28.289   3.699   7.084
 5781POPC   C4B73102  28.080   3.391   7.327
 5782POPC   NC373103  11.404  35.134   5.499
 5782POPC   PO473104  11.254  35.835   5.379
 5782POPC   GL173105  11.373  35.614   5.731
 5782POPC   GL273106  11.064  35.417   5.800
 5782POPC   C1A73107  11.444  35.430   6.151
 5782POPC   D2A73108  11.268  35.181   6.508
 5782POPC   C3A73109  11.238  35.366   6.921
 5782POPC   C4A73110  11.402  35.236   7.321
 5782POPC   C1B73111  10.874  35.381   6.227
 5782POPC   C2B73112  10.758  35.187   6.642
 5782POPC   C3B73113  10.900  35.004   7.053
 5782POPC   C4B73114  10.882  35.350   7.339
 5783POPC   NC373115  39.034  12.013   5.143
 5783POPC   PO473116  39.406  12.392   5.584
 5783POPC   GL173117  39.316  12.314   5.968
 5783POPC   GL273118  39.207  11.985   5.896
 5783POPC   C1A73119  39.223  12.193   6.380
 5783POPC   D2A73120  38.871  12.042   6.575
 5783POPC   C3A73121  38.858  12.266   6.967
 5783POPC   C4A73122  38.962  12.001   7.297
 5783POPC   C1B73123  39.616  11.905   6.180
 5783POPC   C2B73124  39.658  11.818   6.608
 5783POPC   C3B73125  39.369  11.923   6.947
 5783POPC   C4B73126  39.473  11.881   7.378
 5784POPC   NC373127   4.486  32.075   5.184
 5784POPC   PO473128   4.271  32.721   5.259
 5784POPC   GL173129   4.175  32.489   5.679
 5784POPC   GL273130   4.388  32.183   5.707
 5784POPC   C1A73131   4.150  32.436   6.162
 5784POPC   D2A73132   4.370  32.233   6.534
 5784POPC   C3A73133   4.467  32.336   6.983
 5784POPC   C4A73134   4.204  32.414   7.320
 5784POPC   C1B73135   4.371  31.947   6.096
 5784POPC   C2B73136   4.362  31.715   6.471
 5784POPC   C3B73137   4.398  31.825   6.887
 5784POPC   C4B73138   4.730  31.882   7.143
 5785POPC   NC373139  17.848   5.756   5.143
 5785POPC   PO473140  18.433   6.033   5.324
 5785POPC   GL173141  18.387   5.867   5.723
 5785POPC   GL273142  18.040   5.844   5.653
 5785POPC   C1A73143  18.520   5.842   6.157
 5785POPC   D2A73144  18.672   5.665   6.542
 5785POPC   C3A73145  18.558   5.864   6.931
 5785POPC   C4A73146  18.584   5.667   7.320
 5785POPC   C1B73147  18.027   6.017   6.097
 5785POPC   C2B73148  18.200   5.942   6.539
 5785POPC   C3B73149  18.025   6.034   6.919
 5785POPC   C4B73150  18.125   5.878   7.308
 5786POPC   NC373151  28.259   9.860   5.248
 5786POPC   PO473152  28.578  10.157   5.714
 5786POPC   GL173153  28.473   9.760   5.897
 5786POPC   GL273154  28.126   9.730   5.761
 5786POPC   C1A73155  28.522   9.675   6.352
 5786POPC   D2A73156  28.341   9.872   6.722
 5786POPC   C3A73157  28.591   9.812   7.072
 5786POPC   C4A73158  28.539   9.749   7.498
 5786POPC   C1B73159  28.030   9.597   6.208
 5786POPC   C2B73160  28.148   9.401   6.640
 5786POPC   C3B73161  28.214   9.470   7.103
 5786POPC   C4B73162  28.102   9.482   7.565
 5787POPC   NC373163  38.200  41.733   5.405
 5787POPC   PO473164  38.746  41.557   5.563
 5787POPC   GL173165  38.537  41.584   5.917
 5787POPC   GL273166  38.283  41.342   5.799
 5787POPC   C1A73167  38.677  41.771   6.305
 5787POPC   D2A73168  38.814  41.841   6.735
 5787POPC   C3A73169  38.495  41.754   7.017
 5787POPC   C4A73170  38.488  41.308   7.096
 5787POPC   C1B73171  38.135  41.402   6.190
 5787POPC   C2B73172  38.261  41.567   6.572
 5787POPC   C3B73173  38.044  41.484   6.927
 5787POPC   C4B73174  37.962  41.837   7.148
 5788POPC   NC373175  16.292  36.638   5.471
 5788POPC   PO473176  15.718  36.830   5.123
 5788POPC   GL173177  15.829  36.868   5.601
 5788POPC   GL273178  15.577  36.753   5.798
 5788POPC   C1A73179  16.004  36.743   6.074
 5788POPC   D2A73180  16.243  36.615   6.487
 5788POPC   C3A73181  16.101  36.704   6.932
 5788POPC   C4A73182  16.202  37.004   7.269
 5788POPC   C1B73183  15.560  36.997   6.200
 5788POPC   C2B73184  15.788  36.940   6.578
 5788POPC   C3B73185  15.764  37.091   7.016
 5788POPC   C4B73186  15.760  37.226   7.465
 5789POPC   NC373187  42.339  30.562   5.241
 5789POPC   PO473188  42.742  31.063   5.419
 5789POPC   GL173189  42.394  30.836   5.704
 5789POPC   GL273190  42.397  30.436   5.748
 5789POPC   C1A73191  42.365  30.704   6.169
 5789POPC   D2A73192  42.466  30.881   6.583
 5789POPC   C3A73193  42.266  30.663   6.909
 5789POPC   C4A73194  42.377  30.602   7.312
 5789POPC   C1B73195  42.248  30.181   6.140
 5789POPC   C2B73196  42.105  30.196   6.599
 5789POPC   C3B73197  42.159  30.175   7.049
 5789POPC   C4B73198  41.919  30.408   7.333
 5790POPC   NC373199  12.291  26.946   5.237
 5790POPC   PO473200  11.718  26.816   5.599
 5790POPC   GL173201  12.083  27.043   5.795
 5790POPC   GL273202  12.450  27.000   5.758
 5790POPC   C1A73203  11.975  27.194   6.193
 5790POPC   D2A73204  11.734  27.102   6.544
 5790POPC   C3A73205  11.905  27.012   6.941
 5790POPC   C4A73206  11.788  26.671   7.223
 5790POPC   C1B73207  12.352  26.829   6.204
 5790POPC   C2B73208  12.298  26.668   6.641
 5790POPC   C3B73209  12.269  26.687   7.103
 5790POPC   C4B73210  12.311  27.041   7.369
 5791POPC   NC373211  43.476  28.256   5.576
 5791POPC   PO473212  42.949  27.904   5.371
 5791POPC   GL173213  43.012  28.073   5.817
 5791POPC   GL273214  43.088  28.447   5.890
 5791POPC   C1A73215  43.070  28.133   6.288
 5791POPC   D2A73216  43.120  28.334   6.669
 5791POPC   C3A73217  43.092  28.119   7.040
 5791POPC   C4A73218  43.350  28.178   7.381
 5791POPC   C1B73219  42.806  28.589   6.269
 5791POPC   C2B73220  42.848  28.751   6.727
 5791POPC   C3B73221  42.917  28.585   7.146
 5791POPC   C4B73222  42.822  28.741   7.553
 5792POPC   NC373223  35.704   6.251   5.207
 5792POPC   PO473224  36.253   6.491   5.631
 5792POPC   GL173225  36.130   6.495   6.017
 5792POPC   GL273226  35.896   6.754   5.951
 5792POPC   C1A73227  36.167   6.350   6.441
 5792POPC   D2A73228  36.436   6.503   6.768
 5792POPC   C3A73229  36.236   6.560   7.168
 5792POPC   C4A73230  36.358   6.228   7.453
 5792POPC   C1B73231  35.997   6.829   6.400
 5792POPC   C2B73232  35.862   6.886   6.836
 5792POPC   C3B73233  35.789   7.201   7.172
 5792POPC   C4B73234  35.920   7.083   7.602
 5793POPC   NC373235  24.885  17.892   4.996
 5793POPC   PO473236  24.819  18.383   5.459
 5793POPC   GL173237  24.557  18.181   5.740
 5793POPC   GL273238  24.317  18.411   5.919
 5793POPC   C1A73239  24.613  18.052   6.161
 5793POPC   D2A73240  24.513  18.361   6.487
 5793POPC   C3A73241  24.543  18.210   6.917
 5793POPC   C4A73242  24.555  18.308   7.348
 5793POPC   C1B73243  24.119  18.132   6.233
 5793POPC   C2B73244  24.144  18.042   6.653
 5793POPC   C3B73245  24.017  17.943   7.085
 5793POPC   C4B73246  24.120  18.102   7.520
 5794POPC   NC373247  31.647   2.841   5.305
 5794POPC   PO473248  31.280   2.296   5.424
 5794POPC   GL173249  31.383   2.701   5.732
 5794POPC   GL273250  31.719   2.939   5.797
 5794POPC   C1A73251  31.391   2.815   6.180
 5794POPC   D2A73252  31.281   2.948   6.620
 5794POPC   C3A73253  31.423   2.753   7.015
 5794POPC   C4A73254  31.656   3.005   7.312
 5794POPC   C1B73255  31.888   2.673   6.131
 5794POPC   C2B73256  31.706   2.661   6.536
 5794POPC   C3B73257  31.885   2.874   6.842
 5794POPC   C4B73258  32.030   2.697   7.176
 5795POPC   NC373259   3.748  30.262   5.394
 5795POPC   PO473260   3.170  29.882   5.362
 5795POPC   GL173261   3.322  30.026   5.771
 5795POPC   GL273262   3.668  30.008   5.883
 5795POPC   C1A73263   3.187  30.130   6.184
 5795POPC   D2A73264   3.179  29.973   6.615
 5795POPC   C3A73265   3.425  30.146   6.951
 5795POPC   C4A73266   3.476  30.092   7.376
 5795POPC   C1B73267   3.548  29.766   6.254
 5795POPC   C2B73268   3.672  29.785   6.678
 5795POPC   C3B73269   3.608  29.685   7.105
 5795POPC   C4B73270   3.879  29.810   7.482
 5796POPC   NC373271  38.535  22.596   5.497
 5796POPC   PO473272  38.268  21.963   5.420
 5796POPC   GL173273  38.599  22.067   5.728
 5796POPC   GL273274  38.445  22.285   5.939
 5796POPC   C1A73275  38.653  21.866   6.151
 5796POPC   D2A73276  38.426  21.971   6.531
 5796POPC   C3A73277  38.647  21.853   6.895
 5796POPC   C4A73278  38.700  22.108   7.244
 5796POPC   C1B73279  38.396  22.633   6.216
 5796POPC   C2B73280  38.212  22.610   6.620
 5796POPC   C3B73281  38.350  22.339   6.948
 5796POPC   C4B73282  38.312  22.467   7.394
 5797POPC   NC373283  28.515  14.636   5.437
 5797POPC   PO473284  28.150  14.104   5.476
 5797POPC   GL173285  28.270  14.389   5.794
 5797POPC   GL273286  28.597  14.343   5.857
 5797POPC   C1A73287  28.347  14.654   6.179
 5797POPC   D2A73288  28.578  14.531   6.560
 5797POPC   C3A73289  28.412  14.607   6.991
 5797POPC   C4A73290  28.415  14.381   7.366
 5797POPC   C1B73291  28.478  14.100   6.179
 5797POPC   C2B73292  28.638  14.030   6.552
 5797POPC   C3B73293  28.434  14.073   6.925
 5797POPC   C4B73294  28.626  13.924   7.268
 5798POPC   NC373295  13.374  21.054   5.412
 5798POPC   PO473296  13.696  21.558   5.219
 5798POPC   GL173297  13.512  21.462   5.692
 5798POPC   GL273298  13.521  21.157   5.924
 5798POPC   C1A73299  13.400  21.617   6.138
 5798POPC   D2A73300  13.446  21.907   6.498
 5798POPC   C3A73301  13.609  21.679   6.856
 5798POPC   C4A73302  13.280  21.585   7.126
 5798POPC   C1B73303  13.831  21.335   6.232
 5798POPC   C2B73304  13.851  21.239   6.684
 5798POPC   C3B73305  13.600  21.170   7.050
 5798POPC   C4B73306  13.621  21.356   7.457
 5799POPC   NC373307  14.889   7.351   5.563
 5799POPC   PO473308  14.140   7.420   5.477
 5799POPC   GL173309  14.366   7.486   5.893
 5799POPC   GL273310  14.707   7.616   5.992
 5799POPC   C1A73311  14.270   7.535   6.335
 5799POPC   D2A73312  14.428   7.626   6.720
 5799POPC   C3A73313  14.161   7.645   7.074
 5799POPC   C4A73314  14.007   7.262   7.150
 5799POPC   C1B73315  14.714   7.265   6.300
 5799POPC   C2B73316  14.900   7.014   6.673
 5799POPC   C3B73317  14.788   7.012   7.083
 5799POPC   C4B73318  14.573   7.356   7.142
 5800POPC   NC373319  13.549   2.474   5.108
 5800POPC   PO473320  13.965   2.807   5.519
 5800POPC   GL173321  13.603   2.788   5.782
 5800POPC   GL273322  13.471   2.444   5.810
 5800POPC   C1A73323  13.448   2.808   6.199
 5800POPC   D2A73324  13.519   2.646   6.612
 5800POPC   C3A73325  13.647   2.807   7.021
 5800POPC   C4A73326  13.521   2.967   7.411
 5800POPC   C1B73327  13.670   2.314   6.205
 5800POPC   C2B73328  13.475   2.143   6.571
 5800POPC   C3B73329  13.481   2.310   6.986
 5800POPC   C4B73330  13.515   2.447   7.403
 5801POPC   NC373331   3.320  38.327   5.182
 5801POPC   PO473332   2.708  38.467   5.274
 5801POPC   GL173333   2.764  38.611   5.732
 5801POPC   GL273334   3.091  38.786   5.766
 5801POPC   C1A73335   2.496  38.538   6.132
 5801POPC   D2A73336   2.462  38.612   6.585
 5801POPC   C3A73337   2.749  38.376   6.836
 5801POPC   C4A73338   2.625  38.173   7.201
 5801POPC   C1B73339   2.987  38.693   6.203
 5801POPC   C2B73340   2.938  38.854   6.617
 5801POPC   C3B73341   2.869  38.817   7.056
 5801POPC   C4B73342   3.053  38.474   7.251
 5802POPC   NC373343  36.539  28.189   5.380
 5802POPC   PO473344  35.927  28.671   5.355
 5802POPC   GL173345  36.106  28.673   5.744
 5802POPC   GL273346  36.396  28.485   5.764
 5802POPC   C1A73347  35.996  28.541   6.166
 5802POPC   D2A73348  35.926  28.203   6.450
 5802POPC   C3A73349  35.920  28.368   6.852
 5802POPC   C4A73350  36.090  28.157   7.164
 5802POPC   C1B73351  36.517  28.578   6.188
 5802POPC   C2B73352  36.383  28.518   6.633
 5802POPC   C3B73353  36.433  28.570   7.090
 5802POPC   C4B73354  36.602  28.224   7.352
 5803POPC   NC373355   6.725  44.359   5.522
 5803POPC   PO473356   6.729  43.713   5.275
 5803POPC   GL173357   6.625  43.749   5.732
 5803POPC   GL273358   6.909  43.568   5.893
 5803POPC   C1A73359   6.591  43.981   6.153
 5803POPC   D2A73360   6.535  43.831   6.598
 5803POPC   C3A73361   6.612  44.089   6.988
 5803POPC   C4A73362   6.584  43.945   7.433
 5803POPC   C1B73363   7.037  43.765   6.294
 5803POPC   C2B73364   7.019  43.801   6.741
 5803POPC   C3B73365   6.846  43.653   7.069
 5803POPC   C4B73366   6.980  43.530   7.468
 5804POPC   NC373367  30.742   1.706   5.397
 5804POPC   PO473368  30.845   1.081   5.221
 5804POPC   GL173369  30.745   1.024   5.726
 5804POPC   GL273370  30.611   1.329   5.800
 5804POPC   C1A73371  30.588   0.984   6.194
 5804POPC   D2A73372  30.438   1.201   6.598
 5804POPC   C3A73373  30.614   1.106   7.012
 5804POPC   C4A73374  30.525   0.800   7.332
 5804POPC   C1B73375  30.744   1.475   6.224
 5804POPC   C2B73376  30.683   1.629   6.639
 5804POPC   C3B73377  30.454   1.605   7.016
 5804POPC   C4B73378  30.654   1.658   7.420
 5805POPC   NC373379  18.501  12.502   5.497
 5805POPC   PO473380  18.229  13.204   5.446
 5805POPC   GL173381  18.279  12.915   5.761
 5805POPC   GL273382  18.636  12.957   5.709
 5805POPC   C1A73383  18.416  13.047   6.173
 5805POPC   D2A73384  18.303  13.067   6.572
 5805POPC   C3A73385  18.513  12.997   6.928
 5805POPC   C4A73386  18.497  12.776   7.309
 5805POPC   C1B73387  18.734  12.687   6.075
 5805POPC   C2B73388  18.742  12.759   6.515
 5805POPC   C3B73389  18.760  12.543   6.906
 5805POPC   C4B73390  18.572  12.273   7.210
 5806POPC   NC373391  33.630  21.843   5.457
 5806POPC   PO473392  34.264  21.757   5.620
 5806POPC   GL173393  34.000  22.067   5.907
 5806POPC   GL273394  33.629  22.128   5.886
 5806POPC   C1A73395  33.821  22.164   6.357
 5806POPC   D2A73396  33.589  21.998   6.732
 5806POPC   C3A73397  33.899  21.944   7.065
 5806POPC   C4A73398  34.027  22.294   7.288
 5806POPC   C1B73399  33.482  22.492   6.118
 5806POPC   C2B73400  33.351  22.474   6.518
 5806POPC   C3B73401  33.258  22.450   6.935
 5806POPC   C4B73402  33.512  22.222   7.216
 5807POPC   NC373403  15.203   5.616   5.475
 5807POPC   PO473404  15.418   6.225   5.503
 5807POPC   GL173405  15.141   5.975   5.847
 5807POPC   GL273406  14.977   5.601   5.918
 5807POPC   C1A73407  15.045   5.914   6.301
 5807POPC   D2A73408  15.225   5.750   6.673
 5807POPC   C3A73409  15.128   6.039   6.982
 5807POPC   C4A73410  15.304   5.900   7.304
 5807POPC   C1B73411  15.212   5.404   6.278
 5807POPC   C2B73412  15.150   5.230   6.716
 5807POPC   C3B73413  15.049   5.419   7.136
 5807POPC   C4B73414  15.285   5.450   7.547
 5808POPC   NC373415  20.600  13.301   5.242
 5808POPC   PO473416  20.449  12.647   5.397
 5808POPC   GL173417  20.587  12.929   5.769
 5808POPC   GL273418  20.302  12.957   5.998
 5808POPC   C1A73419  20.776  13.156   6.156
 5808POPC   D2A73420  21.113  13.102   6.481
 5808POPC   C3A73421  21.041  13.020   6.904
 5808POPC   C4A73422  20.855  13.110   7.279
 5808POPC   C1B73423  20.580  12.670   6.217
 5808POPC   C2B73424  20.692  12.718   6.632
 5808POPC   C3B73425  20.494  12.873   7.002
 5808POPC   C4B73426  20.096  13.099   7.046
 5809POPC   NC373427  35.489  10.250   5.572
 5809POPC   PO473428  35.256   9.753   5.136
 5809POPC   GL173429  35.208   9.645   5.621
 5809POPC   GL273430  35.428   9.838   5.847
 5809POPC   C1A73431  35.223   9.454   6.088
 5809POPC   D2A73432  35.399   9.601   6.518
 5809POPC   C3A73433  35.327   9.512   6.976
 5809POPC   C4A73434  35.023   9.705   7.309
 5809POPC   C1B73435  35.299  10.075   6.216
 5809POPC   C2B73436  35.182  10.068   6.622
 5809POPC   C3B73437  35.304  10.015   6.997
 5809POPC   C4B73438  35.302  10.246   7.310
 5810POPC   NC373439  35.187  35.045   5.083
 5810POPC   PO473440  35.215  35.563   5.491
 5810POPC   GL173441  35.179  35.271   5.887
 5810POPC   GL273442  34.946  34.972   5.962
 5810POPC   C1A73443  35.132  35.344   6.326
 5810POPC   D2A73444  35.476  35.370   6.648
 5810POPC   C3A73445  35.444  35.670   6.998
 5810POPC   C4A73446  35.285  35.602   7.422
 5810POPC   C1B73447  35.334  34.865   6.206
 5810POPC   C2B73448  35.413  34.718   6.615
 5810POPC   C3B73449  35.555  34.959   6.966
 5810POPC   C4B73450  35.370  35.102   7.332
 5811POPC   NC373451  17.801  19.657   5.475
 5811POPC   PO473452  17.138  19.904   5.416
 5811POPC   GL173453  17.386  19.811   5.798
 5811POPC   GL273454  17.647  20.058   5.805
 5811POPC   C1A73455  17.566  19.739   6.261
 5811POPC   D2A73456  17.776  19.919   6.667
 5811POPC   C3A73457  17.753  19.660   7.090
 5811POPC   C4A73458  17.529  19.681   7.530
 5811POPC   C1B73459  17.381  20.193   6.158
 5811POPC   C2B73460  17.315  20.148   6.582
 5811POPC   C3B73461  17.333  20.306   7.010
 5811POPC   C4B73462  17.199  20.058   7.366
 5812POPC   NC373463  35.914  25.617   5.793
 5812POPC   PO473464  35.823  26.225   5.535
 5812POPC   GL173465  36.088  26.276   5.929
 5812POPC   GL273466  36.485  26.306   5.881
 5812POPC   C1A73467  36.061  26.089   6.371
 5812POPC   D2A73468  36.024  25.795   6.763
 5812POPC   C3A73469  36.240  25.969   7.138
 5812POPC   C4A73470  36.336  25.941   7.606
 5812POPC   C1B73471  36.395  26.515   6.263
 5812POPC   C2B73472  36.248  26.466   6.679
 5812POPC   C3B73473  36.539  26.329   6.959
 5812POPC   C4B73474  36.585  26.331   7.379
 5813POPC   NC373475  17.759   2.904   5.301
 5813POPC   PO473476  17.195   2.505   5.381
 5813POPC   GL173477  17.393   2.656   5.760
 5813POPC   GL273478  17.441   3.013   5.764
 5813POPC   C1A73479  17.486   2.528   6.181
 5813POPC   D2A73480  17.482   2.364   6.587
 5813POPC   C3A73481  17.764   2.477   6.919
 5813POPC   C4A73482  17.536   2.584   7.252
 5813POPC   C1B73483  17.654   3.009   6.198
 5813POPC   C2B73484  17.718   2.922   6.666
 5813POPC   C3B73485  17.378   3.009   7.009
 5813POPC   C4B73486  17.446   3.040   7.495
 5814POPC   NC373487  20.152   3.505   5.583
 5814POPC   PO473488  20.866   3.642   5.406
 5814POPC   GL173489  20.639   3.635   5.732
 5814POPC   GL273490  20.599   3.276   5.774
 5814POPC   C1A73491  20.803   3.659   6.141
 5814POPC   D2A73492  20.604   3.684   6.531
 5814POPC   C3A73493  20.831   3.545   6.862
 5814POPC   C4A73494  20.740   3.678   7.244
 5814POPC   C1B73495  20.373   3.371   6.171
 5814POPC   C2B73496  20.382   3.226   6.583
 5814POPC   C3B73497  20.372   3.401   6.980
 5814POPC   C4B73498  20.568   3.144   7.301
 5815POPC   NC373499   4.801  12.057   5.474
 5815POPC   PO473500   4.183  12.183   5.524
 5815POPC   GL173501   4.381  12.074   5.902
 5815POPC   GL273502   4.662  11.813   5.903
 5815POPC   C1A73503   4.182  11.973   6.281
 5815POPC   D2A73504   4.310  12.095   6.681
 5815POPC   C3A73505   4.092  12.193   7.050
 5815POPC   C4A73506   4.368  12.289   7.366
 5815POPC   C1B73507   4.676  11.563   6.287
 5815POPC   C2B73508   4.551  11.616   6.742
 5815POPC   C3B73509   4.607  11.934   7.069
 5815POPC   C4B73510   4.579  11.845   7.521
 5816POPC   NC373511  42.073   2.680   5.491
 5816POPC   PO473512  42.706   2.923   5.357
 5816POPC   GL173513  42.561   2.699   5.759
 5816POPC   GL273514  42.250   2.772   5.947
 5816POPC   C1A73515  42.699   2.884   6.179
 5816POPC   D2A73516  42.606   2.995   6.598
 5816POPC   C3A73517  42.285   3.016   6.884
 5816POPC   C4A73518  42.587   2.957   7.211
 5816POPC   C1B73519  42.406   2.461   6.234
 5816POPC   C2B73520  42.259   2.505   6.628
 5816POPC   C3B73521  42.426   2.530   6.998
 5816POPC   C4B73522  42.255   2.588   7.370
 5817POPC   NC373523   1.959   8.855   5.382
 5817POPC   PO473524   1.798   9.484   5.381
 5817POPC   GL173525   1.875   9.199   5.773
 5817POPC   GL273526   1.914   8.820   5.876
 5817POPC   C1A73527   2.137   9.163   6.175
 5817POPC   D2A73528   2.090   8.894   6.540
 5817POPC   C3A73529   2.135   9.146   6.901
 5817POPC   C4A73530   1.947   9.057   7.288
 5817POPC   C1B73531   1.753   8.471   6.130
 5817POPC   C2B73532   1.814   8.390   6.563
 5817POPC   C3B73533   1.764   8.656   6.928
 5817POPC   C4B73534   1.538   8.729   7.300
 5818POPC   NC373535   1.994   0.645   5.307
 5818POPC   PO473536   1.688   1.195   5.329
 5818POPC   GL173537   1.745   1.291   5.768
 5818POPC   GL273538   1.534   1.597   5.809
 5818POPC   C1A73539   2.014   1.153   6.144
 5818POPC   D2A73540   2.023   0.877   6.525
 5818POPC   C3A73541   1.896   1.046   6.944
 5818POPC   C4A73542   1.894   0.930   7.368
 5818POPC   C1B73543   1.724   1.591   6.203
 5818POPC   C2B73544   1.886   1.409   6.580
 5818POPC   C3B73545   1.827   1.580   6.989
 5818POPC   C4B73546   1.784   1.450   7.410
 5819POPC   NC373547  15.390  12.938   5.421
 5819POPC   PO473548  14.765  12.840   5.224
 5819POPC   GL173549  14.949  12.839   5.754
 5819POPC   GL273550  15.220  12.691   5.834
 5819POPC   C1A73551  15.060  12.947   6.235
 5819POPC   D2A73552  14.958  12.798   6.662
 5819POPC   C3A73553  15.229  12.872   7.028
 5819POPC   C4A73554  15.187  13.068   7.438
 5819POPC   C1B73555  15.419  12.565   6.196
 5819POPC   C2B73556  15.496  12.709   6.607
 5819POPC   C3B73557  15.556  12.485   7.028
 5819POPC   C4B73558  15.385  12.602   7.429
 5820POPC   NC373559   3.773  41.370   5.542
 5820POPC   PO473560   3.244  41.806   5.520
 5820POPC   GL173561   3.280  41.454   5.838
 5820POPC   GL273562   3.610  41.507   5.992
 5820POPC   C1A73563   3.246  41.418   6.322
 5820POPC   D2A73564   3.233  41.763   6.636
 5820POPC   C3A73565   3.360  41.589   6.997
 5820POPC   C4A73566   3.257  41.214   7.181
 5820POPC   C1B73567   3.857  41.445   6.362
 5820POPC   C2B73568   3.829  41.494   6.795
 5820POPC   C3B73569   3.788  41.249   7.157
 5820POPC   C4B73570   4.009  41.312   7.566
 5821POPC   NC373571  41.231  40.640   5.646
 5821POPC   PO473572  41.561  41.128   5.453
 5821POPC   GL173573  41.737  40.979   5.837
 5821POPC   GL273574  41.690  40.612   5.870
 5821POPC   C1A73575  41.669  40.888   6.287
 5821POPC   D2A73576  41.351  40.926   6.623
 5821POPC   C3A73577  41.510  41.114   7.009
 5821POPC   C4A73578  41.824  40.951   7.226
 5821POPC   C1B73579  41.398  40.445   6.215
 5821POPC   C2B73580  41.330  40.383   6.621
 5821POPC   C3B73581  41.540  40.565   6.961
 5821POPC   C4B73582  41.374  40.725   7.338
 5822POPC   NC373583  40.234  35.985   5.436
 5822POPC   PO473584  39.621  35.872   5.219
 5822POPC   GL173585  39.692  36.067   5.728
 5822POPC   GL273586  39.997  36.259   5.816
 5822POPC   C1A73587  39.847  36.009   6.236
 5822POPC   D2A73588  39.990  36.141   6.654
 5822POPC   C3A73589  39.985  35.953   7.054
 5822POPC   C4A73590  39.650  35.985   7.369
 5822POPC   C1B73591  40.000  36.542   6.169
 5822POPC   C2B73592  40.191  36.594   6.556
 5822POPC   C3B73593  39.982  36.588   6.952
 5822POPC   C4B73594  39.955  36.381   7.360
 5823POPC   NC373595  32.775  27.794   4.816
 5823POPC   PO473596  32.350  27.498   5.264
 5823POPC   GL173597  32.263  27.646   5.722
 5823POPC   GL273598  31.937  27.782   5.829
 5823POPC   C1A73599  32.227  27.543   6.192
 5823POPC   D2A73600  32.508  27.535   6.549
 5823POPC   C3A73601  32.284  27.677   6.896
 5823POPC   C4A73602  32.289  27.491   7.295
 5823POPC   C1B73603  31.667  27.654   6.161
 5823POPC   C2B73604  31.778  27.590   6.586
 5823POPC   C3B73605  31.831  27.492   7.016
 5823POPC   C4B73606  31.928  27.820   7.285
 5824POPC   NC373607  44.319  13.144   5.499
 5824POPC   PO473608  44.936  13.467   5.528
 5824POPC   GL173609  44.654  13.656   5.827
 5824POPC   GL273610  44.280  13.607   5.788
 5824POPC   C1A73611  44.567  13.790   6.247
 5824POPC   D2A73612  44.457  13.906   6.665
 5824POPC   C3A73613  44.582  13.661   7.019
 5824POPC   C4A73614  44.774  13.514   7.405
 5824POPC   C1B73615  44.194  13.399   6.194
 5824POPC   C2B73616  44.391  13.389   6.627
 5824POPC   C3B73617  44.310  13.219   7.062
 5824POPC   C4B73618  44.439  13.105   7.482
 5825POPC   NC373619  25.673  17.108   5.521
 5825POPC   PO473620  25.271  16.600   5.350
 5825POPC   GL173621  25.337  16.623   5.789
 5825POPC   GL273622  25.662  16.445   5.826
 5825POPC   C1A73623  25.466  16.888   6.154
 5825POPC   D2A73624  25.340  17.089   6.538
 5825POPC   C3A73625  25.320  16.909   6.950
 5825POPC   C4A73626  25.461  17.070   7.351
 5825POPC   C1B73627  25.473  16.378   6.228
 5825POPC   C2B73628  25.295  16.463   6.626
 5825POPC   C3B73629  25.473  16.421   7.044
 5825POPC   C4B73630  25.228  16.613   7.365
 5826POPC   NC373631  12.412   1.527   5.245
 5826POPC   PO473632  11.976   1.039   5.349
 5826POPC   GL173633  12.019   1.290   5.729
 5826POPC   GL273634  12.368   1.429   5.792
 5826POPC   C1A73635  12.048   1.185   6.165
 5826POPC   D2A73636  12.265   1.087   6.563
 5826POPC   C3A73637  11.940   1.154   6.845
 5826POPC   C4A73638  11.978   1.188   7.267
 5826POPC   C1B73639  12.506   1.426   6.241
 5826POPC   C2B73640  12.397   1.649   6.618
 5826POPC   C3B73641  12.244   1.564   7.034
 5826POPC   C4B73642  12.308   1.598   7.484
 5827POPC   NC373643  40.117  16.588   5.308
 5827POPC   PO473644  39.572  16.963   5.226
 5827POPC   GL173645  39.837  16.827   5.661
 5827POPC   GL273646  39.945  16.472   5.796
 5827POPC   C1A73647  39.988  16.863   6.122
 5827POPC   D2A73648  39.933  16.648   6.532
 5827POPC   C3A73649  39.979  16.930   6.866
 5827POPC   C4A73650  40.007  16.810   7.253
 5827POPC   C1B73651  40.207  16.391   6.190
 5827POPC   C2B73652  40.314  16.247   6.580
 5827POPC   C3B73653  40.230  16.421   6.954
 5827POPC   C4B73654  40.352  16.148   7.262
 5828POPC   NC373655  41.494  17.703   5.508
 5828POPC   PO473656  41.835  17.153   5.556
 5828POPC   GL173657  41.752  17.432   5.871
 5828POPC   GL273658  41.445  17.345   5.849
 5828POPC   C1A73659  41.836  17.562   6.274
 5828POPC   D2A73660  41.722  17.357   6.646
 5828POPC   C3A73661  41.755  17.525   7.067
 5828POPC   C4A73662  41.710  17.861   7.353
 5828POPC   C1B73663  41.315  17.545   6.198
 5828POPC   C2B73664  41.194  17.329   6.565
 5828POPC   C3B73665  41.287  17.268   6.999
 5828POPC   C4B73666  41.285  17.543   7.377
 5829POPC   NC373667  31.172  22.364   5.466
 5829POPC   PO473668  31.618  22.051   5.273
 5829POPC   GL173669  31.610  22.200   5.737
 5829POPC   GL273670  31.279  22.258   5.937
 5829POPC   C1A73671  31.655  22.073   6.199
 5829POPC   D2A73672  31.449  21.893   6.577
 5829POPC   C3A73673  31.735  22.029   6.893
 5829POPC   C4A73674  31.761  22.188   7.303
 5829POPC   C1B73675  31.327  22.542   6.255
 5829POPC   C2B73676  31.454  22.406   6.648
 5829POPC   C3B73677  31.345  22.359   7.065
 5829POPC   C4B73678  31.133  22.697   7.278
 5830POPC   NC373679  14.886  23.265   5.687
 5830POPC   PO473680  15.256  23.776   5.415
 5830POPC   GL173681  15.218  23.703   5.843
 5830POPC   GL273682  15.489  23.491   5.927
 5830POPC   C1A73683  15.024  23.937   6.204
 5830POPC   D2A73684  15.041  24.172   6.587
 5830POPC   C3A73685  15.175  23.990   6.969
 5830POPC   C4A73686  15.213  23.797   7.377
 5830POPC   C1B73687  15.278  23.509   6.329
 5830POPC   C2B73688  14.991  23.634   6.655
 5830POPC   C3B73689  15.126  23.425   7.013
 5830POPC   C4B73690  15.524  23.366   7.175
 5831POPC   NC373691  44.715  32.000   5.508
 5831POPC   PO473692  44.530  32.629   5.350
 5831POPC   GL173693  44.595  32.458   5.754
 5831POPC   GL273694  44.960  32.457   5.683
 5831POPC   C1A73695  44.457  32.223   6.145
 5831POPC   D2A73696  44.489  32.284   6.590
 5831POPC   C3A73697  44.496  31.930   6.850
 5831POPC   C4A73698  44.420  32.171   7.212
 5831POPC   C1B73699  44.948  32.376   6.132
 5831POPC   C2B73700  44.960  32.109   6.489
 5831POPC   C3B73701   0.007  32.060   6.910
 5831POPC   C4B73702   0.077  32.262   7.299
 5832POPC   NC373703   8.931  25.768   5.400
 5832POPC   PO473704   9.364  26.312   5.390
 5832POPC   GL173705   9.261  26.114   5.794
 5832POPC   GL273706   8.942  26.309   5.884
 5832POPC   C1A73707   9.225  26.010   6.253
 5832POPC   D2A73708   9.127  26.303   6.591
 5832POPC   C3A73709   9.100  26.121   7.015
 5832POPC   C4A73710   8.836  25.785   7.145
 5832POPC   C1B73711   8.727  26.124   6.270
 5832POPC   C2B73712   8.674  26.074   6.722
 5832POPC   C3B73713   8.530  26.173   7.132
 5832POPC   C4B73714   8.813  26.212   7.488
 5833POPC   NC373715  43.276  42.332   5.114
 5833POPC   PO473716  42.914  42.758   5.487
 5833POPC   GL173717  42.972  42.486   5.808
 5833POPC   GL273718  43.075  42.182   5.629
 5833POPC   C1A73719  43.051  42.572   6.240
 5833POPC   D2A73720  43.334  42.414   6.531
 5833POPC   C3A73721  43.177  42.273   6.918
 5833POPC   C4A73722  42.978  42.528   7.195
 5833POPC   C1B73723  43.205  42.093   6.073
 5833POPC   C2B73724  43.093  41.955   6.503
 5833POPC   C3B73725  42.972  41.786   6.891
 5833POPC   C4B73726  42.983  42.001   7.322
 5834POPC   NC373727   9.440  12.802   5.530
 5834POPC   PO473728   9.940  12.450   5.487
 5834POPC   GL173729  10.040  12.763   5.782
 5834POPC   GL273730   9.728  12.815   5.959
 5834POPC   C1A73731  10.168  12.989   6.184
 5834POPC   D2A73732   9.861  12.981   6.513
 5834POPC   C3A73733   9.893  12.910   6.959
 5834POPC   C4A73734   9.638  13.164   7.231
 5834POPC   C1B73735   9.496  12.638   6.294
 5834POPC   C2B73736   9.296  12.721   6.691
 5834POPC   C3B73737   9.428  12.736   7.053
 5834POPC   C4B73738   9.716  12.451   7.173
 5835POPC   NC373739  40.374   4.771   5.506
 5835POPC   PO473740  40.133   4.132   5.624
 5835POPC   GL173741  40.282   4.459   5.916
 5835POPC   GL273742  40.054   4.746   5.978
 5835POPC   C1A73743  40.337   4.547   6.365
 5835POPC   D2A73744  40.063   4.479   6.747
 5835POPC   C3A73745  40.261   4.670   7.095
 5835POPC   C4A73746  40.469   4.474   7.460
 5835POPC   C1B73747  39.856   4.407   6.265
 5835POPC   C2B73748  39.595   4.224   6.561
 5835POPC   C3B73749  39.718   4.054   6.966
 5835POPC   C4B73750  39.904   4.339   7.264
 5836POPC   NC373751  12.529  42.355   5.508
 5836POPC   PO473752  13.155  42.230   5.307
 5836POPC   GL173753  13.143  42.228   5.771
 5836POPC   GL273754  12.914  42.514   5.835
 5836POPC   C1A73755  13.203  42.384   6.233
 5836POPC   D2A73756  13.025  42.464   6.658
 5836POPC   C3A73757  12.637  42.204   6.799
 5836POPC   C4A73758  12.555  42.098   7.261
 5836POPC   C1B73759  12.677  42.503   6.255
 5836POPC   C2B73760  12.614  42.743   6.669
 5836POPC   C3B73761  12.592  42.618   7.111
 5836POPC   C4B73762  12.542  42.559   7.554
 5837POPC   NC373763  15.075  24.202   5.392
 5837POPC   PO473764  15.417  24.763   5.432
 5837POPC   GL173765  15.327  24.482   5.770
 5837POPC   GL273766  14.955  24.541   5.774
 5837POPC   C1A73767  15.213  24.493   6.213
 5837POPC   D2A73768  15.118  24.685   6.599
 5837POPC   C3A73769  15.399  24.472   6.878
 5837POPC   C4A73770  15.353  24.339   7.298
 5837POPC   C1B73771  14.722  24.370   6.159
 5837POPC   C2B73772  14.647  24.495   6.606
 5837POPC   C3B73773  14.881  24.453   6.999
 5837POPC   C4B73774  14.867  24.203   7.356
 5838POPC   NC373775  28.674   9.070   5.553
 5838POPC   PO473776  28.064   9.372   5.367
 5838POPC   GL173777  28.128   9.208   5.815
 5838POPC   GL273778  28.120   8.858   5.887
 5838POPC   C1A73779  28.356   9.140   6.244
 5838POPC   D2A73780  28.662   9.232   6.614
 5838POPC   C3A73781  28.582   9.081   7.041
 5838POPC   C4A73782  28.525   9.235   7.469
 5838POPC   C1B73783  28.108   8.595   6.254
 5838POPC   C2B73784  28.258   8.481   6.659
 5838POPC   C3B73785  28.247   8.635   7.052
 5838POPC   C4B73786  28.107   8.988   7.280
 5839POPC   NC373787   5.326  18.484   5.462
 5839POPC   PO473788   4.839  18.000   5.502
 5839POPC   GL173789   5.008  18.179   5.857
 5839POPC   GL273790   4.964  18.536   5.859
 5839POPC   C1A73791   5.192  18.163   6.289
 5839POPC   D2A73792   5.224  18.208   6.723
 5839POPC   C3A73793   4.831  18.122   6.935
 5839POPC   C4A73794   4.822  18.055   7.367
 5839POPC   C1B73795   4.841  18.540   6.310
 5839POPC   C2B73796   4.867  18.625   6.769
 5839POPC   C3B73797   4.901  18.555   7.218
 5839POPC   C4B73798   4.740  18.815   7.547
 5840POPC   NC373799   4.153  37.084   5.274
 5840POPC   PO473800   3.980  37.817   5.336
 5840POPC   GL173801   3.966  37.717   5.824
 5840POPC   GL273802   4.291  37.563   5.919
 5840POPC   C1A73803   4.015  37.644   6.303
 5840POPC   D2A73804   4.372  37.595   6.567
 5840POPC   C3A73805   4.271  37.760   6.956
 5840POPC   C4A73806   4.002  37.614   7.242
 5840POPC   C1B73807   4.577  37.863   6.164
 5840POPC   C2B73808   4.821  37.854   6.531
 5840POPC   C3B73809   4.796  37.723   6.921
 5840POPC   C4B73810   4.650  37.829   7.281
 5841POPC   NC373811   6.019   2.270   5.243
 5841POPC   PO473812   5.593   1.841   5.369
 5841POPC   GL173813   5.792   1.998   5.730
 5841POPC   GL273814   5.504   2.182   5.815
 5841POPC   C1A73815   5.879   1.827   6.138
 5841POPC   D2A73816   5.987   1.974   6.559
 5841POPC   C3A73817   6.016   1.708   6.895
 5841POPC   C4A73818   6.051   1.869   7.323
 5841POPC   C1B73819   5.579   2.232   6.240
 5841POPC   C2B73820   5.498   2.076   6.627
 5841POPC   C3B73821   5.732   2.174   7.002
 5841POPC   C4B73822   5.627   2.108   7.434
 5842POPC   NC373823   8.997   5.362   5.638
 5842POPC   PO473824   9.007   5.955   5.276
 5842POPC   GL173825   8.863   5.911   5.754
 5842POPC   GL273826   8.671   5.617   5.908
 5842POPC   C1A73827   9.076   5.892   6.184
 5842POPC   D2A73828   9.270   5.690   6.573
 5842POPC   C3A73829   9.147   5.897   6.949
 5842POPC   C4A73830   8.995   5.890   7.364
 5842POPC   C1B73831   8.800   5.485   6.318
 5842POPC   C2B73832   8.746   5.804   6.601
 5842POPC   C3B73833   8.641   5.801   6.994
 5842POPC   C4B73834   8.697   5.492   7.255
 5843POPC   NC373835  41.824   9.590   5.487
 5843POPC   PO473836  41.282   9.793   5.178
 5843POPC   GL173837  41.427   9.833   5.718
 5843POPC   GL273838  41.756   9.847   5.918
 5843POPC   C1A73839  41.350   9.862   6.198
 5843POPC   D2A73840  41.665   9.865   6.534
 5843POPC   C3A73841  41.592   9.709   6.951
 5843POPC   C4A73842  41.264   9.669   7.221
 5843POPC   C1B73843  41.668   9.459   6.189
 5843POPC   C2B73844  41.448   9.382   6.561
 5843POPC   C3B73845  41.391   9.233   6.966
 5843POPC   C4B73846  41.617   9.308   7.278
 5844POPC   NC373847   0.895  40.367   5.475
 5844POPC   PO473848   0.132  40.314   5.514
 5844POPC   GL173849   0.415  40.139   5.838
 5844POPC   GL273850   0.543  39.781   5.772
 5844POPC   C1A73851   0.701  40.054   6.202
 5844POPC   D2A73852   0.828  39.774   6.544
 5844POPC   C3A73853   0.678  39.982   6.898
 5844POPC   C4A73854   0.414  40.154   7.192
 5844POPC   C1B73855   0.276  39.733   6.166
 5844POPC   C2B73856   0.243  39.919   6.589
 5844POPC   C3B73857   0.081  39.813   7.005
 5844POPC   C4B73858   0.213  39.743   7.445
 5845POPC   NC373859  37.987   0.940   5.367
 5845POPC   PO473860  38.458   1.366   5.513
 5845POPC   GL173861  38.192   1.199   5.819
 5845POPC   GL273862  38.440   0.940   5.889
 5845POPC   C1A73863  38.255   1.285   6.255
 5845POPC   D2A73864  38.492   1.216   6.645
 5845POPC   C3A73865  38.313   1.246   7.062
 5845POPC   C4A73866  38.552   1.461   7.398
 5845POPC   C1B73867  38.757   0.968   6.260
 5845POPC   C2B73868  38.863   0.840   6.713
 5845POPC   C3B73869  38.714   0.866   7.159
 5845POPC   C4B73870  38.857   0.869   7.600
 5846POPC   NC373871  21.779  29.645   5.118
 5846POPC   PO473872  22.085  30.215   5.368
 5846POPC   GL173873  22.104  29.886   5.758
 5846POPC   GL273874  22.435  29.771   5.910
 5846POPC   C1A73875  22.116  29.923   6.258
 5846POPC   D2A73876  21.886  29.785   6.645
 5846POPC   C3A73877  21.933  29.966   7.080
 5846POPC   C4A73878  22.083  29.737   7.476
 5846POPC   C1B73879  22.568  29.638   6.319
 5846POPC   C2B73880  22.431  29.847   6.708
 5846POPC   C3B73881  22.435  29.890   7.142
 5846POPC   C4B73882  22.344  30.181   7.469
 5847POPC   NC373883   6.896   1.496   5.244
 5847POPC   PO473884   6.324   1.166   5.469
 5847POPC   GL173885   6.512   1.346   5.832
 5847POPC   GL273886   6.318   1.614   5.919
 5847POPC   C1A73887   6.718   1.415   6.235
 5847POPC   D2A73888   6.779   1.078   6.483
 5847POPC   C3A73889   6.641   1.122   6.865
 5847POPC   C4A73890   6.792   1.209   7.216
 5847POPC   C1B73891   6.266   1.599   6.364
 5847POPC   C2B73892   6.503   1.603   6.748
 5847POPC   C3B73893   6.413   1.540   7.224
 5847POPC   C4B73894   6.323   1.621   7.706
 5848POPC   NC373895  27.947  28.402   5.203
 5848POPC   PO473896  27.592  27.975   5.515
 5848POPC   GL173897  27.426  28.230   5.801
 5848POPC   GL273898  27.762  28.329   5.943
 5848POPC   C1A73899  27.294  28.311   6.200
 5848POPC   D2A73900  27.121  28.143   6.565
 5848POPC   C3A73901  27.222  28.343   6.934
 5848POPC   C4A73902  27.468  28.245   7.264
 5848POPC   C1B73903  28.001  28.460   6.310
 5848POPC   C2B73904  27.984  28.295   6.740
 5848POPC   C3B73905  27.912  28.478   7.137
 5848POPC   C4B73906  27.988  28.680   7.542
 5849POPC   NC373907  44.554  28.130   5.618
 5849POPC   PO473908  43.915  28.119   5.519
 5849POPC   GL173909  44.038  28.208   5.906
 5849POPC   GL273910  43.777  28.481   5.935
 5849POPC   C1A73911  44.015  28.315   6.350
 5849POPC   D2A73912  43.635  28.393   6.590
 5849POPC   C3A73913  43.684  28.281   7.007
 5849POPC   C4A73914  44.108  28.180   7.168
 5849POPC   C1B73915  43.644  28.791   6.244
 5849POPC   C2B73916  43.852  28.880   6.613
 5849POPC   C3B73917  44.106  28.582   6.822
 5849POPC   C4B73918  44.381  28.640   7.157
 5850POPC   NC373919  30.962  15.343   5.157
 5850POPC   PO473920  30.559  14.856   5.403
 5850POPC   GL173921  30.470  14.983   5.815
 5850POPC   GL273922  30.832  14.955   5.890
 5850POPC   C1A73923  30.261  15.043   6.213
 5850POPC   D2A73924  30.245  14.868   6.655
 5850POPC   C3A73925  30.495  15.125   6.957
 5850POPC   C4A73926  30.500  15.306   7.402
 5850POPC   C1B73927  30.990  15.039   6.327
 5850POPC   C2B73928  30.997  15.247   6.737
 5850POPC   C3B73929  31.226  15.452   7.093
 5850POPC   C4B73930  31.137  15.360   7.545
 5851POPC   NC373931  43.507  29.901   5.167
 5851POPC   PO473932  43.961  30.211   5.618
 5851POPC   GL173933  43.897  29.863   5.899
 5851POPC   GL273934  43.557  29.692   5.937
 5851POPC   C1A73935  43.949  29.624   6.287
 5851POPC   D2A73936  43.789  29.654   6.714
 5851POPC   C3A73937  44.048  29.829   7.056
 5851POPC   C4A73938  44.052  30.045   7.472
 5851POPC   C1B73939  43.611  30.004   6.299
 5851POPC   C2B73940  43.633  30.169   6.716
 5851POPC   C3B73941  43.544  29.957   7.093
 5851POPC   C4B73942  43.570  29.904   7.544
 5852POPC   NC373943  43.042  39.737   5.457
 5852POPC   PO473944  43.537  40.074   5.766
 5852POPC   GL173945  43.182  39.853   5.957
 5852POPC   GL273946  42.843  39.685   5.921
 5852POPC   C1A73947  43.066  40.068   6.318
 5852POPC   D2A73948  43.289  40.235   6.687
 5852POPC   C3A73949  43.107  40.091   7.107
 5852POPC   C4A73950  43.374  39.920   7.436
 5852POPC   C1B73951  42.947  39.577   6.338
 5852POPC   C2B73952  42.832  39.772   6.705
 5852POPC   C3B73953  42.910  39.616   7.105
 5852POPC   C4B73954  42.889  39.787   7.509
 5853POPC   NC373955  35.185   8.292   5.267
 5853POPC   PO473956  35.752   8.043   5.351
 5853POPC   GL173957  35.623   8.111   5.776
 5853POPC   GL273958  35.388   8.362   5.728
 5853POPC   C1A73959  35.326   8.091   6.166
 5853POPC   D2A73960  35.005   8.139   6.495
 5853POPC   C3A73961  35.148   7.999   6.887
 5853POPC   C4A73962  35.453   8.170   7.164
 5853POPC   C1B73963  35.573   8.528   6.086
 5853POPC   C2B73964  35.417   8.488   6.497
 5853POPC   C3B73965  35.501   8.582   6.888
 5853POPC   C4B73966  35.842   8.720   7.123
 5854POPC   NC373967  39.803  17.384   5.202
 5854POPC   PO473968  40.358  17.727   5.363
 5854POPC   GL173969  40.116  17.599   5.732
 5854POPC   GL273970  39.799  17.761   5.677
 5854POPC   C1A73971  40.172  17.357   6.142
 5854POPC   D2A73972  39.986  17.392   6.554
 5854POPC   C3A73973  40.214  17.379   6.946
 5854POPC   C4A73974  39.918  17.340   7.264
 5854POPC   C1B73975  39.831  17.766   6.147
 5854POPC   C2B73976  39.695  17.863   6.568
 5854POPC   C3B73977  39.855  17.762   6.957
 5854POPC   C4B73978  39.788  17.809   7.402
 5855POPC   NC373979  22.610  16.745   5.501
 5855POPC   PO473980  23.191  16.940   5.715
 5855POPC   GL173981  22.853  16.794   5.959
 5855POPC   GL273982  22.720  16.467   5.919
 5855POPC   C1A73983  22.962  16.678   6.352
 5855POPC   D2A73984  23.166  16.535   6.680
 5855POPC   C3A73985  23.070  16.690   7.099
 5855POPC   C4A73986  23.182  16.915   7.476
 5855POPC   C1B73987  22.521  16.428   6.318
 5855POPC   C2B73988  22.684  16.378   6.734
 5855POPC   C3B73989  22.587  16.539   7.144
 5855POPC   C4B73990  22.762  16.618   7.569
 5856POPC   NC373991  29.246  29.188   5.361
 5856POPC   PO473992  28.584  29.325   5.444
 5856POPC   GL173993  28.884  29.110   5.782
 5856POPC   GL273994  29.281  29.046   5.848
 5856POPC   C1A73995  28.956  29.086   6.226
 5856POPC   D2A73996  29.052  29.425   6.499
 5856POPC   C3A73997  28.948  29.237   6.869
 5856POPC   C4A73998  29.142  29.293   7.271
 5856POPC   C1B73999  29.461  29.233   6.242
 5856POPC   C2B74000  29.417  29.100   6.683
 5856POPC   C3B74001  29.444  28.916   7.105
 5856POPC   C4B74002  29.544  29.120   7.510
 5857POPC   NC374003  30.740  16.907   5.428
 5857POPC   PO474004  30.507  16.312   5.611
 5857POPC   GL174005  30.599  16.632   5.879
 5857POPC   GL274006  30.401  16.911   5.807
 5857POPC   C1A74007  30.848  16.722   6.238
 5857POPC   D2A74008  30.939  16.939   6.639
 5857POPC   C3A74009  30.970  16.634   6.975
 5857POPC   C4A74010  30.796  16.760   7.373
 5857POPC   C1B74011  30.271  16.865   6.201
 5857POPC   C2B74012  30.444  16.756   6.553
 5857POPC   C3B74013  30.485  16.782   6.963
 5857POPC   C4B74014  30.294  16.897   7.347
 5858POPC   NC374015  19.157   2.292   5.329
 5858POPC   PO474016  19.269   1.639   5.599
 5858POPC   GL174017  19.169   2.054   5.796
 5858POPC   GL274018  19.450   2.295   5.752
 5858POPC   C1A74019  18.895   2.136   6.138
 5858POPC   D2A74020  19.022   1.959   6.534
 5858POPC   C3A74021  18.909   2.107   6.929
 5858POPC   C4A74022  18.977   1.850   7.275
 5858POPC   C1B74023  19.537   2.266   6.196
 5858POPC   C2B74024  19.460   2.285   6.622
 5858POPC   C3B74025  19.571   2.249   7.019
 5858POPC   C4B74026  19.286   2.246   7.283
 5859POPC   NC374027  38.763  20.488   5.406
 5859POPC   PO474028  39.424  20.651   5.377
 5859POPC   GL174029  39.185  20.457   5.706
 5859POPC   GL274030  38.977  20.744   5.800
 5859POPC   C1A74031  39.111  20.358   6.145
 5859POPC   D2A74032  39.255  20.496   6.561
 5859POPC   C3A74033  39.015  20.459   6.943
 5859POPC   C4A74034  39.129  20.604   7.397
 5859POPC   C1B74035  39.053  20.911   6.209
 5859POPC   C2B74036  38.875  20.868   6.623
 5859POPC   C3B74037  39.096  20.955   7.017
 5859POPC   C4B74038  39.292  21.071   7.420
 5860POPC   NC374039  31.536  19.953   5.513
 5860POPC   PO474040  31.851  19.460   5.676
 5860POPC   GL174041  31.564  19.640   5.954
 5860POPC   GL274042  31.215  19.701   5.822
 5860POPC   C1A74043  31.471  19.918   6.281
 5860POPC   D2A74044  31.566  20.044   6.683
 5860POPC   C3A74045  31.791  19.716   6.867
 5860POPC   C4A74046  31.646  19.816   7.240
 5860POPC   C1B74047  31.091  19.593   6.214
 5860POPC   C2B74048  31.096  19.798   6.643
 5860POPC   C3B74049  31.176  19.887   7.071
 5860POPC   C4B74050  31.231  19.560   7.391
 5861POPC   NC374051  42.210   0.356   5.694
 5861POPC   PO474052  42.597   0.746   5.496
 5861POPC   GL174053  42.579   0.666   5.951
 5861POPC   GL274054  42.550   0.308   6.080
 5861POPC   C1A74055  42.224   0.771   6.220
 5861POPC   D2A74056  41.965   0.654   6.567
 5861POPC   C3A74057  42.227   0.573   6.898
 5861POPC   C4A74058  42.445   0.491   7.260
 5861POPC   C1B74059  42.160   0.236   6.323
 5861POPC   C2B74060  41.981   0.159   6.720
 5861POPC   C3B74061  42.163   0.053   7.105
 5861POPC   C4B74062  42.112   0.141   7.514
 5862POPC   NC374063  19.131  20.302   5.276
 5862POPC   PO474064  19.269  21.007   5.291
 5862POPC   GL174065  19.166  20.774   5.690
 5862POPC   GL274066  19.066  21.010   5.831
 5862POPC   C1A74067  18.910  20.552   6.066
 5862POPC   D2A74068  18.782  20.316   6.480
 5862POPC   C3A74069  18.955  20.433   6.894
 5862POPC   C4A74070  19.107  20.488   7.277
 5862POPC   C1B74071  19.018  21.012   6.247
 5862POPC   C2B74072  18.866  20.834   6.602
 5862POPC   C3B74073  18.855  20.924   7.048
 5862POPC   C4B74074  18.844  21.022   7.505
 5863POPC   NC374075  26.295  42.623   5.441
 5863POPC   PO474076  25.737  42.229   5.251
 5863POPC   GL174077  25.875  42.344   5.705
 5863POPC   GL274078  26.216  42.334   5.853
 5863POPC   C1A74079  25.806  42.457   6.156
 5863POPC   D2A74080  25.716  42.651   6.565
 5863POPC   C3A74081  25.742  42.405   6.954
 5863POPC   C4A74082  26.103  42.365   7.215
 5863POPC   C1B74083  26.460  42.094   6.163
 5863POPC   C2B74084  26.422  42.101   6.616
 5863POPC   C3B74085  26.466  42.054   7.045
 5863POPC   C4B74086  26.430  42.070   7.501
 5864POPC   NC374087  21.809  14.318   5.420
 5864POPC   PO474088  22.402  14.029   5.561
 5864POPC   GL174089  22.070  14.225   5.877
 5864POPC   GL274090  21.682  14.193   5.874
 5864POPC   C1A74091  21.906  14.194   6.316
 5864POPC   D2A74092  22.015  14.447   6.643
 5864POPC   C3A74093  22.172  14.269   6.981
 5864POPC   C4A74094  22.265  14.002   7.302
 5864POPC   C1B74095  21.728  14.608   6.091
 5864POPC   C2B74096  21.660  14.777   6.529
 5864POPC   C3B74097  21.717  14.677   6.981
 5864POPC   C4B74098  21.832  14.634   7.393
 5865POPC   NC374099  23.319   0.608   5.610
 5865POPC   PO474100  22.744   0.329   5.256
 5865POPC   GL174101  22.883   0.344   5.696
 5865POPC   GL274102  22.658   0.588   5.826
 5865POPC   C1A74103  22.840   0.209   6.156
 5865POPC   D2A74104  22.590   0.260   6.563
 5865POPC   C3A74105  22.767   0.440   6.934
 5865POPC   C4A74106  22.990   0.144   7.191
 5865POPC   C1B74107  22.911   0.713   6.171
 5865POPC   C2B74108  23.151   0.778   6.495
 5865POPC   C3B74109  23.110   0.829   6.911
 5865POPC   C4B74110  23.064   0.658   7.316
 5866POPC   NC374111  13.468  42.567   5.412
 5866POPC   PO474112  13.827  42.025   5.291
 5866POPC   GL174113  13.656  42.098   5.757
 5866POPC   GL274114  13.620  42.433   5.888
 5866POPC   C1A74115  13.600  42.047   6.252
 5866POPC   D2A74116  13.712  42.096   6.722
 5866POPC   C3A74117  13.444  42.349   6.997
 5866POPC   C4A74118  13.036  42.215   7.111
 5866POPC   C1B74119  13.915  42.459   6.240
 5866POPC   C2B74120  13.820  42.629   6.659
 5866POPC   C3B74121  13.913  42.641   7.054
 5866POPC   C4B74122  13.904  42.300   7.249
 5867POPC   NC374123  14.264  40.869   5.347
 5867POPC   PO474124  13.700  40.561   5.506
 5867POPC   GL174125  13.654  40.749   5.912
 5867POPC   GL274126  13.590  41.115   5.865
 5867POPC   C1A74127  13.523  40.572   6.312
 5867POPC   D2A74128  13.403  40.750   6.704
 5867POPC   C3A74129  13.800  40.684   6.965
 5867POPC   C4A74130  13.901  40.346   7.273
 5867POPC   C1B74131  13.414  41.069   6.279
 5867POPC   C2B74132  13.637  41.195   6.662
 5867POPC   C3B74133  13.586  41.127   7.092
 5867POPC   C4B74134  13.443  41.127   7.572
 5868POPC   NC374135  18.144  43.587   5.073
 5868POPC   PO474136  18.101  44.162   5.398
 5868POPC   GL174137  18.292  43.862   5.657
 5868POPC   GL274138  18.526  44.123   5.810
 5868POPC   C1A74139  18.284  43.736   6.085
 5868POPC   D2A74140  18.569  43.845   6.421
 5868POPC   C3A74141  18.345  43.854   6.798
 5868POPC   C4A74142  18.304  43.801   7.241
 5868POPC   C1B74143  18.256  44.241   6.163
 5868POPC   C2B74144  18.211  44.382   6.593
 5868POPC   C3B74145  18.182  44.277   7.045
 5868POPC   C4B74146  18.572  44.240   7.248
 5869POPC   NC374147  40.542  36.677   5.379
 5869POPC   PO474148  41.098  37.106   5.515
 5869POPC   GL174149  40.836  36.932   5.839
 5869POPC   GL274150  40.788  36.538   5.796
 5869POPC   C1A74151  40.878  37.065   6.297
 5869POPC   D2A74152  41.133  36.910   6.621
 5869POPC   C3A74153  41.089  37.065   7.012
 5869POPC   C4A74154  40.779  37.021   7.279
 5869POPC   C1B74155  40.949  36.568   6.187
 5869POPC   C2B74156  40.718  36.625   6.554
 5869POPC   C3B74157  40.820  36.596   6.930
 5869POPC   C4B74158  40.684  36.523   7.313
 5870POPC   NC374159   8.926  22.388   5.435
 5870POPC   PO474160   9.357  21.907   5.441
 5870POPC   GL174161   9.111  22.121   5.809
 5870POPC   GL274162   8.719  22.094   5.822
 5870POPC   C1A74163   9.044  22.099   6.231
 5870POPC   D2A74164   9.014  21.920   6.614
 5870POPC   C3A74165   9.235  22.160   6.931
 5870POPC   C4A74166   9.134  22.208   7.340
 5870POPC   C1B74167   8.552  22.262   6.198
 5870POPC   C2B74168   8.718  22.317   6.612
 5870POPC   C3B74169   8.722  22.144   7.005
 5870POPC   C4B74170   8.643  22.372   7.350
 5871POPC   NC374171  24.104  32.992   5.598
 5871POPC   PO474172  24.725  32.905   5.356
 5871POPC   GL174173  24.534  32.824   5.823
 5871POPC   GL274174  24.346  32.576   6.063
 5871POPC   C1A74175  24.472  33.016   6.271
 5871POPC   D2A74176  24.504  32.821   6.700
 5871POPC   C3A74177  24.817  33.022   6.983
 5871POPC   C4A74178  24.984  32.888   7.389
 5871POPC   C1B74179  23.995  32.814   6.267
 5871POPC   C2B74180  24.017  33.034   6.663
 5871POPC   C3B74181  24.171  32.924   7.085
 5871POPC   C4B74182  24.511  33.117   7.376
 5872POPC   NC374183   0.024  23.893   5.492
 5872POPC   PO474184   0.692  23.695   5.503
 5872POPC   GL174185   0.573  23.780   5.926
 5872POPC   GL274186   0.335  24.027   5.878
 5872POPC   C1A74187   0.360  23.757   6.333
 5872POPC   D2A74188   0.269  23.687   6.764
 5872POPC   C3A74189   0.472  23.768   7.133
 5872POPC   C4A74190   0.402  23.652   7.557
 5872POPC   C1B74191   0.149  24.211   6.228
 5872POPC   C2B74192  44.984  24.072   6.610
 5872POPC   C3B74193   0.099  24.120   7.042
 5872POPC   C4B74194   0.021  24.001   7.461
 5873POPC   NC374195   5.064   2.234   5.537
 5873POPC   PO474196   5.135   2.844   5.532
 5873POPC   GL174197   5.170   2.583   5.905
 5873POPC   GL274198   4.835   2.401   5.978
 5873POPC   C1A74199   5.378   2.710   6.302
 5873POPC   D2A74200   5.588   2.580   6.678
 5873POPC   C3A74201   5.235   2.431   6.886
 5873POPC   C4A74202   4.984   2.680   7.147
 5873POPC   C1B74203   4.845   2.816   6.216
 5873POPC   C2B74204   4.871   2.926   6.648
 5873POPC   C3B74205   4.933   3.186   6.982
 5873POPC   C4B74206   4.867   3.113   7.386
 5874POPC   NC374207  15.381  19.843   5.335
 5874POPC   PO474208  14.834  19.642   5.372
 5874POPC   GL174209  15.042  19.887   5.771
 5874POPC   GL274210  15.425  20.019   5.821
 5874POPC   C1A74211  15.127  19.710   6.223
 5874POPC   D2A74212  15.408  19.533   6.561
 5874POPC   C3A74213  15.283  19.352   6.957
 5874POPC   C4A74214  15.213  19.471   7.364
 5874POPC   C1B74215  15.268  20.190   6.212
 5874POPC   C2B74216  15.380  20.033   6.631
 5874POPC   C3B74217  15.344  19.867   7.039
 5874POPC   C4B74218  15.109  19.983   7.406
 5875POPC   NC374219  14.776  37.764   5.308
 5875POPC   PO474220  14.294  37.412   5.672
 5875POPC   GL174221  14.360  37.756   5.883
 5875POPC   GL274222  14.689  37.781   5.806
 5875POPC   C1A74223  14.292  37.772   6.319
 5875POPC   D2A74224  14.254  37.591   6.714
 5875POPC   C3A74225  14.295  37.915   7.001
 5875POPC   C4A74226  14.047  37.927   7.375
 5875POPC   C1B74227  14.803  37.783   6.217
 5875POPC   C2B74228  14.707  37.845   6.633
 5875POPC   C3B74229  14.721  37.518   6.919
 5875POPC   C4B74230  14.893  37.370   7.285
 5876POPC   NC374231  39.607  36.335   5.286
 5876POPC   PO474232  38.991  36.000   5.444
 5876POPC   GL174233  39.197  35.948   5.808
 5876POPC   GL274234  39.215  36.316   5.823
 5876POPC   C1A74235  39.182  36.000   6.252
 5876POPC   D2A74236  39.136  36.400   6.515
 5876POPC   C3A74237  39.035  36.234   6.912
 5876POPC   C4A74238  39.252  35.879   7.083
 5876POPC   C1B74239  39.516  36.376   6.141
 5876POPC   C2B74240  39.636  36.507   6.571
 5876POPC   C3B74241  39.530  36.369   7.028
 5876POPC   C4B74242  39.426  36.454   7.487
 5877POPC   NC374243  29.624  31.291   5.606
 5877POPC   PO474244  30.114  31.654   5.287
 5877POPC   GL174245  30.110  31.427   5.806
 5877POPC   GL274246  29.990  31.579   6.165
 5877POPC   C1A74247  30.146  31.113   6.200
 5877POPC   D2A74248  29.996  31.116   6.632
 5877POPC   C3A74249  29.938  31.548   6.832
 5877POPC   C4A74250  30.265  31.760   7.079
 5877POPC   C1B74251  29.656  31.310   6.307
 5877POPC   C2B74252  29.519  31.269   6.716
 5877POPC   C3B74253  29.502  31.436   7.121
 5877POPC   C4B74254  29.842  31.563   7.425
 5878POPC   NC374255  22.329  15.146   5.630
 5878POPC   PO474256  21.728  15.588   5.506
 5878POPC   GL174257  21.911  15.366   5.857
 5878POPC   GL274258  21.935  15.032   5.926
 5878POPC   C1A74259  21.986  15.386   6.302
 5878POPC   D2A74260  22.013  15.178   6.700
 5878POPC   C3A74261  22.399  15.263   6.892
 5878POPC   C4A74262  22.525  15.570   7.172
 5878POPC   C1B74263  22.101  14.876   6.305
 5878POPC   C2B74264  22.381  14.801   6.628
 5878POPC   C3B74265  22.225  14.771   7.019
 5878POPC   C4B74266  22.014  15.079   7.206
 5879POPC   NC374267   2.468  28.231   5.379
 5879POPC   PO474268   1.886  28.257   5.324
 5879POPC   GL174269   1.900  28.166   5.788
 5879POPC   GL274270   2.137  27.921   5.879
 5879POPC   C1A74271   2.009  28.354   6.189
 5879POPC   D2A74272   1.729  28.476   6.495
 5879POPC   C3A74273   1.752  28.473   6.947
 5879POPC   C4A74274   2.032  28.617   7.264
 5879POPC   C1B74275   1.909  27.868   6.295
 5879POPC   C2B74276   1.996  28.088   6.702
 5879POPC   C3B74277   2.052  28.085   7.180
 5879POPC   C4B74278   2.202  27.850   7.532
 5880POPC   NC374279  44.985  19.042   5.151
 5880POPC   PO474280  44.470  19.247   5.461
 5880POPC   GL174281  44.625  19.195   5.843
 5880POPC   GL274282  44.608  18.848   5.791
 5880POPC   C1A74283  44.513  19.316   6.231
 5880POPC   D2A74284  44.543  19.098   6.601
 5880POPC   C3A74285  44.497  19.318   6.951
 5880POPC   C4A74286  44.613  19.124   7.316
 5880POPC   C1B74287  44.770  18.856   6.209
 5880POPC   C2B74288  44.992  18.762   6.600
 5880POPC   C3B74289  44.866  18.804   7.032
 5880POPC   C4B74290  44.730  18.664   7.496
 5881POPC   NC374291  33.150  10.934   5.206
 5881POPC   PO474292  33.168  11.489   5.570
 5881POPC   GL174293  32.863  11.259   5.843
 5881POPC   GL274294  32.749  10.902   5.833
 5881POPC   C1A74295  33.038  11.143   6.248
 5881POPC   D2A74296  33.282  11.344   6.564
 5881POPC   C3A74297  33.018  11.549   6.854
 5881POPC   C4A74298  32.923  11.380   7.247
 5881POPC   C1B74299  32.549  10.999   6.226
 5881POPC   C2B74300  32.714  11.180   6.632
 5881POPC   C3B74301  33.037  11.018   6.877
 5881POPC   C4B74302  32.932  10.818   7.216
 5882POPC   NC374303  40.890  24.707   5.277
 5882POPC   PO474304  40.318  24.591   5.490
 5882POPC   GL174305  40.726  24.482   5.720
 5882POPC   GL274306  40.956  24.761   5.851
 5882POPC   C1A74307  40.854  24.330   6.150
 5882POPC   D2A74308  41.098  24.326   6.556
 5882POPC   C3A74309  40.929  24.296   7.002
 5882POPC   C4A74310  41.037  24.277   7.451
 5882POPC   C1B74311  40.960  24.815   6.336
 5882POPC   C2B74312  40.988  24.880   6.802
 5882POPC   C3B74313  41.024  24.774   7.264
 5882POPC   C4B74314  41.200  24.694   7.710
 5883POPC   NC374315  42.983  27.512   5.132
 5883POPC   PO474316  43.593  27.427   5.278
 5883POPC   GL174317  43.334  27.693   5.633
 5883POPC   GL274318  42.950  27.540   5.717
 5883POPC   C1A74319  43.232  27.699   6.097
 5883POPC   D2A74320  43.072  27.662   6.519
 5883POPC   C3A74321  43.382  27.758   6.816
 5883POPC   C4A74322  43.324  27.686   7.248
 5883POPC   C1B74323  42.805  27.401   6.135
 5883POPC   C2B74324  42.833  27.210   6.572
 5883POPC   C3B74325  42.862  27.419   6.965
 5883POPC   C4B74326  42.764  27.765   7.191
 5884POPC   NC374327   7.475  31.944   5.513
 5884POPC   PO474328   7.607  31.390   5.267
 5884POPC   GL174329   7.634  31.427   5.742
 5884POPC   GL274330   7.377  31.637   5.901
 5884POPC   C1A74331   7.468  31.177   6.119
 5884POPC   D2A74332   7.272  31.232   6.520
 5884POPC   C3A74333   7.460  31.185   6.923
 5884POPC   C4A74334   7.247  31.233   7.297
 5884POPC   C1B74335   7.572  31.659   6.305
 5884POPC   C2B74336   7.442  31.676   6.735
 5884POPC   C3B74337   7.462  31.677   7.176
 5884POPC   C4B74338   7.107  31.796   7.412
 5885POPC   NC374339   9.276  23.450   5.107
 5885POPC   PO474340   9.037  22.842   5.392
 5885POPC   GL174341   8.885  22.914   5.794
 5885POPC   GL274342   8.766  22.602   5.851
 5885POPC   C1A74343   8.863  23.126   6.185
 5885POPC   D2A74344   9.133  23.214   6.528
 5885POPC   C3A74345   8.895  23.268   6.901
 5885POPC   C4A74346   9.023  23.299   7.299
 5885POPC   C1B74347   8.941  22.613   6.243
 5885POPC   C2B74348   8.824  22.814   6.624
 5885POPC   C3B74349   8.974  22.609   6.997
 5885POPC   C4B74350   9.012  22.724   7.404
 5886POPC   NC374351  19.023  28.249   5.344
 5886POPC   PO474352  19.052  27.523   5.369
 5886POPC   GL174353  19.185  27.410   5.855
 5886POPC   GL274354  19.395  27.112   6.015
 5886POPC   C1A74355  19.299  27.536   6.298
 5886POPC   D2A74356  19.555  27.493   6.702
 5886POPC   C3A74357  19.328  27.672   7.053
 5886POPC   C4A74358  19.148  28.055   7.249
 5886POPC   C1B74359  19.301  27.047   6.450
 5886POPC   C2B74360  18.904  27.149   6.658
 5886POPC   C3B74361  18.589  27.217   6.989
 5886POPC   C4B74362  18.884  27.405   7.262
 5887POPC   NC374363  39.113  17.141   5.410
 5887POPC   PO474364  39.509  17.729   5.222
 5887POPC   GL174365  39.336  17.550   5.626
 5887POPC   GL274366  39.562  17.276   5.666
 5887POPC   C1A74367  39.160  17.456   6.074
 5887POPC   D2A74368  38.840  17.402   6.437
 5887POPC   C3A74369  39.012  17.449   6.857
 5887POPC   C4A74370  38.972  17.668   7.251
 5887POPC   C1B74371  39.647  17.268   6.115
 5887POPC   C2B74372  39.462  17.396   6.512
 5887POPC   C3B74373  39.512  17.359   6.951
 5887POPC   C4B74374  39.514  17.037   7.274
 5888POPC   NC374375  21.590  26.440   5.645
 5888POPC   PO474376  21.098  26.128   5.251
 5888POPC   GL174377  21.067  25.873   5.702
 5888POPC   GL274378  21.477  25.935   5.812
 5888POPC   C1A74379  21.141  25.811   6.170
 5888POPC   D2A74380  21.175  26.178   6.483
 5888POPC   C3A74381  21.353  26.087   6.876
 5888POPC   C4A74382  21.180  25.941   7.260
 5888POPC   C1B74383  21.626  26.090   6.248
 5888POPC   C2B74384  21.854  25.983   6.654
 5888POPC   C3B74385  21.746  25.827   7.079
 5888POPC   C4B74386  21.616  26.068   7.470
 5889POPC   NC374387  40.745  39.222   5.423
 5889POPC   PO474388  41.269  39.526   5.599
 5889POPC   GL174389  40.919  39.397   5.886
 5889POPC   GL274390  40.830  39.029   5.876
 5889POPC   C1A74391  40.656  39.336   6.271
 5889POPC   D2A74392  40.848  39.392   6.661
 5889POPC   C3A74393  40.630  39.468   7.021
 5889POPC   C4A74394  40.778  39.568   7.409
 5889POPC   C1B74395  41.045  38.994   6.250
 5889POPC   C2B74396  40.937  38.888   6.649
 5889POPC   C3B74397  41.026  39.036   7.033
 5889POPC   C4B74398  40.724  39.065   7.328
 5890POPC   NC374399  35.649  21.421   5.550
 5890POPC   PO474400  34.911  21.415   5.357
 5890POPC   GL174401  35.198  21.246   5.661
 5890POPC   GL274402  35.204  21.560   5.801
 5890POPC   C1A74403  35.392  21.085   6.089
 5890POPC   D2A74404  35.279  21.100   6.560
 5890POPC   C3A74405  35.499  21.033   6.983
 5890POPC   C4A74406  35.464  21.145   7.415
 5890POPC   C1B74407  35.424  21.572   6.205
 5890POPC   C2B74408  35.550  21.559   6.620
 5890POPC   C3B74409  35.437  21.545   7.026
 5890POPC   C4B74410  35.254  21.693   7.362
 5891POPC   NC374411  25.963  38.030   5.214
 5891POPC   PO474412  25.780  37.375   5.528
 5891POPC   GL174413  25.924  37.359   5.959
 5891POPC   GL274414  25.933  37.716   5.964
 5891POPC   C1A74415  26.150  37.494   6.365
 5891POPC   D2A74416  26.169  37.777   6.761
 5891POPC   C3A74417  26.095  37.536   7.127
 5891POPC   C4A74418  26.362  37.220   7.260
 5891POPC   C1B74419  26.029  38.011   6.329
 5891POPC   C2B74420  25.785  38.144   6.717
 5891POPC   C3B74421  25.824  37.978   7.147
 5891POPC   C4B74422  26.086  37.922   7.524
 5892POPC   NC374423  31.111  43.496   5.142
 5892POPC   PO474424  30.821  44.040   5.491
 5892POPC   GL174425  30.663  44.148   5.904
 5892POPC   GL274426  30.649  43.796   6.022
 5892POPC   C1A74427  30.672  44.155   6.380
 5892POPC   D2A74428  30.557  43.895   6.706
 5892POPC   C3A74429  30.646  44.020   7.122
 5892POPC   C4A74430  30.647  43.967   7.580
 5892POPC   C1B74431  31.016  43.773   6.310
 5892POPC   C2B74432  31.083  43.816   6.743
 5892POPC   C3B74433  31.097  43.762   7.169
 5892POPC   C4B74434  31.147  43.883   7.588
 5893POPC   NC374435  10.267  41.776   5.489
 5893POPC   PO474436  10.885  41.620   5.341
 5893POPC   GL174437  10.691  41.552   5.735
 5893POPC   GL274438  10.671  41.217   5.743
 5893POPC   C1A74439  10.479  41.610   6.153
 5893POPC   D2A74440  10.624  41.766   6.566
 5893POPC   C3A74441  10.571  41.541   6.939
 5893POPC   C4A74442  10.307  41.608   7.248
 5893POPC   C1B74443  10.834  41.229   6.146
 5893POPC   C2B74444  10.769  41.267   6.557
 5893POPC   C3B74445  10.778  41.052   6.963
 5893POPC   C4B74446  10.674  41.198   7.364
 5894POPC   NC374447  15.530  26.774   5.382
 5894POPC   PO474448  16.245  26.808   5.488
 5894POPC   GL174449  15.880  26.812   5.806
 5894POPC   GL274450  15.681  26.517   5.827
 5894POPC   C1A74451  15.790  26.782   6.282
 5894POPC   D2A74452  16.112  26.727   6.630
 5894POPC   C3A74453  15.966  26.770   7.084
 5894POPC   C4A74454  16.174  27.140   7.288
 5894POPC   C1B74455  16.107  26.438   6.096
 5894POPC   C2B74456  16.183  26.236   6.493
 5894POPC   C3B74457  16.222  26.328   6.936
 5894POPC   C4B74458  16.293  26.388   7.374
 5895POPC   NC374459   4.154   9.991   5.264
 5895POPC   PO474460   4.768   9.673   5.418
 5895POPC   GL174461   4.581   9.864   5.791
 5895POPC   GL274462   4.225   9.788   5.830
 5895POPC   C1A74463   4.561   9.796   6.255
 5895POPC   D2A74464   4.363   9.550   6.600
 5895POPC   C3A74465   4.366   9.728   7.013
 5895POPC   C4A74466   4.389   9.930   7.416
 5895POPC   C1B74467   4.048   9.501   6.172
 5895POPC   C2B74468   3.865   9.368   6.597
 5895POPC   C3B74469   4.002   9.356   7.059
 5895POPC   C4B74470   4.024   9.495   7.556
 5896POPC   NC374471  34.135  21.330   5.708
 5896POPC   PO474472  33.499  21.409   5.526
 5896POPC   GL174473  33.744  21.572   5.868
 5896POPC   GL274474  33.646  21.286   6.039
 5896POPC   C1A74475  34.007  21.676   6.238
 5896POPC   D2A74476  34.018  21.686   6.650
 5896POPC   C3A74477  33.698  21.472   6.848
 5896POPC   C4A74478  33.648  21.120   7.130
 5896POPC   C1B74479  33.982  21.134   6.302
 5896POPC   C2B74480  34.224  21.185   6.641
 5896POPC   C3B74481  34.137  21.275   7.040
 5896POPC   C4B74482  34.105  21.079   7.457
 5897POPC   NC374483  27.709  37.430   5.409
 5897POPC   PO474484  27.275  37.903   5.356
 5897POPC   GL174485  27.510  37.783   5.722
 5897POPC   GL274486  27.351  37.491   5.832
 5897POPC   C1A74487  27.585  37.824   6.180
 5897POPC   D2A74488  27.408  37.875   6.597
 5897POPC   C3A74489  27.663  38.025   6.904
 5897POPC   C4A74490  27.709  37.781   7.253
 5897POPC   C1B74491  27.153  37.573   6.260
 5897POPC   C2B74492  27.097  37.443   6.701
 5897POPC   C3B74493  27.253  37.646   7.065
 5897POPC   C4B74494  27.446  37.408   7.462
 5898POPC   NC374495  44.079  32.761   5.381
 5898POPC   PO474496  43.628  32.208   5.253
 5898POPC   GL174497  43.775  32.235   5.692
 5898POPC   GL274498  43.851  32.541   5.771
 5898POPC   C1A74499  43.847  32.223   6.171
 5898POPC   D2A74500  44.081  31.989   6.494
 5898POPC   C3A74501  43.999  32.089   6.924
 5898POPC   C4A74502  43.983  31.986   7.369
 5898POPC   C1B74503  44.146  32.632   6.057
 5898POPC   C2B74504  44.094  32.601   6.496
 5898POPC   C3B74505  44.207  32.598   6.929
 5898POPC   C4B74506  43.950  32.481   7.258
 5899POPC   NC374507  17.237  25.511   5.491
 5899POPC   PO474508  17.560  24.827   5.487
 5899POPC   GL174509  17.539  25.083   5.849
 5899POPC   GL274510  17.683  25.399   5.818
 5899POPC   C1A74511  17.623  25.052   6.292
 5899POPC   D2A74512  17.393  24.874   6.632
 5899POPC   C3A74513  17.545  25.052   7.015
 5899POPC   C4A74514  17.556  25.241   7.407
 5899POPC   C1B74515  17.453  25.533   6.183
 5899POPC   C2B74516  17.369  25.399   6.614
 5899POPC   C3B74517  17.106  25.399   6.980
 5899POPC   C4B74518  17.104  25.512   7.411
 5900POPC   NC374519  11.010   8.861   5.146
 5900POPC   PO474520  10.444   8.998   5.460
 5900POPC   GL174521  10.679   9.051   5.834
 5900POPC   GL274522  10.818   8.731   5.824
 5900POPC   C1A74523  10.560   9.015   6.277
 5900POPC   D2A74524  10.464   9.056   6.702
 5900POPC   C3A74525  10.759   9.056   7.074
 5900POPC   C4A74526  10.663   9.034   7.491
 5900POPC   C1B74527  10.661   8.527   6.199
 5900POPC   C2B74528  10.427   8.540   6.593
 5900POPC   C3B74529  10.413   8.681   7.037
 5900POPC   C4B74530  10.683   8.564   7.320
 5901POPC   NC374531   4.604   3.974   5.803
 5901POPC   PO474532   4.037   4.069   5.482
 5901POPC   GL174533   4.188   4.319   5.828
 5901POPC   GL274534   4.530   4.472   5.854
 5901POPC   C1A74535   4.142   4.479   6.229
 5901POPC   D2A74536   4.224   4.222   6.564
 5901POPC   C3A74537   4.034   4.260   6.957
 5901POPC   C4A74538   4.142   4.434   7.303
 5901POPC   C1B74539   4.668   4.396   6.282
 5901POPC   C2B74540   4.608   4.580   6.640
 5901POPC   C3B74541   4.530   4.371   6.953
 5901POPC   C4B74542   4.645   4.300   7.316
 5902POPC   NC374543  14.959   9.136   5.439
 5902POPC   PO474544  15.240   8.621   5.232
 5902POPC   GL174545  15.182   8.692   5.701
 5902POPC   GL274546  14.823   8.749   5.788
 5902POPC   C1A74547  15.248   8.906   6.122
 5902POPC   D2A74548  15.193   9.087   6.526
 5902POPC   C3A74549  15.161   8.869   6.895
 5902POPC   C4A74550  15.300   9.182   7.147
 5902POPC   C1B74551  14.721   8.993   6.140
 5902POPC   C2B74552  14.764   8.851   6.531
 5902POPC   C3B74553  14.656   8.932   6.927
 5902POPC   C4B74554  14.846   8.994   7.281
 5903POPC   NC374555   9.900   3.806   5.527
 5903POPC   PO474556   9.388   3.427   5.344
 5903POPC   GL174557   9.635   3.326   5.714
 5903POPC   GL274558   9.391   3.113   5.908
 5903POPC   C1A74559   9.667   3.485   6.159
 5903POPC   D2A74560   9.545   3.683   6.555
 5903POPC   C3A74561   9.610   3.567   6.993
 5903POPC   C4A74562   9.965   3.769   7.177
 5903POPC   C1B74563   9.428   3.078   6.354
 5903POPC   C2B74564   9.710   3.165   6.680
 5903POPC   C3B74565  10.033   3.275   7.005
 5903POPC   C4B74566   9.858   3.316   7.413
 5904POPC   NC374567  14.286  23.999   5.475
 5904POPC   PO474568  14.459  23.300   5.458
 5904POPC   GL174569  14.169  23.457   5.801
 5904POPC   GL274570  14.133  23.807   5.902
 5904POPC   C1A74571  14.228  23.442   6.232
 5904POPC   D2A74572  14.535  23.462   6.510
 5904POPC   C3A74573  14.392  23.529   6.884
 5904POPC   C4A74574  14.289  23.699   7.248
 5904POPC   C1B74575  14.507  23.865   6.113
 5904POPC   C2B74576  14.565  23.992   6.512
 5904POPC   C3B74577  14.565  24.044   6.936
 5904POPC   C4B74578  14.768  23.741   7.173
 5905POPC   NC374579  30.173  43.167   5.255
 5905POPC   PO474580  29.880  43.789   5.264
 5905POPC   GL174581  30.028  43.747   5.718
 5905POPC   GL274582  29.747  43.825   5.871
 5905POPC   C1A74583  30.178  43.980   6.119
 5905POPC   D2A74584  30.114  44.129   6.563
 5905POPC   C3A74585  30.131  43.878   6.996
 5905POPC   C4A74586  29.977  43.798   7.442
 5905POPC   C1B74587  29.647  44.006   6.285
 5905POPC   C2B74588  29.673  43.924   6.748
 5905POPC   C3B74589  29.659  44.085   7.177
 5905POPC   C4B74590  29.511  43.961   7.612
 5906POPC   NC374591   5.891  23.935   5.336
 5906POPC   PO474592   6.356  23.433   5.496
 5906POPC   GL174593   6.053  23.642   5.749
 5906POPC   GL274594   6.136  24.004   5.795
 5906POPC   C1A74595   5.791  23.522   6.103
 5906POPC   D2A74596   5.934  23.480   6.541
 5906POPC   C3A74597   5.665  23.681   6.821
 5906POPC   C4A74598   5.677  23.643   7.259
 5906POPC   C1B74599   6.162  23.851   6.216
 5906POPC   C2B74600   6.036  24.008   6.616
 5906POPC   C3B74601   6.086  23.898   7.053
 5906POPC   C4B74602   5.927  24.094   7.416
 5907POPC   NC374603  27.792  19.999   5.229
 5907POPC   PO474604  27.306  19.681   5.414
 5907POPC   GL174605  27.549  19.646   5.782
 5907POPC   GL274606  27.282  19.410   5.884
 5907POPC   C1A74607  27.778  19.901   6.127
 5907POPC   D2A74608  27.744  20.174   6.515
 5907POPC   C3A74609  27.794  19.985   6.927
 5907POPC   C4A74610  27.752  19.787   7.347
 5907POPC   C1B74611  27.283  19.757   6.214
 5907POPC   C2B74612  27.451  19.761   6.626
 5907POPC   C3B74613  27.321  19.852   7.042
 5907POPC   C4B74614  27.095  20.017   7.391
 5908POPC   NC374615  17.859  24.825   5.119
 5908POPC   PO474616  17.432  24.386   5.228
 5908POPC   GL174617  17.384  24.399   5.685
 5908POPC   GL274618  17.750  24.294   5.669
 5908POPC   C1A74619  17.379  24.634   6.120
 5908POPC   D2A74620  17.334  24.360   6.503
 5908POPC   C3A74621  17.376  24.465   6.945
 5908POPC   C4A74622  17.324  24.251   7.333
 5908POPC   C1B74623  17.681  24.228   6.101
 5908POPC   C2B74624  17.814  24.542   6.423
 5908POPC   C3B74625  17.852  24.639   6.862
 5908POPC   C4B74626  17.772  24.479   7.287
 5909POPC   NC374627  14.655   2.951   5.306
 5909POPC   PO474628  14.327   2.423   5.408
 5909POPC   GL174629  14.347   2.703   5.836
 5909POPC   GL274630  14.039   2.621   5.981
 5909POPC   C1A74631  14.464   2.601   6.310
 5909POPC   D2A74632  14.550   2.575   6.792
 5909POPC   C3A74633  14.646   2.994   7.041
 5909POPC   C4A74634  14.520   3.168   7.455
 5909POPC   C1B74635  13.953   2.733   6.345
 5909POPC   C2B74636  14.053   2.636   6.721
 5909POPC   C3B74637  14.170   2.808   7.093
 5909POPC   C4B74638  13.970   2.637   7.401
 5910POPC   NC374639  15.786  34.198   5.405
 5910POPC   PO474640  15.930  34.858   5.448
 5910POPC   GL174641  16.081  34.734   5.812
 5910POPC   GL274642  16.422  34.886   5.848
 5910POPC   C1A74643  15.823  34.615   6.182
 5910POPC   D2A74644  15.616  34.898   6.484
 5910POPC   C3A74645  15.719  34.774   6.897
 5910POPC   C4A74646  15.880  34.454   7.160
 5910POPC   C1B74647  16.351  34.613   6.225
 5910POPC   C2B74648  16.127  34.495   6.605
 5910POPC   C3B74649  16.296  34.654   6.962
 5910POPC   C4B74650  16.279  34.713   7.377
 5911POPC   NC374651  14.207  36.105   5.381
 5911POPC   PO474652  14.768  36.111   5.598
 5911POPC   GL174653  14.443  36.114   5.850
 5911POPC   GL274654  14.378  35.788   5.841
 5911POPC   C1A74655  14.351  36.313   6.216
 5911POPC   D2A74656  14.531  36.238   6.608
 5911POPC   C3A74657  14.243  36.197   6.907
 5911POPC   C4A74658  14.299  36.237   7.357
 5911POPC   C1B74659  14.604  35.818   6.263
 5911POPC   C2B74660  14.570  35.746   6.724
 5911POPC   C3B74661  14.469  35.798   7.115
 5911POPC   C4B74662  14.017  35.831   7.187
 5912POPC   NC374663   9.791   1.544   5.486
 5912POPC   PO474664   9.765   2.215   5.499
 5912POPC   GL174665   9.650   1.939   5.805
 5912POPC   GL274666  10.012   1.839   5.828
 5912POPC   C1A74667   9.393   1.921   6.170
 5912POPC   D2A74668   9.600   1.900   6.553
 5912POPC   C3A74669   9.502   1.992   6.964
 5912POPC   C4A74670   9.695   2.087   7.347
 5912POPC   C1B74671  10.195   1.980   6.192
 5912POPC   C2B74672  10.105   1.827   6.583
 5912POPC   C3B74673  10.027   2.033   6.938
 5912POPC   C4B74674  10.177   1.945   7.319
 5913POPC   NC374675   5.609  26.028   5.382
 5913POPC   PO474676   6.272  25.844   5.497
 5913POPC   GL174677   5.905  25.987   5.822
 5913POPC   GL274678   5.769  25.707   6.029
 5913POPC   C1A74679   5.689  26.178   6.181
 5913POPC   D2A74680   5.672  26.369   6.593
 5913POPC   C3A74681   5.888  26.165   6.926
 5913POPC   C4A74682   5.771  26.201   7.388
 5913POPC   C1B74683   6.025  25.862   6.405
 5913POPC   C2B74684   6.181  25.735   6.823
 5913POPC   C3B74685   5.955  25.737   7.209
 5913POPC   C4B74686   6.066  25.832   7.611
 5914POPC   NC374687  20.695   1.396   5.374
 5914POPC   PO474688  20.054   1.414   5.245
 5914POPC   GL174689  20.353   1.176   5.653
 5914POPC   GL274690  20.711   1.307   5.851
 5914POPC   C1A74691  20.385   1.067   6.132
 5914POPC   D2A74692  20.383   1.232   6.568
 5914POPC   C3A74693  20.415   1.017   6.942
 5914POPC   C4A74694  20.710   0.941   7.246
 5914POPC   C1B74695  20.951   1.419   6.213
 5914POPC   C2B74696  20.980   1.283   6.623
 5914POPC   C3B74697  20.787   1.391   6.983
 5914POPC   C4B74698  20.811   1.642   7.317
 5915POPC   NC374699  28.961  11.435   5.428
 5915POPC   PO474700  29.242  10.860   5.424
 5915POPC   GL174701  29.078  11.056   5.798
 5915POPC   GL274702  29.223  11.393   5.869
 5915POPC   C1A74703  28.809  11.249   6.123
 5915POPC   D2A74704  28.853  11.481   6.518
 5915POPC   C3A74705  29.086  11.285   6.849
 5915POPC   C4A74706  28.902  11.457   7.196
 5915POPC   C1B74707  29.262  11.257   6.302
 5915POPC   C2B74708  29.404  11.570   6.556
 5915POPC   C3B74709  29.554  11.610   6.977
 5915POPC   C4B74710  29.384  11.378   7.320
 5916POPC   NC374711   6.769   0.926   5.601
 5916POPC   PO474712   6.719   0.274   5.687
 5916POPC   GL174713   6.325   0.330   5.938
 5916POPC   GL274714   6.311   0.699   5.891
 5916POPC   C1A74715   6.394   0.205   6.375
 5916POPC   D2A74716   6.823   0.201   6.587
 5916POPC   C3A74717   6.718   0.181   6.997
 5916POPC   C4A74718   6.321   0.381   7.041
 5916POPC   C1B74719   6.609   0.655   6.259
 5916POPC   C2B74720   6.621   0.639   6.722
 5916POPC   C3B74721   6.753   0.686   7.164
 5916POPC   C4B74722   6.987   0.707   7.581
 5917POPC   NC374723  22.000  23.175   5.490
 5917POPC   PO474724  22.634  22.979   5.473
 5917POPC   GL174725  22.336  22.939   5.811
 5917POPC   GL274726  22.034  22.688   5.787
 5917POPC   C1A74727  22.100  23.006   6.193
 5917POPC   D2A74728  21.965  22.880   6.606
 5917POPC   C3A74729  22.087  23.113   6.992
 5917POPC   C4A74730  22.326  23.105   7.371
 5917POPC   C1B74731  21.774  22.585   6.190
 5917POPC   C2B74732  21.517  22.643   6.618
 5917POPC   C3B74733  21.721  22.697   7.042
 5917POPC   C4B74734  21.899  22.609   7.452
 5918POPC   NC374735   8.453  20.140   5.554
 5918POPC   PO474736   8.232  20.783   5.426
 5918POPC   GL174737   7.998  20.799   5.814
 5918POPC   GL274738   7.960  20.419   5.766
 5918POPC   C1A74739   8.089  20.898   6.272
 5918POPC   D2A74740   8.447  20.865   6.572
 5918POPC   C3A74741   8.390  20.798   7.033
 5918POPC   C4A74742   8.072  20.554   7.324
 5918POPC   C1B74743   8.278  20.457   6.086
 5918POPC   C2B74744   8.259  20.358   6.486
 5918POPC   C3B74745   8.232  20.304   6.924
 5918POPC   C4B74746   8.573  20.386   7.280
 5919POPC   NC374747  43.014   7.748   5.425
 5919POPC   PO474748  43.281   7.172   5.502
 5919POPC   GL174749  43.248   7.436   5.841
 5919POPC   GL274750  42.890   7.499   5.839
 5919POPC   C1A74751  43.109   7.250   6.240
 5919POPC   D2A74752  42.833   7.378   6.581
 5919POPC   C3A74753  43.100   7.429   6.921
 5919POPC   C4A74754  43.330   7.125   7.188
 5919POPC   C1B74755  42.949   7.714   6.211
 5919POPC   C2B74756  43.278   7.698   6.507
 5919POPC   C3B74757  43.336   7.869   6.905
 5919POPC   C4B74758  43.302   7.675   7.315
 5920POPC   NC374759  20.653  26.085   5.407
 5920POPC   PO474760  21.169  26.336   5.812
 5920POPC   GL174761  20.743  26.193   5.971
 5920POPC   GL274762  20.375  26.238   5.844
 5920POPC   C1A74763  20.712  25.994   6.388
 5920POPC   D2A74764  20.826  25.955   6.828
 5920POPC   C3A74765  20.842  26.309   7.077
 5920POPC   C4A74766  20.708  26.321   7.512
 5920POPC   C1B74767  20.235  26.038   6.236
 5920POPC   C2B74768  20.347  26.164   6.694
 5920POPC   C3B74769  20.352  26.182   7.131
 5920POPC   C4B74770  20.212  26.520   7.415
 5921POPC   NC374771  32.626  40.747   5.362
 5921POPC   PO474772  31.962  40.853   5.348
 5921POPC   GL174773  32.187  40.863   5.763
 5921POPC   GL274774  32.523  40.738   5.845
 5921POPC   C1A74775  32.272  41.037   6.185
 5921POPC   D2A74776  32.147  40.861   6.551
 5921POPC   C3A74777  32.152  41.105   6.893
 5921POPC   C4A74778  32.127  41.276   7.257
 5921POPC   C1B74779  32.456  40.556   6.225
 5921POPC   C2B74780  32.505  40.439   6.628
 5921POPC   C3B74781  32.418  40.655   6.968
 5921POPC   C4B74782  32.238  40.792   7.315
 5922POPC   NC374783  34.812  10.712   5.532
 5922POPC   PO474784  34.339  10.260   5.332
 5922POPC   GL174785  34.368  10.533   5.736
 5922POPC   GL274786  34.660  10.385   5.881
 5922POPC   C1A74787  34.457  10.745   6.164
 5922POPC   D2A74788  34.696  10.738   6.567
 5922POPC   C3A74789  34.544  10.660   6.979
 5922POPC   C4A74790  34.396  10.990   7.224
 5922POPC   C1B74791  34.812  10.274   6.286
 5922POPC   C2B74792  34.710  10.224   6.719
 5922POPC   C3B74793  34.820  10.168   7.132
 5922POPC   C4B74794  34.869  10.265   7.557
 5923POPC   NC374795   9.880  39.220   5.368
 5923POPC   PO474796   9.274  39.420   5.587
 5923POPC   GL174797   9.663  39.298   5.834
 5923POPC   GL274798   9.942  39.549   5.770
 5923POPC   C1A74799   9.759  39.006   6.201
 5923POPC   D2A74800   9.804  38.977   6.663
 5923POPC   C3A74801   9.602  39.276   6.940
 5923POPC   C4A74802   9.476  39.173   7.331
 5923POPC   C1B74803  10.116  39.410   6.173
 5923POPC   C2B74804  10.154  39.533   6.616
 5923POPC   C3B74805  10.090  39.313   7.002
 5923POPC   C4B74806   9.915  39.408   7.393
 5924POPC   NC374807  12.427  15.600   5.639
 5924POPC   PO474808  12.140  15.098   5.210
 5924POPC   GL174809  11.929  15.161   5.695
 5924POPC   GL274810  12.176  15.243   5.918
 5924POPC   C1A74811  11.734  15.106   6.138
 5924POPC   D2A74812  11.918  14.887   6.487
 5924POPC   C3A74813  11.853  15.057   6.887
 5924POPC   C4A74814  12.051  15.035   7.259
 5924POPC   C1B74815  12.110  15.395   6.338
 5924POPC   C2B74816  12.311  15.160   6.661
 5924POPC   C3B74817  12.473  15.224   7.029
 5924POPC   C4B74818  12.419  15.376   7.414
 5925POPC   NC374819   0.641  31.653   5.357
 5925POPC   PO474820   0.193  31.198   5.292
 5925POPC   GL174821   0.516  31.315   5.712
 5925POPC   GL274822   0.497  31.666   5.845
 5925POPC   C1A74823   0.462  31.336   6.211
 5925POPC   D2A74824   0.648  31.425   6.616
 5925POPC   C3A74825   0.572  31.113   6.908
 5925POPC   C4A74826   0.334  31.237   7.238
 5925POPC   C1B74827   0.307  31.810   6.230
 5925POPC   C2B74828   0.426  31.892   6.641
 5925POPC   C3B74829   0.410  31.705   7.017
 5925POPC   C4B74830   0.336  31.816   7.427
 5926POPC   NC374831  10.201  43.437   5.498
 5926POPC   PO474832  10.794  43.211   5.615
 5926POPC   GL174833  10.593  43.072   5.979
 5926POPC   GL274834  10.285  43.212   6.019
 5926POPC   C1A74835  10.433  42.732   6.241
 5926POPC   D2A74836  10.121  42.686   6.582
 5926POPC   C3A74837  10.305  42.905   6.933
 5926POPC   C4A74838  10.516  42.990   7.319
 5926POPC   C1B74839  10.337  43.478   6.360
 5926POPC   C2B74840  10.332  43.444   6.792
 5926POPC   C3B74841  10.163  43.341   7.163
 5926POPC   C4B74842  10.256  43.366   7.571
 5927POPC   NC374843  21.468  23.849   5.455
 5927POPC   PO474844  20.939  23.438   5.368
 5927POPC   GL174845  21.163  23.621   5.806
 5927POPC   GL274846  21.579  23.695   5.918
 5927POPC   C1A74847  21.274  23.489   6.238
 5927POPC   D2A74848  21.425  23.706   6.582
 5927POPC   C3A74849  21.319  23.495   6.954
 5927POPC   C4A74850  21.427  23.603   7.346
 5927POPC   C1B74851  21.795  23.962   6.258
 5927POPC   C2B74852  21.868  23.995   6.717
 5927POPC   C3B74853  21.626  24.022   7.121
 5927POPC   C4B74854  21.719  23.940   7.591
 5928POPC   NC374855  33.234  18.944   5.328
 5928POPC   PO474856  33.137  19.502   5.654
 5928POPC   GL174857  32.893  19.198   5.906
 5928POPC   GL274858  32.692  18.887   5.789
 5928POPC   C1A74859  33.075  19.150   6.280
 5928POPC   D2A74860  33.088  19.333   6.671
 5928POPC   C3A74861  33.096  19.065   7.027
 5928POPC   C4A74862  33.343  18.963   7.384
 5928POPC   C1B74863  32.634  18.886   6.248
 5928POPC   C2B74864  32.624  19.123   6.588
 5928POPC   C3B74865  32.619  19.218   6.979
 5928POPC   C4B74866  32.593  18.923   7.251
 5929POPC   NC374867  42.882  17.241   5.593
 5929POPC   PO474868  43.505  17.299   5.451
 5929POPC   GL174869  43.259  17.522   5.795
 5929POPC   GL274870  43.366  17.837   5.940
 5929POPC   C1A74871  42.988  17.490   6.193
 5929POPC   D2A74872  42.698  17.338   6.528
 5929POPC   C3A74873  42.917  17.318   6.932
 5929POPC   C4A74874  42.893  17.672   7.214
 5929POPC   C1B74875  43.494  17.572   6.276
 5929POPC   C2B74876  43.485  17.333   6.642
 5929POPC   C3B74877  43.372  17.554   7.011
 5929POPC   C4B74878  43.359  17.862   7.355
 5930POPC   NC374879  40.837  31.875   5.625
 5930POPC   PO474880  41.130  31.307   5.319
 5930POPC   GL174881  41.024  31.374   5.792
 5930POPC   GL274882  40.679  31.468   5.899
 5930POPC   C1A74883  41.143  31.464   6.258
 5930POPC   D2A74884  41.253  31.469   6.730
 5930POPC   C3A74885  40.876  31.554   6.994
 5930POPC   C4A74886  40.460  31.444   7.214
 5930POPC   C1B74887  40.674  31.728   6.280
 5930POPC   C2B74888  40.562  31.988   6.649
 5930POPC   C3B74889  40.580  31.939   7.097
 5930POPC   C4B74890  40.969  31.919   7.365
 5931POPC   NC374891  30.155  33.245   5.435
 5931POPC   PO474892  30.197  32.558   5.481
 5931POPC   GL174893  29.976  32.882   5.773
 5931POPC   GL274894  30.254  32.972   5.918
 5931POPC   C1A74895  29.909  33.185   6.205
 5931POPC   D2A74896  30.007  33.457   6.588
 5931POPC   C3A74897  30.124  33.272   6.995
 5931POPC   C4A74898  29.846  33.064   7.337
 5931POPC   C1B74899  29.996  32.689   6.258
 5931POPC   C2B74900  30.069  32.815   6.711
 5931POPC   C3B74901  30.223  32.792   7.146
 5931POPC   C4B74902  30.080  32.586   7.518
 5932POPC   NC374903  14.007   9.243   5.154
 5932POPC   PO474904  14.530   8.968   5.432
 5932POPC   GL174905  14.292   9.056   5.813
 5932POPC   GL274906  14.294   8.751   6.047
 5932POPC   C1A74907  14.010   9.150   6.171
 5932POPC   D2A74908  14.325   9.143   6.503
 5932POPC   C3A74909  14.187   9.081   6.924
 5932POPC   C4A74910  14.412   9.304   7.216
 5932POPC   C1B74911  14.330   8.608   6.532
 5932POPC   C2B74912  14.666   8.434   6.824
 5932POPC   C3B74913  14.687   8.498   7.250
 5932POPC   C4B74914  14.359   8.795   7.360
 5933POPC   NC374915   2.455   1.179   5.517
 5933POPC   PO474916   2.915   0.755   5.292
 5933POPC   GL174917   2.841   0.928   5.746
 5933POPC   GL274918   2.550   0.908   5.963
 5933POPC   C1A74919   2.929   1.198   6.121
 5933POPC   D2A74920   3.087   1.248   6.536
 5933POPC   C3A74921   2.854   1.262   6.922
 5933POPC   C4A74922   3.008   1.229   7.339
 5933POPC   C1B74923   2.510   1.070   6.379
 5933POPC   C2B74924   2.355   1.204   6.749
 5933POPC   C3B74925   2.393   1.038   7.150
 5933POPC   C4B74926   2.638   0.956   7.539
 5934POPC   NC374927  19.887   6.338   5.402
 5934POPC   PO474928  19.770   7.007   5.540
 5934POPC   GL174929  19.908   6.654   5.809
 5934POPC   GL274930  19.645   6.384   5.838
 5934POPC   C1A74931  19.963   6.540   6.230
 5934POPC   D2A74932  19.970   6.736   6.617
 5934POPC   C3A74933  20.078   6.524   6.982
 5934POPC   C4A74934  19.783   6.755   7.202
 5934POPC   C1B74935  19.395   6.414   6.195
 5934POPC   C2B74936  19.340   6.347   6.607
 5934POPC   C3B74937  19.391   6.515   7.000
 5934POPC   C4B74938  19.258   6.425   7.398
 5935POPC   NC374939  15.948  41.166   5.044
 5935POPC   PO474940  15.692  40.620   5.409
 5935POPC   GL174941  15.907  40.594   5.829
 5935POPC   GL274942  15.604  40.704   5.996
 5935POPC   C1A74943  16.061  40.782   6.263
 5935POPC   D2A74944  16.151  40.981   6.686
 5935POPC   C3A74945  15.988  40.777   7.075
 5935POPC   C4A74946  16.145  40.899   7.490
 5935POPC   C1B74947  15.645  41.082   6.262
 5935POPC   C2B74948  15.605  40.967   6.662
 5935POPC   C3B74949  15.658  41.151   7.027
 5935POPC   C4B74950  15.628  40.953   7.412
 5936POPC   NC374951  14.786   4.461   5.228
 5936POPC   PO474952  14.117   4.401   5.302
 5936POPC   GL174953  14.453   4.370   5.633
 5936POPC   GL274954  14.671   4.128   5.790
 5936POPC   C1A74955  14.447   4.495   6.070
 5936POPC   D2A74956  14.377   4.372   6.517
 5936POPC   C3A74957  14.560   4.564   6.889
 5936POPC   C4A74958  14.463   4.477   7.305
 5936POPC   C1B74959  14.435   3.966   6.139
 5936POPC   C2B74960  14.554   3.886   6.550
 5936POPC   C3B74961  14.506   4.038   6.968
 5936POPC   C4B74962  14.643   4.032   7.408
 5937POPC   NC374963  41.470   0.939   5.565
 5937POPC   PO474964  41.893   1.456   5.505
 5937POPC   GL174965  41.691   1.284   5.863
 5937POPC   GL274966  41.916   1.014   5.870
 5937POPC   C1A74967  41.338   1.236   6.196
 5937POPC   D2A74968  41.292   1.472   6.590
 5937POPC   C3A74969  41.503   1.360   6.955
 5937POPC   C4A74970  41.481   1.080   7.281
 5937POPC   C1B74971  41.681   0.871   6.208
 5937POPC   C2B74972  41.537   0.962   6.619
 5937POPC   C3B74973  41.841   0.954   6.962
 5937POPC   C4B74974  42.153   0.934   7.272
 5938POPC   NC374975  33.536   0.344   5.423
 5938POPC   PO474976  34.208   0.687   5.430
 5938POPC   GL174977  33.966   0.573   5.802
 5938POPC   GL274978  33.612   0.639   5.845
 5938POPC   C1A74979  34.026   0.661   6.245
 5938POPC   D2A74980  33.900   0.398   6.592
 5938POPC   C3A74981  34.053   0.487   6.964
 5938POPC   C4A74982  34.097   0.043   7.060
 5938POPC   C1B74983  33.544   0.537   6.242
 5938POPC   C2B74984  33.583   0.779   6.591
 5938POPC   C3B74985  33.506   0.589   6.954
 5938POPC   C4B74986  33.695   0.562   7.326
 5939POPC   NC374987  35.258  10.209   5.107
 5939POPC   PO474988  35.288  10.784   5.441
 5939POPC   GL174989  35.434  10.691   5.834
 5939POPC   GL274990  35.180  10.473   5.924
 5939POPC   C1A74991  35.590  10.532   6.223
 5939POPC   D2A74992  35.640  10.711   6.591
 5939POPC   C3A74993  35.616  10.452   6.938
 5939POPC   C4A74994  35.513  10.697   7.282
 5939POPC   C1B74995  35.015  10.735   6.169
 5939POPC   C2B74996  35.167  10.558   6.526
 5939POPC   C3B74997  35.109  10.552   6.935
 5939POPC   C4B74998  34.952  10.720   7.299
 5940POPC   NC374999  27.659  43.645   5.571
 5940POPC   PO475000  27.982  44.191   5.387
 5940POPC   GL175001  27.801  44.164   5.781
 5940POPC   GL275002  28.016  43.899   5.890
 5940POPC   C1A75003  27.603  44.069   6.187
 5940POPC   D2A75004  27.567  43.814   6.571
 5940POPC   C3A75005  27.688  44.026   6.938
 5940POPC   C4A75006  27.383  44.078   7.212
 5940POPC   C1B75007  27.882  43.603   6.210
 5940POPC   C2B75008  27.894  43.397   6.611
 5940POPC   C3B75009  27.687  43.526   6.987
 5940POPC   C4B75010  27.770  43.648   7.365
 5941POPC   NC375011  11.165   6.613   5.471
 5941POPC   PO475012  11.805   6.567   5.275
 5941POPC   GL175013  11.590   6.743   5.719
 5941POPC   GL275014  11.315   7.001   5.773
 5941POPC   C1A75015  11.500   6.709   6.183
 5941POPC   D2A75016  11.684   6.605   6.615
 5941POPC   C3A75017  11.395   6.568   6.987
 5941POPC   C4A75018  11.234   6.353   7.381
 5941POPC   C1B75019  11.194   7.127   6.185
 5941POPC   C2B75020  11.298   6.981   6.616
 5941POPC   C3B75021  11.169   7.047   7.043
 5941POPC   C4B75022  10.919   6.755   7.282
 5942POPC   NC375023  13.460  24.211   5.510
 5942POPC   PO475024  13.903  24.739   5.294
 5942POPC   GL175025  13.826  24.560   5.732
 5942POPC   GL275026  13.781  24.202   5.887
 5942POPC   C1A75027  13.763  24.674   6.163
 5942POPC   D2A75028  13.508  24.661   6.535
 5942POPC   C3A75029  13.787  24.584   6.834
 5942POPC   C4A75030  13.878  24.658   7.221
 5942POPC   C1B75031  13.560  24.195   6.278
 5942POPC   C2B75032  13.658  24.083   6.715
 5942POPC   C3B75033  13.532  24.256   7.135
 5942POPC   C4B75034  13.179  24.515   7.211
 5943POPC   NC375035  24.647  25.470   5.349
 5943POPC   PO475036  24.156  24.993   5.546
 5943POPC   GL175037  24.540  25.109   5.729
 5943POPC   GL275038  24.441  25.424   5.809
 5943POPC   C1A75039  24.627  25.046   6.165
 5943POPC   D2A75040  24.353  25.134   6.507
 5943POPC   C3A75041  24.559  25.202   6.874
 5943POPC   C4A75042  24.548  24.962   7.244
 5943POPC   C1B75043  24.467  25.536   6.211
 5943POPC   C2B75044  24.250  25.721   6.537
 5943POPC   C3B75045  24.194  25.596   6.916
 5943POPC   C4B75046  24.498  25.577   7.234
 5944POPC   NC375047  10.947   7.294   5.508
 5944POPC   PO475048  11.570   7.312   5.475
 5944POPC   GL175049  11.438   7.608   5.800
 5944POPC   GL275050  11.088   7.681   5.830
 5944POPC   C1A75051  11.473   7.564   6.238
 5944POPC   D2A75052  11.191   7.475   6.572
 5944POPC   C3A75053  11.425   7.478   6.926
 5944POPC   C4A75054  11.529   7.325   7.333
 5944POPC   C1B75055  11.067   7.876   6.227
 5944POPC   C2B75056  11.285   7.978   6.591
 5944POPC   C3B75057  11.106   7.898   6.979
 5944POPC   C4B75058  11.095   7.605   7.302
 5945POPC   NC375059   7.775  17.284   5.511
 5945POPC   PO475060   7.139  17.437   5.563
 5945POPC   GL175061   7.241  17.374   5.976
 5945POPC   GL275062   7.585  17.460   5.944
 5945POPC   C1A75063   7.173  17.429   6.443
 5945POPC   D2A75064   7.319  17.644   6.843
 5945POPC   C3A75065   7.432  17.380   7.202
 5945POPC   C4A75066   7.283  17.316   7.624
 5945POPC   C1B75067   7.817  17.776   6.180
 5945POPC   C2B75068   7.765  17.902   6.617
 5945POPC   C3B75069   7.830  17.866   7.047
 5945POPC   C4B75070   7.616  17.792   7.435
 5946POPC   NC375071  40.007  31.134   5.406
 5946POPC   PO475072  40.475  31.644   5.430
 5946POPC   GL175073  40.183  31.540   5.775
 5946POPC   GL275074  40.227  31.184   5.879
 5946POPC   C1A75075  40.184  31.583   6.241
 5946POPC   D2A75076  40.383  31.505   6.664
 5946POPC   C3A75077  40.104  31.721   6.953
 5946POPC   C4A75078  39.735  31.527   7.142
 5946POPC   C1B75079  39.842  31.195   6.152
 5946POPC   C2B75080  39.641  31.019   6.511
 5946POPC   C3B75081  39.769  31.054   6.940
 5946POPC   C4B75082  40.036  31.140   7.302
 5947POPC   NC375083  16.257   6.834   5.080
 5947POPC   PO475084  16.861   6.757   5.371
 5947POPC   GL175085  16.830   6.720   5.824
 5947POPC   GL275086  17.054   6.466   5.818
 5947POPC   C1A75087  16.665   6.785   6.268
 5947POPC   D2A75088  16.445   6.950   6.631
 5947POPC   C3A75089  16.455   6.706   7.010
 5947POPC   C4A75090  16.728   6.663   7.338
 5947POPC   C1B75091  17.098   6.513   6.265
 5947POPC   C2B75092  16.931   6.551   6.698
 5947POPC   C3B75093  17.039   6.351   7.086
 5947POPC   C4B75094  16.883   6.183   7.475
 5948POPC   NC375095  14.958  42.372   5.410
 5948POPC   PO475096  15.609  42.261   5.440
 5948POPC   GL175097  15.305  42.413   5.795
 5948POPC   GL275098  14.976  42.230   5.903
 5948POPC   C1A75099  15.366  42.643   6.173
 5948POPC   D2A75100  15.547  42.520   6.553
 5948POPC   C3A75101  15.308  42.410   6.893
 5948POPC   C4A75102  15.353  42.534   7.280
 5948POPC   C1B75103  14.949  42.408   6.360
 5948POPC   C2B75104  14.821  42.517   6.805
 5948POPC   C3B75105  14.829  42.406   7.268
 5948POPC   C4B75106  14.766  42.084   7.635
 5949POPC   NC375107  21.636  15.031   5.471
 5949POPC   PO475108  21.003  15.304   5.382
 5949POPC   GL175109  21.282  15.272   5.754
 5949POPC   GL275110  21.107  14.981   5.813
 5949POPC   C1A75111  21.460  15.094   6.162
 5949POPC   D2A75112  21.252  15.051   6.598
 5949POPC   C3A75113  21.558  15.152   6.910
 5949POPC   C4A75114  21.571  15.353   7.297
 5949POPC   C1B75115  21.000  14.805   6.210
 5949POPC   C2B75116  20.883  14.616   6.620
 5949POPC   C3B75117  20.891  14.811   7.050
 5949POPC   C4B75118  21.298  14.915   7.274
 5950POPC   NC375119  14.211  18.109   5.370
 5950POPC   PO475120  14.658  18.663   5.397
 5950POPC   GL175121  14.439  18.417   5.727
 5950POPC   GL275122  14.300  18.085   5.876
 5950POPC   C1A75123  14.629  18.435   6.130
 5950POPC   D2A75124  14.556  18.419   6.554
 5950POPC   C3A75125  14.490  18.359   6.997
 5950POPC   C4A75126  14.095  18.181   7.148
 5950POPC   C1B75127  14.459  17.960   6.272
 5950POPC   C2B75128  14.574  17.931   6.713
 5950POPC   C3B75129  14.475  17.833   7.134
 5950POPC   C4B75130  14.384  17.850   7.590
 5951POPC   NC375131  22.462  35.306   5.395
 5951POPC   PO475132  21.857  35.037   5.459
 5951POPC   GL175133  22.146  35.303   5.793
 5951POPC   GL275134  22.466  35.565   5.824
 5951POPC   C1A75135  22.426  35.179   6.160
 5951POPC   D2A75136  22.223  35.222   6.556
 5951POPC   C3A75137  22.429  35.107   6.938
 5951POPC   C4A75138  22.425  35.266   7.357
 5951POPC   C1B75139  22.219  35.646   6.183
 5951POPC   C2B75140  22.228  35.761   6.602
 5951POPC   C3B75141  22.227  35.597   7.019
 5951POPC   C4B75142  22.020  35.752   7.390
 5952POPC   NC375143   1.419   6.566   5.363
 5952POPC   PO475144   0.871   6.946   5.338
 5952POPC   GL175145   1.046   6.756   5.725
 5952POPC   GL275146   1.390   6.861   5.779
 5952POPC   C1A75147   1.009   6.829   6.169
 5952POPC   D2A75148   1.070   6.554   6.509
 5952POPC   C3A75149   0.992   6.591   6.931
 5952POPC   C4A75150   1.179   6.736   7.277
 5952POPC   C1B75151   1.390   6.494   6.062
 5952POPC   C2B75152   1.582   6.636   6.419
 5952POPC   C3B75153   1.606   6.684   6.846
 5952POPC   C4B75154   1.464   6.377   7.080
 5953POPC   NC375155  42.261  16.230   5.035
 5953POPC   PO475156  42.181  15.847   5.537
 5953POPC   GL175157  42.296  15.848   5.923
 5953POPC   GL275158  41.980  15.635   5.961
 5953POPC   C1A75159  42.380  15.802   6.342
 5953POPC   D2A75160  42.272  16.077   6.684
 5953POPC   C3A75161  42.329  15.913   7.058
 5953POPC   C4A75162  42.199  16.240   7.319
 5953POPC   C1B75163  41.850  15.620   6.352
 5953POPC   C2B75164  42.079  15.571   6.692
 5953POPC   C3B75165  41.964  15.544   7.083
 5953POPC   C4B75166  42.307  15.440   7.325
 5954POPC   NC375167  43.997  35.684   5.469
 5954POPC   PO475168  43.807  35.130   5.387
 5954POPC   GL175169  44.072  35.180   5.730
 5954POPC   GL275170  44.069  35.490   5.952
 5954POPC   C1A75171  44.056  34.976   6.120
 5954POPC   D2A75172  44.126  35.066   6.531
 5954POPC   C3A75173  43.804  35.241   6.752
 5954POPC   C4A75174  43.755  35.274   7.256
 5954POPC   C1B75175  43.729  35.775   6.128
 5954POPC   C2B75176  43.613  35.669   6.550
 5954POPC   C3B75177  43.885  35.707   6.972
 5954POPC   C4B75178  44.139  35.934   7.322
 5955POPC   NC375179  15.835   6.116   5.332
 5955POPC   PO475180  15.719   5.471   5.339
 5955POPC   GL175181  15.633   5.776   5.705
 5955POPC   GL275182  15.932   5.963   5.826
 5955POPC   C1A75183  15.536   5.915   6.148
 5955POPC   D2A75184  15.774   5.875   6.509
 5955POPC   C3A75185  15.678   5.870   6.935
 5955POPC   C4A75186  15.764   5.692   7.360
 5955POPC   C1B75187  16.153   6.086   6.229
 5955POPC   C2B75188  16.256   5.944   6.682
 5955POPC   C3B75189  16.215   5.812   7.140
 5955POPC   C4B75190  16.207   5.459   7.481
 5956POPC   NC375191  32.427   2.257   5.536
 5956POPC   PO475192  32.119   2.826   5.304
 5956POPC   GL175193  32.243   2.790   5.738
 5956POPC   GL275194  32.593   2.709   5.819
 5956POPC   C1A75195  32.217   3.072   6.082
 5956POPC   D2A75196  32.205   3.126   6.526
 5956POPC   C3A75197  32.433   2.862   6.823
 5956POPC   C4A75198  32.422   2.974   7.264
 5956POPC   C1B75199  32.483   2.686   6.284
 5956POPC   C2B75200  32.180   2.488   6.557
 5956POPC   C3B75201  32.256   2.299   6.932
 5956POPC   C4B75202  32.582   2.488   7.178
 5957POPC   NC375203  30.211  38.676   5.672
 5957POPC   PO475204  29.744  38.207   5.496
 5957POPC   GL175205  29.823  38.396   5.908
 5957POPC   GL275206  30.164  38.257   5.944
 5957POPC   C1A75207  30.015  38.599   6.310
 5957POPC   D2A75208  30.306  38.594   6.677
 5957POPC   C3A75209  30.128  38.642   7.093
 5957POPC   C4A75210  29.875  38.508   7.445
 5957POPC   C1B75211  30.392  38.208   6.321
 5957POPC   C2B75212  30.366  38.040   6.729
 5957POPC   C3B75213  30.360  38.172   7.133
 5957POPC   C4B75214  30.349  38.354   7.529
 5958POPC   NC375215  23.039  24.968   5.515
 5958POPC   PO475216  22.613  25.520   5.390
 5958POPC   GL175217  22.723  25.495   5.819
 5958POPC   GL275218  22.903  25.191   5.933
 5958POPC   C1A75219  23.038  25.616   6.146
 5958POPC   D2A75220  23.260  25.514   6.529
 5958POPC   C3A75221  23.112  25.519   6.980
 5958POPC   C4A75222  22.783  25.292   7.235
 5958POPC   C1B75223  22.798  24.897   6.244
 5958POPC   C2B75224  22.687  24.783   6.619
 5958POPC   C3B75225  22.899  24.879   6.961
 5958POPC   C4B75226  22.650  24.744   7.255
 5959POPC   NC375227  36.828  31.557   5.388
 5959POPC   PO475228  37.386  31.573   5.165
 5959POPC   GL175229  37.226  31.485   5.682
 5959POPC   GL275230  37.054  31.737   5.898
 5959POPC   C1A75231  37.195  31.277   6.114
 5959POPC   D2A75232  36.898  31.173   6.467
 5959POPC   C3A75233  36.873  31.334   6.892
 5959POPC   C4A75234  36.785  31.112   7.233
 5959POPC   C1B75235  36.848  31.705   6.349
 5959POPC   C2B75236  36.697  31.786   6.805
 5959POPC   C3B75237  36.577  31.660   7.290
 5959POPC   C4B75238  36.327  31.610   7.725
 5960POPC   NC375239  13.264  35.951   5.520
 5960POPC   PO475240  13.603  36.503   5.534
 5960POPC   GL175241  13.815  36.156   5.818
 5960POPC   GL275242  13.552  35.914   5.943
 5960POPC   C1A75243  14.006  35.881   6.173
 5960POPC   D2A75244  13.978  35.799   6.626
 5960POPC   C3A75245  13.742  36.136   6.844
 5960POPC   C4A75246  13.551  36.257   7.229
 5960POPC   C1B75247  13.388  35.646   6.280
 5960POPC   C2B75248  13.490  35.555   6.724
 5960POPC   C3B75249  13.515  35.772   7.129
 5960POPC   C4B75250  13.518  35.744   7.594
 5961POPC   NC375251   4.726  44.568   5.273
 5961POPC   PO475252   5.355  44.418   5.389
 5961POPC   GL175253   5.180  44.373   5.779
 5961POPC   GL275254   5.010  44.695   5.801
 5961POPC   C1A75255   5.098  44.315   6.212
 5961POPC   D2A75256   5.120  44.573   6.576
 5961POPC   C3A75257   5.010  44.612   6.993
 5961POPC   C4A75258   5.187  44.401   7.353
 5961POPC   C1B75259   4.861  44.831   6.219
 5961POPC   C2B75260   4.862   0.032   6.658
 5961POPC   C3B75261   4.716   0.024   7.113
 5961POPC   C4B75262   4.919  44.834   7.471
 5962POPC   NC375263  14.035   7.843   5.667
 5962POPC   PO475264  13.742   8.356   5.390
 5962POPC   GL175265  13.673   8.242   5.826
 5962POPC   GL275266  13.748   8.623   5.884
 5962POPC   C1A75267  13.690   7.982   6.260
 5962POPC   D2A75268  13.877   7.797   6.665
 5962POPC   C3A75269  13.850   8.062   7.078
 5962POPC   C4A75270  13.775   7.983   7.535
 5962POPC   C1B75271  13.488   8.449   6.256
 5962POPC   C2B75272  13.436   8.600   6.672
 5962POPC   C3B75273  13.520   8.458   7.071
 5962POPC   C4B75274  13.358   8.065   7.234
 5963POPC   NC375275  38.720  13.205   5.323
 5963POPC   PO475276  38.439  12.648   5.615
 5963POPC   GL175277  38.373  12.928   5.906
 5963POPC   GL275278  38.690  13.131   5.854
 5963POPC   C1A75279  38.169  12.853   6.305
 5963POPC   D2A75280  38.150  13.145   6.641
 5963POPC   C3A75281  38.160  13.022   7.074
 5963POPC   C4A75282  38.541  13.167   7.288
 5963POPC   C1B75283  38.796  12.777   6.143
 5963POPC   C2B75284  38.783  12.548   6.512
 5963POPC   C3B75285  38.614  12.717   6.899
 5963POPC   C4B75286  38.835  12.748   7.281
 5964POPC   NC375287   7.804  27.813   5.540
 5964POPC   PO475288   8.328  27.459   5.456
 5964POPC   GL175289   8.138  27.518   5.850
 5964POPC   GL275290   8.388  27.808   5.874
 5964POPC   C1A75291   8.005  27.447   6.297
 5964POPC   D2A75292   8.324  27.605   6.626
 5964POPC   C3A75293   8.245  27.433   7.057
 5964POPC   C4A75294   7.888  27.217   7.183
 5964POPC   C1B75295   8.135  27.932   6.229
 5964POPC   C2B75296   8.163  28.078   6.649
 5964POPC   C3B75297   8.243  27.941   7.045
 5964POPC   C4B75298   8.407  27.861   7.471
 5965POPC   NC375299  22.271  25.215   5.251
 5965POPC   PO475300  21.867  25.653   5.570
 5965POPC   GL175301  22.189  25.421   5.849
 5965POPC   GL275302  22.397  25.128   6.023
 5965POPC   C1A75303  22.046  25.357   6.268
 5965POPC   D2A75304  22.024  25.062   6.562
 5965POPC   C3A75305  21.777  25.321   6.820
 5965POPC   C4A75306  21.851  25.328   7.240
 5965POPC   C1B75307  22.607  25.385   6.312
 5965POPC   C2B75308  22.728  25.309   6.702
 5965POPC   C3B75309  22.403  25.099   6.929
 5965POPC   C4B75310  22.297  25.100   7.328
 5966POPC   NC375311  24.436  34.860   5.578
 5966POPC   PO475312  24.783  34.312   5.439
 5966POPC   GL175313  24.599  34.443   5.855
 5966POPC   GL275314  24.240  34.364   5.840
 5966POPC   C1A75315  24.717  34.533   6.323
 5966POPC   D2A75316  24.476  34.708   6.674
 5966POPC   C3A75317  24.619  34.652   7.060
 5966POPC   C4A75318  24.573  34.273   7.232
 5966POPC   C1B75319  24.254  34.663   6.201
 5966POPC   C2B75320  24.008  34.882   6.470
 5966POPC   C3B75321  24.001  34.805   6.880
 5966POPC   C4B75322  24.216  34.851   7.269
 5967POPC   NC375323  34.010  41.429   5.396
 5967POPC   PO475324  33.663  42.042   5.598
 5967POPC   GL175325  33.891  41.730   5.828
 5967POPC   GL275326  33.625  41.562   5.901
 5967POPC   C1A75327  34.002  41.576   6.259
 5967POPC   D2A75328  33.903  41.805   6.651
 5967POPC   C3A75329  33.995  41.606   7.042
 5967POPC   C4A75330  33.934  41.650   7.500
 5967POPC   C1B75331  33.487  41.628   6.280
 5967POPC   C2B75332  33.595  41.353   6.602
 5967POPC   C3B75333  33.513  41.127   6.965
 5967POPC   C4B75334  33.589  41.372   7.277
 5968POPC   NC375335   7.584  10.982   5.377
 5968POPC   PO475336   7.317  11.579   5.395
 5968POPC   GL175337   7.301  11.311   5.761
 5968POPC   GL275338   7.646  11.324   5.774
 5968POPC   C1A75339   7.204  11.289   6.226
 5968POPC   D2A75340   7.184  11.081   6.646
 5968POPC   C3A75341   7.224  11.265   7.052
 5968POPC   C4A75342   7.258  11.295   7.487
 5968POPC   C1B75343   7.686  11.476   6.199
 5968POPC   C2B75344   7.675  11.295   6.614
 5968POPC   C3B75345   7.703  11.456   7.020
 5968POPC   C4B75346   7.593  11.685   7.423
 5969POPC   NC375347  21.360  25.582   5.440
 5969POPC   PO475348  21.791  25.021   5.303
 5969POPC   GL175349  21.672  25.186   5.756
 5969POPC   GL275350  21.636  25.476   5.974
 5969POPC   C1A75351  21.638  25.024   6.209
 5969POPC   D2A75352  21.336  25.139   6.532
 5969POPC   C3A75353  21.341  25.025   6.954
 5969POPC   C4A75354  21.130  25.041   7.329
 5969POPC   C1B75355  21.582  25.595   6.404
 5969POPC   C2B75356  21.191  25.639   6.650
 5969POPC   C3B75357  21.008  25.484   7.012
 5969POPC   C4B75358  21.375  25.475   7.245
 5970POPC   NC375359  33.594  18.191   5.551
 5970POPC   PO475360  34.198  18.359   5.674
 5970POPC   GL175361  33.998  18.109   5.955
 5970POPC   GL275362  33.884  17.837   5.761
 5970POPC   C1A75363  33.817  18.329   6.331
 5970POPC   D2A75364  33.542  18.426   6.697
 5970POPC   C3A75365  33.635  18.669   7.080
 5970POPC   C4A75366  33.438  18.456   7.458
 5970POPC   C1B75367  33.635  17.804   6.154
 5970POPC   C2B75368  33.808  17.868   6.550
 5970POPC   C3B75369  33.628  17.933   6.909
 5970POPC   C4B75370  33.772  18.188   7.203
 5971POPC   NC375371   5.380  43.897   5.504
 5971POPC   PO475372   4.715  44.241   5.602
 5971POPC   GL175373   4.843  43.867   5.819
 5971POPC   GL275374   5.176  43.875   5.948
 5971POPC   C1A75375   4.783  43.816   6.273
 5971POPC   D2A75376   4.794  44.136   6.592
 5971POPC   C3A75377   5.034  44.072   6.965
 5971POPC   C4A75378   4.955  43.926   7.379
 5971POPC   C1B75379   5.266  43.610   6.253
 5971POPC   C2B75380   5.091  43.589   6.677
 5971POPC   C3B75381   5.235  43.552   7.118
 5971POPC   C4B75382   5.265  43.557   7.585
 5972POPC   NC375383  13.985  25.823   5.368
 5972POPC   PO475384  14.508  26.206   5.523
 5972POPC   GL175385  14.287  26.030   5.835
 5972POPC   GL275386  14.399  26.313   6.028
 5972POPC   C1A75387  14.123  25.947   6.246
 5972POPC   D2A75388  14.353  25.894   6.609
 5972POPC   C3A75389  14.266  26.097   6.949
 5972POPC   C4A75390  13.996  26.036   7.244
 5972POPC   C1B75391  14.788  26.387   6.289
 5972POPC   C2B75392  14.801  26.147   6.633
 5972POPC   C3B75393  14.847  26.323   6.984
 5972POPC   C4B75394  14.595  26.299   7.276
 5973POPC   NC375395  30.099  39.440   5.422
 5973POPC   PO475396  29.801  38.893   5.745
 5973POPC   GL175397  29.920  39.261   5.903
 5973POPC   GL275398  30.263  39.174   5.823
 5973POPC   C1A75399  29.819  39.438   6.323
 5973POPC   D2A75400  29.730  39.524   6.773
 5973POPC   C3A75401  29.687  39.304   7.177
 5973POPC   C4A75402  29.398  39.388   7.556
 5973POPC   C1B75403  30.294  39.211   6.251
 5973POPC   C2B75404  30.089  39.104   6.630
 5973POPC   C3B75405  30.238  39.257   7.009
 5973POPC   C4B75406  30.338  39.029   7.374
 5974POPC   NC375407  40.947   9.258   5.592
 5974POPC   PO475408  41.183   8.661   5.426
 5974POPC   GL175409  41.009   8.805   5.789
 5974POPC   GL275410  40.922   8.530   5.862
 5974POPC   C1A75411  40.765   8.924   6.161
 5974POPC   D2A75412  40.623   9.189   6.491
 5974POPC   C3A75413  40.922   9.261   6.814
 5974POPC   C4A75414  40.908   9.331   7.263
 5974POPC   C1B75415  41.160   8.545   6.223
 5974POPC   C2B75416  40.872   8.609   6.554
 5974POPC   C3B75417  40.651   8.805   6.833
 5974POPC   C4B75418  40.772   8.871   7.186
 5975POPC   NC375419  23.143  37.647   5.446
 5975POPC   PO475420  22.488  37.384   5.397
 5975POPC   GL175421  22.736  37.619   5.722
 5975POPC   GL275422  22.796  37.327   5.897
 5975POPC   C1A75423  22.999  37.751   6.115
 5975POPC   D2A75424  22.920  37.876   6.564
 5975POPC   C3A75425  23.143  37.758   6.934
 5975POPC   C4A75426  22.942  37.880   7.308
 5975POPC   C1B75427  22.560  37.271   6.295
 5975POPC   C2B75428  22.716  37.321   6.730
 5975POPC   C3B75429  22.855  37.391   7.133
 5975POPC   C4B75430  23.149  37.443   7.468
 5976POPC   NC375431  34.992   4.661   5.601
 5976POPC   PO475432  35.548   4.265   5.423
 5976POPC   GL175433  35.440   4.318   5.848
 5976POPC   GL275434  35.440   4.625   5.828
 5976POPC   C1A75435  35.447   4.125   6.277
 5976POPC   D2A75436  35.604   4.017   6.694
 5976POPC   C3A75437  35.401   4.142   7.082
 5976POPC   C4A75438  35.114   3.948   7.385
 5976POPC   C1B75439  35.534   4.633   6.234
 5976POPC   C2B75440  35.377   4.521   6.659
 5976POPC   C3B75441  35.172   4.622   7.068
 5976POPC   C4B75442  35.181   4.430   7.496
 5977POPC   NC375443  36.520  14.468   5.592
 5977POPC   PO475444  35.845  14.708   5.439
 5977POPC   GL175445  35.999  14.473   5.759
 5977POPC   GL275446  36.129  14.133   5.754
 5977POPC   C1A75447  35.924  14.404   6.169
 5977POPC   D2A75448  36.113  14.485   6.546
 5977POPC   C3A75449  35.965  14.274   6.883
 5977POPC   C4A75450  36.089  14.255   7.276
 5977POPC   C1B75451  36.356  14.132   6.197
 5977POPC   C2B75452  36.423  14.092   6.668
 5977POPC   C3B75453  36.559  14.128   7.116
 5977POPC   C4B75454  36.441  14.062   7.585
 5978POPC   NC375455  25.740  28.614   5.627
 5978POPC   PO475456  25.132  28.313   5.405
 5978POPC   GL175457  25.304  28.293   5.809
 5978POPC   GL275458  25.266  28.643   5.846
 5978POPC   C1A75459  25.156  28.338   6.250
 5978POPC   D2A75460  24.913  28.289   6.604
 5978POPC   C3A75461  24.972  28.468   6.989
 5978POPC   C4A75462  25.265  28.281   7.250
 5978POPC   C1B75463  25.282  28.849   6.244
 5978POPC   C2B75464  25.301  28.702   6.629
 5978POPC   C3B75465  25.439  28.705   7.039
 5978POPC   C4B75466  25.158  28.771   7.363
 5979POPC   NC375467  20.660  34.891   5.454
 5979POPC   PO475468  20.712  34.203   5.323
 5979POPC   GL175469  20.664  34.406   5.752
 5979POPC   GL275470  20.828  34.687   5.889
 5979POPC   C1A75471  20.500  34.421   6.190
 5979POPC   D2A75472  20.687  34.427   6.596
 5979POPC   C3A75473  20.574  34.260   6.995
 5979POPC   C4A75474  20.252  34.504   7.155
 5979POPC   C1B75475  20.918  34.834   6.312
 5979POPC   C2B75476  20.955  34.912   6.762
 5979POPC   C3B75477  20.911  34.957   7.220
 5979POPC   C4B75478  20.894  34.834   7.658
 5980POPC   NC375479  43.331  25.348   5.383
 5980POPC   PO475480  42.854  24.990   5.465
 5980POPC   GL175481  43.025  25.310   5.803
 5980POPC   GL275482  43.320  25.611   5.817
 5980POPC   C1A75483  43.181  25.294   6.204
 5980POPC   D2A75484  43.092  25.120   6.612
 5980POPC   C3A75485  42.913  25.303   6.970
 5980POPC   C4A75486  42.964  25.072   7.347
 5980POPC   C1B75487  43.535  25.653   6.199
 5980POPC   C2B75488  43.394  25.537   6.597
 5980POPC   C3B75489  43.373  25.612   6.992
 5980POPC   C4B75490  43.397  25.272   7.196
 5981POPC   NC375491  19.011   4.840   5.485
 5981POPC   PO475492  19.193   5.411   5.243
 5981POPC   GL175493  19.244   5.299   5.692
 5981POPC   GL275494  18.904   5.222   5.826
 5981POPC   C1A75495  19.358   5.220   6.148
 5981POPC   D2A75496  19.119   5.271   6.542
 5981POPC   C3A75497  19.189   5.118   6.969
 5981POPC   C4A75498  19.050   5.403   7.333
 5981POPC   C1B75499  18.913   4.920   6.183
 5981POPC   C2B75500  18.916   4.753   6.626
 5981POPC   C3B75501  18.734   4.825   7.005
 5981POPC   C4B75502  18.874   4.932   7.389
 5982POPC   NC375503  24.800   2.483   5.657
 5982POPC   PO475504  24.191   2.786   5.333
 5982POPC   GL175505  24.374   2.799   5.721
 5982POPC   GL275506  24.532   3.112   5.745
 5982POPC   C1A75507  24.342   2.826   6.171
 5982POPC   D2A75508  24.162   2.868   6.586
 5982POPC   C3A75509  24.285   2.646   6.975
 5982POPC   C4A75510  24.095   2.277   7.189
 5982POPC   C1B75511  24.811   3.063   6.100
 5982POPC   C2B75512  24.775   2.780   6.450
 5982POPC   C3B75513  24.712   2.919   6.852
 5982POPC   C4B75514  24.725   2.733   7.226
 5983POPC   NC375515  19.982  14.853   5.196
 5983POPC   PO475516  19.926  14.139   5.275
 5983POPC   GL175517  19.993  14.324   5.713
 5983POPC   GL275518  19.848  14.100   5.953
 5983POPC   C1A75519  20.044  14.522   6.160
 5983POPC   D2A75520  20.069  14.365   6.600
 5983POPC   C3A75521  19.966  14.130   6.965
 5983POPC   C4A75522  20.017  14.365   7.321
 5983POPC   C1B75523  19.556  14.368   6.183
 5983POPC   C2B75524  19.585  14.550   6.590
 5983POPC   C3B75525  19.541  14.406   7.012
 5983POPC   C4B75526  19.526  14.206   7.401
 5984POPC   NC375527  34.277  30.224   5.073
 5984POPC   PO475528  34.723  29.802   5.244
 5984POPC   GL175529  34.593  29.983   5.641
 5984POPC   GL275530  34.343  29.767   5.778
 5984POPC   C1A75531  34.712  30.056   6.109
 5984POPC   D2A75532  34.860  29.997   6.551
 5984POPC   C3A75533  34.509  29.958   6.876
 5984POPC   C4A75534  34.202  29.926   7.216
 5984POPC   C1B75535  34.321  29.714   6.239
 5984POPC   C2B75536  34.551  29.545   6.575
 5984POPC   C3B75537  34.863  29.575   6.849
 5984POPC   C4B75538  34.758  29.709   7.252
 5985POPC   NC375539   4.301  38.141   5.131
 5985POPC   PO475540   4.063  38.630   5.532
 5985POPC   GL175541   4.264  38.464   5.875
 5985POPC   GL275542   4.290  38.114   5.832
 5985POPC   C1A75543   4.539  38.435   6.232
 5985POPC   D2A75544   4.729  38.526   6.621
 5985POPC   C3A75545   4.384  38.730   6.827
 5985POPC   C4A75546   4.355  38.971   7.191
 5985POPC   C1B75547   4.125  38.137   6.250
 5985POPC   C2B75548   4.381  38.119   6.613
 5985POPC   C3B75549   4.428  38.263   7.024
 5985POPC   C4B75550   4.064  38.492   7.202
 5986POPC   NC375551   2.548  26.330   5.208
 5986POPC   PO475552   2.925  25.840   5.404
 5986POPC   GL175553   2.668  26.114   5.714
 5986POPC   GL275554   2.937  26.079   5.947
 5986POPC   C1A75555   2.485  26.107   6.176
 5986POPC   D2A75556   2.620  25.929   6.577
 5986POPC   C3A75557   2.512  26.089   6.967
 5986POPC   C4A75558   2.745  26.244   7.270
 5986POPC   C1B75559   3.233  25.838   6.217
 5986POPC   C2B75560   3.164  25.596   6.570
 5986POPC   C3B75561   3.027  25.778   6.932
 5986POPC   C4B75562   3.204  26.018   7.256
 5987POPC   NC375563   8.444  15.937   5.452
 5987POPC   PO475564   7.804  16.062   5.423
 5987POPC   GL175565   7.949  15.749   5.712
 5987POPC   GL275566   8.140  16.019   5.851
 5987POPC   C1A75567   8.096  15.659   6.166
 5987POPC   D2A75568   8.206  15.941   6.508
 5987POPC   C3A75569   8.122  15.825   6.933
 5987POPC   C4A75570   8.409  15.573   7.146
 5987POPC   C1B75571   8.327  16.305   6.131
 5987POPC   C2B75572   8.396  16.443   6.547
 5987POPC   C3B75573   8.313  16.295   6.947
 5987POPC   C4B75574   8.413  16.227   7.362
 5988POPC   NC375575   7.995  31.623   5.384
 5988POPC   PO475576   8.642  31.356   5.448
 5988POPC   GL175577   8.338  31.451   5.776
 5988POPC   GL275578   8.375  31.140   5.946
 5988POPC   C1A75579   8.187  31.644   6.189
 5988POPC   D2A75580   8.012  31.593   6.593
 5988POPC   C3A75581   8.264  31.657   6.945
 5988POPC   C4A75582   8.352  31.392   7.257
 5988POPC   C1B75583   7.972  31.182   6.087
 5988POPC   C2B75584   7.792  31.157   6.506
 5988POPC   C3B75585   8.007  31.160   6.915
 5988POPC   C4B75586   7.861  31.135   7.353
 5989POPC   NC375587   8.572  29.415   5.628
 5989POPC   PO475588   9.011  29.003   5.275
 5989POPC   GL175589   8.994  29.121   5.739
 5989POPC   GL275590   8.885  28.813   5.825
 5989POPC   C1A75591   9.011  29.108   6.234
 5989POPC   D2A75592   8.970  29.369   6.634
 5989POPC   C3A75593   8.977  29.230   7.041
 5989POPC   C4A75594   9.239  29.247   7.409
 5989POPC   C1B75595   8.660  28.705   6.220
 5989POPC   C2B75596   8.694  28.908   6.628
 5989POPC   C3B75597   8.593  28.870   7.074
 5989POPC   C4B75598   8.775  29.059   7.483
 5990POPC   NC375599  33.982  17.308   5.446
 5990POPC   PO475600  33.397  17.763   5.547
 5990POPC   GL175601  33.580  17.421   5.800
 5990POPC   GL275602  33.857  17.369   5.933
 5990POPC   C1A75603  33.412  17.269   6.184
 5990POPC   D2A75604  33.468  17.489   6.551
 5990POPC   C3A75605  33.732  17.392   6.879
 5990POPC   C4A75606  33.521  17.342   7.263
 5990POPC   C1B75607  34.078  17.559   6.219
 5990POPC   C2B75608  34.185  17.527   6.619
 5990POPC   C3B75609  34.154  17.772   6.963
 5990POPC   C4B75610  33.890  17.688   7.278
 5991POPC   NC375611  41.111   5.002   5.264
 5991POPC   PO475612  40.580   5.341   5.452
 5991POPC   GL175613  40.743   5.108   5.787
 5991POPC   GL275614  41.019   4.897   5.749
 5991POPC   C1A75615  40.909   5.252   6.203
 5991POPC   D2A75616  40.665   5.306   6.581
 5991POPC   C3A75617  40.745   5.017   6.889
 5991POPC   C4A75618  40.859   5.222   7.229
 5991POPC   C1B75619  40.861   4.745   6.140
 5991POPC   C2B75620  41.063   4.815   6.523
 5991POPC   C3B75621  41.147   4.706   6.939
 5991POPC   C4B75622  40.870   4.677   7.261
 5992POPC   NC375623  44.113  25.183   5.509
 5992POPC   PO475624  44.078  25.821   5.433
 5992POPC   GL175625  43.897  25.583   5.819
 5992POPC   GL275626  43.683  25.266   5.827
 5992POPC   C1A75627  43.954  25.383   6.245
 5992POPC   D2A75628  44.055  25.210   6.624
 5992POPC   C3A75629  43.860  25.377   6.989
 5992POPC   C4A75630  43.783  25.574   7.378
 5992POPC   C1B75631  43.635  25.002   6.184
 5992POPC   C2B75632  43.584  25.003   6.632
 5992POPC   C3B75633  43.798  24.867   7.013
 5992POPC   C4B75634  43.773  25.043   7.432
 5993POPC   NC375635  24.713  27.150   5.604
 5993POPC   PO475636  24.279  26.610   5.437
 5993POPC   GL175637  24.480  26.668   5.833
 5993POPC   GL275638  24.335  26.949   5.876
 5993POPC   C1A75639  24.588  26.546   6.251
 5993POPC   D2A75640  24.610  26.537   6.698
 5993POPC   C3A75641  24.305  26.732   6.937
 5993POPC   C4A75642  24.303  26.933   7.352
 5993POPC   C1B75643  24.563  27.068   6.231
 5993POPC   C2B75644  24.485  27.116   6.638
 5993POPC   C3B75645  24.751  26.996   6.969
 5993POPC   C4B75646  24.748  27.150   7.358
 5994POPC   NC375647  30.415  11.012   5.554
 5994POPC   PO475648  30.819  11.540   5.500
 5994POPC   GL175649  30.638  11.346   5.895
 5994POPC   GL275650  30.309  11.481   5.905
 5994POPC   C1A75651  30.658  11.140   6.336
 5994POPC   D2A75652  30.889  11.070   6.736
 5994POPC   C3A75653  30.702  11.122   7.154
 5994POPC   C4A75654  30.787  11.407   7.469
 5994POPC   C1B75655  30.513  11.617   6.323
 5994POPC   C2B75656  30.506  11.464   6.791
 5994POPC   C3B75657  30.375  11.530   7.240
 5994POPC   C4B75658  30.374  11.490   7.743
 5995POPC   NC375659  18.654  31.306   5.339
 5995POPC   PO475660  18.263  31.870   5.370
 5995POPC   GL175661  18.146  31.692   5.714
 5995POPC   GL275662  18.467  31.568   5.751
 5995POPC   C1A75663  18.176  31.658   6.167
 5995POPC   D2A75664  18.108  31.828   6.558
 5995POPC   C3A75665  18.132  31.589   6.922
 5995POPC   C4A75666  18.236  31.636   7.351
 5995POPC   C1B75667  18.676  31.599   6.154
 5995POPC   C2B75668  18.532  31.501   6.578
 5995POPC   C3B75669  18.654  31.573   7.023
 5995POPC   C4B75670  18.721  31.527   7.470
 5996POPC   NC375671  39.483  20.138   5.421
 5996POPC   PO475672  39.576  19.447   5.374
 5996POPC   GL175673  39.455  19.727   5.746
 5996POPC   GL275674  39.103  19.859   5.853
 5996POPC   C1A75675  39.501  19.992   6.134
 5996POPC   D2A75676  39.217  19.983   6.517
 5996POPC   C3A75677  39.359  20.053   6.956
 5996POPC   C4A75678  39.086  20.109   7.307
 5996POPC   C1B75679  38.925  19.493   6.064
 5996POPC   C2B75680  38.878  19.328   6.485
 5996POPC   C3B75681  38.964  19.557   6.872
 5996POPC   C4B75682  38.957  19.562   7.302
 5997POPC   NC375683   3.814  39.036   5.490
 5997POPC   PO475684   3.233  39.396   5.531
 5997POPC   GL175685   3.565  39.459   5.855
 5997POPC   GL275686   3.767  39.135   5.990
 5997POPC   C1A75687   3.623  39.523   6.299
 5997POPC   D2A75688   3.664  39.163   6.574
 5997POPC   C3A75689   3.531  39.326   6.958
 5997POPC   C4A75690   3.668  39.297   7.387
 5997POPC   C1B75691   4.007  38.843   6.280
 5997POPC   C2B75692   3.870  38.694   6.698
 5997POPC   C3B75693   3.857  38.933   7.082
 5997POPC   C4B75694   3.922  38.894   7.560
 5998POPC   NC375695  36.427  37.430   5.412
 5998POPC   PO475696  36.000  37.953   5.529
 5998POPC   GL175697  36.286  37.727   5.799
 5998POPC   GL275698  36.057  37.474   5.817
 5998POPC   C1A75699  36.407  37.751   6.217
 5998POPC   D2A75700  36.217  38.026   6.498
 5998POPC   C3A75701  36.300  37.857   6.868
 5998POPC   C4A75702  36.358  37.597   7.230
 5998POPC   C1B75703  35.906  37.762   6.177
 5998POPC   C2B75704  35.847  37.728   6.641
 5998POPC   C3B75705  35.876  37.671   7.112
 5998POPC   C4B75706  35.893  37.799   7.608
 5999POPC   NC375707  29.438  37.589   5.601
 5999POPC   PO475708  28.881  37.657   5.281
 5999POPC   GL175709  29.007  37.915   5.679
 5999POPC   GL275710  29.338  38.108   5.804
 5999POPC   C1A75711  28.922  38.028   6.118
 5999POPC   D2A75712  28.996  37.789   6.505
 5999POPC   C3A75713  29.019  37.922   6.931
 5999POPC   C4A75714  29.097  37.554   7.171
 5999POPC   C1B75715  29.414  37.930   6.229
 5999POPC   C2B75716  29.464  38.008   6.681
 5999POPC   C3B75717  29.516  37.810   7.097
 5999POPC   C4B75718  29.525  37.682   7.531
 6000POPC   NC375719  42.166  17.458   5.578
 6000POPC   PO475720  42.804  17.699   5.538
 6000POPC   GL175721  42.541  17.781   5.863
 6000POPC   GL275722  42.546  17.412   5.932
 6000POPC   C1A75723  42.494  17.748   6.308
 6000POPC   D2A75724  42.193  17.680   6.639
 6000POPC   C3A75725  42.386  17.722   7.030
 6000POPC   C4A75726  42.144  17.623   7.417
 6000POPC   C1B75727  42.263  17.280   6.227
 6000POPC   C2B75728  42.199  17.162   6.637
 6000POPC   C3B75729  42.201  17.260   7.005
 6000POPC   C4B75730  42.523  17.290   7.265
 6001POPC   NC375731  43.836  42.738   5.630
 6001POPC   PO475732  43.992  42.226   5.291
 6001POPC   GL175733  43.902  42.211   5.726
 6001POPC   GL275734  43.557  42.336   5.801
 6001POPC   C1A75735  44.130  42.143   6.116
 6001POPC   D2A75736  44.252  42.437   6.445
 6001POPC   C3A75737  44.023  42.422   6.831
 6001POPC   C4A75738  44.187  42.293   7.229
 6001POPC   C1B75739  43.741  42.492   6.218
 6001POPC   C2B75740  43.704  42.779   6.581
 6001POPC   C3B75741  43.537  42.661   6.962
 6001POPC   C4B75742  43.643  42.274   7.173
 6002POPC   NC375743  41.855   4.976   5.435
 6002POPC   PO475744  41.368   5.395   5.247
 6002POPC   GL175745  41.435   5.185   5.663
 6002POPC   GL275746  41.744   5.304   5.825
 6002POPC   C1A75747  41.396   4.997   6.097
 6002POPC   D2A75748  41.388   5.269   6.453
 6002POPC   C3A75749  41.246   5.195   6.862
 6002POPC   C4A75750  41.332   5.099   7.305
 6002POPC   C1B75751  41.809   5.485   6.235
 6002POPC   C2B75752  41.894   5.269   6.627
 6002POPC   C3B75753  41.739   5.201   7.009
 6002POPC   C4B75754  41.822   5.022   7.398
 6003POPC   NC375755  14.988  39.436   5.379
 6003POPC   PO475756  15.464  38.993   5.538
 6003POPC   GL175757  15.212  38.914   5.906
 6003POPC   GL275758  14.936  39.102   5.811
 6003POPC   C1A75759  15.308  39.041   6.339
 6003POPC   D2A75760  15.357  39.148   6.778
 6003POPC   C3A75761  15.125  38.843   7.023
 6003POPC   C4A75762  15.147  38.902   7.466
 6003POPC   C1B75763  14.856  39.255   6.211
 6003POPC   C2B75764  14.864  39.117   6.644
 6003POPC   C3B75765  14.914  39.305   7.054
 6003POPC   C4B75766  15.024  39.509   7.431
 6004POPC   NC375767   1.000  17.257   5.458
 6004POPC   PO475768   1.451  17.663   5.631
 6004POPC   GL175769   1.335  17.285   5.845
 6004POPC   GL275770   0.985  17.347   5.974
 6004POPC   C1A75771   1.379  17.207   6.269
 6004POPC   D2A75772   1.106  17.368   6.592
 6004POPC   C3A75773   1.202  17.665   6.907
 6004POPC   C4A75774   1.098  17.495   7.279
 6004POPC   C1B75775   0.870  17.694   6.269
 6004POPC   C2B75776   0.775  17.916   6.678
 6004POPC   C3B75777   0.743  17.810   7.132
 6004POPC   C4B75778   0.786  17.750   7.615
 6005POPC   NC375779  11.167  25.018   5.391
 6005POPC   PO475780  11.658  25.456   5.492
 6005POPC   GL175781  11.517  25.150   5.755
 6005POPC   GL275782  11.153  25.253   5.840
 6005POPC   C1A75783  11.645  25.096   6.180
 6005POPC   D2A75784  11.545  25.246   6.600
 6005POPC   C3A75785  11.594  25.052   7.022
 6005POPC   C4A75786  11.221  25.063   7.277
 6005POPC   C1B75787  11.305  25.507   6.180
 6005POPC   C2B75788  11.240  25.667   6.597
 6005POPC   C3B75789  11.411  25.563   7.008
 6005POPC   C4B75790  11.225  25.749   7.356
 6006POPC   NC375791  32.432   4.204   5.510
 6006POPC   PO475792  31.777   4.017   5.468
 6006POPC   GL175793  32.005   4.242   5.805
 6006POPC   GL275794  32.207   4.036   5.952
 6006POPC   C1A75795  32.155   4.535   6.132
 6006POPC   D2A75796  32.030   4.502   6.557
 6006POPC   C3A75797  32.251   4.374   6.922
 6006POPC   C4A75798  32.071   4.647   7.225
 6006POPC   C1B75799  32.307   4.097   6.375
 6006POPC   C2B75800  32.019   3.948   6.702
 6006POPC   C3B75801  32.157   3.804   7.069
 6006POPC   C4B75802  32.482   3.977   7.302
 6007POPC   NC375803  33.054  25.642   5.714
 6007POPC   PO475804  33.434  25.053   5.676
 6007POPC   GL175805  32.976  25.156   5.916
 6007POPC   GL275806  32.700  25.435   5.996
 6007POPC   C1A75807  32.995  25.143   6.376
 6007POPC   D2A75808  33.295  25.208   6.720
 6007POPC   C3A75809  33.088  25.280   7.125
 6007POPC   C4A75810  32.682  25.139   7.346
 6007POPC   C1B75811  32.565  25.399   6.427
 6007POPC   C2B75812  32.561  25.326   6.864
 6007POPC   C3B75813  32.731  25.628   7.168
 6007POPC   C4B75814  32.748  25.638   7.626
 6008POPC   NC375815  18.185   4.574   5.419
 6008POPC   PO475816  18.348   3.888   5.422
 6008POPC   GL175817  18.455   4.227   5.770
 6008POPC   GL275818  18.461   4.584   5.870
 6008POPC   C1A75819  18.293   4.261   6.231
 6008POPC   D2A75820  18.393   4.016   6.621
 6008POPC   C3A75821  18.160   4.094   7.014
 6008POPC   C4A75822  18.221   4.238   7.449
 6008POPC   C1B75823  18.416   4.770   6.275
 6008POPC   C2B75824  18.429   4.549   6.678
 6008POPC   C3B75825  18.232   4.595   7.074
 6008POPC   C4B75826  17.983   4.901   7.272
 6009POPC   NC375827  20.974  35.765   5.374
 6009POPC   PO475828  20.329  35.586   5.362
 6009POPC   GL175829  20.615  35.520   5.725
 6009POPC   GL275830  20.707  35.188   5.856
 6009POPC   C1A75831  20.629  35.537   6.194
 6009POPC   D2A75832  20.643  35.250   6.536
 6009POPC   C3A75833  20.875  35.428   6.872
 6009POPC   C4A75834  20.782  35.701   7.225
 6009POPC   C1B75835  20.452  34.937   6.152
 6009POPC   C2B75836  20.349  34.813   6.577
 6009POPC   C3B75837  20.466  34.924   6.962
 6009POPC   C4B75838  20.492  35.297   7.179
 6010POPC   NC375839   3.788  22.985   5.458
 6010POPC   PO475840   3.173  22.779   5.702
 6010POPC   GL175841   3.450  23.136   5.826
 6010POPC   GL275842   3.861  23.182   5.917
 6010POPC   C1A75843   3.490  23.170   6.251
 6010POPC   D2A75844   3.452  22.901   6.634
 6010POPC   C3A75845   3.326  23.016   7.100
 6010POPC   C4A75846   3.077  23.070   7.476
 6010POPC   C1B75847   3.928  22.858   6.271
 6010POPC   C2B75848   3.874  22.618   6.671
 6010POPC   C3B75849   3.483  22.482   6.899
 6010POPC   C4B75850   3.623  22.598   7.288
 6011POPC   NC375851  16.717  34.208   5.041
 6011POPC   PO475852  17.088  33.701   5.474
 6011POPC   GL175853  16.912  33.754   5.893
 6011POPC   GL275854  16.552  33.674   5.801
 6011POPC   C1A75855  16.873  33.888   6.308
 6011POPC   D2A75856  17.074  33.720   6.653
 6011POPC   C3A75857  16.980  33.926   6.987
 6011POPC   C4A75858  16.636  33.755   7.210
 6011POPC   C1B75859  16.444  33.611   6.230
 6011POPC   C2B75860  16.562  33.625   6.681
 6011POPC   C3B75861  16.470  33.322   7.014
 6011POPC   C4B75862  16.377  33.352   7.497
 6012POPC   NC375863  15.824  21.608   5.551
 6012POPC   PO475864  16.416  21.332   5.305
 6012POPC   GL175865  16.191  21.236   5.756
 6012POPC   GL275866  15.840  21.145   5.812
 6012POPC   C1A75867  15.996  21.415   6.210
 6012POPC   D2A75868  15.745  21.600   6.561
 6012POPC   C3A75869  15.847  21.606   7.016
 6012POPC   C4A75870  16.132  21.438   7.377
 6012POPC   C1B75871  16.098  20.930   6.134
 6012POPC   C2B75872  16.314  21.116   6.463
 6012POPC   C3B75873  16.115  21.228   6.803
 6012POPC   C4B75874  16.256  21.026   7.119
 6013POPC   NC375875  13.326  17.057   5.422
 6013POPC   PO475876  13.728  17.570   5.276
 6013POPC   GL175877  13.839  17.567   5.721
 6013POPC   GL275878  13.764  17.910   5.780
 6013POPC   C1A75879  13.701  17.421   6.166
 6013POPC   D2A75880  13.867  17.231   6.567
 6013POPC   C3A75881  13.676  17.311   6.982
 6013POPC   C4A75882  13.485  17.332   7.393
 6013POPC   C1B75883  13.944  17.867   6.194
 6013POPC   C2B75884  13.752  17.750   6.603
 6013POPC   C3B75885  13.717  17.813   7.039
 6013POPC   C4B75886  13.508  17.837   7.410
 6014POPC   NC375887  15.560  25.193   5.549
 6014POPC   PO475888  16.007  25.505   5.116
 6014POPC   GL175889  15.864  25.602   5.669
 6014POPC   GL275890  16.032  25.447   5.975
 6014POPC   C1A75891  15.564  25.589   6.111
 6014POPC   D2A75892  15.556  25.404   6.584
 6014POPC   C3A75893  15.908  25.370   6.922
 6014POPC   C4A75894  16.318  25.162   7.088
 6014POPC   C1B75895  15.743  25.107   6.187
 6014POPC   C2B75896  15.576  24.886   6.550
 6014POPC   C3B75897  15.554  24.955   6.974
 6014POPC   C4B75898  15.884  25.010   7.303
 6015POPC   NC375899   2.325  13.412   5.540
 6015POPC   PO475900   2.641  12.784   5.330
 6015POPC   GL175901   2.762  12.778   5.798
 6015POPC   GL275902   3.055  13.001   5.934
 6015POPC   C1A75903   2.626  12.895   6.235
 6015POPC   D2A75904   2.376  12.688   6.571
 6015POPC   C3A75905   2.601  12.634   6.982
 6015POPC   C4A75906   2.482  12.965   7.276
 6015POPC   C1B75907   3.131  12.958   6.348
 6015POPC   C2B75908   2.924  13.030   6.721
 6015POPC   C3B75909   2.996  12.934   7.150
 6015POPC   C4B75910   3.081  12.911   7.588
 6016POPC   NC375911  25.624  26.770   5.446
 6016POPC   PO475912  24.939  26.749   5.611
 6016POPC   GL175913  25.279  26.944   5.798
 6016POPC   GL275914  25.449  26.619   5.917
 6016POPC   C1A75915  25.202  27.096   6.193
 6016POPC   D2A75916  24.990  26.869   6.512
 6016POPC   C3A75917  25.282  26.932   6.843
 6016POPC   C4A75918  25.212  26.954   7.254
 6016POPC   C1B75919  25.626  26.489   6.335
 6016POPC   C2B75920  25.567  26.483   6.814
 6016POPC   C3B75921  25.354  26.471   7.224
 6016POPC   C4B75922  25.354  26.639   7.645
 6017POPC   NC375923  21.814  31.632   5.572
 6017POPC   PO475924  22.386  31.452   5.367
 6017POPC   GL175925  22.196  31.390   5.810
 6017POPC   GL275926  21.924  31.144   5.788
 6017POPC   C1A75927  22.200  31.602   6.232
 6017POPC   D2A75928  21.875  31.808   6.471
 6017POPC   C3A75929  22.059  31.807   6.880
 6017POPC   C4A75930  22.113  31.479   7.204
 6017POPC   C1B75931  21.763  31.366   6.175
 6017POPC   C2B75932  21.961  31.274   6.591
 6017POPC   C3B75933  22.056  31.025   6.968
 6017POPC   C4B75934  21.852  31.032   7.364
 6018POPC   NC375935  42.010  38.360   5.422
 6018POPC   PO475936  42.749  38.497   5.475
 6018POPC   GL175937  42.531  38.542   5.864
 6018POPC   GL275938  42.340  38.846   5.960
 6018POPC   C1A75939  42.671  38.628   6.283
 6018POPC   D2A75940  42.461  38.761   6.669
 6018POPC   C3A75941  42.274  38.366   6.823
 6018POPC   C4A75942  42.196  38.168   7.224
 6018POPC   C1B75943  42.075  38.666   6.307
 6018POPC   C2B75944  41.937  38.757   6.753
 6018POPC   C3B75945  41.984  38.622   7.190
 6018POPC   C4B75946  41.753  38.684   7.606
 6019POPC   NC375947   5.282  16.956   5.517
 6019POPC   PO475948   4.835  16.449   5.581
 6019POPC   GL175949   5.126  16.591   5.840
 6019POPC   GL275950   4.956  16.902   5.902
 6019POPC   C1A75951   5.090  16.505   6.260
 6019POPC   D2A75952   5.236  16.342   6.646
 6019POPC   C3A75953   5.106  16.658   6.931
 6019POPC   C4A75954   5.134  16.768   7.339
 6019POPC   C1B75955   5.281  16.977   6.218
 6019POPC   C2B75956   5.295  17.076   6.643
 6019POPC   C3B75957   5.486  17.025   7.051
 6019POPC   C4B75958   5.373  17.218   7.413
 6020POPC   NC375959  31.555  36.381   5.496
 6020POPC   PO475960  31.542  35.741   5.701
 6020POPC   GL175961  31.642  36.002   6.010
 6020POPC   GL275962  31.395  36.232   5.972
 6020POPC   C1A75963  31.577  35.998   6.439
 6020POPC   D2A75964  31.904  36.087   6.681
 6020POPC   C3A75965  31.827  36.207   7.090
 6020POPC   C4A75966  31.614  36.003   7.434
 6020POPC   C1B75967  31.504  36.502   6.326
 6020POPC   C2B75968  31.446  36.476   6.768
 6020POPC   C3B75969  31.321  36.311   7.163
 6020POPC   C4B75970  31.347  36.387   7.619
 6021POPC   NC375971  10.731   4.519   5.548
 6021POPC   PO475972  10.271   4.075   5.642
 6021POPC   GL175973  10.342   4.289   6.005
 6021POPC   GL275974  10.676   4.403   6.036
 6021POPC   C1A75975  10.323   4.196   6.431
 6021POPC   D2A75976  10.344   4.429   6.788
 6021POPC   C3A75977  10.127   4.282   7.146
 6021POPC   C4A75978  10.419   3.979   7.338
 6021POPC   C1B75979  10.820   4.103   6.297
 6021POPC   C2B75980  10.960   4.289   6.661
 6021POPC   C3B75981  10.786   4.401   7.054
 6021POPC   C4B75982  10.937   4.342   7.430
 6022POPC   NC375983  42.132  33.785   5.335
 6022POPC   PO475984  42.596  34.287   5.391
 6022POPC   GL175985  42.321  34.042   5.736
 6022POPC   GL275986  42.418  33.674   5.786
 6022POPC   C1A75987  42.403  33.974   6.197
 6022POPC   D2A75988  42.610  33.797   6.551
 6022POPC   C3A75989  42.470  33.576   6.872
 6022POPC   C4A75990  42.498  33.678   7.262
 6022POPC   C1B75991  42.365  33.467   6.200
 6022POPC   C2B75992  42.111  33.649   6.527
 6022POPC   C3B75993  41.952  33.585   6.937
 6022POPC   C4B75994  42.006  33.681   7.351
 6023POPC   NC375995  20.377   5.742   5.402
 6023POPC   PO475996  20.935   6.113   5.592
 6023POPC   GL175997  20.686   5.833   5.851
 6023POPC   GL275998  20.304   5.849   5.888
 6023POPC   C1A75999  20.611   5.774   6.297
 6023POPC   D2A76000  20.547   5.589   6.673
 6023POPC   C3A76001  20.705   5.847   6.973
 6023POPC   C4A76002  20.611   5.689   7.287
 6023POPC   C1B76003  20.272   6.137   6.239
 6023POPC   C2B76004  20.323   6.077   6.672
 6023POPC   C3B76005  20.242   6.046   7.122
 6023POPC   C4B76006  20.556   6.226   7.421
 6024POPC   NC376007  27.851  25.304   5.445
 6024POPC   PO476008  27.398  24.827   5.627
 6024POPC   GL176009  27.540  25.171   5.829
 6024POPC   GL276010  27.367  25.415   5.598
 6024POPC   C1A76011  27.652  25.333   6.229
 6024POPC   D2A76012  27.910  25.526   6.547
 6024POPC   C3A76013  27.748  25.411   6.951
 6024POPC   C4A76014  27.546  25.058   7.186
 6024POPC   C1B76015  27.238  25.537   6.010
 6024POPC   C2B76016  27.190  25.498   6.470
 6024POPC   C3B76017  27.214  25.520   6.925
 6024POPC   C4B76018  27.443  25.640   7.289
 6025POPC   NC376019   2.729  10.415   5.450
 6025POPC   PO476020   2.303  10.862   5.522
 6025POPC   GL176021   2.543  10.605   5.886
 6025POPC   GL276022   2.927  10.638   5.905
 6025POPC   C1A76023   2.646  10.549   6.344
 6025POPC   D2A76024   2.979  10.691   6.655
 6025POPC   C3A76025   2.909  10.509   7.076
 6025POPC   C4A76026   2.490  10.638   7.271
 6025POPC   C1B76027   3.099  10.344   6.248
 6025POPC   C2B76028   2.890  10.174   6.626
 6025POPC   C3B76029   2.505  10.238   6.909
 6025POPC   C4B76030   2.461  10.134   7.391
 6026POPC   NC376031  13.142  35.120   5.552
 6026POPC   PO476032  12.519  35.022   5.312
 6026POPC   GL176033  12.651  35.198   5.728
 6026POPC   GL276034  12.824  35.521   5.742
 6026POPC   C1A76035  12.848  35.203   6.155
 6026POPC   D2A76036  13.015  35.401   6.524
 6026POPC   C3A76037  12.779  35.352   6.881
 6026POPC   C4A76038  12.762  35.315   7.320
 6026POPC   C1B76039  12.740  35.703   6.170
 6026POPC   C2B76040  12.689  35.810   6.635
 6026POPC   C3B76041  12.721  35.796   7.116
 6026POPC   C4B76042  12.513  36.001   7.495
 6027POPC   NC376043  38.211   7.124   5.152
 6027POPC   PO476044  38.610   6.601   5.258
 6027POPC   GL176045  38.605   6.553   5.743
 6027POPC   GL276046  38.767   6.869   5.874
 6027POPC   C1A76047  38.372   6.618   6.142
 6027POPC   D2A76048  38.304   6.850   6.551
 6027POPC   C3A76049  38.291   6.540   6.914
 6027POPC   C4A76050  37.992   6.343   7.195
 6027POPC   C1B76051  38.830   6.715   6.324
 6027POPC   C2B76052  38.748   6.721   6.762
 6027POPC   C3B76053  38.693   6.756   7.200
 6027POPC   C4B76054  38.944   6.854   7.536
 6028POPC   NC376055   2.198  12.719   5.480
 6028POPC   PO476056   1.833  13.340   5.515
 6028POPC   GL176057   2.077  13.154   5.903
 6028POPC   GL276058   2.200  12.794   5.971
 6028POPC   C1A76059   2.146  13.126   6.358
 6028POPC   D2A76060   1.876  13.010   6.710
 6028POPC   C3A76061   1.958  12.954   7.147
 6028POPC   C4A76062   1.711  13.135   7.508
 6028POPC   C1B76063   1.916  12.544   6.214
 6028POPC   C2B76064   1.845  12.505   6.637
 6028POPC   C3B76065   2.114  12.478   6.976
 6028POPC   C4B76066   2.192  12.561   7.394
 6029POPC   NC376067  18.319  18.804   5.541
 6029POPC   PO476068  18.296  19.458   5.429
 6029POPC   GL176069  18.352  19.247   5.814
 6029POPC   GL276070  18.627  19.029   5.864
 6029POPC   C1A76071  18.274  19.091   6.225
 6029POPC   D2A76072  18.414  19.181   6.615
 6029POPC   C3A76073  18.154  19.260   6.960
 6029POPC   C4A76074  18.247  19.061   7.321
 6029POPC   C1B76075  18.666  18.723   6.173
 6029POPC   C2B76076  18.363  18.630   6.482
 6029POPC   C3B76077  18.292  18.716   6.880
 6029POPC   C4B76078  18.439  18.579   7.225
 6030POPC   NC376079  15.510   3.829   5.504
 6030POPC   PO476080  14.947   3.286   5.461
 6030POPC   GL176081  15.118   3.443   5.805
 6030POPC   GL276082  15.126   3.792   5.856
 6030POPC   C1A76083  15.270   3.424   6.208
 6030POPC   D2A76084  15.247   3.212   6.576
 6030POPC   C3A76085  15.150   3.385   6.978
 6030POPC   C4A76086  15.015   3.282   7.388
 6030POPC   C1B76087  15.187   3.915   6.257
 6030POPC   C2B76088  15.323   3.735   6.632
 6030POPC   C3B76089  15.339   3.910   7.005
 6030POPC   C4B76090  15.084   3.804   7.311
 6031POPC   NC376091  22.779  29.504   5.055
 6031POPC   PO476092  22.941  28.945   5.387
 6031POPC   GL176093  23.034  29.012   5.829
 6031POPC   GL276094  23.402  29.044   5.813
 6031POPC   C1A76095  22.799  29.174   6.216
 6031POPC   D2A76096  22.645  29.050   6.603
 6031POPC   C3A76097  22.780  29.250   6.984
 6031POPC   C4A76098  22.767  29.020   7.361
 6031POPC   C1B76099  23.267  28.999   6.273
 6031POPC   C2B76100  23.383  29.005   6.678
 6031POPC   C3B76101  23.214  28.954   7.084
 6031POPC   C4B76102  23.299  29.059   7.522
 6032POPC   NC376103  31.016  44.457   5.400
 6032POPC   PO476104  31.594  44.759   5.465
 6032POPC   GL176105  31.472  44.555   5.837
 6032POPC   GL276106  31.701  44.289   5.893
 6032POPC   C1A76107  31.315  44.731   6.241
 6032POPC   D2A76108  31.483  44.699   6.663
 6032POPC   C3A76109  31.266  44.819   7.017
 6032POPC   C4A76110  31.476   0.087   7.267
 6032POPC   C1B76111  31.733  44.435   6.288
 6032POPC   C2B76112  31.789  44.267   6.690
 6032POPC   C3B76113  31.862  44.417   7.097
 6032POPC   C4B76114  32.005  44.321   7.528
 6033POPC   NC376115  28.692  39.824   5.485
 6033POPC   PO476116  28.066  40.212   5.514
 6033POPC   GL176117  28.175  40.009   5.904
 6033POPC   GL276118  28.494  39.811   5.949
 6033POPC   C1A76119  28.019  40.069   6.311
 6033POPC   D2A76120  27.910  40.266   6.670
 6033POPC   C3A76121  28.014  40.066   7.069
 6033POPC   C4A76122  27.858  40.361   7.367
 6033POPC   C1B76123  28.520  40.023   6.326
 6033POPC   C2B76124  28.425  40.021   6.773
 6033POPC   C3B76125  28.527  40.168   7.203
 6033POPC   C4B76126  28.558  39.942   7.609
 6034POPC   NC376127  26.064  43.375   5.354
 6034POPC   PO476128  25.804  42.787   5.432
 6034POPC   GL176129  26.103  42.935   5.776
 6034POPC   GL276130  26.014  43.248   5.872
 6034POPC   C1A76131  26.210  42.770   6.192
 6034POPC   D2A76132  26.218  42.569   6.610
 6034POPC   C3A76133  26.058  42.830   6.942
 6034POPC   C4A76134  26.189  42.925   7.348
 6034POPC   C1B76135  25.992  43.234   6.322
 6034POPC   C2B76136  26.230  43.275   6.695
 6034POPC   C3B76137  26.121  43.384   7.117
 6034POPC   C4B76138  25.733  43.158   7.197
 6035POPC   NC376139   8.178  43.028   5.286
 6035POPC   PO476140   8.578  43.509   5.445
 6035POPC   GL176141   8.290  43.324   5.767
 6035POPC   GL276142   8.128  42.966   5.783
 6035POPC   C1A76143   8.187  43.245   6.211
 6035POPC   D2A76144   8.282  43.018   6.599
 6035POPC   C3A76145   7.993  43.107   6.949
 6035POPC   C4A76146   8.160  43.413   7.251
 6035POPC   C1B76147   7.915  42.746   6.134
 6035POPC   C2B76148   7.878  42.628   6.588
 6035POPC   C3B76149   8.216  42.599   6.905
 6035POPC   C4B76150   8.253  42.609   7.342
 6036POPC   NC376151  36.132   0.651   5.729
 6036POPC   PO476152  36.063   1.121   5.228
 6036POPC   GL176153  36.096   1.274   5.696
 6036POPC   GL276154  36.325   1.068   5.939
 6036POPC   C1A76155  36.129   1.499   6.146
 6036POPC   D2A76156  36.229   1.317   6.594
 6036POPC   C3A76157  36.156   1.457   7.062
 6036POPC   C4A76158  36.335   1.492   7.522
 6036POPC   C1B76159  35.894   1.043   6.184
 6036POPC   C2B76160  35.788   1.016   6.617
 6036POPC   C3B76161  36.104   0.910   6.908
 6036POPC   C4B76162  36.102   0.829   7.327
 6037POPC   NC376163  19.419  36.863   5.477
 6037POPC   PO476164  20.064  36.820   5.501
 6037POPC   GL176165  20.020  36.682   5.902
 6037POPC   GL276166  19.657  36.689   5.894
 6037POPC   C1A76167  19.913  36.831   6.319
 6037POPC   D2A76168  19.747  37.195   6.564
 6037POPC   C3A76169  19.841  37.057   6.979
 6037POPC   C4A76170  19.842  36.630   7.115
 6037POPC   C1B76171  19.419  36.845   6.237
 6037POPC   C2B76172  19.533  36.735   6.682
 6037POPC   C3B76173  19.376  36.903   7.064
 6037POPC   C4B76174  19.596  36.929   7.441
 6038POPC   NC376175  19.711   1.575   5.508
 6038POPC   PO476176  19.897   2.268   5.371
 6038POPC   GL176177  19.913   2.076   5.833
 6038POPC   GL276178  19.642   1.839   5.921
 6038POPC   C1A76179  19.995   1.943   6.288
 6038POPC   D2A76180  19.908   2.058   6.674
 6038POPC   C3A76181  19.906   1.814   7.000
 6038POPC   C4A76182  19.976   1.946   7.396
 6038POPC   C1B76183  19.546   1.568   6.257
 6038POPC   C2B76184  19.480   1.750   6.663
 6038POPC   C3B76185  19.422   1.757   7.090
 6038POPC   C4B76186  19.626   1.551   7.416
 6039POPC   NC376187   6.839   6.242   5.615
 6039POPC   PO476188   6.501   6.860   5.477
 6039POPC   GL176189   6.581   6.639   5.842
 6039POPC   GL276190   6.950   6.707   5.803
 6039POPC   C1A76191   6.385   6.533   6.260
 6039POPC   D2A76192   6.287   6.218   6.562
 6039POPC   C3A76193   6.565   6.251   6.931
 6039POPC   C4A76194   6.462   6.254   7.384
 6039POPC   C1B76195   6.826   6.825   6.234
 6039POPC   C2B76196   6.786   6.629   6.612
 6039POPC   C3B76197   6.796   6.872   6.959
 6039POPC   C4B76198   6.543   6.726   7.240
 6040POPC   NC376199  35.705  41.561   5.322
 6040POPC   PO476200  36.216  41.928   5.573
 6040POPC   GL176201  36.067  41.674   5.892
 6040POPC   GL276202  36.319  41.408   5.996
 6040POPC   C1A76203  36.111  41.822   6.304
 6040POPC   D2A76204  35.926  41.977   6.667
 6040POPC   C3A76205  36.077  41.748   6.991
 6040POPC   C4A76206  36.095  41.974   7.336
 6040POPC   C1B76207  36.007  41.287   6.336
 6040POPC   C2B76208  35.861  41.241   6.792
 6040POPC   C3B76209  35.930  41.307   7.252
 6040POPC   C4B76210  36.081  41.129   7.662
 6041POPC   NC376211  29.353  18.873   5.438
 6041POPC   PO476212  28.893  19.321   5.533
 6041POPC   GL176213  29.152  19.151   5.852
 6041POPC   GL276214  29.056  18.826   5.864
 6041POPC   C1A76215  29.100  19.137   6.300
 6041POPC   D2A76216  28.834  19.268   6.636
 6041POPC   C3A76217  29.094  19.306   6.996
 6041POPC   C4A76218  29.401  18.983   7.108
 6041POPC   C1B76219  28.971  18.631   6.263
 6041POPC   C2B76220  28.989  18.775   6.685
 6041POPC   C3B76221  28.976  18.634   7.083
 6041POPC   C4B76222  29.039  18.740   7.478
 6042POPC   NC376223  29.277  44.397   5.578
 6042POPC   PO476224  29.065  44.934   5.214
 6042POPC   GL176225  29.121  44.895   5.683
 6042POPC   GL276226  29.480  44.886   5.750
 6042POPC   C1A76227  28.973  44.749   6.126
 6042POPC   D2A76228  28.851  44.540   6.540
 6042POPC   C3A76229  29.065  44.543   6.958
 6042POPC   C4A76230  28.958  44.625   7.417
 6042POPC   C1B76231  29.468  44.623   6.153
 6042POPC   C2B76232  29.403  44.740   6.571
 6042POPC   C3B76233  29.592  44.520   6.901
 6042POPC   C4B76234  29.456  44.576   7.295
 6043POPC   NC376235  10.677  30.484   5.418
 6043POPC   PO476236  10.210  30.839   5.488
 6043POPC   GL176237  10.491  30.860   5.811
 6043POPC   GL276238  10.298  31.152   5.942
 6043POPC   C1A76239  10.650  30.914   6.232
 6043POPC   D2A76240  10.466  30.803   6.640
 6043POPC   C3A76241  10.713  30.603   6.981
 6043POPC   C4A76242  10.851  30.405   7.364
 6043POPC   C1B76243  10.133  30.749   6.167
 6043POPC   C2B76244  10.080  30.448   6.503
 6043POPC   C3B76245  10.121  30.559   6.915
 6043POPC   C4B76246  10.317  30.547   7.298
 6044POPC   NC376247  11.122   2.263   5.399
 6044POPC   PO476248  11.182   1.615   5.540
 6044POPC   GL176249  11.491   1.801   5.837
 6044POPC   GL276250  11.622   2.124   5.697
 6044POPC   C1A76251  11.392   1.848   6.314
 6044POPC   D2A76252  11.059   1.938   6.656
 6044POPC   C3A76253  11.117   1.822   7.103
 6044POPC   C4A76254  11.490   1.547   7.215
 6044POPC   C1B76255  11.320   2.272   6.017
 6044POPC   C2B76256  11.278   2.360   6.436
 6044POPC   C3B76257  11.313   2.339   6.869
 6044POPC   C4B76258  11.450   2.170   7.243
 6045POPC   NC376259  41.356  20.189   5.676
 6045POPC   PO476260  41.529  20.703   5.194
 6045POPC   GL176261  41.661  20.710   5.702
 6045POPC   GL276262  41.529  20.496   6.030
 6045POPC   C1A76263  41.793  20.891   6.147
 6045POPC   D2A76264  41.682  20.662   6.543
 6045POPC   C3A76265  41.660  20.744   6.988
 6045POPC   C4A76266  41.889  20.498   7.256
 6045POPC   C1B76267  41.312  20.330   6.440
 6045POPC   C2B76268  41.178  20.334   6.883
 6045POPC   C3B76269  41.357  20.414   7.298
 6045POPC   C4B76270  41.252  20.461   7.776
 6046POPC   NC376271   4.073  33.905   5.252
 6046POPC   PO476272   3.439  33.742   5.534
 6046POPC   GL176273   3.518  33.854   5.944
 6046POPC   GL276274   3.186  33.883   5.971
 6046POPC   C1A76275   3.488  34.071   6.351
 6046POPC   D2A76276   3.722  34.111   6.730
 6046POPC   C3A76277   3.829  33.715   6.914
 6046POPC   C4A76278   3.698  33.603   7.303
 6046POPC   C1B76279   3.072  33.571   6.239
 6046POPC   C2B76280   3.202  33.564   6.671
 6046POPC   C3B76281   3.338  33.852   7.012
 6046POPC   C4B76282   3.178  33.610   7.340
 6047POPC   NC376283  32.116  19.634   5.355
 6047POPC   PO476284  32.271  19.033   5.481
 6047POPC   GL176285  32.312  19.245   5.845
 6047POPC   GL276286  32.207  18.944   6.019
 6047POPC   C1A76287  32.284  19.369   6.267
 6047POPC   D2A76288  32.124  19.327   6.666
 6047POPC   C3A76289  32.175  18.944   6.894
 6047POPC   C4A76290  32.163  19.184   7.268
 6047POPC   C1B76291  31.864  19.061   6.311
 6047POPC   C2B76292  31.634  18.947   6.646
 6047POPC   C3B76293  31.731  19.201   6.954
 6047POPC   C4B76294  31.678  19.330   7.319
 6048POPC   NC376295  40.291  41.813   5.408
 6048POPC   PO476296  39.708  41.490   5.297
 6048POPC   GL176297  39.917  41.502   5.713
 6048POPC   GL276298  40.001  41.805   5.883
 6048POPC   C1A76299  39.847  41.347   6.171
 6048POPC   D2A76300  39.827  41.182   6.636
 6048POPC   C3A76301  39.816  41.418   7.067
 6048POPC   C4A76302  39.822  41.895   7.190
 6048POPC   C1B76303  40.341  41.499   6.007
 6048POPC   C2B76304  40.432  41.434   6.450
 6048POPC   C3B76305  40.285  41.332   6.859
 6048POPC   C4B76306  40.270  41.630   7.207
 6049POPC   NC376307  35.893  27.430   5.305
 6049POPC   PO476308  36.507  27.679   5.534
 6049POPC   GL176309  36.069  27.646   5.775
 6049POPC   GL276310  35.905  27.310   5.806
 6049POPC   C1A76311  35.857  27.707   6.229
 6049POPC   D2A76312  35.889  27.756   6.727
 6049POPC   C3A76313  36.247  27.696   7.019
 6049POPC   C4A76314  36.319  27.835   7.483
 6049POPC   C1B76315  36.139  27.264   6.148
 6049POPC   C2B76316  35.947  27.291   6.529
 6049POPC   C3B76317  35.913  27.281   6.963
 6049POPC   C4B76318  35.972  26.946   7.222
 6050POPC   NC376319  37.879  34.348   5.330
 6050POPC   PO476320  37.318  34.831   5.429
 6050POPC   GL176321  37.435  34.669   5.851
 6050POPC   GL276322  37.782  34.577   5.853
 6050POPC   C1A76323  37.517  34.431   6.255
 6050POPC   D2A76324  37.842  34.513   6.534
 6050POPC   C3A76325  37.688  34.572   6.922
 6050POPC   C4A76326  37.843  34.502   7.351
 6050POPC   C1B76327  37.941  34.190   6.112
 6050POPC   C2B76328  37.999  34.012   6.528
 6050POPC   C3B76329  37.990  34.155   6.998
 6050POPC   C4B76330  37.899  34.023   7.464
 6051POPC   NC376331   2.195   6.514   5.410
 6051POPC   PO476332   1.758   7.009   5.399
 6051POPC   GL176333   1.952   6.863   5.760
 6051POPC   GL276334   1.812   6.554   5.762
 6051POPC   C1A76335   2.109   6.919   6.198
 6051POPC   D2A76336   2.068   6.699   6.589
 6051POPC   C3A76337   2.043   6.960   6.951
 6051POPC   C4A76338   2.227   6.921   7.372
 6051POPC   C1B76339   2.013   6.418   6.128
 6051POPC   C2B76340   1.861   6.221   6.501
 6051POPC   C3B76341   1.978   6.281   6.911
 6051POPC   C4B76342   1.945   6.484   7.293
 6052POPC   NC376343  18.044  37.082   5.036
 6052POPC   PO476344  18.325  36.601   5.486
 6052POPC   GL176345  18.555  36.600   5.897
 6052POPC   GL276346  18.374  36.889   5.932
 6052POPC   C1A76347  18.456  36.493   6.357
 6052POPC   D2A76348  18.117  36.538   6.708
 6052POPC   C3A76349  18.175  36.693   7.158
 6052POPC   C4A76350  17.942  36.815   7.571
 6052POPC   C1B76351  18.094  36.850   6.285
 6052POPC   C2B76352  17.990  37.053   6.678
 6052POPC   C3B76353  18.240  37.171   7.021
 6052POPC   C4B76354  18.463  37.483   7.237
 6053POPC   NC376355  23.158  12.041   5.400
 6053POPC   PO476356  22.590  12.334   5.483
 6053POPC   GL176357  22.779  12.366   5.882
 6053POPC   GL276358  22.782  11.999   5.877
 6053POPC   C1A76359  23.030  12.217   6.266
 6053POPC   D2A76360  22.951  11.837   6.540
 6053POPC   C3A76361  22.929  11.994   6.959
 6053POPC   C4A76362  22.959  12.432   7.088
 6053POPC   C1B76363  22.533  12.058   6.219
 6053POPC   C2B76364  22.621  12.235   6.597
 6053POPC   C3B76365  22.469  12.224   6.978
 6053POPC   C4B76366  22.567  12.209   7.367
 6054POPC   NC376367  40.046  35.149   5.359
 6054POPC   PO476368  40.011  35.684   5.719
 6054POPC   GL176369  39.985  35.265   5.895
 6054POPC   GL276370  40.240  35.035   5.825
 6054POPC   C1A76371  40.051  35.278   6.334
 6054POPC   D2A76372  39.871  35.606   6.599
 6054POPC   C3A76373  39.785  35.456   6.988
 6054POPC   C4A76374  39.903  35.557   7.367
 6054POPC   C1B76375  40.481  35.013   6.179
 6054POPC   C2B76376  40.357  34.902   6.580
 6054POPC   C3B76377  40.395  35.060   6.959
 6054POPC   C4B76378  40.083  35.110   7.274
 6055POPC   NC376379  18.760  43.826   5.453
 6055POPC   PO476380  19.317  43.418   5.430
 6055POPC   GL176381  19.119  43.715   5.787
 6055POPC   GL276382  18.767  43.669   5.944
 6055POPC   C1A76383  19.057  44.059   6.106
 6055POPC   D2A76384  19.250  44.036   6.512
 6055POPC   C3A76385  19.111  44.095   6.944
 6055POPC   C4A76386  19.234  43.784   7.202
 6055POPC   C1B76387  18.722  43.344   6.269
 6055POPC   C2B76388  18.721  43.290   6.734
 6055POPC   C3B76389  18.778  43.649   7.000
 6055POPC   C4B76390  18.829  43.652   7.443
 6056POPC   NC376391  14.914  13.583   5.193
 6056POPC   PO476392  14.281  13.649   5.419
 6056POPC   GL176393  14.327  13.592   5.861
 6056POPC   GL276394  14.662  13.570   5.815
 6056POPC   C1A76395  14.431  13.694   6.319
 6056POPC   D2A76396  14.440  13.987   6.690
 6056POPC   C3A76397  14.648  13.913   7.065
 6056POPC   C4A76398  14.479  13.515   7.166
 6056POPC   C1B76399  14.653  13.262   6.180
 6056POPC   C2B76400  14.680  13.322   6.634
 6056POPC   C3B76401  14.813  13.148   7.052
 6056POPC   C4B76402  14.716  13.202   7.522
 6057POPC   NC376403  43.987  15.515   5.525
 6057POPC   PO476404  43.788  14.905   5.197
 6057POPC   GL176405  43.799  14.980   5.675
 6057POPC   GL276406  44.142  15.051   5.798
 6057POPC   C1A76407  43.668  15.223   6.073
 6057POPC   D2A76408  43.757  15.574   6.378
 6057POPC   C3A76409  43.760  15.486   6.826
 6057POPC   C4A76410  43.614  15.286   7.193
 6057POPC   C1B76411  44.180  15.256   6.211
 6057POPC   C2B76412  44.226  15.361   6.638
 6057POPC   C3B76413  44.217  15.403   7.065
 6057POPC   C4B76414  44.070  15.197   7.421
 6058POPC   NC376415  22.544  30.109   5.566
 6058POPC   PO476416  23.093  29.815   5.222
 6058POPC   GL176417  23.004  29.936   5.713
 6058POPC   GL276418  23.126  30.295   5.861
 6058POPC   C1A76419  22.804  30.054   6.155
 6058POPC   D2A76420  22.931  29.944   6.569
 6058POPC   C3A76421  22.865  30.120   6.977
 6058POPC   C4A76422  22.911  29.734   7.235
 6058POPC   C1B76423  23.306  29.961   6.160
 6058POPC   C2B76424  23.422  30.043   6.553
 6058POPC   C3B76425  23.331  29.913   6.932
 6058POPC   C4B76426  23.308  30.053   7.330
 6059POPC   NC376427  23.828  28.713   5.485
 6059POPC   PO476428  23.400  28.264   5.390
 6059POPC   GL176429  23.624  28.152   5.774
 6059POPC   GL276430  23.948  28.252   5.694
 6059POPC   C1A76431  23.512  28.157   6.209
 6059POPC   D2A76432  23.452  28.541   6.459
 6059POPC   C3A76433  23.403  28.415   6.890
 6059POPC   C4A76434  23.605  28.111   7.220
 6059POPC   C1B76435  23.924  28.464   6.101
 6059POPC   C2B76436  23.909  28.325   6.507
 6059POPC   C3B76437  23.921  28.384   6.918
 6059POPC   C4B76438  24.105  28.004   7.072
 6060POPC   NC376439  12.206  30.805   5.076
 6060POPC   PO476440  11.964  30.575   5.647
 6060POPC   GL176441  12.006  30.814   5.962
 6060POPC   GL276442  11.672  30.915   6.033
 6060POPC   C1A76443  12.198  30.808   6.364
 6060POPC   D2A76444  12.117  30.979   6.779
 6060POPC   C3A76445  12.332  30.829   7.151
 6060POPC   C4A76446  12.242  30.543   7.486
 6060POPC   C1B76447  11.761  30.537   6.310
 6060POPC   C2B76448  11.978  30.470   6.704
 6060POPC   C3B76449  11.867  30.597   7.133
 6060POPC   C4B76450  11.758  30.536   7.624
 6061POPC   NC376451  28.431  20.938   5.228
 6061POPC   PO476452  27.994  20.404   5.350
 6061POPC   GL176453  28.160  20.560   5.798
 6061POPC   GL276454  28.439  20.808   5.889
 6061POPC   C1A76455  28.301  20.460   6.264
 6061POPC   D2A76456  28.339  20.729   6.675
 6061POPC   C3A76457  28.247  20.449   6.994
 6061POPC   C4A76458  28.098  20.172   7.280
 6061POPC   C1B76459  28.703  20.744   6.309
 6061POPC   C2B76460  28.674  20.351   6.654
 6061POPC   C3B76461  28.734  20.476   7.109
 6061POPC   C4B76462  28.614  20.912   7.171
 6062POPC   NC376463  18.062   3.520   5.544
 6062POPC   PO476464  18.777   3.358   5.506
 6062POPC   GL176465  18.566   3.625   5.855
 6062POPC   GL276466  18.246   3.801   5.924
 6062POPC   C1A76467  18.440   3.567   6.321
 6062POPC   D2A76468  18.298   3.225   6.623
 6062POPC   C3A76469  18.546   3.191   7.008
 6062POPC   C4A76470  18.539   3.395   7.385
 6062POPC   C1B76471  17.992   3.850   6.289
 6062POPC   C2B76472  17.994   3.685   6.710
 6062POPC   C3B76473  18.134   3.578   7.150
 6062POPC   C4B76474  18.252   3.758   7.623
 6063POPC   NC376475  35.599  28.307   5.314
 6063POPC   PO476476  34.975  28.085   5.326
 6063POPC   GL176477  35.122  28.220   5.783
 6063POPC   GL276478  34.964  28.538   5.826
 6063POPC   C1A76479  35.487  28.281   6.130
 6063POPC   D2A76480  35.567  28.558   6.516
 6063POPC   C3A76481  35.407  28.435   6.939
 6063POPC   C4A76482  35.672  28.479   7.290
 6063POPC   C1B76483  35.174  28.675   6.196
 6063POPC   C2B76484  35.069  28.606   6.605
 6063POPC   C3B76485  35.009  28.769   7.023
 6063POPC   C4B76486  35.149  28.600   7.434
 6064POPC   NC376487   1.066   8.354   5.494
 6064POPC   PO476488   1.576   7.931   5.740
 6064POPC   GL176489   1.249   8.152   5.950
 6064POPC   GL276490   0.914   8.024   5.853
 6064POPC   C1A76491   1.337   8.228   6.387
 6064POPC   D2A76492   1.526   7.946   6.716
 6064POPC   C3A76493   1.266   8.046   7.042
 6064POPC   C4A76494   1.135   8.465   7.110
 6064POPC   C1B76495   0.794   8.085   6.282
 6064POPC   C2B76496   0.887   8.274   6.680
 6064POPC   C3B76497   0.765   8.107   7.068
 6064POPC   C4B76498   0.870   7.880   7.412
 6065POPC   NC376499  41.538  38.904   5.397
 6065POPC   PO476500  41.550  38.274   5.366
 6065POPC   GL176501  41.638  38.203   5.752
 6065POPC   GL276502  41.564  38.549   5.807
 6065POPC   C1A76503  41.641  38.179   6.171
 6065POPC   D2A76504  41.636  38.441   6.500
 6065POPC   C3A76505  41.762  38.265   6.858
 6065POPC   C4A76506  41.615  38.288   7.253
 6065POPC   C1B76507  41.295  38.570   6.123
 6065POPC   C2B76508  41.138  38.444   6.528
 6065POPC   C3B76509  41.318  38.590   6.945
 6065POPC   C4B76510  41.273  38.700   7.403
 6066POPC   NC376511  19.331  19.323   5.246
 6066POPC   PO476512  18.722  18.972   5.347
 6066POPC   GL176513  19.096  18.966   5.653
 6066POPC   GL276514  19.094  19.231   5.894
 6066POPC   C1A76515  19.175  18.794   6.108
 6066POPC   D2A76516  19.362  18.982   6.467
 6066POPC   C3A76517  19.252  18.889   6.877
 6066POPC   C4A76518  19.311  19.160   7.218
 6066POPC   C1B76519  18.866  19.192   6.282
 6066POPC   C2B76520  18.833  18.914   6.611
 6066POPC   C3B76521  18.705  18.984   7.013
 6066POPC   C4B76522  18.800  19.190   7.350
 6067POPC   NC376523  38.166  10.800   5.574
 6067POPC   PO476524  38.430  10.103   5.514
 6067POPC   GL176525  38.411  10.414   5.820
 6067POPC   GL276526  38.734  10.576   5.943
 6067POPC   C1A76527  38.284  10.393   6.231
 6067POPC   D2A76528  38.526  10.256   6.581
 6067POPC   C3A76529  38.461  10.462   6.972
 6067POPC   C4A76530  38.352  10.330   7.396
 6067POPC   C1B76531  38.673  10.729   6.345
 6067POPC   C2B76532  38.293  10.790   6.583
 6067POPC   C3B76533  38.179  10.879   6.989
 6067POPC   C4B76534  38.403  10.878   7.353
 6068POPC   NC376535  40.769  18.783   5.164
 6068POPC   PO476536  41.050  19.088   5.622
 6068POPC   GL176537  40.763  18.945   5.862
 6068POPC   GL276538  40.508  19.205   5.953
 6068POPC   C1A76539  40.824  18.959   6.284
 6068POPC   D2A76540  40.662  19.038   6.651
 6068POPC   C3A76541  40.907  19.229   6.969
 6068POPC   C4A76542  40.937  19.076   7.351
 6068POPC   C1B76543  40.358  18.812   6.159
 6068POPC   C2B76544  40.304  18.667   6.595
 6068POPC   C3B76545  40.282  18.856   7.002
 6068POPC   C4B76546  40.439  19.203   7.227
 6069POPC   NC376547  20.374  34.026   5.578
 6069POPC   PO476548  20.941  33.594   5.593
 6069POPC   GL176549  21.039  33.850   5.922
 6069POPC   GL276550  20.702  33.936   5.984
 6069POPC   C1A76551  21.079  33.824   6.370
 6069POPC   D2A76552  20.989  34.015   6.738
 6069POPC   C3A76553  20.954  33.770   7.098
 6069POPC   C4A76554  20.907  34.037   7.423
 6069POPC   C1B76555  20.345  33.935   6.262
 6069POPC   C2B76556  20.195  34.180   6.572
 6069POPC   C3B76557  20.133  34.021   6.948
 6069POPC   C4B76558  20.442  33.751   7.064
 6070POPC   NC376559  33.754  42.941   5.529
 6070POPC   PO476560  34.075  43.531   5.345
 6070POPC   GL176561  33.971  43.349   5.763
 6070POPC   GL276562  33.600  43.393   5.800
 6070POPC   C1A76563  33.943  43.201   6.209
 6070POPC   D2A76564  34.231  43.194   6.555
 6070POPC   C3A76565  33.989  43.047   6.875
 6070POPC   C4A76566  33.924  42.819   7.224
 6070POPC   C1B76567  33.435  43.178   6.180
 6070POPC   C2B76568  33.515  42.936   6.548
 6070POPC   C3B76569  33.494  42.852   6.972
 6070POPC   C4B76570  33.600  43.240   7.210
 6071POPC   NC376571  18.873   3.850   5.468
 6071POPC   PO476572  19.247   4.442   5.484
 6071POPC   GL176573  18.962   4.462   5.825
 6071POPC   GL276574  18.961   4.140   5.852
 6071POPC   C1A76575  19.013   4.412   6.270
 6071POPC   D2A76576  19.295   4.310   6.608
 6071POPC   C3A76577  19.092   4.354   7.013
 6071POPC   C4A76578  18.695   4.365   7.222
 6071POPC   C1B76579  18.718   3.991   6.172
 6071POPC   C2B76580  18.920   3.955   6.551
 6071POPC   C3B76581  18.847   3.884   6.957
 6071POPC   C4B76582  18.572   3.884   7.269
 6072POPC   NC376583  12.635  34.611   5.137
 6072POPC   PO476584  12.873  34.051   5.297
 6072POPC   GL176585  12.852  34.470   5.603
 6072POPC   GL276586  12.564  34.677   5.690
 6072POPC   C1A76587  12.949  34.707   6.033
 6072POPC   D2A76588  12.839  34.480   6.424
 6072POPC   C3A76589  12.927  34.563   6.857
 6072POPC   C4A76590  12.798  34.522   7.303
 6072POPC   C1B76591  12.469  34.858   6.123
 6072POPC   C2B76592  12.632  34.943   6.562
 6072POPC   C3B76593  12.585  34.897   7.017
 6072POPC   C4B76594  12.304  35.103   7.271
 6073POPC   NC376595  13.312  40.836   5.530
 6073POPC   PO476596  12.712  40.535   5.352
 6073POPC   GL176597  12.840  40.774   5.742
 6073POPC   GL276598  12.574  40.822   6.000
 6073POPC   C1A76599  13.049  40.718   6.158
 6073POPC   D2A76600  12.853  40.703   6.564
 6073POPC   C3A76601  12.956  40.602   6.977
 6073POPC   C4A76602  13.246  40.783   7.211
 6073POPC   C1B76603  12.473  41.024   6.400
 6073POPC   C2B76604  12.834  41.213   6.628
 6073POPC   C3B76605  12.908  41.164   7.075
 6073POPC   C4B76606  12.528  41.050   7.323
 6074POPC   NC376607  30.563   4.168   5.402
 6074POPC   PO476608  30.600   4.814   5.395
 6074POPC   GL176609  30.719   4.521   5.765
 6074POPC   GL276610  30.466   4.350   5.885
 6074POPC   C1A76611  30.850   4.344   6.190
 6074POPC   D2A76612  30.597   4.167   6.551
 6074POPC   C3A76613  30.703   4.289   6.999
 6074POPC   C4A76614  30.873   4.163   7.417
 6074POPC   C1B76615  30.359   4.541   6.283
 6074POPC   C2B76616  30.290   4.531   6.733
 6074POPC   C3B76617  30.268   4.521   7.160
 6074POPC   C4B76618  30.546   4.558   7.510
 6075POPC   NC376619   3.410   4.559   5.550
 6075POPC   PO476620   3.346   3.924   5.613
 6075POPC   GL176621   3.383   4.150   5.960
 6075POPC   GL276622   3.675   4.376   5.994
 6075POPC   C1A76623   3.352   4.167   6.376
 6075POPC   D2A76624   3.673   4.324   6.625
 6075POPC   C3A76625   3.520   4.372   7.063
 6075POPC   C4A76626   3.076   4.314   7.174
 6075POPC   C1B76627   3.841   3.999   6.242
 6075POPC   C2B76628   3.909   3.839   6.690
 6075POPC   C3B76629   3.737   3.876   7.126
 6075POPC   C4B76630   3.847   4.076   7.517
 6076POPC   NC376631  11.834  33.342   5.621
 6076POPC   PO476632  11.222  33.790   5.529
 6076POPC   GL176633  11.255  33.730   5.919
 6076POPC   GL276634  11.604  33.685   5.906
 6076POPC   C1A76635  11.137  33.673   6.349
 6076POPC   D2A76636  11.003  33.930   6.679
 6076POPC   C3A76637  11.139  33.752   7.026
 6076POPC   C4A76638  11.399  33.640   7.325
 6076POPC   C1B76639  11.624  33.880   6.256
 6076POPC   C2B76640  11.512  33.838   6.659
 6076POPC   C3B76641  11.575  34.021   7.036
 6076POPC   C4B76642  11.626  34.163   7.446
 6077POPC   NC376643  20.750  24.116   5.443
 6077POPC   PO476644  20.193  24.580   5.407
 6077POPC   GL176645  20.370  24.345   5.776
 6077POPC   GL276646  20.730  24.441   5.849
 6077POPC   C1A76647  20.350  24.514   6.206
 6077POPC   D2A76648  20.565  24.610   6.607
 6077POPC   C3A76649  20.329  24.597   6.971
 6077POPC   C4A76650  20.409  24.780   7.372
 6077POPC   C1B76651  20.829  24.308   6.277
 6077POPC   C2B76652  20.708  24.101   6.682
 6077POPC   C3B76653  20.705  24.267   7.087
 6077POPC   C4B76654  20.825  24.721   7.090
 6078POPC   NC376655  42.549  27.881   5.583
 6078POPC   PO476656  42.022  28.278   5.383
 6078POPC   GL176657  42.214  28.240   5.800
 6078POPC   GL276658  42.569  28.343   5.837
 6078POPC   C1A76659  42.222  28.463   6.201
 6078POPC   D2A76660  42.404  28.492   6.588
 6078POPC   C3A76661  42.105  28.464   6.891
 6078POPC   C4A76662  42.183  28.404   7.319
 6078POPC   C1B76663  42.567  28.098   6.231
 6078POPC   C2B76664  42.680  28.019   6.658
 6078POPC   C3B76665  42.562  28.216   7.025
 6078POPC   C4B76666  42.658  28.248   7.472
 6079POPC   NC376667  19.864  19.990   5.383
 6079POPC   PO476668  19.335  19.577   5.632
 6079POPC   GL176669  19.539  19.835   5.935
 6079POPC   GL276670  19.625  20.187   5.868
 6079POPC   C1A76671  19.652  19.802   6.360
 6079POPC   D2A76672  19.638  20.000   6.750
 6079POPC   C3A76673  19.329  20.034   7.071
 6079POPC   C4A76674  19.666  19.880   7.277
 6079POPC   C1B76675  19.734  20.301   6.336
 6079POPC   C2B76676  19.980  20.371   6.739
 6079POPC   C3B76677  19.911  20.327   7.211
 6079POPC   C4B76678  19.531  20.330   7.500
 6080POPC   NC376679  15.576  11.913   5.495
 6080POPC   PO476680  16.232  12.140   5.607
 6080POPC   GL176681  16.144  11.997   5.965
 6080POPC   GL276682  15.932  11.752   5.818
 6080POPC   C1A76683  16.018  12.179   6.323
 6080POPC   D2A76684  15.884  12.385   6.649
 6080POPC   C3A76685  16.109  12.177   6.906
 6080POPC   C4A76686  16.148  12.097   7.307
 6080POPC   C1B76687  15.727  11.760   6.218
 6080POPC   C2B76688  15.720  11.902   6.653
 6080POPC   C3B76689  15.683  11.983   7.088
 6080POPC   C4B76690  15.706  11.720   7.430
 6081POPC   NC376691  27.817  44.618   5.405
 6081POPC   PO476692  27.202  44.797   5.549
 6081POPC   GL176693  27.502  44.595   5.876
 6081POPC   GL276694  27.880  44.693   5.899
 6081POPC   C1A76695  27.604  44.573   6.335
 6081POPC   D2A76696  27.634  44.506   6.806
 6081POPC   C3A76697  27.351  44.595   7.144
 6081POPC   C4A76698  27.146  44.855   7.456
 6081POPC   C1B76699  27.949  44.949   6.268
 6081POPC   C2B76700  27.781  44.969   6.686
 6081POPC   C3B76701  27.700  44.973   7.166
 6081POPC   C4B76702  27.965  44.864   7.553
 6082POPC   NC376703  19.357  22.182   5.082
 6082POPC   PO476704  18.941  22.346   5.648
 6082POPC   GL176705  19.194  22.376   6.042
 6082POPC   GL276706  19.253  22.009   6.064
 6082POPC   C1A76707  19.081  22.292   6.472
 6082POPC   D2A76708  18.623  22.214   6.609
 6082POPC   C3A76709  18.657  22.204   7.021
 6082POPC   C4A76710  19.047  22.355   7.205
 6082POPC   C1B76711  18.832  21.889   6.278
 6082POPC   C2B76712  18.957  21.848   6.728
 6082POPC   C3B76713  19.347  22.032   6.966
 6082POPC   C4B76714  19.426  21.974   7.425
 6083POPC   NC376715  23.870   2.424   5.339
 6083POPC   PO476716  23.678   2.947   5.621
 6083POPC   GL176717  23.875   2.625   5.841
 6083POPC   GL276718  23.556   2.500   5.915
 6083POPC   C1A76719  23.948   2.484   6.276
 6083POPC   D2A76720  23.874   2.471   6.721
 6083POPC   C3A76721  23.808   2.852   6.981
 6083POPC   C4A76722  23.918   3.113   7.316
 6083POPC   C1B76723  23.513   2.800   6.258
 6083POPC   C2B76724  23.425   2.725   6.672
 6083POPC   C3B76725  23.210   2.718   7.051
 6083POPC   C4B76726  23.438   2.930   7.352
 6084POPC   NC376727  43.823  41.780   5.342
 6084POPC   PO476728  43.671  41.066   5.502
 6084POPC   GL176729  43.838  41.441   5.751
 6084POPC   GL276730  43.653  41.769   5.833
 6084POPC   C1A76731  44.025  41.600   6.151
 6084POPC   D2A76732  43.954  41.611   6.596
 6084POPC   C3A76733  44.004  41.901   6.960
 6084POPC   C4A76734  43.900  41.766   7.387
 6084POPC   C1B76735  43.661  41.960   6.268
 6084POPC   C2B76736  43.570  41.988   6.714
 6084POPC   C3B76737  43.437  41.819   7.118
 6084POPC   C4B76738  43.450  41.959   7.547
 6085POPC   NC376739  31.941  13.986   5.479
 6085POPC   PO476740  32.183  14.575   5.397
 6085POPC   GL176741  32.255  14.494   5.826
 6085POPC   GL276742  32.123  14.166   5.920
 6085POPC   C1A76743  32.478  14.726   6.156
 6085POPC   D2A76744  32.359  14.755   6.587
 6085POPC   C3A76745  32.474  14.483   6.926
 6085POPC   C4A76746  32.572  14.779   7.198
 6085POPC   C1B76747  32.209  14.312   6.334
 6085POPC   C2B76748  32.016  14.378   6.734
 6085POPC   C3B76749  32.028  14.285   7.158
 6085POPC   C4B76750  32.039  13.959   7.441
 6086POPC   NC376751  21.064  31.621   5.355
 6086POPC   PO476752  21.476  31.216   5.556
 6086POPC   GL176753  21.359  31.547   5.805
 6086POPC   GL276754  21.156  31.314   5.920
 6086POPC   C1A76755  21.322  31.667   6.237
 6086POPC   D2A76756  21.377  31.851   6.623
 6086POPC   C3A76757  21.626  31.565   6.849
 6086POPC   C4A76758  21.607  31.469   7.244
 6086POPC   C1B76759  21.135  31.117   6.309
 6086POPC   C2B76760  21.272  31.230   6.706
 6086POPC   C3B76761  21.146  31.579   6.990
 6086POPC   C4B76762  21.124  31.281   7.244
 6087POPC   NC376763   0.213  26.585   5.427
 6087POPC   PO476764   0.685  27.078   5.638
 6087POPC   GL176765   0.416  26.769   5.859
 6087POPC   GL276766   0.516  26.382   5.812
 6087POPC   C1A76767   0.301  26.835   6.296
 6087POPC   D2A76768   0.394  26.577   6.686
 6087POPC   C3A76769   0.567  26.831   6.979
 6087POPC   C4A76770   0.493  27.088   7.316
 6087POPC   C1B76771   0.154  26.382   6.098
 6087POPC   C2B76772  44.944  26.535   6.482
 6087POPC   C3B76773  44.968  26.905   6.726
 6087POPC   C4B76774   0.064  26.884   7.137
 6088POPC   NC376775  24.974  16.970   5.374
 6088POPC   PO476776  24.351  16.985   5.431
 6088POPC   GL176777  24.416  16.755   5.820
 6088POPC   GL276778  24.796  16.701   5.822
 6088POPC   C1A76779  24.538  16.560   6.240
 6088POPC   D2A76780  24.735  16.528   6.652
 6088POPC   C3A76781  24.463  16.430   7.026
 6088POPC   C4A76782  24.333  16.665   7.357
 6088POPC   C1B76783  24.941  16.935   6.216
 6088POPC   C2B76784  24.870  17.016   6.689
 6088POPC   C3B76785  24.783  16.816   7.097
 6088POPC   C4B76786  24.589  17.072   7.431
 6089POPC   NC376787  24.198   0.014   5.630
 6089POPC   PO476788  24.412   0.525   5.183
 6089POPC   GL176789  24.506   0.451   5.639
 6089POPC   GL276790  24.161   0.525   5.739
 6089POPC   C1A76791  24.606   0.293   6.088
 6089POPC   D2A76792  24.646   0.098   6.517
 6089POPC   C3A76793  24.410   0.301   6.877
 6089POPC   C4A76794  24.665   0.406   7.247
 6089POPC   C1B76795  24.311   0.751   6.094
 6089POPC   C2B76796  24.251   0.687   6.531
 6089POPC   C3B76797  24.426   0.829   6.937
 6089POPC   C4B76798  24.299   0.737   7.329
 6090POPC   NC376799  24.799  23.827   5.401
 6090POPC   PO476800  25.460  23.665   5.449
 6090POPC   GL176801  25.331  23.689   5.830
 6090POPC   GL276802  25.013  23.622   5.819
 6090POPC   C1A76803  25.342  23.766   6.239
 6090POPC   D2A76804  25.378  23.552   6.588
 6090POPC   C3A76805  25.327  23.795   6.960
 6090POPC   C4A76806  25.217  23.581   7.323
 6090POPC   C1B76807  24.831  23.588   6.204
 6090POPC   C2B76808  24.883  23.745   6.600
 6090POPC   C3B76809  24.835  23.582   6.985
 6090POPC   C4B76810  24.746  23.754   7.376
 6091POPC   NC376811   7.532   1.091   5.350
 6091POPC   PO476812   7.001   1.336   5.660
 6091POPC   GL176813   7.382   1.406   5.877
 6091POPC   GL276814   7.504   1.084   5.850
 6091POPC   C1A76815   7.449   1.354   6.336
 6091POPC   D2A76816   7.209   1.205   6.714
 6091POPC   C3A76817   7.218   1.441   7.078
 6091POPC   C4A76818   7.533   1.361   7.349
 6091POPC   C1B76819   7.481   0.847   6.201
 6091POPC   C2B76820   7.633   0.949   6.589
 6091POPC   C3B76821   7.567   0.926   6.998
 6091POPC   C4B76822   7.207   0.930   7.181
 6092POPC   NC376823  35.697  23.325   5.622
 6092POPC   PO476824  36.116  22.906   5.283
 6092POPC   GL176825  36.142  22.934   5.738
 6092POPC   GL276826  35.815  22.797   5.706
 6092POPC   C1A76827  36.138  23.223   6.160
 6092POPC   D2A76828  36.087  23.384   6.627
 6092POPC   C3A76829  36.264  23.116   6.976
 6092POPC   C4A76830  36.267  22.675   7.017
 6092POPC   C1B76831  35.829  22.825   6.141
 6092POPC   C2B76832  36.035  22.846   6.546
 6092POPC   C3B76833  35.818  22.860   6.924
 6092POPC   C4B76834  35.849  22.750   7.350
 6093POPC   NC376835  18.670  32.025   5.616
 6093POPC   PO476836  18.331  32.489   5.267
 6093POPC   GL176837  18.477  32.445   5.803
 6093POPC   GL276838  18.308  32.116   5.966
 6093POPC   C1A76839  18.317  32.511   6.264
 6093POPC   D2A76840  18.194  32.312   6.591
 6093POPC   C3A76841  18.228  32.497   6.923
 6093POPC   C4A76842  18.313  32.453   7.329
 6093POPC   C1B76843  18.561  32.064   6.303
 6093POPC   C2B76844  18.588  31.989   6.700
 6093POPC   C3B76845  18.368  32.024   7.052
 6093POPC   C4B76846  18.613  32.029   7.427
 6094POPC   NC376847   0.596  42.022   5.567
 6094POPC   PO476848   0.707  41.410   5.566
 6094POPC   GL176849   0.386  41.515   5.865
 6094POPC   GL276850   0.119  41.243   5.789
 6094POPC   C1A76851   0.446  41.519   6.331
 6094POPC   D2A76852   0.805  41.315   6.587
 6094POPC   C3A76853   0.686  41.321   7.016
 6094POPC   C4A76854   0.538  41.694   7.242
 6094POPC   C1B76855  44.950  41.495   6.136
 6094POPC   C2B76856  44.959  41.645   6.555
 6094POPC   C3B76857   0.173  41.467   6.922
 6094POPC   C4B76858   0.285  41.276   7.333
 6095POPC   NC376859  31.135   6.642   5.072
 6095POPC   PO476860  31.679   6.812   5.453
 6095POPC   GL176861  31.470   6.739   5.841
 6095POPC   GL276862  31.692   6.448   5.865
 6095POPC   C1A76863  31.320   6.874   6.274
 6095POPC   D2A76864  31.499   6.734   6.683
 6095POPC   C3A76865  31.251   6.622   7.031
 6095POPC   C4A76866  31.397   6.721   7.406
 6095POPC   C1B76867  31.775   6.623   6.256
 6095POPC   C2B76868  31.935   6.456   6.613
 6095POPC   C3B76869  32.038   6.517   6.992
 6095POPC   C4B76870  31.903   6.507   7.406
 6096POPC   NC376871   4.573  38.735   5.556
 6096POPC   PO476872   4.231  39.342   5.485
 6096POPC   GL176873   4.276  39.276   5.916
 6096POPC   GL276874   4.419  38.961   5.995
 6096POPC   C1A76875   4.119  39.359   6.317
 6096POPC   D2A76876   4.150  39.170   6.711
 6096POPC   C3A76877   4.023  39.418   7.042
 6096POPC   C4A76878   4.173  39.371   7.453
 6096POPC   C1B76879   4.565  39.094   6.417
 6096POPC   C2B76880   4.811  39.035   6.820
 6096POPC   C3B76881   4.839  39.164   7.280
 6096POPC   C4B76882   4.672  39.378   7.674
 6097POPC   NC376883  33.281  21.015   5.657
 6097POPC   PO476884  32.955  21.483   5.246
 6097POPC   GL176885  33.028  21.517   5.720
 6097POPC   GL276886  33.277  21.753   5.829
 6097POPC   C1A76887  33.159  21.386   6.163
 6097POPC   D2A76888  33.394  21.168   6.517
 6097POPC   C3A76889  33.180  21.022   6.912
 6097POPC   C4A76890  33.161  21.225   7.318
 6097POPC   C1B76891  33.502  21.751   6.256
 6097POPC   C2B76892  33.238  21.661   6.574
 6097POPC   C3B76893  33.200  21.524   6.925
 6097POPC   C4B76894  33.446  21.684   7.264
 6098POPC   NC376895  12.786  38.174   5.407
 6098POPC   PO476896  13.011  38.821   5.440
 6098POPC   GL176897  12.786  38.575   5.751
 6098POPC   GL276898  13.047  38.331   5.812
 6098POPC   C1A76899  12.713  38.422   6.183
 6098POPC   D2A76900  12.916  38.269   6.594
 6098POPC   C3A76901  12.712  38.343   7.025
 6098POPC   C4A76902  12.776  38.329   7.509
 6098POPC   C1B76903  13.211  38.611   6.114
 6098POPC   C2B76904  13.351  38.613   6.521
 6098POPC   C3B76905  13.168  38.588   6.907
 6098POPC   C4B76906  13.129  38.638   7.314
 6099POPC   NC376907  18.079  16.219   5.550
 6099POPC   PO476908  18.638  15.752   5.578
 6099POPC   GL176909  18.358  15.835   5.893
 6099POPC   GL276910  18.444  16.131   5.896
 6099POPC   C1A76911  18.236  15.722   6.328
 6099POPC   D2A76912  18.435  15.788   6.745
 6099POPC   C3A76913  18.205  15.638   7.122
 6099POPC   C4A76914  18.356  15.668   7.588
 6099POPC   C1B76915  18.117  16.203   6.211
 6099POPC   C2B76916  18.016  16.083   6.643
 6099POPC   C3B76917  18.085  16.242   7.045
 6099POPC   C4B76918  18.026  16.026   7.398
 6100POPC   NC376919  26.537  38.834   5.368
 6100POPC   PO476920  27.159  38.417   5.595
 6100POPC   GL176921  27.070  38.636   5.964
 6100POPC   GL276922  26.753  38.732   5.823
 6100POPC   C1A76923  26.900  38.689   6.403
 6100POPC   D2A76924  26.748  38.411   6.735
 6100POPC   C3A76925  26.760  38.491   7.144
 6100POPC   C4A76926  27.117  38.633   7.275
 6100POPC   C1B76927  26.465  38.845   6.134
 6100POPC   C2B76928  26.427  38.973   6.542
 6100POPC   C3B76929  26.390  38.778   6.929
 6100POPC   C4B76930  26.340  38.706   7.358
 6101POPC   NC376931   4.953  15.241   5.285
 6101POPC   PO476932   5.473  15.744   5.464
 6101POPC   GL176933   5.410  15.351   5.754
 6101POPC   GL276934   5.094  15.204   5.753
 6101POPC   C1A76935   5.361  15.141   6.187
 6101POPC   D2A76936   5.591  14.969   6.551
 6101POPC   C3A76937   5.433  14.948   6.990
 6101POPC   C4A76938   5.180  15.047   7.358
 6101POPC   C1B76939   4.817  15.162   6.083
 6101POPC   C2B76940   4.915  14.949   6.451
 6101POPC   C3B76941   4.878  15.004   6.904
 6101POPC   C4B76942   4.935  15.413   7.131
 6102POPC   NC376943   8.904  37.813   5.323
 6102POPC   PO476944   8.875  37.242   5.230
 6102POPC   GL176945   9.035  37.462   5.658
 6102POPC   GL276946   9.213  37.805   5.715
 6102POPC   C1A76947   8.974  37.568   6.088
 6102POPC   D2A76948   8.969  37.436   6.505
 6102POPC   C3A76949   9.026  37.728   6.858
 6102POPC   C4A76950   9.205  37.672   7.301
 6102POPC   C1B76951   9.131  38.040   6.126
 6102POPC   C2B76952   9.293  38.089   6.578
 6102POPC   C3B76953   9.293  38.135   7.051
 6102POPC   C4B76954   9.238  38.161   7.495
 6103POPC   NC376955   6.552  33.276   5.469
 6103POPC   PO476956   6.432  32.702   5.807
 6103POPC   GL176957   6.575  33.051   5.959
 6103POPC   GL276958   6.900  33.073   5.843
 6103POPC   C1A76959   6.635  33.111   6.390
 6103POPC   D2A76960   6.354  33.296   6.668
 6103POPC   C3A76961   6.403  33.214   7.090
 6103POPC   C4A76962   6.654  33.181   7.443
 6103POPC   C1B76963   7.057  32.847   6.202
 6103POPC   C2B76964   6.939  32.756   6.633
 6103POPC   C3B76965   6.936  33.074   6.969
 6103POPC   C4B76966   7.085  32.961   7.379
 6104POPC   NC376967  42.232  10.491   5.473
 6104POPC   PO476968  42.926  10.549   5.320
 6104POPC   GL176969  42.684  10.541   5.755
 6104POPC   GL276970  42.489  10.236   5.840
 6104POPC   C1A76971  42.480  10.574   6.209
 6104POPC   D2A76972  42.067  10.646   6.443
 6104POPC   C3A76973  42.095  10.541   6.882
 6104POPC   C4A76974  42.230  10.758   7.256
 6104POPC   C1B76975  42.130  10.198   6.175
 6104POPC   C2B76976  42.135  10.101   6.613
 6104POPC   C3B76977  42.200  10.056   7.056
 6104POPC   C4B76978  41.985  10.025   7.442
 6105POPC   NC376979  11.605  41.165   5.391
 6105POPC   PO476980  12.258  41.411   5.406
 6105POPC   GL176981  12.243  41.430   5.857
 6105POPC   GL276982  11.877  41.399   5.831
 6105POPC   C1A76983  12.095  41.705   6.232
 6105POPC   D2A76984  12.000  42.010   6.563
 6105POPC   C3A76985  12.167  41.979   6.973
 6105POPC   C4A76986  12.128  41.842   7.444
 6105POPC   C1B76987  11.964  41.224   6.246
 6105POPC   C2B76988  12.074  41.322   6.640
 6105POPC   C3B76989  12.008  41.509   7.033
 6105POPC   C4B76990  12.067  41.333   7.416
 6106POPC   NC376991  15.321   7.545   5.057
 6106POPC   PO476992  15.333   7.200   5.591
 6106POPC   GL176993  15.255   7.537   5.876
 6106POPC   GL276994  15.569   7.639   5.870
 6106POPC   C1A76995  15.176   7.488   6.314
 6106POPC   D2A76996  14.935   7.515   6.691
 6106POPC   C3A76997  15.186   7.348   6.976
 6106POPC   C4A76998  15.300   7.141   7.315
 6106POPC   C1B76999  15.515   7.862   6.232
 6106POPC   C2B77000  15.298   7.884   6.661
 6106POPC   C3B77001  15.284   7.834   7.119
 6106POPC   C4B77002  15.531   7.565   7.406
 6107POPC   NC377003  40.613   1.985   5.088
 6107POPC   PO477004  41.234   2.080   5.396
 6107POPC   GL177005  40.925   2.080   5.742
 6107POPC   GL277006  41.142   1.844   5.846
 6107POPC   C1A77007  40.638   1.892   6.093
 6107POPC   D2A77008  40.449   1.919   6.528
 6107POPC   C3A77009  40.724   1.954   6.926
 6107POPC   C4A77010  40.751   2.180   7.328
 6107POPC   C1B77011  41.101   1.689   6.184
 6107POPC   C2B77012  40.986   1.937   6.487
 6107POPC   C3B77013  41.157   2.216   6.757
 6107POPC   C4B77014  41.230   2.109   7.166
 6108POPC   NC377015  44.639  28.452   5.219
 6108POPC   PO477016  44.993  27.977   5.553
 6108POPC   GL177017  44.833  28.181   6.010
 6108POPC   GL277018  44.751  28.526   5.895
 6108POPC   C1A77019  44.563  28.340   6.346
 6108POPC   D2A77020  44.384  28.147   6.697
 6108POPC   C3A77021  44.630  28.177   7.081
 6108POPC   C4A77022  44.812  28.172   7.494
 6108POPC   C1B77023   0.009  28.612   6.273
 6108POPC   C2B77024  44.931  28.770   6.694
 6108POPC   C3B77025  44.891  28.620   7.124
 6108POPC   C4B77026  44.728  28.688   7.529
 6109POPC   NC377027  12.623   6.848   5.389
 6109POPC   PO477028  13.290   6.898   5.551
 6109POPC   GL177029  12.979   6.663   5.759
 6109POPC   GL277030  12.883   6.334   5.678
 6109POPC   C1A77031  12.750   6.713   6.140
 6109POPC   D2A77032  12.893   6.857   6.558
 6109POPC   C3A77033  12.614   6.759   6.884
 6109POPC   C4A77034  12.768   6.767   7.275
 6109POPC   C1B77035  12.932   6.234   6.131
 6109POPC   C2B77036  12.733   6.369   6.552
 6109POPC   C3B77037  12.973   6.387   6.988
 6109POPC   C4B77038  13.005   6.376   7.458
 6110POPC   NC377039  29.010  26.262   5.532
 6110POPC   PO477040  29.516  25.857   5.509
 6110POPC   GL177041  29.321  26.035   5.883
 6110POPC   GL277042  29.017  25.848   5.858
 6110POPC   C1A77043  29.113  26.211   6.266
 6110POPC   D2A77044  29.272  26.187   6.676
 6110POPC   C3A77045  29.077  26.201   7.094
 6110POPC   C4A77046  29.179  26.265   7.522
 6110POPC   C1B77047  29.143  25.676   6.243
 6110POPC   C2B77048  28.930  25.611   6.624
 6110POPC   C3B77049  28.923  25.717   7.044
 6110POPC   C4B77050  29.201  25.756   7.396
 6111POPC   NC377051  15.864  16.389   5.383
 6111POPC   PO477052  15.990  15.749   5.428
 6111POPC   GL177053  16.005  15.919   5.833
 6111POPC   GL277054  16.186  16.210   5.754
 6111POPC   C1A77055  15.788  15.971   6.242
 6111POPC   D2A77056  15.548  16.166   6.589
 6111POPC   C3A77057  15.680  15.969   6.951
 6111POPC   C4A77058  15.832  15.619   7.162
 6111POPC   C1B77059  16.219  16.250   6.192
 6111POPC   C2B77060  16.077  16.181   6.637
 6111POPC   C3B77061  16.180  15.995   7.064
 6111POPC   C4B77062  16.307  15.866   7.485
 6112POPC   NC377063  14.808  18.237   5.242
 6112POPC   PO477064  15.469  18.106   5.352
 6112POPC   GL177065  15.306  18.214   5.772
 6112POPC   GL277066  14.947  18.256   5.747
 6112POPC   C1A77067  15.187  18.467   6.153
 6112POPC   D2A77068  15.291  18.670   6.531
 6112POPC   C3A77069  14.993  18.597   6.867
 6112POPC   C4A77070  15.017  18.423   7.266
 6112POPC   C1B77071  14.956  18.017   6.144
 6112POPC   C2B77072  15.011  18.169   6.568
 6112POPC   C3B77073  14.997  18.008   6.987
 6112POPC   C4B77074  14.894  17.878   7.416
 6113POPC   NC377075  31.007  38.717   5.460
 6113POPC   PO477076  30.528  38.225   5.590
 6113POPC   GL177077  30.759  38.441   5.853
 6113POPC   GL277078  30.576  38.699   6.051
 6113POPC   C1A77079  30.884  38.303   6.256
 6113POPC   D2A77080  30.799  38.526   6.589
 6113POPC   C3A77081  30.814  38.259   6.927
 6113POPC   C4A77082  30.805  38.247   7.358
 6113POPC   C1B77083  31.058  38.755   6.112
 6113POPC   C2B77084  31.271  38.729   6.482
 6113POPC   C3B77085  31.225  38.541   6.868
 6113POPC   C4B77086  31.001  38.695   7.202
 6114POPC   NC377087  13.270  26.800   5.379
 6114POPC   PO477088  12.608  26.609   5.202
 6114POPC   GL177089  12.842  26.669   5.651
 6114POPC   GL277090  12.996  26.984   5.774
 6114POPC   C1A77091  12.840  26.691   6.151
 6114POPC   D2A77092  12.761  26.974   6.547
 6114POPC   C3A77093  12.744  26.820   6.977
 6114POPC   C4A77094  12.997  26.502   7.211
 6114POPC   C1B77095  13.013  27.190   6.161
 6114POPC   C2B77096  13.259  27.286   6.511
 6114POPC   C3B77097  13.120  27.350   6.933
 6114POPC   C4B77098  13.060  27.090   7.288
 6115POPC   NC377099  28.882  30.788   5.505
 6115POPC   PO477100  29.580  30.766   5.397
 6115POPC   GL177101  29.425  30.743   5.793
 6115POPC   GL277102  29.440  30.407   5.948
 6115POPC   C1A77103  29.190  30.812   6.168
 6115POPC   D2A77104  29.302  30.799   6.574
 6115POPC   C3A77105  29.109  31.019   6.873
 6115POPC   C4A77106  29.168  30.914   7.278
 6115POPC   C1B77107  29.051  30.330   6.204
 6115POPC   C2B77108  28.907  30.403   6.598
 6115POPC   C3B77109  29.094  30.475   6.959
 6115POPC   C4B77110  28.961  30.460   7.359
 6116POPC   NC377111  43.706   1.359   5.213
 6116POPC   PO477112  44.329   1.198   5.332
 6116POPC   GL177113  44.004   1.136   5.667
 6116POPC   GL277114  43.710   1.350   5.743
 6116POPC   C1A77115  44.056   1.157   6.133
 6116POPC   D2A77116  44.048   1.323   6.556
 6116POPC   C3A77117  43.914   1.070   6.932
 6116POPC   C4A77118  43.944   1.260   7.356
 6116POPC   C1B77119  43.553   1.106   6.083
 6116POPC   C2B77120  43.628   1.047   6.507
 6116POPC   C3B77121  43.483   1.330   6.842
 6116POPC   C4B77122  43.474   1.120   7.228
 6117POPC   NC377123   2.824  25.382   5.369
 6117POPC   PO477124   2.563  24.935   5.645
 6117POPC   GL177125   2.733  25.260   5.856
 6117POPC   GL277126   2.564  25.602   5.767
 6117POPC   C1A77127   2.982  25.193   6.205
 6117POPC   D2A77128   2.933  24.977   6.572
 6117POPC   C3A77129   2.992  25.240   6.926
 6117POPC   C4A77130   2.760  25.240   7.284
 6117POPC   C1B77131   2.769  25.652   6.169
 6117POPC   C2B77132   2.684  25.427   6.556
 6117POPC   C3B77133   2.563  25.556   6.942
 6117POPC   C4B77134   2.700  25.739   7.311
 6118POPC   NC377135  26.374  44.325   5.384
 6118POPC   PO477136  27.011  43.975   5.485
 6118POPC   GL177137  26.936  43.898   5.887
 6118POPC   GL277138  26.599  44.008   5.909
 6118POPC   C1A77139  27.159  43.783   6.257
 6118POPC   D2A77140  27.031  43.826   6.672
 6118POPC   C3A77141  27.168  43.633   7.025
 6118POPC   C4A77142  26.823  43.475   7.283
 6118POPC   C1B77143  26.636  43.690   6.275
 6118POPC   C2B77144  26.524  43.698   6.742
 6118POPC   C3B77145  26.494  43.861   7.178
 6118POPC   C4B77146  26.300  43.741   7.567
 6119POPC   NC377147  21.905  33.064   5.243
 6119POPC   PO477148  22.486  33.313   5.393
 6119POPC   GL177149  22.328  33.156   5.780
 6119POPC   GL277150  22.072  32.889   5.749
 6119POPC   C1A77151  22.530  33.224   6.192
 6119POPC   D2A77152  22.441  33.424   6.599
 6119POPC   C3A77153  22.321  33.199   6.992
 6119POPC   C4A77154  22.454  33.189   7.446
 6119POPC   C1B77155  22.121  32.924   6.211
 6119POPC   C2B77156  21.954  33.196   6.557
 6119POPC   C3B77157  21.754  33.186   6.963
 6119POPC   C4B77158  21.957  33.014   7.324
 6120POPC   NC377159  34.642   0.920   5.489
 6120POPC   PO477160  34.200   1.397   5.554
 6120POPC   GL177161  34.445   1.245   5.836
 6120POPC   GL277162  34.770   1.376   5.717
 6120POPC   C1A77163  34.419   1.355   6.242
 6120POPC   D2A77164  34.542   1.553   6.588
 6120POPC   C3A77165  34.353   1.248   6.819
 6120POPC   C4A77166  34.394   1.235   7.205
 6120POPC   C1B77167  34.888   1.154   6.098
 6120POPC   C2B77168  34.791   1.089   6.516
 6120POPC   C3B77169  34.847   1.230   6.905
 6120POPC   C4B77170  34.894   1.188   7.318
 6121POPC   NC377171  35.076  38.836   5.453
 6121POPC   PO477172  35.419  39.462   5.419
 6121POPC   GL177173  35.371  39.271   5.823
 6121POPC   GL277174  35.139  39.026   5.925
 6121POPC   C1A77175  35.596  39.084   6.171
 6121POPC   D2A77176  35.732  38.900   6.557
 6121POPC   C3A77177  35.590  39.188   6.861
 6121POPC   C4A77178  35.352  39.188   7.254
 6121POPC   C1B77179  34.984  39.055   6.351
 6121POPC   C2B77180  35.101  38.990   6.787
 6121POPC   C3B77181  35.087  38.755   7.157
 6121POPC   C4B77182  34.915  38.804   7.587
 6122POPC   NC377183  11.042  40.464   5.122
 6122POPC   PO477184  11.399  39.887   5.348
 6122POPC   GL177185  11.228  39.795   5.802
 6122POPC   GL277186  11.419  40.054   5.989
 6122POPC   C1A77187  11.308  39.680   6.300
 6122POPC   D2A77188  11.486  39.982   6.637
 6122POPC   C3A77189  11.361  40.011   7.098
 6122POPC   C4A77190  11.105  39.903   7.477
 6122POPC   C1B77191  11.027  40.100   6.255
 6122POPC   C2B77192  10.996  40.217   6.706
 6122POPC   C3B77193  11.091  40.453   7.081
 6122POPC   C4B77194  11.189  40.409   7.533
 6123POPC   NC377195  33.568  19.508   5.509
 6123POPC   PO477196  33.931  20.075   5.449
 6123POPC   GL177197  33.748  19.992   5.872
 6123POPC   GL277198  33.668  19.646   5.967
 6123POPC   C1A77199  33.731  19.977   6.346
 6123POPC   D2A77200  33.837  20.288   6.672
 6123POPC   C3A77201  33.807  20.169   7.115
 6123POPC   C4A77202  33.583  19.837   7.317
 6123POPC   C1B77203  34.002  19.549   6.241
 6123POPC   C2B77204  33.943  19.460   6.674
 6123POPC   C3B77205  33.987  19.655   7.073
 6123POPC   C4B77206  34.173  19.437   7.431
 6124POPC   NC377207  27.055  25.896   5.371
 6124POPC   PO477208  26.494  26.121   5.320
 6124POPC   GL177209  26.715  26.331   5.619
 6124POPC   GL277210  26.767  26.014   5.793
 6124POPC   C1A77211  26.670  26.433   6.085
 6124POPC   D2A77212  26.778  26.258   6.487
 6124POPC   C3A77213  26.713  26.360   6.907
 6124POPC   C4A77214  26.945  26.260   7.283
 6124POPC   C1B77215  26.886  25.843   6.192
 6124POPC   C2B77216  26.762  25.754   6.609
 6124POPC   C3B77217  26.836  25.861   6.986
 6124POPC   C4B77218  26.786  25.557   7.258
 6125POPC   NC377219  10.847  13.456   5.255
 6125POPC   PO477220  10.198  13.661   5.421
 6125POPC   GL177221  10.274  13.848   5.828
 6125POPC   GL277222  10.551  13.641   5.855
 6125POPC   C1A77223  10.288  13.834   6.274
 6125POPC   D2A77224  10.255  13.446   6.463
 6125POPC   C3A77225  10.455  13.469   6.862
 6125POPC   C4A77226  10.423  13.752   7.190
 6125POPC   C1B77227  10.739  13.534   6.258
 6125POPC   C2B77228  10.915  13.748   6.601
 6125POPC   C3B77229  10.894  13.700   7.038
 6125POPC   C4B77230  10.711  13.382   7.353
 6126POPC   NC377231  30.058  23.276   5.362
 6126POPC   PO477232  29.518  22.912   5.401
 6126POPC   GL177233  29.836  22.908   5.734
 6126POPC   GL277234  29.845  23.207   5.830
 6126POPC   C1A77235  29.884  22.780   6.153
 6126POPC   D2A77236  29.738  22.948   6.551
 6126POPC   C3A77237  30.062  22.998   6.887
 6126POPC   C4A77238  30.064  22.799   7.282
 6126POPC   C1B77239  29.981  23.311   6.236
 6126POPC   C2B77240  29.877  23.454   6.647
 6126POPC   C3B77241  29.635  23.246   6.966
 6126POPC   C4B77242  29.667  23.207   7.397
 6127POPC   NC377243  34.199  44.595   5.334
 6127POPC   PO477244  33.638  44.866   5.416
 6127POPC   GL177245  33.885  44.665   5.765
 6127POPC   GL277246  34.122  44.953   5.809
 6127POPC   C1A77247  34.063  44.635   6.211
 6127POPC   D2A77248  33.927  44.855   6.590
 6127POPC   C3A77249  33.874  44.588   6.945
 6127POPC   C4A77250  33.873  44.570   7.352
 6127POPC   C1B77251  33.823   0.125   6.142
 6127POPC   C2B77252  33.491   0.112   6.529
 6127POPC   C3B77253  33.597   0.038   6.979
 6127POPC   C4B77254  33.689   0.060   7.447
 6128POPC   NC377255  12.640  14.994   5.086
 6128POPC   PO477256  12.881  15.438   5.564
 6128POPC   GL177257  12.982  15.230   5.914
 6128POPC   GL277258  12.661  15.045   5.906
 6128POPC   C1A77259  13.007  15.003   6.295
 6128POPC   D2A77260  13.003  14.639   6.559
 6128POPC   C3A77261  12.797  14.857   6.864
 6128POPC   C4A77262  12.908  15.071   7.238
 6128POPC   C1B77263  12.614  15.307   6.283
 6128POPC   C2B77264  12.861  15.346   6.695
 6128POPC   C3B77265  12.959  15.563   7.103
 6128POPC   C4B77266  12.925  15.466   7.574
 6129POPC   NC377267  43.680  40.745   5.162
 6129POPC   PO477268  44.176  40.591   5.608
 6129POPC   GL177269  43.964  40.793   5.934
 6129POPC   GL277270  44.108  41.094   6.019
 6129POPC   C1A77271  44.026  40.698   6.364
 6129POPC   D2A77272  43.817  40.547   6.735
 6129POPC   C3A77273  44.077  40.689   7.036
 6129POPC   C4A77274  44.046  41.056   7.173
 6129POPC   C1B77275  43.761  41.148   6.268
 6129POPC   C2B77276  43.807  41.116   6.705
 6129POPC   C3B77277  43.751  41.423   7.023
 6129POPC   C4B77278  43.678  41.278   7.437
 6130POPC   NC377279  23.437   6.100   5.490
 6130POPC   PO477280  23.725   5.591   5.274
 6130POPC   GL177281  23.748   5.754   5.772
 6130POPC   GL277282  24.056   5.948   5.903
 6130POPC   C1A77283  23.702   5.914   6.240
 6130POPC   D2A77284  23.753   6.086   6.640
 6130POPC   C3A77285  23.459   5.915   6.907
 6130POPC   C4A77286  23.645   5.895   7.270
 6130POPC   C1B77287  24.026   6.319   6.239
 6130POPC   C2B77288  24.138   6.437   6.675
 6130POPC   C3B77289  24.059   6.249   7.075
 6130POPC   C4B77290  23.832   6.373   7.424
 6131POPC   NC377291  34.388  30.464   5.585
 6131POPC   PO477292  34.086  31.179   5.587
 6131POPC   GL177293  34.301  30.892   5.880
 6131POPC   GL277294  34.625  30.950   5.994
 6131POPC   C1A77295  34.247  30.718   6.294
 6131POPC   D2A77296  34.534  30.955   6.550
 6131POPC   C3A77297  34.602  30.908   6.990
 6131POPC   C4A77298  34.850  31.105   7.306
 6131POPC   C1B77299  34.731  30.577   6.239
 6131POPC   C2B77300  34.570  30.420   6.631
 6131POPC   C3B77301  34.786  30.368   7.031
 6131POPC   C4B77302  34.715  30.611   7.393
 6132POPC   NC377303  28.417  44.025   5.415
 6132POPC   PO477304  28.137  43.433   5.537
 6132POPC   GL177305  28.437  43.590   5.885
 6132POPC   GL277306  28.534  43.937   5.893
 6132POPC   C1A77307  28.410  43.719   6.334
 6132POPC   D2A77308  28.073  43.917   6.569
 6132POPC   C3A77309  28.138  43.778   6.983
 6132POPC   C4A77310  28.374  43.798   7.347
 6132POPC   C1B77311  28.587  44.219   6.219
 6132POPC   C2B77312  28.469  44.217   6.656
 6132POPC   C3B77313  28.387  44.261   7.079
 6132POPC   C4B77314  28.677  44.209   7.416
 6133POPC   NC377315   3.293  14.721   5.644
 6133POPC   PO477316   3.811  14.366   5.356
 6133POPC   GL177317   3.702  14.372   5.781
 6133POPC   GL277318   3.366  14.236   5.854
 6133POPC   C1A77319   3.886  14.296   6.191
 6133POPC   D2A77320   3.941  14.496   6.568
 6133POPC   C3A77321   3.696  14.264   6.819
 6133POPC   C4A77322   3.766  14.183   7.212
 6133POPC   C1B77323   3.177  14.203   6.281
 6133POPC   C2B77324   3.235  14.482   6.649
 6133POPC   C3B77325   3.314  14.478   7.098
 6133POPC   C4B77326   3.141  14.240   7.404
 6134POPC   NC377327   8.432  44.019   5.365
 6134POPC   PO477328   7.697  43.962   5.306
 6134POPC   GL177329   8.000  43.840   5.678
 6134POPC   GL277330   8.278  44.053   5.848
 6134POPC   C1A77331   8.015  43.728   6.128
 6134POPC   D2A77332   7.946  43.867   6.539
 6134POPC   C3A77333   7.847  43.602   6.872
 6134POPC   C4A77334   7.869  43.798   7.297
 6134POPC   C1B77335   8.517  43.705   6.122
 6134POPC   C2B77336   8.431  43.582   6.553
 6134POPC   C3B77337   8.309  43.807   6.908
 6134POPC   C4B77338   8.410  43.886   7.286
 6135POPC   NC377339  44.002   5.344   5.640
 6135POPC   PO477340  43.716   4.737   5.460
 6135POPC   GL177341  43.698   4.983   5.840
 6135POPC   GL277342  44.041   4.878   5.918
 6135POPC   C1A77343  43.723   5.372   6.195
 6135POPC   D2A77344  44.046   5.385   6.522
 6135POPC   C3A77345  43.896   5.208   6.920
 6135POPC   C4A77346  43.599   5.255   7.259
 6135POPC   C1B77347  43.808   4.903   6.322
 6135POPC   C2B77348  43.529   4.824   6.649
 6135POPC   C3B77349  43.585   4.770   7.084
 6135POPC   C4B77350  43.930   4.801   7.372
 6136POPC   NC377351  33.287  13.660   5.412
 6136POPC   PO477352  32.621  13.764   5.491
 6136POPC   GL177353  32.717  13.520   5.837
 6136POPC   GL277354  33.066  13.435   5.814
 6136POPC   C1A77355  32.869  13.633   6.232
 6136POPC   D2A77356  33.044  13.544   6.638
 6136POPC   C3A77357  32.807  13.612   7.015
 6136POPC   C4A77358  32.815  13.729   7.482
 6136POPC   C1B77359  33.312  13.368   6.206
 6136POPC   C2B77360  33.518  13.332   6.584
 6136POPC   C3B77361  33.283  13.234   6.963
 6136POPC   C4B77362  33.231  13.495   7.315
 6137POPC   NC377363  12.603   2.727   5.308
 6137POPC   PO477364  13.292   2.721   5.388
 6137POPC   GL177365  13.053   2.754   5.823
 6137POPC   GL277366  12.701   2.675   5.813
 6137POPC   C1A77367  12.852   2.846   6.270
 6137POPC   D2A77368  12.622   3.040   6.644
 6137POPC   C3A77369  12.899   3.045   7.022
 6137POPC   C4A77370  13.134   2.679   7.175
 6137POPC   C1B77371  12.590   2.408   6.156
 6137POPC   C2B77372  12.550   2.525   6.600
 6137POPC   C3B77373  12.639   2.579   7.043
 6137POPC   C4B77374  12.559   2.914   7.381
 6138POPC   NC377375  15.791  15.338   5.495
 6138POPC   PO477376  16.328  14.821   5.494
 6138POPC   GL177377  16.119  15.094   5.799
 6138POPC   GL277378  16.257  15.429   5.811
 6138POPC   C1A77379  15.899  15.285   6.168
 6138POPC   D2A77380  15.995  15.185   6.584
 6138POPC   C3A77381  15.739  15.141   6.945
 6138POPC   C4A77382  15.939  15.153   7.346
 6138POPC   C1B77383  16.252  15.667   6.212
 6138POPC   C2B77384  16.139  15.677   6.643
 6138POPC   C3B77385  16.238  15.416   6.977
 6138POPC   C4B77386  16.426  15.395   7.359
 6139POPC   NC377387  21.024   4.984   5.315
 6139POPC   PO477388  21.499   5.394   5.416
 6139POPC   GL177389  21.201   5.265   5.764
 6139POPC   GL277390  21.180   4.885   5.793
 6139POPC   C1A77391  21.311   5.219   6.220
 6139POPC   D2A77392  21.479   5.376   6.629
 6139POPC   C3A77393  21.359   5.163   6.983
 6139POPC   C4A77394  21.461   5.211   7.387
 6139POPC   C1B77395  21.250   4.702   6.190
 6139POPC   C2B77396  21.343   4.803   6.595
 6139POPC   C3B77397  21.059   4.758   6.937
 6139POPC   C4B77398  21.057   4.898   7.328
 6140POPC   NC377399  19.413  29.168   5.404
 6140POPC   PO477400  18.909  28.695   5.434
 6140POPC   GL177401  19.113  28.974   5.822
 6140POPC   GL277402  19.081  29.337   5.783
 6140POPC   C1A77403  19.191  29.065   6.309
 6140POPC   D2A77404  18.972  29.195   6.745
 6140POPC   C3A77405  18.937  29.032   7.192
 6140POPC   C4A77406  18.992  28.741   7.564
 6140POPC   C1B77407  19.211  29.556   6.173
 6140POPC   C2B77408  19.262  29.607   6.644
 6140POPC   C3B77409  19.319  29.426   7.085
 6140POPC   C4B77410  19.241  29.273   7.520
 6141POPC   NC377411  22.558   6.504   5.507
 6141POPC   PO477412  22.882   7.050   5.524
 6141POPC   GL177413  22.898   6.704   5.857
 6141POPC   GL277414  23.191   6.472   5.854
 6141POPC   C1A77415  22.821   6.717   6.325
 6141POPC   D2A77416  23.066   6.532   6.691
 6141POPC   C3A77417  22.887   6.665   7.092
 6141POPC   C4A77418  22.806   6.849   7.517
 6141POPC   C1B77419  22.975   6.259   6.202
 6141POPC   C2B77420  22.621   6.258   6.495
 6141POPC   C3B77421  22.642   6.193   6.939
 6141POPC   C4B77422  23.041   6.163   7.167
 6142POPC   NC377423  36.546  32.391   5.484
 6142POPC   PO477424  35.843  32.229   5.496
 6142POPC   GL177425  36.178  32.064   5.763
 6142POPC   GL277426  36.273  32.391   5.908
 6142POPC   C1A77427  36.385  31.976   6.181
 6142POPC   D2A77428  36.226  31.864   6.595
 6142POPC   C3A77429  36.308  32.031   7.018
 6142POPC   C4A77430  36.274  32.088   7.455
 6142POPC   C1B77431  35.996  32.314   6.251
 6142POPC   C2B77432  36.012  32.316   6.693
 6142POPC   C3B77433  36.040  32.461   7.086
 6142POPC   C4B77434  36.430  32.537   7.221
 6143POPC   NC377435  21.065  12.616   5.375
 6143POPC   PO477436  21.609  13.042   5.335
 6143POPC   GL177437  21.672  12.934   5.789
 6143POPC   GL277438  21.383  12.741   5.758
 6143POPC   C1A77439  21.565  12.867   6.239
 6143POPC   D2A77440  21.787  12.728   6.611
 6143POPC   C3A77441  21.559  12.743   6.948
 6143POPC   C4A77442  21.483  12.358   7.161
 6143POPC   C1B77443  21.089  12.754   6.084
 6143POPC   C2B77444  21.169  12.599   6.509
 6143POPC   C3B77445  21.078  12.525   6.930
 6143POPC   C4B77446  21.233  12.760   7.333
 6144POPC   NC377447  35.175  29.794   5.255
 6144POPC   PO477448  35.585  30.289   5.391
 6144POPC   GL177449  35.438  29.931   5.694
 6144POPC   GL277450  35.638  29.631   5.595
 6144POPC   C1A77451  35.262  29.921   6.159
 6144POPC   D2A77452  35.370  30.033   6.609
 6144POPC   C3A77453  35.149  29.966   7.029
 6144POPC   C4A77454  35.084  29.943   7.529
 6144POPC   C1B77455  35.693  29.671   6.055
 6144POPC   C2B77456  35.791  29.773   6.494
 6144POPC   C3B77457  35.712  29.842   6.935
 6144POPC   C4B77458  35.548  29.849   7.338
 6145POPC   NC377459   3.971  15.387   5.393
 6145POPC   PO477460   4.504  14.930   5.463
 6145POPC   GL177461   4.447  15.367   5.719
 6145POPC   GL277462   4.102  15.434   5.866
 6145POPC   C1A77463   4.497  15.563   6.163
 6145POPC   D2A77464   4.479  15.298   6.549
 6145POPC   C3A77465   4.419  15.421   6.972
 6145POPC   C4A77466   4.532  15.133   7.276
 6145POPC   C1B77467   4.240  15.112   6.121
 6145POPC   C2B77468   4.058  14.984   6.485
 6145POPC   C3B77469   4.077  15.048   6.882
 6145POPC   C4B77470   4.028  15.221   7.258
 6146POPC   NC377471  26.857   7.228   5.401
 6146POPC   PO477472  26.350   7.570   5.515
 6146POPC   GL177473  26.651   7.339   5.854
 6146POPC   GL277474  26.933   7.566   5.919
 6146POPC   C1A77475  26.876   7.256   6.303
 6146POPC   D2A77476  26.842   7.530   6.679
 6146POPC   C3A77477  26.903   7.374   7.136
 6146POPC   C4A77478  26.869   7.169   7.550
 6146POPC   C1B77479  26.551   7.687   6.229
 6146POPC   C2B77480  26.426   7.823   6.683
 6146POPC   C3B77481  26.600   7.790   7.141
 6146POPC   C4B77482  26.483   7.536   7.514
 6147POPC   NC377483  43.941  28.915   5.529
 6147POPC   PO477484  43.849  29.608   5.457
 6147POPC   GL177485  43.936  29.350   5.810
 6147POPC   GL277486  43.659  29.158   5.875
 6147POPC   C1A77487  44.053  29.129   6.196
 6147POPC   D2A77488  44.170  29.287   6.606
 6147POPC   C3A77489  44.179  29.116   7.015
 6147POPC   C4A77490  44.027  29.386   7.355
 6147POPC   C1B77491  43.527  29.316   6.273
 6147POPC   C2B77492  43.400  29.313   6.689
 6147POPC   C3B77493  43.668  29.202   6.993
 6147POPC   C4B77494  43.730  28.785   7.112
 6148POPC   NC377495  30.057  35.674   5.421
 6148POPC   PO477496  29.950  35.014   5.359
 6148POPC   GL177497  29.938  35.269   5.739
 6148POPC   GL277498  30.291  35.338   5.772
 6148POPC   C1A77499  29.777  35.278   6.166
 6148POPC   D2A77500  29.876  35.121   6.568
 6148POPC   C3A77501  29.682  35.304   6.877
 6148POPC   C4A77502  29.771  35.368   7.267
 6148POPC   C1B77503  30.272  35.205   6.208
 6148POPC   C2B77504  30.324  35.383   6.624
 6148POPC   C3B77505  30.287  35.047   6.932
 6148POPC   C4B77506  30.170  35.055   7.372
 6149POPC   NC377507   3.820  22.085   5.089
 6149POPC   PO477508   4.453  22.061   5.454
 6149POPC   GL177509   4.238  22.249   5.817
 6149POPC   GL277510   4.455  22.040   5.977
 6149POPC   C1A77511   4.105  22.344   6.246
 6149POPC   D2A77512   4.337  22.390   6.657
 6149POPC   C3A77513   4.269  22.033   6.825
 6149POPC   C4A77514   4.096  21.738   7.122
 6149POPC   C1B77515   4.615  22.041   6.380
 6149POPC   C2B77516   4.829  22.128   6.742
 6149POPC   C3B77517   4.653  22.290   7.112
 6149POPC   C4B77518   4.849  22.357   7.502
 6150POPC   NC377519  38.789  14.031   5.436
 6150POPC   PO477520  38.350  13.492   5.211
 6150POPC   GL177521  38.354  13.795   5.666
 6150POPC   GL277522  38.021  13.902   5.816
 6150POPC   C1A77523  38.464  13.755   6.132
 6150POPC   D2A77524  38.668  13.509   6.484
 6150POPC   C3A77525  38.601  13.564   6.937
 6150POPC   C4A77526  38.566  13.892   7.251
 6150POPC   C1B77527  37.985  13.900   6.259
 6150POPC   C2B77528  38.150  13.676   6.580
 6150POPC   C3B77529  38.134  13.789   6.978
 6150POPC   C4B77530  38.178  13.540   7.295
 6151POPC   NC377531  16.514   8.002   5.387
 6151POPC   PO477532  16.524   8.698   5.459
 6151POPC   GL177533  16.589   8.349   5.809
 6151POPC   GL277534  16.503   8.002   5.877
 6151POPC   C1A77535  16.808   8.194   6.222
 6151POPC   D2A77536  16.662   8.095   6.664
 6151POPC   C3A77537  16.813   8.235   7.130
 6151POPC   C4A77538  16.992   8.434   7.558
 6151POPC   C1B77539  16.299   8.164   6.233
 6151POPC   C2B77540  16.186   8.321   6.624
 6151POPC   C3B77541  16.304   8.153   7.021
 6151POPC   C4B77542  16.327   7.944   7.390
 6152POPC   NC377543  36.629  41.811   5.367
 6152POPC   PO477544  37.088  41.400   5.648
 6152POPC   GL177545  36.825  41.569   5.886
 6152POPC   GL277546  37.060  41.812   5.990
 6152POPC   C1A77547  36.907  41.440   6.309
 6152POPC   D2A77548  37.244  41.621   6.514
 6152POPC   C3A77549  37.015  41.797   6.817
 6152POPC   C4A77550  37.004  41.715   7.239
 6152POPC   C1B77551  36.651  41.888   6.238
 6152POPC   C2B77552  36.501  41.821   6.660
 6152POPC   C3B77553  36.571  41.953   7.079
 6152POPC   C4B77554  36.585  41.885   7.540
 6153POPC   NC377555  36.921  26.094   5.307
 6153POPC   PO477556  37.418  26.163   5.541
 6153POPC   GL177557  37.027  26.247   5.823
 6153POPC   GL277558  36.836  25.937   5.809
 6153POPC   C1A77559  36.834  26.229   6.269
 6153POPC   D2A77560  37.036  26.272   6.680
 6153POPC   C3A77561  37.019  26.195   7.109
 6153POPC   C4A77562  36.950  26.009   7.485
 6153POPC   C1B77563  36.497  25.866   6.151
 6153POPC   C2B77564  36.513  25.955   6.610
 6153POPC   C3B77565  36.708  25.809   7.006
 6153POPC   C4B77566  36.652  25.593   7.403
 6154POPC   NC377567  26.678  13.745   5.073
 6154POPC   PO477568  27.083  13.737   5.596
 6154POPC   GL177569  26.705  13.827   5.834
 6154POPC   GL277570  26.757  13.513   5.993
 6154POPC   C1A77571  26.655  13.898   6.293
 6154POPC   D2A77572  26.828  13.688   6.655
 6154POPC   C3A77573  26.673  13.679   7.077
 6154POPC   C4A77574  26.841  13.678   7.503
 6154POPC   C1B77575  26.992  13.242   6.286
 6154POPC   C2B77576  27.166  13.297   6.708
 6154POPC   C3B77577  27.108  13.421   7.130
 6154POPC   C4B77578  26.960  13.197   7.493
 6155POPC   NC377579  10.463  26.139   5.323
 6155POPC   PO477580  10.944  25.733   5.575
 6155POPC   GL177581  10.664  26.029   5.812
 6155POPC   GL277582  10.305  26.022   5.810
 6155POPC   C1A77583  10.610  26.124   6.235
 6155POPC   D2A77584  10.745  25.991   6.636
 6155POPC   C3A77585  10.511  26.244   6.939
 6155POPC   C4A77586  10.367  26.045   7.317
 6155POPC   C1B77587  10.239  25.717   6.159
 6155POPC   C2B77588  10.464  25.546   6.538
 6155POPC   C3B77589  10.471  25.674   6.992
 6155POPC   C4B77590  10.671  25.658   7.446
 6156POPC   NC377591  35.648  15.857   5.607
 6156POPC   PO477592  36.163  16.193   5.452
 6156POPC   GL177593  36.263  16.011   5.885
 6156POPC   GL277594  36.487  15.722   5.830
 6156POPC   C1A77595  36.058  15.837   6.274
 6156POPC   D2A77596  35.835  15.778   6.672
 6156POPC   C3A77597  35.952  15.978   7.096
 6156POPC   C4A77598  35.808  15.766   7.541
 6156POPC   C1B77599  36.564  15.748   6.281
 6156POPC   C2B77600  36.366  15.734   6.703
 6156POPC   C3B77601  36.548  15.880   7.108
 6156POPC   C4B77602  36.662  15.702   7.516
 6157POPC   NC377603  18.401  19.663   5.036
 6157POPC   PO477604  17.940  20.147   5.321
 6157POPC   GL177605  18.152  20.024   5.713
 6157POPC   GL277606  18.459  19.801   5.769
 6157POPC   C1A77607  18.052  19.843   6.122
 6157POPC   D2A77608  18.085  19.548   6.482
 6157POPC   C3A77609  18.234  19.766   6.857
 6157POPC   C4A77610  18.147  19.947   7.274
 6157POPC   C1B77611  18.510  19.575   6.171
 6157POPC   C2B77612  18.721  19.608   6.550
 6157POPC   C3B77613  18.632  19.486   6.961
 6157POPC   C4B77614  18.449  19.540   7.300
 6158POPC   NC377615   9.001  31.611   5.344
 6158POPC   PO477616   9.409  32.087   5.440
 6158POPC   GL177617   9.308  31.693   5.734
 6158POPC   GL277618   8.919  31.600   5.832
 6158POPC   C1A77619   9.309  31.394   6.087
 6158POPC   D2A77620   9.055  31.385   6.481
 6158POPC   C3A77621   9.159  31.190   6.876
 6158POPC   C4A77622   9.024  31.403   7.253
 6158POPC   C1B77623   8.667  31.477   6.174
 6158POPC   C2B77624   8.536  31.420   6.572
 6158POPC   C3B77625   8.778  31.634   6.861
 6158POPC   C4B77626   8.691  31.797   7.246
 6159POPC   NC377627  38.208  35.802   5.626
 6159POPC   PO477628  38.692  35.505   5.256
 6159POPC   GL177629  38.584  35.337   5.672
 6159POPC   GL277630  38.295  35.091   5.789
 6159POPC   C1A77631  38.572  35.413   6.103
 6159POPC   D2A77632  38.530  35.310   6.528
 6159POPC   C3A77633  38.829  35.198   6.820
 6159POPC   C4A77634  38.728  35.290   7.245
 6159POPC   C1B77635  38.102  35.235   6.200
 6159POPC   C2B77636  38.049  35.486   6.580
 6159POPC   C3B77637  38.234  35.331   6.962
 6159POPC   C4B77638  38.233  35.197   7.420
 6160POPC   NC377639  43.742  33.698   5.477
 6160POPC   PO477640  44.067  34.270   5.608
 6160POPC   GL177641  43.732  33.991   5.905
 6160POPC   GL277642  43.843  33.606   5.973
 6160POPC   C1A77643  43.520  33.779   6.313
 6160POPC   D2A77644  43.774  33.465   6.519
 6160POPC   C3A77645  43.745  33.419   6.938
 6160POPC   C4A77646  43.717  33.438   7.373
 6160POPC   C1B77647  44.030  33.880   6.318
 6160POPC   C2B77648  43.821  33.935   6.734
 6160POPC   C3B77649  43.992  33.808   7.180
 6160POPC   C4B77650  44.346  34.018   7.433
 6161POPC   NC377651  33.398  39.131   5.464
 6161POPC   PO477652  33.944  39.411   5.508
 6161POPC   GL177653  33.604  39.508   5.759
 6161POPC   GL277654  33.621  39.170   5.908
 6161POPC   C1A77655  33.464  39.548   6.176
 6161POPC   D2A77656  33.611  39.275   6.485
 6161POPC   C3A77657  33.502  39.361   6.904
 6161POPC   C4A77658  33.731  39.280   7.267
 6161POPC   C1B77659  33.975  38.998   6.075
 6161POPC   C2B77660  34.014  38.944   6.480
 6161POPC   C3B77661  33.957  39.027   6.885
 6161POPC   C4B77662  33.995  38.802   7.259
 6162POPC   NC377663  44.666  23.063   5.213
 6162POPC   PO477664  44.580  22.612   5.720
 6162POPC   GL177665  44.425  22.877   5.960
 6162POPC   GL277666  44.396  23.182   5.755
 6162POPC   C1A77667  44.624  22.844   6.346
 6162POPC   D2A77668  44.967  22.893   6.604
 6162POPC   C3A77669  44.846  23.110   6.965
 6162POPC   C4A77670  44.867  22.719   7.152
 6162POPC   C1B77671  44.409  23.387   6.167
 6162POPC   C2B77672  44.296  23.437   6.595
 6162POPC   C3B77673  44.380  23.364   7.026
 6162POPC   C4B77674  44.411  22.960   7.221
 6163POPC   NC377675  23.821  24.695   5.373
 6163POPC   PO477676  23.217  24.501   5.520
 6163POPC   GL177677  23.543  24.601   5.818
 6163POPC   GL277678  23.923  24.647   5.853
 6163POPC   C1A77679  23.631  24.424   6.204
 6163POPC   D2A77680  23.449  24.193   6.516
 6163POPC   C3A77681  23.511  24.401   6.916
 6163POPC   C4A77682  23.729  24.345   7.296
 6163POPC   C1B77683  23.943  24.893   6.208
 6163POPC   C2B77684  23.775  24.731   6.596
 6163POPC   C3B77685  24.019  24.508   6.887
 6163POPC   C4B77686  24.149  24.628   7.296
 6164POPC   NC377687   1.501  25.694   5.343
 6164POPC   PO477688   0.912  26.112   5.519
 6164POPC   GL177689   1.017  26.201   5.987
 6164POPC   GL277690   1.264  25.955   6.198
 6164POPC   C1A77691   1.255  26.430   6.327
 6164POPC   D2A77692   1.222  26.185   6.704
 6164POPC   C3A77693   1.478  26.223   7.045
 6164POPC   C4A77694   1.668  25.845   7.220
 6164POPC   C1B77695   0.880  25.729   6.301
 6164POPC   C2B77696   0.664  25.704   6.650
 6164POPC   C3B77697   0.885  25.880   7.041
 6164POPC   C4B77698   1.107  26.029   7.409
 6165POPC   NC377699  22.100   6.190   5.180
 6165POPC   PO477700  22.248   6.781   5.253
 6165POPC   GL177701  22.206   6.872   5.726
 6165POPC   GL277702  22.386   6.636   5.972
 6165POPC   C1A77703  22.013   6.919   6.156
 6165POPC   D2A77704  21.901   6.837   6.582
 6165POPC   C3A77705  22.208   6.937   6.892
 6165POPC   C4A77706  22.394   6.726   7.224
 6165POPC   C1B77707  22.145   6.435   6.327
 6165POPC   C2B77708  22.184   6.427   6.791
 6165POPC   C3B77709  21.953   6.513   7.176
 6165POPC   C4B77710  21.945   6.329   7.625
 6166POPC   NC377711  13.404   1.557   5.123
 6166POPC   PO477712  13.888   1.132   5.108
 6166POPC   GL177713  13.684   1.288   5.568
 6166POPC   GL277714  13.719   1.028   5.839
 6166POPC   C1A77715  13.527   1.433   6.054
 6166POPC   D2A77716  13.564   1.201   6.491
 6166POPC   C3A77717  13.367   1.263   6.891
 6166POPC   C4A77718  13.589   1.429   7.230
 6166POPC   C1B77719  13.393   0.895   6.135
 6166POPC   C2B77720  13.207   0.782   6.544
 6166POPC   C3B77721  13.403   0.726   6.952
 6166POPC   C4B77722  13.517   0.936   7.333
 6167POPC   NC377723  43.983  27.702   5.304
 6167POPC   PO477724  43.904  27.134   5.688
 6167POPC   GL177725  43.814  27.581   5.826
 6167POPC   GL277726  43.578  27.378   5.974
 6167POPC   C1A77727  43.711  27.848   6.246
 6167POPC   D2A77728  43.893  27.947   6.685
 6167POPC   C3A77729  43.811  27.776   7.104
 6167POPC   C4A77730  43.741  27.906   7.527
 6167POPC   C1B77731  43.918  27.380   6.293
 6167POPC   C2B77732  43.779  27.426   6.688
 6167POPC   C3B77733  43.847  27.280   7.069
 6167POPC   C4B77734  43.847  27.411   7.497
 6168POPC   NC377735  36.023   3.291   5.327
 6168POPC   PO477736  36.435   2.922   5.612
 6168POPC   GL177737  36.085   2.831   5.782
 6168POPC   GL277738  35.903   3.131   5.793
 6168POPC   C1A77739  36.007   2.804   6.206
 6168POPC   D2A77740  36.320   2.904   6.510
 6168POPC   C3A77741  36.251   2.693   6.897
 6168POPC   C4A77742  36.131   2.674   7.298
 6168POPC   C1B77743  35.690   3.198   6.189
 6168POPC   C2B77744  35.860   3.085   6.616
 6168POPC   C3B77745  35.772   2.910   7.008
 6168POPC   C4B77746  35.576   3.048   7.374
 6169POPC   NC377747  16.249   1.725   5.421
 6169POPC   PO477748  16.871   1.940   5.326
 6169POPC   GL177749  16.688   1.901   5.746
 6169POPC   GL277750  16.663   2.227   5.886
 6169POPC   C1A77751  16.754   1.817   6.217
 6169POPC   D2A77752  16.660   1.866   6.673
 6169POPC   C3A77753  16.896   1.769   7.051
 6169POPC   C4A77754  16.729   1.865   7.515
 6169POPC   C1B77755  16.829   2.525   6.131
 6169POPC   C2B77756  16.821   2.358   6.499
 6169POPC   C3B77757  16.524   2.339   6.792
 6169POPC   C4B77758  16.689   2.212   7.143
 6170POPC   NC377759  30.922  23.938   5.554
 6170POPC   PO477760  30.432  23.554   5.303
 6170POPC   GL177761  30.533  23.596   5.745
 6170POPC   GL277762  30.860  23.498   5.823
 6170POPC   C1A77763  30.467  23.512   6.205
 6170POPC   D2A77764  30.380  23.286   6.596
 6170POPC   C3A77765  30.503  23.424   6.980
 6170POPC   C4A77766  30.636  23.556   7.379
 6170POPC   C1B77767  30.960  23.651   6.211
 6170POPC   C2B77768  30.810  23.674   6.611
 6170POPC   C3B77769  30.986  23.611   6.994
 6170POPC   C4B77770  31.218  23.662   7.330
 6171POPC   NC377771  43.897  37.308   5.545
 6171POPC   PO477772  43.436  37.771   5.470
 6171POPC   GL177773  43.751  37.760   5.873
 6171POPC   GL277774  44.084  37.955   5.898
 6171POPC   C1A77775  43.895  37.866   6.336
 6171POPC   D2A77776  44.184  37.970   6.620
 6171POPC   C3A77777  43.882  37.932   6.881
 6171POPC   C4A77778  43.839  37.897   7.282
 6171POPC   C1B77779  44.162  37.508   6.148
 6171POPC   C2B77780  43.997  37.455   6.612
 6171POPC   C3B77781  44.039  37.475   7.059
 6171POPC   C4B77782  44.374  37.427   7.341
 6172POPC   NC377783   5.523   7.994   5.525
 6172POPC   PO477784   6.037   8.364   5.668
 6172POPC   GL177785   5.784   8.142   5.929
 6172POPC   GL277786   5.935   7.826   5.834
 6172POPC   C1A77787   5.683   8.244   6.348
 6172POPC   D2A77788   6.002   8.469   6.602
 6172POPC   C3A77789   5.895   8.547   7.029
 6172POPC   C4A77790   5.487   8.406   7.155
 6172POPC   C1B77791   6.080   7.930   6.278
 6172POPC   C2B77792   6.103   7.968   6.713
 6172POPC   C3B77793   5.838   8.009   7.045
 6172POPC   C4B77794   6.087   8.176   7.350
 6173POPC   NC377795   0.464  25.825   5.375
 6173POPC   PO477796   0.913  25.416   5.722
 6173POPC   GL177797   0.630  25.803   5.861
 6173POPC   GL277798   0.232  25.848   5.813
 6173POPC   C1A77799   0.551  26.090   6.220
 6173POPC   D2A77800   0.718  26.192   6.634
 6173POPC   C3A77801   0.437  26.098   6.993
 6173POPC   C4A77802   0.294  26.438   7.203
 6173POPC   C1B77803   0.053  25.890   6.198
 6173POPC   C2B77804   0.161  26.081   6.564
 6173POPC   C3B77805  44.925  26.237   6.898
 6173POPC   C4B77806  44.926  26.077   7.280
 6174POPC   NC377807  24.857   1.628   5.335
 6174POPC   PO477808  25.449   2.032   5.414
 6174POPC   GL177809  25.263   2.110   5.827
 6174POPC   GL277810  25.474   1.909   6.037
 6174POPC   C1A77811  25.147   2.222   6.266
 6174POPC   D2A77812  25.377   2.000   6.604
 6174POPC   C3A77813  25.236   2.191   6.997
 6174POPC   C4A77814  25.120   2.333   7.386
 6174POPC   C1B77815  25.052   1.727   6.182
 6174POPC   C2B77816  24.883   1.821   6.571
 6174POPC   C3B77817  25.047   1.693   6.944
 6174POPC   C4B77818  24.780   1.688   7.253
 6175POPC   NC377819  17.261  43.261   5.410
 6175POPC   PO477820  17.478  42.690   5.636
 6175POPC   GL177821  17.539  43.084   5.897
 6175POPC   GL277822  17.290  43.368   5.905
 6175POPC   C1A77823  17.520  43.223   6.352
 6175POPC   D2A77824  17.336  43.106   6.742
 6175POPC   C3A77825  17.530  42.877   7.089
 6175POPC   C4A77826  17.960  42.921   7.180
 6175POPC   C1B77827  17.057  43.615   6.215
 6175POPC   C2B77828  16.873  43.501   6.605
 6175POPC   C3B77829  17.053  43.425   7.001
 6175POPC   C4B77830  17.514  43.405   7.131
 6176POPC   NC377831  14.219   6.276   5.714
 6176POPC   PO477832  14.772   5.845   5.503
 6176POPC   GL177833  14.456   5.805   5.829
 6176POPC   GL277834  14.058   5.787   5.803
 6176POPC   C1A77835  14.380   5.760   6.270
 6176POPC   D2A77836  14.347   5.569   6.673
 6176POPC   C3A77837  14.692   5.761   6.895
 6176POPC   C4A77838  14.785   5.817   7.316
 6176POPC   C1B77839  13.893   5.892   6.225
 6176POPC   C2B77840  14.000   5.964   6.667
 6176POPC   C3B77841  14.167   5.844   7.074
 6176POPC   C4B77842  14.302   5.818   7.486
 6177POPC   NC377843  36.367   5.507   5.270
 6177POPC   PO477844  35.769   5.822   5.409
 6177POPC   GL177845  35.955   5.662   5.806
 6177POPC   GL277846  36.324   5.732   5.784
 6177POPC   C1A77847  36.063   5.759   6.262
 6177POPC   D2A77848  36.002   5.769   6.723
 6177POPC   C3A77849  36.121   6.105   6.971
 6177POPC   C4A77850  35.804   6.225   7.243
 6177POPC   C1B77851  36.448   6.061   6.118
 6177POPC   C2B77852  36.475   5.974   6.604
 6177POPC   C3B77853  36.431   5.698   7.000
 6177POPC   C4B77854  36.464   5.714   7.493
 6178POPC   NC377855  20.106  26.722   5.341
 6178POPC   PO477856  19.480  26.627   5.492
 6178POPC   GL177857  19.738  26.833   5.743
 6178POPC   GL277858  19.956  26.569   5.791
 6178POPC   C1A77859  19.875  26.951   6.153
 6178POPC   D2A77860  19.831  27.090   6.571
 6178POPC   C3A77861  20.007  26.963   6.938
 6178POPC   C4A77862  19.905  26.943   7.347
 6178POPC   C1B77863  20.047  26.490   6.193
 6178POPC   C2B77864  20.109  26.604   6.598
 6178POPC   C3B77865  19.918  26.448   6.998
 6178POPC   C4B77866  19.532  26.573   7.240
 6179POPC   NC377867   6.936  11.702   5.130
 6179POPC   PO477868   6.407  11.989   5.459
 6179POPC   GL177869   6.614  12.060   5.828
 6179POPC   GL277870   6.655  12.439   5.784
 6179POPC   C1A77871   6.707  11.833   6.241
 6179POPC   D2A77872   6.883  11.935   6.631
 6179POPC   C3A77873   6.704  11.715   6.962
 6179POPC   C4A77874   6.565  11.841   7.342
 6179POPC   C1B77875   6.792  12.348   6.213
 6179POPC   C2B77876   6.596  12.361   6.601
 6179POPC   C3B77877   6.640  12.239   7.008
 6179POPC   C4B77878   6.472  12.364   7.373
 6180POPC   NC377879  41.924  29.721   5.394
 6180POPC   PO477880  41.424  30.136   5.608
 6180POPC   GL177881  41.661  29.822   5.838
 6180POPC   GL277882  41.411  29.544   5.840
 6180POPC   C1A77883  41.810  29.900   6.257
 6180POPC   D2A77884  41.615  29.803   6.659
 6180POPC   C3A77885  41.653  30.037   7.060
 6180POPC   C4A77886  41.547  30.141   7.521
 6180POPC   C1B77887  41.184  29.577   6.238
 6180POPC   C2B77888  41.109  29.717   6.643
 6180POPC   C3B77889  41.307  29.528   6.987
 6180POPC   C4B77890  41.287  29.746   7.345
 6181POPC   NC377891  42.933  23.772   5.448
 6181POPC   PO477892  43.485  23.439   5.327
 6181POPC   GL177893  43.317  23.645   5.769
 6181POPC   GL277894  42.988  23.461   5.854
 6181POPC   C1A77895  43.265  23.806   6.239
 6181POPC   D2A77896  43.390  24.073   6.629
 6181POPC   C3A77897  43.268  23.885   7.046
 6181POPC   C4A77898  42.833  23.747   7.178
 6181POPC   C1B77899  43.156  23.308   6.244
 6181POPC   C2B77900  43.301  23.412   6.655
 6181POPC   C3B77901  43.146  23.348   7.060
 6181POPC   C4B77902  43.250  23.375   7.489
 6182POPC   NC377903  14.159  29.889   5.441
 6182POPC   PO477904  14.701  30.150   5.496
 6182POPC   GL177905  14.409  29.998   5.872
 6182POPC   GL277906  14.232  29.634   5.889
 6182POPC   C1A77907  14.240  29.943   6.309
 6182POPC   D2A77908  14.270  29.705   6.703
 6182POPC   C3A77909  14.426  29.917   7.073
 6182POPC   C4A77910  14.723  29.929   7.447
 6182POPC   C1B77911  14.096  29.363   6.291
 6182POPC   C2B77912  14.162  29.201   6.726
 6182POPC   C3B77913  14.453  29.369   7.067
 6182POPC   C4B77914  14.714  29.419   7.440
 6183POPC   NC377915  39.996  39.523   5.435
 6183POPC   PO477916  40.348  39.036   5.604
 6183POPC   GL177917  39.969  39.167   5.906
 6183POPC   GL277918  39.720  39.432   5.902
 6183POPC   C1A77919  39.955  39.269   6.364
 6183POPC   D2A77920  40.264  39.335   6.690
 6183POPC   C3A77921  40.265  39.029   7.033
 6183POPC   C4A77922  39.980  38.943   7.375
 6183POPC   C1B77923  39.465  39.240   6.240
 6183POPC   C2B77924  39.470  39.371   6.654
 6183POPC   C3B77925  39.803  39.289   6.921
 6183POPC   C4B77926  39.871  39.438   7.310
 6184POPC   NC377927  29.676  34.782   5.062
 6184POPC   PO477928  29.965  34.436   5.589
 6184POPC   GL177929  30.170  34.784   5.840
 6184POPC   GL277930  30.500  34.700   5.845
 6184POPC   C1A77931  30.043  34.750   6.274
 6184POPC   D2A77932  29.762  34.580   6.603
 6184POPC   C3A77933  29.824  34.816   6.999
 6184POPC   C4A77934  29.696  34.868   7.410
 6184POPC   C1B77935  30.377  34.385   6.140
 6184POPC   C2B77936  30.252  34.358   6.587
 6184POPC   C3B77937  30.005  34.338   6.978
 6184POPC   C4B77938  30.200  34.552   7.331
 6185POPC   NC377939   9.526  22.501   5.300
 6185POPC   PO477940   9.630  23.174   5.287
 6185POPC   GL177941   9.631  22.867   5.651
 6185POPC   GL277942   9.332  22.650   5.768
 6185POPC   C1A77943   9.872  22.786   6.035
 6185POPC   D2A77944   9.844  22.631   6.452
 6185POPC   C3A77945   9.819  22.940   6.795
 6185POPC   C4A77946   9.851  22.906   7.246
 6185POPC   C1B77947   9.378  22.854   6.180
 6185POPC   C2B77948   9.343  22.727   6.627
 6185POPC   C3B77949   9.342  22.959   7.033
 6185POPC   C4B77950   9.427  23.040   7.486
 6186POPC   NC377951  17.321  14.345   5.374
 6186POPC   PO477952  17.352  14.960   5.598
 6186POPC   GL177953  17.466  14.618   5.858
 6186POPC   GL277954  17.601  14.267   5.797
 6186POPC   C1A77955  17.610  14.523   6.277
 6186POPC   D2A77956  17.816  14.333   6.641
 6186POPC   C3A77957  17.537  14.389   6.995
 6186POPC   C4A77958  17.097  14.316   7.039
 6186POPC   C1B77959  17.730  14.032   6.177
 6186POPC   C2B77960  17.684  13.815   6.589
 6186POPC   C3B77961  17.779  13.949   7.028
 6186POPC   C4B77962  17.767  14.138   7.439
 6187POPC   NC377963  29.457  41.492   5.541
 6187POPC   PO477964  28.968  41.026   5.533
 6187POPC   GL177965  29.031  41.359   5.855
 6187POPC   GL277966  28.869  41.693   5.762
 6187POPC   C1A77967  29.137  41.397   6.296
 6187POPC   D2A77968  28.879  41.359   6.659
 6187POPC   C3A77969  29.126  41.244   6.986
 6187POPC   C4A77970  29.104  41.308   7.391
 6187POPC   C1B77971  29.171  41.863   6.078
 6187POPC   C2B77972  29.237  41.921   6.530
 6187POPC   C3B77973  29.217  41.746   6.981
 6187POPC   C4B77974  29.139  41.812   7.433
 6188POPC   NC377975  26.032  14.364   5.520
 6188POPC   PO477976  25.537  14.837   5.546
 6188POPC   GL177977  25.797  14.659   5.900
 6188POPC   GL277978  25.884  14.280   5.981
 6188POPC   C1A77979  25.874  14.626   6.335
 6188POPC   D2A77980  26.032  14.263   6.562
 6188POPC   C3A77981  26.075  14.429   6.949
 6188POPC   C4A77982  26.010  14.618   7.328
 6188POPC   C1B77983  25.605  14.049   6.221
 6188POPC   C2B77984  25.630  13.863   6.589
 6188POPC   C3B77985  25.849  13.941   6.932
 6188POPC   C4B77986  25.757  14.172   7.264
 6189POPC   NC377987   2.094  30.323   5.373
 6189POPC   PO477988   1.647  29.831   5.624
 6189POPC   GL177989   2.004  30.050   5.814
 6189POPC   GL277990   1.817  30.037   6.109
 6189POPC   C1A77991   2.286  29.896   6.148
 6189POPC   D2A77992   2.150  29.710   6.552
 6189POPC   C3A77993   2.252  29.939   6.943
 6189POPC   C4A77994   2.029  30.094   7.306
 6189POPC   C1B77995   1.729  29.611   6.276
 6189POPC   C2B77996   1.623  29.455   6.697
 6189POPC   C3B77997   1.761  29.670   7.061
 6189POPC   C4B77998   1.642  29.571   7.461
 6190POPC   NC377999   9.058  10.546   5.270
 6190POPC   PO478000   8.471  10.710   5.511
 6190POPC   GL178001   8.737  10.473   5.789
 6190POPC   GL278002   9.098  10.370   5.779
 6190POPC   C1A78003   8.763  10.437   6.239
 6190POPC   D2A78004   8.958  10.294   6.613
 6190POPC   C3A78005   8.739  10.332   7.016
 6190POPC   C4A78006   8.498  10.647   7.192
 6190POPC   C1B78007   9.317  10.372   6.189
 6190POPC   C2B78008   9.472  10.275   6.611
 6190POPC   C3B78009   9.275  10.299   7.018
 6190POPC   C4B78010   9.088  10.530   7.365
 6191POPC   NC378011  30.894  16.076   5.507
 6191POPC   PO478012  30.734  15.340   5.552
 6191POPC   GL178013  30.561  15.485   5.907
 6191POPC   GL278014  30.708  15.791   5.884
 6191POPC   C1A78015  30.740  15.531   6.333
 6191POPC   D2A78016  30.930  15.775   6.665
 6191POPC   C3A78017  30.742  15.602   7.032
 6191POPC   C4A78018  30.510  15.831   7.315
 6191POPC   C1B78019  30.853  16.090   6.208
 6191POPC   C2B78020  30.732  16.294   6.593
 6191POPC   C3B78021  30.806  16.158   7.015
 6191POPC   C4B78022  30.496  16.348   7.249
 6192POPC   NC378023  14.017  44.339   5.362
 6192POPC   PO478024  13.578  43.854   5.429
 6192POPC   GL178025  13.819  43.782   5.766
 6192POPC   GL278026  13.517  43.603   5.890
 6192POPC   C1A78027  13.754  43.955   6.183
 6192POPC   D2A78028  13.533  43.925   6.583
 6192POPC   C3A78029  13.710  44.086   6.982
 6192POPC   C4A78030  13.491  43.860   7.304
 6192POPC   C1B78031  13.848  43.436   6.150
 6192POPC   C2B78032  14.024  43.565   6.525
 6192POPC   C3B78033  13.789  43.601   6.907
 6192POPC   C4B78034  13.880  43.538   7.322
 6193POPC   NC378035  22.441  24.079   5.486
 6193POPC   PO478036  21.905  23.651   5.513
 6193POPC   GL178037  22.161  23.776   5.871
 6193POPC   GL278038  22.305  23.456   5.961
 6193POPC   C1A78039  22.296  23.826   6.327
 6193POPC   D2A78040  22.291  23.468   6.629
 6193POPC   C3A78041  22.348  23.602   7.051
 6193POPC   C4A78042  22.130  23.977   7.208
 6193POPC   C1B78043  21.905  23.464   6.246
 6193POPC   C2B78044  21.750  23.338   6.661
 6193POPC   C3B78045  21.833  23.560   7.035
 6193POPC   C4B78046  22.005  23.507   7.449
 6194POPC   NC378047  22.496   7.201   5.318
 6194POPC   PO478048  22.144   7.724   5.569
 6194POPC   GL178049  22.128   7.398   5.833
 6194POPC   GL278050  21.880   7.601   6.013
 6194POPC   C1A78051  22.280   7.355   6.237
 6194POPC   D2A78052  22.185   7.589   6.584
 6194POPC   C3A78053  22.330   7.436   6.993
 6194POPC   C4A78054  22.654   7.148   7.116
 6194POPC   C1B78055  21.785   7.331   6.370
 6194POPC   C2B78056  21.823   7.286   6.805
 6194POPC   C3B78057  21.886   7.190   7.212
 6194POPC   C4B78058  21.833   7.328   7.630
 6195POPC   NC378059  14.988  12.483   5.394
 6195POPC   PO478060  14.969  11.862   5.191
 6195POPC   GL178061  15.076  12.065   5.663
 6195POPC   GL278062  14.854  12.331   5.850
 6195POPC   C1A78063  15.260  12.090   6.113
 6195POPC   D2A78064  15.333  12.218   6.568
 6195POPC   C3A78065  15.212  11.954   6.923
 6195POPC   C4A78066  15.232  12.039   7.380
 6195POPC   C1B78067  14.882  12.420   6.281
 6195POPC   C2B78068  14.844  12.263   6.703
 6195POPC   C3B78069  15.015  12.417   7.076
 6195POPC   C4B78070  14.837  12.714   7.365
 6196POPC   NC378071   1.485  28.369   5.527
 6196POPC   PO478072   0.804  28.548   5.427
 6196POPC   GL178073   1.023  28.587   5.817
 6196POPC   GL278074   1.144  28.248   5.871
 6196POPC   C1A78075   1.192  28.592   6.249
 6196POPC   D2A78076   1.259  28.419   6.652
 6196POPC   C3A78077   1.128  28.203   6.985
 6196POPC   C4A78078   1.078  28.509   7.275
 6196POPC   C1B78079   1.469  28.142   6.177
 6196POPC   C2B78080   1.456  27.946   6.578
 6196POPC   C3B78081   1.588  27.990   6.992
 6196POPC   C4B78082   1.556  27.986   7.432
 6197POPC   NC378083  19.244   5.877   5.377
 6197POPC   PO478084  19.901   5.763   5.376
 6197POPC   GL178085  19.807   5.740   5.784
 6197POPC   GL278086  19.512   5.840   5.842
 6197POPC   C1A78087  19.777   5.557   6.200
 6197POPC   D2A78088  20.025   5.676   6.579
 6197POPC   C3A78089  19.893   5.611   7.032
 6197POPC   C4A78090  20.159   5.570   7.438
 6197POPC   C1B78091  19.770   6.056   6.193
 6197POPC   C2B78092  19.828   6.185   6.612
 6197POPC   C3B78093  19.673   6.081   7.018
 6197POPC   C4B78094  19.754   6.285   7.394
 6198POPC   NC378095   7.748  18.122   5.417
 6198POPC   PO478096   7.220  18.453   5.461
 6198POPC   GL178097   7.406  18.302   5.834
 6198POPC   GL278098   7.671  18.503   5.839
 6198POPC   C1A78099   7.540  18.202   6.268
 6198POPC   D2A78100   7.355  18.290   6.672
 6198POPC   C3A78101   7.370  18.122   7.096
 6198POPC   C4A78102   7.100  18.277   7.428
 6198POPC   C1B78103   7.666  18.692   6.208
 6198POPC   C2B78104   7.797  18.548   6.590
 6198POPC   C3B78105   7.690  18.500   7.001
 6198POPC   C4B78106   7.823  18.259   7.353
 6199POPC   NC378107  39.419  30.620   5.591
 6199POPC   PO478108  38.844  31.029   5.458
 6199POPC   GL178109  39.064  30.915   5.906
 6199POPC   GL278110  39.435  30.892   6.006
 6199POPC   C1A78111  39.134  30.909   6.404
 6199POPC   D2A78112  39.022  30.505   6.627
 6199POPC   C3A78113  38.896  30.601   7.028
 6199POPC   C4A78114  39.062  30.961   7.257
 6199POPC   C1B78115  39.395  30.508   6.250
 6199POPC   C2B78116  39.567  30.528   6.643
 6199POPC   C3B78117  39.410  30.663   7.012
 6199POPC   C4B78118  39.308  30.458   7.406
 6200POPC   NC378119  43.107  38.114   5.396
 6200POPC   PO478120  42.799  37.490   5.470
 6200POPC   GL178121  42.971  37.722   5.780
 6200POPC   GL278122  43.246  37.531   5.869
 6200POPC   C1A78123  42.845  37.617   6.191
 6200POPC   D2A78124  43.018  37.605   6.576
 6200POPC   C3A78125  42.738  37.581   6.927
 6200POPC   C4A78126  43.002  37.720   7.251
 6200POPC   C1B78127  43.370  37.758   6.208
 6200POPC   C2B78128  43.522  37.650   6.590
 6200POPC   C3B78129  43.434  37.697   6.975
 6200POPC   C4B78130  43.545  37.456   7.300
 6201POPC   NC378131   2.941  44.523   5.474
 6201POPC   PO478132   2.365  44.922   5.343
 6201POPC   GL178133   2.624  44.896   5.756
 6201POPC   GL278134   2.861  44.673   5.948
 6201POPC   C1A78135   2.478  44.874   6.190
 6201POPC   D2A78136   2.508  44.561   6.530
 6201POPC   C3A78137   2.618  44.641   6.965
 6201POPC   C4A78138   2.547  44.790   7.363
 6201POPC   C1B78139   2.977  44.784   6.382
 6201POPC   C2B78140   2.968  44.952   6.810
 6201POPC   C3B78141   3.036  44.863   7.255
 6201POPC   C4B78142   2.964  44.698   7.695
 6202POPC   NC378143  38.523   0.122   5.576
 6202POPC   PO478144  37.992   0.472   5.317
 6202POPC   GL178145  38.171   0.476   5.799
 6202POPC   GL278146  38.270   0.161   6.017
 6202POPC   C1A78147  38.341   0.613   6.259
 6202POPC   D2A78148  38.167   0.478   6.666
 6202POPC   C3A78149  38.203   0.735   7.024
 6202POPC   C4A78150  38.344   0.617   7.436
 6202POPC   C1B78151  38.675   0.214   6.239
 6202POPC   C2B78152  38.681   0.372   6.651
 6202POPC   C3B78153  38.504   0.336   7.041
 6202POPC   C4B78154  38.560   0.155   7.453
 6203POPC   NC378155  26.897  38.035   5.569
 6203POPC   PO478156  26.291  37.926   5.528
 6203POPC   GL178157  26.446  37.767   5.905
 6203POPC   GL278158  26.659  37.542   5.693
 6203POPC   C1A78159  26.565  37.798   6.370
 6203POPC   D2A78160  26.900  37.917   6.651
 6203POPC   C3A78161  26.801  37.943   7.096
 6203POPC   C4A78162  26.527  37.767   7.370
 6203POPC   C1B78163  26.715  37.376   6.099
 6203POPC   C2B78164  26.624  37.276   6.505
 6203POPC   C3B78165  26.607  37.500   6.890
 6203POPC   C4B78166  26.849  37.393   7.251
 6204POPC   NC378167  13.973  31.377   5.368
 6204POPC   PO478168  14.534  31.703   5.216
 6204POPC   GL178169  14.379  31.554   5.663
 6204POPC   GL278170  14.525  31.218   5.687
 6204POPC   C1A78171  14.151  31.539   6.096
 6204POPC   D2A78172  14.162  31.749   6.549
 6204POPC   C3A78173  14.221  31.519   7.004
 6204POPC   C4A78174  14.111  31.535   7.500
 6204POPC   C1B78175  14.520  31.171   6.135
 6204POPC   C2B78176  14.494  31.347   6.550
 6204POPC   C3B78177  14.637  31.157   6.927
 6204POPC   C4B78178  14.503  31.222   7.350
 6205POPC   NC378179   3.800   9.169   5.500
 6205POPC   PO478180   3.167   8.835   5.454
 6205POPC   GL178181   3.388   8.997   5.768
 6205POPC   GL278182   3.532   8.672   5.799
 6205POPC   C1A78183   3.590   9.012   6.184
 6205POPC   D2A78184   3.571   8.870   6.588
 6205POPC   C3A78185   3.593   9.066   6.985
 6205POPC   C4A78186   3.568   9.337   7.344
 6205POPC   C1B78187   3.219   8.645   6.151
 6205POPC   C2B78188   3.239   8.474   6.576
 6205POPC   C3B78189   3.249   8.677   6.969
 6205POPC   C4B78190   3.498   8.681   7.324
 6206POPC   NC378191  20.605  40.476   5.469
 6206POPC   PO478192  20.648  41.050   5.209
 6206POPC   GL178193  20.642  40.947   5.689
 6206POPC   GL278194  20.453  41.206   5.780
 6206POPC   C1A78195  20.625  40.858   6.175
 6206POPC   D2A78196  20.794  40.556   6.508
 6206POPC   C3A78197  20.598  40.594   6.929
 6206POPC   C4A78198  20.759  40.899   7.198
 6206POPC   C1B78199  20.410  41.310   6.225
 6206POPC   C2B78200  20.475  41.070   6.637
 6206POPC   C3B78201  20.287  41.022   7.042
 6206POPC   C4B78202  20.295  40.758   7.419
 6207POPC   NC378203  27.993  11.209   5.534
 6207POPC   PO478204  28.642  11.109   5.416
 6207POPC   GL178205  28.435  11.297   5.811
 6207POPC   GL278206  28.148  11.477   5.939
 6207POPC   C1A78207  28.344  11.139   6.276
 6207POPC   D2A78208  28.393  10.855   6.647
 6207POPC   C3A78209  28.537  11.142   6.962
 6207POPC   C4A78210  28.391  11.493   7.196
 6207POPC   C1B78211  27.879  11.367   6.299
 6207POPC   C2B78212  28.035  11.222   6.718
 6207POPC   C3B78213  27.936  11.314   7.137
 6207POPC   C4B78214  28.054  11.440   7.582
 6208POPC   NC378215   2.668  19.390   5.543
 6208POPC   PO478216   3.265  18.998   5.384
 6208POPC   GL178217   2.983  18.837   5.737
 6208POPC   GL278218   2.708  19.047   5.938
 6208POPC   C1A78219   2.996  18.665   6.138
 6208POPC   D2A78220   2.954  19.019   6.403
 6208POPC   C3A78221   2.671  19.015   6.729
 6208POPC   C4A78222   2.702  19.065   7.148
 6208POPC   C1B78223   2.475  19.272   6.307
 6208POPC   C2B78224   2.216  19.245   6.711
 6208POPC   C3B78225   2.234  19.271   7.194
 6208POPC   C4B78226   2.419  19.087   7.589
 6209POPC   NC378227   9.097  30.232   5.398
 6209POPC   PO478228   9.001  29.561   5.456
 6209POPC   GL178229   8.941  29.897   5.750
 6209POPC   GL278230   8.720  29.760   5.960
 6209POPC   C1A78231   9.021  30.159   6.126
 6209POPC   D2A78232   9.290  30.049   6.475
 6209POPC   C3A78233   9.126  30.098   6.873
 6209POPC   C4A78234   8.969  30.193   7.247
 6209POPC   C1B78235   9.032  29.652   6.217
 6209POPC   C2B78236   8.804  29.842   6.551
 6209POPC   C3B78237   8.754  29.746   6.981
 6209POPC   C4B78238   9.087  29.702   7.272
 6210POPC   NC378239  36.527  27.223   5.535
 6210POPC   PO478240  36.772  26.522   5.432
 6210POPC   GL178241  36.928  26.780   5.811
 6210POPC   GL278242  37.249  26.955   5.844
 6210POPC   C1A78243  36.980  26.710   6.238
 6210POPC   D2A78244  36.738  26.674   6.617
 6210POPC   C3A78245  36.896  26.674   7.041
 6210POPC   C4A78246  36.941  26.656   7.503
 6210POPC   C1B78247  37.181  27.174   6.262
 6210POPC   C2B78248  37.402  27.201   6.701
 6210POPC   C3B78249  37.203  27.056   7.090
 6210POPC   C4B78250  36.818  27.116   7.323
 6211POPC   NC378251  20.532   0.696   5.451
 6211POPC   PO478252  20.372   0.010   5.409
 6211POPC   GL178253  20.530   0.278   5.756
 6211POPC   GL278254  20.881   0.391   5.663
 6211POPC   C1A78255  20.394   0.548   6.122
 6211POPC   D2A78256  20.199   0.713   6.498
 6211POPC   C3A78257  20.324   0.515   6.880
 6211POPC   C4A78258  20.502   0.491   7.277
 6211POPC   C1B78259  20.906   0.574   6.087
 6211POPC   C2B78260  20.743   0.481   6.526
 6211POPC   C3B78261  20.904   0.507   6.947
 6211POPC   C4B78262  21.094   0.589   7.323
 6212POPC   NC378263   1.271  44.954   5.328
 6212POPC   PO478264   0.881  44.386   5.485
 6212POPC   GL178265   1.155  44.481   5.833
 6212POPC   GL278266   1.231  44.803   5.802
 6212POPC   C1A78267   1.161  44.645   6.272
 6212POPC   D2A78268   1.271  44.409   6.622
 6212POPC   C3A78269   1.058  44.460   7.003
 6212POPC   C4A78270   1.335  44.274   7.273
 6212POPC   C1B78271   1.522   0.055   6.031
 6212POPC   C2B78272   1.562   0.078   6.489
 6212POPC   C3B78273   1.611  44.768   6.802
 6212POPC   C4B78274   1.406  44.777   7.210
 6213POPC   NC378275  28.539  26.965   5.281
 6213POPC   PO478276  27.953  26.654   5.387
 6213POPC   GL178277  28.167  26.902   5.732
 6213POPC   GL278278  28.549  26.947   5.796
 6213POPC   C1A78279  28.224  26.812   6.181
 6213POPC   D2A78280  28.083  26.670   6.582
 6213POPC   C3A78281  28.336  26.904   6.873
 6213POPC   C4A78282  28.622  27.008   7.220
 6213POPC   C1B78283  28.730  26.712   6.160
 6213POPC   C2B78284  28.604  26.584   6.566
 6213POPC   C3B78285  28.762  26.581   6.972
 6213POPC   C4B78286  28.704  26.436   7.401
 6214POPC   NC378287  19.990  35.451   5.090
 6214POPC   PO478288  19.552  35.190   5.563
 6214POPC   GL178289  19.791  35.267   5.913
 6214POPC   GL278290  20.137  35.160   5.841
 6214POPC   C1A78291  19.637  35.389   6.314
 6214POPC   D2A78292  19.673  35.325   6.746
 6214POPC   C3A78293  19.659  35.659   7.036
 6214POPC   C4A78294  19.438  35.470   7.408
 6214POPC   C1B78295  20.158  35.337   6.310
 6214POPC   C2B78296  20.175  35.305   6.766
 6214POPC   C3B78297  19.981  35.289   7.180
 6214POPC   C4B78298  20.065  35.225   7.613
 6215POPC   NC378299   7.589   3.875   5.470
 6215POPC   PO478300   7.387   3.247   5.469
 6215POPC   GL178301   7.494   3.433   5.789
 6215POPC   GL278302   7.837   3.434   5.693
 6215POPC   C1A78303   7.323   3.445   6.186
 6215POPC   D2A78304   7.131   3.310   6.554
 6215POPC   C3A78305   7.287   3.545   6.881
 6215POPC   C4A78306   7.408   3.387   7.241
 6215POPC   C1B78307   7.825   3.582   6.131
 6215POPC   C2B78308   7.697   3.424   6.547
 6215POPC   C3B78309   7.808   3.521   6.960
 6215POPC   C4B78310   7.670   3.863   7.225
 6216POPC   NC378311  34.142  42.020   5.494
 6216POPC   PO478312  33.852  42.557   5.299
 6216POPC   GL178313  33.895  42.500   5.774
 6216POPC   GL278314  33.983  42.232   5.941
 6216POPC   C1A78315  33.746  42.622   6.209
 6216POPC   D2A78316  33.902  42.587   6.676
 6216POPC   C3A78317  33.806  42.335   7.065
 6216POPC   C4A78318  33.470  42.378   7.380
 6216POPC   C1B78319  34.175  42.058   6.272
 6216POPC   C2B78320  34.300  42.191   6.680
 6216POPC   C3B78321  34.264  42.048   7.092
 6216POPC   C4B78322  34.219  42.081   7.541
 6217POPC   NC378323  10.985   0.572   5.411
 6217POPC   PO478324  11.582   0.157   5.376
 6217POPC   GL178325  11.429   0.436   5.708
 6217POPC   GL278326  11.713   0.286   5.870
 6217POPC   C1A78327  11.169   0.470   6.109
 6217POPC   D2A78328  11.162   0.337   6.569
 6217POPC   C3A78329  11.073   0.406   7.016
 6217POPC   C4A78330  11.001   0.808   7.192
 6217POPC   C1B78331  11.634   0.325   6.286
 6217POPC   C2B78332  11.641   0.149   6.656
 6217POPC   C3B78333  11.574   0.346   7.037
 6217POPC   C4B78334  11.479   0.643   7.357
 6218POPC   NC378335  33.621  33.447   5.597
 6218POPC   PO478336  33.500  32.790   5.457
 6218POPC   GL178337  33.766  32.958   5.791
 6218POPC   GL278338  34.067  33.171   5.751
 6218POPC   C1A78339  33.846  32.935   6.236
 6218POPC   D2A78340  33.872  33.040   6.677
 6218POPC   C3A78341  33.599  32.809   6.950
 6218POPC   C4A78342  33.473  32.944   7.340
 6218POPC   C1B78343  34.038  33.409   6.153
 6218POPC   C2B78344  34.260  33.421   6.551
 6218POPC   C3B78345  34.054  33.433   6.953
 6218POPC   C4B78346  33.933  33.123   7.218
 6219POPC   NC378347   7.491  33.622   5.572
 6219POPC   PO478348   7.233  34.246   5.428
 6219POPC   GL178349   7.199  33.962   5.845
 6219POPC   GL278350   7.119  33.560   5.930
 6219POPC   C1A78351   7.474  33.810   6.205
 6219POPC   D2A78352   7.654  33.666   6.595
 6219POPC   C3A78353   7.494  33.737   7.004
 6219POPC   C4A78354   7.607  34.095   7.239
 6219POPC   C1B78355   7.106  33.521   6.405
 6219POPC   C2B78356   7.132  33.897   6.683
 6219POPC   C3B78357   7.040  33.932   7.128
 6219POPC   C4B78358   7.091  33.488   7.267
 6220POPC   NC378359  37.856   4.799   5.370
 6220POPC   PO478360  37.383   5.261   5.407
 6220POPC   GL178361  37.542   5.045   5.760
 6220POPC   GL278362  37.922   5.036   5.821
 6220POPC   C1A78363  37.579   5.220   6.174
 6220POPC   D2A78364  37.555   4.988   6.550
 6220POPC   C3A78365  37.762   5.167   6.903
 6220POPC   C4A78366  37.563   5.102   7.306
 6220POPC   C1B78367  37.998   4.966   6.269
 6220POPC   C2B78368  37.933   4.634   6.572
 6220POPC   C3B78369  37.734   4.660   6.955
 6220POPC   C4B78370  37.990   4.845   7.244
 6221POPC   NC378371   4.025  36.611   5.662
 6221POPC   PO478372   4.592  37.037   5.461
 6221POPC   GL178373   4.333  37.010   5.793
 6221POPC   GL278374   4.503  36.681   5.852
 6221POPC   C1A78375   4.099  37.133   6.159
 6221POPC   D2A78376   4.302  37.076   6.528
 6221POPC   C3A78377   4.155  37.254   6.902
 6221POPC   C4A78378   4.489  37.341   7.177
 6221POPC   C1B78379   4.285  36.644   6.236
 6221POPC   C2B78380   4.048  36.447   6.528
 6221POPC   C3B78381   4.158  36.582   6.890
 6221POPC   C4B78382   4.276  36.851   7.185
 6222POPC   NC378383   6.195  27.760   5.385
 6222POPC   PO478384   6.104  27.139   5.415
 6222POPC   GL178385   6.073  27.414   5.808
 6222POPC   GL278386   6.023  27.802   5.846
 6222POPC   C1A78387   5.862  27.483   6.226
 6222POPC   D2A78388   5.547  27.547   6.554
 6222POPC   C3A78389   5.733  27.518   6.963
 6222POPC   C4A78390   5.537  27.608   7.336
 6222POPC   C1B78391   5.920  27.988   6.227
 6222POPC   C2B78392   5.997  27.819   6.626
 6222POPC   C3B78393   5.903  27.986   7.035
 6222POPC   C4B78394   6.000  27.791   7.432
 6223POPC   NC378395  15.150  17.794   5.460
 6223POPC   PO478396  14.695  17.486   5.222
 6223POPC   GL178397  14.870  17.507   5.721
 6223POPC   GL278398  14.932  17.243   5.881
 6223POPC   C1A78399  15.244  17.587   6.076
 6223POPC   D2A78400  15.526  17.466   6.410
 6223POPC   C3A78401  15.468  17.712   6.765
 6223POPC   C4A78402  15.342  17.674   7.174
 6223POPC   C1B78403  14.754  17.540   6.204
 6223POPC   C2B78404  14.972  17.644   6.587
 6223POPC   C3B78405  14.873  17.506   7.017
 6223POPC   C4B78406  15.032  17.343   7.425
 6224POPC   NC378407  31.451  31.922   5.327
 6224POPC   PO478408  31.175  32.494   5.284
 6224POPC   GL178409  31.233  32.372   5.719
 6224POPC   GL278410  31.544  32.186   5.760
 6224POPC   C1A78411  31.430  32.560   6.092
 6224POPC   D2A78412  31.327  32.516   6.530
 6224POPC   C3A78413  31.495  32.487   6.934
 6224POPC   C4A78414  31.283  32.605   7.325
 6224POPC   C1B78415  31.815  32.250   6.157
 6224POPC   C2B78416  31.801  32.169   6.598
 6224POPC   C3B78417  31.974  32.325   6.978
 6224POPC   C4B78418  31.773  32.339   7.357
 6225POPC   NC378419  39.790  38.033   5.120
 6225POPC   PO478420  39.547  38.459   5.554
 6225POPC   GL178421  39.272  38.435   5.906
 6225POPC   GL278422  38.997  38.268   5.786
 6225POPC   C1A78423  39.377  38.502   6.302
 6225POPC   D2A78424  39.633  38.345   6.587
 6225POPC   C3A78425  39.301  38.346   6.841
 6225POPC   C4A78426  39.131  38.409   7.224
 6225POPC   C1B78427  39.051  38.076   6.195
 6225POPC   C2B78428  39.004  37.987   6.623
 6225POPC   C3B78429  38.790  38.102   6.990
 6225POPC   C4B78430  38.744  38.162   7.448
 6226POPC   NC378431  14.342   6.972   5.284
 6226POPC   PO478432  14.580   6.556   5.723
 6226POPC   GL178433  14.547   6.944   5.897
 6226POPC   GL278434  14.196   7.013   5.818
 6226POPC   C1A78435  14.693   6.764   6.302
 6226POPC   D2A78436  14.522   6.656   6.687
 6226POPC   C3A78437  14.775   6.489   7.009
 6226POPC   C4A78438  14.485   6.224   7.218
 6226POPC   C1B78439  14.249   7.024   6.294
 6226POPC   C2B78440  14.336   7.122   6.737
 6226POPC   C3B78441  14.276   6.837   7.101
 6226POPC   C4B78442  14.064   6.683   7.483
 6227POPC   NC378443  28.959  24.409   5.265
 6227POPC   PO478444  29.385  24.867   5.449
 6227POPC   GL178445  29.210  24.486   5.735
 6227POPC   GL278446  28.863  24.360   5.793
 6227POPC   C1A78447  29.155  24.348   6.196
 6227POPC   D2A78448  29.097  24.644   6.518
 6227POPC   C3A78449  29.147  24.451   6.907
 6227POPC   C4A78450  29.057  24.691   7.247
 6227POPC   C1B78451  28.618  24.385   6.181
 6227POPC   C2B78452  28.675  24.369   6.631
 6227POPC   C3B78453  28.738  24.200   7.052
 6227POPC   C4B78454  28.887  24.257   7.498
 6228POPC   NC378455  44.616  40.466   5.445
 6228POPC   PO478456  44.648  39.725   5.439
 6228POPC   GL178457  44.757  40.011   5.788
 6228POPC   GL278458  44.505  40.231   5.874
 6228POPC   C1A78459  44.772  39.935   6.232
 6228POPC   D2A78460  44.778  40.176   6.605
 6228POPC   C3A78461  44.588  39.979   6.915
 6228POPC   C4A78462  44.658  39.902   7.304
 6228POPC   C1B78463  44.390  40.304   6.276
 6228POPC   C2B78464  44.311  40.387   6.688
 6228POPC   C3B78465  44.136  40.193   7.014
 6228POPC   C4B78466  44.189  40.114   7.407
 6229POPC   NC378467  23.102  29.400   5.515
 6229POPC   PO478468  23.823  29.171   5.373
 6229POPC   GL178469  23.927  29.133   5.798
 6229POPC   GL278470  24.111  29.455   5.804
 6229POPC   C1A78471  23.764  28.952   6.206
 6229POPC   D2A78472  23.885  28.834   6.627
 6229POPC   C3A78473  23.745  28.942   7.039
 6229POPC   C4A78474  23.567  28.640   7.302
 6229POPC   C1B78475  24.045  29.368   6.225
 6229POPC   C2B78476  23.826  29.347   6.591
 6229POPC   C3B78477  23.977  29.410   6.982
 6229POPC   C4B78478  23.844  29.316   7.403
 6230POPC   NC378479  25.318  42.806   5.546
 6230POPC   PO478480  25.533  43.523   5.366
 6230POPC   GL178481  25.490  43.239   5.789
 6230POPC   GL278482  25.631  42.883   5.923
 6230POPC   C1A78483  25.431  43.161   6.280
 6230POPC   D2A78484  25.621  43.148   6.688
 6230POPC   C3A78485  25.284  43.236   6.954
 6230POPC   C4A78486  25.026  43.059   7.306
 6230POPC   C1B78487  25.330  42.656   6.208
 6230POPC   C2B78488  25.231  42.765   6.638
 6230POPC   C3B78489  25.391  42.758   7.063
 6230POPC   C4B78490  25.248  42.578   7.461
 6231POPC   NC378491  35.181  25.905   5.450
 6231POPC   PO478492  35.029  26.492   5.599
 6231POPC   GL178493  35.163  26.211   5.875
 6231POPC   GL278494  35.509  26.261   5.933
 6231POPC   C1A78495  35.226  25.991   6.255
 6231POPC   D2A78496  35.134  26.096   6.650
 6231POPC   C3A78497  35.285  25.839   6.971
 6231POPC   C4A78498  35.144  26.023   7.281
 6231POPC   C1B78499  35.609  26.379   6.347
 6231POPC   C2B78500  35.641  26.140   6.725
 6231POPC   C3B78501  35.720  26.052   7.172
 6231POPC   C4B78502  35.862  26.156   7.584
 6232POPC   NC378503  15.524  13.758   5.459
 6232POPC   PO478504  15.043  13.270   5.497
 6232POPC   GL178505  15.107  13.321   5.887
 6232POPC   GL278506  15.434  13.218   5.847
 6232POPC   C1A78507  14.992  13.649   6.198
 6232POPC   D2A78508  14.921  13.871   6.573
 6232POPC   C3A78509  15.019  13.597   6.889
 6232POPC   C4A78510  14.999  13.570   7.313
 6232POPC   C1B78511  15.435  13.370   6.278
 6232POPC   C2B78512  15.339  13.208   6.666
 6232POPC   C3B78513  15.406  13.340   7.076
 6232POPC   C4B78514  15.507  13.715   7.208
 6233POPC   NC378515  38.496  21.598   5.558
 6233POPC   PO478516  38.735  20.972   5.394
 6233POPC   GL178517  38.677  21.173   5.795
 6233POPC   GL278518  38.323  21.232   5.871
 6233POPC   C1A78519  38.741  21.339   6.229
 6233POPC   D2A78520  38.537  21.373   6.644
 6233POPC   C3A78521  38.737  21.363   7.058
 6233POPC   C4A78522  38.592  21.632   7.405
 6233POPC   C1B78523  38.238  21.540   6.215
 6233POPC   C2B78524  38.068  21.614   6.637
 6233POPC   C3B78525  38.235  21.582   7.051
 6233POPC   C4B78526  38.322  21.207   7.318
 6234POPC   NC378527  40.341  26.627   5.456
 6234POPC   PO478528  39.849  27.051   5.405
 6234POPC   GL178529  40.052  26.942   5.774
 6234POPC   GL278530  39.733  26.910   5.938
 6234POPC   C1A78531  40.149  26.720   6.172
 6234POPC   D2A78532  39.915  26.694   6.558
 6234POPC   C3A78533  40.204  26.669   6.900
 6234POPC   C4A78534  40.370  26.994   7.130
 6234POPC   C1B78535  39.662  27.129   6.317
 6234POPC   C2B78536  39.537  27.010   6.727
 6234POPC   C3B78537  39.789  26.925   7.064
 6234POPC   C4B78538  40.008  26.743   7.420
 6235POPC   NC378539  29.131  16.485   5.486
 6235POPC   PO478540  29.323  17.147   5.458
 6235POPC   GL178541  29.337  16.889   5.846
 6235POPC   GL278542  29.472  16.566   5.848
 6235POPC   C1A78543  29.316  16.813   6.309
 6235POPC   D2A78544  28.987  16.755   6.576
 6235POPC   C3A78545  28.965  16.768   6.998
 6235POPC   C4A78546  28.707  16.960   7.302
 6235POPC   C1B78547  29.600  16.362   6.206
 6235POPC   C2B78548  29.687  16.254   6.638
 6235POPC   C3B78549  29.552  16.567   6.897
 6235POPC   C4B78550  29.405  16.678   7.257
 6236W        W78551  11.566  26.065   2.607
 6237W        W78552   8.163  20.092   1.738
 6238W        W78553  32.340  43.767   0.683
 6239W        W78554  32.602  26.908   1.796
 6240W        W78555   3.485  36.850  11.549
 6241W        W78556  15.183  38.543  13.307
 6242W        W78557   9.291   0.741   4.499
 6243W        W78558  25.568  44.892   2.728
 6244W        W78559  28.295  42.509  11.025
 6245W        W78560  35.907  31.334   2.225
 6246W        W78561  12.659   6.820  11.834
 6247W        W78562  24.381  33.549   1.867
 6248W        W78563   7.049  17.664   2.626
 6249W        W78564  10.795   2.875  11.187
 6250W        W78565  13.186   0.520  14.068
 6251W        W78566  28.372  30.142   2.235
 6252W        W78567  38.883  39.090   1.564
 6253W        W78568   2.945  32.635  13.319
 6254W        W78569  41.946  29.021   2.718
 6255W        W78570  25.231   5.504   2.858
 6256W        W78571   8.654   5.590  11.126
 6257W        W78572   7.161  34.387  10.735
 6258W        W78573   9.611  41.714  11.250
 6259W        W78574  30.946   8.059   2.134
 6260W        W78575  27.469   3.168   0.014
 6261W        W78576  26.703  40.485  11.357
 6262W        W78577  20.648   5.623  12.653
 6263W        W78578   4.800  27.490  13.845
 6264W        W78579  31.691   3.743   1.862
 6265W        W78580   6.412  13.612  11.874
 6266W        W78581   3.186  21.018  12.473
 6267W        W78582  29.548  29.145   0.191
 6268W        W78583   5.918  24.443   2.862
 6269W        W78584  43.986  36.022  11.004
 6270W        W78585  31.484  38.528  12.525
 6271W        W78586   6.268   8.037   9.982
 6272W        W78587   7.942  12.999  11.728
 6273W        W78588   7.234   7.305  12.098
 6274W        W78589  17.594  32.504  12.855
 6275W        W78590  44.233  32.374  14.012
 6276W        W78591  15.343  29.919   0.756
 6277W        W78592  40.027  34.897  13.840
 6278W        W78593   7.417   3.814   2.706
 6279W        W78594  32.398  30.296   0.903
 6280W        W78595   9.449  38.798   2.712
 6281W        W78596   8.317  18.786  12.670
 6282W        W78597   7.788  31.118  12.013
 6283W        W78598  38.061  22.687  13.335
 6284W        W78599  26.515  31.412   4.720
 6285W        W78600   8.777  39.925   3.357
 6286W        W78601   6.907  26.768  14.413
 6287W        W78602  14.658  33.599   5.347
 6288W        W78603  15.533  18.238   3.248
 6289W        W78604  26.103  15.944  11.577
 6290W        W78605   4.856  27.603   0.266
 6291W        W78606  34.273  26.398  11.410
 6292W        W78607  41.515  14.356   1.374
 6293W        W78608  20.647  41.907  10.608
 6294W        W78609  21.246  30.669   2.900
 6295W        W78610  25.039  39.404  12.273
 6296W        W78611   7.748  38.603   0.447
 6297W        W78612  41.354  11.459  12.901
 6298W        W78613  14.564  30.556   0.330
 6299W        W78614   0.832  15.880   1.209
 6300W        W78615  19.942   6.299  11.218
 6301W        W78616  12.378  20.871  13.839
 6302W        W78617  30.598  22.608   1.297
 6303W        W78618  33.167  18.110  14.252
 6304W        W78619  38.099  21.604  10.431
 6305W        W78620  24.659  29.820  13.873
 6306W        W78621  31.165  11.355  10.508
 6307W        W78622   3.995  34.342   1.209
 6308W        W78623   5.326   3.895  14.911
 6309W        W78624  24.492  33.690  11.156
 6310W        W78625  14.736  44.412   1.876
 6311W        W78626  12.038  12.685  14.080
 6312W        W78627  30.928  31.725   0.574
 6313W        W78628  29.587  39.561  13.946
 6314W        W78629  33.490  21.742  12.413
 6315W        W78630  31.493  32.833  10.809
 6316W        W78631  26.671  30.369   3.684
 6317W        W78632  18.679  44.056  12.425
 6318W        W78633   6.270  15.222   3.936
 6319W        W78634  39.004  34.423  12.382
 6320W        W78635  39.061  19.570   2.263
 6321W        W78636   4.716   3.162   1.870
 6322W        W78637   2.548  33.705   0.247
 6323W        W78638   2.160  28.906  12.979
 6324W        W78639  11.685  17.099  10.506
 6325W        W78640  37.601  19.596  14.741
 6326W        W78641  25.587  23.210  14.791
 6327W        W78642  13.769  15.128   0.186
 6328W        W78643   8.589  22.750   3.304
 6329W        W78644   2.783   2.821   0.290
 6330W        W78645   0.124  21.915  14.108
 6331W        W78646  30.152  23.213   2.287
 6332W        W78647   1.611  14.004  13.969
 6333W        W78648   0.040  30.544   1.481
 6334W        W78649  28.987  44.541  10.624
 6335W        W78650  10.773  14.273  13.301
 6336W        W78651  37.422   6.016  14.924
 6337W        W78652  37.046  40.266  12.456
 6338W        W78653  39.381  27.439   0.741
 6339W        W78654  30.162  40.517   3.744
 6340W        W78655  26.752  18.623  13.459
 6341W        W78656  22.673  35.314  11.077
 6342W        W78657  19.030  24.360  11.339
 6343W        W78658  38.894   6.017   2.848
 6344W        W78659  36.607  12.311  13.924
 6345W        W78660   5.465  26.656   3.816
 6346W        W78661  27.373  29.197   1.325
 6347W        W78662   3.691  24.445  11.431
 6348W        W78663  26.549  37.355  10.874
 6349W        W78664  17.274  20.361   4.514
 6350W        W78665   6.332  14.296   4.161
 6351W        W78666  22.236  22.475  11.891
 6352W        W78667  10.248  10.306  13.084
 6353W        W78668  20.417  43.235   2.298
 6354W        W78669  14.686  28.258  11.193
 6355W        W78670  43.169  25.792  11.084
 6356W        W78671  33.241  40.496  14.558
 6357W        W78672  35.919  20.242   4.569
 6358W        W78673  21.298  31.608   3.769
 6359W        W78674  40.966  38.929  12.228
 6360W        W78675   1.458  19.455  14.416
 6361W        W78676  23.144  19.180  13.005
 6362W        W78677   3.810  44.030  14.345
 6363W        W78678  18.169  10.331   4.057
 6364W        W78679  38.859  18.069  11.487
 6365W        W78680   6.093   1.463  11.476
 6366W        W78681  30.613  14.104  11.220
 6367W        W78682  19.548  24.588  13.879
 6368W        W78683  27.217  35.406  11.342
 6369W        W78684  11.836  22.337  11.220
 6370W        W78685  11.746  33.182  13.350
 6371W        W78686  16.091   5.719   2.435
 6372W        W78687  11.164   6.053  11.141
 6373W        W78688  37.058  19.086   3.395
 6374W        W78689   3.476  35.406   2.728
 6375W        W78690  29.166  24.661   1.475
 6376W        W78691   6.755  33.750   4.098
 6377W        W78692  38.848  28.062   3.015
 6378W        W78693  11.080  34.964  10.712
 6379W        W78694  43.778   9.174   2.707
 6380W        W78695  44.776  43.801  14.469
 6381W        W78696  35.103  24.512   4.770
 6382W        W78697   8.607   1.932   1.368
 6383W        W78698  41.013  22.512   1.197
 6384W        W78699   4.769  10.645  14.840
 6385W        W78700  39.547  17.126   0.364
 6386W        W78701  20.556   5.269   4.445
 6387W        W78702  35.604  30.578   4.523
 6388W        W78703  26.032  37.405   0.417
 6389W        W78704  10.278  16.821   4.101
 6390W        W78705  16.640  23.547   1.676
 6391W        W78706  34.890   4.200  12.919
 6392W        W78707  23.927  42.008   4.387
 6393W        W78708   2.575  43.425   2.378
 6394W        W78709   9.433  23.773  10.965
 6395W        W78710   3.398  33.356   5.130
 6396W        W78711  37.986  42.905   3.486
 6397W        W78712   6.437   6.354   3.198
 6398W        W78713  28.615   5.308  11.091
 6399W        W78714  42.420  44.949   4.594
 6400W        W78715  14.591  14.514   3.053
 6401W        W78716   3.378  36.280   2.810
 6402W        W78717  37.968   6.851   2.924
 6403W        W78718  38.162  26.709   0.994
 6404W        W78719   0.190  36.749  10.610
 6405W        W78720  24.529  33.660  12.467
 6406W        W78721  30.918  11.388   3.798
 6407W        W78722   5.630  11.652   3.662
 6408W        W78723  26.064   1.272   2.788
 6409W        W78724  42.271   0.379   4.334
 6410W        W78725  25.666  19.545   3.344
 6411W        W78726   0.659  27.453   0.885
 6412W        W78727   6.734  21.572   2.365
 6413W        W78728  18.530  42.918   1.177
 6414W        W78729  31.969  19.123   2.121
 6415W        W78730  25.756  29.371  14.365
 6416W        W78731  21.748  39.510  14.753
 6417W        W78732   8.162  19.750   2.176
 6418W        W78733   2.884  27.418  13.355
 6419W        W78734  13.299  17.438   5.001
 6420W        W78735  11.731  27.700   4.191
 6421W        W78736   9.615   0.795   4.062
 6422W        W78737  40.534   0.699  14.535
 6423W        W78738   9.781  22.730  14.708
 6424W        W78739  36.598   7.625   0.517
 6425W        W78740  40.533  19.415  12.569
 6426W        W78741  16.718  30.555   4.721
 6427W        W78742   9.253  24.931  11.641
 6428W        W78743  20.311  40.412  14.274
 6429W        W78744  41.961  12.106  12.395
 6430W        W78745  13.925  12.514  12.409
 6431W        W78746  44.505  30.282  13.900
 6432W        W78747  36.104   4.228   1.115
 6433W        W78748   0.474   8.730   3.441
 6434W        W78749  15.261  41.566  12.383
 6435W        W78750  44.883  14.841   4.640
 6436W        W78751  40.413  20.311   1.388
 6437W        W78752  11.634  11.209  11.676
 6438W        W78753  40.853  27.625   4.033
 6439W        W78754  28.837   7.719   2.710
 6440W        W78755  14.779   8.249  12.091
 6441W        W78756  37.155   1.425   3.550
 6442W        W78757  20.582  24.982  10.662
 6443W        W78758  29.591  23.590  13.692
 6444W        W78759  31.368  12.740  11.991
 6445W        W78760  29.075  22.048  11.243
 6446W        W78761  44.404  17.668   1.457
 6447W        W78762   4.704  39.042   3.745
 6448W        W78763   4.770  10.752   3.515
 6449W        W78764  30.786  33.002  10.034
 6450W        W78765  21.960   6.852   3.694
 6451W        W78766  41.994  35.477  10.519
 6452W        W78767  10.636  44.499   3.255
 6453W        W78768  19.074  39.855  11.486
 6454W        W78769   1.756  43.846  11.909
 6455W        W78770  21.609  19.303   3.300
 6456W        W78771  26.174  10.292  13.593
 6457W        W78772  23.263  29.010   3.726
 6458W        W78773  28.366  21.126   2.270
 6459W        W78774   0.177   8.133  13.737
 6460W        W78775  14.122  32.332  11.317
 6461W        W78776  22.194  25.058   0.249
 6462W        W78777  19.742  40.837   4.348
 6463W        W78778  16.983  31.690   0.360
 6464W        W78779  23.770  38.037   3.719
 6465W        W78780  19.726  16.564  14.639
 6466W        W78781  28.118  19.084   0.530
 6467W        W78782   5.902  33.332   3.383
 6468W        W78783  12.227  34.908  13.604
 6469W        W78784  37.310  25.711   0.794
 6470W        W78785  43.373   4.253   3.698
 6471W        W78786  30.631  34.814   3.936
 6472W        W78787  36.815  15.305   2.766
 6473W        W78788   1.916   1.033   1.719
 6474W        W78789  39.803  30.959   4.127
 6475W        W78790  33.851  25.683  14.344
 6476W        W78791  43.191  44.537   3.608
 6477W        W78792  17.643  40.585  11.084
 6478W        W78793  10.744  26.088   3.316
 6479W        W78794   8.839  18.958   0.786
 6480W        W78795  28.053  43.403  12.090
 6481W        W78796  34.543  43.306  14.371
 6482W        W78797  41.836   8.793   1.943
 6483W        W78798   6.635  26.600  10.299
 6484W        W78799   6.359  44.488  14.996
 6485W        W78800  24.843   5.294   4.694
 6486W        W78801  20.186  36.368   3.673
 6487W        W78802  12.264   4.957   3.199
 6488W        W78803   2.133  27.126  12.117
 6489W        W78804  33.344   4.385  13.596
 6490W        W78805   0.946  36.859   3.605
 6491W        W78806  21.911  10.847  13.169
 6492W        W78807   0.503  24.704  11.107
 6493W        W78808  13.300  41.427  11.220
 6494W        W78809  15.835  22.412   0.720
 6495W        W78810  30.190  41.415   3.781
 6496W        W78811   7.910  42.553  10.794
 6497W        W78812  38.928  27.664   2.652
 6498W        W78813  27.749   3.526   1.285
 6499W        W78814  16.211  18.764  13.938
 6500W        W78815  25.655   6.806  13.575
 6501W        W78816  20.994  42.819   1.993
 6502W        W78817   8.596  32.955   0.419
 6503W        W78818  20.612  26.511   2.577
 6504W        W78819  38.521  26.210  13.428
 6505W        W78820  43.054  10.848  12.896
 6506W        W78821  16.534  30.501   1.802
 6507W        W78822  33.698  39.908  12.969
 6508W        W78823  16.112  23.638  11.514
 6509W        W78824  16.672  13.762   2.296
 6510W        W78825  36.791  15.730   0.293
 6511W        W78826  17.323  44.498  11.535
 6512W        W78827  25.492  25.013  13.519
 6513W        W78828  14.766  14.435   0.045
 6514W        W78829  38.347  21.224  10.693
 6515W        W78830  26.799   7.777  13.511
 6516W        W78831   0.513  25.150   2.276
 6517W        W78832  39.552  19.119  11.251
 6518W        W78833  39.409  41.789   1.722
 6519W        W78834  40.356  26.705  12.405
 6520W        W78835  29.569  11.823   3.313
 6521W        W78836  31.595  40.991   3.257
 6522W        W78837  13.141  10.180  11.130
 6523W        W78838  15.579  44.230  11.047
 6524W        W78839  15.553  20.088   0.738
 6525W        W78840  31.515   5.150   3.226
 6526W        W78841  12.167  12.418   3.198
 6527W        W78842   0.378  25.523   4.398
 6528W        W78843  37.858  43.936  12.443
 6529W        W78844  36.900  13.877   0.884
 6530W        W78845  28.066  36.296   0.342
 6531W        W78846  11.216  19.651  12.536
 6532W        W78847  31.134   8.859  10.791
 6533W        W78848  31.551  14.714  12.587
 6534W        W78849  32.958   6.237  13.862
 6535W        W78850   7.027  32.143   1.301
 6536W        W78851   9.931  17.563  13.985
 6537W        W78852   6.462  37.783  11.540
 6538W        W78853  28.710  28.006  11.193
 6539W        W78854  43.567  39.369  10.634
 6540W        W78855  33.080  37.338  12.461
 6541W        W78856  20.837  29.547  14.551
 6542W        W78857  19.492  44.238   1.399
 6543W        W78858  33.492  12.414  13.616
 6544W        W78859  17.512  38.245  13.943
 6545W        W78860  17.325   4.228  11.529
 6546W        W78861  37.746  26.281  10.247
 6547W        W78862  22.749  43.318  10.911
 6548W        W78863  38.989  44.825   2.247
 6549W        W78864  21.158  18.390  13.402
 6550W        W78865  29.496  18.243   4.798
 6551W        W78866  26.977  11.687  11.794
 6552W        W78867  10.897   5.650  11.571
 6553W        W78868  36.524  12.835   0.983
 6554W        W78869   2.339  29.922  12.940
 6555W        W78870   7.834   6.380   3.607
 6556W        W78871  40.095  37.492  11.362
 6557W        W78872  22.123  40.533  14.434
 6558W        W78873  41.623  30.951  13.640
 6559W        W78874  40.588  35.479  14.020
 6560W        W78875  38.598   1.335   0.774
 6561W        W78876  12.756  11.853  12.498
 6562W        W78877  14.253   1.284   1.817
 6563W        W78878   9.119  19.578   5.092
 6564W        W78879  17.620   3.507  10.874
 6565W        W78880  35.811   9.888   0.891
 6566W        W78881   7.306  44.822   3.731
 6567W        W78882  13.182  18.615  12.810
 6568W        W78883   8.857  28.448  13.792
 6569W        W78884  36.425  39.370   4.095
 6570W        W78885  24.246  42.852   3.613
 6571W        W78886  37.517   8.852  14.288
 6572W        W78887  20.008  36.799  12.470
 6573W        W78888  33.326  24.460   4.488
 6574W        W78889  20.740  36.290  10.815
 6575W        W78890  22.948  24.925  14.398
 6576W        W78891   6.427   3.339   1.872
 6577W        W78892   2.934  27.158  10.589
 6578W        W78893   2.290  34.342   1.882
 6579W        W78894  43.687  29.850   0.374
 6580W        W78895  18.921   0.738  13.049
 6581W        W78896  23.116  35.473   2.918
 6582W        W78897   3.361  32.469  11.650
 6583W        W78898  17.700  27.472   5.653
 6584W        W78899  42.369   1.842  10.678
 6585W        W78900  20.756  42.643  11.598
 6586W        W78901  15.725  21.404  14.922
 6587W        W78902  26.545  12.275  14.311
 6588W        W78903  20.991  26.205  10.742
 6589W        W78904  16.754  35.563   4.148
 6590W        W78905  30.550   1.305   4.508
 6591W        W78906  38.430  16.819   3.676
 6592W        W78907  41.811  27.882   9.869
 6593W        W78908  37.951  40.808   4.049
 6594W        W78909   8.537  10.421   5.076
 6595W        W78910   4.359  42.961  10.997
 6596W        W78911  17.021  18.077  11.959
 6597W        W78912  15.771  18.322   2.321
 6598W        W78913  15.158  31.981  11.110
 6599W        W78914  20.503  16.135  12.051
 6600W        W78915  13.265  44.315  14.831
 6601W        W78916   8.531  15.455  12.466
 6602W        W78917  24.153  23.415   2.500
 6603W        W78918  32.410  11.550  13.518
 6604W        W78919  34.907  30.047   3.425
 6605W        W78920  44.366  22.554   4.236
 6606W        W78921   8.730  21.504   1.393
 6607W        W78922  23.222  39.311   0.458
 6608W        W78923   5.950  31.045  13.987
 6609W        W78924  33.838   4.308   3.733
 6610W        W78925  28.866  41.001   2.249
 6611W        W78926  35.389  28.908  14.486
 6612W        W78927  30.215  41.112   1.952
 6613W        W78928  28.636  36.346   0.030
 6614W        W78929  35.353  25.569  14.967
 6615W        W78930  11.611  24.912   1.949
 6616W        W78931  34.614  10.630   4.632
 6617W        W78932   3.094  20.822   1.465
 6618W        W78933  22.994  24.465   0.089
 6619W        W78934   1.221  12.217  13.422
 6620W        W78935   6.465  41.519   3.667
 6621W        W78936  42.273  10.877   1.816
 6622W        W78937  24.442  10.700   0.895
 6623W        W78938   3.184  35.873   0.005
 6624W        W78939  30.448  26.246   2.822
 6625W        W78940  35.585  19.679  13.819
 6626W        W78941  14.116  13.293  12.021
 6627W        W78942  12.196  14.390  14.855
 6628W        W78943  31.884  26.083   0.511
 6629W        W78944  36.874  35.560   0.010
 6630W        W78945  38.319  29.081   3.144
 6631W        W78946   3.296  37.657  12.405
 6632W        W78947  21.960  30.846  11.194
 6633W        W78948  20.962  42.005  11.006
 6634W        W78949   5.397  13.769   0.316
 6635W        W78950  27.419  39.166   3.699
 6636W        W78951   1.818  32.850   2.196
 6637W        W78952  27.538  31.192  11.889
 6638W        W78953   0.416  34.136   2.714
 6639W        W78954  24.745   9.295  12.528
 6640W        W78955   0.268  21.068  10.757
 6641W        W78956  34.135  31.493  12.953
 6642W        W78957  16.109  19.653  14.295
 6643W        W78958  13.672  18.587   2.713
 6644W        W78959  19.062   9.228  12.041
 6645W        W78960   4.202  36.298   0.380
 6646W        W78961  27.590  31.338  11.165
 6647W        W78962  16.660  24.145   3.003
 6648W        W78963  29.970  41.652   2.839
 6649W        W78964  36.572   4.470  13.895
 6650W        W78965  43.013  28.945  13.917
 6651W        W78966  17.657  16.528   1.693
 6652W        W78967  30.828  17.697  11.672
 6653W        W78968  10.008   5.009  11.099
 6654W        W78969  41.827  25.603   2.929
 6655W        W78970  38.344  14.293  14.077
 6656W        W78971  17.240   3.906   2.289
 6657W        W78972  41.004   4.338   1.724
 6658W        W78973   7.069  14.709   1.191
 6659W        W78974  35.100  34.480   2.767
 6660W        W78975  27.852  25.688  12.123
 6661W        W78976  35.113  25.960   2.298
 6662W        W78977  11.150   2.524  11.073
 6663W        W78978  26.890   4.779  14.897
 6664W        W78979  30.198   1.029   4.821
 6665W        W78980  25.169   9.245  13.414
 6666W        W78981   3.158  32.965   0.306
 6667W        W78982  12.257  32.594  14.287
 6668W        W78983   5.278   0.999   4.713
 6669W        W78984  38.675   1.761   2.722
 6670W        W78985   8.682   0.937   0.390
 6671W        W78986  43.303  40.552  13.367
 6672W        W78987  11.131  20.058  14.941
 6673W        W78988  33.147  15.709  12.941
 6674W        W78989  31.185   4.796  11.536
 6675W        W78990  20.582  33.403   4.062
 6676W        W78991  34.376  12.566  14.273
 6677W        W78992  38.617   0.979  13.488
 6678W        W78993  23.812  31.971  10.637
 6679W        W78994   9.891  16.519   1.780
 6680W        W78995  34.511  40.728  11.411
 6681W        W78996  32.000  23.167   4.164
 6682W        W78997  15.234   3.951   3.755
 6683W        W78998  39.879  17.761  12.206
 6684W        W78999  27.628  36.556   0.371
 6685W        W79000   0.034  20.121  11.562
 6686W        W79001  33.991  16.044  13.558
 6687W        W79002   7.485   1.335  11.677
 6688W        W79003  26.604  37.335  14.358
 6689W        W79004  12.119  38.321   2.182
 6690W        W79005  23.728  24.668  11.496
 6691W        W79006   1.388  15.230   3.219
 6692W        W79007  22.648   5.043   3.563
 6693W        W79008   6.833  35.097  14.749
 6694W        W79009  21.671  24.543  13.001
 6695W        W79010  38.538  34.563  11.235
 6696W        W79011  39.032  28.374  12.675
 6697W        W79012  13.596  14.726  12.955
 6698W        W79013   0.217  40.365  14.051
 6699W        W79014   8.794  11.828   4.513
 6700W        W79015  20.654  30.702  11.812
 6701W        W79016   5.133  15.284  12.937
 6702W        W79017  41.288   8.741   4.725
 6703W        W79018  32.986   4.495   0.455
 6704W        W79019  12.260   7.766   4.336
 6705W        W79020  20.183  22.186   0.860
 6706W        W79021  17.927  13.693   0.507
 6707W        W79022  43.241   2.723  13.383
 6708W        W79023   3.002   3.222  12.007
 6709W        W79024  38.283  39.296   0.339
 6710W        W79025  21.428  16.433   1.960
 6711W        W79026  11.126  35.143   0.968
 6712W        W79027  34.507  16.211  12.213
 6713W        W79028  15.210  21.285   4.655
 6714W        W79029  43.955  44.347   3.251
 6715W        W79030   2.997  16.669  11.187
 6716W        W79031  26.579   7.725   2.244
 6717W        W79032   7.474  19.764   3.830
 6718W        W79033  44.255  27.594  12.817
 6719W        W79034  12.412  43.001  13.882
 6720W        W79035  39.542  41.553   4.809
 6721W        W79036  19.728  25.630   2.890
 6722W        W79037  44.686  29.537  13.424
 6723W        W79038  10.965  37.546  11.162
 6724W        W79039  41.489  27.728   0.477
 6725W        W79040  17.793  39.276   4.687
 6726W        W79041  20.964  38.989  13.430
 6727W        W79042  21.752  39.089   3.833
 6728W        W79043   6.444  19.829   3.761
 6729W        W79044  15.067  19.520   0.347
 6730W        W79045  25.735  42.304   1.711
 6731W        W79046  38.387   6.424   1.701
 6732W        W79047   8.866  25.458   2.847
 6733W        W79048  30.185  17.623   4.539
 6734W        W79049  22.223  10.232   4.706
 6735W        W79050  40.586   2.890  11.987
 6736W        W79051   4.345  19.560  14.138
 6737W        W79052  24.640   9.364  10.657
 6738W        W79053  24.194  29.154   4.502
 6739W        W79054   3.754  35.062  14.850
 6740W        W79055   9.216  40.611   4.618
 6741W        W79056  34.455  14.850  10.646
 6742W        W79057  11.226  11.207   0.948
 6743W        W79058  44.187   6.325  11.473
 6744W        W79059  13.393   8.457  13.265
 6745W        W79060  38.227  34.135  14.405
 6746W        W79061   5.740  17.154   4.265
 6747W        W79062  28.370   4.678   4.304
 6748W        W79063   5.161  17.806  14.207
 6749W        W79064  23.957   4.345  14.916
 6750W        W79065  40.376  14.219   3.425
 6751W        W79066   7.674   3.247   2.085
 6752W        W79067  15.446  37.528   2.801
 6753W        W79068  28.850  27.519  13.021
 6754W        W79069   2.821   1.969   3.427
 6755W        W79070  24.711  20.210  11.696
 6756W        W79071  37.730   7.048   1.147
 6757W        W79072   5.977  12.075   2.219
 6758W        W79073   3.277  17.128   2.861
 6759W        W79074  28.269  36.016  12.584
 6760W        W79075   5.749  41.834  14.761
 6761W        W79076   5.552   0.021  11.551
 6762W        W79077   1.012  37.615  14.945
 6763W        W79078  15.749  20.009  12.504
 6764W        W79079  23.790   5.387  12.008
 6765W        W79080  17.076  13.359  14.769
 6766W        W79081  17.996  42.032   2.337
 6767W        W79082  12.851  37.115   0.780
 6768W        W79083  20.105  40.926   3.733
 6769W        W79084   5.141  17.621  11.556
 6770W        W79085  20.569  17.727  13.605
 6771W        W79086  35.093   3.866   2.265
 6772W        W79087  41.713   4.466  12.999
 6773W        W79088   2.320  43.444  13.830
 6774W        W79089  26.703  27.434   2.382
 6775W        W79090  20.259  18.106   0.387
 6776W        W79091  22.480  36.159  14.418
 6777W        W79092  11.089  13.082  12.657
 6778W        W79093  34.985  19.094   3.778
 6779W        W79094  14.035  30.552  14.384
 6780W        W79095  33.970  40.025   2.192
 6781W        W79096  41.231  10.199   0.271
 6782W        W79097  13.653  44.712  11.682
 6783W        W79098  29.427  39.270   0.357
 6784W        W79099  11.743  35.992   1.191
 6785W        W79100  40.595  37.405  12.576
 6786W        W79101   8.794  13.773   2.917
 6787W        W79102  33.565  25.179  12.490
 6788W        W79103  41.381  10.933  12.951
 6789W        W79104  40.042  19.256  11.191
 6790W        W79105   3.199   4.232   1.207
 6791W        W79106  24.908  37.313  12.367
 6792W        W79107  30.833   6.199  12.577
 6793W        W79108  27.440  33.298   0.095
 6794W        W79109  43.374  28.390  14.486
 6795W        W79110  25.730  35.841   4.520
 6796W        W79111  27.859  10.782   2.987
 6797W        W79112   1.283  12.870  10.632
 6798W        W79113  31.091  23.191   2.313
 6799W        W79114  32.147   7.184  14.710
 6800W        W79115  23.196  30.633   2.200
 6801W        W79116  43.759  28.922   2.782
 6802W        W79117   1.260  40.589   1.761
 6803W        W79118  17.951  37.000  11.900
 6804W        W79119   8.680  35.480  11.167
 6805W        W79120  27.548  13.557  14.885
 6806W        W79121  20.344  22.175  14.913
 6807W        W79122  32.170  24.074  14.869
 6808W        W79123   5.791  43.256  12.075
 6809W        W79124   1.664  40.410   4.982
 6810W        W79125  35.642  13.494  14.388
 6811W        W79126  33.583  16.619   2.645
 6812W        W79127  37.521  14.080   0.342
 6813W        W79128  19.876   2.236   2.128
 6814W        W79129   7.863  32.636  12.034
 6815W        W79130  24.052  37.534  10.823
 6816W        W79131  44.899  34.555  11.407
 6817W        W79132   2.805  25.156  14.849
 6818W        W79133  22.468  35.024  13.073
 6819W        W79134  11.928   1.785   2.375
 6820W        W79135  36.491  15.339  13.302
 6821W        W79136  14.216  27.622   3.656
 6822W        W79137  43.208  26.973  10.263
 6823W        W79138  11.641   7.292   3.767
 6824W        W79139  39.335  28.461   2.351
 6825W        W79140  24.503   7.325   4.067
 6826W        W79141   3.202  43.058  11.599
 6827W        W79142  25.208   7.862   5.198
 6828W        W79143  18.128  22.202   3.644
 6829W        W79144  37.457  36.073  13.771
 6830W        W79145  17.318  28.521  10.123
 6831W        W79146  24.288  18.859   4.235
 6832W        W79147  11.245  35.475  11.129
 6833W        W79148  12.193  28.448   2.874
 6834W        W79149  20.198  41.012   1.717
 6835W        W79150  26.231  19.581  13.474
 6836W        W79151   3.779  40.750  14.062
 6837W        W79152  31.716  38.555   4.449
 6838W        W79153  38.954  30.328   0.853
 6839W        W79154  23.636  26.265   2.616
 6840W        W79155  35.855  11.890  14.378
 6841W        W79156  20.509  39.316  14.129
 6842W        W79157  39.501  20.956  11.491
 6843W        W79158  17.725   0.791  11.730
 6844W        W79159  36.916  42.391  10.900
 6845W        W79160  24.041  36.020  14.410
 6846W        W79161  25.486  32.568  11.034
 6847W        W79162  15.233  25.680   0.079
 6848W        W79163  43.287  26.918   0.956
 6849W        W79164  40.038  23.466  12.981
 6850W        W79165   9.349  25.547  14.569
 6851W        W79166  29.717  40.423  14.543
 6852W        W79167   6.101  43.658  12.001
 6853W        W79168  43.181  20.132  11.189
 6854W        W79169   7.782   6.339  12.800
 6855W        W79170  18.129  32.879  11.951
 6856W        W79171  29.862  19.671   1.775
 6857W        W79172  27.479   8.671  11.436
 6858W        W79173  11.658  19.673   2.918
 6859W        W79174   1.274   2.399  14.303
 6860W        W79175  15.839  22.012  10.958
 6861W        W79176  31.062  31.425   3.226
 6862W        W79177  37.644  41.018   0.750
 6863W        W79178  41.404  18.577   3.168
 6864W        W79179  39.339  24.287  11.265
 6865W        W79180   7.554  30.365   5.453
 6866W        W79181  16.486  12.674  13.532
 6867W        W79182   8.255   7.640   3.653
 6868W        W79183  24.577  32.377  11.033
 6869W        W79184  13.108  25.149  11.261
 6870W        W79185  10.823   7.055  11.681
 6871W        W79186  14.819  35.330   4.887
 6872W        W79187   3.644   6.915  11.064
 6873W        W79188  34.623  35.343   4.058
 6874W        W79189   9.818  16.791  13.360
 6875W        W79190  20.306  18.199  11.496
 6876W        W79191  12.835   2.775  14.410
 6877W        W79192  14.672  36.035  11.454
 6878W        W79193  38.245  32.106  14.273
 6879W        W79194   3.909  21.112   4.752
 6880W        W79195   6.847  22.685  13.551
 6881W        W79196  35.409  15.454   1.424
 6882W        W79197  24.087  21.718   0.959
 6883W        W79198  35.837   4.420  11.977
 6884W        W79199  11.918   9.117  10.675
 6885W        W79200  17.083  39.939  12.736
 6886W        W79201   0.417  25.063   4.136
 6887W        W79202   3.290  11.752   1.689
 6888W        W79203  26.214  18.651  10.556
 6889W        W79204   6.791   5.467  12.580
 6890W        W79205  37.102  25.302  13.296
 6891W        W79206  18.008  17.193  13.845
 6892W        W79207  26.057  26.473   3.687
 6893W        W79208  44.583  16.836  13.494
 6894W        W79209  12.921  37.619  14.968
 6895W        W79210   6.017  18.112   4.811
 6896W        W79211  35.642  27.248   3.457
 6897W        W79212   6.890  13.069  10.783
 6898W        W79213  23.266  26.953  12.054
 6899W        W79214  24.869  21.426   4.329
 6900W        W79215  34.410  37.423  10.578
 6901W        W79216  10.809  39.973   1.877
 6902W        W79217   8.408  36.316   3.223
 6903W        W79218  44.488   8.252   1.802
 6904W        W79219  34.643  35.289  10.749
 6905W        W79220   5.475  42.960   2.259
 6906W        W79221  28.430  15.108   2.662
 6907W        W79222  39.938  32.163  11.961
 6908W        W79223  29.929  42.949   4.109
 6909W        W79224  11.102  15.299   3.973
 6910W        W79225   1.862  28.814  12.497
 6911W        W79226  30.696   6.590  13.920
 6912W        W79227  32.994  30.037  10.859
 6913W        W79228  23.016   6.757  14.154
 6914W        W79229  24.399  19.381  11.805
 6915W        W79230  43.531   9.156   2.228
 6916W        W79231  24.727  11.683   2.314
 6917W        W79232  20.110  17.150  11.528
 6918W        W79233  43.313  42.544   4.172
 6919W        W79234  40.400  38.589  13.292
 6920W        W79235  43.405   9.828  14.130
 6921W        W79236  36.422  37.300   0.268
 6922W        W79237  22.777  27.090   0.984
 6923W        W79238   6.822  26.718   3.202
 6924W        W79239  24.015  30.145   3.659
 6925W        W79240  36.310   2.230  10.637
 6926W        W79241   1.690  38.842  11.593
 6927W        W79242   6.292  38.100  14.655
 6928W        W79243   4.494   4.866  12.390
 6929W        W79244  35.424  28.995  12.653
 6930W        W79245  36.387  10.139  14.182
 6931W        W79246   4.742  20.080   3.063
 6932W        W79247   2.433  11.224   2.193
 6933W        W79248  31.107  42.500  12.891
 6934W        W79249  40.970  27.012   1.753
 6935W        W79250   9.742  36.879   1.778
 6936W        W79251  19.594  23.486  14.879
 6937W        W79252   6.705  44.777   0.277
 6938W        W79253   5.402  39.591  14.389
 6939W        W79254   5.626  29.641   1.540
 6940W        W79255  39.404  25.684  10.159
 6941W        W79256  43.582   4.209  13.044
 6942W        W79257  32.449   2.197   4.812
 6943W        W79258  44.683   5.720   2.186
 6944W        W79259   2.221  27.671  10.515
 6945W        W79260   6.144  17.175  10.597
 6946W        W79261   0.019  13.336  11.461
 6947W        W79262   3.829   1.283   1.415
 6948W        W79263  23.127  25.949  14.368
 6949W        W79264  43.539  36.070   9.935
 6950W        W79265  19.156   5.217   4.161
 6951W        W79266  42.863   2.172   1.058
 6952W        W79267  27.039  14.343  10.522
 6953W        W79268  13.373  16.260  12.159
 6954W        W79269  36.103   2.333  13.908
 6955W        W79270   0.920  20.740   2.939
 6956W        W79271   1.729  34.418   2.652
 6957W        W79272  10.478  26.035   1.493
 6958W        W79273  32.678  24.179  14.993
 6959W        W79274  39.692   3.947   1.896
 6960W        W79275  38.083  30.883   1.200
 6961W        W79276  13.227  28.397  12.349
 6962W        W79277  44.737  39.185  11.703
 6963W        W79278  35.611   2.656   3.265
 6964W        W79279   5.951  30.097   2.149
 6965W        W79280  10.108   7.085   2.427
 6966W        W79281   2.781  42.662   3.899
 6967W        W79282  32.483  30.670  14.936
 6968W        W79283  24.876  17.060  11.045
 6969W        W79284   3.437  37.505   4.182
 6970W        W79285  26.044   6.141  11.471
 6971W        W79286   7.780  17.566  12.552
 6972W        W79287   1.808  37.014   4.189
 6973W        W79288  15.390  11.243  12.890
 6974W        W79289   3.440  24.062  13.647
 6975W        W79290  12.892  36.078  10.666
 6976W        W79291  44.036   4.814  10.627
 6977W        W79292  17.083   4.727  11.514
 6978W        W79293  22.142  39.309  13.563
 6979W        W79294  15.424  15.850   5.021
 6980W        W79295  41.485   9.374  11.285
 6981W        W79296  26.182  38.076  10.579
 6982W        W79297  16.739   0.990   2.207
 6983W        W79298   1.840  41.905  12.974
 6984W        W79299  24.138  39.446  12.574
 6985W        W79300   5.200  22.017   2.929
 6986W        W79301  25.576  33.593   2.710
 6987W        W79302  23.705  13.594   2.782
 6988W        W79303  13.644  14.320  11.513
 6989W        W79304   5.006  41.559   0.212
 6990W        W79305  27.088  10.425   3.204
 6991W        W79306   1.504  28.941  11.221
 6992W        W79307  30.140  37.805  11.094
 6993W        W79308  14.309  18.779  13.044
 6994W        W79309  28.013  43.539  13.883
 6995W        W79310  42.321   0.897  10.443
 6996W        W79311   7.948  42.487   2.158
 6997W        W79312   3.296  36.435   0.210
 6998W        W79313  41.517  24.657  14.412
 6999W        W79314  38.478  31.204   1.209
 7000W        W79315  37.903  27.988  10.542
 7001W        W79316  24.654  37.387  13.030
 7002W        W79317  26.170  23.101  11.567
 7003W        W79318  32.387  39.404  11.514
 7004W        W79319   5.449   7.956   1.703
 7005W        W79320  37.295  20.497   3.115
 7006W        W79321  43.470  39.016   3.658
 7007W        W79322   2.812  23.536   3.753
 7008W        W79323  21.125   3.045  10.748
 7009W        W79324  24.350   5.248   2.721
 7010W        W79325  33.327   4.082  14.266
 7011W        W79326  32.711   4.680   1.512
 7012W        W79327   9.096  22.783  13.388
 7013W        W79328  36.560  26.985   4.039
 7014W        W79329   1.560  37.356   3.595
 7015W        W79330  27.258  12.256   3.211
 7016W        W79331  32.391   6.819  14.354
 7017W        W79332  24.696  12.424  14.955
 7018W        W79333  26.190  34.468  12.107
 7019W        W79334   8.198   0.763  10.183
 7020W        W79335  27.973  29.969  13.851
 7021W        W79336  26.775  31.778  11.014
 7022W        W79337  15.225  44.264  14.882
 7023W        W79338  25.961  32.006   9.801
 7024W        W79339   0.432  21.701  13.343
 7025W        W79340   7.526  21.037  10.710
 7026W        W79341  18.572  34.828  14.492
 7027W        W79342  31.888  38.387  11.607
 7028W        W79343  14.399   1.809   3.628
 7029W        W79344   2.381  29.016  14.729
 7030W        W79345  40.993   2.696  12.914
 7031W        W79346   4.879  43.862   1.607
 7032W        W79347  40.882  41.965   2.204
 7033W        W79348  28.453  43.588   2.705
 7034W        W79349  20.409  43.369  13.486
 7035W        W79350   2.206  33.019  14.900
 7036W        W79351   9.159  40.891  12.351
 7037W        W79352  21.236  28.880   3.296
 7038W        W79353  29.577  24.652   3.118
 7039W        W79354  39.734   4.633   1.647
 7040W        W79355  20.262  25.201  10.234
 7041W        W79356  13.358   9.216   4.468
 7042W        W79357  32.313   7.581  13.366
 7043W        W79358   2.478  20.789   0.341
 7044W        W79359  21.442  18.116   2.352
 7045W        W79360  20.587  14.606  13.569
 7046W        W79361  21.035   5.836  14.395
 7047W        W79362  34.146  39.931  12.050
 7048W        W79363  14.216  35.993  12.075
 7049W        W79364  34.817  43.096   3.006
 7050W        W79365  12.737  15.633  11.264
 7051W        W79366  16.321  39.603   9.837
 7052W        W79367  35.382  30.678  11.901
 7053W        W79368  30.400  40.809   2.429
 7054W        W79369  15.865  14.149   4.988
 7055W        W79370  30.525   6.094   5.000
 7056W        W79371  34.106  16.865   3.995
 7057W        W79372  12.360  30.480   4.107
 7058W        W79373  24.465   2.442   0.865
 7059W        W79374  38.948  40.570  12.997
 7060W        W79375  22.222  21.855   5.113
 7061W        W79376  12.443  23.656   2.815
 7062W        W79377   5.281  41.943  14.361
 7063W        W79378  38.279   8.743   2.231
 7064W        W79379   7.495  41.188   4.084
 7065W        W79380   1.718  20.267  13.406
 7066W        W79381   2.282  33.656   2.241
 7067W        W79382  32.455  42.345  14.394
 7068W        W79383  44.259  37.986   1.192
 7069W        W79384  18.215  43.278  12.398
 7070W        W79385  40.148  42.373   0.723
 7071W        W79386  38.543  26.567   4.217
 7072W        W79387   9.090  22.584   3.344
 7073W        W79388  36.420  10.770  14.813
 7074W        W79389  21.912   8.908   0.242
 7075W        W79390  34.793  44.386  10.233
 7076W        W79391  15.119  14.707  11.565
 7077W        W79392  29.720  12.199   1.878
 7078W        W79393  10.447   5.493   0.020
 7079W        W79394   6.150  33.530   2.069
 7080W        W79395  26.904  39.055   3.821
 7081W        W79396  18.950  39.059   4.130
 7082W        W79397  14.462  23.032  12.836
 7083W        W79398  31.438  30.866  13.864
 7084W        W79399  23.213  32.854  12.031
 7085W        W79400   8.349   1.415  10.532
 7086W        W79401  17.205  11.135   3.276
 7087W        W79402  21.034   1.310   1.182
 7088W        W79403  25.753  27.274  12.900
 7089W        W79404  13.783  11.150  10.660
 7090W        W79405   4.384   0.775   0.885
 7091W        W79406  31.331  42.789  10.196
 7092W        W79407  29.750   2.484   2.754
 7093W        W79408  23.719  11.693   2.378
 7094W        W79409  38.315  30.105   1.621
 7095W        W79410  27.297  27.414  14.544
 7096W        W79411  22.731   4.251   1.327
 7097W        W79412   1.607  10.902   0.678
 7098W        W79413  15.244  21.041  14.041
 7099W        W79414  26.743   2.253   3.321
 7100W        W79415  38.548  44.900  13.086
 7101W        W79416  42.826  18.775   4.180
 7102W        W79417  30.190  33.287   1.979
 7103W        W79418   8.590  33.647  11.140
 7104W        W79419  10.582  43.787   4.722
 7105W        W79420   9.419  30.856  12.127
 7106W        W79421   5.439  43.558  10.424
 7107W        W79422  32.147  22.461   4.605
 7108W        W79423  20.738  21.322   4.350
 7109W        W79424   7.785  20.091   2.965
 7110W        W79425  43.733  33.124  11.337
 7111W        W79426  17.841  13.163  11.310
 7112W        W79427  40.247  38.997  14.409
 7113W        W79428  27.226  15.775   4.158
 7114W        W79429  24.276  38.783  13.331
 7115W        W79430  34.615  11.721  13.887
 7116W        W79431  26.352  20.554  11.154
 7117W        W79432  28.897  10.164   3.593
 7118W        W79433  34.266  11.846  11.067
 7119W        W79434  15.886   0.911   2.274
 7120W        W79435  18.546   8.639  11.296
 7121W        W79436  37.436  36.513   4.954
 7122W        W79437  41.792   4.304   2.262
 7123W        W79438  41.449  31.718  12.388
 7124W        W79439  36.387   7.548  11.346
 7125W        W79440  41.675   1.537   1.294
 7126W        W79441  29.690  29.647  10.817
 7127W        W79442  10.430  27.732  12.391
 7128W        W79443  23.388   8.761   0.753
 7129W        W79444  15.731  24.324  14.496
 7130W        W79445  32.125  22.031   1.731
 7131W        W79446  12.074  34.331  11.056
 7132W        W79447  40.162   9.255  13.069
 7133W        W79448  31.999  36.602   4.691
 7134W        W79449  16.361  15.700  14.460
 7135W        W79450  20.778  25.134  13.436
 7136W        W79451  24.007  30.891   2.399
 7137W        W79452  27.183  27.449   3.695
 7138W        W79453  14.608  43.520   0.794
 7139W        W79454  32.099  40.846   4.541
 7140W        W79455  18.100  32.365  12.840
 7141W        W79456  17.555  23.075   2.221
 7142W        W79457  39.910   8.621   0.683
 7143W        W79458  21.559   8.676  12.494
 7144W        W79459  37.315  29.728  13.002
 7145W        W79460  38.470   0.273  10.621
 7146W        W79461  17.722   8.386   9.852
 7147W        W79462  41.400  23.257   4.251
 7148W        W79463   0.334   7.453   3.303
 7149W        W79464   8.868  29.492  10.416
 7150W        W79465  31.018  29.174  10.563
 7151W        W79466  27.727  36.350   3.605
 7152W        W79467  33.550  29.725  10.921
 7153W        W79468  19.449  37.448  14.306
 7154W        W79469  19.991  41.395  13.444
 7155W        W79470  27.517  38.344  13.458
 7156W        W79471   1.909  18.862  13.371
 7157W        W79472  20.002  24.710   2.769
 7158W        W79473  36.152  18.161   3.158
 7159W        W79474  32.068  25.607  14.025
 7160W        W79475  26.708  31.661   0.778
 7161W        W79476  13.801  38.228   4.105
 7162W        W79477  28.508  19.391  14.845
 7163W        W79478  10.000  20.145   1.238
 7164W        W79479  18.545  43.363   4.821
 7165W        W79480  14.300  40.372  10.532
 7166W        W79481  20.163  38.055  10.735
 7167W        W79482  23.765  14.159   2.828
 7168W        W79483   3.796  18.555  14.884
 7169W        W79484  39.859  40.856  14.732
 7170W        W79485   9.709  13.315  11.632
 7171W        W79486  43.620  25.152   3.562
 7172W        W79487  38.136  10.804   3.522
 7173W        W79488  34.346   6.923   3.091
 7174W        W79489  41.390  23.337  11.667
 7175W        W79490   4.011  24.427  14.342
 7176W        W79491  30.122  34.586   4.652
 7177W        W79492  24.896   5.897   0.252
 7178W        W79493  37.912  28.467   4.598
 7179W        W79494  40.868  32.193   3.100
 7180W        W79495  20.123  27.898  14.292
 7181W        W79496  41.155  30.177  13.926
 7182W        W79497  23.419   0.406  11.376
 7183W        W79498  17.510  23.011   0.023
 7184W        W79499  18.289  42.872   1.688
 7185W        W79500  22.228   9.580  13.894
 7186W        W79501   0.934  25.698  11.961
 7187W        W79502  19.660  16.360  11.544
 7188W        W79503  26.514  35.490  11.078
 7189W        W79504  20.130  10.395   4.766
 7190W        W79505  12.294  18.035  12.215
 7191W        W79506   1.894  43.011   4.077
 7192W        W79507  44.071   4.267  13.003
 7193W        W79508  12.150  39.265   0.681
 7194W        W79509   6.712  16.345   0.407
 7195W        W79510  44.803  29.265  10.281
 7196W        W79511  44.879   0.741   2.332
 7197W        W79512   4.854  28.069   2.408
 7198W        W79513  10.699  40.389   3.783
 7199W        W79514  24.007   1.509  14.922
 7200W        W79515   8.845   4.385  13.629
 7201W        W79516   8.701  34.557   2.244
 7202W        W79517  42.932  37.155   3.217
 7203W        W79518  35.644   8.975   0.733
 7204W        W79519  38.499  20.804   3.690
 7205W        W79520  15.396  22.909  14.479
 7206W        W79521  14.272  31.258   1.179
 7207W        W79522   1.392  44.642   3.957
 7208W        W79523  42.718  43.286  11.907
 7209W        W79524  37.636   0.270   0.766
 7210W        W79525  32.329   3.854  12.523
 7211W        W79526   3.770   7.658  11.469
 7212W        W79527  14.780  33.126   3.112
 7213W        W79528  11.308  24.269  13.819
 7214W        W79529  31.885  19.183   2.623
 7215W        W79530  16.036   1.882  11.999
 7216W        W79531  39.135  14.267  13.442
 7217W        W79532  32.148  23.792  14.391
 7218W        W79533  28.972   3.384  12.548
 7219W        W79534   3.990  19.039   1.257
 7220W        W79535  27.118  13.239   3.883
 7221W        W79536  18.096  42.012  13.030
 7222W        W79537   8.696  19.344  13.891
 7223W        W79538  42.041  18.547  12.929
 7224W        W79539   6.904  16.783  11.531
 7225W        W79540  21.184  33.716  14.376
 7226W        W79541  36.609  41.906   1.005
 7227W        W79542  32.268  39.368  10.741
 7228W        W79543  21.348  31.547   2.880
 7229W        W79544  42.822  40.595  14.417
 7230W        W79545  11.077  10.401  10.705
 7231W        W79546   2.863  29.506   0.390
 7232W        W79547  38.805   3.992   3.372
 7233W        W79548  38.637  12.650   0.461
 7234W        W79549   3.988  27.191  14.023
 7235W        W79550  42.865  17.484  13.532
 7236W        W79551   9.705  37.452  11.245
 7237W        W79552   6.731  31.598  11.196
 7238W        W79553  24.741  40.247   1.248
 7239W        W79554  15.702  25.065  12.865
 7240W        W79555  17.179  10.160  14.951
 7241W        W79556  36.197  27.413  13.909
 7242W        W79557  37.408  44.886  10.549
 7243W        W79558  29.638  12.610   0.575
 7244W        W79559  34.578   8.769   0.609
 7245W        W79560  42.315  14.820  12.485
 7246W        W79561  26.681  38.790  12.586
 7247W        W79562  18.255  17.665   2.057
 7248W        W79563  28.699  34.840  13.347
 7249W        W79564  35.418   1.200   1.046
 7250W        W79565  15.258  36.519  10.771
 7251W        W79566  28.661  40.119   4.200
 7252W        W79567  26.476  39.262   2.244
 7253W        W79568  28.059   4.411  10.100
 7254W        W79569  32.194  42.511  11.058
 7255W        W79570  43.907   3.313  13.437
 7256W        W79571  14.324  13.103   5.120
 7257W        W79572  33.431  25.241   1.712
 7258W        W79573   9.177  35.021   2.643
 7259W        W79574  36.128   6.872   0.261
 7260W        W79575  38.987  42.778   5.054
 7261W        W79576  25.474  19.854   2.961
 7262W        W79577  16.794  22.333   4.629
 7263W        W79578   7.521  44.892  12.335
 7264W        W79579  32.516   0.941   0.069
 7265W        W79580  39.378  22.043   4.578
 7266W        W79581  42.565  41.860  13.450
 7267W        W79582  16.547  44.487   2.725
 7268W        W79583  23.063   8.379   4.255
 7269W        W79584  26.618   6.931   1.228
 7270W        W79585  43.223  35.531  11.487
 7271W        W79586   1.305  10.727  11.083
 7272W        W79587  24.265  21.738   5.119
 7273W        W79588  21.475   5.046   1.720
 7274W        W79589  21.933  34.471   0.366
 7275W        W79590  39.120   3.693  13.138
 7276W        W79591  26.512  35.693   3.317
 7277W        W79592  29.177  31.188  12.415
 7278W        W79593  28.446  35.426   3.350
 7279W        W79594  34.173  27.580  11.106
 7280W        W79595   6.349  33.951   2.727
 7281W        W79596  17.119  30.617  13.258
 7282W        W79597  36.261   3.944  12.916
 7283W        W79598  11.851  23.947   4.592
 7284W        W79599  10.632  43.362   5.080
 7285W        W79600  44.703  15.786   0.530
 7286W        W79601  11.714   2.399   3.898
 7287W        W79602  35.097   9.602   3.210
 7288W        W79603   6.349   5.730  11.299
 7289W        W79604   1.516   6.788  12.905
 7290W        W79605  24.169  25.249  13.000
 7291W        W79606  13.161  42.974   0.567
 7292W        W79607  14.265  14.859  11.882
 7293W        W79608  40.411  41.503   3.124
 7294W        W79609  25.053  40.785   0.479
 7295W        W79610  29.476  43.699   3.680
 7296W        W79611  19.683   3.967   2.331
 7297W        W79612  41.796  23.592  14.856
 7298W        W79613  17.159  12.761   2.316
 7299W        W79614   8.824  35.816   0.334
 7300W        W79615  22.703  11.944   5.043
 7301W        W79616  27.055  23.939   2.990
 7302W        W79617  40.477  32.078  14.956
 7303W        W79618  21.568  20.709  12.347
 7304W        W79619  15.374  40.735   4.539
 7305W        W79620  38.993   6.144   0.862
 7306W        W79621  44.282   0.231  12.128
 7307W        W79622  20.718  39.692  12.393
 7308W        W79623   0.273  16.510   3.637
 7309W        W79624   6.419   9.173  11.140
 7310W        W79625   9.808  11.526   1.387
 7311W        W79626  39.677  43.422   4.053
 7312W        W79627  17.506  41.260   1.051
 7313W        W79628  27.097  25.215   4.888
 7314W        W79629  41.084   8.702   0.038
 7315W        W79630  15.803  26.072  12.534
 7316W        W79631   3.700  27.891  13.372
 7317W        W79632   0.228   1.524   3.182
 7318W        W79633  41.715  25.593   0.582
 7319W        W79634  23.038  11.621   0.322
 7320W        W79635  33.108  36.950  12.831
 7321W        W79636   3.431  30.549   3.630
 7322W        W79637  20.752  36.458   0.429
 7323W        W79638  44.227   7.381   4.585
 7324W        W79639  24.488  40.086   2.843
 7325W        W79640  20.625  34.309   4.565
 7326W        W79641  17.441  23.192  11.635
 7327W        W79642   5.993   1.790   2.290
 7328W        W79643  21.530   0.519   2.308
 7329W        W79644   0.352  22.779   2.120
 7330W        W79645  16.288  14.621  11.129
 7331W        W79646  42.803   8.453   2.599
 7332W        W79647  36.122  34.641   0.828
 7333W        W79648  33.825  33.240  10.576
 7334W        W79649   0.237  27.843   2.191
 7335W        W79650   7.266  13.956  11.546
 7336W        W79651  43.483  31.911   2.107
 7337W        W79652   1.721  12.875   3.103
 7338W        W79653  25.241   1.287  13.340
 7339W        W79654   6.352  15.284  12.747
 7340W        W79655  23.749  22.510  12.746
 7341W        W79656  39.596  44.347  11.002
 7342W        W79657  41.589  21.068  11.157
 7343W        W79658  24.679  29.657   2.684
 7344W        W79659  27.146  17.886   0.814
 7345W        W79660  10.368   0.829   4.602
 7346W        W79661  23.226  34.205   4.089
 7347W        W79662  16.064  18.413  11.110
 7348W        W79663  12.873  31.452  11.469
 7349W        W79664  24.449  28.213  14.363
 7350W        W79665  19.573  38.049  14.453
 7351W        W79666  30.902  18.114  11.133
 7352W        W79667  20.979  25.992  14.993
 7353W        W79668  30.652  28.141   1.851
 7354W        W79669  12.156  31.351  14.812
 7355W        W79670   8.146  16.540  11.424
 7356W        W79671   2.789   9.436   3.835
 7357W        W79672  36.127   5.105  14.240
 7358W        W79673  31.035  17.154   0.379
 7359W        W79674  31.018  23.192  12.786
 7360W        W79675   2.402  20.601   2.685
 7361W        W79676   8.491  23.184  14.618
 7362W        W79677  23.486  31.549   1.671
 7363W        W79678  28.990  34.260  12.331
 7364W        W79679   6.106   1.409  13.008
 7365W        W79680  23.716  28.920   1.655
 7366W        W79681  32.373  31.725   0.452
 7367W        W79682  39.953  30.482   4.206
 7368W        W79683   5.332  23.594   0.926
 7369W        W79684  42.249  26.550   1.630
 7370W        W79685   8.105  28.103   2.955
 7371W        W79686  41.198  29.746   2.746
 7372W        W79687  28.128  16.310   2.759
 7373W        W79688   3.615  21.586   0.430
 7374W        W79689  10.828  21.840  14.684
 7375W        W79690   9.337  37.841  11.992
 7376W        W79691  28.607  38.074   4.177
 7377W        W79692   1.531   9.393  13.152
 7378W        W79693  26.009  12.584  11.207
 7379W        W79694  21.748  10.139   1.327
 7380W        W79695  34.620  43.371   1.755
 7381W        W79696  44.286   9.939   5.462
 7382W        W79697  22.498  23.020   1.900
 7383W        W79698  32.900  21.937   1.249
 7384W        W79699  30.564   2.234  10.669
 7385W        W79700  10.130  43.964  14.799
 7386W        W79701  40.790  38.031   1.526
 7387W        W79702  28.656  14.054  12.422
 7388W        W79703   5.947   2.574  10.750
 7389W        W79704  19.059  41.304  14.050
 7390W        W79705  20.814  25.244   4.023
 7391W        W79706  32.288  26.369  12.893
 7392W        W79707   7.403  16.127  11.442
 7393W        W79708  10.458  38.499   2.241
 7394W        W79709  30.602   4.751  13.916
 7395W        W79710  20.975   1.937  12.481
 7396W        W79711   5.871  23.919  11.869
 7397W        W79712  16.784  16.730  14.041
 7398W        W79713   8.732  18.346   4.550
 7399W        W79714  16.272  42.177  12.913
 7400W        W79715   4.314  40.254   2.497
 7401W        W79716  37.562   9.379   0.942
 7402W        W79717  38.918   5.746   1.836
 7403W        W79718   2.317   2.262  10.454
 7404W        W79719  17.657  38.948   1.116
 7405W        W79720  20.834  20.796   0.804
 7406W        W79721   0.915  29.481  11.119
 7407W        W79722  14.752  12.755   4.585
 7408W        W79723  42.551  43.264   2.184
 7409W        W79724  14.084  19.616  10.922
 7410W        W79725  13.834  31.567  11.166
 7411W        W79726  27.157  42.865   4.567
 7412W        W79727   1.059   2.220   1.675
 7413W        W79728  39.938  36.920  10.890
 7414W        W79729  24.908  32.829   0.211
 7415W        W79730   4.692   7.223   1.680
 7416W        W79731  32.152   2.499  12.403
 7417W        W79732  43.650  13.746  14.988
 7418W        W79733  17.341  44.970   3.889
 7419W        W79734  22.233  40.878   3.287
 7420W        W79735  30.418  18.638   3.285
 7421W        W79736  28.228  19.661  14.387
 7422W        W79737  36.393  19.977   0.418
 7423W        W79738  15.556  24.759   0.583
 7424W        W79739  26.689  42.989  10.647
 7425W        W79740  25.121   2.655   1.605
 7426W        W79741  15.640  40.919   1.895
 7427W        W79742  14.716  13.048  10.933
 7428W        W79743  40.376   8.172  14.901
 7429W        W79744  26.672  23.663   3.245
 7430W        W79745   1.305  11.263   0.929
 7431W        W79746  10.774  40.902  11.917
 7432W        W79747  14.791  43.377  12.364
 7433W        W79748  44.953   2.443   2.836
 7434W        W79749   5.840  39.596   1.268
 7435W        W79750   9.184  12.123   0.303
 7436W        W79751  10.844  34.703  11.898
 7437W        W79752  14.690  24.211   0.305
 7438W        W79753   1.306  42.099  12.136
 7439W        W79754  19.698  38.956   2.140
 7440W        W79755  13.868  34.939  10.966
 7441W        W79756  18.354  25.555   1.431
 7442W        W79757   9.311   6.912  11.266
 7443W        W79758  22.200  44.917  10.896
 7444W        W79759  27.706  32.106   2.810
 7445W        W79760  13.211  38.428   0.548
 7446W        W79761  37.339  19.474  13.475
 7447W        W79762  41.097  24.929   1.301
 7448W        W79763  14.740  44.223   4.918
 7449W        W79764   8.832  36.632  13.584
 7450W        W79765  28.616  21.723   1.310
 7451W        W79766   6.804   4.971  10.764
 7452W        W79767  18.739   8.203  13.740
 7453W        W79768  17.148   1.412  13.527
 7454W        W79769  20.585  15.033  12.228
 7455W        W79770  18.495  34.578   4.567
 7456W        W79771  16.813  37.494   3.242
 7457W        W79772  42.073  27.966  11.031
 7458W        W79773  37.049  42.419   3.611
 7459W        W79774  38.076   4.039  12.705
 7460W        W79775  32.463  37.131   4.082
 7461W        W79776  20.682   3.359  11.953
 7462W        W79777  21.908  23.453  11.623
 7463W        W79778   9.023  20.160   4.858
 7464W        W79779  21.004  32.484   4.288
 7465W        W79780  21.110  22.191   0.243
 7466W        W79781  17.053  44.325  14.270
 7467W        W79782  20.645  25.500  10.610
 7468W        W79783  18.592  38.520   5.395
 7469W        W79784  41.493  27.623   2.313
 7470W        W79785  30.948  38.274   3.815
 7471W        W79786  14.617  42.445   3.046
 7472W        W79787   1.349   4.685  14.672
 7473W        W79788  20.989   0.374   3.175
 7474W        W79789  15.086  43.815   4.505
 7475W        W79790  28.217   8.425  13.364
 7476W        W79791  11.856   0.064   4.168
 7477W        W79792   1.121  35.311   4.990
 7478W        W79793   8.147  26.570  14.105
 7479W        W79794  39.533   3.968   0.848
 7480W        W79795   6.887  38.547  10.700
 7481W        W79796  33.324  42.410  13.364
 7482W        W79797  35.519  11.422  13.955
 7483W        W79798  43.464   2.445   3.365
 7484W        W79799  38.047  18.129   0.249
 7485W        W79800  14.853  32.070   5.057
 7486W        W79801  23.982  35.461  12.906
 7487W        W79802  24.187  22.643   5.141
 7488W        W79803  19.978  36.846  14.200
 7489W        W79804  40.105  21.139   0.468
 7490W        W79805  37.075  22.132   1.388
 7491W        W79806   9.399  19.865   1.969
 7492W        W79807   8.089  31.576  10.687
 7493W        W79808  24.376  22.072   3.827
 7494W        W79809  20.781  38.394   3.298
 7495W        W79810  19.787  20.728  14.876
 7496W        W79811  19.164  37.400   1.724
 7497W        W79812   9.864  10.910   0.016
 7498W        W79813  18.708  26.464   4.949
 7499W        W79814  44.758  32.925  11.990
 7500W        W79815  41.235  19.906   1.222
 7501W        W79816  20.743  33.394  11.981
 7502W        W79817  15.780  28.819   0.535
 7503W        W79818  22.099  22.650   2.429
 7504W        W79819  38.311   1.427  12.012
 7505W        W79820  26.076   4.241   0.172
 7506W        W79821  11.437  27.922  14.723
 7507W        W79822  16.481  41.308   5.065
 7508W        W79823   4.267  17.184   3.160
 7509W        W79824  41.595   2.883   4.611
 7510W        W79825   1.933  43.791   3.835
 7511W        W79826  26.405  12.143  11.939
 7512W        W79827  28.438   2.434   4.639
 7513W        W79828  20.013   9.428   3.703
 7514W        W79829   9.198  43.754   3.316
 7515W        W79830  25.611  36.817  12.595
 7516W        W79831  32.043  24.587   3.682
 7517W        W79832  38.637   7.201   3.437
 7518W        W79833  39.057  34.296  12.890
 7519W        W79834   1.352   0.999   4.578
 7520W        W79835  21.679  25.791  12.056
 7521W        W79836   3.050  16.530  11.716
 7522W        W79837  10.359  13.908   0.405
 7523W        W79838  15.590  23.408   0.915
 7524W        W79839  11.351  34.944   3.615
 7525W        W79840  41.442  15.700   0.031
 7526W        W79841  44.573   1.767   1.624
 7527W        W79842   8.861  12.406  12.441
 7528W        W79843  41.961  38.336  10.769
 7529W        W79844  20.130  32.589  11.945
 7530W        W79845  44.766  20.810  10.849
 7531W        W79846  16.801  19.294   4.197
 7532W        W79847  43.303  12.208  13.304
 7533W        W79848  20.576  36.480  13.522
 7534W        W79849  12.801   5.721  11.397
 7535W        W79850   5.964  20.613   2.761
 7536W        W79851  32.398   0.332   1.770
 7537W        W79852  42.841  18.918   2.955
 7538W        W79853   5.884   7.284  14.869
 7539W        W79854   1.156  28.979  14.497
 7540W        W79855  42.433  13.058  14.863
 7541W        W79856  34.572  28.911   1.461
 7542W        W79857   3.466  20.056  11.592
 7543W        W79858  36.433   5.890   4.219
 7544W        W79859  17.242  11.692   1.713
 7545W        W79860   2.673   4.594  14.485
 7546W        W79861  33.493  18.095   1.490
 7547W        W79862  27.383  35.138  12.096
 7548W        W79863  28.113  31.393  12.857
 7549W        W79864  23.908  29.866   2.252
 7550W        W79865   2.694  12.263  12.582
 7551W        W79866  12.241  31.981  13.396
 7552W        W79867  43.046  22.969  13.881
 7553W        W79868  21.637  37.820   3.354
 7554W        W79869  19.482  16.811  10.673
 7555W        W79870  25.585  26.191   2.737
 7556W        W79871   3.162  42.589   2.225
 7557W        W79872   9.343  15.260  11.939
 7558W        W79873  27.315  44.449  12.160
 7559W        W79874  25.525   1.939   2.596
 7560W        W79875   3.754   2.152  11.962
 7561W        W79876  23.981  33.469  12.397
 7562W        W79877  34.918  42.005  10.983
 7563W        W79878  12.644  40.005   4.815
 7564W        W79879  25.330  39.346  11.410
 7565W        W79880  11.132  40.280  11.973
 7566W        W79881  43.842  21.169   4.706
 7567W        W79882   5.283  26.182   2.192
 7568W        W79883  29.467  39.004  14.837
 7569W        W79884  16.229  21.619   3.611
 7570W        W79885  16.854   5.265   3.721
 7571W        W79886  30.248  10.071  14.390
 7572W        W79887   8.122  32.469   2.102
 7573W        W79888  44.351  38.751  13.104
 7574W        W79889  36.859  24.680   3.096
 7575W        W79890   8.808  32.573   3.631
 7576W        W79891  42.859  40.356  14.897
 7577W        W79892   3.620   7.260   1.908
 7578W        W79893   8.670  16.200  10.330
 7579W        W79894  27.065  20.627   4.011
 7580W        W79895  13.068  36.616   0.858
 7581W        W79896  22.987  28.567   3.639
 7582W        W79897  39.247   2.887  14.076
 7583W        W79898  25.904   2.239  10.421
 7584W        W79899  16.022  13.118  11.224
 7585W        W79900  12.231  23.232   1.303
 7586W        W79901   3.378  37.282   1.220
 7587W        W79902  24.985  26.895   4.550
 7588W        W79903  12.596  39.496   2.499
 7589W        W79904   2.383  14.386  13.925
 7590W        W79905   2.531  26.840   5.111
 7591W        W79906  22.123  42.045   4.184
 7592W        W79907  32.980  38.266   1.698
 7593W        W79908  14.114  42.570   3.270
 7594W        W79909  34.843  37.646  11.471
 7595W        W79910  16.602  39.253   2.683
 7596W        W79911   0.865  27.782  12.438
 7597W        W79912   8.881  11.238   2.793
 7598W        W79913  27.241  26.688   3.274
 7599W        W79914  33.481  23.727  11.554
 7600W        W79915  41.779  42.880  13.357
 7601W        W79916  35.021  33.129  12.309
 7602W        W79917  35.322   3.263  13.260
 7603W        W79918  33.726   7.165  11.524
 7604W        W79919  15.085  29.655  12.988
 7605W        W79920  44.983  43.335  14.482
 7606W        W79921  15.584  18.370  11.941
 7607W        W79922  27.403  34.549   0.747
 7608W        W79923  12.073  23.601   3.590
 7609W        W79924  20.356  13.756  11.505
 7610W        W79925  28.209  37.565  12.020
 7611W        W79926  18.746  30.918   4.990
 7612W        W79927  31.130  39.877  13.426
 7613W        W79928  19.627   9.383  12.429
 7614W        W79929  12.788   5.790   1.264
 7615W        W79930  42.403   7.831  14.193
 7616W        W79931  13.091   6.152  13.974
 7617W        W79932  14.784  27.118  13.970
 7618W        W79933  22.039  36.517   1.817
 7619W        W79934  19.371   2.143   2.222
 7620W        W79935  38.020  26.176   1.482
 7621W        W79936  18.551  43.300   4.278
 7622W        W79937  22.989  32.613   2.267
 7623W        W79938  43.917  15.831   4.080
 7624W        W79939  23.206  33.004   4.698
 7625W        W79940  30.357   1.041  11.167
 7626W        W79941  10.750  25.328   4.543
 7627W        W79942  38.896  32.735   3.652
 7628W        W79943   6.663  26.033  11.451
 7629W        W79944  26.582  44.988   4.735
 7630W        W79945  40.150   7.250   2.363
 7631W        W79946  24.256  15.717   3.638
 7632W        W79947  36.122   2.304   2.552
 7633W        W79948  10.806  41.687  10.467
 7634W        W79949  16.212  39.967  12.484
 7635W        W79950  17.052   8.659   4.219
 7636W        W79951   0.048  26.909   2.250
 7637W        W79952  28.013   3.867   0.449
 7638W        W79953  37.529  27.135  11.954
 7639W        W79954  41.949  41.577   4.606
 7640W        W79955  12.101   5.562  13.332
 7641W        W79956  10.403  18.681  10.267
 7642W        W79957  12.466  32.248  11.933
 7643W        W79958  21.307  24.208  13.179
 7644W        W79959  41.796  35.473   4.034
 7645W        W79960  30.305  34.960  10.619
 7646W        W79961   7.432  36.573   1.336
 7647W        W79962   5.280  25.079   1.009
 7648W        W79963  30.121  15.230  14.374
 7649W        W79964  21.405  21.647   3.258
 7650W        W79965  32.836   2.847   1.791
 7651W        W79966   9.419  18.224  14.795
 7652W        W79967   9.603  35.444   4.111
 7653W        W79968  31.579  11.814   3.164
 7654W        W79969  32.179  31.943  12.966
 7655W        W79970   5.183  14.324  14.335
 7656W        W79971  28.747  12.291  14.196
 7657W        W79972  32.663  27.984   0.883
 7658W        W79973  23.031  20.746   0.737
 7659W        W79974   9.691  10.846   4.056
 7660W        W79975  32.879  21.853   3.893
 7661W        W79976   8.408   6.885   4.084
 7662W        W79977  31.671  28.505   3.236
 7663W        W79978  22.574  32.645  12.854
 7664W        W79979  22.476  36.050   3.153
 7665W        W79980  40.986  16.337   0.536
 7666W        W79981  18.310   8.827   3.630
 7667W        W79982  42.973  26.544  14.456
 7668W        W79983  14.874   8.349  12.909
 7669W        W79984  12.869  43.785   3.747
 7670W        W79985   5.188  16.571   2.395
 7671W        W79986  43.699   0.933   0.700
 7672W        W79987  36.772   7.712   3.546
 7673W        W79988  17.628   5.820   0.971
 7674W        W79989  12.180   0.126  11.100
 7675W        W79990  24.509  29.300  13.918
 7676W        W79991  39.800  34.556  11.377
 7677W        W79992  42.466  37.991   4.828
 7678W        W79993  36.608  38.481  12.043
 7679W        W79994  25.686   0.684   3.333
 7680W        W79995  42.862  23.640  12.029
 7681W        W79996  16.248  42.899   3.881
 7682W        W79997  32.506  17.313  11.172
 7683W        W79998  33.067   4.884  14.187
 7684W        W79999   0.901  39.544  13.061
 7685W        W80000   7.186  31.414  10.661
 7686W        W80001  24.253  17.151  13.836
 7687W        W80002  40.046   4.685   4.405
 7688W        W80003  31.606   4.526  11.138
 7689W        W80004  25.007  17.579   3.241
 7690W        W80005  29.911   6.223  12.913
 7691W        W80006  30.481  23.910  10.420
 7692W        W80007   2.520  28.473  12.998
 7693W        W80008   0.522  42.462  13.229
 7694W        W80009   2.315   5.750   2.239
 7695W        W80010  19.579  21.479  11.653
 7696W        W80011  29.490  44.678   0.005
 7697W        W80012  42.453   1.871  12.455
 7698W        W80013  22.815  16.304   0.601
 7699W        W80014  33.191  18.321  12.937
 7700W        W80015  32.699  38.326  14.923
 7701W        W80016  18.585  42.986   0.170
 7702W        W80017   4.286   1.785  12.891
 7703W        W80018  34.637  31.690   3.260
 7704W        W80019  16.489  36.368   0.377
 7705W        W80020  17.078   0.345   2.786
 7706W        W80021  11.030  41.571  11.532
 7707W        W80022   6.613  44.098  14.739
 7708W        W80023   2.358  32.437   0.696
 7709W        W80024  26.442  23.634   4.103
 7710W        W80025  13.316   4.648   0.019
 7711W        W80026  24.140   4.439   0.416
 7712W        W80027  43.970  35.042   4.556
 7713W        W80028  25.367  27.249  13.849
 7714W        W80029   7.876  16.077   4.689
 7715W        W80030  35.506  20.100   3.629
 7716W        W80031  34.079   3.456  11.133
 7717W        W80032   2.323  43.254   2.802
 7718W        W80033  44.190  24.836  11.911
 7719W        W80034  24.913  30.363   4.207
 7720W        W80035  32.125  21.119   3.597
 7721W        W80036  17.536  37.355  14.305
 7722W        W80037  43.405  32.394   2.251
 7723W        W80038  18.305  39.339  11.581
 7724W        W80039  12.081  11.834   3.811
 7725W        W80040  36.821   8.989  12.163
 7726W        W80041  21.710  33.040  12.975
 7727W        W80042  17.881   8.162  11.146
 7728W        W80043  26.037   8.416  10.803
 7729W        W80044  23.796   1.886  12.457
 7730W        W80045  26.487   1.974   4.342
 7731W        W80046  32.560  43.587   2.664
 7732W        W80047  29.900  26.270   2.894
 7733W        W80048  20.722  36.787  10.644
 7734W        W80049  44.099   3.691   0.458
 7735W        W80050  12.650   4.280  14.487
 7736W        W80051  29.529   3.566   1.291
 7737W        W80052  38.794   9.775   1.743
 7738W        W80053  41.824  25.734  11.161
 7739W        W80054  20.778  30.184   3.117
 7740W        W80055  43.449  21.290  13.318
 7741W        W80056   6.645  40.043  13.515
 7742W        W80057   1.359  17.008  11.125
 7743W        W80058  40.339  21.480   4.877
 7744W        W80059  33.498  25.246   0.797
 7745W        W80060   4.426  25.031   0.904
 7746W        W80061   1.725  36.359  11.857
 7747W        W80062  30.149  21.073   4.698
 7748W        W80063   3.947  41.974   3.595
 7749W        W80064  15.763  24.847   4.206
 7750W        W80065  13.364  14.061   2.712
 7751W        W80066  15.974  23.830   3.729
 7752W        W80067  33.574  26.994  10.607
 7753W        W80068  19.641  37.855   2.772
 7754W        W80069  27.338  37.398   1.018
 7755W        W80070  24.222  43.433   2.222
 7756W        W80071  37.978  15.037  12.168
 7757W        W80072  31.506  24.550  12.004
 7758W        W80073  19.184  13.589  12.791
 7759W        W80074  22.176  42.725   0.334
 7760W        W80075  11.845   5.276   3.254
 7761W        W80076  26.224  10.451  12.094
 7762W        W80077  17.755  26.873   0.435
 7763W        W80078  15.186  41.249   3.803
 7764W        W80079  35.915  21.745  13.399
 7765W        W80080  16.749  37.501   0.192
 7766W        W80081   2.789  44.483  14.877
 7767W        W80082  19.977  12.820  10.730
 7768W        W80083  11.647   6.852   1.265
 7769W        W80084  34.643  12.226  13.968
 7770W        W80085  44.655  12.404  14.517
 7771W        W80086  12.451  21.193   4.865
 7772W        W80087  25.990  44.025  11.706
 7773W        W80088  42.956   7.390  12.621
 7774W        W80089  21.672  26.664  13.028
 7775W        W80090  12.580  31.553  12.460
 7776W        W80091  16.313  13.914   3.743
 7777W        W80092   4.382  36.106   2.130
 7778W        W80093  26.988  25.633   3.643
 7779W        W80094   8.954  12.868  12.664
 7780W        W80095  37.456   3.033  11.806
 7781W        W80096  23.128  35.449  14.580
 7782W        W80097  34.854  30.374   0.938
 7783W        W80098  44.808  25.207   5.137
 7784W        W80099   4.267  39.764   3.254
 7785W        W80100  12.919  16.133  13.049
 7786W        W80101  31.052  22.488   1.698
 7787W        W80102  39.061  36.869   4.105
 7788W        W80103  33.458  39.352  11.040
 7789W        W80104   3.402  32.882  13.272
 7790W        W80105  29.391  40.516  10.702
 7791W        W80106   8.904   6.923   1.233
 7792W        W80107  30.996  25.490  12.122
 7793W        W80108  36.045  29.683  13.329
 7794W        W80109  13.208  39.791   2.819
 7795W        W80110  43.356  37.836   2.596
 7796W        W80111  24.157   6.233   1.585
 7797W        W80112   9.178  38.903   3.169
 7798W        W80113  38.530  20.349  14.926
 7799W        W80114   7.660  17.598   1.368
 7800W        W80115  11.369  41.842  13.082
 7801W        W80116  22.447  14.745   4.229
 7802W        W80117  27.029  36.417   2.122
 7803W        W80118  11.414   8.851   0.366
 7804W        W80119  44.598   2.491  10.183
 7805W        W80120   6.648  34.437  14.021
 7806W        W80121   7.234  32.631   1.120
 7807W        W80122  17.690  34.755   2.656
 7808W        W80123  37.096  25.142   5.414
 7809W        W80124  42.383  20.488   1.746
 7810W        W80125  44.403  21.999   0.383
 7811W        W80126  12.190  41.290  10.839
 7812W        W80127  20.941   4.475  13.481
 7813W        W80128  20.756   6.272  11.359
 7814W        W80129  25.645   1.595   0.438
 7815W        W80130   0.457   5.973   3.298
 7816W        W80131  16.853  20.957   0.741
 7817W        W80132  25.153   1.404  12.459
 7818W        W80133   6.687  36.509  10.966
 7819W        W80134   8.127  32.998  14.653
 7820W        W80135  44.252  19.591  10.012
 7821W        W80136   7.230   5.240  10.618
 7822W        W80137  37.854  30.228   4.245
 7823W        W80138  15.630  40.376   2.807
 7824W        W80139  18.085  16.735   4.679
 7825W        W80140   2.769  34.085   3.162
 7826W        W80141   5.933   4.715  14.743
 7827W        W80142  23.975  14.803   3.319
 7828W        W80143  29.389  22.668  13.387
 7829W        W80144  21.238   1.410  11.914
 7830W        W80145   6.228  41.919  14.956
 7831W        W80146  28.051  31.486   3.172
 7832W        W80147  44.359  19.053  10.923
 7833W        W80148  13.726  24.138  12.578
 7834W        W80149  31.867  26.674  12.825
 7835W        W80150  26.471  28.246   4.993
 7836W        W80151  42.088   9.453  13.517
 7837W        W80152  13.242  12.374  10.618
 7838W        W80153  42.496   4.680  13.807
 7839W        W80154   6.317  20.691  12.449
 7840W        W80155  36.515  38.335   1.781
 7841W        W80156  21.265  23.646   1.342
 7842W        W80157  43.970  39.027   1.911
 7843W        W80158  43.405  37.905  12.614
 7844W        W80159  22.456  38.895   0.920
 7845W        W80160  36.759  20.264   0.956
 7846W        W80161  23.798  18.743   4.241
 7847W        W80162  18.152  31.214   5.511
 7848W        W80163  14.167  17.825   4.067
 7849W        W80164  29.179   3.445   4.633
 7850W        W80165  39.647   5.770   2.160
 7851W        W80166   1.015  35.958   2.240
 7852W        W80167  13.133   8.857   1.002
 7853W        W80168  23.501  17.070  11.519
 7854W        W80169   1.521   5.189  14.951
 7855W        W80170  40.552  24.302   5.116
 7856W        W80171  19.765   2.387  13.376
 7857W        W80172  40.290  44.293  10.159
 7858W        W80173  24.062   8.915   3.990
 7859W        W80174  35.001   2.030   1.619
 7860W        W80175  35.033  39.924  12.596
 7861W        W80176  27.211   5.324   0.976
 7862W        W80177  44.844  26.007  12.109
 7863W        W80178  14.827  31.977   1.898
 7864W        W80179  33.484  14.235  12.831
 7865W        W80180   6.475  43.787  12.630
 7866W        W80181  38.831   4.868  13.955
 7867W        W80182  28.385  39.999  10.749
 7868W        W80183   9.136   4.344  11.370
 7869W        W80184  12.618   0.782   0.284
 7870W        W80185  24.677   4.791   3.794
 7871W        W80186  22.929  39.468   4.544
 7872W        W80187  24.492  23.782  12.473
 7873W        W80188  32.768   8.544  14.761
 7874W        W80189  44.873   9.446  11.946
 7875W        W80190  22.772  43.837   3.162
 7876W        W80191  34.053  17.870   0.501
 7877W        W80192  41.170  32.593   0.343
 7878W        W80193  14.285  43.220  12.394
 7879W        W80194  38.935  25.211   0.909
 7880W        W80195  14.017   1.255  14.358
 7881W        W80196  31.085  25.234   4.973
 7882W        W80197   0.463  41.822  12.379
 7883W        W80198   0.266  12.237  11.141
 7884W        W80199  17.750  20.782  13.986
 7885W        W80200  30.364  27.633  14.760
 7886W        W80201  42.301  18.453   3.725
 7887W        W80202  39.496  21.557  14.545
 7888W        W80203  24.791  30.939  12.854
 7889W        W80204  36.492  17.204   0.120
 7890W        W80205  37.592  30.672   3.938
 7891W        W80206  13.109   4.745   4.102
 7892W        W80207   4.271   1.410   3.280
 7893W        W80208  36.374  36.104   2.530
 7894W        W80209  41.510   7.696  12.002
 7895W        W80210   2.947  43.776   4.650
 7896W        W80211   4.721  15.666   3.374
 7897W        W80212  29.496  32.652  13.450
 7898W        W80213   1.364  43.268   2.366
 7899W        W80214  44.497  12.716   1.291
 7900W        W80215   7.178  30.018  13.325
 7901W        W80216  18.212  12.006   3.706
 7902W        W80217  36.904  25.433   2.347
 7903W        W80218  13.254  41.860   4.866
 7904W        W80219   0.366  18.915  11.352
 7905W        W80220  22.652  33.914  13.269
 7906W        W80221  44.514  44.801  13.921
 7907W        W80222  15.423  17.812  14.799
 7908W        W80223  42.500  28.093   4.606
 7909W        W80224   0.283  17.668  12.615
 7910W        W80225   7.421  35.416   3.818
 7911W        W80226  27.956  42.023   0.491
 7912W        W80227  10.066  29.676  11.613
 7913W        W80228   7.456  37.427   3.619
 7914W        W80229  14.333   1.885  12.811
 7915W        W80230  11.830  44.560  13.603
 7916W        W80231  37.917  32.489  13.098
 7917W        W80232  21.398  12.729   4.977
 7918W        W80233  37.377  22.155   0.018
 7919W        W80234  35.016   5.307  12.316
 7920W        W80235  21.610  22.489   2.673
 7921W        W80236  27.668  27.427   3.895
 7922W        W80237  12.601  30.398  14.241
 7923W        W80238  37.285   3.440  12.529
 7924W        W80239  23.102  10.088   1.666
 7925W        W80240   6.304  26.402   0.988
 7926W        W80241  29.895  43.092  13.469
 7927W        W80242   4.245   7.703  11.648
 7928W        W80243  40.981  41.527   4.868
 7929W        W80244  37.838  32.560   1.894
 7930W        W80245  33.693  20.510  12.197
 7931W        W80246  32.413  27.572  13.911
 7932W        W80247  11.578  30.959   2.309
 7933W        W80248   2.277  16.477   0.863
 7934W        W80249   0.915   4.700  12.045
 7935W        W80250  36.076  40.917   2.204
 7936W        W80251  30.082  19.757  13.686
 7937W        W80252   6.222  43.042  10.778
 7938W        W80253  27.887   8.220   1.843
 7939W        W80254  38.653  12.313   2.738
 7940W        W80255  20.489   5.009  11.467
 7941W        W80256  39.791   6.424  13.566
 7942W        W80257   0.933  30.698  10.605
 7943W        W80258   8.032  13.265  13.235
 7944W        W80259   1.930  10.270  12.585
 7945W        W80260  40.141  22.061  14.899
 7946W        W80261  31.095  40.603  12.092
 7947W        W80262  11.748  13.755   4.966
 7948W        W80263   8.901  44.958   1.718
 7949W        W80264  18.074  33.042  13.597
 7950W        W80265  40.243  22.591  12.871
 7951W        W80266   9.760  32.371  14.951
 7952W        W80267  25.585  40.238  14.883
 7953W        W80268  17.070  36.363  14.486
 7954W        W80269  31.458  23.057   1.425
 7955W        W80270  14.541  19.547   0.389
 7956W        W80271  13.937  32.952   3.339
 7957W        W80272  44.733  12.563   1.744
 7958W        W80273  43.889  22.031   3.525
 7959W        W80274  37.764  39.287  14.529
 7960W        W80275  18.824  17.294   3.545
 7961W        W80276  24.594  10.781  12.858
 7962W        W80277  18.531  40.799   1.334
 7963W        W80278  27.754  44.378  11.911
 7964W        W80279  13.168   9.644   4.168
 7965W        W80280  29.099  29.965  13.365
 7966W        W80281   6.726  25.128   2.433
 7967W        W80282  43.065  15.642   1.370
 7968W        W80283  30.338  22.286  12.510
 7969W        W80284  19.100  42.958   2.046
 7970W        W80285  27.886  38.846   1.414
 7971W        W80286  33.669   0.003   2.163
 7972W        W80287   9.718  24.057   4.519
 7973W        W80288  43.767  15.845  13.480
 7974W        W80289   4.125  21.044  13.576
 7975W        W80290  43.473  42.703  13.813
 7976W        W80291  22.465  25.822   1.933
 7977W        W80292  38.849  24.451  14.566
 7978W        W80293  43.015   5.666  12.436
 7979W        W80294  19.531   2.732   1.706
 7980W        W80295  33.382  40.882   4.313
 7981W        W80296   4.760  24.834  14.937
 7982W        W80297  36.919  42.965  12.007
 7983W        W80298  37.337  35.544  12.878
 7984W        W80299  38.289  23.727   3.661
 7985W        W80300   3.106  23.202   0.396
 7986W        W80301  32.066   4.106  13.846
 7987W        W80302  33.389  25.502   2.217
 7988W        W80303  28.564  38.382   1.884
 7989W        W80304  44.262  33.061   2.419
 7990W        W80305   1.794  35.659  14.456
 7991W        W80306  12.865   4.730   1.030
 7992W        W80307   0.884  29.160   3.436
 7993W        W80308  33.001  19.481  10.725
 7994W        W80309  19.797  41.942  12.295
 7995W        W80310  18.564  20.789   1.200
 7996W        W80311  37.569  37.060  11.025
 7997W        W80312  11.923   1.441  11.408
 7998W        W80313  39.755  27.140  13.365
 7999W        W80314  28.839   8.279  12.673
 8000W        W80315   9.759  19.217  11.622
 8001W        W80316  20.998  39.028   4.517
 8002W        W80317   4.806   0.765   4.602
 8003W        W80318  20.479  35.494  11.942
 8004W        W80319   4.298  20.084  13.997
 8005W        W80320  13.191  40.806  13.044
 8006W        W80321  43.214  21.292  12.383
 8007W        W80322  44.910  19.511   4.936
 8008W        W80323   6.620  14.914   4.629
 8009W        W80324   5.392  11.666  12.947
 8010W        W80325  22.467   5.430  10.497
 8011W        W80326  17.670  38.589   3.498
 8012W        W80327  44.420  14.618  14.785
 8013W        W80328  10.349  27.521   2.953
 8014W        W80329   8.155  26.517  12.799
 8015W        W80330  14.681  11.135  13.448
 8016W        W80331   1.542  10.767   4.118
 8017W        W80332  17.791  16.335   3.212
 8018W        W80333  17.143   0.417   0.210
 8019W        W80334   8.522  42.553  14.156
 8020W        W80335  29.725  11.321   0.868
 8021W        W80336  21.743  39.476   4.203
 8022W        W80337   6.446   0.575  13.928
 8023W        W80338   6.322   2.570  13.808
 8024W        W80339  22.978  40.922  14.596
 8025W        W80340  38.126  30.130  12.044
 8026W        W80341  22.804   4.352  14.433
 8027W        W80342  41.483  41.284  11.517
 8028W        W80343  44.151  16.725  12.556
 8029W        W80344  33.516  29.521   2.785
 8030W        W80345  40.517  36.937   1.419
 8031W        W80346  24.662   1.133  14.307
 8032W        W80347  25.218   4.516   9.957
 8033W        W80348  39.914  39.259   4.629
 8034W        W80349  39.061  35.275  12.596
 8035W        W80350  28.856  24.559  13.899
 8036W        W80351  44.706  33.567   1.330
 8037W        W80352  26.953   3.916   1.553
 8038W        W80353  13.732  22.711  11.137
 8039W        W80354  14.513  37.425   0.421
 8040W        W80355  30.648  28.662   1.756
 8041W        W80356   3.980  34.138  14.303
 8042W        W80357   8.095  43.363  12.057
 8043W        W80358  18.625  37.594  11.941
 8044W        W80359  31.261  33.079   4.115
 8045W        W80360  28.301   4.132   5.537
 8046W        W80361  11.851   5.951  11.794
 8047W        W80362  27.981  16.174   1.799
 8048W        W80363  16.887  37.932  10.610
 8049W        W80364  25.116   0.252  10.730
 8050W        W80365  20.552  29.743   0.871
 8051W        W80366   3.734   3.702  11.128
 8052W        W80367   8.111  33.223  14.175
 8053W        W80368  28.946   3.874  14.452
 8054W        W80369  13.015  21.988   3.464
 8055W        W80370   8.871  28.105  14.511
 8056W        W80371  22.733  34.759   3.311
 8057W        W80372   4.225  31.089   0.497
 8058W        W80373  44.356  29.676   1.895
 8059W        W80374  14.840   7.436  14.205
 8060W        W80375  35.512  27.722   4.420
 8061W        W80376  15.050  25.809   1.807
 8062W        W80377   9.731  25.736  11.661
 8063W        W80378  28.227   7.424   0.379
 8064W        W80379  35.573  36.141  12.714
 8065W        W80380  16.891  18.742   3.389
 8066W        W80381  22.493  34.085  10.418
 8067W        W80382   0.511  20.478  11.990
 8068W        W80383   6.823  15.029  14.066
 8069W        W80384  32.723  17.445   0.915
 8070W        W80385  15.628   1.812   9.672
 8071W        W80386  38.471  14.884  14.850
 8072W        W80387  11.249  43.043  13.085
 8073W        W80388   4.852  44.726   3.686
 8074W        W80389   7.121  42.419   4.607
 8075W        W80390  43.384  12.826  14.466
 8076W        W80391  32.541  30.570   2.263
 8077W        W80392  38.845  24.962   9.914
 8078W        W80393  23.197  24.931   1.698
 8079W        W80394  43.970  37.595   0.023
 8080W        W80395  27.460  32.030   2.340
 8081W        W80396  40.381   6.783   2.243
 8082W        W80397  38.075  32.428   1.440
 8083W        W80398  30.662   8.948  12.989
 8084W        W80399  12.378  25.687  11.188
 8085W        W80400  36.369  24.139  10.579
 8086W        W80401  14.566  30.146  11.957
 8087W        W80402  44.059  11.924   0.774
 8088W        W80403  12.637  23.321  10.525
 8089W        W80404  33.082  32.826   1.420
 8090W        W80405  44.258  43.983  10.761
 8091W        W80406  25.866  14.878   3.634
 8092W        W80407  39.038   6.673   0.839
 8093W        W80408   8.212  38.549   2.982
 8094W        W80409  35.958   7.844  14.696
 8095W        W80410  21.322  39.968   2.781
 8096W        W80411  20.691  18.786   4.524
 8097W        W80412  13.461  19.610   4.196
 8098W        W80413  33.408  23.076   4.308
 8099W        W80414  31.924  31.918   3.881
 8100W        W80415  22.034  18.251  14.747
 8101W        W80416   1.865  40.653   4.556
 8102W        W80417  18.112  19.157   2.138
 8103W        W80418   5.422   5.375   4.588
 8104W        W80419  38.567   4.411  13.509
 8105W        W80420  23.997  33.411   0.116
 8106W        W80421  40.200   1.064   1.890
 8107W        W80422  19.691  12.402   0.916
 8108W        W80423  21.016  19.260   2.453
 8109W        W80424   4.787  31.658  11.952
 8110W        W80425   6.752  33.432  14.417
 8111W        W80426  33.349  27.002   4.818
 8112W        W80427  32.956  13.315  11.603
 8113W        W80428   6.835  31.117   3.179
 8114W        W80429  37.599  21.087   2.216
 8115W        W80430  43.116  19.643   1.300
 8116W        W80431   5.970   1.517  10.757
 8117W        W80432  35.924  38.255  12.604
 8118W        W80433  34.834  13.774   0.691
 8119W        W80434  21.523  40.264   1.461
 8120W        W80435  18.822  23.722   4.749
 8121W        W80436   5.431  28.048   3.824
 8122W        W80437  26.637  20.509  13.565
 8123W        W80438  39.337  37.352   0.085
 8124W        W80439   8.667  17.984  14.365
 8125W        W80440   2.929  22.757   2.196
 8126W        W80441  38.037  16.956   1.613
 8127W        W80442  19.538   1.169   1.713
 8128W        W80443  14.311  34.113   1.901
 8129W        W80444   8.653  36.356  14.020
 8130W        W80445  34.015   4.873  14.502
 8131W        W80446  14.316   0.274  11.148
 8132W        W80447  32.484  17.886  12.483
 8133W        W80448  29.639   0.782  10.462
 8134W        W80449  35.375  30.505   0.932
 8135W        W80450   4.787  39.826   3.284
 8136W        W80451  31.613  15.185   2.729
 8137W        W80452  16.112  29.085   4.147
 8138W        W80453  31.454  42.976   1.789
 8139W        W80454  38.877  32.065  12.526
 8140W        W80455  28.524   6.790  13.787
 8141W        W80456  22.085  17.461   3.321
 8142W        W80457  31.127  22.656   4.456
 8143W        W80458  23.978  24.319   4.546
 8144W        W80459   4.141  44.545  14.849
 8145W        W80460  25.091  39.475  14.551
 8146W        W80461  43.279  29.555   0.241
 8147W        W80462  40.581  25.939   4.210
 8148W        W80463  16.658  43.989  14.203
 8149W        W80464  18.040  34.505   0.130
 8150W        W80465  22.754  29.124  11.193
 8151W        W80466  18.824  39.929   4.186
 8152W        W80467   6.791  26.443  11.736
 8153W        W80468  34.577  15.953   1.831
 8154W        W80469  39.835   8.821  14.280
 8155W        W80470  21.628   8.834   4.661
 8156W        W80471  21.125  39.571   1.408
 8157W        W80472  15.487  13.287  12.008
 8158W        W80473   3.223  41.822   3.725
 8159W        W80474  16.294   4.247   3.202
 8160W        W80475   8.097   7.893   2.871
 8161W        W80476  41.400   6.219  13.591
 8162W        W80477  10.832  36.205   1.945
 8163W        W80478  24.172   6.706   1.839
 8164W        W80479  11.123  31.384   4.556
 8165W        W80480  41.678  10.894  14.343
 8166W        W80481  21.468  14.107  13.133
 8167W        W80482  26.982  36.013   4.142
 8168W        W80483  21.981  11.758  12.017
 8169W        W80484  34.190  19.441   0.220
 8170W        W80485  14.981  26.374  13.458
 8171W        W80486  26.167   1.453  14.459
 8172W        W80487   4.662  13.150  11.196
 8173W        W80488  44.337   6.401   2.381
 8174W        W80489   6.911  10.615  14.403
 8175W        W80490  25.164  40.523  14.801
 8176W        W80491   7.293  27.032  12.392
 8177W        W80492  10.335   4.363  13.119
 8178W        W80493  32.992  41.729  11.548
 8179W        W80494   4.175  28.163   0.134
 8180W        W80495  41.911  35.954   4.712
 8181W        W80496  36.501  42.820   2.851
 8182W        W80497   8.724  44.351   0.832
 8183W        W80498  11.710  42.114  12.342
 8184W        W80499  13.860  23.723   3.771
 8185W        W80500  34.973   9.130  11.614
 8186W        W80501  28.422   2.683  13.378
 8187W        W80502  38.881  33.083   2.161
 8188W        W80503  39.321   7.896   0.541
 8189W        W80504  34.893  36.615  10.667
 8190W        W80505  17.660  20.224   4.855
 8191W        W80506  35.101   0.537  10.658
 8192W        W80507  16.772   3.048   3.509
 8193W        W80508  31.434   6.436   1.887
 8194W        W80509  24.945  42.930   4.304
 8195W        W80510  30.098  41.662   4.321
 8196W        W80511   9.164   5.670   2.680
 8197W        W80512  29.126  37.311  12.398
 8198W        W80513  37.614  34.317  13.411
 8199W        W80514  35.371  35.075  12.629
 8200W        W80515   2.756   7.690   2.746
 8201W        W80516   2.538   2.280   0.263
 8202W        W80517  24.469   2.267   1.876
 8203W        W80518  22.492  42.978   3.629
 8204W        W80519  43.431   5.697  11.189
 8205W        W80520  34.969  40.853  14.502
 8206W        W80521  44.549  40.239  11.081
 8207W        W80522   7.843   5.658   2.907
 8208W        W80523  12.684   9.490   1.399
 8209W        W80524  24.579  43.577   1.042
 8210W        W80525  25.915   3.766   0.238
 8211W        W80526  18.229  19.517  12.068
 8212W        W80527  31.512  37.878  14.932
 8213W        W80528  44.559  18.114  12.826
 8214W        W80529  36.916  25.487  12.622
 8215W        W80530   7.726  24.512  13.742
 8216W        W80531   0.462  23.552   3.255
 8217W        W80532  16.376  25.032  10.727
 8218W        W80533   6.709  41.109  11.977
 8219W        W80534  37.985   5.973   2.748
 8220W        W80535  21.532  21.224  10.621
 8221W        W80536   3.585   8.245  13.972
 8222W        W80537   4.893  11.879  14.312
 8223W        W80538  19.472  31.568   4.246
 8224W        W80539  31.546  27.524   3.881
 8225W        W80540  16.150  39.874   4.480
 8226W        W80541  20.150   2.977  13.098
 8227W        W80542  28.499  41.778  14.769
 8228W        W80543  14.390  34.538  11.946
 8229W        W80544  37.390   0.816   1.311
 8230W        W80545  24.193  20.828   4.089
 8231W        W80546  10.393  38.973   0.279
 8232W        W80547  35.449  11.249   3.132
 8233W        W80548  21.484  26.166  10.596
 8234W        W80549  23.268   5.291   2.713
 8235W        W80550  15.720   1.270  12.083
 8236W        W80551  14.332   8.744   2.854
 8237W        W80552  10.687  25.181   2.754
 8238W        W80553  34.928  18.845   3.242
 8239W        W80554  22.087  42.638  14.269
 8240W        W80555  34.349  39.561  14.950
 8241W        W80556   9.119   5.286  11.491
 8242W        W80557  25.105  32.904  13.762
 8243W        W80558  16.472  22.230  14.949
 8244W        W80559  13.709  43.322   4.220
 8245W        W80560  24.575  27.953   2.329
 8246W        W80561  29.997  26.949   1.456
 8247W        W80562  37.724   6.033   1.178
 8248W        W80563   0.309  17.940   0.549
 8249W        W80564  26.073  41.898  13.355
 8250W        W80565  17.334  33.441  14.606
 8251W        W80566  20.906  43.090  11.371
 8252W        W80567  44.810  18.143   0.449
 8253W        W80568   1.267  16.581   1.408
 8254W        W80569   3.219   0.702   0.692
 8255W        W80570   1.525  11.112   4.553
 8256W        W80571  21.524  35.409   4.105
 8257W        W80572  27.092  38.849   4.791
 8258W        W80573   1.667  28.285  14.694
 8259W        W80574   1.975  19.942   0.587
 8260W        W80575   4.283  31.576  11.213
 8261W        W80576   7.699  16.868   0.829
 8262W        W80577  33.157   4.883   4.196
 8263W        W80578  10.891  29.993  12.202
 8264W        W80579   5.763   5.970   2.245
 8265W        W80580   3.903  32.380   3.753
 8266W        W80581  41.611  30.380   2.386
 8267W        W80582   4.335   1.987   4.766
 8268W        W80583   8.398  34.604  11.528
 8269W        W80584  10.562  42.142   3.162
 8270W        W80585  32.956   4.972   1.879
 8271W        W80586   9.698  43.981   3.503
 8272W        W80587  14.591  14.825  14.761
 8273W        W80588  15.227  24.447  13.476
 8274W        W80589  31.568  39.840   4.156
 8275W        W80590  13.654   5.190   4.682
 8276W        W80591  21.306  24.174   3.614
 8277W        W80592   2.409  15.143  10.471
 8278W        W80593  21.013  44.453   0.151
 8279W        W80594  23.749  24.948  12.993
 8280W        W80595  27.503   6.010  12.224
 8281W        W80596  18.634   5.674  11.560
 8282W        W80597  10.581  10.820  12.114
 8283W        W80598  17.126   5.410  12.021
 8284W        W80599  43.948  42.956   2.228
 8285W        W80600  13.733  12.069  14.324
 8286W        W80601  32.512  38.280   1.430
 8287W        W80602  40.327  32.864   1.206
 8288W        W80603  13.823  32.628   0.267
 8289W        W80604   4.680  36.161   1.675
 8290W        W80605  17.176  35.897  12.135
 8291W        W80606  34.555  42.706  12.910
 8292W        W80607   0.907  30.044   0.929
 8293W        W80608  33.631  23.952  12.887
 8294W        W80609  36.855  27.754   4.270
 8295W        W80610  30.060  30.899   2.672
 8296W        W80611   2.225  42.114   4.640
 8297W        W80612  17.844   3.950  11.014
 8298W        W80613  23.754  10.445   4.691
 8299W        W80614  40.126   1.455  13.364
 8300W        W80615  10.851  33.125   3.126
 8301W        W80616  17.324  29.916  10.651
 8302W        W80617  34.345  34.647   0.855
 8303W        W80618  42.702  26.963  10.086
 8304W        W80619  21.001   8.198   2.267
 8305W        W80620  27.198  42.998  10.700
 8306W        W80621  37.774  22.381   1.837
 8307W        W80622   3.333  25.121  13.357
 8308W        W80623   4.661  31.639   4.858
 8309W        W80624  25.199   6.858   1.913
 8310W        W80625  19.039  24.224   3.901
 8311W        W80626  31.894  15.104   0.993
 8312W        W80627  36.418  35.191   3.715
 8313W        W80628   8.297  34.406  14.870
 8314W        W80629  41.001  32.168  14.298
 8315W        W80630   6.793  12.445  11.650
 8316W        W80631  10.398  11.342  14.389
 8317W        W80632  22.969  43.469   0.898
 8318W        W80633   0.797  23.539  12.867
 8319W        W80634   4.880  13.308   4.967
 8320W        W80635  30.569  36.463  12.478
 8321W        W80636   9.787  40.341  10.674
 8322W        W80637   0.637  19.552  10.679
 8323W        W80638  25.578   8.282   0.319
 8324W        W80639  16.297  41.846  14.104
 8325W        W80640  24.426   8.350   2.175
 8326W        W80641  21.192   9.369   1.740
 8327W        W80642   5.838  26.897  10.768
 8328W        W80643  23.589  40.676  11.231
 8329W        W80644  27.386   1.004   3.620
 8330W        W80645  14.597  29.760   3.872
 8331W        W80646   7.944  19.688  14.826
 8332W        W80647  26.462  27.279   3.698
 8333W        W80648  30.783  38.486  14.860
 8334W        W80649  17.200  14.664  11.877
 8335W        W80650  20.116   2.408  13.985
 8336W        W80651  22.258  29.386   3.420
 8337W        W80652  14.568  18.105  11.927
 8338W        W80653  36.645  27.484  11.546
 8339W        W80654   3.918  32.993  14.823
 8340W        W80655  14.240  25.365   5.250
 8341W        W80656  18.147  10.729   5.471
 8342W        W80657   2.225   8.871  14.756
 8343W        W80658  12.914  34.380   2.837
 8344W        W80659  33.682   1.145  11.153
 8345W        W80660   6.427  43.572   4.088
 8346W        W80661  18.774  13.731   2.645
 8347W        W80662  12.620   6.297   1.418
 8348W        W80663  39.364   2.272   2.634
 8349W        W80664   2.746  26.197  11.025
 8350W        W80665  21.547   8.570  11.125
 8351W        W80666  38.625  20.755   2.258
 8352W        W80667  13.848  33.165   4.553
 8353W        W80668  29.330  12.094  12.859
 8354W        W80669  22.579  27.930   2.208
 8355W        W80670  24.976  14.811  10.868
 8356W        W80671  29.420   7.795  12.012
 8357W        W80672  16.115   9.772   4.463
 8358W        W80673  20.738  31.122  11.520
 8359W        W80674  27.253   4.643  10.491
 8360W        W80675  16.551  39.098   3.355
 8361W        W80676  21.753  44.477  13.820
 8362W        W80677  20.547  28.145  14.445
 8363W        W80678   3.944  33.073  11.397
 8364W        W80679  27.467  38.600  13.022
 8365W        W80680   9.131  24.727  14.870
 8366W        W80681   8.930  36.610  13.051
 8367W        W80682  44.228  39.330   0.412
 8368W        W80683  21.047   9.211  12.090
 8369W        W80684   2.752  31.632  10.410
 8370W        W80685   5.865  15.655  10.434
 8371W        W80686   7.362  41.341   1.787
 8372W        W80687  40.396  23.034  13.107
 8373W        W80688  40.345  34.538  12.126
 8374W        W80689  17.699  30.047  12.939
 8375W        W80690  10.788  15.844   4.673
 8376W        W80691  28.933  28.700   4.603
 8377W        W80692  33.427   3.804   4.568
 8378W        W80693   1.059  29.820  12.913
 8379W        W80694  14.561  29.885   4.425
 8380W        W80695  18.184  14.602   3.881
 8381W        W80696  35.658  31.614  10.282
 8382W        W80697  17.769  41.709   0.926
 8383W        W80698  37.835  13.527  11.934
 8384W        W80699  18.241  39.104   1.956
 8385W        W80700  15.100  43.464   1.038
 8386W        W80701  20.754  26.131   4.236
 8387W        W80702  33.193  24.474   2.156
 8388W        W80703   2.146   2.414  12.985
 8389W        W80704  18.548  36.504   4.689
 8390W        W80705  28.959  12.559   0.455
 8391W        W80706   4.255  27.382  13.021
 8392W        W80707  26.039  34.556   0.813
 8393W        W80708  24.209  40.009   1.765
 8394W        W80709  15.769  28.938  14.551
 8395W        W80710  20.123  40.505  14.990
 8396W        W80711  39.569   5.863   3.869
 8397W        W80712  17.832  12.930  14.306
 8398W        W80713  26.454  25.472  12.373
 8399W        W80714  30.836  13.577  13.911
 8400W        W80715  30.887  40.401  13.357
 8401W        W80716   3.311  19.295   3.069
 8402W        W80717  42.046  23.149   3.574
 8403W        W80718   3.970   8.702   0.077
 8404W        W80719  34.017  29.716   3.622
 8405W        W80720  42.969  12.470   0.330
 8406W        W80721  12.738  28.673  11.001
 8407W        W80722  18.092  23.124  13.810
 8408W        W80723  39.910  15.212   4.216
 8409W        W80724   7.648  44.525  13.062
 8410W        W80725  38.497  16.955   4.635
 8411W        W80726   1.790  37.834   1.203
 8412W        W80727   2.590   2.569  14.814
 8413W        W80728  33.899  23.655   2.373
 8414W        W80729  37.164  29.703   3.329
 8415W        W80730  31.833   8.835  12.552
 8416W        W80731  32.917   3.041   0.406
 8417W        W80732  19.484  31.597   0.537
 8418W        W80733  25.106  37.064   2.228
 8419W        W80734  18.898  36.086  12.016
 8420W        W80735  24.201   2.929  11.201
 8421W        W80736  16.118  37.257  11.344
 8422W        W80737   3.972  41.763  13.351
 8423W        W80738  30.572   8.419  12.985
 8424W        W80739  32.327  43.369  11.487
 8425W        W80740   4.944  29.506  13.053
 8426W        W80741  29.035  16.572  13.998
 8427W        W80742  39.133  12.823   0.395
 8428W        W80743  14.633   9.425  11.461
 8429W        W80744  19.464  23.785   0.777
 8430W        W80745  41.322  27.523  12.554
 8431W        W80746  11.773  24.618  14.052
 8432W        W80747  43.290  39.775  11.540
 8433W        W80748  28.930  13.999  14.493
 8434W        W80749   9.147  37.635  12.483
 8435W        W80750  43.867  39.092  14.359
 8436W        W80751  23.615  12.696  11.574
 8437W        W80752  42.980   8.512  14.477
 8438W        W80753  43.049   9.695  12.401
 8439W        W80754  25.453   8.162   4.112
 8440W        W80755   0.442  26.219  14.729
 8441W        W80756  17.614  20.447   3.635
 8442W        W80757   3.243   5.876   0.941
 8443W        W80758  40.809   7.721   4.932
 8444W        W80759  25.247  21.129   1.873
 8445W        W80760  39.370  35.035  12.977
 8446W        W80761   5.298  26.964   0.213
 8447W        W80762  19.747  34.332   1.401
 8448W        W80763  41.730   8.495   0.381
 8449W        W80764  25.039  31.917  12.579
 8450W        W80765  24.750   6.260  11.262
 8451W        W80766  43.949  37.885  11.559
 8452W        W80767  33.217  40.938  13.339
 8453W        W80768  22.615  20.562   0.434
 8454W        W80769  28.064  36.510  14.449
 8455W        W80770   6.129  19.634   4.231
 8456W        W80771  32.533  38.871  10.279
 8457W        W80772  31.863  38.062   3.252
 8458W        W80773   1.928  37.862  12.628
 8459W        W80774  13.647  32.203   0.942
 8460W        W80775   0.796  27.740   1.310
 8461W        W80776  21.281   3.883   5.195
 8462W        W80777   8.028  25.156   0.333
 8463W        W80778  35.776  28.411  13.801
 8464W        W80779  36.947  38.782  11.014
 8465W        W80780   6.680  34.415  14.560
 8466W        W80781  13.890  11.598   1.952
 8467W        W80782  19.797   1.293   2.166
 8468W        W80783  34.139   7.164   2.130
 8469W        W80784  42.508   3.395  11.466
 8470W        W80785  22.350  15.869   5.239
 8471W        W80786  18.105  43.088   5.018
 8472W        W80787  38.763  31.386  14.755
 8473W        W80788  23.470  18.632   4.625
 8474W        W80789  38.043   1.718   5.005
 8475W        W80790  33.988  40.840  14.335
 8476W        W80791   6.022   6.746   1.679
 8477W        W80792  12.138  10.404   3.197
 8478W        W80793  33.042  14.167   2.701
 8479W        W80794   8.912  20.790  10.600
 8480W        W80795  32.595  22.981  10.739
 8481W        W80796  15.095  20.091   2.422
 8482W        W80797  40.305  39.517   0.703
 8483W        W80798  14.199  29.594   2.921
 8484W        W80799  37.805   1.085   0.993
 8485W        W80800  21.346  37.327  12.989
 8486W        W80801  42.443   2.433   1.284
 8487W        W80802  26.802  32.712  10.221
 8488W        W80803  13.268  36.651   0.359
 8489W        W80804  42.607  34.596   4.571
 8490W        W80805  24.115  31.410   4.262
 8491W        W80806  32.105  21.696   4.240
 8492W        W80807  44.782   4.880   1.994
 8493W        W80808  36.283   2.163  11.552
 8494W        W80809  19.097  13.057   0.128
 8495W        W80810  34.459  33.185   1.792
 8496W        W80811  33.062  28.968  13.605
 8497W        W80812   5.210  12.881   3.336
 8498W        W80813  25.092  44.664   2.752
 8499W        W80814  35.308  26.010  12.785
 8500W        W80815  37.890  29.069   4.567
 8501W        W80816   5.243  40.225   3.838
 8502W        W80817  10.840  39.905  13.453
 8503W        W80818  26.610  23.768  12.966
 8504W        W80819   2.424   3.272   2.960
 8505W        W80820  39.788  33.805  13.999
 8506W        W80821  41.649  36.106  11.840
 8507W        W80822   8.100  17.168  12.589
 8508W        W80823  27.251   6.287   2.602
 8509W        W80824  23.702  44.274  10.747
 8510W        W80825  24.786   4.216  13.070
 8511W        W80826   7.863  15.366   0.963
 8512W        W80827  21.254  31.383  12.959
 8513W        W80828  34.108  30.549  12.908
 8514W        W80829  27.149  29.612  10.537
 8515W        W80830   7.368  21.184  11.176
 8516W        W80831  30.068  10.754  12.677
 8517W        W80832  36.310  34.042  12.271
 8518W        W80833   3.947  30.072  13.888
 8519W        W80834  26.602   2.474   4.201
 8520W        W80835  37.027  25.318  10.117
 8521W        W80836  23.432  19.953  11.572
 8522W        W80837   4.501  20.473   2.748
 8523W        W80838  42.995  34.176   2.213
 8524W        W80839   5.608  27.645   2.380
 8525W        W80840   2.441  18.294  14.979
 8526W        W80841   1.041   1.749  12.472
 8527W        W80842  30.602   1.647   0.835
 8528W        W80843  12.855  41.353  11.499
 8529W        W80844  10.320  18.234   0.773
 8530W        W80845  33.357   3.539   2.317
 8531W        W80846  13.509   5.404   0.247
 8532W        W80847  34.658   0.298  13.288
 8533W        W80848  20.755  11.614   1.367
 8534W        W80849  30.641  21.345  14.403
 8535W        W80850   2.177  39.772   2.830
 8536W        W80851  19.786  27.117   0.900
 8537W        W80852   0.997   1.922  13.405
 8538W        W80853  12.292  40.899  12.046
 8539W        W80854  24.096  32.482  10.736
 8540W        W80855   7.138  29.619  14.578
 8541W        W80856  30.339  15.693  12.949
 8542W        W80857  31.485  26.239   1.382
 8543W        W80858  41.704  35.549  11.481
 8544W        W80859  40.443   6.345   1.982
 8545W        W80860  29.632  16.482   4.020
 8546W        W80861  14.346  10.378   0.419
 8547W        W80862  15.417  10.614  10.996
 8548W        W80863   3.941   1.253  11.416
 8549W        W80864   9.366  20.140   0.558
 8550W        W80865  42.660   0.792   0.922
 8551W        W80866  36.179   2.035   4.237
 8552W        W80867  20.475  15.973   0.026
 8553W        W80868  19.191  21.746   0.422
 8554W        W80869  14.041  33.627  13.848
 8555W        W80870  19.800  14.741   4.660
 8556W        W80871   6.466  12.596   2.249
 8557W        W80872  34.888  16.065  13.535
 8558W        W80873  15.398  32.503   4.772
 8559W        W80874  30.526  43.776  11.871
 8560W        W80875  14.138   2.840   1.212
 8561W        W80876   8.110  34.301   2.727
 8562W        W80877  39.786  15.798   1.600
 8563W        W80878  12.620   1.065  13.347
 8564W        W80879  22.511  26.159  13.886
 8565W        W80880   4.577  42.442  13.957
 8566W        W80881  39.721  33.558   1.261
 8567W        W80882  30.432  31.510   4.040
 8568W        W80883  44.590   0.864   4.141
 8569W        W80884   1.938   4.808  11.487
 8570W        W80885  31.876  22.059  13.957
 8571W        W80886  31.846   5.649   0.592
 8572W        W80887   1.996  10.404  14.852
 8573W        W80888  42.023  33.644  11.528
 8574W        W80889  18.289  22.752  11.031
 8575W        W80890  14.743  27.216  14.980
 8576W        W80891   2.929  22.730   4.326
 8577W        W80892  14.983  23.050  11.551
 8578W        W80893  23.098   4.181  12.653
 8579W        W80894  32.976  12.556   4.752
 8580W        W80895  37.046  41.333  12.396
 8581W        W80896  32.376   2.521   4.408
 8582W        W80897  38.394  19.738  11.688
 8583W        W80898  40.025  30.636   1.166
 8584W        W80899  21.007  20.169   3.748
 8585W        W80900  14.124  40.529  10.976
 8586W        W80901  33.819  20.852   3.801
 8587W        W80902  18.557  37.798   1.706
 8588W        W80903   2.026  35.628   9.948
 8589W        W80904  33.956  43.817  14.900
 8590W        W80905  30.562  19.846  12.398
 8591W        W80906   0.503  37.372  12.321
 8592W        W80907  34.048  42.057  14.901
 8593W        W80908  17.968  16.142  11.559
 8594W        W80909  43.847   8.655   0.400
 8595W        W80910  42.938  28.412   4.477
 8596W        W80911   5.693  10.632  13.762
 8597W        W80912   9.304  25.644  14.059
 8598W        W80913   7.195  34.185   4.534
 8599W        W80914  38.772  15.333   4.994
 8600W        W80915   2.938  27.643  14.857
 8601W        W80916  33.494  31.892   3.882
 8602W        W80917   8.294  16.461  10.623
 8603W        W80918  10.676  30.418   2.475
 8604W        W80919  36.788  22.189  12.445
 8605W        W80920   7.850  43.774  12.923
 8606W        W80921  44.873  29.373  10.775
 8607W        W80922  37.891  19.647  11.421
 8608W        W80923  26.179  31.981   0.430
 8609W        W80924  33.250  29.494  12.838
 8610W        W80925   0.864  33.111   1.538
 8611W        W80926  15.716  21.556  12.499
 8612W        W80927  23.478  29.952   1.326
 8613W        W80928   1.932  27.437  12.473
 8614W        W80929  24.612  23.344  13.999
 8615W        W80930  31.454  43.464  11.824
 8616W        W80931  16.040  34.883   1.314
 8617W        W80932  15.296  42.492  12.394
 8618W        W80933  43.444   6.509  13.457
 8619W        W80934   7.766  13.396   4.069
 8620W        W80935  28.131  40.349   0.979
 8621W        W80936  40.776  17.573   1.869
 8622W        W80937  41.546  40.514  11.979
 8623W        W80938  14.083  14.741  14.777
 8624W        W80939  26.019  26.986   3.695
 8625W        W80940  35.432   8.495  11.260
 8626W        W80941  18.616  20.609  13.861
 8627W        W80942   3.332  40.574  13.842
 8628W        W80943   1.865   5.337   3.277
 8629W        W80944  28.861  14.656  12.191
 8630W        W80945   7.926  14.252  13.850
 8631W        W80946  44.979  21.908   1.878
 8632W        W80947   2.847  34.899  10.643
 8633W        W80948   0.417   8.799   2.451
 8634W        W80949   8.232  33.721  14.072
 8635W        W80950  42.349  35.079  11.144
 8636W        W80951   3.260  21.567  10.892
 8637W        W80952   1.862  43.467   2.253
 8638W        W80953   2.057  25.577   1.703
 8639W        W80954  33.991   7.843  13.882
 8640W        W80955  14.525  26.985  13.496
 8641W        W80956  33.019  31.371  12.834
 8642W        W80957  24.671  27.503   3.317
 8643W        W80958   6.398  24.155  14.048
 8644W        W80959  12.663  20.119   1.669
 8645W        W80960  30.980  21.125   0.180
 8646W        W80961   5.663  41.022  13.407
 8647W        W80962  14.220   5.416   3.313
 8648W        W80963   8.234  14.640  13.055
 8649W        W80964  12.913  42.511  14.315
 8650W        W80965  29.481  43.393  10.418
 8651W        W80966   2.313  42.723   2.728
 8652W        W80967   3.372  36.838   0.516
 8653W        W80968  23.139  35.930   4.707
 8654W        W80969  14.672  43.836   4.181
 8655W        W80970  20.975  12.239   3.613
 8656W        W80971  33.628  39.443   2.802
 8657W        W80972  16.385  10.779  14.330
 8658W        W80973  31.203  36.850   1.980
 8659W        W80974  37.314  27.893   0.997
 8660W        W80975  32.458  28.084   0.046
 8661W        W80976  44.304  27.916   2.366
 8662W        W80977  24.682  30.516   0.093
 8663W        W80978  43.504  11.099   3.161
 8664W        W80979  23.524  42.455  13.063
 8665W        W80980  31.505  13.028  13.486
 8666W        W80981  21.232  14.839  14.244
 8667W        W80982   0.347  17.763   2.335
 8668W        W80983  23.142  16.887  13.640
 8669W        W80984  44.417  41.501  10.405
 8670W        W80985  33.967  36.411  13.051
 8671W        W80986  28.115   9.435   2.466
 8672W        W80987  40.482   5.246   1.875
 8673W        W80988  44.681  33.185  11.015
 8674W        W80989  36.923  15.772  13.891
 8675W        W80990  20.959  23.396  13.544
 8676W        W80991  39.425  44.577   3.020
 8677W        W80992  20.966  43.659  11.099
 8678W        W80993  24.794  24.430  12.833
 8679W        W80994  33.512  44.371  11.454
 8680W        W80995   0.274  17.841   1.645
 8681W        W80996  15.688  26.114   0.746
 8682W        W80997  38.469   3.941   0.604
 8683W        W80998  26.419  26.565   2.283
 8684W        W80999  31.998  13.710   3.131
 8685W        W81000  41.279  32.471  11.906
 8686W        W81001  21.141  21.204   0.442
 8687W        W81002  24.766  43.094   0.767
 8688W        W81003  34.627   0.923  12.976
 8689W        W81004  41.872  28.602  11.716
 8690W        W81005  17.743  38.326   2.484
 8691W        W81006  17.346  25.683  11.462
 8692W        W81007  32.519  18.325   1.882
 8693W        W81008  24.088  41.491  10.806
 8694W        W81009  23.794  38.922  13.790
 8695W        W81010   3.875   3.319  13.392
 8696W        W81011   3.819  38.168   4.912
 8697W        W81012  21.666  13.750   1.023
 8698W        W81013  12.570   3.830   4.410
 8699W        W81014  31.422   4.333  11.588
 8700W        W81015  12.633  12.335  11.121
 8701W        W81016  28.374   2.660  11.447
 8702W        W81017  10.287  14.368   1.230
 8703W        W81018  29.130  12.305   0.883
 8704W        W81019  40.316  12.286   4.738
 8705W        W81020  26.545  30.333   0.863
 8706W        W81021   2.020   4.016   3.254
 8707W        W81022  24.314   2.291   1.377
 8708W        W81023  13.135   2.698   1.262
 8709W        W81024  28.517  10.184  13.978
 8710W        W81025  25.083  29.901   4.125
 8711W        W81026  13.380  38.528  10.687
 8712W        W81027  35.494  23.270   1.446
 8713W        W81028  26.647  33.963   9.787
 8714W        W81029  41.992  10.789   1.291
 8715W        W81030  19.381  37.400  11.942
 8716W        W81031   7.222  32.122  12.589
 8717W        W81032  44.718  26.383  13.090
 8718W        W81033  35.845   2.451  12.894
 8719W        W81034  21.970   3.437   0.820
 8720W        W81035  13.345   7.734   2.678
 8721W        W81036  43.916  23.134  12.011
 8722W        W81037  17.858  13.229  13.334
 8723W        W81038  18.765  10.110  14.789
 8724W        W81039  32.636  25.893  11.995
 8725W        W81040  15.331   6.850   2.903
 8726W        W81041  10.330   2.661  11.252
 8727W        W81042  25.672  41.791   0.916
 8728W        W81043  15.075   9.167  11.428
 8729W        W81044  23.033  32.057  12.438
 8730W        W81045   9.858  42.918   3.018
 8731W        W81046  15.881  11.713  12.409
 8732W        W81047  31.639   9.661   2.478
 8733W        W81048  35.460  28.693   4.155
 8734W        W81049   7.669   9.337  13.403
 8735W        W81050  38.353   1.942  13.378
 8736W        W81051   2.878  23.190   0.844
 8737W        W81052  40.948   6.829  14.956
 8738W        W81053  19.228   2.429  12.511
 8739W        W81054  18.814  25.623   3.600
 8740W        W81055  28.125   2.108  12.104
 8741W        W81056  18.008  19.950  13.775
 8742W        W81057  22.537  41.756  12.524
 8743W        W81058  35.133  19.414  13.964
 8744W        W81059   1.889  36.585  14.797
 8745W        W81060  10.268  40.502  14.985
 8746W        W81061  40.963  11.767  14.021
 8747W        W81062  35.252  15.311  12.820
 8748W        W81063  35.934  11.205   3.313
 8749W        W81064  39.290  25.801  12.358
 8750W        W81065  39.571  29.595   4.231
 8751W        W81066  27.213  41.009   1.424
 8752W        W81067   7.817  30.457   4.467
 8753W        W81068   9.840  22.941  11.034
 8754W        W81069  28.422   2.760   1.461
 8755W        W81070   9.845   8.298   4.430
 8756W        W81071  30.364  37.062  14.031
 8757W        W81072   6.446  19.979  14.133
 8758W        W81073  43.847   5.100  11.013
 8759W        W81074  23.205  31.712   4.151
 8760W        W81075  25.745  38.805   0.854
 8761W        W81076  14.405   6.279  12.430
 8762W        W81077  27.579  25.958   4.358
 8763W        W81078  10.232   4.417  12.370
 8764W        W81079  20.348   8.280   9.832
 8765W        W81080  26.005  16.420   0.719
 8766W        W81081  12.164  22.276   0.218
 8767W        W81082   2.223  33.346   1.129
 8768W        W81083  29.172   6.803  14.203
 8769W        W81084  41.556  17.885   0.715
 8770W        W81085  42.919  10.338  11.498
 8771W        W81086  13.156  30.171   3.635
 8772W        W81087  37.817  35.589  13.066
 8773W        W81088  23.810   2.128   1.350
 8774W        W81089   1.718   9.944  11.991
 8775W        W81090  32.678  23.787   4.178
 8776W        W81091  12.245  17.207  11.268
 8777W        W81092  36.370  34.955  10.193
 8778W        W81093  43.276  41.987   4.259
 8779W        W81094  19.472  29.248  11.120
 8780W        W81095   9.661   9.420   3.262
 8781W        W81096  36.117  15.144   0.414
 8782W        W81097  19.566  32.629   3.386
 8783W        W81098  30.271  44.874  10.754
 8784W        W81099  20.949  32.609   0.377
 8785W        W81100  35.558  43.993  14.298
 8786W        W81101  40.389  41.312   5.202
 8787W        W81102  25.994  20.004   4.259
 8788W        W81103  17.255  41.235   3.242
 8789W        W81104  22.656   1.864  10.671
 8790W        W81105  39.633   3.767  13.053
 8791W        W81106  34.836  10.164  11.501
 8792W        W81107  14.751  30.282  10.240
 8793W        W81108  17.769   9.651  13.412
 8794W        W81109  16.802  20.253   3.192
 8795W        W81110   5.391   1.711   4.166
 8796W        W81111  23.159  14.790   1.957
 8797W        W81112  40.576  19.841  13.188
 8798W        W81113  34.980   4.806  13.108
 8799W        W81114  22.531  18.017  14.870
 8800W        W81115  19.224  12.298  11.103
 8801W        W81116  20.546  43.334  11.156
 8802W        W81117  31.114  29.135  13.083
 8803W        W81118  15.154   5.152   2.333
 8804W        W81119   4.394  30.891   1.865
 8805W        W81120  20.702  22.468  14.055
 8806W        W81121  20.446  27.531  14.907
 8807W        W81122  12.144  40.544   3.205
 8808W        W81123  12.264  26.080   1.439
 8809W        W81124  10.188  15.757   3.228
 8810W        W81125  20.366  31.424   0.896
 8811W        W81126  12.383  24.472   3.217
 8812W        W81127   3.631  29.064   0.207
 8813W        W81128   8.386  18.799   0.989
 8814W        W81129  12.636  41.638   4.184
 8815W        W81130  12.992  39.456   2.179
 8816W        W81131  33.848  44.296   1.233
 8817W        W81132  11.283  17.616  12.983
 8818W        W81133  21.655  21.969  14.018
 8819W        W81134  13.212   1.991   2.444
 8820W        W81135  12.645  27.053  10.647
 8821W        W81136  28.132  20.493  13.944
 8822W        W81137  11.755  36.920  11.932
 8823W        W81138  15.672   5.828   4.436
 8824W        W81139  20.874   8.878  11.615
 8825W        W81140  36.088  11.265  13.532
 8826W        W81141   4.798   0.669  14.233
 8827W        W81142  33.997  31.986   3.728
 8828W        W81143   2.537  18.787   4.634
 8829W        W81144  40.036   4.007  12.413
 8830W        W81145   1.004  38.546  12.003
 8831W        W81146  24.485  12.920  12.103
 8832W        W81147  20.035  18.839   1.795
 8833W        W81148  44.768  33.948   1.733
 8834W        W81149  38.514  21.730  10.719
 8835W        W81150  21.641  23.502   0.450
 8836W        W81151  34.330  27.077   0.750
 8837W        W81152   1.462   8.707   3.701
 8838W        W81153  24.031  31.168   3.819
 8839W        W81154   5.419  17.855  12.510
 8840W        W81155  36.440  27.388   2.825
 8841W        W81156  20.263  20.628   2.348
 8842W        W81157  24.257  35.409   4.452
 8843W        W81158  11.344  21.752   3.639
 8844W        W81159  15.858  20.217   0.336
 8845W        W81160  40.744  23.565  11.185
 8846W        W81161  20.568   3.555   3.435
 8847W        W81162  20.024  23.683  12.822
 8848W        W81163  33.303  16.788   0.012
 8849W        W81164   5.853  33.944  13.470
 8850W        W81165  42.857   2.993   0.020
 8851W        W81166  29.909   8.556  11.985
 8852W        W81167  28.342  27.514   2.858
 8853W        W81168  13.957  40.033   4.048
 8854W        W81169  13.796  34.527  10.656
 8855W        W81170  41.878  14.086   1.889
 8856W        W81171  13.726  35.650   2.273
 8857W        W81172  41.850  44.818   0.426
 8858W        W81173   4.328  33.096   3.820
 8859W        W81174   8.342  27.769  14.926
 8860W        W81175   6.699   8.711   0.709
 8861W        W81176  36.672  24.109  14.945
 8862W        W81177  36.394   0.409   1.033
 8863W        W81178  20.104  19.555   9.774
 8864W        W81179  20.559  44.287   1.259
 8865W        W81180  20.083  34.510  14.470
 8866W        W81181  44.725  41.948   4.501
 8867W        W81182  15.330  16.623   1.018
 8868W        W81183  39.401  30.175  14.427
 8869W        W81184   2.310  21.512   4.120
 8870W        W81185  42.018  11.295  11.255
 8871W        W81186   6.813  15.183   1.298
 8872W        W81187   1.534  31.103  14.823
 8873W        W81188  31.144  43.912   3.756
 8874W        W81189  30.710  21.579   4.677
 8875W        W81190   7.613  13.119  13.596
 8876W        W81191  36.468  25.156   3.599
 8877W        W81192  10.506  15.702   5.085
 8878W        W81193  21.440   6.429   1.208
 8879W        W81194  38.660  31.956   3.278
 8880W        W81195  13.222  42.845  13.057
 8881W        W81196  44.475  34.734   1.243
 8882W        W81197  25.212  19.649  14.728
 8883W        W81198  21.360  27.179   4.703
 8884W        W81199  17.716  36.318   3.247
 8885W        W81200   3.058  34.940  12.166
 8886W        W81201   9.680  34.647   1.309
 8887W        W81202  28.535  43.293  12.952
 8888W        W81203  16.630   7.930   3.272
 8889W        W81204  12.681   0.755  10.625
 8890W        W81205  21.107  11.099   0.924
 8891W        W81206  31.833  13.810   2.127
 8892W        W81207  37.148  42.976  11.543
 8893W        W81208  35.805  23.375   2.454
 8894W        W81209  16.429  10.367   1.940
 8895W        W81210  40.623  25.504   0.519
 8896W        W81211  33.029  21.649  14.527
 8897W        W81212  43.786  29.373   2.550
 8898W        W81213   8.732  18.817  10.676
 8899W        W81214  43.721  25.856   1.432
 8900W        W81215  31.643  30.466   2.258
 8901W        W81216  33.654  30.547  10.606
 8902W        W81217  25.106  22.139   1.716
 8903W        W81218  32.582  21.007  14.340
 8904W        W81219  39.807  27.632  13.517
 8905W        W81220  14.942   7.445  11.140
 8906W        W81221  27.603   4.251  12.874
 8907W        W81222  37.608  18.223   0.495
 8908W        W81223  19.082   3.414   3.608
 8909W        W81224  39.264  12.189   1.732
 8910W        W81225  26.610  18.650   1.055
 8911W        W81226  14.792   9.030   2.650
 8912W        W81227  39.892  43.280  12.896
 8913W        W81228  10.839   0.840   4.389
 8914W        W81229   7.463   9.103   4.121
 8915W        W81230  18.622   2.058   9.527
 8916W        W81231  23.462  36.381  10.744
 8917W        W81232   0.231  35.044   0.485
 8918W        W81233  41.517   6.765  11.987
 8919W        W81234  40.970  20.983  14.349
 8920W        W81235  36.385  19.118  14.488
 8921W        W81236  40.796   5.984   0.282
 8922W        W81237  34.869  40.786   2.900
 8923W        W81238  15.877  31.036   4.665
 8924W        W81239   3.250  44.708  14.960
 8925W        W81240  19.920  23.140   0.779
 8926W        W81241  42.809  42.772   2.310
 8927W        W81242  32.923   2.439   2.742
 8928W        W81243  32.057  21.766  11.613
 8929W        W81244  19.643  20.798   4.428
 8930W        W81245  19.479  43.555  14.031
 8931W        W81246  28.558  31.552  10.140
 8932W        W81247  23.971  22.218   0.240
 8933W        W81248  11.151  27.687   2.388
 8934W        W81249  42.804  18.487   2.667
 8935W        W81250  36.013  19.856   0.085
 8936W        W81251  34.101  15.575  13.349
 8937W        W81252   1.452  13.188  12.572
 8938W        W81253  15.811  16.838   0.288
 8939W        W81254   4.929  41.556  13.491
 8940W        W81255  42.447  36.090   0.758
 8941W        W81256  18.033  39.768  11.527
 8942W        W81257   3.058  18.595   4.702
 8943W        W81258   5.596  34.311  13.853
 8944W        W81259   7.497  44.995  12.828
 8945W        W81260   5.943  29.199  13.843
 8946W        W81261  42.879  10.301   4.710
 8947W        W81262  16.341  36.915  12.840
 8948W        W81263  18.918  30.482   4.423
 8949W        W81264  20.852   6.287   0.955
 8950W        W81265  10.359  15.349  13.631
 8951W        W81266  28.323   7.750  12.827
 8952W        W81267  18.139  17.259  10.699
 8953W        W81268  14.166  25.046  11.151
 8954W        W81269  25.565  11.596  13.347
 8955W        W81270   2.827  42.690  14.826
 8956W        W81271  34.789  10.285   1.248
 8957W        W81272  12.477  37.594  13.360
 8958W        W81273   9.288  38.893   0.757
 8959W        W81274  26.452   2.681  11.428
 8960W        W81275  28.874   3.267  13.313
 8961W        W81276  16.010  27.276   4.144
 8962W        W81277   9.175  33.483  12.002
 8963W        W81278  40.844  20.727  13.043
 8964W        W81279  16.647  35.451  14.272
 8965W        W81280   4.445  14.456   1.936
 8966W        W81281  26.749   9.208   2.815
 8967W        W81282  41.464  34.381   1.006
 8968W        W81283  42.306   2.421   2.414
 8969W        W81284  21.710  19.196  12.446
 8970W        W81285  22.576  10.343   5.117
 8971W        W81286   0.579   9.221  11.287
 8972W        W81287  13.206  33.359   3.428
 8973W        W81288  29.197   3.283   2.294
 8974W        W81289  21.056  20.871   1.322
 8975W        W81290   5.760  44.372   3.773
 8976W        W81291  10.641  42.071   4.132
 8977W        W81292   2.292  27.776   1.310
 8978W        W81293  23.555   8.251   1.323
 8979W        W81294  33.091  30.154   1.826
 8980W        W81295  35.576   8.013   1.840
 8981W        W81296  39.529  43.906  13.361
 8982W        W81297  40.924  13.746  14.419
 8983W        W81298  31.573  43.773  10.440
 8984W        W81299  18.431  31.032   0.741
 8985W        W81300  13.653  17.493  11.528
 8986W        W81301  40.989  14.654   1.648
 8987W        W81302  11.728   3.957   1.220
 8988W        W81303  20.471  44.044  12.773
 8989W        W81304  10.241   5.893  12.090
 8990W        W81305   8.968  42.360  13.931
 8991W        W81306  10.404  31.963  13.423
 8992W        W81307  36.509  41.083  14.396
 8993W        W81308   1.727  20.529   3.376
 8994W        W81309  10.381  14.563  11.575
 8995W        W81310  16.884  25.244  12.515
 8996W        W81311  33.287  25.632  12.465
 8997W        W81312  16.635  35.818  13.906
 8998W        W81313   5.715  18.108   4.278
 8999W        W81314   6.358  32.038  10.593
 9000W        W81315   5.132   2.722   4.295
 9001W        W81316  19.574  32.884   0.176
 9002W        W81317  14.719  16.874  12.504
 9003W        W81318  19.299  23.576   1.764
 9004W        W81319  30.077  27.243   2.423
 9005W        W81320  13.118  34.891   2.230
 9006W        W81321   8.647   0.388   4.683
 9007W        W81322  20.162  29.204  12.135
 9008W        W81323  43.422  12.666   0.529
 9009W        W81324  41.748   5.543  12.518
 9010W        W81325   3.487   3.367  10.804
 9011W        W81326  30.726  14.315  12.514
 9012W        W81327  17.388  38.172  12.127
 9013W        W81328  42.588  40.867  13.989
 9014W        W81329  29.057  26.534  12.928
 9015W        W81330  36.462  17.116  11.727
 9016W        W81331  34.989  23.770   0.805
 9017W        W81332  13.848   2.970  12.450
 9018W        W81333   8.797  19.748  10.702
 9019W        W81334   7.623  27.065  13.407
 9020W        W81335  12.783  32.902   1.654
 9021W        W81336  20.737  41.242  11.014
 9022W        W81337   1.778  35.342  12.717
 9023W        W81338  16.266  16.090  10.946
 9024W        W81339  26.285  30.006   3.197
 9025W        W81340  26.499  44.751  14.420
 9026W        W81341  33.824   0.808  10.792
 9027W        W81342  27.933  40.893   2.665
 9028W        W81343   4.694  19.467  10.971
 9029W        W81344  21.523  11.749  13.448
 9030W        W81345  23.503  29.115   4.164
 9031W        W81346   2.493  42.470  14.406
 9032W        W81347  26.983  31.123   3.610
 9033W        W81348   3.515   0.412   3.876
 9034W        W81349   9.831  38.442  12.184
 9035W        W81350   5.349  31.682   2.989
 9036W        W81351  32.096  18.266   2.702
 9037W        W81352  13.658   3.930   3.749
 9038W        W81353   6.934   9.150  11.153
 9039W        W81354  12.851  24.736  12.791
 9040W        W81355  44.785   8.299   0.941
 9041W        W81356  19.669  15.162   1.382
 9042W        W81357  24.832  31.639   3.791
 9043W        W81358  25.592  28.511  11.881
 9044W        W81359  41.107  42.490   2.866
 9045W        W81360  40.435  40.999  12.867
 9046W        W81361   9.903  41.911   4.678
 9047W        W81362  24.029  19.133  11.480
 9048W        W81363  16.226  27.372   5.552
 9049W        W81364  29.916  15.296  11.513
 9050W        W81365  44.562   9.558   3.657
 9051W        W81366  15.619  38.411   0.067
 9052W        W81367   5.695  32.080   0.782
 9053W        W81368  40.575  31.227   4.126
 9054W        W81369   4.386  37.948   0.411
 9055W        W81370  41.527   2.911   2.261
 9056W        W81371  17.536  23.602   2.305
 9057W        W81372  37.107  34.432  13.491
 9058W        W81373   1.373   7.640  14.527
 9059W        W81374   8.250  41.153  11.081
 9060W        W81375  33.121  24.184  14.733
 9061W        W81376  27.677  15.819   1.295
 9062W        W81377  17.508  25.409   0.338
 9063W        W81378  30.702  25.778   1.318
 9064W        W81379   1.811  42.521  14.874
 9065W        W81380   1.557  42.690   4.305
 9066W        W81381  38.577   1.675  12.387
 9067W        W81382  32.137   5.942  12.859
 9068W        W81383   1.621  16.081  14.476
 9069W        W81384   4.770   5.175   0.232
 9070W        W81385  39.532  37.255   4.921
 9071W        W81386  39.399  31.384   0.339
 9072W        W81387  40.327  22.889  13.594
 9073W        W81388   2.153  36.847   0.876
 9074W        W81389   7.994   5.632  10.066
 9075W        W81390  40.476  32.257  14.475
 9076W        W81391  40.950   5.947  13.606
 9077W        W81392  28.388   8.675   3.812
 9078W        W81393  22.799  24.665  10.401
 9079W        W81394  36.263  32.960   2.477
 9080W        W81395  22.704  22.267   9.551
 9081W        W81396  28.563   3.418  12.905
 9082W        W81397  32.332  25.259  13.747
 9083W        W81398  29.067  15.243   4.419
 9084W        W81399  17.119  39.553  14.055
 9085W        W81400  12.225  16.878   2.295
 9086W        W81401  44.318  38.583  10.027
 9087W        W81402  29.115  23.094   1.908
 9088W        W81403  39.673  41.481   2.675
 9089W        W81404  28.505   5.932   5.046
 9090W        W81405  24.708  26.112  11.862
 9091W        W81406  29.085  40.642   3.795
 9092W        W81407  19.007  26.072   4.773
 9093W        W81408   4.342  19.805  12.163
 9094W        W81409  33.143  17.145   0.825
 9095W        W81410  26.081  14.327  12.523
 9096W        W81411  10.728  41.649   3.177
 9097W        W81412  43.777  16.741   3.793
 9098W        W81413  42.288  21.497  11.494
 9099W        W81414  20.127  36.800  14.690
 9100W        W81415  44.978  38.209  13.475
 9101W        W81416  27.250   8.964  11.093
 9102W        W81417  43.343   2.706  11.590
 9103W        W81418   0.880  20.550   5.045
 9104W        W81419   7.304  11.032   1.500
 9105W        W81420  12.561  41.689  14.794
 9106W        W81421  29.819   0.527  14.529
 9107W        W81422  40.658  30.260  12.061
 9108W        W81423  36.472  17.776   3.257
 9109W        W81424  37.498   7.204   2.474
 9110W        W81425  34.992   7.168  13.970
 9111W        W81426  44.989   2.326  11.094
 9112W        W81427  40.040   6.326  14.942
 9113W        W81428  13.336  17.091   0.003
 9114W        W81429  36.170   8.411   0.060
 9115W        W81430  25.235  32.694  14.400
 9116W        W81431   5.622   5.933  13.973
 9117W        W81432   0.550  15.683  10.226
 9118W        W81433  16.131  20.510  11.900
 9119W        W81434   6.510  33.470   2.803
 9120W        W81435  17.832  12.769  14.824
 9121W        W81436  41.815  30.414  12.514
 9122W        W81437  12.699  43.083  11.011
 9123W        W81438   4.748  19.223   0.772
 9124W        W81439  42.853  16.011   3.713
 9125W        W81440  33.352  31.708  12.578
 9126W        W81441  27.417   4.925   2.239
 9127W        W81442  36.662  23.079  14.777
 9128W        W81443  39.332  14.111  12.511
 9129W        W81444  23.738  20.682   4.274
 9130W        W81445   6.399  17.591  12.902
 9131W        W81446  10.376  13.803   2.268
 9132W        W81447   6.297  32.417  13.107
 9133W        W81448   0.442   8.207   1.795
 9134W        W81449  18.215  37.266  13.450
 9135W        W81450  38.362  16.424  14.786
 9136W        W81451  24.602   1.508   1.286
 9137W        W81452  12.222  21.644   4.906
 9138W        W81453  20.144   2.973   0.010
 9139W        W81454  17.245  35.796  13.572
 9140W        W81455  32.221  41.251  12.498
 9141W        W81456   4.828  19.031  12.450
 9142W        W81457  24.206   8.700   0.469
 9143W        W81458   6.452  29.116  11.948
 9144W        W81459  28.567   4.185  10.214
 9145W        W81460  35.022  25.340  10.124
 9146W        W81461   0.315  11.180  13.343
 9147W        W81462  34.871  28.521   4.490
 9148W        W81463   9.286  37.459   2.406
 9149W        W81464  10.600   3.632  12.642
 9150W        W81465  19.804  43.941   4.611
 9151W        W81466  11.173  37.322  10.734
 9152W        W81467  42.554  43.539   1.236
 9153W        W81468   6.146  22.997  13.515
 9154W        W81469   5.870   5.461  13.986
 9155W        W81470  34.518  10.386  10.557
 9156W        W81471  42.324  16.989  11.073
 9157W        W81472  20.601   7.393   4.497
 9158W        W81473   1.378  21.960   2.648
 9159W        W81474  34.510  39.959   0.766
 9160W        W81475  39.483  37.376  11.968
 9161W        W81476  27.103  16.550  10.489
 9162W        W81477  27.255  38.371   1.855
 9163W        W81478  13.189  44.700  11.469
 9164W        W81479  41.930  26.444   1.234
 9165W        W81480   4.076  28.060   3.389
 9166W        W81481  38.370  24.625  13.318
 9167W        W81482  21.608   7.944   1.322
 9168W        W81483   4.421   8.562  13.373
 9169W        W81484  21.704  25.021   2.340
 9170W        W81485  34.440  15.684   4.576
 9171W        W81486  22.607  39.663   3.740
 9172W        W81487  42.492   5.155   4.624
 9173W        W81488  28.603  42.899  11.128
 9174W        W81489  38.026  32.576  14.127
 9175W        W81490  40.015  33.130   2.582
 9176W        W81491   8.329  27.664  13.136
 9177W        W81492  21.539  26.579   3.288
 9178W        W81493  29.457   7.081  13.894
 9179W        W81494  36.565  26.531  14.078
 9180W        W81495   0.251   8.381  10.983
 9181W        W81496  13.605  15.980  13.464
 9182W        W81497  34.511   9.790  11.334
 9183W        W81498  37.669  11.590  13.222
 9184W        W81499  42.703  20.291  11.144
 9185W        W81500  18.784   1.363   1.354
 9186W        W81501  25.050  32.778   1.915
 9187W        W81502  25.854  37.355   4.790
 9188W        W81503  26.506  28.574   3.260
 9189W        W81504  32.218  24.719   2.438
 9190W        W81505  26.290  29.340  11.056
 9191W        W81506  26.138   4.376   1.223
 9192W        W81507  32.189  31.328   4.821
 9193W        W81508  11.622  27.730  10.408
 9194W        W81509  15.217  35.942   2.023
 9195W        W81510  31.322   7.168  13.557
 9196W        W81511  18.145  23.163   3.206
 9197W        W81512  32.686   3.629  14.474
 9198W        W81513  10.185  31.882   9.789
 9199W        W81514  17.982  39.483   1.681
 9200W        W81515  40.323  22.133   3.282
 9201W        W81516   2.792  32.854  14.961
 9202W        W81517  20.400  32.030   3.701
 9203W        W81518  22.943  42.073   3.217
 9204W        W81519  39.315  25.432   3.796
 9205W        W81520  31.093  34.362  12.307
 9206W        W81521  10.873  35.455   0.393
 9207W        W81522  10.285  22.395  10.330
 9208W        W81523  10.806  21.322  12.830
 9209W        W81524   7.665  24.536   4.532
 9210W        W81525  16.785  39.005  11.860
 9211W        W81526   7.581  22.760   1.821
 9212W        W81527  26.729  25.251  11.924
 9213W        W81528  25.037   4.941   1.395
 9214W        W81529  29.039  35.306  12.434
 9215W        W81530  40.618  23.692   2.958
 9216W        W81531   4.408  15.916   1.748
 9217W        W81532  33.969  39.003  12.117
 9218W        W81533  27.890   7.196  10.109
 9219W        W81534  41.524  25.602   1.680
 9220W        W81535   2.805  26.936  13.537
 9221W        W81536  28.857   2.203  12.899
 9222W        W81537  23.567  30.611   3.146
 9223W        W81538  21.778  39.717   2.773
 9224W        W81539  39.553  44.965   3.819
 9225W        W81540  27.217   1.654  12.330
 9226W        W81541  28.420   6.871  11.524
 9227W        W81542  25.220  37.165   4.836
 9228W        W81543  32.871  19.003   2.416
 9229W        W81544  14.237  20.810   1.759
 9230W        W81545  14.699  29.622   2.796
 9231W        W81546  18.247  36.359  11.384
 9232W        W81547  30.676  26.088  13.073
 9233W        W81548  39.121  24.867  10.335
 9234W        W81549   0.774  29.084   0.552
 9235W        W81550  37.541  31.201  10.723
 9236W        W81551  11.012  28.890  13.404
 9237W        W81552   9.248  36.818   1.619
 9238W        W81553  28.534   3.146  11.526
 9239W        W81554  34.581  24.211  14.878
 9240W        W81555   6.637  19.262   1.853
 9241W        W81556  10.128  18.803  10.685
 9242W        W81557   0.776  42.009   4.600
 9243W        W81558  12.330  16.375  13.871
 9244W        W81559   0.429   5.736   2.829
 9245W        W81560  20.656  16.347  12.553
 9246W        W81561  35.306  26.075  11.134
 9247W        W81562  27.900  44.441   0.617
 9248W        W81563  23.799  24.703  14.967
 9249W        W81564   0.187  36.310   9.835
 9250W        W81565  28.967   5.353   4.478
 9251W        W81566  44.861  21.542  14.383
 9252W        W81567   9.381  20.248  11.172
 9253W        W81568   4.311   8.048  13.381
 9254W        W81569  14.185  19.115  14.166
 9255W        W81570  28.906  44.007   1.502
 9256W        W81571   3.989  42.236   4.602
 9257W        W81572   1.318  22.214  10.763
 9258W        W81573  29.231  14.853  14.155
 9259W        W81574   1.369   7.208   1.964
 9260W        W81575   8.180  16.546   1.959
 9261W        W81576   7.021   1.879   2.325
 9262W        W81577  15.119   5.297   3.338
 9263W        W81578   0.796  30.535   2.115
 9264W        W81579  37.347   2.571   2.620
 9265W        W81580  24.930  38.413   3.204
 9266W        W81581  21.687  37.979  11.879
 9267W        W81582  39.533  40.541  10.658
 9268W        W81583  36.707  43.233   1.342
 9269W        W81584   9.748  11.838  10.629
 9270W        W81585  17.203   3.740  12.979
 9271W        W81586  36.419  25.911  14.817
 9272W        W81587   3.318  22.619   3.960
 9273W        W81588  33.062  30.453   2.253
 9274W        W81589  32.943   0.325  11.093
 9275W        W81590   5.725  23.324  12.614
 9276W        W81591  23.133  28.363   2.156
 9277W        W81592  30.480  38.870   0.256
 9278W        W81593  33.412  30.664  14.831
 9279W        W81594  23.273  17.724  10.654
 9280W        W81595  38.976   8.134   1.719
 9281W        W81596   5.012  41.586   1.247
 9282W        W81597  15.334  14.853  11.090
 9283W        W81598  43.694  23.145   0.372
 9284W        W81599  38.831  39.554  14.268
 9285W        W81600  36.955  32.290   3.609
 9286W        W81601   0.203  20.514   1.642
 9287W        W81602  16.618  34.092  14.585
 9288W        W81603   7.104  15.775   3.196
 9289W        W81604  22.842  25.764  14.805
 9290W        W81605  33.102  36.618  14.371
 9291W        W81606   6.251  41.525   3.159
 9292W        W81607   9.722  29.433  11.052
 9293W        W81608  43.050   6.188  14.233
 9294W        W81609  44.218  25.969   2.911
 9295W        W81610   7.710  13.663  11.563
 9296W        W81611  15.314  42.069   0.738
 9297W        W81612   8.680  14.212   0.781
 9298W        W81613  38.114  33.886  11.983
 9299W        W81614  16.632  18.194   4.652
 9300W        W81615   3.077  35.361  12.951
 9301W        W81616  19.943   7.381   2.372
 9302W        W81617  34.367   4.307  14.860
 9303W        W81618  32.058  12.190   3.798
 9304W        W81619  29.017   6.579  10.087
 9305W        W81620  44.909  25.537   4.693
 9306W        W81621   4.974  24.478  12.003
 9307W        W81622  21.869  17.062  13.389
 9308W        W81623   2.440  40.503   0.535
 9309W        W81624  43.212  36.018   3.317
 9310W        W81625  13.447  34.452   2.866
 9311W        W81626  15.630   9.674   4.310
 9312W        W81627   3.189  37.768   0.871
 9313W        W81628  16.443  25.143  13.452
 9314W        W81629  30.386   7.406  14.978
 9315W        W81630  38.033  10.402  13.629
 9316W        W81631  36.151  17.775   1.353
 9317W        W81632   9.897  27.695   0.021
 9318W        W81633   2.143  17.246   3.810
 9319W        W81634  39.284  44.091   1.341
 9320W        W81635  39.065   4.151  12.385
 9321W        W81636  38.512  44.851   4.539
 9322W        W81637  28.626  22.482   2.338
 9323W        W81638   4.263  22.682  14.416
 9324W        W81639  29.605  36.918  14.242
 9325W        W81640  44.280  39.868  10.485
 9326W        W81641  44.918   7.035  10.761
 9327W        W81642  27.678  16.912   0.384
 9328W        W81643  24.748  22.063  11.153
 9329W        W81644   0.353  18.479  13.560
 9330W        W81645   8.836  29.559   3.882
 9331W        W81646   3.638  34.403  10.389
 9332W        W81647   7.123  37.396   1.779
 9333W        W81648   2.469   6.289  14.470
 9334W        W81649  18.490  35.312  14.375
 9335W        W81650  18.296  37.286   2.385
 9336W        W81651  20.190  29.730  10.765
 9337W        W81652  26.651   4.029  14.652
 9338W        W81653  12.849  13.282  13.927
 9339W        W81654   1.115  34.510  12.803
 9340W        W81655  18.458  32.222   4.337
 9341W        W81656  20.359  33.639  13.431
 9342W        W81657  25.480  31.748  12.394
 9343W        W81658  10.150   4.916  12.402
 9344W        W81659  40.495  36.951   1.930
 9345W        W81660  30.583  17.229  11.669
 9346W        W81661  19.735  14.867   3.335
 9347W        W81662  23.879  19.544   3.751
 9348W        W81663  42.277  25.043   2.960
 9349W        W81664   1.390  31.590  14.930
 9350W        W81665  14.723  43.430   3.209
 9351W        W81666  41.797   7.284   0.254
 9352W        W81667  26.466  26.125   0.348
 9353W        W81668  41.324  14.849   1.987
 9354W        W81669  11.317  14.131  12.935
 9355W        W81670  31.929   2.876   4.823
 9356W        W81671  10.916  30.681  14.396
 9357W        W81672   4.189   8.135  11.405
 9358W        W81673  13.840   8.695  10.556
 9359W        W81674   9.866   6.203   0.407
 9360W        W81675   8.733  39.807   0.698
 9361W        W81676   4.360   0.448   0.316
 9362W        W81677  36.999   2.797   3.393
 9363W        W81678  28.216  34.980   4.231
 9364W        W81679  21.000  16.308   2.216
 9365W        W81680   4.110  22.212  13.050
 9366W        W81681  32.586  33.449  11.182
 9367W        W81682   2.009  23.700   0.801
 9368W        W81683   6.186  28.532  14.078
 9369W        W81684  15.534  12.896   3.204
 9370W        W81685  42.877  11.636  11.060
 9371W        W81686  14.547  36.649   0.451
 9372W        W81687  25.937  14.840   4.523
 9373W        W81688   5.237   7.848  13.881
 9374W        W81689   1.322  31.024  10.650
 9375W        W81690  33.677  43.077  12.607
 9376W        W81691   2.510  17.088   0.230
 9377W        W81692  34.140  37.919   3.689
 9378W        W81693  35.016  37.059   1.242
 9379W        W81694  28.270   0.855   2.784
 9380W        W81695  24.658  39.975  13.810
 9381W        W81696  31.569  35.149  10.880
 9382W        W81697  17.682  37.702   3.641
 9383W        W81698  24.972  17.685  11.196
 9384W        W81699  31.927  17.087  10.658
 9385W        W81700  17.319  17.207  11.081
 9386W        W81701  19.086  11.303  11.928
 9387W        W81702  38.791  28.072   4.372
 9388W        W81703   6.764   1.329  12.051
 9389W        W81704   2.741  34.613   0.858
 9390W        W81705   8.747   6.756  11.578
 9391W        W81706  27.943  42.772   3.177
 9392W        W81707   8.680  32.037  10.246
 9393W        W81708  37.337  38.314  11.642
 9394W        W81709   2.269  38.667  12.529
 9395W        W81710  42.763  38.146  13.866
 9396W        W81711   3.993  23.192   1.859
 9397W        W81712  39.374  19.960  10.632
 9398W        W81713  33.946  10.314   2.573
 9399W        W81714   3.478  40.927  11.356
 9400W        W81715  41.525  18.602  11.940
 9401W        W81716  10.640  33.043   1.299
 9402W        W81717   8.688  16.669   2.401
 9403W        W81718  21.563  40.523   1.921
 9404W        W81719   6.837   6.091  11.925
 9405W        W81720  37.611  31.065  12.071
 9406W        W81721  26.938  43.981   4.007
 9407W        W81722   3.652  11.362   0.905
 9408W        W81723  11.347  30.864  10.428
 9409W        W81724  38.033  44.369  14.794
 9410W        W81725  10.405   1.265   3.755
 9411W        W81726   8.290  25.524  12.559
 9412W        W81727   9.417  30.667   2.711
 9413W        W81728  43.425  21.718   3.828
 9414W        W81729  10.490   3.406   3.243
 9415W        W81730  11.333  36.422  13.993
 9416W        W81731   1.896  10.453   5.036
 9417W        W81732  32.404  11.024  13.425
 9418W        W81733  25.629  34.274  12.033
 9419W        W81734   6.134  20.445  14.057
 9420W        W81735  30.547   3.591   1.937
 9421W        W81736  40.417  42.806   2.106
 9422W        W81737   0.258   7.960   3.393
 9423W        W81738   8.617  40.075   5.184
 9424W        W81739  16.816  44.448   2.238
 9425W        W81740  41.984  33.515   1.798
 9426W        W81741  19.684   4.250  12.123
 9427W        W81742  11.588  21.490  13.876
 9428W        W81743  16.746  27.380   3.278
 9429W        W81744  10.849  33.449  10.724
 9430W        W81745  31.371  31.521  13.490
 9431W        W81746   0.863  13.878   3.171
 9432W        W81747  26.000  44.997  12.164
 9433W        W81748  41.807  17.301   5.057
 9434W        W81749  32.417  32.983   4.529
 9435W        W81750   4.999  20.470  13.373
 9436W        W81751  29.997  28.191   4.429
 9437W        W81752  28.621  33.032  13.045
 9438W        W81753  19.333  25.158   4.307
 9439W        W81754  34.978  29.130   0.567
 9440W        W81755  44.256  22.461   0.543
 9441W        W81756   7.466  31.131  11.547
 9442W        W81757   7.959  24.377  12.925
 9443W        W81758  34.382  19.099   0.576
 9444W        W81759  24.496  28.485   3.266
 9445W        W81760   1.269  39.043  12.477
 9446W        W81761  14.311   7.411   1.310
 9447W        W81762  44.412  23.571   1.269
 9448W        W81763  33.069  22.491  13.782
 9449W        W81764  12.749  16.626   3.125
 9450W        W81765  36.795  35.870  11.607
 9451W        W81766  25.449   5.980   4.767
 9452W        W81767  10.378  28.969   1.800
 9453W        W81768  26.979  32.866   1.689
 9454W        W81769  44.846  21.320  10.968
 9455W        W81770   7.803  24.620  14.250
 9456W        W81771  25.129   9.564   3.660
 9457W        W81772  28.176  10.058  10.611
 9458W        W81773  14.165  16.940   4.171
 9459W        W81774   6.910  24.216   3.818
 9460W        W81775  26.738  31.792   2.724
 9461W        W81776  40.371  35.376  11.489
 9462W        W81777   6.762  41.986  13.424
 9463W        W81778  44.336  39.943  11.514
 9464W        W81779  34.331  17.155   3.269
 9465W        W81780  30.409  36.454  10.595
 9466W        W81781  21.204  20.034  12.453
 9467W        W81782  21.246  33.797   2.820
 9468W        W81783  28.540  23.131   4.091
 9469W        W81784  17.025   3.045  10.169
 9470W        W81785  29.417  24.091  13.844
 9471W        W81786   8.598  19.745  12.918
 9472W        W81787  37.358  34.989  10.675
 9473W        W81788  18.982  44.803   3.214
 9474W        W81789  22.377  17.201   2.629
 9475W        W81790  16.667   1.585  11.419
 9476W        W81791  19.155  26.570  12.944
 9477W        W81792  23.741  35.281  12.499
 9478W        W81793  23.732  11.797   3.264
 9479W        W81794  11.606  12.126   4.009
 9480W        W81795  16.811  32.575   1.963
 9481W        W81796  36.005  12.836   0.892
 9482W        W81797  35.153  16.813  10.380
 9483W        W81798  37.984  26.672  10.016
 9484W        W81799   9.483  13.118  11.059
 9485W        W81800   3.276  13.271  11.564
 9486W        W81801  30.256  38.572  14.845
 9487W        W81802  10.358  13.352  12.021
 9488W        W81803  32.131  39.779  13.617
 9489W        W81804   0.494  26.034   2.387
 9490W        W81805  28.672  40.080  11.588
 9491W        W81806  44.380  28.397  11.350
 9492W        W81807  44.889  42.237   2.390
 9493W        W81808  22.557  40.567  13.805
 9494W        W81809  24.816  35.485  14.288
 9495W        W81810  11.749  12.547  13.683
 9496W        W81811  12.786  36.923  14.428
 9497W        W81812  13.107   6.846  10.642
 9498W        W81813   9.619  25.604   1.918
 9499W        W81814  38.211  16.897  14.887
 9500W        W81815  25.209  28.236   2.175
 9501W        W81816  20.907  43.050  11.870
 9502W        W81817  19.452   1.662   0.761
 9503W        W81818   3.599  15.176   2.295
 9504W        W81819   0.789  37.289   5.141
 9505W        W81820  42.801  10.193  14.763
 9506W        W81821  21.272  25.201   0.336
 9507W        W81822  24.214  14.669  11.539
 9508W        W81823   8.626   4.527   3.380
 9509W        W81824  43.281   8.378   1.677
 9510W        W81825  40.347  16.036   3.537
 9511W        W81826  42.788  42.870  13.474
 9512W        W81827  14.241  27.879   2.208
 9513W        W81828   4.210  35.835  13.133
 9514W        W81829  37.267   8.943  10.632
 9515W        W81830  39.726  14.704   0.887
 9516W        W81831  38.518  10.408   2.501
 9517W        W81832  29.494   7.305   1.706
 9518W        W81833  19.715  13.531  14.295
 9519W        W81834  42.849  18.350  13.580
 9520W        W81835  31.437   5.256   4.596
 9521W        W81836  43.780  44.523   4.551
 9522W        W81837   6.365   5.232  10.527
 9523W        W81838  16.757  12.614  12.086
 9524W        W81839  10.911   0.016   0.795
 9525W        W81840  32.930  11.614   4.678
 9526W        W81841  14.982   0.206  14.547
 9527W        W81842  15.818  21.240  13.379
 9528W        W81843  28.281  10.047  14.457
 9529W        W81844  16.725  19.161  12.854
 9530W        W81845  24.684  10.653  14.284
 9531W        W81846  11.756  44.018   4.182
 9532W        W81847  36.367  14.432  14.790
 9533W        W81848  43.060  21.989  10.804
 9534W        W81849   5.059  12.297   4.573
 9535W        W81850  41.891   5.904  10.712
 9536W        W81851  27.698  31.672  10.336
 9537W        W81852   4.455  21.021  13.981
 9538W        W81853  18.980  41.317  13.531
 9539W        W81854  33.425  35.394  10.696
 9540W        W81855  41.013  30.649  12.080
 9541W        W81856   1.156   8.232   3.263
 9542W        W81857  35.547  20.651   3.617
 9543W        W81858  28.994  18.775   0.701
 9544W        W81859  29.837  18.660   4.138
 9545W        W81860   5.679  11.073  10.899
 9546W        W81861  38.253  13.766   2.188
 9547W        W81862   2.206  30.791  11.195
 9548W        W81863  30.144  15.616  11.180
 9549W        W81864  41.805   7.590  13.313
 9550W        W81865  29.524   4.661   3.403
 9551W        W81866   9.841  21.699  13.013
 9552W        W81867  35.059  33.934  10.316
 9553W        W81868  32.277   7.495   3.222
 9554W        W81869  21.523  24.094   4.988
 9555W        W81870   8.890  14.601  12.449
 9556W        W81871  17.087   2.453  14.484
 9557W        W81872  18.218  31.890   3.727
 9558W        W81873  41.419   6.829   1.775
 9559W        W81874  20.710  23.474   1.824
 9560W        W81875  29.681  16.367  11.340
 9561W        W81876  25.500  17.779   1.207
 9562W        W81877  42.259   3.422   1.287
 9563W        W81878  38.211  38.927  13.284
 9564W        W81879  25.252   5.287  14.466
 9565W        W81880   7.680  11.245  11.679
 9566W        W81881  19.525  37.956   0.499
 9567W        W81882  38.050   0.222   0.420
 9568W        W81883  32.927   9.866  12.325
 9569W        W81884  23.738  43.095  11.859
 9570W        W81885  20.226   4.959  14.928
 9571W        W81886  23.611  20.843   1.289
 9572W        W81887  13.187  33.927  13.729
 9573W        W81888   5.207  19.491   4.053
 9574W        W81889  29.898  23.568   3.068
 9575W        W81890  10.736  26.597  14.809
 9576W        W81891  43.271  18.525  12.439
 9577W        W81892  32.138  27.467  13.468
 9578W        W81893  23.703  30.017   4.413
 9579W        W81894  44.799  38.976  10.668
 9580W        W81895  21.337   1.700   1.346
 9581W        W81896  35.745   9.043  13.988
 9582W        W81897  10.644  22.293  13.282
 9583W        W81898  21.111   8.678  12.062
 9584W        W81899  35.342  17.256  12.898
 9585W        W81900   7.396   5.245  13.913
 9586W        W81901  10.689  34.522   1.319
 9587W        W81902  41.925  43.896  12.138
 9588W        W81903  33.470  36.890  10.523
 9589W        W81904   6.229  34.904   3.086
 9590W        W81905  28.890   5.795  11.012
 9591W        W81906  20.459  44.492  12.537
 9592W        W81907  17.594   6.806   4.381
 9593W        W81908   9.107  23.632  14.104
 9594W        W81909  23.456   1.996  13.555
 9595W        W81910  26.457   5.779   2.395
 9596W        W81911  25.097  18.853  10.692
 9597W        W81912  26.503   4.414  14.972
 9598W        W81913  26.198  19.666  14.377
 9599W        W81914   3.393  29.470   0.401
 9600W        W81915  11.289   7.024  12.492
 9601W        W81916  20.811  11.147  14.351
 9602W        W81917  42.249  19.713   4.197
 9603W        W81918  22.850   1.713   0.279
 9604W        W81919  31.665  43.423   3.307
 9605W        W81920   4.281   5.361   0.302
 9606W        W81921  22.378   6.093   1.329
 9607W        W81922   3.894   1.708  10.159
 9608W        W81923   8.399  14.560  12.560
 9609W        W81924   7.795  30.601  12.001
 9610W        W81925  33.165  15.661   2.357
 9611W        W81926   9.254   1.973   2.769
 9612W        W81927   8.986  41.797   1.460
 9613W        W81928  34.400  42.140  10.729
 9614W        W81929  33.908  39.381  10.791
 9615W        W81930  13.619  11.084   1.941
 9616W        W81931  32.492  36.269  11.205
 9617W        W81932   9.394  24.077  12.818
 9618W        W81933  18.129   4.755  13.349
 9619W        W81934  23.026  43.771  12.883
 9620W        W81935   5.184  22.778   0.712
 9621W        W81936  24.224  24.432   3.050
 9622W        W81937  33.953  31.074  14.472
 9623W        W81938  11.821  28.194  10.565
 9624W        W81939  16.526  26.917  14.994
 9625W        W81940  15.981  40.886  13.393
 9626W        W81941  36.872   1.597   0.930
 9627W        W81942   0.863  27.444   2.722
 9628W        W81943  14.608  21.365  13.424
 9629W        W81944  43.398  18.302  13.547
 9630W        W81945   4.271   0.296   3.249
 9631W        W81946  25.692  13.869  11.141
 9632W        W81947  29.245   2.312   4.198
 9633W        W81948  30.553   5.761  14.500
 9634W        W81949  41.486  43.406   0.559
 9635W        W81950  15.754  22.628   2.421
 9636W        W81951   9.861  13.378   1.889
 9637W        W81952  13.617   1.870  13.149
 9638W        W81953   6.884   1.909  14.274
 9639W        W81954  25.348  30.453   1.315
 9640W        W81955  21.953  36.825  12.384
 9641W        W81956   2.307  20.129   4.582
 9642W        W81957  31.063  15.215   1.525
 9643W        W81958  16.786  29.435   2.202
 9644W        W81959  39.787  13.248   3.303
 9645W        W81960  44.203  38.047  14.894
 9646W        W81961  15.464  16.218   2.350
 9647W        W81962  23.238  12.606   1.395
 9648W        W81963  22.215  32.378   2.823
 9649W        W81964  39.253   4.445   4.184
 9650W        W81965  42.738  26.425   1.883
 9651W        W81966  12.198  43.864  12.439
 9652W        W81967  30.748  20.501  11.618
 9653W        W81968   1.411  26.445   1.339
 9654W        W81969  35.086   4.977  11.901
 9655W        W81970  24.694  38.593  13.587
 9656W        W81971  16.373  28.709   0.314
 9657W        W81972  11.707  16.233  10.154
 9658W        W81973  16.818  28.931  13.463
 9659W        W81974   8.298  40.349   0.358
 9660W        W81975  31.864  12.498  11.204
 9661W        W81976  12.224  37.121  13.363
 9662W        W81977  22.171   9.713  14.831
 9663W        W81978   6.484  19.398  14.227
 9664W        W81979  30.356  37.294  14.540
 9665W        W81980  15.798  41.903   5.004
 9666W        W81981  19.498  27.185  11.613
 9667W        W81982  42.949  33.946  12.918
 9668W        W81983  36.183  10.688   3.250
 9669W        W81984  33.638   9.090  14.883
 9670W        W81985  17.519  21.553  12.004
 9671W        W81986  25.941  40.479   0.246
 9672W        W81987  33.332  43.468  11.772
 9673W        W81988  31.688   0.057  10.842
 9674W        W81989  16.147  18.705  14.521
 9675W        W81990  38.217  14.231  12.454
 9676W        W81991  19.292  24.088   1.964
 9677W        W81992  24.610  31.100  13.802
 9678W        W81993  23.223  43.983  14.865
 9679W        W81994  42.392  41.956   3.921
 9680W        W81995  32.280  31.044  12.117
 9681W        W81996   0.333  17.262   2.421
 9682W        W81997  26.604  31.905   5.540
 9683W        W81998   3.387  38.410   4.132
 9684W        W81999  18.837  26.934  14.978
 9685W        W82000  39.369  35.029  10.861
 9686W        W82001  10.688  27.046  10.189
 9687W        W82002  22.151   6.395  11.072
 9688W        W82003  13.363  26.904  10.270
 9689W        W82004  36.938  31.269   3.615
 9690W        W82005  32.895   2.645   2.261
 9691W        W82006  27.637  35.339   0.074
 9692W        W82007   0.282  38.626   3.686
 9693W        W82008  25.118  18.851   3.803
 9694W        W82009   2.388  32.600  14.221
 9695W        W82010  28.701   3.485   2.328
 9696W        W82011  34.160   4.704   3.898
 9697W        W82012   0.893  20.317  14.165
 9698W        W82013  33.509  15.716   0.411
 9699W        W82014  44.404  44.493  14.904
 9700W        W82015  38.361  26.965   5.099
 9701W        W82016  14.863   3.917  10.707
 9702W        W82017   4.085  11.715  10.494
 9703W        W82018  40.036  35.098   1.741
 9704W        W82019  26.589  42.420   2.253
 9705W        W82020  24.618  13.626  11.688
 9706W        W82021   8.895  32.575  14.947
 9707W        W82022  42.301  30.610   0.233
 9708W        W82023  35.149   5.800  14.058
 9709W        W82024  41.864  43.761   1.188
 9710W        W82025  25.163  32.002   4.650
 9711W        W82026  41.238  28.984  11.992
 9712W        W82027  29.545  22.565   0.319
 9713W        W82028  20.691  24.233   4.242
 9714W        W82029  20.535  38.847   4.260
 9715W        W82030  18.412   1.720   1.433
 9716W        W82031  23.262  35.636  12.403
 9717W        W82032  31.147   4.426  12.727
 9718W        W82033  14.109  40.118   1.397
 9719W        W82034  41.336  11.209   4.900
 9720W        W82035   0.182  16.215  10.939
 9721W        W82036  10.052  34.608   5.137
 9722W        W82037  39.820  37.832   2.293
 9723W        W82038  30.378  38.463  11.528
 9724W        W82039   0.905  38.422  13.323
 9725W        W82040   1.678  33.707   3.389
 9726W        W82041  19.534   6.385   1.358
 9727W        W82042  40.185  23.313   0.477
 9728W        W82043  10.948  40.680  14.039
 9729W        W82044  38.889  21.043   3.429
 9730W        W82045  12.436  36.673   4.411
 9731W        W82046   0.281  15.779   4.673
 9732W        W82047   6.438  21.993   1.440
 9733W        W82048  11.093   7.754   3.410
 9734W        W82049   4.864   6.914  10.285
 9735W        W82050  43.936  29.182  11.570
 9736W        W82051  23.477  27.090  14.567
 9737W        W82052  14.532  40.310   2.802
 9738W        W82053  44.431   1.597  10.220
 9739W        W82054  15.809  24.049  14.928
 9740W        W82055  32.917  40.904  14.378
 9741W        W82056  26.262  24.747   1.737
 9742W        W82057  23.573  23.147  13.904
 9743W        W82058  43.845  17.804   1.910
 9744W        W82059   4.048   1.061   1.850
 9745W        W82060  21.086  24.382   2.605
 9746W        W82061   2.803  12.283   4.590
 9747W        W82062  42.380  42.137   0.234
 9748W        W82063  40.858  14.580   3.784
 9749W        W82064  36.842  29.104  11.195
 9750W        W82065  41.584  26.138  12.669
 9751W        W82066  24.673  15.764  12.540
 9752W        W82067  28.332  41.407  10.147
 9753W        W82068  32.077  43.815   1.119
 9754W        W82069  13.047  12.077   4.271
 9755W        W82070  42.256  20.591   4.374
 9756W        W82071  17.644  44.647   1.959
 9757W        W82072  30.896  16.744   2.489
 9758W        W82073  44.533  38.067   0.754
 9759W        W82074  42.997   6.354  13.735
 9760W        W82075  20.955   9.801  11.540
 9761W        W82076  13.609  16.980  11.465
 9762W        W82077  33.098  43.089  12.455
 9763W        W82078  41.307   9.301  13.801
 9764W        W82079  42.282  13.647  13.616
 9765W        W82080   1.829  21.532  10.661
 9766W        W82081  10.851  40.943   4.887
 9767W        W82082   2.297  33.858  11.557
 9768W        W82083  27.567   3.207   0.865
 9769W        W82084  42.806  18.845  10.697
 9770W        W82085  13.770  25.053  14.727
 9771W        W82086  24.540  21.808   9.898
 9772W        W82087  13.706  12.097  12.177
 9773W        W82088  34.683  26.228   3.229
 9774W        W82089  12.187   4.347   1.818
 9775W        W82090  41.300   4.015  14.451
 9776W        W82091  42.636  27.078   4.470
 9777W        W82092  18.339  40.295  11.497
 9778W        W82093  16.134  14.606   2.783
 9779W        W82094  25.732  38.277  12.322
 9780W        W82095  19.996  44.248  12.629
 9781W        W82096  32.013  13.285   4.584
 9782W        W82097  24.648  30.527  12.576
 9783W        W82098  40.834  33.665  11.571
 9784W        W82099  29.962  30.515   4.622
 9785W        W82100  37.457   8.470  13.387
 9786W        W82101  25.564   5.668   1.894
 9787W        W82102  11.531  41.442   4.240
 9788W        W82103   2.678  42.994   1.913
 9789W        W82104   3.018   6.278  11.156
 9790W        W82105  13.123   6.882   0.938
 9791W        W82106  11.794  34.667   3.632
 9792W        W82107  41.385  34.441  14.516
 9793W        W82108   3.791  22.009  10.331
 9794W        W82109  11.294  15.422  13.349
 9795W        W82110  43.715  41.016  11.000
 9796W        W82111  22.011  10.226  14.288
 9797W        W82112  26.979  37.994  14.838
 9798W        W82113   7.705   4.361   2.428
 9799W        W82114   9.928  40.522   3.371
 9800W        W82115   0.011  43.910   2.412
 9801W        W82116  24.917  40.340   0.250
 9802W        W82117  12.627   3.427   4.061
 9803W        W82118  38.659  33.182  14.417
 9804W        W82119   6.816  21.208   2.749
 9805W        W82120  15.588  29.399  12.985
 9806W        W82121  38.093  43.467  11.503
 9807W        W82122  20.241  14.869   0.015
 9808W        W82123  26.614  12.635   2.825
 9809W        W82124  41.227  33.218   1.502
 9810W        W82125   7.497   8.043   4.179
 9811W        W82126  24.648  17.194   2.375
 9812W        W82127  26.277  20.679   0.034
 9813W        W82128   3.296  11.324  10.780
 9814W        W82129  26.828   8.702   0.981
 9815W        W82130  26.758  15.859  14.977
 9816W        W82131  29.041  27.788  14.819
 9817W        W82132  27.445  17.701   1.211
 9818W        W82133  30.226  18.536   2.781
 9819W        W82134  10.200  30.324   1.791
 9820W        W82135  27.906  31.943  11.890
 9821W        W82136   0.736   0.385  10.658
 9822W        W82137   3.715  37.755   4.593
 9823W        W82138  32.955  33.171  14.319
 9824W        W82139   5.807  13.765   2.692
 9825W        W82140  26.462  34.978   1.411
 9826W        W82141  32.637   1.499   4.439
 9827W        W82142  32.863  16.583  13.334
 9828W        W82143   0.507   9.622   2.463
 9829W        W82144  11.348  30.556   1.986
 9830W        W82145   6.695   8.746   2.181
 9831W        W82146  12.904  17.967  11.171
 9832W        W82147  21.124   1.279  13.793
 9833W        W82148  33.947  26.934   2.162
 9834W        W82149  18.432  19.132  10.693
 9835W        W82150   2.808  27.997   2.190
 9836W        W82151   8.381  17.034   2.103
 9837W        W82152  27.043  28.698   3.296
 9838W        W82153   9.695   7.157  11.055
 9839W        W82154  40.820  31.663   0.051
 9840W        W82155  41.390   9.252   2.244
 9841W        W82156  16.172  22.076  12.078
 9842W        W82157  19.043  13.663  11.926
 9843W        W82158  33.632  14.519   3.631
 9844W        W82159  14.298  23.200  10.726
 9845W        W82160  22.013  39.444   0.434
 9846W        W82161  28.411  16.135   4.012
 9847W        W82162  15.197  23.032   5.010
 9848W        W82163  22.042  37.390   4.481
 9849W        W82164  32.631  43.566  11.103
 9850W        W82165  40.456  28.979  14.540
 9851W        W82166   0.211   0.906  13.283
 9852W        W82167  21.878  23.549  14.641
 9853W        W82168  17.326   7.783   0.711
 9854W        W82169  35.144   3.213   0.213
 9855W        W82170  19.790  17.670  12.982
 9856W        W82171   5.340  14.606  12.690
 9857W        W82172  36.963  14.372   2.835
 9858W        W82173   4.929  22.426  12.078
 9859W        W82174  13.079  17.267   2.699
 9860W        W82175   5.399   3.415   3.137
 9861W        W82176  17.395  40.390  10.657
 9862W        W82177  26.732   4.322   5.540
 9863W        W82178   5.760  21.594   4.479
 9864W        W82179   0.413   3.808  14.256
 9865W        W82180  28.116  12.646   1.650
 9866W        W82181  39.404  28.166   2.784
 9867W        W82182  39.564   3.317  13.995
 9868W        W82183  19.297  27.190  11.149
 9869W        W82184   1.826  38.018  10.784
 9870W        W82185  29.220   0.851  11.913
 9871W        W82186   8.283  30.619   4.714
 9872W        W82187  11.891   6.125   1.947
 9873W        W82188  34.749  11.285  12.006
 9874W        W82189  39.486  20.224   1.361
 9875W        W82190  32.752  21.131  13.829
 9876W        W82191   3.493  15.729  11.172
 9877W        W82192   9.719  17.203  10.464
 9878W        W82193   3.717  34.403  12.889
 9879W        W82194  17.776  37.259  13.879
 9880W        W82195  18.117  27.568   4.765
 9881W        W82196  35.958  27.934  13.053
 9882W        W82197  30.122  28.712  13.630
 9883W        W82198  32.027   7.765   2.851
 9884W        W82199   0.721  29.040   2.977
 9885W        W82200  38.385  37.431   3.715
 9886W        W82201  12.971   5.930  10.419
 9887W        W82202  35.434  25.668  11.926
 9888W        W82203  44.636  27.904  13.672
 9889W        W82204   0.282  42.787   1.275
 9890W        W82205   1.937  27.520   2.713
 9891W        W82206  33.583  37.922  10.966
 9892W        W82207  21.194   3.891   0.788
 9893W        W82208   7.786  11.764   4.746
 9894W        W82209   7.227  36.403  10.341
 9895W        W82210  41.793  27.089   2.800
 9896W        W82211  18.912   7.027   1.304
 9897W        W82212  13.893   6.879  11.867
 9898W        W82213   3.441   8.596   0.308
 9899W        W82214  36.009  20.002   4.123
 9900W        W82215  43.890   5.395   3.944
 9901W        W82216  27.686  12.372  10.682
 9902W        W82217  31.160  30.953  13.435
 9903W        W82218   6.377  27.631  11.223
 9904W        W82219  17.395  38.869   3.129
 9905W        W82220  22.686  22.487   0.674
 9906W        W82221  23.408  44.862  13.929
 9907W        W82222  10.645   7.782   3.145
 9908W        W82223   3.026  39.360  12.386
 9909W        W82224  17.104  38.778  14.431
 9910W        W82225  42.862  13.579  14.410
 9911W        W82226  28.186  12.384   3.465
 9912W        W82227  28.042   7.573   1.395
 9913W        W82228  27.576  30.246  13.663
 9914W        W82229  29.318  29.088   3.010
 9915W        W82230  28.743  15.116   3.114
 9916W        W82231  28.670   9.090   2.665
 9917W        W82232  27.989   2.939  13.479
 9918W        W82233  16.546  13.161  12.895
 9919W        W82234  13.884  44.818   1.447
 9920W        W82235   0.936  28.442  10.501
 9921W        W82236  29.926  21.953  10.696
 9922W        W82237  11.268   4.189   1.351
 9923W        W82238  15.981  25.113   4.672
 9924W        W82239   9.356  33.997   3.262
 9925W        W82240  30.082  41.314  14.033
 9926W        W82241  24.980   9.118   3.209
 9927W        W82242  29.036  40.016  12.408
 9928W        W82243  33.941  20.816   1.789
 9929W        W82244  24.038  29.500   0.829
 9930W        W82245  44.285  16.076   1.714
 9931W        W82246   0.338  27.677  11.380
 9932W        W82247  25.461   0.417   1.640
 9933W        W82248  40.911   1.963  14.544
 9934W        W82249  40.103   9.212  10.723
 9935W        W82250   5.759  40.373   3.825
 9936W        W82251  34.940  23.931   2.286
 9937W        W82252  32.172  10.833   0.738
 9938W        W82253  21.323   1.670   4.327
 9939W        W82254  31.348  13.689   4.101
 9940W        W82255   9.754  25.152   1.147
 9941W        W82256  42.898  29.638   2.253
 9942W        W82257  14.611   1.655  11.006
 9943W        W82258  42.450  12.315  12.521
 9944W        W82259  42.772  37.016  14.344
 9945W        W82260  22.647  39.913   0.023
 9946W        W82261   1.866  14.489   2.363
 9947W        W82262  43.969  15.641   5.025
 9948W        W82263  20.174  39.083   1.325
 9949W        W82264  20.537  44.529  11.637
 9950W        W82265  21.036   2.641  14.032
 9951W        W82266  29.622  37.375   0.978
 9952W        W82267   2.216  44.559   1.822
 9953W        W82268  39.268  35.369   2.660
 9954W        W82269  30.743   1.362  11.126
 9955W        W82270   2.666  37.453  10.707
 9956W        W82271   7.267   9.340   0.242
 9957W        W82272  20.724   1.270   3.012
 9958W        W82273   9.715  16.606   5.580
 9959W        W82274  36.307  39.091  14.348
 9960W        W82275   9.157  12.295  14.325
 9961W        W82276  14.186  21.448  12.019
 9962W        W82277  21.498  39.394   0.220
 9963W        W82278  29.994  39.997  14.471
 9964W        W82279  10.143  16.159  10.640
 9965W        W82280  24.365  14.091  13.395
 9966W        W82281  13.826   5.271  12.964
 9967W        W82282  16.342  38.911   0.262
 9968W        W82283  33.478   7.340   0.083
 9969W        W82284  26.589  44.213   3.714
 9970W        W82285  23.208  35.864  14.922
 9971W        W82286  43.210   1.205   1.262
 9972W        W82287  13.735  34.101  12.423
 9973W        W82288  36.118  26.672  10.629
 9974W        W82289   6.186  17.275  13.683
 9975W        W82290  28.730  23.242  10.788
 9976W        W82291  34.487   6.287   0.955
 9977W        W82292  18.863   2.911  10.447
 9978W        W82293  15.336  36.668   4.804
 9979W        W82294  40.667   4.750   3.703
 9980W        W82295  24.290  32.732  13.077
 9981W        W82296  30.499  25.553  12.010
 9982W        W82297  13.289  22.476  13.946
 9983W        W82298  29.571  33.929   2.878
 9984W        W82299  15.708  41.352   1.640
 9985W        W82300  38.472  10.958  11.623
 9986W        W82301  15.841  22.857  11.181
 9987W        W82302   6.667   7.200   3.008
 9988W        W82303  27.450  25.440   0.792
 9989W        W82304   8.949  43.887  13.803
 9990W        W82305   7.135  18.237  13.424
 9991W        W82306  37.743   0.342   4.556
 9992W        W82307  40.596  23.312   2.603
 9993W        W82308  32.679  18.720  11.984
 9994W        W82309  16.347  42.085   4.236
 9995W        W82310  12.723  26.673   0.423
 9996W        W82311  43.200  25.623  14.583
 9997W        W82312  16.161  36.761  10.573
 9998W        W82313  31.103  21.670  12.600
 9999W        W82314  33.073  25.375   3.770
10000W        W82315   9.253  23.886  11.906
10001W        W82316  16.144  31.586   1.644
10002W        W82317   0.951  33.464  11.052
10003W        W82318  21.061  20.381   1.183
10004W        W82319  43.826  11.475  10.653
10005W        W82320  27.108   9.727   1.909
10006W        W82321  23.114  27.101  14.984
10007W        W82322  19.701  23.540  13.940
10008W        W82323   1.136  15.098   0.983
10009W        W82324  32.926  28.987   3.209
10010W        W82325   9.949   2.754   2.984
10011W        W82326  36.396   1.476  14.518
10012W        W82327   1.862  32.614   4.106
10013W        W82328  42.018  24.676  11.825
10014W        W82329  10.590   1.821   0.323
10015W        W82330  17.277  16.509  14.101
10016W        W82331  43.997  14.320   4.077
10017W        W82332   9.234  40.056  11.670
10018W        W82333  25.937   3.680   3.130
10019W        W82334   2.978  19.808  12.916
10020W        W82335   8.698  19.612  11.178
10021W        W82336  18.582  11.502  11.766
10022W        W82337   5.635  44.338   2.136
10023W        W82338  17.328  44.121  12.002
10024W        W82339  32.564   5.328  11.545
10025W        W82340  33.401  25.791  14.753
10026W        W82341  19.523   4.913   2.819
10027W        W82342  26.047   1.166   4.698
10028W        W82343   7.619  35.651  11.168
10029W        W82344  33.058  37.799   3.587
10030W        W82345  29.371  14.402  13.337
10031W        W82346   2.326  33.428   2.764
10032W        W82347  37.330  35.038   3.749
10033W        W82348   8.233   1.495  11.864
10034W        W82349   7.158  37.015   1.419
10035W        W82350   9.308  26.517  11.561
10036W        W82351  41.276  39.953  14.375
10037W        W82352  19.786  15.284   4.677
10038W        W82353  33.474   6.836  14.398
10039W        W82354  11.676  32.654   3.725
10040W        W82355   1.274  26.107   0.656
10041W        W82356  33.430   2.333   2.763
10042W        W82357   4.534  14.744  14.013
10043W        W82358  18.096  33.082   2.807
10044W        W82359  20.903  13.264   2.354
10045W        W82360  21.627   6.138   2.819
10046W        W82361  19.056   7.607   9.827
10047W        W82362  43.530  35.604   2.669
10048W        W82363  15.394  33.061  12.507
10049W        W82364   2.010  38.395   1.907
10050W        W82365  22.118  33.078  11.614
10051W        W82366   0.760  43.801  13.431
10052W        W82367  29.414  44.266   5.094
10053W        W82368  29.045  40.309  13.968
10054W        W82369  18.704   1.216   3.789
10055W        W82370  13.076  11.875  10.571
10056W        W82371   9.133   6.019   2.291
10057W        W82372  16.061   4.181   4.679
10058W        W82373  28.694  26.252   1.916
10059W        W82374  10.166  20.089   2.624
10060W        W82375  24.005  25.151  10.593
10061W        W82376  32.664  10.302  10.741
10062W        W82377  42.584  23.613  11.345
10063W        W82378  13.429  24.226   4.558
10064W        W82379  30.530  40.102   3.234
10065W        W82380  14.213  41.229   0.781
10066W        W82381  17.371  41.064  11.161
10067W        W82382  35.458  33.852  13.565
10068W        W82383   5.167  22.957   4.489
10069W        W82384  33.080  35.055  14.986
10070W        W82385  36.561  39.356  13.003
10071W        W82386  22.321  26.128   0.212
10072W        W82387  19.038  20.786  10.053
10073W        W82388  41.697   6.350   3.773
10074W        W82389  37.435  19.837  11.234
10075W        W82390  26.061  33.999   9.593
10076W        W82391  17.560  17.102  11.543
10077W        W82392  38.375  36.235  10.934
10078W        W82393   2.894  28.900  14.765
10079W        W82394  44.631  30.312   4.646
10080W        W82395  20.188  34.616   2.254
10081W        W82396  39.099  36.984   4.630
10082W        W82397  22.045  37.622  11.941
10083W        W82398  33.935  30.076   0.364
10084W        W82399  15.214  28.910  10.820
10085W        W82400  20.099  12.326  10.752
10086W        W82401  16.174  38.040   2.699
10087W        W82402   7.898  17.331   4.531
10088W        W82403  31.550  28.397  12.848
10089W        W82404  27.908   8.458   0.413
10090W        W82405  24.028  26.281   3.238
10091W        W82406  43.569  30.456   4.520
10092W        W82407  22.010  11.785  10.209
10093W        W82408  35.921   0.280   0.816
10094W        W82409  14.639  12.223   2.306
10095W        W82410   3.720  30.495   3.204
10096W        W82411  39.402  32.608   1.324
10097W        W82412  37.427   9.787   2.434
10098W        W82413  20.172  30.917   1.963
10099W        W82414  20.594  23.074   4.688
10100W        W82415  12.350  27.661   0.361
10101W        W82416  10.987  29.309   3.707
10102W        W82417  41.041  14.589  11.988
10103W        W82418  10.110  44.913   3.785
10104W        W82419  24.971  20.296   1.792
10105W        W82420  14.746  41.788  13.023
10106W        W82421  15.837  27.426   2.345
10107W        W82422  42.068   4.104  13.028
10108W        W82423  21.324  18.760   1.167
10109W        W82424  34.180  24.052  13.747
10110W        W82425  18.751  27.951  14.483
10111W        W82426   4.513   9.853   4.838
10112W        W82427  29.080  30.485   2.881
10113W        W82428  33.438  31.200  12.570
10114W        W82429  38.353  40.532  12.519
10115W        W82430  15.241  43.222   2.507
10116W        W82431  40.326   7.636   0.838
10117W        W82432  23.798  25.575  12.441
10118W        W82433   0.423  26.950   3.810
10119W        W82434  20.679  28.434   1.375
10120W        W82435  36.182   5.945   3.390
10121W        W82436  40.814  24.279   4.135
10122W        W82437  13.233   1.189   1.038
10123W        W82438  21.004  26.015   2.697
10124W        W82439  25.375  21.435   4.109
10125W        W82440  37.434  32.551  11.026
10126W        W82441  12.589  44.405   4.639
10127W        W82442   2.507  11.772  12.430
10128W        W82443  40.372  26.480  11.018
10129W        W82444  44.494  37.463   5.040
10130W        W82445  26.684  40.474  10.294
10131W        W82446  22.435   4.656  11.443
10132W        W82447   1.392  41.313   3.001
10133W        W82448   1.642  36.998   0.808
10134W        W82449  20.178   2.313  12.183
10135W        W82450  41.586  32.624   2.816
10136W        W82451  17.176   5.869  10.750
10137W        W82452  15.911  37.451  10.367
10138W        W82453  22.276   5.153   4.956
10139W        W82454  10.972  14.242   4.816
10140W        W82455  14.430  21.585  12.994
10141W        W82456  24.479  12.833   4.545
10142W        W82457  43.201  22.649  12.509
10143W        W82458  13.601   6.139   3.722
10144W        W82459  28.069   9.750   4.319
10145W        W82460   7.795   9.765   0.009
10146W        W82461  39.550  36.535  10.729
10147W        W82462  25.666   5.795   3.802
10148W        W82463   0.225  18.588  14.439
10149W        W82464  37.137  37.077  13.794
10150W        W82465  19.311  33.849  10.987
10151W        W82466   1.668   8.563  14.499
10152W        W82467   3.501  15.258  11.784
10153W        W82468  22.182  21.633   4.214
10154W        W82469  19.451  21.385   2.310
10155W        W82470  29.469  23.864   9.916
10156W        W82471   0.033  14.602  11.142
10157W        W82472  36.925   8.874  13.107
10158W        W82473   6.440  17.508   4.929
10159W        W82474   7.834  40.454  14.037
10160W        W82475  12.260  13.281  14.785
10161W        W82476   5.256  32.390  14.943
10162W        W82477  42.559   6.155  12.624
10163W        W82478  32.533  23.688   1.253
10164W        W82479  27.405  40.009   2.611
10165W        W82480  15.860  28.138  10.686
10166W        W82481  29.842  44.894   1.319
10167W        W82482  22.023  27.969  13.601
10168W        W82483   7.129  41.450  11.911
10169W        W82484  29.963  22.195   4.565
10170W        W82485   0.413  32.604  12.555
10171W        W82486  40.993  26.766   4.286
10172W        W82487  21.072  22.501  11.817
10173W        W82488  38.508  22.073  13.850
10174W        W82489  35.160  27.721  14.846
10175W        W82490   5.264  32.036   4.561
10176W        W82491  34.016  39.505  12.308
10177W        W82492   0.753  42.473  10.422
10178W        W82493   2.350   8.477  12.431
10179W        W82494   4.378  22.792  12.430
10180W        W82495  23.588  13.362  11.049
10181W        W82496  39.638  42.291   0.793
10182W        W82497   3.861  20.322  12.889
10183W        W82498   2.281  39.020   2.308
10184W        W82499  19.452  43.008  10.688
10185W        W82500  38.609  38.350  12.116
10186W        W82501  28.975  25.044   0.007
10187W        W82502   9.416  16.366  11.606
10188W        W82503  23.490  36.348  13.859
10189W        W82504  12.425   3.968   1.587
10190W        W82505   5.279  28.447   0.216
10191W        W82506  28.833  38.028   2.846
10192W        W82507  16.231  20.180   4.745
10193W        W82508  22.454  33.472   2.713
10194W        W82509   9.771   2.482  11.135
10195W        W82510   2.730  30.019  10.628
10196W        W82511  16.785  36.527   2.261
10197W        W82512  41.432  43.099  13.029
10198W        W82513  18.843  41.898  11.088
10199W        W82514  26.007   0.987   3.682
10200W        W82515  21.259  43.189   1.064
10201W        W82516  12.337  22.461  10.986
10202W        W82517  42.721  15.837  12.231
10203W        W82518   4.856  26.752   1.427
10204W        W82519   4.916  40.567   3.596
10205W        W82520  36.322  35.534   4.206
10206W        W82521   5.805  35.886  12.486
10207W        W82522  31.273  17.693  13.590
10208W        W82523   3.911  35.838  12.437
10209W        W82524  43.659   3.479  12.629
10210W        W82525   9.650  37.313  14.865
10211W        W82526   1.179  22.170   2.150
10212W        W82527  17.526  16.558   0.200
10213W        W82528  28.033  29.386  10.449
10214W        W82529  42.737  15.837   4.988
10215W        W82530  30.670   3.466   0.416
10216W        W82531  37.867  11.895   1.376
10217W        W82532   1.146   9.341  12.789
10218W        W82533  42.910  22.617   3.616
10219W        W82534  25.466  30.500   3.240
10220W        W82535  21.442  36.085   0.502
10221W        W82536  36.932  25.694  14.077
10222W        W82537   3.298  43.868  14.372
10223W        W82538  36.759  11.541  12.835
10224W        W82539   1.673  15.834  12.612
10225W        W82540   9.696   2.678  14.019
10226W        W82541  16.569  28.554   1.262
10227W        W82542  41.413   5.727   4.850
10228W        W82543  14.825  32.849   4.133
10229W        W82544  10.092   3.449  14.681
10230W        W82545   2.889  36.898   2.901
10231W        W82546  22.592  32.951  13.262
10232W        W82547  11.908  32.011  13.796
10233W        W82548   8.870   8.093   0.743
10234W        W82549  18.930  22.217  11.553
10235W        W82550  22.559  17.262   3.510
10236W        W82551  20.337  41.910   2.631
10237W        W82552  10.451  26.060  10.301
10238W        W82553  36.011  29.431   1.186
10239W        W82554  18.220  16.257  13.342
10240W        W82555  40.068  20.729  11.460
10241W        W82556  30.306  14.770   2.285
10242W        W82557   4.583  38.845  11.091
10243W        W82558  15.286  23.230   3.973
10244W        W82559  33.537  40.349   3.642
10245W        W82560  31.478  22.555   0.307
10246W        W82561  11.131  18.697   1.151
10247W        W82562  28.416  40.679   2.816
10248W        W82563  42.188  36.672  10.944
10249W        W82564  37.083   7.747   0.408
10250W        W82565  28.661  32.636   2.350
10251W        W82566  23.969  40.509  14.051
10252W        W82567  41.253  22.036  11.015
10253W        W82568  39.745   7.583   2.771
10254W        W82569  11.772  11.784  14.404
10255W        W82570  38.027  39.871   2.889
10256W        W82571  28.168   0.394   3.654
10257W        W82572   7.073   5.656   4.326
10258W        W82573  26.181  33.106  11.167
10259W        W82574  36.516  41.637  12.582
10260W        W82575  26.540  14.782  13.939
10261W        W82576   9.671  30.191  11.556
10262W        W82577  14.307  35.129   1.837
10263W        W82578  39.699  23.930  14.953
10264W        W82579  25.425   7.694   1.867
10265W        W82580  39.240  35.020   2.225
10266W        W82581  13.408   8.697   0.584
10267W        W82582  18.068  15.380   0.761
10268W        W82583  28.719  30.579  12.861
10269W        W82584  22.442  20.047  13.238
10270W        W82585  42.516  35.637  13.510
10271W        W82586  15.801   1.279   4.533
10272W        W82587  30.211  11.469  12.610
10273W        W82588  26.335  16.749   2.717
10274W        W82589  22.572  15.812  10.828
10275W        W82590  33.081  29.544  11.045
10276W        W82591  37.364  40.328   0.994
10277W        W82592  40.061  33.994  14.905
10278W        W82593  35.520  21.037   2.129
10279W        W82594  36.754  13.916   2.734
10280W        W82595  44.329  11.619  13.274
10281W        W82596   7.614  27.608   0.749
10282W        W82597  41.910  20.240  11.483
10283W        W82598  36.464  28.710   1.545
10284W        W82599   2.382  40.766   4.626
10285W        W82600  39.079  33.870  11.141
10286W        W82601  23.049   1.472  14.864
10287W        W82602  43.641  30.429   3.756
10288W        W82603  42.744   0.335   2.858
10289W        W82604  35.478  13.229   3.689
10290W        W82605  38.954  11.454   3.433
10291W        W82606  29.114  10.100  11.497
10292W        W82607  24.526  13.371  13.844
10293W        W82608  25.332   0.862   0.924
10294W        W82609  41.502   0.287   3.639
10295W        W82610  39.788  20.731  13.846
10296W        W82611  24.776   4.737   0.967
10297W        W82612  23.752   5.741  11.576
10298W        W82613  39.442  12.099   4.271
10299W        W82614  33.340  39.605   1.748
10300W        W82615   9.663  38.283  10.659
10301W        W82616  19.716   9.882  14.068
10302W        W82617  39.832  10.372   0.719
10303W        W82618   5.410  38.326   1.288
10304W        W82619  44.942  17.662  11.946
10305W        W82620  18.051  40.891  10.656
10306W        W82621  36.674  19.139   0.838
10307W        W82622  21.726  23.390   1.436
10308W        W82623  37.837  37.150   1.689
10309W        W82624  36.410  33.129  11.013
10310W        W82625  27.730  31.498  14.417
10311W        W82626   5.970  12.881   2.324
10312W        W82627  13.358  27.981   2.749
10313W        W82628  26.608  40.371  11.849
10314W        W82629  40.599   4.919   0.276
10315W        W82630  30.918  43.368   2.919
10316W        W82631  27.543  21.980   3.422
10317W        W82632  34.028  25.231  13.862
10318W        W82633   1.396   4.353   0.564
10319W        W82634   6.388  30.945  14.306
10320W        W82635  10.207  15.925   1.873
10321W        W82636  34.482   9.880   4.414
10322W        W82637  37.909   9.831  11.841
10323W        W82638  38.303  43.946  11.113
10324W        W82639  12.341  21.653  12.610
10325W        W82640  27.147  16.313  13.392
10326W        W82641  36.325  38.401   1.288
10327W        W82642  23.286  29.134  11.996
10328W        W82643  17.549  34.385   2.288
10329W        W82644   6.313  26.896   0.800
10330W        W82645  38.375  43.943  12.577
10331W        W82646  29.535  12.334   0.175
10332W        W82647  22.803  42.920  14.684
10333W        W82648   4.876  30.734   1.730
10334W        W82649  29.370  28.119  11.500
10335W        W82650  13.915  17.504   1.868
10336W        W82651  22.274  14.570  10.689
10337W        W82652  38.419  26.572  14.758
10338W        W82653  16.891  23.752  11.066
10339W        W82654   5.784   4.804   0.681
10340W        W82655  31.616   1.809   3.711
10341W        W82656  10.212  17.305   3.276
10342W        W82657  14.811  30.515   2.146
10343W        W82658   4.745   8.612  12.333
10344W        W82659  43.497  28.042   3.885
10345W        W82660   9.932  24.206   3.250
10346W        W82661   3.646  37.957  13.850
10347W        W82662  11.810  17.115  14.299
10348W        W82663  17.827   8.658  14.960
10349W        W82664   7.745  14.589  13.490
10350W        W82665  40.960  29.574   0.890
10351W        W82666  39.783  13.775  14.394
10352W        W82667  34.846  43.463  10.688
10353W        W82668  23.702   6.853  10.573
10354W        W82669  36.393   8.809  12.430
10355W        W82670  38.812  37.949  12.818
10356W        W82671   8.194  38.384   3.921
10357W        W82672  11.306  27.616  12.221
10358W        W82673  40.476  10.252   2.483
10359W        W82674  42.957  13.236   4.147
10360W        W82675  12.837  39.320   3.618
10361W        W82676  16.379   1.278  11.112
10362W        W82677   6.751  16.081  14.958
10363W        W82678  11.203   8.191  14.457
10364W        W82679  22.504   2.825   2.981
10365W        W82680  38.050  15.791  14.426
10366W        W82681  30.085   0.985   4.281
10367W        W82682  43.287  15.311   3.320
10368W        W82683  41.948   5.453   0.394
10369W        W82684  26.768   9.649   0.849
10370W        W82685  11.783  41.433   1.430
10371W        W82686  21.676  36.840  14.641
10372W        W82687  21.055  32.799   3.868
10373W        W82688  26.587   0.821   1.786
10374W        W82689   7.933   0.116  12.575
10375W        W82690  30.357  20.677  13.555
10376W        W82691  18.147  22.474   4.474
10377W        W82692  35.241   0.033   3.641
10378W        W82693  14.458  20.308  11.562
10379W        W82694   1.960  24.623   4.621
10380W        W82695   8.183  35.474   1.863
10381W        W82696   3.353  44.321   3.834
10382W        W82697   3.927  20.358  11.484
10383W        W82698  27.756  20.628   4.454
10384W        W82699  24.703  44.943  12.581
10385W        W82700   6.726  35.205   1.297
10386W        W82701   4.373  32.002   0.504
10387W        W82702  29.613  34.271  13.354
10388W        W82703  41.968  23.786   2.256
10389W        W82704  38.714  36.055  13.381
10390W        W82705  35.667   3.591  10.977
10391W        W82706  12.172  28.449   4.309
10392W        W82707  24.209  35.789   4.036
10393W        W82708  21.248   8.650   2.256
10394W        W82709  24.875   5.275   3.825
10395W        W82710  41.040   8.577   3.163
10396W        W82711  35.609   3.475   0.249
10397W        W82712  20.269  26.473  10.604
10398W        W82713   7.696  17.722  12.046
10399W        W82714  23.635  31.622   0.014
10400W        W82715   4.255  14.562   1.463
10401W        W82716   1.758   4.819  12.617
10402W        W82717   6.121  35.024  13.983
10403W        W82718   4.798  26.888  12.124
10404W        W82719   5.014  43.861   4.073
10405W        W82720  44.594  37.516   0.031
10406W        W82721   1.475  40.538  14.766
10407W        W82722  10.930   9.679   2.730
10408W        W82723   0.354  10.627   0.200
10409W        W82724  25.097  19.517   2.197
10410W        W82725  22.753  13.726   4.233
10411W        W82726  40.322  35.867   1.292
10412W        W82727   6.889  17.592  13.938
10413W        W82728   8.119  37.465  14.774
10414W        W82729  22.344  42.583   4.609
10415W        W82730  43.219  37.481   4.544
10416W        W82731  23.092   8.511  14.406
10417W        W82732  37.533  28.643   1.413
10418W        W82733  43.189   1.323   2.718
10419W        W82734  28.483  35.356  14.472
10420W        W82735  18.259  43.886   1.864
10421W        W82736   6.423  29.866   1.986
10422W        W82737  42.567  10.686   2.186
10423W        W82738  18.559  11.622   2.868
10424W        W82739   9.800  27.281  14.602
10425W        W82740  40.903   6.513   0.395
10426W        W82741  24.768  25.174   2.187
10427W        W82742  18.693  43.593   3.765
10428W        W82743  44.059  41.311   0.437
10429W        W82744  14.562  19.643   1.272
10430W        W82745  25.146  11.034   3.358
10431W        W82746  35.044  11.537   1.832
10432W        W82747  40.020  17.192   2.829
10433W        W82748  36.824  37.947  12.975
10434W        W82749  19.691  26.418   2.186
10435W        W82750   5.276   0.837  14.342
10436W        W82751  43.425  34.104  10.955
10437W        W82752  33.285  39.143   4.178
10438W        W82753  18.191   2.381  11.468
10439W        W82754  22.866   1.654   9.895
10440W        W82755  43.442  14.573  12.542
10441W        W82756  30.158  44.434   2.277
10442W        W82757  42.305  18.353   3.211
10443W        W82758  44.931  36.422  10.277
10444W        W82759  41.551  25.089  13.018
10445W        W82760  42.793  44.847   3.635
10446W        W82761  21.750  27.608   3.604
10447W        W82762  43.535  27.529   1.144
10448W        W82763   2.889  34.506   3.418
10449W        W82764  34.888  42.967   4.544
10450W        W82765  15.179  27.071  11.637
10451W        W82766  44.793  42.453   1.926
10452W        W82767   6.512  24.140   1.728
10453W        W82768  10.140  16.391   0.280
10454W        W82769   3.771  10.777   2.358
10455W        W82770  20.238  29.915  11.712
10456W        W82771  20.185   4.332   1.208
10457W        W82772   6.351   3.862   1.426
10458W        W82773  36.029   1.992   1.302
10459W        W82774   2.847   0.780   3.269
10460W        W82775  16.476   9.705   2.971
10461W        W82776  34.807   3.396   2.240
10462W        W82777  35.912  10.398   3.737
10463W        W82778  37.554  19.101  14.884
10464W        W82779  22.120   4.881   3.318
10465W        W82780  42.532  21.495   3.909
10466W        W82781  41.487  32.045  14.096
10467W        W82782   8.408  37.367   1.378
10468W        W82783   2.853  39.933  10.655
10469W        W82784  17.687  27.456   1.723
10470W        W82785  28.911  44.518   1.676
10471W        W82786  31.918   7.747  10.941
10472W        W82787   6.382   1.074   3.801
10473W        W82788  30.495  12.825  12.467
10474W        W82789   2.544  18.136   4.176
10475W        W82790   5.272  22.896   2.407
10476W        W82791  38.637  15.720   1.432
10477W        W82792  14.808  18.151   4.139
10478W        W82793  16.332  39.696   2.705
10479W        W82794   8.741  44.651  11.530
10480W        W82795   5.836  20.502   3.249
10481W        W82796   5.704  39.307   1.829
10482W        W82797   1.410  27.232   4.098
10483W        W82798  11.284  30.049   3.196
10484W        W82799  34.887   6.847  13.096
10485W        W82800  35.169  32.868  14.208
10486W        W82801   2.240  25.248  10.645
10487W        W82802   0.949   6.664   0.378
10488W        W82803  26.762  28.559  12.324
10489W        W82804  35.382   7.161  14.765
10490W        W82805  26.526  18.764   2.524
10491W        W82806  28.585  44.253   4.837
10492W        W82807  35.087   0.487  13.519
10493W        W82808  29.914   3.067   3.851
10494W        W82809  21.763  24.484   3.598
10495W        W82810  29.184  34.647  13.262
10496W        W82811  17.135   9.910  13.538
10497W        W82812  35.984  25.206  13.864
10498W        W82813  23.506  39.484  11.507
10499W        W82814   8.670   3.799  10.636
10500W        W82815   3.312  16.705  14.552
10501W        W82816   8.937  38.276  10.700
10502W        W82817  21.635   1.774  11.914
10503W        W82818  25.739  33.400  13.782
10504W        W82819  25.085  18.254   3.859
10505W        W82820   3.726  29.063  13.000
10506W        W82821  17.609   4.787  13.518
10507W        W82822  39.536  20.424  11.547
10508W        W82823  18.111  36.930   0.802
10509W        W82824   4.899  23.772  11.478
10510W        W82825  35.086  15.989   1.782
10511W        W82826  38.426  23.704  10.121
10512W        W82827  27.942   9.099   0.461
10513W        W82828  26.992  28.442   2.855
10514W        W82829  37.068   4.483   0.988
10515W        W82830  14.612   4.368   2.353
10516W        W82831  36.806  40.579   0.438
10517W        W82832  17.643   2.923  14.068
10518W        W82833  27.767  11.879   4.094
10519W        W82834   5.839  42.390  11.706
10520W        W82835   0.003  13.861  11.566
10521W        W82836   6.679  10.347   3.296
10522W        W82837  17.216  39.066   2.687
10523W        W82838  30.644   8.415   1.765
10524W        W82839   6.365  33.889   0.764
10525W        W82840  23.998   3.940   1.250
10526W        W82841  42.006  27.006  10.928
10527W        W82842  35.841  23.987   4.647
10528W        W82843   9.807   3.446   0.461
10529W        W82844   7.304  17.949   2.977
10530W        W82845   4.537  16.594  13.598
10531W        W82846  27.324  27.088  14.131
10532W        W82847  12.191  16.782   3.757
10533W        W82848  25.930  17.595   1.477
10534W        W82849  38.400  19.603  12.619
10535W        W82850  34.585  29.795   3.124
10536W        W82851  28.153  38.469   1.142
10537W        W82852  44.359  14.856   4.638
10538W        W82853  19.333  32.014   4.551
10539W        W82854  41.601  14.315  11.651
10540W        W82855   4.643  35.372   1.046
10541W        W82856  34.586  44.711  11.064
10542W        W82857  28.551   7.829   5.076
10543W        W82858  16.764   3.644   0.004
10544W        W82859  15.136  10.871   0.945
10545W        W82860  26.922  41.329  14.790
10546W        W82861  26.134   9.791   2.227
10547W        W82862  30.514  27.188   3.702
10548W        W82863   2.014  31.744  12.460
10549W        W82864  34.758  17.602   0.011
10550W        W82865   1.794  32.354   4.629
10551W        W82866   0.986   6.780  12.888
10552W        W82867  36.601  25.082  10.652
10553W        W82868  21.575  15.331   4.891
10554W        W82869  35.980  25.555  12.386
10555W        W82870   1.685  25.109  14.041
10556W        W82871   0.941  22.446   0.763
10557W        W82872  17.236  21.809  13.101
10558W        W82873  44.444   6.602   4.166
10559W        W82874  25.561  20.035   3.441
10560W        W82875  12.066   2.288  12.539
10561W        W82876  25.514  43.302   2.651
10562W        W82877  16.446  37.637   4.123
10563W        W82878  43.382   7.222  12.359
10564W        W82879  16.383  15.150  14.948
10565W        W82880  31.883  34.944  12.618
10566W        W82881   6.910  23.831   3.480
10567W        W82882  26.002   0.738  11.132
10568W        W82883  37.878  14.728   0.802
10569W        W82884   3.743  38.836  11.660
10570W        W82885  16.615   6.899   0.184
10571W        W82886  27.683   0.040   0.908
10572W        W82887   5.902  31.620  14.778
10573W        W82888  38.468   9.166  13.377
10574W        W82889  44.295  24.023  11.462
10575W        W82890  12.185   2.380  10.653
10576W        W82891  34.705   9.977  12.352
10577W        W82892  24.189  19.642  14.962
10578W        W82893  37.540  19.306  10.327
10579W        W82894  24.908  43.836   0.360
10580W        W82895  15.267  41.492  13.708
10581W        W82896  36.413  28.996   0.162
10582W        W82897  38.761   2.316  10.874
10583W        W82898   5.306  25.150   4.653
10584W        W82899   2.356  30.380   2.634
10585W        W82900  28.049  21.790   2.815
10586W        W82901   2.414  26.743   1.284
10587W        W82902  22.662  37.070   3.213
10588W        W82903  12.117  16.764   1.185
10589W        W82904  17.101  13.783   0.099
10590W        W82905  22.538  10.258  11.452
10591W        W82906   5.198  12.669  11.425
10592W        W82907  21.803   5.151   0.484
10593W        W82908  23.500  25.131  11.645
10594W        W82909  18.706  38.793  12.660
10595W        W82910  11.214  12.556  11.144
10596W        W82911  15.804  24.072  14.058
10597W        W82912   7.790  15.085  14.399
10598W        W82913  14.158  25.982   2.787
10599W        W82914  36.410  15.155   4.907
10600W        W82915  14.587  14.041   3.233
10601W        W82916   8.798   6.163  11.582
10602W        W82917  27.011   2.558  14.423
10603W        W82918   7.277  11.137   0.016
10604W        W82919  23.745  32.073  12.809
10605W        W82920  34.708   3.261   4.207
10606W        W82921   3.867  40.230  11.885
10607W        W82922  26.036   6.833   4.637
10608W        W82923  11.730  30.035   2.926
10609W        W82924  29.144  25.256  12.657
10610W        W82925  35.879  23.535   1.149
10611W        W82926  17.668  20.694   1.336
10612W        W82927  13.395  12.219  13.979
10613W        W82928  33.966  10.561  12.087
10614W        W82929  42.157  17.901   2.309
10615W        W82930  20.939  17.545   0.224
10616W        W82931   7.886   0.422   1.250
10617W        W82932  10.376   9.843   1.439
10618W        W82933  22.271   5.595   1.337
10619W        W82934   4.182  12.178  10.695
10620W        W82935  27.398  19.173   3.359
10621W        W82936  30.981  40.122   4.045
10622W        W82937   4.749  35.010   1.425
10623W        W82938   0.474  16.777   2.339
10624W        W82939   6.667  29.858  11.597
10625W        W82940  36.044  19.760  11.584
10626W        W82941  35.548   6.239   0.179
10627W        W82942  32.395  11.227   3.212
10628W        W82943  24.215  28.650  12.272
10629W        W82944   7.317  25.629   0.941
10630W        W82945  25.083  42.969  14.063
10631W        W82946  15.526  36.135  12.020
10632W        W82947  21.273   3.747   1.918
10633W        W82948  27.701   9.106  13.188
10634W        W82949  22.169  16.964   4.326
10635W        W82950  35.332   1.241   1.974
10636W        W82951   0.823  20.725  11.131
10637W        W82952   8.235  39.521  13.823
10638W        W82953  24.350  42.373   3.801
10639W        W82954   1.011  32.572  14.803
10640W        W82955  12.681   1.982  11.529
10641W        W82956   6.121  27.706   2.304
10642W        W82957   8.394   1.184  15.000
10643W        W82958   0.384  41.037   4.548
10644W        W82959  19.621  28.716  11.581
10645W        W82960  25.946   1.366  12.932
10646W        W82961   6.851  12.590  14.012
10647W        W82962  41.384  16.840  12.544
10648W        W82963  43.292   5.482  13.453
10649W        W82964  38.448  22.262   3.751
10650W        W82965  16.649  16.499   2.716
10651W        W82966  43.942  36.549   1.795
10652W        W82967  18.188  36.508   3.080
10653W        W82968  25.267   5.307   5.237
10654W        W82969  39.093   8.421   3.810
10655W        W82970  34.985   1.471   0.762
10656W        W82971  26.577  22.465  13.363
10657W        W82972  15.694  32.383   1.439
10658W        W82973  27.089   7.668   0.807
10659W        W82974  18.954  35.373  11.929
10660W        W82975  42.912  33.665   1.195
10661W        W82976  15.373  21.947  11.199
10662W        W82977  22.734  20.045   0.634
10663W        W82978   3.686  37.962  13.335
10664W        W82979   1.297  18.551  12.610
10665W        W82980  20.267  33.686   4.852
10666W        W82981  18.753  26.863  13.068
10667W        W82982  41.773  19.742  13.381
10668W        W82983  37.569  31.011   1.241
10669W        W82984  39.030  21.321   0.862
10670W        W82985  34.570  11.750   2.411
10671W        W82986  14.172   7.829   0.445
10672W        W82987  31.441  13.914   0.247
10673W        W82988  42.350  29.569   3.711
10674W        W82989  15.861  40.439  14.463
10675W        W82990  44.965  21.162   3.751
10676W        W82991  42.979  34.850  11.447
10677W        W82992  27.713  24.048  10.608
10678W        W82993  37.343   6.217   3.201
10679W        W82994   6.690   4.441   1.822
10680W        W82995  41.588   4.437  13.850
10681W        W82996  28.176  39.524  10.824
10682W        W82997  17.028   5.006  11.074
10683W        W82998   8.231   5.695   3.263
10684W        W82999   0.744  33.054  12.306
10685W        W83000   2.909  30.660  11.915
10686W        W83001  21.693  40.892  11.307
10687W        W83002  39.595   2.782  14.977
10688W        W83003  38.335  29.559  13.787
10689W        W83004  14.882   6.925  11.098
10690W        W83005  28.921  14.308  12.938
10691W        W83006  18.234   1.811   2.750
10692W        W83007  31.211  35.984   4.322
10693W        W83008  34.622  31.809  14.130
10694W        W83009  30.922   0.447  11.118
10695W        W83010  36.304  11.211   2.547
10696W        W83011   5.899  16.793   1.328
10697W        W83012  31.545  31.410  11.018
10698W        W83013  22.490   0.825  12.101
10699W        W83014  26.087  22.678   3.903
10700W        W83015  42.748  35.632   2.398
10701W        W83016  11.022  27.480  14.970
10702W        W83017  35.831  41.959  11.379
10703W        W83018  32.859  21.069   2.143
10704W        W83019  13.871  40.377  14.405
10705W        W83020  20.001  14.491   4.244
10706W        W83021  36.808  25.552   3.687
10707W        W83022   1.072  43.846  12.557
10708W        W83023  31.416  10.795   0.262
10709W        W83024  13.202  23.289   3.321
10710W        W83025  24.061  22.548  10.098
10711W        W83026   0.354  28.695  12.809
10712W        W83027   0.420   7.687   0.911
10713W        W83028  19.019  11.460  11.451
10714W        W83029  11.232   9.970   4.112
10715W        W83030   9.200   6.201   1.806
10716W        W83031   2.080  32.950  10.522
10717W        W83032   2.349   9.221   3.710
10718W        W83033  34.555  13.191   4.782
10719W        W83034  43.045  35.532  10.546
10720W        W83035  38.881  42.788   3.315
10721W        W83036  37.493   7.195  12.981
10722W        W83037  22.628  16.064   2.298
10723W        W83038  21.304   3.837   3.773
10724W        W83039   9.229   6.325   0.792
10725W        W83040  30.963   7.401   4.531
10726W        W83041  38.473  30.082   4.718
10727W        W83042  28.388   0.419  12.851
10728W        W83043  32.968  38.516   2.145
10729W        W83044  35.714   5.124   0.931
10730W        W83045  10.106  27.520  12.775
10731W        W83046   5.403  15.507  13.815
10732W        W83047   4.855  35.770  12.662
10733W        W83048  35.671  31.429  10.998
10734W        W83049  37.935  27.760   1.799
10735W        W83050  30.836  11.329   0.833
10736W        W83051   9.192   8.567   0.523
10737W        W83052   7.450  33.432   1.315
10738W        W83053  12.365  14.702  13.549
10739W        W83054  10.440  19.825   5.289
10740W        W83055  10.802  24.547   1.479
10741W        W83056  40.428  25.612  12.889
10742W        W83057  32.985  17.690   1.320
10743W        W83058  24.549  14.157   4.188
10744W        W83059  41.841  24.266   2.728
10745W        W83060  40.767   2.871  14.027
10746W        W83061   7.269   8.334   0.335
10747W        W83062  31.053  11.428  14.008
10748W        W83063   5.454   4.263   1.310
10749W        W83064  41.056  17.741   1.432
10750W        W83065  42.358  32.924   3.830
10751W        W83066   2.792  35.524  14.892
10752W        W83067   9.649   6.938   2.732
10753W        W83068  21.688  34.049  11.667
10754W        W83069  24.615  34.891   0.786
10755W        W83070  14.001  18.212  14.487
10756W        W83071  16.201  28.664   3.761
10757W        W83072  14.910  42.010  14.507
10758W        W83073   1.939  22.158  14.631
10759W        W83074  39.471  30.193  13.332
10760W        W83075  27.974  25.642   3.887
10761W        W83076  14.677  44.307  11.039
10762W        W83077  31.198  29.755  11.185
10763W        W83078   6.638  40.289   3.215
10764W        W83079  25.924  41.444  12.122
10765W        W83080   4.772  22.555  14.422
10766W        W83081  20.563  10.691   1.577
10767W        W83082  25.189   0.819  13.118
10768W        W83083   0.695  25.286  13.309
10769W        W83084  36.334  41.906   1.446
10770W        W83085   0.969  32.392   3.122
10771W        W83086   4.831  36.511  11.620
10772W        W83087  15.114   1.311   2.912
10773W        W83088  29.306  10.382   4.159
10774W        W83089  12.303  26.445  14.277
10775W        W83090   1.385  31.179  11.137
10776W        W83091  10.073  10.354  13.573
10777W        W83092   2.726   6.660   1.916
10778W        W83093   1.785  12.294   4.226
10779W        W83094  23.594  21.188   4.994
10780W        W83095   1.720  10.362  13.949
10781W        W83096  30.697  17.622   4.761
10782W        W83097   9.706  20.627  11.075
10783W        W83098  44.434  26.210   3.802
10784W        W83099   5.302   8.360   2.403
10785W        W83100  39.076  12.548  12.438
10786W        W83101  26.157  19.809  12.629
10787W        W83102  19.250   4.721   3.214
10788W        W83103   0.849  28.171   2.147
10789W        W83104   7.293  38.877  10.774
10790W        W83105  15.737  18.268   4.224
10791W        W83106  31.793   9.360   0.346
10792W        W83107  41.273   2.781  13.860
10793W        W83108  43.015  32.485  14.508
10794W        W83109  43.300   0.536  13.340
10795W        W83110   7.324  23.007   1.384
10796W        W83111  17.542  27.262  11.108
10797W        W83112  11.961  35.586  12.517
10798W        W83113  27.077  43.508   2.754
10799W        W83114  40.738  28.401   0.354
10800W        W83115  28.018  20.297   4.186
10801W        W83116  31.468  30.644  11.563
10802W        W83117  33.679  37.986  11.991
10803W        W83118  19.044  13.960   2.230
10804W        W83119  24.643   2.991  11.883
10805W        W83120  36.773   0.038   3.240
10806W        W83121   3.448  40.545   3.416
10807W        W83122  22.718  16.698  13.852
10808W        W83123  41.746   4.719   1.956
10809W        W83124   4.359  38.465   2.621
10810W        W83125  36.411  41.392  11.191
10811W        W83126  29.436   4.827  10.305
10812W        W83127  35.363   0.964  10.481
10813W        W83128  25.946  13.699   2.166
10814W        W83129   2.923   1.566   3.787
10815W        W83130  19.215   8.317   5.018
10816W        W83131   6.367  11.713   3.266
10817W        W83132  19.846  10.195   4.348
10818W        W83133  31.527  17.604  14.752
10819W        W83134  22.115   9.713   0.530
10820W        W83135   2.138  41.076   2.290
10821W        W83136  23.140  40.598  10.762
10822W        W83137  22.263  16.757  12.027
10823W        W83138  44.747  25.940   4.970
10824W        W83139  27.368  32.529   1.496
10825W        W83140  18.499  43.810  14.096
10826W        W83141  44.205  34.427   3.226
10827W        W83142  35.348  24.186  12.406
10828W        W83143  37.360  38.996   4.499
10829W        W83144   1.412   6.783   0.164
10830W        W83145   8.488   2.396  12.885
10831W        W83146  13.772  15.830  12.185
10832W        W83147  34.435  16.970  13.013
10833W        W83148   1.223  25.057   4.579
10834W        W83149   9.302   7.286  12.929
10835W        W83150  22.499   2.198   0.813
10836W        W83151  13.465  39.867   0.391
10837W        W83152  13.372   3.172  13.024
10838W        W83153   3.463  40.086   1.411
10839W        W83154   2.358  39.824  10.764
10840W        W83155  22.961   4.750   1.346
10841W        W83156  32.898  13.661  13.127
10842W        W83157  17.134  28.019   0.185
10843W        W83158  11.407  24.128  11.172
10844W        W83159  29.680  26.572   4.258
10845W        W83160  29.169  34.491   1.633
10846W        W83161  27.015  24.263  12.491
10847W        W83162  25.468  24.582  10.643
10848W        W83163  13.878  23.746   2.878
10849W        W83164  40.982  19.236  11.609
10850W        W83165  12.156  15.822   2.158
10851W        W83166  31.427  25.571  10.561
10852W        W83167  13.180  29.863   4.547
10853W        W83168  10.266  11.031  12.498
10854W        W83169  25.130  44.282  11.995
10855W        W83170  41.668  10.210  14.123
10856W        W83171   5.054  35.602   3.019
10857W        W83172  39.017   1.030   0.890
10858W        W83173  22.335   0.277  13.980
10859W        W83174  34.953   1.843  13.831
10860W        W83175  33.841  27.877  14.730
10861W        W83176  36.033  43.735  12.068
10862W        W83177   8.837  40.946  13.529
10863W        W83178  40.826   8.286   4.115
10864W        W83179   3.748   1.435   0.392
10865W        W83180  42.497  14.054   4.104
10866W        W83181  13.150   0.427  11.858
10867W        W83182   8.771  23.827   3.139
10868W        W83183  39.621  30.149  14.998
10869W        W83184  43.532   2.187  14.896
10870W        W83185  44.904  19.149   0.576
10871W        W83186   4.331  20.846   0.301
10872W        W83187  32.403  44.151   1.438
10873W        W83188  37.662   3.187   3.772
10874W        W83189  44.434  21.631   1.341
10875W        W83190  30.937  27.664  11.521
10876W        W83191  38.816  35.029  13.585
10877W        W83192  31.125  43.267   2.465
10878W        W83193  31.016   8.882  13.798
10879W        W83194  43.100  15.889  11.558
10880W        W83195  35.561  10.437  11.207
10881W        W83196   8.430  17.811  12.484
10882W        W83197  16.497  21.989   2.260
10883W        W83198  13.248  24.007   0.102
10884W        W83199  12.546   0.791   2.140
10885W        W83200   8.111  32.086  14.845
10886W        W83201  30.059   1.229  13.593
10887W        W83202   9.204  11.578   0.405
10888W        W83203  23.019  42.024   1.719
10889W        W83204  23.378   2.469   4.172
10890W        W83205  42.954   4.234   5.049
10891W        W83206  34.030  35.033   4.748
10892W        W83207   3.344  34.987   2.460
10893W        W83208  39.119   8.748   1.303
10894W        W83209  28.162  20.574  11.519
10895W        W83210  10.173  39.549  13.517
10896W        W83211  33.170  26.003   3.246
10897W        W83212  34.577  35.158  12.107
10898W        W83213  21.153  16.110   4.981
10899W        W83214  10.220  11.792   1.228
10900W        W83215  33.914  22.196   2.316
10901W        W83216  13.320  17.195  10.203
10902W        W83217  16.688   7.679  13.806
10903W        W83218  29.602  15.212  10.635
10904W        W83219  33.663  21.726  10.161
10905W        W83220  44.225  23.555  11.685
10906W        W83221  15.751  10.208  14.254
10907W        W83222  10.762   5.435   2.250
10908W        W83223  29.627   5.505   1.776
10909W        W83224  32.131  20.179   4.260
10910W        W83225  11.333  28.403   2.880
10911W        W83226  44.992  16.082  14.516
10912W        W83227  26.454  12.872  11.225
10913W        W83228  35.950  42.087  13.815
10914W        W83229  24.029  18.040   4.751
10915W        W83230  29.155  29.587   1.336
10916W        W83231   0.092   3.943   4.114
10917W        W83232  14.600  14.561  13.916
10918W        W83233  35.026  27.964   4.214
10919W        W83234   9.360  20.128   4.485
10920W        W83235  38.761  23.179  10.666
10921W        W83236  20.370   1.041  14.331
10922W        W83237  24.141  18.120   3.588
10923W        W83238  17.145  35.570   4.980
10924W        W83239  34.233  43.402   4.811
10925W        W83240  14.839  12.741  11.841
10926W        W83241  22.123  43.608  11.524
10927W        W83242  19.241  16.812  12.809
10928W        W83243  32.968   0.398  12.688
10929W        W83244  36.068   6.647  11.152
10930W        W83245  10.621  19.484   4.222
10931W        W83246  42.424  31.637  10.728
10932W        W83247   5.411  28.052   4.664
10933W        W83248  34.634  18.588   2.766
10934W        W83249  40.015  22.989   0.009
10935W        W83250  30.639   9.164  14.807
10936W        W83251  39.378  42.324  11.862
10937W        W83252   2.562  32.926  13.114
10938W        W83253  40.421  37.044   3.368
10939W        W83254  30.675  11.122  10.617
10940W        W83255  35.341  34.520  11.926
10941W        W83256  20.632  38.864   3.116
10942W        W83257  12.753  26.107   3.211
10943W        W83258  19.689  43.254  13.132
10944W        W83259   8.110  27.271  13.435
10945W        W83260  29.845  32.425  13.085
10946W        W83261  26.532   6.315   3.343
10947W        W83262  14.197   3.127   5.115
10948W        W83263   6.250   4.525  13.965
10949W        W83264  43.911  25.781  13.817
10950W        W83265  15.286  39.058   0.306
10951W        W83266   5.637  23.078  13.414
10952W        W83267  23.659  31.965   1.976
10953W        W83268  39.346  28.757  11.885
10954W        W83269  12.689  37.678   2.426
10955W        W83270  26.090  19.528  11.195
10956W        W83271  39.916  18.601  14.770
10957W        W83272  23.239  30.479   4.704
10958W        W83273  39.833   1.859   1.343
10959W        W83274   5.027  20.932   3.828
10960W        W83275  44.507   3.747  10.520
10961W        W83276   2.021  35.850   5.017
10962W        W83277  17.812  22.132   2.673
10963W        W83278  11.231  40.617   1.211
10964W        W83279  30.191  32.278   4.581
10965W        W83280  37.412  37.420   2.116
10966W        W83281  32.395   4.687  13.114
10967W        W83282  22.050  32.478   0.924
10968W        W83283  27.138   2.427  12.529
10969W        W83284  12.664  43.327   4.624
10970W        W83285  25.036  29.059   4.190
10971W        W83286  15.696  29.510  14.419
10972W        W83287   6.346  21.223  12.974
10973W        W83288  38.994  35.222  10.390
10974W        W83289  30.363  26.386  11.053
10975W        W83290  26.150  20.006   1.307
10976W        W83291   4.980  28.001  11.451
10977W        W83292  35.983   9.582   1.279
10978W        W83293  16.609  19.236   3.313
10979W        W83294  15.504  28.630  12.014
10980W        W83295  13.142  14.280  13.816
10981W        W83296  28.606  28.982  12.010
10982W        W83297  28.674  20.238  13.221
10983W        W83298  31.684  15.624  11.538
10984W        W83299  27.555   7.769   2.360
10985W        W83300   7.838  37.812   1.792
10986W        W83301  29.010  30.633   5.037
10987W        W83302  13.106  43.309   4.301
10988W        W83303  13.539  22.997   1.122
10989W        W83304  40.255   4.375  11.519
10990W        W83305  15.096  38.580   2.265
10991W        W83306  26.664   9.768  11.058
10992W        W83307  20.482  32.515   0.185
10993W        W83308  12.187  10.504  11.839
10994W        W83309  23.214  23.565  11.917
10995W        W83310  43.532  42.553  11.955
10996W        W83311   6.341  22.334   0.253
10997W        W83312  21.591  17.923   1.885
10998W        W83313  23.670  42.017   2.638
10999W        W83314  15.696  10.671  13.361
11000W        W83315  12.329   3.854  13.417
11001W        W83316  22.659  17.152  13.539
11002W        W83317  33.372  12.727   5.310
11003W        W83318  37.888  40.332   4.221
11004W        W83319  26.629   9.230  11.896
11005W        W83320  24.258   7.697  13.145
11006W        W83321   9.355  10.381   2.477
11007W        W83322  43.750   6.441   2.981
11008W        W83323  21.071  10.888   4.663
11009W        W83324  14.066  14.613  13.905
11010W        W83325  40.821  12.334   3.276
11011W        W83326   6.237   3.793  10.597
11012W        W83327   3.957   5.868   1.897
11013W        W83328  18.059  13.109  12.866
11014W        W83329  21.862  44.366   3.376
11015W        W83330   7.597  12.348  11.156
11016W        W83331  22.682  29.649   0.190
11017W        W83332  12.307  28.503   1.042
11018W        W83333  12.890   2.994  11.562
11019W        W83334  38.588   8.838  11.006
11020W        W83335  13.274  33.495   0.507
11021W        W83336   4.245  19.243   2.622
11022W        W83337  30.915  20.808   4.277
11023W        W83338  34.741  22.743   0.778
11024W        W83339  28.216  13.134   0.365
11025W        W83340  13.566  41.544  12.154
11026W        W83341  36.825   5.269  12.815
11027W        W83342  22.455  20.120   3.812
11028W        W83343  38.020   3.928   1.408
11029W        W83344  21.178  11.750   1.656
11030W        W83345  36.865   6.877   4.661
11031W        W83346   6.086  21.406   9.913
11032W        W83347  31.705  21.472   3.312
11033W        W83348  34.851  36.882   2.601
11034W        W83349   9.001  41.167  13.064
11035W        W83350  15.332  30.596   1.222
11036W        W83351  14.232  17.186  14.846
11037W        W83352   8.399  18.495  11.895
11038W        W83353  33.900   2.598   4.885
11039W        W83354   4.244  14.126  13.383
11040W        W83355   4.888  34.186   4.926
11041W        W83356  42.403   3.226  14.928
11042W        W83357  29.083  29.040  14.949
11043W        W83358  40.457   2.844   0.469
11044W        W83359  10.254  26.532  14.585
11045W        W83360  36.605   4.994  14.039
11046W        W83361  25.240  33.168  12.890
11047W        W83362  41.453  25.381   2.183
11048W        W83363  15.388  38.450   2.722
11049W        W83364   6.402  44.696   1.964
11050W        W83365  20.107  25.276   0.955
11051W        W83366  32.094  39.493  12.368
11052W        W83367  32.691   8.838   2.307
11053W        W83368  27.892  17.918   1.034
11054W        W83369  20.417  25.081  13.971
11055W        W83370  43.674  29.506  13.254
11056W        W83371  10.773   3.091  10.472
11057W        W83372  27.008  12.250  13.558
11058W        W83373  11.958  14.569   0.800
11059W        W83374  21.476  34.600  12.040
11060W        W83375  28.336  12.716  13.424
11061W        W83376  42.270  39.181   4.113
11062W        W83377  37.259  19.083   1.652
11063W        W83378  30.697  44.036  11.015
11064W        W83379  20.281  32.134   4.189
11065W        W83380  33.392  40.573  10.616
11066W        W83381  18.654  40.020   3.707
11067W        W83382  44.684  32.599   3.325
11068W        W83383  43.788  44.878  13.051
11069W        W83384  44.368  17.565   2.475
11070W        W83385  36.605  39.982   2.705
11071W        W83386  20.313  36.828  13.812
11072W        W83387   0.825   7.451  14.499
11073W        W83388  14.743   3.238   1.881
11074W        W83389  11.443   8.299  14.025
11075W        W83390  43.238  19.681   4.542
11076W        W83391  13.697   7.152  13.545
11077W        W83392   9.797  25.605  13.790
11078W        W83393  42.875  34.528   0.280
11079W        W83394  34.807  16.697   2.265
11080W        W83395  28.638  38.050  10.718
11081W        W83396   6.866  41.476   2.626
11082W        W83397  38.307  11.766  13.493
11083W        W83398   6.750  15.220   2.258
11084W        W83399  34.029  32.853   0.925
11085W        W83400  23.746   0.866   1.699
11086W        W83401  23.637  17.273   0.401
11087W        W83402  15.780  37.461  14.994
11088W        W83403  33.980  15.819   1.274
11089W        W83404  41.449  43.348   0.042
11090W        W83405   0.129  43.974  12.476
11091W        W83406  34.872  20.716  11.004
11092W        W83407  25.117   5.843  13.937
11093W        W83408  27.047  17.210   2.367
11094W        W83409  17.741   8.456   2.828
11095W        W83410  29.507   4.301   1.206
11096W        W83411  28.428  10.915   0.726
11097W        W83412  42.308  44.646   0.228
11098W        W83413  15.255  43.634  10.625
11099W        W83414  14.716  32.991   4.621
11100W        W83415  29.682  23.102  14.554
11101W        W83416  12.297  43.358  14.690
11102W        W83417  11.573  23.166  11.704
11103W        W83418  33.016  10.315   1.610
11104W        W83419  22.154  12.335  13.591
11105W        W83420  28.447  35.887  13.580
11106W        W83421  34.517  33.673   2.915
11107W        W83422   2.488   0.007   2.677
11108W        W83423   8.794  16.027   1.254
11109W        W83424  16.451   2.464  11.255
11110W        W83425  15.528  26.447  12.295
11111W        W83426   6.312  12.884  12.517
11112W        W83427   2.224  24.736  10.647
11113W        W83428   0.068  13.335  13.823
11114W        W83429  21.612   0.561   0.318
11115W        W83430  11.369  12.865  10.739
11116W        W83431   3.853  33.412   3.719
11117W        W83432  16.269  38.885   3.743
11118W        W83433   6.030   8.453   2.913
11119W        W83434   9.113  10.848  11.143
11120W        W83435  37.586   7.681   1.762
11121W        W83436   0.962  26.606   0.390
11122W        W83437  11.704  22.362  10.212
11123W        W83438  43.953  28.521   4.686
11124W        W83439  34.580   2.241   0.877
11125W        W83440  13.861  39.879   2.441
11126W        W83441  33.138  33.228  11.639
11127W        W83442  37.815  36.108  13.114
11128W        W83443  37.282  15.572   2.764
11129W        W83444   9.842   1.781   4.244
11130W        W83445   9.627  10.226  14.796
11131W        W83446  29.489  32.293  14.331
11132W        W83447  32.611  44.982   3.988
11133W        W83448  16.304  12.340   0.922
11134W        W83449  25.459  24.539  14.321
11135W        W83450   1.459  27.688  13.132
11136W        W83451  10.360  23.557  14.858
11137W        W83452  41.957   2.339   3.392
11138W        W83453  25.920  13.912   0.811
11139W        W83454  35.522  17.994  11.022
11140W        W83455  37.540  38.936   4.029
11141W        W83456  22.299  39.891   0.430
11142W        W83457  20.013   9.669  13.340
11143W        W83458  21.888   1.749   2.880
11144W        W83459  32.458  44.742   0.363
11145W        W83460  44.410  16.150  12.529
11146W        W83461  25.984  11.609   0.881
11147W        W83462  25.459  41.253   0.881
11148W        W83463  29.490  37.983  13.883
11149W        W83464  36.105  20.019  12.969
11150W        W83465  42.043  14.757   3.260
11151W        W83466  42.504   1.356  10.594
11152W        W83467  22.327  32.564   3.673
11153W        W83468  12.331   1.654   0.305
11154W        W83469  13.083  17.042  12.885
11155W        W83470   5.211  20.180   2.838
11156W        W83471  21.558  28.122  14.258
11157W        W83472  43.250  17.683  11.529
11158W        W83473   5.251  31.618   2.475
11159W        W83474  14.103  20.692  11.592
11160W        W83475   6.033  21.121  12.469
11161W        W83476   1.865  29.522   0.660
11162W        W83477   0.938  35.018  12.871
11163W        W83478  18.758   5.788   4.552
11164W        W83479   1.106  16.849   0.850
11165W        W83480  10.834  19.678   5.590
11166W        W83481  26.542  14.068   0.228
11167W        W83482   0.895   5.735   3.071
11168W        W83483  34.835   8.141  11.434
11169W        W83484  27.499   3.942   0.408
11170W        W83485  23.170  22.272  13.832
11171W        W83486  29.926  31.135  13.955
11172W        W83487  20.077  28.947  11.225
11173W        W83488  20.095  43.265   3.841
11174W        W83489  32.963  17.671  14.088
11175W        W83490   6.338  40.505   1.125
11176W        W83491  11.733  23.503  14.952
11177W        W83492  18.652  36.608   2.356
11178W        W83493  37.519   7.702  12.898
11179W        W83494  33.169  26.498   4.749
11180W        W83495   9.267  23.731   3.705
11181W        W83496  41.369  40.604  10.762
11182W        W83497  37.641   0.911   3.757
11183W        W83498  29.158  32.655   5.257
11184W        W83499  39.714  29.430  13.442
11185W        W83500  24.519  20.021  14.375
11186W        W83501  35.998  31.146  11.278
11187W        W83502  21.558  21.748   3.763
11188W        W83503  15.376  35.320  11.206
11189W        W83504  26.100  14.253   2.852
11190W        W83505  40.970  31.963  12.436
11191W        W83506  35.634  23.141   0.533
11192W        W83507  10.112  44.505  12.834
11193W        W83508  31.555  28.054  14.726
11194W        W83509  40.346  30.603  13.974
11195W        W83510  21.259  43.813  12.440
11196W        W83511  32.194  13.783   4.464
11197W        W83512   7.691  27.293  11.548
11198W        W83513  19.088  18.592  11.538
11199W        W83514  38.338  13.231   4.284
11200W        W83515  22.088  14.051   0.719
11201W        W83516   3.545  12.331  11.908
11202W        W83517  19.772  22.650  10.654
11203W        W83518  35.042   3.366   3.267
11204W        W83519   5.033  26.275   2.704
11205W        W83520   1.656  35.714   4.199
11206W        W83521  35.502  37.777   2.192
11207W        W83522  34.883  40.860   0.990
11208W        W83523  16.851  20.585   4.804
11209W        W83524  34.061  38.903  11.630
11210W        W83525  44.399  21.684   2.731
11211W        W83526   7.738  13.616  13.461
11212W        W83527  28.570   5.643   2.634
11213W        W83528  32.445  27.185  10.559
11214W        W83529  40.391  14.217  11.943
11215W        W83530   7.952  41.839  14.041
11216W        W83531  28.800  10.603   0.338
11217W        W83532  34.314  33.587  11.947
11218W        W83533  14.149   7.435  13.378
11219W        W83534  33.337  19.576  14.284
11220W        W83535   5.928  44.447  11.462
11221W        W83536  28.558  31.918  11.086
11222W        W83537  31.981  26.280  12.466
11223W        W83538  33.451   2.541  14.913
11224W        W83539  30.654  25.261   1.399
11225W        W83540  39.107   0.943  12.632
11226W        W83541   1.393  15.072   0.383
11227W        W83542  37.650  34.376   1.542
11228W        W83543  18.187   1.679   0.171
11229W        W83544  23.591   8.461  14.262
11230W        W83545  19.125  33.976   2.545
11231W        W83546  22.047  30.788   1.718
11232W        W83547  25.535  28.510   4.186
11233W        W83548   7.777  13.122   3.618
11234W        W83549  14.562   6.682  13.033
11235W        W83550   7.776   5.254  11.725
11236W        W83551  37.000  28.830  12.046
11237W        W83552  35.476  21.163  14.055
11238W        W83553   5.741  24.591  10.653
11239W        W83554  23.483   0.261  11.858
11240W        W83555  43.312  37.309  11.549
11241W        W83556  44.205   2.379  14.429
11242W        W83557  30.123  17.069  13.414
11243W        W83558  43.483   6.940  11.514
11244W        W83559  16.303  30.265   1.430
11245W        W83560  17.748  25.499   4.502
11246W        W83561  26.209  22.281   0.889
11247W        W83562  11.385  15.761   2.640
11248W        W83563   8.737  38.316  12.112
11249W        W83564  33.869  23.173   4.527
11250W        W83565  41.568  23.223   2.001
11251W        W83566  40.089  22.057   3.783
11252W        W83567   7.289  42.242   2.327
11253W        W83568  42.929  12.563  13.375
11254W        W83569  15.696  17.276   2.219
11255W        W83570  35.014  44.846  12.409
11256W        W83571  19.962  18.337   2.610
11257W        W83572  24.255  20.169  13.235
11258W        W83573  19.549  25.172  10.684
11259W        W83574  16.410  14.178   5.077
11260W        W83575  31.943  23.219   3.265
11261W        W83576  28.133  10.227   4.111
11262W        W83577   0.460  34.640   2.327
11263W        W83578  33.552  43.487   4.141
11264W        W83579  23.777  42.052  13.769
11265W        W83580  18.136  30.753   1.450
11266W        W83581  19.650  13.585   3.704
11267W        W83582  15.193  40.046   3.396
11268W        W83583  37.897  32.496  11.289
11269W        W83584  13.241  31.624   1.786
11270W        W83585  43.529  23.886  13.945
11271W        W83586  38.886  18.020   2.277
11272W        W83587  19.529  28.572  12.993
11273W        W83588  12.674  26.464  10.659
11274W        W83589  24.134  36.447  13.408
11275W        W83590  31.441  13.630  14.788
11276W        W83591  36.976   5.479  14.440
11277W        W83592  43.600   9.687  11.526
11278W        W83593  30.015  30.170  13.181
11279W        W83594  37.954  23.159  13.523
11280W        W83595  14.589  37.304  10.655
11281W        W83596  38.433  19.604   2.748
11282W        W83597  10.037   4.163   0.810
11283W        W83598  26.888  44.846   1.314
11284W        W83599  11.683  12.453  13.165
11285W        W83600  27.504  12.046  13.571
11286W        W83601  16.587  24.085   4.921
11287W        W83602  44.673  28.063   1.399
11288W        W83603  37.259  16.029   4.551
11289W        W83604  43.785  31.511  12.477
11290W        W83605  14.754  31.571   2.742
11291W        W83606  40.565  34.361   3.181
11292W        W83607  23.668  31.564  13.528
11293W        W83608  26.672   3.019   5.497
11294W        W83609  13.174  17.196  13.369
11295W        W83610  38.966   7.604   0.265
11296W        W83611  23.554   3.391  11.663
11297W        W83612   2.712  23.085   3.381
11298W        W83613  10.717   3.601  11.678
11299W        W83614  10.589  34.408  14.506
11300W        W83615  35.429  29.153   3.331
11301W        W83616  13.706  43.370   1.010
11302W        W83617  35.513  33.796  11.667
11303W        W83618   6.929  43.974  14.353
11304W        W83619  44.943  12.872  13.610
11305W        W83620   5.742  14.137  10.936
11306W        W83621   3.363  26.519   3.132
11307W        W83622  13.854  44.011  10.965
11308W        W83623   6.370  19.826  12.499
11309W        W83624  24.607   4.365   2.057
11310W        W83625  11.241   5.679  11.977
11311W        W83626   5.700  39.854  11.932
11312W        W83627  28.027   5.134   1.359
11313W        W83628  19.647  41.942  11.442
11314W        W83629  13.814  18.581  10.672
11315W        W83630  18.915  32.922  13.971
11316W        W83631  44.864  23.666  10.699
11317W        W83632  35.095   6.706   1.339
11318W        W83633   1.370   9.607  10.396
11319W        W83634  25.059   2.663  13.028
11320W        W83635  23.367   1.353   0.256
11321W        W83636  34.105   1.390  11.027
11322W        W83637  14.795  24.794  14.439
11323W        W83638  28.655  26.546   2.778
11324W        W83639  18.433  25.162  14.440
11325W        W83640  32.530  17.794  14.350
11326W        W83641  42.467  26.997  13.983
11327W        W83642  28.165  25.667  13.447
11328W        W83643  14.066  32.964   0.596
11329W        W83644  19.393   0.754  12.846
11330W        W83645  30.055  12.360  14.046
11331W        W83646  37.534  23.970   3.143
11332W        W83647  33.489  10.916   4.537
11333W        W83648   3.004  33.115  10.575
11334W        W83649  36.989  39.019  10.538
11335W        W83650   5.776  41.050   1.299
11336W        W83651  29.969  33.620  10.459
11337W        W83652  44.913   4.014   3.170
11338W        W83653  27.955  38.903  13.933
11339W        W83654  35.546  38.161   1.851
11340W        W83655   3.429  23.964   1.963
11341W        W83656  29.530  26.454  12.805
11342W        W83657  24.094  15.586   4.106
11343W        W83658  33.365  28.678   4.056
11344W        W83659  29.173   0.387  12.451
11345W        W83660  18.071  14.824   0.885
11346W        W83661  35.594  40.809   0.954
11347W        W83662  17.235  24.460   3.880
11348W        W83663  16.548  18.289  11.918
11349W        W83664  34.386  14.715   2.503
11350W        W83665   1.327  37.141  12.522
11351W        W83666  40.493  33.319  14.426
11352W        W83667  21.552  27.925  10.036
11353W        W83668  42.770   5.767   3.245
11354W        W83669   1.846  28.149  11.905
11355W        W83670   7.279  41.253   3.283
11356W        W83671  25.625  36.157   2.609
11357W        W83672  34.371  20.016   2.822
11358W        W83673   8.583  30.635   4.243
11359W        W83674  39.508  30.529   2.254
11360W        W83675  22.633   5.335  13.360
11361W        W83676  17.710  32.601   4.619
11362W        W83677   3.304  32.567  13.673
11363W        W83678  23.937  29.626   3.725
11364W        W83679  40.882  39.590   1.819
11365W        W83680  25.453  11.650   0.855
11366W        W83681   0.011  37.860  13.045
11367W        W83682  30.622  20.087  13.014
11368W        W83683   8.492  37.581  11.310
11369W        W83684   8.777  21.586   3.284
11370W        W83685  13.288  19.161   0.793
11371W        W83686  28.565  44.186  10.698
11372W        W83687  38.848  22.020  10.078
11373W        W83688  16.589   1.508  13.558
11374W        W83689  24.009  29.001   0.288
11375W        W83690  27.160   8.625  13.914
11376W        W83691   4.107  30.611  13.800
11377W        W83692  24.428  17.972   1.439
11378W        W83693  40.507  35.996  10.271
11379W        W83694   7.381   5.849  12.078
11380W        W83695  30.675  33.563   4.626
11381W        W83696  28.966   5.972  11.510
11382W        W83697  28.913   7.294   1.952
11383W        W83698  12.488  29.366  11.941
11384W        W83699  21.825  21.194  11.036
11385W        W83700  25.905  35.268  11.940
11386W        W83701   1.829  12.579   1.698
11387W        W83702  36.492  17.816   0.937
11388W        W83703   3.823  17.115  13.942
11389W        W83704  40.786  20.289   2.443
11390W        W83705  33.419  20.603   3.623
11391W        W83706  31.671  42.886   2.257
11392W        W83707  27.406  34.962   3.805
11393W        W83708  25.521  11.853   4.667
11394W        W83709  24.629  37.985   2.423
11395W        W83710  14.117  10.638  10.598
11396W        W83711  44.930   5.944   1.738
11397W        W83712  26.218  24.252   1.896
11398W        W83713  22.977  22.165   0.356
11399W        W83714  34.524   7.715   0.764
11400W        W83715  43.952  44.662  12.606
11401W        W83716  31.646   5.577  11.917
11402W        W83717   2.480   4.389   2.398
11403W        W83718  42.976  35.390   4.152
11404W        W83719   9.390  39.340   3.354
11405W        W83720  35.533   4.478   3.809
11406W        W83721  40.212  29.765   3.156
11407W        W83722   1.642  39.741  13.551
11408W        W83723  15.856  23.662   4.754
11409W        W83724   3.238  33.472   2.825
11410W        W83725  27.161   5.374   4.654
11411W        W83726  30.959   4.963   0.696
11412W        W83727  22.621  11.369  13.027
11413W        W83728  24.808   1.768  12.379
11414W        W83729   9.926  37.627  12.641
11415W        W83730  19.853  19.593   2.303
11416W        W83731  16.060  26.570   1.955
11417W        W83732  11.136  20.959   0.847
11418W        W83733  41.547  14.284  13.623
11419W        W83734  32.137   0.346   4.882
11420W        W83735  43.987  14.842  12.430
11421W        W83736  37.175  28.148  13.351
11422W        W83737  16.039  44.063  11.245
11423W        W83738  15.128  15.703  11.199
11424W        W83739  14.244  32.863   3.803
11425W        W83740  28.006  28.694   4.655
11426W        W83741  31.026  17.634   0.913
11427W        W83742   8.402  35.062  11.264
11428W        W83743  41.711  38.417   3.910
11429W        W83744   2.273  32.547  12.925
11430W        W83745   3.886  21.342  14.540
11431W        W83746  38.796   0.854  14.891
11432W        W83747   5.089   4.772  13.248
11433W        W83748  23.434   1.815  11.115
11434W        W83749  31.622  35.517  13.401
11435W        W83750  40.184   0.430   1.352
11436W        W83751  10.905  29.969  11.178
11437W        W83752  20.603  15.664   1.479
11438W        W83753  17.820  44.818   2.911
11439W        W83754  28.940  38.367   0.396
11440W        W83755  28.858  24.165  11.985
11441W        W83756  17.031  31.199   3.195
11442W        W83757  17.541  32.533   3.011
11443W        W83758   4.694  40.770   2.699
11444W        W83759  13.476  20.597  14.888
11445W        W83760  20.277  13.285   3.347
11446W        W83761  10.160  42.274   1.628
11447W        W83762  43.521  10.983   5.073
11448W        W83763  21.829  11.280  10.722
11449W        W83764  42.252  40.946   1.234
11450W        W83765   7.752   8.841  13.535
11451W        W83766   4.936  41.947  13.113
11452W        W83767  38.135  25.773   0.298
11453W        W83768  39.282  32.487  10.555
11454W        W83769  33.854  19.172   3.679
11455W        W83770  21.547   5.841  14.445
11456W        W83771  23.456  20.183  14.321
11457W        W83772  15.291  14.829   2.363
11458W        W83773   8.434  17.115  12.146
11459W        W83774  17.207  43.482   4.095
11460W        W83775  41.870  37.963  13.055
11461W        W83776  16.013   9.103  12.594
11462W        W83777  37.138  23.832  14.792
11463W        W83778  43.820  11.807  14.919
11464W        W83779   7.274  35.157   1.354
11465W        W83780  24.240  33.027   1.021
11466W        W83781  27.982  23.571  11.084
11467W        W83782  13.073  10.427   3.168
11468W        W83783   5.924  44.490   3.292
11469W        W83784   7.593  13.184  11.404
11470W        W83785   8.732  31.408   4.619
11471W        W83786  38.928  13.338   2.900
11472W        W83787  28.349   5.179  13.941
11473W        W83788  24.077  22.641   1.017
11474W        W83789  38.582  17.721   0.979
11475W        W83790  17.643  38.614   5.401
11476W        W83791  43.999  24.350   0.711
11477W        W83792  14.781  12.073   3.344
11478W        W83793  11.820  22.973  12.104
11479W        W83794  15.085   3.672  13.714
11480W        W83795  37.431  16.111  12.099
11481W        W83796  33.603  38.332   3.144
11482W        W83797   3.690  16.521   0.773
11483W        W83798  23.903   2.475   2.878
11484W        W83799   4.237  27.693  10.659
11485W        W83800  43.527  15.074  12.477
11486W        W83801  29.895  22.295   2.389
11487W        W83802  12.183  13.692  14.434
11488W        W83803   5.887   2.939   0.974
11489W        W83804  32.239  15.601  14.935
11490W        W83805  16.290  43.919   1.658
11491W        W83806  14.854  36.575  11.614
11492W        W83807  42.248  28.911  11.950
11493W        W83808  10.457   2.820  10.780
11494W        W83809  33.425   3.271   1.450
11495W        W83810  20.495  22.238  10.914
11496W        W83811  30.364  17.241   1.793
11497W        W83812  25.710  20.855  13.828
11498W        W83813  24.537   8.814  14.773
11499W        W83814  26.915  19.145   2.445
11500W        W83815  18.713  14.142  13.449
11501W        W83816  25.594  21.497   3.291
11502W        W83817  26.028  10.300   4.163
11503W        W83818  20.604  10.556   5.618
11504W        W83819   7.200  23.215  12.871
11505W        W83820  33.926  14.139  11.650
11506W        W83821  13.801  21.727   1.523
11507W        W83822  39.242  26.065   3.129
11508W        W83823  35.654  13.542   4.111
11509W        W83824  33.272  40.496   1.290
11510W        W83825  38.948  38.607  13.891
11511W        W83826  14.209  43.436   3.649
11512W        W83827   2.501  18.508  14.001
11513W        W83828  32.092  17.011  10.176
11514W        W83829  44.293  37.598   0.849
11515W        W83830  40.338  22.249   1.232
11516W        W83831  15.554   1.000  14.031
11517W        W83832   8.243  17.752   2.705
11518W        W83833  28.694  33.972  13.658
11519W        W83834  24.135  23.017   2.867
11520W        W83835  18.161  18.507  11.986
11521W        W83836   6.018  37.692   4.156
11522W        W83837   5.395  27.550  12.156
11523W        W83838  12.009  39.659   3.419
11524W        W83839  26.937  25.925   0.284
11525W        W83840   0.326  16.993   1.024
11526W        W83841  35.066  26.519  13.288
11527W        W83842  15.593  24.266   5.369
11528W        W83843  31.129  35.074  14.513
11529W        W83844  23.670  37.795  13.906
11530W        W83845  21.302   0.863   2.925
11531W        W83846  22.003  31.680  14.442
11532W        W83847  33.949  36.589   4.313
11533W        W83848  44.354  32.360  12.537
11534W        W83849  23.682  14.684  11.545
11535W        W83850  42.211  25.653   0.646
11536W        W83851   4.538  14.707  14.846
11537W        W83852   8.969  29.380   4.721
11538W        W83853  12.417  11.311   4.514
11539W        W83854   7.596   9.216   2.740
11540W        W83855  37.372   4.701  14.461
11541W        W83856  42.787  15.136   1.336
11542W        W83857  40.601  43.423  13.497
11543W        W83858   3.189   3.708  11.120
11544W        W83859  43.407  22.942  14.985
11545W        W83860  40.126   1.973   1.787
11546W        W83861  41.978   8.488  13.767
11547W        W83862  12.103  36.684  13.621
11548W        W83863  25.252   3.173   4.073
11549W        W83864  18.531  25.198   2.729
11550W        W83865   7.912  39.982   1.773
11551W        W83866  32.044  33.335  12.522
11552W        W83867  22.494  10.694  11.102
11553W        W83868  32.846  41.860  10.610
11554W        W83869  39.757  33.193  11.154
11555W        W83870   2.880  20.306  14.607
11556W        W83871   6.835  15.807  10.747
11557W        W83872   0.192  37.063   4.166
11558W        W83873  30.158  38.567  12.058
11559W        W83874  10.339  39.109  12.395
11560W        W83875  23.553  37.862  10.743
11561W        W83876  26.845  21.483  14.345
11562W        W83877   8.716  26.093  11.569
11563W        W83878  32.126  17.500  10.391
11564W        W83879   2.734  10.799   1.531
11565W        W83880  36.100  34.411   1.309
11566W        W83881   6.149  35.926  13.843
11567W        W83882  19.225  25.122  14.297
11568W        W83883  18.652  13.821   3.718
11569W        W83884  37.667  23.159  10.895
11570W        W83885  18.626  37.895  12.391
11571W        W83886   1.835  36.838  13.464
11572W        W83887  20.977  31.012   4.665
11573W        W83888   7.408  27.077  10.295
11574W        W83889  34.501  35.887   1.170
11575W        W83890   6.810  30.655  14.496
11576W        W83891   5.730  41.977  13.462
11577W        W83892   1.325   8.360   2.748
11578W        W83893   7.127  25.254   3.360
11579W        W83894   2.282  36.730   4.886
11580W        W83895  43.594  19.367   3.282
11581W        W83896  15.550  33.233   0.353
11582W        W83897  32.107  21.257  12.102
11583W        W83898  35.990  42.941   2.749
11584W        W83899  25.886  41.847   3.070
11585W        W83900  44.911  17.080  12.790
11586W        W83901  12.402  40.608   4.141
11587W        W83902  13.858  22.662  11.954
11588W        W83903   9.431  31.367  13.506
11589W        W83904  23.477  31.171  11.244
11590W        W83905  33.552  15.050   3.637
11591W        W83906  37.139  11.384  13.479
11592W        W83907  32.445  35.845   4.552
11593W        W83908  25.302   4.801  12.950
11594W        W83909  15.708   9.861  13.830
11595W        W83910   7.396   8.755   2.909
11596W        W83911  12.184  32.694   3.781
11597W        W83912  21.018  27.380   2.278
11598W        W83913  13.307  30.778   0.761
11599W        W83914  16.754  25.655  12.827
11600W        W83915   1.106  41.590   4.567
11601W        W83916   1.414  20.761   2.488
11602W        W83917   2.518  29.848   4.567
11603W        W83918  20.946  22.837  14.315
11604W        W83919  23.238  20.999  10.294
11605W        W83920   3.816  19.563   4.702
11606W        W83921  12.831   3.925  13.379
11607W        W83922  17.269  43.468   2.107
11608W        W83923  33.006   7.145   0.212
11609W        W83924  17.500  43.813  13.928
11610W        W83925   2.749   4.223   2.895
11611W        W83926  13.335  28.706   2.516
11612W        W83927  10.224  21.281  14.063
11613W        W83928   7.850  27.405   0.357
11614W        W83929  11.717  36.480  12.213
11615W        W83930   7.285   9.397  12.451
11616W        W83931  28.100  30.954   0.417
11617W        W83932  14.882  29.463   4.178
11618W        W83933  40.745  40.761   1.185
11619W        W83934  41.772  36.164  13.590
11620W        W83935  44.771  28.450  13.463
11621W        W83936  21.132  10.058   0.312
11622W        W83937  39.277  20.771   4.203
11623W        W83938   7.874  29.597   3.859
11624W        W83939  13.227  21.296   4.249
11625W        W83940  24.547  31.124  13.272
11626W        W83941  33.956   8.213  10.861
11627W        W83942  30.612   7.631  12.610
11628W        W83943  30.029  38.040  12.076
11629W        W83944  35.906   0.709  12.965
11630W        W83945  25.988  28.655  13.021
11631W        W83946  16.386  22.556  14.485
11632W        W83947  14.922  19.888  11.146
11633W        W83948  36.941   2.729   2.891
11634W        W83949  14.093  37.806  14.049
11635W        W83950  18.146   9.517  11.149
11636W        W83951   8.400  18.774   1.851
11637W        W83952  44.236   8.249   4.122
11638W        W83953   5.325  34.129  13.458
11639W        W83954  20.158   6.493  10.755
11640W        W83955  39.728  32.131  14.273
11641W        W83956   6.795  29.005   3.077
11642W        W83957   8.445   4.525  12.909
11643W        W83958  32.928  23.103   3.807
11644W        W83959  36.845   6.942   3.613
11645W        W83960  42.899  34.201   3.232
11646W        W83961   8.776  18.546  14.333
11647W        W83962   1.270  25.706   2.346
11648W        W83963  11.628   9.851  11.370
11649W        W83964  27.245  35.044   0.823
11650W        W83965   2.830  40.451  14.702
11651W        W83966  25.083   2.462  12.509
11652W        W83967  31.091  23.706   2.321
11653W        W83968  15.316  33.527  11.919
11654W        W83969  23.439  40.946  14.325
11655W        W83970  17.566   2.504   2.835
11656W        W83971  38.394   8.245  14.952
11657W        W83972   2.652  17.682   4.968
11658W        W83973  24.246  22.691   3.283
11659W        W83974   1.296  44.578   1.915
11660W        W83975  44.217  35.412   4.836
11661W        W83976  38.840   3.462   1.219
11662W        W83977  13.730   5.693   4.506
11663W        W83978  26.968  40.084  11.554
11664W        W83979  41.189  40.244  11.090
11665W        W83980  41.570  28.651   3.066
11666W        W83981   7.793   3.812   1.352
11667W        W83982  10.730   2.363  11.418
11668W        W83983  24.508  35.423  13.869
11669W        W83984  35.950  22.744  13.337
11670W        W83985  10.754  33.123   3.633
11671W        W83986  39.872  23.293  12.495
11672W        W83987  24.763   6.116  13.293
11673W        W83988  12.603   2.916   4.172
11674W        W83989  28.175  30.463  11.989
11675W        W83990   7.142  12.225   4.052
11676W        W83991  21.196  23.144   1.202
11677W        W83992  36.885  40.333  11.587
11678W        W83993  25.175   5.602  14.890
11679W        W83994  34.067   2.300   0.941
11680W        W83995  18.804  11.741   5.185
11681W        W83996  29.918  35.034  12.826
11682W        W83997  22.312  36.862  13.244
11683W        W83998  18.670  40.608  11.205
11684W        W83999  40.269  18.733  12.099
11685W        W84000  13.089  10.233   4.111
11686W        W84001  32.394  13.494   1.301
11687W        W84002  27.959   2.607  12.020
11688W        W84003  13.785  33.624  11.148
11689W        W84004   1.960  38.397  14.792
11690W        W84005  10.886   1.279  12.975
11691W        W84006   6.776  39.844  12.519
11692W        W84007  25.711   4.230   3.272
11693W        W84008  24.049  16.302  14.635
11694W        W84009  19.922  31.198  11.746
11695W        W84010  38.173  40.181   3.266
11696W        W84011  32.435  30.548  13.613
11697W        W84012  14.625  19.301  12.535
11698W        W84013  41.068  13.108  12.747
11699W        W84014  25.668   9.115  13.390
11700W        W84015   1.398  20.110   3.293
11701W        W84016   2.415  10.255  14.537
11702W        W84017  39.417  16.881   4.670
11703W        W84018  33.011  32.587   4.476
11704W        W84019  38.466  14.688  12.609
11705W        W84020  35.519  28.465   1.907
11706W        W84021   9.848  11.183   0.855
11707W        W84022   0.003  41.903  13.457
11708W        W84023   1.027  37.057  11.484
11709W        W84024   0.301  21.002   3.381
11710W        W84025  10.126  37.611   3.193
11711W        W84026   9.929  33.678   1.155
11712W        W84027  40.627  37.726   0.721
11713W        W84028  22.042  17.207  11.898
11714W        W84029   6.699  42.175   5.162
11715W        W84030   8.163  14.667   2.204
11716W        W84031   4.881  26.785  14.959
11717W        W84032  18.247  37.617  10.209
11718W        W84033   6.704  19.089   2.875
11719W        W84034  12.933   1.378   1.446
11720W        W84035  40.820  16.923  10.708
11721W        W84036  12.685  40.564  13.820
11722W        W84037  11.431  37.564  13.300
11723W        W84038  12.636  30.119   4.858
11724W        W84039  11.185   8.691   4.635
11725W        W84040  34.393  13.217  14.818
11726W        W84041   8.433   4.660   2.540
11727W        W84042  11.441   8.917   2.691
11728W        W84043  22.011  40.043  12.089
11729W        W84044  28.358  41.002   2.375
11730W        W84045   6.467   8.166   1.992
11731W        W84046  20.663   7.052  12.112
11732W        W84047  30.987  35.555  14.687
11733W        W84048  19.189   7.833  14.809
11734W        W84049  39.549  35.811   2.573
11735W        W84050  38.525  33.631  12.522
11736W        W84051  28.025  21.053  11.613
11737W        W84052   3.690  39.629   3.709
11738W        W84053  26.901  29.025   1.441
11739W        W84054  41.529  32.287   0.562
11740W        W84055   6.387  29.072  14.062
11741W        W84056  24.740  33.599  13.564
11742W        W84057  35.670  29.464   0.235
11743W        W84058   4.895  38.469  12.034
11744W        W84059  40.436  25.960   0.819
11745W        W84060  26.597  37.776  10.571
11746W        W84061  35.119  42.246   0.965
11747W        W84062   6.319  32.511   0.009
11748W        W84063   4.897  17.763  12.393
11749W        W84064  30.992  22.118  10.962
11750W        W84065  21.259  26.656  10.643
11751W        W84066  38.079  35.871   3.951
11752W        W84067  30.413  15.632  14.813
11753W        W84068   5.426  41.972   3.601
11754W        W84069  32.681  30.070   2.177
11755W        W84070  16.284  22.697  11.387
11756W        W84071  22.177  16.212  13.373
11757W        W84072  16.377  32.954   0.404
11758W        W84073  37.711  24.247   5.191
11759W        W84074  34.326  33.411  14.396
11760W        W84075  17.748  23.183  12.539
11761W        W84076   1.233  31.498  11.507
11762W        W84077  13.589  44.358   0.239
11763W        W84078  12.139  36.337  12.937
11764W        W84079  34.319  16.257  11.231
11765W        W84080   8.981  14.059   1.198
11766W        W84081  32.646   5.430   3.190
11767W        W84082  22.035  11.556   3.277
11768W        W84083  36.112  16.748  11.709
11769W        W84084  34.777  43.416  12.256
11770W        W84085  21.572  32.730   0.804
11771W        W84086  31.903  17.735   3.602
11772W        W84087  33.714  27.975   3.580
11773W        W84088  29.744  27.669  12.082
11774W        W84089  27.914  41.466  12.040
11775W        W84090   6.780  38.491   1.874
11776W        W84091  25.667  30.898   1.174
11777W        W84092  33.696  41.657   4.270
11778W        W84093  21.840  16.535  10.672
11779W        W84094  38.617   3.192  13.952
11780W        W84095  14.158  39.757  11.573
11781W        W84096   4.923  37.857   2.237
11782W        W84097  20.046  35.876   2.667
11783W        W84098  36.114  32.388  11.666
11784W        W84099  29.892  31.000  11.782
11785W        W84100  22.504  30.941   1.488
11786W        W84101  26.909  12.581  12.753
11787W        W84102   4.498  33.038   3.351
11788W        W84103  43.496   0.352  12.407
11789W        W84104   8.205  21.498   4.162
11790W        W84105   8.148  11.113  14.942
11791W        W84106   4.003   2.219  12.891
11792W        W84107  22.545   5.681  11.432
11793W        W84108  15.317  15.729   4.173
11794W        W84109  41.509   3.466   3.681
11795W        W84110   3.720  36.166  11.112
11796W        W84111  36.444  22.175   4.076
11797W        W84112  37.089  30.600  13.410
11798W        W84113  12.715  17.119   0.723
11799W        W84114  23.438  18.504  13.153
11800W        W84115  40.825   9.016   3.346
11801W        W84116  43.412  23.834   0.408
11802W        W84117  31.962  42.596  12.667
11803W        W84118   9.766  10.898  12.442
11804W        W84119  21.817   6.364   0.691
11805W        W84120   2.074  34.852  14.748
11806W        W84121  39.403  31.506   3.568
11807W        W84122   3.790  44.907  11.221
11808W        W84123  21.790  38.976   0.299
11809W        W84124  10.668   2.388   2.367
11810W        W84125  14.679  21.672  11.689
11811W        W84126   9.457  36.804   3.943
11812W        W84127   5.472   3.200  13.875
11813W        W84128   5.758  42.293   0.726
11814W        W84129  14.539  32.095  12.116
11815W        W84130  38.295  33.528  13.514
11816W        W84131  22.550  18.295   3.275
11817W        W84132  19.973  39.021  13.288
11818W        W84133   4.644   1.169  14.163
11819W        W84134  25.296  25.636  12.844
11820W        W84135   1.013  19.625   4.090
11821W        W84136   3.188   4.698  14.421
11822W        W84137  18.542  41.547   1.811
11823W        W84138  30.636  41.952  12.624
11824W        W84139   6.927  38.048   3.372
11825W        W84140  23.082   0.768  11.423
11826W        W84141  10.854   6.972   0.677
11827W        W84142   7.388   6.308   0.801
11828W        W84143   5.313   3.821  12.584
11829W        W84144  15.625  23.590  13.903
11830W        W84145  14.562  24.168  11.000
11831W        W84146  27.446  13.351  10.502
11832W        W84147   3.388   6.984   4.066
11833W        W84148  42.047  20.128   4.461
11834W        W84149  18.077  23.930  14.822
11835W        W84150   4.298  38.419   1.274
11836W        W84151  39.061  39.816   2.890
11837W        W84152  26.647  24.788  12.904
11838W        W84153  39.319  14.170  13.925
11839W        W84154  27.011  33.026   2.697
11840W        W84155  14.752  20.041   4.198
11841W        W84156  43.001  33.358  11.880
11842W        W84157  12.635   3.992  13.917
11843W        W84158  33.881  11.823   4.925
11844W        W84159  37.774   8.675   3.260
11845W        W84160  39.921  38.855   2.348
11846W        W84161   1.337   1.364   1.296
11847W        W84162   4.495  23.620   4.905
11848W        W84163  27.066  27.552   4.531
11849W        W84164  28.896  15.192  11.552
11850W        W84165   2.228  32.223   4.146
11851W        W84166  35.447   9.870   2.224
11852W        W84167  30.523   3.355  12.199
11853W        W84168  13.038  12.774  13.996
11854W        W84169  34.674  14.290  11.179
11855W        W84170  29.034  36.987  14.982
11856W        W84171  13.585  22.024  12.446
11857W        W84172  44.708  29.816   4.927
11858W        W84173  23.708  23.778  11.908
11859W        W84174  36.573  13.414   2.907
11860W        W84175   1.589   1.976  11.096
11861W        W84176   0.411  16.741   4.851
11862W        W84177  20.256  19.768   0.835
11863W        W84178  21.343  35.135  14.295
11864W        W84179  27.514   3.702   1.750
11865W        W84180   0.856  44.857   4.725
11866W        W84181   4.202  28.939  12.893
11867W        W84182   5.680  16.363   4.624
11868W        W84183  40.468   4.385  13.421
11869W        W84184  27.570  26.495   3.604
11870W        W84185  41.798  31.501   0.919
11871W        W84186   2.863  23.140   1.850
11872W        W84187  43.262  29.957  12.909
11873W        W84188  34.445  14.669   1.393
11874W        W84189  23.748  21.216   4.483
11875W        W84190  31.875  20.013   2.372
11876W        W84191  41.771  29.843  11.131
11877W        W84192   1.166   9.891  10.763
11878W        W84193  44.926  32.847  12.968
11879W        W84194  15.673  10.353  14.753
11880W        W84195   9.196  13.093  10.589
11881W        W84196  13.293  22.517   2.744
11882W        W84197  12.138  25.243  11.560
11883W        W84198  17.765  11.706   1.700
11884W        W84199  39.253   3.193   1.440
11885W        W84200  25.662  11.187  14.304
11886W        W84201  14.841  14.075  12.960
11887W        W84202  39.999   0.061   2.669
11888W        W84203   6.695  44.424  10.439
11889W        W84204  14.506   5.760  12.597
11890W        W84205  29.062  25.277   3.086
11891W        W84206   8.362   6.600   2.385
11892W        W84207   2.315  28.544   4.523
11893W        W84208  23.171  35.112   0.717
11894W        W84209  26.257   7.172   3.732
11895W        W84210   7.425  19.528   0.762
11896W        W84211  15.540  33.560   3.199
11897W        W84212  39.804   4.780   0.976
11898W        W84213  19.214  31.134   0.370
11899W        W84214   5.154  11.183   0.893
11900W        W84215   4.929  40.355   3.119
11901W        W84216   1.467   4.202   1.963
11902W        W84217  12.113  33.002   3.350
11903W        W84218  18.529  14.060   3.299
11904W        W84219  31.528  28.700   4.576
11905W        W84220   2.594  10.168   4.507
11906W        W84221  37.338  33.948   1.259
11907W        W84222  18.213  10.120   3.017
11908W        W84223  42.106  36.408   4.899
11909W        W84224  20.264  44.488  12.057
11910W        W84225  32.547   0.486   4.045
11911W        W84226  40.007   9.782   0.419
11912W        W84227  19.011   2.815   2.922
11913W        W84228  12.373   7.743   0.479
11914W        W84229  42.364   5.699  11.871
11915W        W84230   3.678   5.870   4.627
11916W        W84231  33.354  30.634  11.526
11917W        W84232  28.882  19.667   3.197
11918W        W84233  34.793   1.804  10.330
11919W        W84234  39.769  40.900   3.384
11920W        W84235  38.767  19.486   1.361
11921W        W84236  22.927  24.606  10.923
11922W        W84237  11.677   7.293   4.658
11923W        W84238  37.587   3.361  13.971
11924W        W84239   4.627  13.691  14.058
11925W        W84240  26.034  10.611   2.696
11926W        W84241   6.168  17.041  11.105
11927W        W84242  39.214  19.764  12.844
11928W        W84243  16.988  42.503   1.853
11929W        W84244  43.483   0.238   2.392
11930W        W84245  29.970   0.880  13.998
11931W        W84246  10.063  31.568   4.942
11932W        W84247  38.837   0.804  12.182
11933W        W84248  27.806   7.366   0.691
11934W        W84249  31.943   4.915  12.834
11935W        W84250   4.966  41.115   3.620
11936W        W84251  31.165  29.596   4.995
11937W        W84252   8.313  24.645   3.606
11938W        W84253  38.124  20.101   4.342
11939W        W84254   4.644   4.772   0.542
11940W        W84255   7.995  41.890   4.558
11941W        W84256  24.829  30.292  13.793
11942W        W84257  17.268  26.174   0.255
11943W        W84258  42.098  37.422  12.348
11944W        W84259  24.049   3.003   0.264
11945W        W84260  28.658   3.285  14.031
11946W        W84261   3.166  21.679   1.319
11947W        W84262  22.943  34.552   3.755
11948W        W84263   7.915  17.077  12.093
11949W        W84264   6.350  14.812  14.000
11950W        W84265  40.437  27.930  14.778
11951W        W84266  36.955  16.035   3.258
11952W        W84267   6.631   1.977   3.697
11953W        W84268  24.588  19.657  10.525
11954W        W84269  28.321  10.779   0.236
11955W        W84270   7.889  34.127  14.060
11956W        W84271   2.949   7.390  10.425
11957W        W84272  12.068  43.523  12.834
11958W        W84273  43.420   3.865  14.228
11959W        W84274   2.839  24.936  13.538
11960W        W84275  32.466  29.583  14.686
11961W        W84276  35.104  43.549   1.653
11962W        W84277  41.783  32.457   0.140
11963W        W84278   5.806  19.601  13.397
11964W        W84279  31.946   2.280   4.654
11965W        W84280  36.937  22.227   1.884
11966W        W84281   9.897  21.479   0.371
11967W        W84282  30.644  37.491  14.153
11968W        W84283  43.028  20.575  12.842
11969W        W84284  22.455  32.649   0.535
11970W        W84285  31.173  43.490   4.238
11971W        W84286   1.059   1.751  11.460
11972W        W84287  23.045  30.942   0.477
11973W        W84288  32.189  23.080   1.763
11974W        W84289  16.234  22.405   2.426
11975W        W84290  24.658  23.010  12.903
11976W        W84291  19.278   5.672   4.371
11977W        W84292  12.677  32.853   3.808
11978W        W84293  20.098   0.996  12.022
11979W        W84294  42.977  32.890  13.733
11980W        W84295  10.762   4.788   0.662
11981W        W84296   8.624   5.949   0.944
11982W        W84297   5.782  10.139  14.978
11983W        W84298  34.471  40.776  10.917
11984W        W84299  44.103  23.413  10.326
11985W        W84300  21.580  18.821   4.740
11986W        W84301  25.214   1.812  13.986
11987W        W84302   0.770  22.595  11.990
11988W        W84303  30.468  31.257   2.631
11989W        W84304   3.873  35.798   3.330
11990W        W84305  15.399  21.758   3.230
11991W        W84306  10.396   3.900   1.058
11992W        W84307  14.371  38.966  14.292
11993W        W84308   0.733  18.762   3.854
11994W        W84309  25.409  31.962   0.914
11995W        W84310   4.813   9.097   2.177
11996W        W84311  13.221  14.767   0.404
11997W        W84312  31.964   6.757  12.547
11998W        W84313   5.873  26.330   2.092
11999W        W84314   6.497  23.195   4.170
12000W        W84315  33.320   9.196  11.200
12001W        W84316  22.470  28.483   4.602
12002W        W84317   2.254   9.129  11.922
12003W        W84318   0.982  26.170   3.289
12004W        W84319  32.416  38.413  10.534
12005W        W84320  26.158  21.142   1.672
12006W        W84321  23.719  35.766  12.204
12007W        W84322   2.657  12.570  13.353
12008W        W84323  37.968  19.384  12.800
12009W        W84324  42.681  32.447   4.089
12010W        W84325   5.324  21.012  13.824
12011W        W84326  37.889  12.780  12.788
12012W        W84327  33.138  22.728   1.638
12013W        W84328  33.636  16.996  13.532
12014W        W84329   6.867  39.313  14.045
12015W        W84330   7.275  23.001   4.775
12016W        W84331  44.679   6.213  11.583
12017W        W84332  37.088  13.354  12.591
12018W        W84333  18.624  35.265   9.890
12019W        W84334  39.897  28.049   0.299
12020W        W84335   6.309  31.705   3.211
12021W        W84336   9.944  29.177  13.828
12022W        W84337  19.654  24.027   2.942
12023W        W84338   2.665  24.998   2.328
12024W        W84339  43.780  10.479   0.071
12025W        W84340  43.891  44.292   1.875
12026W        W84341  42.821  40.588  10.728
12027W        W84342  23.233  24.414   1.792
12028W        W84343  13.597  43.117   2.717
12029W        W84344  10.766  20.043   5.945
12030W        W84345  39.310   2.395  14.740
12031W        W84346  30.900  23.447   2.750
12032W        W84347   5.268  25.155  12.046
12033W        W84348  11.598  15.071   2.289
12034W        W84349   3.465   7.172  12.190
12035W        W84350  30.132   1.413   2.304
12036W        W84351  27.852  14.130   2.293
12037W        W84352  28.860  28.044  13.037
12038W        W84353  14.611  29.189   2.184
12039W        W84354  38.303  17.636  12.162
12040W        W84355   1.917  18.325  14.545
12041W        W84356  11.075  37.302   4.877
12042W        W84357  26.534   3.777  12.025
12043W        W84358  21.929  36.362  12.654
12044W        W84359  39.826   2.345  14.812
12045W        W84360  12.104  29.678   3.849
12046W        W84361  15.893  40.503   3.278
12047W        W84362  25.001   5.494  12.648
12048W        W84363  30.225  25.627   2.725
12049W        W84364  31.410  14.267  11.935
12050W        W84365  25.596   3.906   4.216
12051W        W84366  25.466  30.165  11.523
12052W        W84367  20.490  12.741  11.601
12053W        W84368  23.994  27.562  12.976
12054W        W84369  15.793  18.232   1.248
12055W        W84370  31.694  28.210   2.712
12056W        W84371  44.116   8.613   1.890
12057W        W84372   9.928  18.241   0.446
12058W        W84373  18.780  40.293  14.577
12059W        W84374  33.338   9.767   3.673
12060W        W84375  23.559  34.553   2.775
12061W        W84376   0.963  22.141   1.173
12062W        W84377  33.052  10.877   3.779
12063W        W84378  13.823  18.758   3.242
12064W        W84379  34.853   8.315   0.542
12065W        W84380  38.403  43.929   1.115
12066W        W84381  10.931  15.826  13.144
12067W        W84382  27.883  22.638   0.722
12068W        W84383  27.293   7.862  11.216
12069W        W84384  33.604  31.408  14.304
12070W        W84385  30.116  24.104   3.804
12071W        W84386  14.087  13.805  14.538
12072W        W84387  28.508   5.377   4.744
12073W        W84388  30.274  21.564   2.733
12074W        W84389  42.976  43.589   3.846
12075W        W84390  40.909  34.400  12.047
12076W        W84391  44.321  19.812  10.713
12077W        W84392  27.057  13.906  14.013
12078W        W84393   2.037  22.101   1.864
12079W        W84394  21.726  33.953  12.540
12080W        W84395  28.064  10.972  11.551
12081W        W84396  25.894  43.156   1.215
12082W        W84397  19.672  23.258  14.376
12083W        W84398  37.966  29.186   1.933
12084W        W84399   2.718  13.052   0.757
12085W        W84400  32.840   3.171   2.280
12086W        W84401  44.035   2.877  14.381
12087W        W84402  20.206   3.703  14.448
12088W        W84403   5.283  12.220  11.159
12089W        W84404   7.165  10.805   4.187
12090W        W84405  21.133   3.191  12.135
12091W        W84406  19.023  29.714  14.754
12092W        W84407  24.581  43.554  13.397
12093W        W84408  44.675  43.918  11.580
12094W        W84409   8.559  39.906  13.978
12095W        W84410  35.464   3.393   4.943
12096W        W84411   2.791  38.581   0.884
12097W        W84412  41.900  15.029  13.852
12098W        W84413  38.376  12.746   4.528
12099W        W84414   2.370  37.740   2.598
12100W        W84415  10.112  19.494   1.436
12101W        W84416   2.220   8.638   2.732
12102W        W84417  41.335  36.387  14.314
12103W        W84418  41.076  22.489  13.265
12104W        W84419   3.951  32.840   1.209
12105W        W84420   2.986  15.527  14.535
12106W        W84421   0.457  14.308  10.997
12107W        W84422   4.717  10.677  11.177
12108W        W84423  42.295   5.231  11.161
12109W        W84424  37.059   2.055  13.345
12110W        W84425  13.437   1.250  11.588
12111W        W84426  44.033  35.878   2.965
12112W        W84427  34.412  29.845   0.398
12113W        W84428   6.481  26.406  13.405
12114W        W84429  31.929  40.407   0.800
12115W        W84430  41.986  38.053   2.556
12116W        W84431  40.802  28.734  11.754
12117W        W84432  40.339  15.830   0.924
12118W        W84433  32.262  28.903  10.128
12119W        W84434  33.456  23.475   4.641
12120W        W84435  15.040  37.872  11.425
12121W        W84436  11.300   9.199   4.509
12122W        W84437  23.984  20.114   4.718
12123W        W84438  31.384  26.618  11.023
12124W        W84439  31.814  18.578   0.922
12125W        W84440  14.329  26.960  12.328
12126W        W84441  24.059  38.668   2.904
12127W        W84442  28.184  41.786  13.900
12128W        W84443  34.003   5.145  10.378
12129W        W84444  29.905   5.837  12.522
12130W        W84445   9.613  43.533  11.639
12131W        W84446   5.935   7.699   1.828
12132W        W84447   6.883   8.802  14.738
12133W        W84448  41.954  44.907   3.162
12134W        W84449   7.158   6.278  11.557
12135W        W84450  40.734  24.622   9.823
12136W        W84451  10.740  34.061   3.549
12137W        W84452  27.100  42.151  14.959
12138W        W84453  35.542  30.106   1.806
12139W        W84454  39.251  36.194   4.724
12140W        W84455  17.381  36.864  14.395
12141W        W84456  18.413  28.099   3.274
12142W        W84457  34.830   6.692  14.041
12143W        W84458  33.389  40.314  11.967
12144W        W84459   5.102  24.005  12.403
12145W        W84460  12.164  25.537  14.466
12146W        W84461  37.587  26.912   1.881
12147W        W84462  34.068  30.695   2.262
12148W        W84463  30.257  27.874  11.964
12149W        W84464  19.249  43.778   3.406
12150W        W84465  42.641  37.539  13.527
12151W        W84466  35.679  17.177   3.835
12152W        W84467  43.307  10.437   2.010
12153W        W84468  26.946   2.835   4.069
12154W        W84469   3.827  23.501   0.872
12155W        W84470  23.336   6.124   0.303
12156W        W84471  10.712  38.491   3.682
12157W        W84472   2.463  23.068  10.379
12158W        W84473  38.581  21.795   4.644
12159W        W84474   7.728  22.520   2.258
12160W        W84475  40.830  39.523  11.561
12161W        W84476   2.902  10.756   1.013
12162W        W84477  17.725  31.460   1.324
12163W        W84478  40.262  35.559   0.856
12164W        W84479  34.931  35.494   1.329
12165W        W84480  11.638  33.005  10.643
12166W        W84481  33.068   6.801  10.925
12167W        W84482  25.655  27.777   1.995
12168W        W84483  22.902  35.795   3.260
12169W        W84484  34.371  18.199   3.316
12170W        W84485   4.785  10.365   0.983
12171W        W84486  12.805   1.705  11.106
12172W        W84487  12.087  31.587   1.188
12173W        W84488  12.221  44.359  12.180
12174W        W84489  40.869  27.377  10.866
12175W        W84490  34.384  37.957   4.181
12176W        W84491  11.164  37.846   0.419
12177W        W84492  17.995  34.494   4.777
12178W        W84493  44.232  35.622  13.066
12179W        W84494   6.498  41.913   1.375
12180W        W84495  25.021  41.377  10.656
12181W        W84496   7.175  32.908   3.443
12182W        W84497  22.235   7.112   1.413
12183W        W84498  33.876  36.426   0.006
12184W        W84499  19.257  33.810  11.537
12185W        W84500  10.132  17.311   4.047
12186W        W84501   7.702   6.514  10.431
12187W        W84502  32.434  17.088   1.596
12188W        W84503  43.114   4.658  11.363
12189W        W84504  37.671  32.834   4.503
12190W        W84505  24.139   9.166   1.927
12191W        W84506   9.100  22.650   1.796
12192W        W84507   4.077  18.636  10.664
12193W        W84508  18.683  26.039   0.587
12194W        W84509   5.265  15.201   4.377
12195W        W84510   2.944   6.523   2.385
12196W        W84511  10.645  28.078  14.308
12197W        W84512   9.434  13.856   1.332
12198W        W84513   5.063   8.957  10.073
12199W        W84514  19.127  37.046   3.301
12200W        W84515  28.100  38.636  11.997
12201W        W84516   1.893  33.942  14.918
12202W        W84517  21.707  30.579   3.726
12203W        W84518  33.355  34.474   2.261
12204W        W84519  38.482  36.768   4.793
12205W        W84520  39.999  19.716   3.350
12206W        W84521  40.762  41.503   1.825
12207W        W84522   1.973  12.189  13.934
12208W        W84523   9.621  13.152   3.740
12209W        W84524  31.614  33.553  11.417
12210W        W84525  27.553   4.391   4.364
12211W        W84526  27.609  11.891  13.072
12212W        W84527   1.328   7.661  10.687
12213W        W84528  30.515  26.898   3.125
12214W        W84529  11.259  25.270   0.973
12215W        W84530  24.931   5.031  11.665
12216W        W84531  10.378  44.393   3.701
12217W        W84532  37.333  27.181   4.310
12218W        W84533  39.621   9.900   0.754
12219W        W84534  12.565  31.990   1.210
12220W        W84535  19.244  21.538  10.708
12221W        W84536  32.006  34.799  10.781
12222W        W84537  26.354  42.304   4.985
12223W        W84538  21.557  15.330   3.829
12224W        W84539   2.597  26.919  12.160
12225W        W84540  31.077  35.947   0.580
12226W        W84541  42.977  37.047  10.778
12227W        W84542  20.160  27.699  13.831
12228W        W84543  27.115  19.200   5.428
12229W        W84544  14.610  11.163  10.239
12230W        W84545  38.531  29.484   2.863
12231W        W84546  12.752  35.537   3.614
12232W        W84547  14.778  36.512   0.906
12233W        W84548  12.817   4.309   4.724
12234W        W84549  10.075  14.755  11.137
12235W        W84550  43.676   9.688   2.644
12236W        W84551  15.897  42.475   2.771
12237W        W84552  42.687  31.980   4.368
12238W        W84553  43.481  12.624   3.216
12239W        W84554  34.732  33.507   2.104
12240W        W84555   6.786  14.313   4.719
12241W        W84556   4.770  31.446   2.342
12242W        W84557  28.125  19.072  14.996
12243W        W84558   8.702  31.403   0.643
12244W        W84559  39.875  39.893   2.423
12245W        W84560  41.063   1.442   0.413
12246W        W84561  13.733  34.710   5.004
12247W        W84562  13.077   6.850   4.579
12248W        W84563  26.220  34.310  12.950
12249W        W84564  17.650  24.098   4.364
12250W        W84565  17.029  39.860  13.633
12251W        W84566  14.717   2.727   3.279
12252W        W84567  16.266  17.286   2.771
12253W        W84568  37.088   7.726  13.820
12254W        W84569  25.471   9.479  14.542
12255W        W84570  33.316  14.759   3.989
12256W        W84571  25.569   8.492  14.384
12257W        W84572  43.560  19.460   4.942
12258W        W84573  42.058  24.439   3.516
12259W        W84574  16.127  32.372  10.731
12260W        W84575  12.308   4.228   4.609
12261W        W84576  44.724  34.085   1.222
12262W        W84577  13.556   0.802   4.179
12263W        W84578  17.697  26.822  10.910
12264W        W84579  40.662  35.826  13.506
12265W        W84580   4.239  28.948   0.754
12266W        W84581  44.456  20.547  11.212
12267W        W84582  28.055  24.096  14.792
12268W        W84583  33.607  29.642   0.696
12269W        W84584   8.965  19.234  10.928
12270W        W84585   4.333   7.914  10.631
12271W        W84586  15.680  30.385  11.596
12272W        W84587   4.142  23.728   0.318
12273W        W84588   8.936  33.122   4.248
12274W        W84589  16.516   3.343   1.297
12275W        W84590   8.191   4.415  11.443
12276W        W84591  37.033  17.593  12.303
12277W        W84592  42.816  26.713   0.853
12278W        W84593   3.298  24.424   1.717
12279W        W84594  13.295  40.396   4.567
12280W        W84595  43.047  23.154   2.392
12281W        W84596  22.691  14.730   0.843
12282W        W84597  44.761  39.354  14.487
12283W        W84598   8.212  43.220   2.344
12284W        W84599  26.643  33.421  13.574
12285W        W84600   5.907  27.276   4.600
12286W        W84601  31.904  36.174  13.812
12287W        W84602  12.383  19.176   4.551
12288W        W84603  26.196  37.896  13.486
12289W        W84604  28.157   4.292   5.034
12290W        W84605  14.135  14.260   3.116
12291W        W84606   2.459  39.207   3.659
12292W        W84607  37.391   9.769  12.965
12293W        W84608  44.910  21.439   2.067
12294W        W84609   3.808  14.893  10.667
12295W        W84610  43.514  13.778  11.874
12296W        W84611   7.373  29.658  10.618
12297W        W84612  19.810   4.919  11.078
12298W        W84613  26.518  19.577   1.931
12299W        W84614   8.141   2.018  12.367
12300W        W84615   5.345  42.272  14.796
12301W        W84616  19.140  44.726  12.166
12302W        W84617  32.051  24.709  13.516
12303W        W84618  12.296  18.577  10.397
12304W        W84619  40.085  25.141  11.498
12305W        W84620  41.793  15.209  10.612
12306W        W84621   0.400  10.890  10.977
12307W        W84622  36.513   6.598  10.894
12308W        W84623   2.375  13.091  10.698
12309W        W84624  41.920  44.473  14.097
12310W        W84625  36.882  34.889  13.335
12311W        W84626  28.533  33.001   3.114
12312W        W84627  25.782  43.887   1.851
12313W        W84628   4.509  17.859  13.014
12314W        W84629  14.911  11.910  11.720
12315W        W84630  41.249   7.243  12.011
12316W        W84631  23.235  44.440   1.716
12317W        W84632  13.956  16.839   1.247
12318W        W84633  35.840  44.482  12.450
12319W        W84634  14.229  24.260  10.561
12320W        W84635  42.347  43.866  14.566
12321W        W84636  12.561  24.992   1.658
12322W        W84637   3.209   4.956   0.670
12323W        W84638  25.959  22.713  12.375
12324W        W84639   0.037  13.810   0.464
12325W        W84640   6.813  34.852  13.365
12326W        W84641  19.255  33.056  10.571
12327W        W84642  23.190  22.217   4.547
12328W        W84643  39.786  19.108   4.941
12329W        W84644  14.347  32.050  13.524
12330W        W84645  23.070  44.538   2.201
12331W        W84646  44.929   9.592  12.448
12332W        W84647  39.097  31.498  14.374
12333W        W84648   4.403  12.086  14.952
12334W        W84649  38.855  34.649  13.952
12335W        W84650  33.874  33.118  12.460
12336W        W84651  38.275  14.788   1.134
12337W        W84652   6.486  21.038   3.662
12338W        W84653  44.684  24.219   3.113
12339W        W84654  33.882  31.680   2.347
12340W        W84655  38.590  44.002  13.516
12341W        W84656  41.321  10.628  11.598
12342W        W84657  22.459   8.606   5.002
12343W        W84658  23.480   4.727   2.390
12344W        W84659  17.342  25.549  10.943
12345W        W84660  10.083   7.336   1.968
12346W        W84661  37.020  17.773   0.906
12347W        W84662  42.850   1.311   3.118
12348W        W84663  38.038  12.556   0.708
12349W        W84664   7.423   5.001  12.592
12350W        W84665   6.194  40.117  14.735
12351W        W84666   0.052  25.690   1.270
12352W        W84667  38.987  39.434   4.237
12353W        W84668  32.862   2.411   1.507
12354W        W84669  23.221  16.590   0.766
12355W        W84670  11.656  10.156   5.089
12356W        W84671  38.400  44.390   1.368
12357W        W84672  10.314  37.982   4.548
12358W        W84673  22.128  20.231  13.964
12359W        W84674  44.078  13.712   2.245
12360W        W84675  32.574  39.448  12.539
12361W        W84676  39.333   3.220   0.042
12362W        W84677  38.292  41.265   3.250
12363W        W84678  30.036  25.684   2.148
12364W        W84679  17.989  14.574   0.457
12365W        W84680  43.037  20.845   3.356
12366W        W84681  34.079   2.720  13.798
12367W        W84682   0.766  18.558   0.356
12368W        W84683  39.532  10.106   4.205
12369W        W84684   8.200  33.438  11.999
12370W        W84685  34.024  15.085   3.819
12371W        W84686  14.795  39.434   1.909
12372W        W84687   9.784  22.250   0.805
12373W        W84688   4.519  43.471  14.863
12374W        W84689  42.286   3.727   0.868
12375W        W84690  24.945  17.105   4.850
12376W        W84691  19.043   5.402   0.983
12377W        W84692  36.346  22.630   0.441
12378W        W84693  12.114  22.280   2.247
12379W        W84694  20.169  43.369   2.775
12380W        W84695  16.448  22.988   3.176
12381W        W84696  42.783  25.006   4.631
12382W        W84697  40.935  28.568   0.835
12383W        W84698  13.489  19.024  13.405
12384W        W84699  31.057  24.197  14.559
12385W        W84700   0.316   2.201  13.584
12386W        W84701   8.147  11.692   3.969
12387W        W84702  34.599   9.375   1.365
12388W        W84703  26.687  28.607  10.564
12389W        W84704  37.195  36.720   0.404
12390W        W84705   2.910  19.098   0.363
12391W        W84706  13.261  32.023  11.450
12392W        W84707   1.006  16.726  13.955
12393W        W84708  15.458  23.644  12.014
12394W        W84709   7.057  16.919  11.991
12395W        W84710  29.098  16.538  12.923
12396W        W84711  28.036  25.541  11.632
12397W        W84712  23.572  17.084  13.866
12398W        W84713   5.307  23.407   2.369
12399W        W84714   0.977   6.798  14.854
12400W        W84715  21.641  17.615  12.482
12401W        W84716  25.723  24.257   4.586
12402W        W84717   0.280   7.181  12.886
12403W        W84718  36.876   0.663  14.885
12404W        W84719  13.288  30.657   4.349
12405W        W84720   6.808   6.396  12.358
12406W        W84721  15.262  15.522  12.536
12407W        W84722  35.134   6.515   0.416
12408W        W84723  20.178  12.510  13.761
12409W        W84724   6.878  41.883  12.040
12410W        W84725  14.824  30.112   2.483
12411W        W84726  10.574  19.711   1.388
12412W        W84727   1.998  26.889   2.344
12413W        W84728   7.522  20.883  12.534
12414W        W84729  35.278   0.548   3.708
12415W        W84730   7.174  12.644  14.451
12416W        W84731  21.662   6.162   3.716
12417W        W84732  20.054   8.421  10.238
12418W        W84733  32.231   0.737   3.283
12419W        W84734  31.524  22.978  10.602
12420W        W84735  11.768  35.676   3.356
12421W        W84736   7.907  26.569   0.422
12422W        W84737  28.065  29.178   4.846
12423W        W84738  21.324  35.840   4.323
12424W        W84739  32.392   3.769  14.077
12425W        W84740  31.193  18.240   1.578
12426W        W84741  25.829  16.844  11.136
12427W        W84742   8.888  38.231  11.619
12428W        W84743  29.031  31.681   4.077
12429W        W84744  37.369  13.389   4.063
12430W        W84745  41.599   1.798   0.838
12431W        W84746  41.123  33.515   3.364
12432W        W84747   1.483   6.187  11.121
12433W        W84748  20.313  16.320   1.776
12434W        W84749  35.963  31.181  14.848
12435W        W84750  32.237  15.744  13.003
12436W        W84751  35.292  30.101  10.624
12437W        W84752  33.018  41.235  11.737
12438W        W84753  33.970  30.571  14.431
12439W        W84754  13.993  25.797  13.067
12440W        W84755  21.902  35.918   0.275
12441W        W84756  10.726  15.535   4.220
12442W        W84757  17.207  40.875   5.119
12443W        W84758  10.134  24.676  13.779
12444W        W84759  30.354  36.907  14.870
12445W        W84760  32.608  25.643  10.672
12446W        W84761   1.685  41.080  14.870
12447W        W84762  31.080  21.948   1.717
12448W        W84763  23.140  26.166   1.457
12449W        W84764  38.907  25.985   5.414
12450W        W84765   3.809  26.017  13.595
12451W        W84766   4.752  17.209  12.368
12452W        W84767  13.642  42.442   0.670
12453W        W84768   4.999  43.408   0.293
12454W        W84769  33.109  42.885  12.976
12455W        W84770  44.023  34.677   0.911
12456W        W84771  26.484   8.768   2.720
12457W        W84772  19.830  38.467  14.654
12458W        W84773   2.826  29.286   2.807
12459W        W84774  41.773   5.840  13.654
12460W        W84775  10.245   3.416   0.165
12461W        W84776  13.690  30.478  12.760
12462W        W84777  43.466  12.450   1.920
12463W        W84778  35.779  39.085   4.566
12464W        W84779  25.579   2.945   0.284
12465W        W84780  34.357  34.891   1.472
12466W        W84781   3.039  34.458   2.908
12467W        W84782  37.837   0.975   1.493
12468W        W84783  13.274  27.600  12.659
12469W        W84784  11.424  26.802  12.359
12470W        W84785  40.167  15.612   2.313
12471W        W84786   3.769   1.298  12.373
12472W        W84787  14.828  23.513  14.559
12473W        W84788  18.989  18.174  13.886
12474W        W84789  18.568   7.781   9.869
12475W        W84790   1.914  34.392   0.774
12476W        W84791   8.756  20.282  13.920
12477W        W84792  28.466  25.582   3.682
12478W        W84793  27.888  14.270   4.693
12479W        W84794  16.860  10.999   5.033
12480W        W84795  37.609  21.433   3.364
12481W        W84796  28.364  11.235   2.294
12482W        W84797   2.158  36.074  10.217
12483W        W84798   3.603  27.067  14.926
12484W        W84799   5.806  32.904  11.161
12485W        W84800  38.424  13.549   1.727
12486W        W84801  25.949  20.037   3.077
12487W        W84802   3.730  21.345  11.932
12488W        W84803  39.055  18.519   1.371
12489W        W84804  40.345  25.723  12.338
12490W        W84805  38.415  33.926  13.855
12491W        W84806  31.818  11.419  10.169
12492W        W84807  13.806   0.407  11.171
12493W        W84808  30.085  16.119   3.241
12494W        W84809  17.693  44.770   3.430
12495W        W84810  43.942  16.115  11.918
12496W        W84811  17.030   3.654  13.929
12497W        W84812   8.939  11.316  10.576
12498W        W84813  28.164  17.620   3.147
12499W        W84814   5.034  44.135  12.475
12500W        W84815  29.656   9.402   2.169
12501W        W84816  42.946  41.546  13.290
12502W        W84817  19.246   0.394  12.506
12503W        W84818  17.336   6.225   4.896
12504W        W84819  25.901  17.697   1.975
12505W        W84820  25.555  12.938   1.885
12506W        W84821  12.257  33.508   3.336
12507W        W84822  40.198  38.692   0.988
12508W        W84823  42.029  20.677  13.178
12509W        W84824  14.338  23.385   1.302
12510W        W84825  33.133  19.029  13.367
12511W        W84826  43.668  12.624   3.699
12512W        W84827  10.680  19.648  13.106
12513W        W84828  23.582  19.567   2.697
12514W        W84829  41.236   4.400   1.254
12515W        W84830  23.780  36.150  11.101
12516W        W84831  30.582  27.043  13.080
12517W        W84832   1.154  37.096   0.907
12518W        W84833   5.267  41.992   2.095
12519W        W84834  39.345   8.299  14.866
12520W        W84835  38.845   9.552  10.686
12521W        W84836  20.556  36.390   4.814
12522W        W84837  33.335  31.738  11.667
12523W        W84838   1.804  29.045  14.925
12524W        W84839   7.723   0.867   4.530
12525W        W84840  12.121  23.251   2.707
12526W        W84841   5.669  20.441  11.158
12527W        W84842   0.827   5.474  11.587
12528W        W84843   8.566  17.023  13.490
12529W        W84844  13.267  26.854  14.707
12530W        W84845  32.984   1.675   2.071
12531W        W84846  15.956   6.362  12.325
12532W        W84847   1.375   1.539   2.607
12533W        W84848  19.754  18.132   0.509
12534W        W84849   6.449  28.237   0.958
12535W        W84850  32.023  16.884  13.274
12536W        W84851  28.538  15.106  14.766
12537W        W84852  21.640  36.794   4.165
12538W        W84853  19.127   1.672   0.335
12539W        W84854   0.302  24.157   1.855
12540W        W84855  35.045  12.911   3.574
12541W        W84856  20.481  42.839  10.618
12542W        W84857   5.827  15.105   2.754
12543W        W84858  43.364  31.428  13.347
12544W        W84859   5.910  40.572  12.583
12545W        W84860  28.110  14.826  13.376
12546W        W84861  14.507  27.913   0.382
12547W        W84862  22.044  16.005   0.837
12548W        W84863   8.380  15.327   0.921
12549W        W84864   7.740  38.294  12.446
12550W        W84865   0.751  36.901   1.191
12551W        W84866  15.695  32.841   3.767
12552W        W84867  42.498  32.095  11.542
12553W        W84868  35.030  14.238   2.601
12554W        W84869  40.362  36.515  11.025
12555W        W84870  21.758  36.001   2.785
12556W        W84871  17.149  31.535  12.900
12557W        W84872  28.229  16.578  11.093
12558W        W84873  17.833  17.826   1.829
12559W        W84874  17.812  28.520   2.751
12560W        W84875  23.713   8.095  11.136
12561W        W84876   4.926   7.295  13.805
12562W        W84877  44.525  44.239   1.208
12563W        W84878  32.355  27.375  12.995
12564W        W84879  31.523  38.554   3.285
12565W        W84880  42.585  19.963   2.622
12566W        W84881  10.737   2.221  14.843
12567W        W84882  28.525  32.322  13.585
12568W        W84883  43.585  31.467  14.804
12569W        W84884  37.356  23.798  13.013
12570W        W84885   4.139  22.682   4.549
12571W        W84886  37.075  14.748  12.996
12572W        W84887  34.559  19.716  11.792
12573W        W84888   8.394  44.486   0.454
12574W        W84889  26.276  36.396   2.845
12575W        W84890   3.256  43.882  13.465
12576W        W84891  37.365  19.216  14.417
12577W        W84892  27.243  12.597  10.820
12578W        W84893   0.482  28.635   1.056
12579W        W84894  36.032  34.958   3.233
12580W        W84895  23.683  29.597  14.027
12581W        W84896  31.612  28.914  13.007
12582W        W84897   9.755   6.974   3.667
12583W        W84898   9.438   3.411   0.867
12584W        W84899  30.204  10.607   2.416
12585W        W84900   6.665   3.717  12.877
12586W        W84901  11.421  44.493   3.769
12587W        W84902  33.379   4.465  11.053
12588W        W84903  19.174  12.175   4.387
12589W        W84904   1.063  41.901   0.963
12590W        W84905  34.685   6.916   2.711
12591W        W84906  13.125  10.326  10.635
12592W        W84907  22.527  12.374   0.285
12593W        W84908  30.365  38.430  13.024
12594W        W84909  44.288   9.105   2.729
12595W        W84910  42.518  39.475  11.093
12596W        W84911  25.167  21.678  13.450
12597W        W84912   8.785  31.457   1.313
12598W        W84913   5.354   2.383  12.679
12599W        W84914  19.193  29.461   4.595
12600W        W84915   4.300  20.057  13.008
12601W        W84916  36.141   2.150   4.989
12602W        W84917   1.855  17.993   2.197
12603W        W84918  14.188  22.978   0.345
12604W        W84919  33.258  36.126   1.861
12605W        W84920  42.001   7.331  10.482
12606W        W84921   6.936  11.049   2.657
12607W        W84922   7.224   2.875   0.346
12608W        W84923  43.851   9.067   1.805
12609W        W84924   9.735   5.592   1.203
12610W        W84925  19.203  17.119   0.829
12611W        W84926  22.213  31.818  12.010
12612W        W84927  30.126   8.645  10.729
12613W        W84928  32.137  39.235  11.937
12614W        W84929  24.692  10.571  11.515
12615W        W84930  26.959  12.856   4.673
12616W        W84931  37.001   2.926   0.500
12617W        W84932  36.638  41.132  12.636
12618W        W84933  28.608  27.791   1.797
12619W        W84934   1.464  11.752  13.390
12620W        W84935   6.384   0.472   0.365
12621W        W84936  37.346   5.502  14.852
12622W        W84937   7.596  25.545   3.388
12623W        W84938  20.145  32.886  14.466
12624W        W84939  28.545  15.581   3.313
12625W        W84940   6.393  40.659  12.397
12626W        W84941   9.797   6.912  11.531
12627W        W84942  36.452  15.164   1.289
12628W        W84943   2.220  30.626  12.526
12629W        W84944  11.418  33.325  14.040
12630W        W84945  22.256  39.979   2.760
12631W        W84946  35.337   8.310  13.441
12632W        W84947  24.967  41.529   4.092
12633W        W84948  20.505  21.984   2.734
12634W        W84949  13.035  37.526  13.128
12635W        W84950  43.524  35.206  12.794
12636W        W84951   6.893  17.672   3.122
12637W        W84952   2.158  29.408  11.546
12638W        W84953  16.083  33.492  11.170
12639W        W84954  44.247  43.264   1.239
12640W        W84955   6.711  43.408   1.407
12641W        W84956   8.226  29.033  11.747
12642W        W84957   7.264  26.012   2.693
12643W        W84958  31.993   2.207   3.099
12644W        W84959  18.889  35.569   4.786
12645W        W84960  15.063  31.622  12.836
12646W        W84961  18.780  12.762   2.305
12647W        W84962   3.464   9.163   4.615
12648W        W84963  16.681  25.024   0.892
12649W        W84964  27.867  30.022   4.719
12650W        W84965   6.214  29.378  14.478
12651W        W84966   5.359  33.324  10.681
12652W        W84967  32.683  15.661   4.947
12653W        W84968  43.348  23.690  11.599
12654W        W84969  43.151  30.565   3.627
12655W        W84970  19.102  10.424  10.706
12656W        W84971  18.152  17.678   3.718
12657W        W84972   4.836   4.748  12.795
12658W        W84973  36.787   4.862   0.780
12659W        W84974  41.475  20.668   0.450
12660W        W84975  10.240  39.017  13.832
12661W        W84976   6.868  22.530   1.921
12662W        W84977   4.438  30.619   4.217
12663W        W84978   8.158  42.925   4.105
12664W        W84979  31.872  22.258  11.582
12665W        W84980  22.648   7.340   3.587
12666W        W84981   7.825  23.402  10.394
12667W        W84982  20.255  16.980   4.341
12668W        W84983  29.584  22.997  12.094
12669W        W84984  39.480  21.086  14.071
12670W        W84985  11.694  12.786  11.137
12671W        W84986  35.310  33.224   2.744
12672W        W84987  31.785  27.857  13.499
12673W        W84988  26.956  10.929   3.979
12674W        W84989  39.905  40.922   0.756
12675W        W84990   2.698  18.788   0.806
12676W        W84991   8.651  18.178   3.135
12677W        W84992  25.677  14.847   0.940
12678W        W84993  10.304  16.295   4.100
12679W        W84994  32.667  41.253   1.264
12680W        W84995  20.029  10.296   3.888
12681W        W84996  38.576  27.191   3.302
12682W        W84997  19.620  14.717  12.425
12683W        W84998  38.527  19.299  14.750
12684W        W84999  35.587  22.548   1.003
12685W        W85000   3.582  32.990  12.766
12686W        W85001  11.244  33.952  14.935
12687W        W85002  26.532  40.511   2.660
12688W        W85003  26.734  39.515   2.607
12689W        W85004  15.147  39.422  13.835
12690W        W85005  44.464  34.115   4.508
12691W        W85006  10.666  25.483  12.324
12692W        W85007  16.080  10.144   3.616
12693W        W85008  35.003  36.259  12.495
12694W        W85009  36.094  39.819   4.127
12695W        W85010  24.140  20.837  12.904
12696W        W85011  32.596  37.003  11.618
12697W        W85012   7.417  20.680   0.303
12698W        W85013  16.397   2.504  13.333
12699W        W85014  13.703  35.476   0.841
12700W        W85015  44.307   9.941   2.397
12701W        W85016  23.536  41.422  10.756
12702W        W85017   6.659  36.470  11.464
12703W        W85018  27.800  30.475   2.284
12704W        W85019  18.541   9.761  10.892
12705W        W85020  29.186  25.403  11.176
12706W        W85021  22.827  21.605   2.881
12707W        W85022  24.469  39.951  14.314
12708W        W85023  20.466  30.068   1.347
12709W        W85024   6.271  34.682  12.479
12710W        W85025  40.302   8.803  13.310
12711W        W85026  12.439   2.782  14.039
12712W        W85027  41.908  27.169  14.819
12713W        W85028  17.362  15.751   2.849
12714W        W85029  13.350   8.807  10.602
12715W        W85030  14.784  29.150   9.992
12716W        W85031  34.838  27.522   1.251
12717W        W85032  27.243   3.916   3.248
12718W        W85033  38.845  19.969  11.907
12719W        W85034   3.067  37.126   2.471
12720W        W85035  16.138   6.322  11.644
12721W        W85036  21.390  31.968   1.718
12722W        W85037  26.620   5.158  12.562
12723W        W85038  22.872   0.139  14.788
12724W        W85039  16.122  42.997   2.873
12725W        W85040  20.143  26.122  11.277
12726W        W85041  21.796  26.586  10.661
12727W        W85042  36.047   0.043   0.373
12728W        W85043  35.487   7.631  14.589
12729W        W85044  32.412  36.502   3.182
12730W        W85045  31.205   6.563   3.748
12731W        W85046  42.006  34.080  12.988
12732W        W85047  42.868  36.509  14.375
12733W        W85048  20.361  20.631  10.972
12734W        W85049  16.772   8.186   2.845
12735W        W85050  36.120  19.257  11.300
12736W        W85051  11.158  27.802  13.649
12737W        W85052  15.751  37.023  12.380
12738W        W85053   1.572  17.080   0.495
12739W        W85054  27.497  24.155   4.076
12740W        W85055   9.496  17.324   0.852
12741W        W85056  13.639  11.199  13.784
12742W        W85057  35.452   9.981  12.583
12743W        W85058  31.795  32.816  11.716
12744W        W85059  44.787  23.259   0.887
12745W        W85060  29.028  12.296  12.498
12746W        W85061  34.091  18.214  13.114
12747W        W85062  38.856  18.983   1.301
12748W        W85063  10.886  38.993  10.653
12749W        W85064   6.468  36.819  14.453
12750W        W85065  29.450  23.571  14.662
12751W        W85066  10.118  34.995   1.275
12752W        W85067   1.490   6.774  10.656
12753W        W85068   1.557  35.968  11.082
12754W        W85069  26.027  33.072   0.969
12755W        W85070   5.957  42.256   3.785
12756W        W85071  10.445  20.228   1.501
12757W        W85072  26.888  27.136  13.842
12758W        W85073  34.622  37.131  11.157
12759W        W85074  15.988  43.920  13.487
12760W        W85075  25.473  20.656  11.421
12761W        W85076   7.939  31.354   2.882
12762W        W85077  32.714  17.791  12.021
12763W        W85078  22.572  15.928  10.321
12764W        W85079  16.679  28.979  14.458
12765W        W85080   0.442  21.122  13.869
12766W        W85081  13.038  29.485   1.680
12767W        W85082   9.190  12.222  13.762
12768W        W85083   4.284  41.832   0.362
12769W        W85084  12.627   7.145   0.871
12770W        W85085  11.322  40.193   3.115
12771W        W85086  39.016  13.297  11.915
12772W        W85087  16.390  39.467   0.855
12773W        W85088  17.829  39.688   0.381
12774W        W85089  38.482  27.647   2.967
12775W        W85090   1.681  41.736   2.885
12776W        W85091  41.548  11.759  10.969
12777W        W85092  25.045  17.043  14.259
12778W        W85093  34.072  21.016  10.621
12779W        W85094  38.988  27.808  12.456
12780W        W85095  44.606   4.134   4.024
12781W        W85096  18.022   8.474  12.497
12782W        W85097  42.048  25.649  13.705
12783W        W85098  31.503  10.083   0.784
12784W        W85099  22.667  15.267   0.743
12785W        W85100   3.314   2.881   0.204
12786W        W85101   4.531  25.200  11.542
12787W        W85102  42.022   6.823  12.182
12788W        W85103  36.003  12.291  11.553
12789W        W85104   6.256  20.727  12.941
12790W        W85105   2.236  16.718  13.317
12791W        W85106  25.667  25.216   4.642
12792W        W85107  19.506  42.240   4.226
12793W        W85108   3.703  38.516   0.024
12794W        W85109  34.922  29.178  14.540
12795W        W85110  11.694   9.623   2.019
12796W        W85111  23.922  40.437   3.589
12797W        W85112  44.073  22.249  12.517
12798W        W85113  34.905  19.644  12.420
12799W        W85114   8.622  31.810  12.543
12800W        W85115  39.559  22.618   3.205
12801W        W85116  27.499   6.817   2.374
12802W        W85117   2.976  32.441   0.396
12803W        W85118  32.988  42.817   3.675
12804W        W85119   3.003  20.288  11.536
12805W        W85120  31.383  11.227  12.355
12806W        W85121  11.208  36.850  12.786
12807W        W85122  30.080  25.598  11.634
12808W        W85123  39.341  33.621   0.924
12809W        W85124  44.761  36.902  11.890
12810W        W85125  17.688  29.010   1.850
12811W        W85126   9.160  41.347  14.557
12812W        W85127  16.656  34.097   2.293
12813W        W85128  28.768  37.786   3.785
12814W        W85129  28.268  16.439   3.240
12815W        W85130  39.152  30.094  12.929
12816W        W85131   0.121   7.435  12.130
12817W        W85132  24.685   7.445  12.971
12818W        W85133  37.479  41.746  10.392
12819W        W85134  20.045  33.502   1.294
12820W        W85135  18.137  38.206   2.164
12821W        W85136  13.440   2.263  12.865
12822W        W85137  22.271  21.606  12.232
12823W        W85138   1.387   9.784   4.555
12824W        W85139  41.336  16.162   0.210
12825W        W85140  11.035  18.236   9.877
12826W        W85141  22.466   8.945  11.989
12827W        W85142  38.406  16.607   2.761
12828W        W85143   4.797   5.828   2.405
12829W        W85144  22.327  17.086  13.123
12830W        W85145  31.799  28.912   4.171
12831W        W85146  11.194   7.156  14.441
12832W        W85147  12.747  23.353   1.309
12833W        W85148  31.883   5.807   1.163
12834W        W85149  40.911  20.197  10.693
12835W        W85150  39.764  13.717  12.354
12836W        W85151  39.371  18.190   2.373
12837W        W85152   4.704  35.183   4.863
12838W        W85153  37.970   1.973  14.898
12839W        W85154  14.415  43.272   4.641
12840W        W85155  17.849   7.247   4.597
12841W        W85156  41.514   9.686   2.521
12842W        W85157  11.492  40.250  12.969
12843W        W85158   7.775  39.961   2.280
12844W        W85159  10.651   4.341   4.583
12845W        W85160  39.558  30.561   1.351
12846W        W85161  33.377  38.834   0.099
12847W        W85162  24.735  44.810   3.144
12848W        W85163  42.066  34.591   1.339
12849W        W85164   7.004   9.787   0.330
12850W        W85165  43.904  20.350  12.544
12851W        W85166  32.607  11.355  14.999
12852W        W85167  21.528  37.774   2.858
12853W        W85168  16.230  21.620   4.551
12854W        W85169  10.654  13.932   5.313
12855W        W85170  10.865  44.307  10.671
12856W        W85171  29.465  32.205   3.715
12857W        W85172  30.127  28.878  13.061
12858W        W85173  28.198  34.987   3.251
12859W        W85174  41.501   6.499  14.031
12860W        W85175  37.339  12.115   0.024
12861W        W85176  30.957  33.475   3.449
12862W        W85177  20.788  21.495  10.509
12863W        W85178   6.707  44.422   9.901
12864W        W85179  19.104  27.561  10.672
12865W        W85180  32.607   0.303   3.565
12866W        W85181  22.581  43.721  11.180
12867W        W85182   6.465  14.782  12.902
12868W        W85183  35.819  32.382   1.868
12869W        W85184  38.733  17.137   2.244
12870W        W85185  24.300   7.380  14.526
12871W        W85186  32.372  26.062   2.703
12872W        W85187  16.981  23.020  11.906
12873W        W85188   1.979  29.691  12.015
12874W        W85189  30.641  27.582   0.835
12875W        W85190  37.274   4.640  10.883
12876W        W85191   3.409  12.124  10.793
12877W        W85192   6.897  41.574   0.150
12878W        W85193  27.129  20.258  12.447
12879W        W85194  17.805  17.846  13.320
12880W        W85195  11.248   7.800  11.945
12881W        W85196  28.902  16.165   3.866
12882W        W85197  43.898  14.332  12.452
12883W        W85198   4.492  41.291   4.096
12884W        W85199  30.518  42.278  10.625
12885W        W85200   6.903   3.268   5.006
12886W        W85201  42.952  10.458   3.430
12887W        W85202  17.281  31.717  10.491
12888W        W85203  30.079   5.067  12.045
12889W        W85204  27.181  17.252   3.919
12890W        W85205  20.975   1.666  14.540
12891W        W85206  22.687  14.319   0.424
12892W        W85207  37.170  26.856   1.227
12893W        W85208  24.691   9.309  14.038
12894W        W85209  14.738  44.882  13.158
12895W        W85210  28.130  13.811   4.631
12896W        W85211  17.607  12.526   4.159
12897W        W85212   8.642  39.281  12.064
12898W        W85213  37.070   9.744  13.389
12899W        W85214  17.842   8.832   5.082
12900W        W85215   5.632   3.764   0.838
12901W        W85216  26.631  38.476  13.983
12902W        W85217  11.852   8.229   3.344
12903W        W85218  16.034   3.767   5.047
12904W        W85219  24.662   6.409  12.873
12905W        W85220   5.360   1.429   1.692
12906W        W85221  20.972  16.929   4.739
12907W        W85222  30.628  12.819   3.305
12908W        W85223  28.570  18.121  14.003
12909W        W85224  30.634  11.171   4.650
12910W        W85225  41.502   0.991  13.070
12911W        W85226  39.470  20.473  10.670
12912W        W85227  26.013  26.414   4.976
12913W        W85228   3.836  43.381  11.895
12914W        W85229  28.597  35.052  12.507
12915W        W85230  36.663  39.719   1.681
12916W        W85231   1.739   9.231   4.113
12917W        W85232  10.366  31.470   2.814
12918W        W85233  16.219  12.943   1.887
12919W        W85234  26.702   0.659  11.547
12920W        W85235  22.567  23.123   4.631
12921W        W85236  28.461  30.940  11.212
12922W        W85237  18.105  36.409  14.550
12923W        W85238   9.356  11.767   1.257
12924W        W85239  14.217  13.554   4.891
12925W        W85240  19.406   3.794  13.858
12926W        W85241  23.854  23.569  14.028
12927W        W85242  38.380  26.443  11.973
12928W        W85243  29.528  32.368  14.840
12929W        W85244  43.351   1.061  10.649
12930W        W85245  16.370   4.824   0.436
12931W        W85246   6.121  27.540  13.205
12932W        W85247  18.017  13.810   3.273
12933W        W85248  33.870  28.612  13.834
12934W        W85249  11.236   1.164   0.417
12935W        W85250   6.690  22.706   0.896
12936W        W85251  27.878  30.869  12.137
12937W        W85252  36.405  31.061   4.740
12938W        W85253  21.983  29.709  12.024
12939W        W85254  17.047  34.188   1.376
12940W        W85255  32.877  43.265   2.334
12941W        W85256   7.204   2.308  13.461
12942W        W85257  17.249  34.061  10.694
12943W        W85258   8.650  37.329   1.832
12944W        W85259   7.702   8.695   0.379
12945W        W85260  35.594  25.622  13.178
12946W        W85261   2.625  44.984   4.887
12947W        W85262  41.370  22.610   3.683
12948W        W85263  41.756  31.668   0.124
12949W        W85264  19.687  16.352   3.143
12950W        W85265  31.514   2.749   1.811
12951W        W85266  25.914  22.666  11.426
12952W        W85267  27.023  12.818  14.790
12953W        W85268  13.994  16.221   4.220
12954W        W85269  27.539  43.326  13.989
12955W        W85270   2.707  28.474   1.355
12956W        W85271  39.560  32.684  11.520
12957W        W85272  44.298  27.173   2.880
12958W        W85273   9.764  35.482   3.166
12959W        W85274   5.646  34.681  12.996
12960W        W85275  35.299   7.875   3.698
12961W        W85276  29.836  27.435  12.557
12962W        W85277  26.566   2.874  12.294
12963W        W85278  33.631  33.465  10.132
12964W        W85279   0.839   2.678   2.668
12965W        W85280  32.023  15.199   1.911
12966W        W85281  13.755  37.247   4.065
12967W        W85282  23.243   4.535  13.078
12968W        W85283   0.120  19.881  12.891
12969W        W85284  33.413  10.240  13.947
12970W        W85285  15.264  40.092  14.995
12971W        W85286  40.780  17.520  11.559
12972W        W85287   6.372  36.588   4.633
12973W        W85288  16.599  18.081   0.981
12974W        W85289  39.820   4.891   3.309
12975W        W85290   8.790  16.995   5.153
12976W        W85291  32.118  35.737  13.618
12977W        W85292  43.414  42.540   3.417
12978W        W85293  12.359  10.333  12.274
12979W        W85294   1.695  43.833   3.367
12980W        W85295  44.497  14.709  10.312
12981W        W85296  35.634  17.260   3.347
12982W        W85297  36.850  36.471   3.223
12983W        W85298   7.321  15.307  13.817
12984W        W85299  39.763  34.995   2.197
12985W        W85300   5.245  20.475  13.922
12986W        W85301  22.694  28.049  12.502
12987W        W85302  15.321  12.656   2.359
12988W        W85303   8.191  25.638   3.670
12989W        W85304  17.369  14.257  11.573
12990W        W85305  37.763   1.036   2.355
12991W        W85306  11.823  42.120  14.820
12992W        W85307  18.122   5.763   4.674
12993W        W85308  36.851   4.375   1.443
12994W        W85309  25.533  17.132   5.006
12995W        W85310  40.084   1.912  13.599
12996W        W85311  22.175  27.251  12.498
12997W        W85312   0.783   9.922   0.459
12998W        W85313   6.094  21.639   1.675
12999W        W85314  12.427  12.608   0.500
13000W        W85315  24.916  13.705  13.898
13001W        W85316   4.197   8.804  12.971
13002W        W85317  16.551   5.350   2.194
13003W        W85318  37.466  25.357   5.060
13004W        W85319  15.076   1.285  13.267
13005W        W85320  10.862  13.081  10.911
13006W        W85321  12.568  25.212   2.131
13007W        W85322  29.737  19.031   0.230
13008W        W85323  18.659  10.242  14.257
13009W        W85324  29.835  31.521   3.230
13010W        W85325   4.939  30.321   2.898
13011W        W85326  39.885  18.208  12.503
13012W        W85327   1.491  31.521  12.992
13013W        W85328  41.362  10.233   4.602
13014W        W85329  26.769  12.217   0.853
13015W        W85330   5.910  15.617   2.734
13016W        W85331  27.015  36.226  14.990
13017W        W85332   4.196   4.274  12.452
13018W        W85333  44.629  21.152   1.251
13019W        W85334  33.831  27.772   0.303
13020W        W85335  39.061  16.534  12.835
13021W        W85336  15.722   2.336   2.274
13022W        W85337  38.896  41.367   2.138
13023W        W85338  16.854  30.454   2.743
13024W        W85339  32.328   5.737   2.366
13025W        W85340  20.858  12.766   2.963
13026W        W85341  31.400  44.018  13.504
13027W        W85342  35.408  31.890   0.387
13028W        W85343  35.810   9.157  11.730
13029W        W85344   1.720   9.112   0.331
13030W        W85345   5.736  34.512  14.792
13031W        W85346  30.745  15.263  12.382
13032W        W85347  29.501  34.945  13.953
13033W        W85348  26.442   3.954   2.764
13034W        W85349  26.125  10.797   1.701
13035W        W85350  24.554   8.723   3.892
13036W        W85351   6.855  18.980  12.478
13037W        W85352   0.704   5.767  11.197
13038W        W85353  33.892  14.618  13.556
13039W        W85354  22.601  33.430  12.367
13040W        W85355  44.775  36.383  14.249
13041W        W85356  14.585   0.809   3.275
13042W        W85357   1.458  43.485  12.626
13043W        W85358  33.854  42.149  12.114
13044W        W85359   1.006  16.678   4.150
13045W        W85360  43.923  22.179   4.490
13046W        W85361   9.190  22.218   5.006
13047W        W85362   4.014  22.325  13.968
13048W        W85363  18.918  33.876  11.931
13049W        W85364  16.764  31.048  10.242
13050W        W85365  44.273   4.122   3.589
13051W        W85366  41.520  24.033   2.314
13052W        W85367   0.291  12.803  13.989
13053W        W85368  30.061   0.145  11.198
13054W        W85369  26.551   5.953  10.488
13055W        W85370  10.765   5.773   3.173
13056W        W85371   4.633  11.769   0.545
13057W        W85372  42.468  10.836  12.127
13058W        W85373  38.125   0.825   2.697
13059W        W85374  27.147  19.084  14.881
13060W        W85375  15.540  28.551  10.616
13061W        W85376  14.649  37.858  10.522
13062W        W85377   9.883  16.538   4.299
13063W        W85378  25.594  43.461   4.621
13064W        W85379  23.306  44.403   3.603
13065W        W85380  35.532   7.925   0.007
13066W        W85381  39.609   8.954  10.888
13067W        W85382  39.330  22.465   2.765
13068W        W85383  14.751  29.438   1.318
13069W        W85384  25.489  30.603  14.901
13070W        W85385  22.005  10.174   0.692
13071W        W85386   7.937  16.122  14.295
13072W        W85387   9.886  29.661   2.301
13073W        W85388  32.841  28.530  13.873
13074W        W85389  18.808  33.844   0.917
13075W        W85390  29.731   0.266  11.628
13076W        W85391  41.310   2.834  11.465
13077W        W85392   8.997  43.058   2.777
13078W        W85393  37.911  29.922   0.321
13079W        W85394  17.035   8.965  13.251
13080W        W85395  19.181  38.014  13.119
13081W        W85396  40.285  28.755   1.207
13082W        W85397  27.551  26.219  13.513
13083W        W85398  18.345  35.626   4.039
13084W        W85399  31.550  41.749  14.359
13085W        W85400  22.584   5.890  13.359
13086W        W85401  15.735  38.338  14.066
13087W        W85402  32.336  43.309   0.401
13088W        W85403  36.632   3.726   2.659
13089W        W85404  33.978  20.075   3.680
13090W        W85405  41.392   7.982  11.558
13091W        W85406  29.058  14.336  14.000
13092W        W85407  43.831  23.123   1.226
13093W        W85408   8.146  24.250  14.101
13094W        W85409  13.330   4.882   0.910
13095W        W85410  24.761  25.705  14.094
13096W        W85411  32.931   0.300  11.615
13097W        W85412  21.511  24.588   0.471
13098W        W85413  15.580  35.951  13.854
13099W        W85414  22.083  40.310  13.920
13100W        W85415  13.685  25.989  14.934
13101W        W85416  44.037   6.865  14.360
13102W        W85417  23.055   7.303   3.261
13103W        W85418  13.530  10.994   0.904
13104W        W85419   4.545   3.420  12.387
13105W        W85420   2.400  31.089   3.269
13106W        W85421  13.790  32.582  10.946
13107W        W85422   8.360  35.937   1.991
13108W        W85423  10.779  17.574   3.435
13109W        W85424  28.682  37.060  11.517
13110W        W85425  41.481  36.410   2.278
13111W        W85426  11.291  37.900  14.926
13112W        W85427   9.707  35.813   2.749
13113W        W85428  12.750  15.063   1.052
13114W        W85429   6.219   4.275   4.473
13115W        W85430  14.143   9.091  10.774
13116W        W85431  26.041   6.374   1.732
13117W        W85432  26.488  18.709  13.023
13118W        W85433  26.009  30.088  14.354
13119W        W85434  34.371   8.904  13.612
13120W        W85435   3.921  29.623   4.097
13121W        W85436  24.098  17.105   0.156
13122W        W85437   5.974   4.266   1.335
13123W        W85438  43.258  11.699   2.759
13124W        W85439   5.178  20.265   3.358
13125W        W85440   6.779  20.661  10.485
13126W        W85441  31.019  33.238   2.487
13127W        W85442  13.380  18.258  11.209
13128W        W85443  37.865  23.867  12.927
13129W        W85444   9.031  27.164  14.898
13130W        W85445  17.210  41.404  13.081
13131W        W85446  41.820  31.621  14.052
13132W        W85447  25.727  12.052  10.567
13133W        W85448  17.117  35.468  14.491
13134W        W85449  32.094   5.955   0.247
13135W        W85450  43.315  41.859  13.042
13136W        W85451   1.375  37.472   1.698
13137W        W85452  15.727  32.702  14.048
13138W        W85453   9.156   1.737   3.638
13139W        W85454  33.688  27.647   3.985
13140W        W85455  22.445  38.747   2.741
13141W        W85456   1.937  34.547  14.360
13142W        W85457  41.799  18.830   3.916
13143W        W85458  44.755   4.295  10.475
13144W        W85459  12.371   5.733  11.083
13145W        W85460  21.595  37.522  11.662
13146W        W85461  15.131  39.469   0.677
13147W        W85462  23.742  20.077   3.108
13148W        W85463  34.798  34.881   4.190
13149W        W85464  27.574  39.559   2.853
13150W        W85465  11.188  39.404  10.479
13151W        W85466  17.567  40.894  14.260
13152W        W85467  14.718  41.423   2.164
13153W        W85468  11.175  18.300  13.445
13154W        W85469   1.897  27.189   1.926
13155W        W85470  14.293  31.970   0.298
13156W        W85471  18.127   5.554  11.497
13157W        W85472  20.508  17.644   2.750
13158W        W85473  42.049  11.222   0.006
13159W        W85474  40.213  39.092  10.657
13160W        W85475  34.200  31.166   3.569
13161W        W85476  26.545  29.782   2.800
13162W        W85477  10.808   9.346   4.358
13163W        W85478  19.239  26.601  12.438
13164W        W85479  37.042  26.039   3.444
13165W        W85480  11.939  22.557   3.529
13166W        W85481  20.358  13.703  10.621
13167W        W85482  23.504   9.675   0.763
13168W        W85483  28.506   9.959  12.508
13169W        W85484   2.282  15.775   3.445
13170W        W85485  14.821  37.934  14.726
13171W        W85486  27.606  26.094  14.436
13172W        W85487  18.179  39.774   2.631
13173W        W85488  11.740  33.369   1.270
13174W        W85489  32.542   9.314   3.358
13175W        W85490   7.202   0.552   4.587
13176W        W85491  30.165  31.599  11.722
13177W        W85492  35.084  16.435  10.738
13178W        W85493  11.357  34.492  14.895
13179W        W85494   1.277  22.348  12.628
13180W        W85495  11.744  29.089  10.618
13181W        W85496  15.875  23.518  12.349
13182W        W85497  23.133  39.576  10.638
13183W        W85498  40.480  44.091  11.978
13184W        W85499  35.448   7.357   1.302
13185W        W85500  28.717  32.013  12.795
13186W        W85501   4.168  41.089  13.669
13187W        W85502   7.329   5.377   0.916
13188W        W85503   5.705  22.553   2.386
13189W        W85504  38.858   3.209  10.262
13190W        W85505  34.075  29.834   0.797
13191W        W85506  19.550  11.408  11.463
13192W        W85507  38.976  18.989   4.275
13193W        W85508   3.317  33.453  11.848
13194W        W85509  21.227   6.347  11.093
13195W        W85510  13.376  32.533  12.856
13196W        W85511   0.979  42.794   5.087
13197W        W85512  24.931   1.237  11.464
13198W        W85513   5.962   9.884   4.503
13199W        W85514   4.383  44.976   4.502
13200W        W85515   8.527  42.506   1.887
13201W        W85516   0.687  10.170   4.074
13202W        W85517  14.571   2.151  11.146
13203W        W85518   1.181   4.448   2.813
13204W        W85519  15.886  21.711   1.929
13205W        W85520   8.802  43.209  14.433
13206W        W85521  42.239   6.132   1.855
13207W        W85522  38.320   3.319   3.163
13208W        W85523  21.099  44.010  11.985
13209W        W85524  37.552  42.907  14.282
13210W        W85525  22.631  25.254   1.362
13211W        W85526  18.773  13.063  13.455
13212W        W85527   7.895  36.976   2.781
13213W        W85528  14.696  43.740  11.999
13214W        W85529  13.650  26.473  13.541
13215W        W85530  38.244  24.613  11.560
13216W        W85531  36.669  27.652   0.887
13217W        W85532  11.326  22.947  12.311
13218W        W85533  25.421   1.743  13.507
13219W        W85534  17.261  44.862   0.060
13220W        W85535  17.731  21.806   0.319
13221W        W85536  33.934  23.294   1.562
13222W        W85537  18.108  38.422   5.250
13223W        W85538  13.301  30.048   0.326
13224W        W85539   1.551  41.509  13.351
13225W        W85540  17.938  43.695   1.519
13226W        W85541   7.527  41.826  13.773
13227W        W85542   8.973  43.287   3.254
13228W        W85543  21.923   2.202  14.498
13229W        W85544  34.813  29.151   1.846
13230W        W85545   6.590   1.415   3.006
13231W        W85546  10.170  27.950  13.143
13232W        W85547  35.358  42.091   1.395
13233W        W85548   1.228  40.217  11.636
13234W        W85549  42.577  36.357  13.076
13235W        W85550  18.102  10.931   2.281
13236W        W85551   7.112  16.883   1.259
13237W        W85552  32.757  14.764   1.418
13238W        W85553  16.064  42.013   0.081
13239W        W85554  44.943  21.607   4.037
13240W        W85555  37.973  23.426  11.709
13241W        W85556  26.363  19.474  11.682
13242W        W85557   7.381  21.610  14.419
13243W        W85558  21.205  34.560  12.866
13244W        W85559  29.607  43.699   3.162
13245W        W85560  32.458  41.530   4.254
13246W        W85561  26.651  15.366  11.969
13247W        W85562   8.393   9.782  11.476
13248W        W85563  14.308  27.301   2.153
13249W        W85564  42.384  37.808  11.622
13250W        W85565   8.864  35.994  12.443
13251W        W85566  16.519  44.816  11.075
13252W        W85567  40.214  18.077   1.889
13253W        W85568   3.898  43.160  14.414
13254W        W85569  39.846  24.397   2.833
13255W        W85570  31.686   0.392   4.575
13256W        W85571  11.899   3.339   3.153
13257W        W85572   8.912  34.171   2.541
13258W        W85573  34.155  19.291   4.106
13259W        W85574  14.757  41.877   1.396
13260W        W85575  32.537  43.592   3.191
13261W        W85576   9.338  39.582  12.474
13262W        W85577  16.465  25.968  13.117
13263W        W85578  23.141  33.399  12.894
13264W        W85579  43.272  11.415   1.678
13265W        W85580  11.399  38.358  12.000
13266W        W85581  19.270  36.913   4.971
13267W        W85582  25.232  24.222   4.261
13268W        W85583  43.311   9.171  10.658
13269W        W85584  36.996  30.295   2.699
13270W        W85585   7.568  39.224  11.114
13271W        W85586   9.857  23.111  14.336
13272W        W85587  22.290  26.711   4.682
13273W        W85588   4.546   7.955  14.884
13274W        W85589  28.068  37.458  13.327
13275W        W85590  30.246  31.497   2.230
13276W        W85591   9.356  19.131   2.621
13277W        W85592  31.607  10.186  12.799
13278W        W85593  30.469   9.231   0.370
13279W        W85594  39.917  34.030  11.640
13280W        W85595  25.665  44.355  10.188
13281W        W85596  17.296  10.780   1.684
13282W        W85597  40.845  40.532  10.583
13283W        W85598  43.469   7.248  13.785
13284W        W85599  28.706  16.217   2.054
13285W        W85600   0.921   9.918   2.462
13286W        W85601   6.705   0.215  12.395
13287W        W85602  41.501  14.134   2.858
13288W        W85603   0.204  32.997   2.194
13289W        W85604   8.545  21.178   0.982
13290W        W85605  40.527  20.232  12.145
13291W        W85606  12.346  43.277  10.700
13292W        W85607  17.702  16.213  13.383
13293W        W85608  26.136  15.046  13.062
13294W        W85609  35.140  29.270  11.245
13295W        W85610  24.670  35.343  11.633
13296W        W85611   0.460  40.120  12.005
13297W        W85612   7.428  18.821   1.813
13298W        W85613  13.156   1.933  12.011
13299W        W85614  40.981  39.897   0.526
13300W        W85615   3.954  34.517  13.371
13301W        W85616   3.262   3.031  12.800
13302W        W85617  12.304  32.033  11.492
13303W        W85618   0.484  18.004   0.048
13304W        W85619   7.004  13.656  14.586
13305W        W85620  24.164  41.036   0.810
13306W        W85621   6.021  10.755  10.688
13307W        W85622  20.056  18.971   4.601
13308W        W85623  30.578   7.696   1.394
13309W        W85624  44.015   8.380   2.427
13310W        W85625   5.328  10.739   2.755
13311W        W85626  23.673  35.301   0.682
13312W        W85627  12.322  12.788   2.477
13313W        W85628   2.799  42.298   3.377
13314W        W85629  32.884  15.998   2.085
13315W        W85630  19.849   6.789  11.051
13316W        W85631  12.142  11.371   2.452
13317W        W85632   8.694  34.059   4.133
13318W        W85633  25.230  37.508   9.990
13319W        W85634   9.349   1.892  11.136
13320W        W85635   6.634  17.108  12.837
13321W        W85636   2.327  43.511  11.477
13322W        W85637  17.630   9.634  10.111
13323W        W85638  29.169  37.346   4.167
13324W        W85639  32.256  39.711   2.320
13325W        W85640  25.535  14.959   1.867
13326W        W85641   9.410  38.960  14.743
13327W        W85642  12.614  27.498   0.781
13328W        W85643  21.500  14.321  14.010
13329W        W85644  18.722  43.554  12.528
13330W        W85645   7.837  16.502   3.755
13331W        W85646  15.164  12.548   3.357
13332W        W85647  16.294  19.423   4.170
13333W        W85648  42.180  43.546  11.222
13334W        W85649  19.819  17.101  10.940
13335W        W85650   8.113  11.043  13.052
13336W        W85651  17.341   7.687  12.654
13337W        W85652  21.221   4.765   3.344
13338W        W85653  43.836  17.106  14.360
13339W        W85654  13.217  26.356   5.088
13340W        W85655   3.326   3.277   0.896
13341W        W85656  14.556   7.803  14.485
13342W        W85657  31.853  36.604   4.192
13343W        W85658  18.131   5.959  12.666
13344W        W85659  35.151  42.333  14.511
13345W        W85660  13.670  33.725  13.411
13346W        W85661   2.331  14.590  10.512
13347W        W85662   4.871  35.612   4.465
13348W        W85663  33.694  33.859   1.808
13349W        W85664   5.050  29.584   5.137
13350W        W85665  14.807  22.247  10.906
13351W        W85666   7.416   3.274   4.889
13352W        W85667  11.737  31.673   2.846
13353W        W85668  25.692   3.404   4.233
13354W        W85669  11.533   5.343  12.537
13355W        W85670   0.351  40.630   0.793
13356W        W85671  22.094  39.442  10.676
13357W        W85672  36.851  29.957   1.324
13358W        W85673  20.622  37.001  13.440
13359W        W85674  33.393   9.214  12.138
13360W        W85675  39.387  12.382  14.111
13361W        W85676  42.784  30.976   0.218
13362W        W85677  32.648  19.331  14.340
13363W        W85678  44.765  16.573  14.608
13364W        W85679  37.504  10.842  10.279
13365W        W85680  12.890   4.066   1.793
13366W        W85681  40.257  16.509   3.756
13367W        W85682  18.018  38.482  13.909
13368W        W85683   6.717  10.165   2.802
13369W        W85684  41.092  11.828   1.735
13370W        W85685  28.560  19.232  14.372
13371W        W85686  29.211  37.280   1.323
13372W        W85687  15.100  13.115  12.452
13373W        W85688  33.031  27.384  12.434
13374W        W85689  30.870  16.037   0.910
13375W        W85690  15.323  29.535  12.548
13376W        W85691   6.343  23.426  14.459
13377W        W85692  16.179   0.256  12.693
13378W        W85693  41.495  40.500   4.206
13379W        W85694  36.530  21.774  11.917
13380W        W85695  13.410  23.218  14.263
13381W        W85696  39.523  17.377  13.854
13382W        W85697  32.944  42.459   1.196
13383W        W85698  25.260   4.758  10.973
13384W        W85699   5.930  37.620  13.506
13385W        W85700   5.464   8.787  14.777
13386W        W85701  19.280  39.849  10.556
13387W        W85702  19.712  41.896   4.991
13388W        W85703  10.502  20.266   0.985
13389W        W85704   8.344  22.819  14.283
13390W        W85705  17.812  42.352   3.265
13391W        W85706  33.483   0.261  11.987
13392W        W85707  25.060   9.768   1.668
13393W        W85708  18.963  18.079   1.029
13394W        W85709  44.233   9.413   1.380
13395W        W85710  19.776  26.609  13.889
13396W        W85711  17.962   8.113  13.868
13397W        W85712  19.081   2.913  12.445
13398W        W85713  30.500   9.697  12.252
13399W        W85714  10.198   9.575   0.576
13400W        W85715  34.948  16.129  14.047
13401W        W85716  23.190  21.622   2.153
13402W        W85717  31.001  41.394   0.714
13403W        W85718  42.312  36.266  14.878
13404W        W85719  24.452  15.769  12.066
13405W        W85720  24.523   5.485  13.810
13406W        W85721  34.624   6.275  11.973
13407W        W85722  43.073  40.822  13.823
13408W        W85723  23.599  26.152  14.051
13409W        W85724  38.577   3.706  14.856
13410W        W85725  29.629  27.840   3.698
13411W        W85726  42.092  23.213   2.070
13412W        W85727  21.127  32.435   0.842
13413W        W85728  20.756  24.586   3.288
13414W        W85729  27.945   7.857  11.823
13415W        W85730  39.518  29.029   4.976
13416W        W85731  26.512   9.822   1.681
13417W        W85732  25.976  31.521  13.153
13418W        W85733  16.045  42.856  14.244
13419W        W85734  15.314  42.972   0.886
13420W        W85735  17.725  11.782  11.380
13421W        W85736  28.051  24.611   0.904
13422W        W85737   7.961   6.725   0.332
13423W        W85738  24.860  14.698  14.941
13424W        W85739  37.496  39.615  12.097
13425W        W85740  22.297   8.314  11.544
13426W        W85741  23.168  17.734  12.475
13427W        W85742  39.420   8.164   4.168
13428W        W85743  28.506   7.357   1.613
13429W        W85744   1.864  38.559   4.719
13430W        W85745  32.203   4.947  11.575
13431W        W85746  12.827  16.128   0.400
13432W        W85747   2.658  42.322   1.365
13433W        W85748  40.483  20.015  13.813
13434W        W85749  16.998   3.876  14.415
13435W        W85750  29.757  42.197  14.416
13436W        W85751  17.018  43.358  11.094
13437W        W85752  41.746   0.502   1.300
13438W        W85753   0.919  33.778  13.014
13439W        W85754   2.443  30.527  10.795
13440W        W85755  16.180  19.109  14.864
13441W        W85756   7.833  15.349  13.944
13442W        W85757  10.464   5.849  14.221
13443W        W85758  36.870   5.789   2.343
13444W        W85759  12.791   9.423  12.488
13445W        W85760   9.668  28.023  10.923
13446W        W85761  23.047   5.331  11.312
13447W        W85762  20.204  16.206   4.770
13448W        W85763  16.831  44.741   3.824
13449W        W85764  26.632  20.370   1.750
13450W        W85765  30.342  21.176   3.081
13451W        W85766  43.077  20.132  13.100
13452W        W85767   5.487   8.718   3.254
13453W        W85768   6.226   9.884  14.844
13454W        W85769   0.694  31.010   3.865
13455W        W85770   3.708  35.124  11.163
13456W        W85771   8.292  15.741  11.578
13457W        W85772  41.370  18.783   1.845
13458W        W85773  11.228  42.901  11.425
13459W        W85774   2.758  14.435   0.368
13460W        W85775  16.764  10.911  11.484
13461W        W85776   7.857  29.595   0.226
13462W        W85777  26.913   5.415  10.160
13463W        W85778  40.384  38.802  11.571
13464W        W85779  40.117  21.275   2.133
13465W        W85780   4.162   3.808   2.316
13466W        W85781  32.468  22.498   2.384
13467W        W85782   3.814  20.491   2.337
13468W        W85783  19.293  29.229  13.367
13469W        W85784   0.342  23.855   1.392
13470W        W85785  17.838  17.128  11.112
13471W        W85786  24.430  32.638  13.939
13472W        W85787  23.646  31.582  12.991
13473W        W85788  11.292  17.304  13.487
13474W        W85789  39.373  11.307   4.780
13475W        W85790  16.139  39.929   5.005
13476W        W85791  22.104  38.244  14.867
13477W        W85792  18.781  25.133  14.050
13478W        W85793  38.375  20.760   0.319
13479W        W85794  28.533  10.712   4.932
13480W        W85795  29.890   8.772   3.745
13481W        W85796  12.653  37.815   1.464
13482W        W85797   3.743  28.319   3.722
13483W        W85798  10.327   2.830  13.516
13484W        W85799  30.031  24.626  11.393
13485W        W85800   7.265  15.064  12.350
13486W        W85801  37.955  11.807   4.178
13487W        W85802  44.488  16.695  12.160
13488W        W85803  41.011  25.612  11.487
13489W        W85804  42.601   9.462  13.605
13490W        W85805  42.274  42.861   2.328
13491W        W85806  27.499  30.438   1.828
13492W        W85807   0.779  16.830   2.800
13493W        W85808  36.960   5.198  14.938
13494W        W85809   3.380  29.119  14.745
13495W        W85810  39.006   4.394  13.831
13496W        W85811  36.628  16.541   0.609
13497W        W85812  43.313  15.091   2.312
13498W        W85813  29.270  44.425  11.412
13499W        W85814  25.268  29.690  12.536
13500W        W85815   2.380  14.733  14.303
13501W        W85816  15.833   1.900  11.529
13502W        W85817   1.024  27.223   4.515
13503W        W85818   6.542   0.716   1.800
13504W        W85819  42.644  21.882   2.634
13505W        W85820  26.576  42.120   4.098
13506W        W85821  24.367  19.090  12.374
13507W        W85822  43.024   0.937  11.028
13508W        W85823  41.561  35.890   2.851
13509W        W85824  16.365  31.454   3.978
13510W        W85825  27.138  20.633   0.835
13511W        W85826  22.732  11.142  13.509
13512W        W85827  41.508  43.400  14.030
13513W        W85828   4.719  18.336  12.959
13514W        W85829  39.125   7.309   3.245
13515W        W85830  13.141  13.889   3.153
13516W        W85831  38.440  41.231  11.972
13517W        W85832   7.375  24.882   4.765
13518W        W85833  26.415  30.425   1.370
13519W        W85834   7.874  38.974   5.028
13520W        W85835  21.574  12.244  12.321
13521W        W85836  42.188  22.912  10.059
13522W        W85837  38.090  20.544  14.746
13523W        W85838  30.164  10.739   1.822
13524W        W85839   5.421   3.987   0.418
13525W        W85840  25.609  17.625   3.890
13526W        W85841   0.097  14.729   3.262
13527W        W85842  10.153  28.121   5.060
13528W        W85843  41.618  39.588   2.844
13529W        W85844  43.857  29.730  11.609
13530W        W85845   9.253   0.323   1.738
13531W        W85846  20.711  13.201   4.206
13532W        W85847  44.473  13.019  11.906
13533W        W85848  15.076  41.953  13.861
13534W        W85849   2.411  43.408  10.629
13535W        W85850  42.878  39.015  14.167
13536W        W85851   9.595  27.651   1.975
13537W        W85852  10.687  22.737   4.767
13538W        W85853  12.155   5.115  13.041
13539W        W85854  43.824  23.886  11.618
13540W        W85855  33.610   5.449  10.605
13541W        W85856  42.956  37.695  12.413
13542W        W85857  25.537   7.605  11.166
13543W        W85858  38.436  11.132  13.032
13544W        W85859  32.459  22.813  12.551
13545W        W85860   1.814  30.487   2.710
13546W        W85861  28.138  14.509  14.469
13547W        W85862  35.101   6.068  10.285
13548W        W85863  15.743  44.059   2.869
13549W        W85864   8.304  38.527  13.645
13550W        W85865  40.903  29.461   4.157
13551W        W85866   8.169   1.840   0.445
13552W        W85867  36.065  37.993  13.984
13553W        W85868  34.516  31.817   0.409
13554W        W85869  32.847  12.814   2.875
13555W        W85870   1.911  37.927   4.079
13556W        W85871  29.983  15.626   3.440
13557W        W85872  33.907  23.131  14.305
13558W        W85873  27.126  21.681   2.350
13559W        W85874  36.032   5.785   1.382
13560W        W85875  26.178  10.431   0.338
13561W        W85876  18.299  34.162   2.832
13562W        W85877  34.943  43.828  13.355
13563W        W85878  25.166  32.975   2.933
13564W        W85879  27.310  31.004  10.088
13565W        W85880  18.271  12.532   3.758
13566W        W85881   4.230  25.430  14.255
13567W        W85882  24.708   8.140  13.608
13568W        W85883  15.013  18.665   4.166
13569W        W85884  16.816  31.222  13.853
13570W        W85885  31.780   8.605  14.891
13571W        W85886  35.230  12.691  10.790
13572W        W85887  23.051  33.475   4.526
13573W        W85888   2.573   1.841  12.417
13574W        W85889  31.809  44.912  11.913
13575W        W85890  25.531  11.572  10.601
13576W        W85891  14.024  40.236  11.817
13577W        W85892  24.562   6.184  12.426
13578W        W85893  38.402  16.157   3.441
13579W        W85894  44.077  10.305  13.238
13580W        W85895  34.761  15.032   4.173
13581W        W85896  25.785  10.151   2.716
13582W        W85897   3.344  14.102   1.377
13583W        W85898  33.777  12.014  10.893
13584W        W85899  15.275  29.104   9.824
13585W        W85900  19.585  22.475  12.007
13586W        W85901  29.954   7.163  14.838
13587W        W85902   5.350   4.365   3.562
13588W        W85903  23.709  26.122   1.432
13589W        W85904  14.896  31.357  11.587
13590W        W85905  17.675  19.876   0.813
13591W        W85906   7.308  23.477  11.566
13592W        W85907  19.211  24.579   1.327
13593W        W85908  24.525  41.492  10.494
13594W        W85909  33.887  42.106   3.591
13595W        W85910  25.754  39.866   4.238
13596W        W85911  13.721  32.439   1.954
13597W        W85912  37.491  31.884  12.597
13598W        W85913   4.047   8.417   1.484
13599W        W85914   9.352  28.784   3.803
13600W        W85915  10.131  15.300   3.973
13601W        W85916  11.300  25.176  10.967
13602W        W85917  24.442   3.841  12.984
13603W        W85918  10.802  17.629   3.940
13604W        W85919  17.879  17.010   3.845
13605W        W85920  11.336  19.274   1.734
13606W        W85921   0.836  25.907   0.454
13607W        W85922  43.771   8.192  11.066
13608W        W85923  23.740   0.587   2.690
13609W        W85924  39.102  13.838   4.653
13610W        W85925  42.410  30.452   2.753
13611W        W85926  13.479   2.534  13.725
13612W        W85927  15.044  11.740  10.816
13613W        W85928  15.383   6.876  12.130
13614W        W85929  21.793  36.905  13.806
13615W        W85930  15.996  43.927  10.753
13616W        W85931  26.963  29.585  13.827
13617W        W85932   9.461  19.687   0.840
13618W        W85933  19.786  36.428  11.527
13619W        W85934  37.348   0.319  11.333
13620W        W85935  39.536  10.726  14.458
13621W        W85936  11.773  34.984   5.074
13622W        W85937  28.518  20.726   1.970
13623W        W85938  23.411   9.783  11.406
13624W        W85939  28.109  22.503  12.934
13625W        W85940  12.163  38.365   0.598
13626W        W85941  35.374   5.015   2.747
13627W        W85942   4.759  44.459  10.352
13628W        W85943  10.817  41.556   1.809
13629W        W85944  40.092  29.085  13.329
13630W        W85945  22.273  29.227   4.192
13631W        W85946   0.883  24.916  14.426
13632W        W85947  41.259  30.588   3.660
13633W        W85948  41.717  34.364  11.129
13634W        W85949  43.159  22.569  11.566
13635W        W85950  38.774  34.078   3.936
13636W        W85951   1.840  18.075   3.695
13637W        W85952  41.239  41.819  13.864
13638W        W85953  28.123  16.614   0.366
13639W        W85954  20.407   3.505   0.973
13640W        W85955  24.424  43.821  10.667
13641W        W85956  30.934  41.450   0.203
13642W        W85957   5.137  16.226  10.092
13643W        W85958  12.117   9.903   4.027
13644W        W85959  43.914  34.373   5.093
13645W        W85960   7.433   8.793   4.546
13646W        W85961   7.595  14.077  14.260
13647W        W85962  34.307  15.347   0.814
13648W        W85963  34.076  26.584  14.465
13649W        W85964   2.905   3.057   4.154
13650W        W85965  43.373  17.918  14.504
13651W        W85966  22.219  14.659   4.689
13652W        W85967   9.024  26.941   3.580
13653W        W85968  39.557  12.342   1.295
13654W        W85969  37.873  36.139  11.541
13655W        W85970   0.907   7.083   3.986
13656W        W85971  41.542  42.193   4.188
13657W        W85972  43.535  18.077  13.052
13658W        W85973  37.555  31.126   0.343
13659W        W85974  44.923  42.306  14.656
13660W        W85975  36.826  33.891   3.766
13661W        W85976   3.932   3.031  13.881
13662W        W85977  42.774  40.424   4.215
13663W        W85978  35.142  11.282  12.669
13664W        W85979  38.395  44.876  14.046
13665W        W85980  32.428   4.862   3.668
13666W        W85981  24.175  37.038   4.508
13667W        W85982   7.357  14.560  12.165
13668W        W85983  28.086  29.925   3.699
13669W        W85984  13.277  35.346   3.708
13670W        W85985  23.126  17.683   4.885
13671W        W85986  12.723  25.590   0.362
13672W        W85987  30.673  10.421  11.167
13673W        W85988   5.217  27.508   0.954
13674W        W85989  12.856  16.832  14.809
13675W        W85990   4.124  34.584  10.522
13676W        W85991   0.818  22.461   2.721
13677W        W85992   5.289  27.551  14.930
13678W        W85993  11.044  24.672   3.945
13679W        W85994  41.281  27.171  11.824
13680W        W85995   0.089   0.726   4.126
13681W        W85996  41.283  33.397   4.061
13682W        W85997  18.872   0.168  13.897
13683W        W85998  19.032  17.636  14.715
13684W        W85999  27.965  22.734   4.571
13685W        W86000  33.576  13.050   2.388
13686W        W86001   1.644  40.103   1.101
13687W        W86002  18.155  27.021   0.043
13688W        W86003  42.039   9.927  11.803
13689W        W86004  44.522  44.746  11.006
13690W        W86005  20.124  39.646   4.606
13691W        W86006  14.718  28.680  10.878
13692W        W86007  39.544  34.317   4.195
13693W        W86008   1.346  33.381  14.403
13694W        W86009   9.029  41.395  10.106
13695W        W86010  43.199  42.416  12.331
13696W        W86011  34.398  11.278  13.983
13697W        W86012  31.357   5.716   0.463
13698W        W86013  38.554   9.923  11.913
13699W        W86014  33.501  32.416  14.328
13700W        W86015  22.890  25.828   2.621
13701W        W86016  37.587   9.166   1.406
13702W        W86017  44.899  37.023   3.764
13703W        W86018   9.675  29.678  10.596
13704W        W86019  26.256  32.558  10.946
13705W        W86020  31.158  36.384   3.256
13706W        W86021   0.415  27.920  13.861
13707W        W86022  43.339  43.091   1.007
13708W        W86023  13.964  25.547  14.839
13709W        W86024  31.683  31.908  11.099
13710W        W86025  33.629  37.402   3.170
13711W        W86026  43.445   8.122  12.479
13712W        W86027  39.975  28.468   3.880
13713W        W86028   9.675  22.937   2.232
13714W        W86029  12.754  25.688   2.250
13715W        W86030  29.062  44.715   2.652
13716W        W86031  13.268  23.928  12.511
13717W        W86032   7.834  20.072  12.429
13718W        W86033  41.504  24.302  12.592
13719W        W86034   7.854  18.027   3.651
13720W        W86035  11.582  26.169   1.705
13721W        W86036  24.655  16.613   3.210
13722W        W86037   7.714   5.371   3.970
13723W        W86038  13.624  40.719  13.504
13724W        W86039   4.168   2.000  13.347
13725W        W86040  23.202   2.519   3.662
13726W        W86041  36.795  18.673  10.519
13727W        W86042  16.649  28.490  11.445
13728W        W86043  40.159  28.998   3.249
13729W        W86044  30.650  35.370   0.010
13730W        W86045  21.204  38.231   4.091
13731W        W86046  22.782  27.157  12.124
13732W        W86047  27.913  43.480  11.126
13733W        W86048   0.715  17.222  10.116
13734W        W86049  36.839   6.172   3.296
13735W        W86050  26.131  44.573   1.358
13736W        W86051  43.603  19.799   1.322
13737W        W86052  21.065  10.878  10.967
13738W        W86053  21.827  28.030   4.690
13739W        W86054   2.300  15.304  14.999
13740W        W86055   2.504   1.766  11.536
13741W        W86056  19.206  33.848  14.831
13742W        W86057  28.548  39.302   2.570
13743W        W86058  34.262  42.525  14.981
13744W        W86059   7.773  28.377   4.491
13745W        W86060  31.114  42.985   5.080
13746W        W86061  27.941  31.856   1.728
13747W        W86062  23.272  22.375  13.321
13748W        W86063  42.071  35.878  11.229
13749W        W86064  28.906   2.489  11.235
13750W        W86065  22.310   6.728  11.877
13751W        W86066  36.130  39.624   2.249
13752W        W86067   5.930  15.849   3.769
13753W        W86068  32.228  25.208  11.616
13754W        W86069  10.590  13.333  13.909
13755W        W86070  33.488  44.485   2.709
13756W        W86071  36.961   9.229  12.600
13757W        W86072  13.354   1.034   5.145
13758W        W86073  18.727  30.552   3.153
13759W        W86074  33.089  14.170  13.747
13760W        W86075  40.693  29.009   0.976
13761W        W86076   3.192  22.169   3.195
13762W        W86077  17.137  34.242   4.153
13763W        W86078   9.863  20.119  11.376
13764W        W86079   5.890  28.366   1.832
13765W        W86080   4.919  17.746  11.089
13766W        W86081  27.695  28.880  10.874
13767W        W86082  29.536  29.096  11.894
13768W        W86083  22.686  15.038   1.257
13769W        W86084  28.591  17.074  13.507
13770W        W86085   0.099  22.063   0.937
13771W        W86086  28.812  17.745   3.109
13772W        W86087  30.706  16.293   2.257
13773W        W86088  20.165   9.704  13.844
13774W        W86089  18.317  33.537   0.806
13775W        W86090   0.768   2.216   1.007
13776W        W86091   4.754  14.958  14.428
13777W        W86092  25.750  39.350   4.201
13778W        W86093   5.596  19.712   0.424
13779W        W86094   4.751  34.618   1.784
13780W        W86095  24.634  26.990   2.607
13781W        W86096  38.544  34.869  12.152
13782W        W86097   6.278  13.887   2.490
13783W        W86098  11.493  28.596  12.581
13784W        W86099  37.042  38.069  10.386
13785W        W86100   0.599  31.909  14.354
13786W        W86101  38.569  25.479  10.601
13787W        W86102  34.587   2.302   1.783
13788W        W86103  32.115  38.765   2.675
13789W        W86104  39.900  39.947  11.732
13790W        W86105  21.175  24.617  12.379
13791W        W86106   3.596  38.528  12.534
13792W        W86107  34.492  23.173   2.453
13793W        W86108  40.278  18.506  11.637
13794W        W86109  31.330  39.883  11.972
13795W        W86110  35.388  16.090  13.429
13796W        W86111  19.767  10.318   0.022
13797W        W86112  19.752   3.403  12.347
13798W        W86113  40.057   2.318  13.173
13799W        W86114  40.355  39.947  12.099
13800W        W86115   8.162  19.824  14.351
13801W        W86116  10.150  37.401  13.083
13802W        W86117   5.892  44.475  12.572
13803W        W86118  18.567   9.232   1.036
13804W        W86119  44.401  17.273  11.397
13805W        W86120  26.204  19.198   1.776
13806W        W86121   6.791  25.428  10.952
13807W        W86122  10.173  10.342   1.357
13808W        W86123  19.084  35.445   0.451
13809W        W86124  22.008  38.302  11.628
13810W        W86125  40.376   4.716  13.809
13811W        W86126  21.975   3.415  11.170
13812W        W86127  19.111  19.622  12.939
13813W        W86128  23.628  19.665   4.172
13814W        W86129  21.520  25.449   0.853
13815W        W86130  43.386  10.203   4.643
13816W        W86131  24.422  19.747   9.710
13817W        W86132  26.491  32.629  13.986
13818W        W86133  15.102  23.239  12.161
13819W        W86134  18.101  21.522   3.216
13820W        W86135  21.603   3.537   3.141
13821W        W86136  31.581   4.669  11.943
13822W        W86137  27.376  38.731   1.478
13823W        W86138  29.650  11.159   3.715
13824W        W86139   3.439  35.622  12.516
13825W        W86140  13.807  24.664   4.727
13826W        W86141  35.529  34.075   1.986
13827W        W86142  32.674  26.212  13.861
13828W        W86143   5.722  42.889  13.454
13829W        W86144  39.181  39.441   4.999
13830W        W86145  31.325  38.202  12.927
13831W        W86146   2.705   5.757  13.860
13832W        W86147   9.369  15.788   0.521
13833W        W86148  34.650  44.706  11.985
13834W        W86149  13.978   9.693   0.314
13835W        W86150  41.573   6.852   0.437
13836W        W86151  44.471  26.357   1.277
13837W        W86152  38.082  18.138  12.066
13838W        W86153   0.463  41.411  11.444
13839W        W86154  20.793  43.725  10.622
13840W        W86155   2.837   3.465   0.842
13841W        W86156  23.165  23.805   4.157
13842W        W86157  25.230  44.259   0.334
13843W        W86158   7.246   3.659   1.311
13844W        W86159  26.043   5.865   2.700
13845W        W86160   1.627  16.841   1.658
13846W        W86161  40.055  24.179  11.614
13847W        W86162  10.783  36.611   3.802
13848W        W86163   7.440  14.344  10.607
13849W        W86164  22.237  16.000  13.843
13850W        W86165  27.366   5.912   2.213
13851W        W86166  32.066  34.426  12.589
13852W        W86167  22.658   9.181   3.733
13853W        W86168  33.115  44.412  14.654
13854W        W86169  26.668  32.625  12.862
13855W        W86170   5.099  10.838   0.242
13856W        W86171  27.146  33.627   0.430
13857W        W86172  30.151  37.404   3.268
13858W        W86173   4.371   5.722  14.486
13859W        W86174   1.267   1.189  14.647
13860W        W86175  11.775  11.152  13.763
13861W        W86176  26.070   7.906   2.111
13862W        W86177  37.432  17.320  12.078
13863W        W86178  18.339  41.261   1.418
13864W        W86179  35.275  34.710   4.317
13865W        W86180  38.944   6.650  12.459
13866W        W86181  36.235  21.500  10.755
13867W        W86182   9.654  19.029  14.058
13868W        W86183  25.751  37.111  12.142
13869W        W86184  39.952  31.990   4.995
13870W        W86185  42.217  18.347  14.299
13871W        W86186  43.784  27.519  12.632
13872W        W86187  14.531  36.519  13.028
13873W        W86188  11.791   6.152  13.639
13874W        W86189  43.990   7.850  14.777
13875W        W86190  43.925  23.648  12.092
13876W        W86191  32.869  44.237   1.169
13877W        W86192  42.249  20.083   1.397
13878W        W86193  21.873  37.232   4.045
13879W        W86194   3.456  36.660  14.735
13880W        W86195  18.288  36.611  11.836
13881W        W86196   8.350  17.773   3.463
13882W        W86197  32.642  20.123   4.138
13883W        W86198  40.621  42.340   2.777
13884W        W86199  36.459   6.364  14.199
13885W        W86200  20.651  37.524  11.146
13886W        W86201   7.246  12.200  12.934
13887W        W86202   0.868  15.066  10.706
13888W        W86203   0.410  17.770  13.941
13889W        W86204  10.152  33.407   5.006
13890W        W86205  13.644  25.207   1.851
13891W        W86206  42.797  22.017   2.146
13892W        W86207   2.224  23.536  12.118
13893W        W86208  39.264  43.919   5.038
13894W        W86209  41.037  39.249  11.063
13895W        W86210   2.833  13.921   0.350
13896W        W86211  36.850  38.338  14.531
13897W        W86212  27.957   7.644   3.569
13898W        W86213  33.667  42.419   3.260
13899W        W86214  20.005  38.577  10.697
13900W        W86215  43.361   9.631   2.239
13901W        W86216   6.282  26.572  14.943
13902W        W86217   1.789  29.369  11.163
13903W        W86218  33.565   1.848  14.037
13904W        W86219  39.104  17.722   0.921
13905W        W86220   7.478  18.242  13.853
13906W        W86221   8.134  29.882   1.305
13907W        W86222  10.352  44.376  11.602
13908W        W86223  18.701  29.095   0.900
13909W        W86224  11.797  22.035   0.474
13910W        W86225   7.765  20.081  12.949
13911W        W86226   0.020  33.085   4.200
13912W        W86227  38.468  42.705   4.998
13913W        W86228  11.687  41.502   1.956
13914W        W86229   9.351  19.104   0.855
13915W        W86230  42.268  32.636  12.526
13916W        W86231  31.128  15.384  13.561
13917W        W86232  29.813  35.133  10.443
13918W        W86233  40.055  31.482  12.375
13919W        W86234  37.508   3.475   2.322
13920W        W86235  20.329  31.976  13.018
13921W        W86236  33.487  26.263   1.110
13922W        W86237  23.899  19.306  14.704
13923W        W86238  30.192  35.942  14.544
13924W        W86239   9.600  20.187   1.620
13925W        W86240  39.928  30.989  11.616
13926W        W86241  34.427  15.250  14.523
13927W        W86242  32.465  14.025   3.763
13928W        W86243  13.219  42.431  11.018
13929W        W86244  10.897   6.850   2.166
13930W        W86245  10.385  38.958  10.157
13931W        W86246  13.265   9.362   0.434
13932W        W86247  44.389  13.692  12.156
13933W        W86248  13.075  31.954   1.411
13934W        W86249  12.857  43.337  12.400
13935W        W86250  14.336  37.987   2.249
13936W        W86251  16.281  26.147   2.178
13937W        W86252   5.726  17.067  14.930
13938W        W86253  28.870  28.651   0.262
13939W        W86254   5.913   2.297   3.421
13940W        W86255   4.972   1.000  12.967
13941W        W86256  18.771  12.644  10.795
13942W        W86257  35.586  40.436   4.621
13943W        W86258   5.524  42.823  12.978
13944W        W86259   6.646  26.269   0.247
13945W        W86260  10.878  44.312  14.567
13946W        W86261  29.908   5.302  14.920
13947W        W86262  39.399  31.857   4.323
13948W        W86263  35.622  16.921  11.981
13949W        W86264   0.335  22.633   1.626
13950W        W86265  10.417  32.980   2.192
13951W        W86266  23.816  16.221   0.422
13952W        W86267   5.960  28.723   1.396
13953W        W86268   1.917  28.603   2.746
13954W        W86269  17.745   6.260   1.210
13955W        W86270   1.665  26.626  10.650
13956W        W86271   4.386  37.835   2.220
13957W        W86272  25.673  32.229  13.559
13958W        W86273  24.184  31.956  12.494
13959W        W86274   5.472  22.547  10.036
13960W        W86275  22.544  10.839   0.320
13961W        W86276   5.665  20.773   1.288
13962W        W86277  41.566  30.228  14.208
13963W        W86278  31.115   0.440  10.632
13964W        W86279   3.385  40.021   2.306
13965W        W86280  44.898   0.504  14.025
13966W        W86281  32.518  32.377  13.459
13967W        W86282  13.226   7.905   0.887
13968W        W86283  16.635  30.848  13.420
13969W        W86284   6.088  17.288   1.236
13970W        W86285  42.480   4.316  11.198
13971W        W86286  44.230  18.196   1.310
13972W        W86287  19.384  38.368  12.353
13973W        W86288  28.207  15.093  12.072
13974W        W86289  21.951  34.459  14.344
13975W        W86290   4.043   7.791   0.742
13976W        W86291  27.144  40.804   4.480
13977W        W86292  14.522  37.317  12.016
13978W        W86293  10.595  40.971   0.456
13979W        W86294  25.603   8.154   2.101
13980W        W86295  27.736  41.467  14.350
13981W        W86296  40.982  29.410  12.348
13982W        W86297  29.493   0.686   5.111
13983W        W86298  24.589   0.940   2.689
13984W        W86299   7.792   7.401   2.161
13985W        W86300  19.309  37.841  10.702
13986W        W86301  14.519  38.444  12.110
13987W        W86302  25.780  31.078  12.946
13988W        W86303  15.159  43.858   2.424
13989W        W86304   8.772   4.263   4.793
13990W        W86305  16.156   8.723   4.485
13991W        W86306  31.408  39.839  11.063
13992W        W86307  42.070   7.481   4.680
13993W        W86308  42.255   4.448  11.647
13994W        W86309  12.951  10.800  10.598
13995W        W86310   3.703  14.069   0.337
13996W        W86311  40.464  12.273   2.901
13997W        W86312  17.010  18.601  14.830
13998W        W86313  14.338   0.311   4.357
13999W        W86314   5.482   5.803  13.099
14000W        W86315   8.851   1.691   4.069
14001W        W86316  39.330  13.781   2.192
14002W        W86317  21.198   2.856  12.540
14003W        W86318  21.744  17.390  14.791
14004W        W86319  14.706   5.357   1.195
14005W        W86320  16.013   6.566  10.155
14006W        W86321  20.499  26.685  13.215
14007W        W86322  35.178  11.968   2.852
14008W        W86323   4.995  16.217   1.192
14009W        W86324  44.681   7.166   2.522
14010W        W86325  28.315  37.514  12.865
14011W        W86326  28.066  34.395  12.723
14012W        W86327  36.991  34.335   2.381
14013W        W86328  11.890  15.665  12.898
14014W        W86329  35.565  23.080  13.198
14015W        W86330  19.996  18.843  14.238
14016W        W86331  19.284   1.448   1.227
14017W        W86332  24.166  33.393   5.135
14018W        W86333  29.980   5.369   2.203
14019W        W86334   7.192  41.054   1.396
14020W        W86335  30.682  24.216   1.315
14021W        W86336   2.933  36.295   3.063
14022W        W86337  42.887  18.074  12.338
14023W        W86338  14.045  23.898   1.363
14024W        W86339  11.038  43.537  12.967
14025W        W86340  24.637  43.381   3.155
14026W        W86341  24.642  37.089  14.877
14027W        W86342  41.856  26.242   0.762
14028W        W86343  10.707  23.349  11.179
14029W        W86344  25.488  12.757   2.365
14030W        W86345  22.547  21.021  10.560
14031W        W86346  35.932  11.987   2.766
14032W        W86347  35.818  22.614   1.447
14033W        W86348   5.807  29.425  14.811
14034W        W86349   8.832  42.293   3.126
14035W        W86350  11.618   5.707   1.058
14036W        W86351  21.608   0.846  12.591
14037W        W86352  14.984  13.697   0.784
14038W        W86353  36.553   1.721  10.759
14039W        W86354  29.990  40.384   2.382
14040W        W86355  34.449  43.966  11.440
14041W        W86356   2.394  11.154  10.270
14042W        W86357  25.120  10.552   3.172
14043W        W86358  41.849   7.004   2.023
14044W        W86359  41.692   7.743   4.435
14045W        W86360  34.881  13.745   4.806
14046W        W86361  13.360   9.107   2.779
14047W        W86362   9.132  12.201  12.837
14048W        W86363  12.478  17.389  14.879
14049W        W86364  19.258  20.991  11.417
14050W        W86365  13.070   2.333   3.745
14051W        W86366  31.168  10.250   9.945
14052W        W86367  26.804  36.736  11.684
14053W        W86368   7.941   5.341  13.634
14054W        W86369  34.457  38.415   4.586
14055W        W86370  34.537   1.942  14.949
14056W        W86371   8.860  37.581   3.141
14057W        W86372  18.211  27.964   5.081
14058W        W86373  19.176  16.799  12.265
14059W        W86374   8.218  29.381  12.182
14060W        W86375  37.640  12.917  13.558
14061W        W86376  21.565  10.810   0.744
14062W        W86377  25.068  12.695   0.725
14063W        W86378  29.473  24.447   1.843
14064W        W86379  36.928  12.467   3.794
14065W        W86380  23.620  28.001   4.540
14066W        W86381  17.118  20.306   3.587
14067W        W86382  17.678  35.849   2.153
14068W        W86383   6.996  11.701   4.090
14069W        W86384  36.390  27.971  13.987
14070W        W86385  26.449  34.415  13.418
14071W        W86386  17.156  39.817  10.646
14072W        W86387  35.984  17.381  11.154
14073W        W86388  27.537   3.555   5.534
14074W        W86389  22.168  30.111  14.039
14075W        W86390  10.947  39.944  14.359
14076W        W86391   7.754  11.324   1.627
14077W        W86392  28.674  24.634   2.903
14078W        W86393  18.607  41.044   2.660
14079W        W86394  29.069  15.612   2.258
14080W        W86395   6.718  15.796   0.398
14081W        W86396   1.032   0.291   3.423
14082W        W86397  36.426  27.387  14.376
14083W        W86398   2.472  18.650  14.491
14084W        W86399  20.233   7.058   0.938
14085W        W86400  16.069  20.355   4.209
14086W        W86401  20.099  21.211  12.467
14087W        W86402  34.574  44.447  13.256
14088W        W86403  29.066   3.136  10.463
14089W        W86404  25.031  28.787   0.866
14090W        W86405  10.129  25.161  12.932
14091W        W86406   5.854   8.773  11.516
14092W        W86407  18.442  40.537  13.025
14093W        W86408  43.292   5.746   3.308
14094W        W86409  12.867   6.954   2.240
14095W        W86410  33.109  17.014  13.509
14096W        W86411  18.101  11.343  10.307
14097W        W86412   7.334  24.685   0.914
14098W        W86413   9.376   9.208  12.969
14099W        W86414  40.878  23.536   1.282
14100W        W86415   5.228  21.184   3.137
14101W        W86416   6.378  38.927   0.408
14102W        W86417  17.112   8.856   1.710
14103W        W86418  26.694  42.142   2.704
14104W        W86419  22.094  18.990  10.141
14105W        W86420  26.934  34.011  10.211
14106W        W86421   7.563  27.025   3.634
14107W        W86422  12.480  29.759   1.396
14108W        W86423   6.424  40.536   4.686
14109W        W86424   9.640  43.529  14.220
14110W        W86425  30.199  44.279  10.181
14111W        W86426  21.621  19.996   1.011
14112W        W86427  41.431  32.221  12.350
14113W        W86428  39.888  24.096   2.347
14114W        W86429  41.982  39.565   0.343
14115W        W86430  27.950   0.255   3.195
14116W        W86431  22.063  41.582  11.089
14117W        W86432  23.489   6.249  13.422
14118W        W86433  22.987  32.608  10.722
14119W        W86434  28.558  11.368  12.382
14120W        W86435  34.413  21.654   3.808
14121W        W86436   9.536  26.032  12.845
14122W        W86437  25.752  40.655  11.068
14123W        W86438   0.357  16.975   3.846
14124W        W86439  26.726   6.194   4.726
14125W        W86440  34.470  16.718  11.465
14126W        W86441  17.789  32.001   1.248
14127W        W86442  34.005  21.672  12.356
14128W        W86443  26.351  41.709   4.298
14129W        W86444   4.783  41.738  14.046
14130W        W86445  11.113  30.204   2.285
14131W        W86446   9.198  10.587   3.738
14132W        W86447  36.963  44.080  11.851
14133W        W86448  30.521  12.185  13.904
14134W        W86449  10.041  22.794   3.337
14135W        W86450  15.074   5.338   4.365
14136W        W86451  31.990  26.912   2.593
14137W        W86452  13.653  21.785   0.206
14138W        W86453  18.624   0.689  14.316
14139W        W86454  35.976  35.028  13.845
14140W        W86455  34.645  13.152   1.672
14141W        W86456  23.317  44.973  12.267
14142W        W86457  39.961  23.668  14.130
14143W        W86458  18.309   5.622   2.701
14144W        W86459   0.222  28.198  10.900
14145W        W86460  33.431  19.749   4.259
14146W        W86461  25.369  16.710   2.403
14147W        W86462   3.718  30.915   2.169
14148W        W86463   3.804   0.394  12.352
14149W        W86464  40.518  31.968   1.674
14150W        W86465  30.385  15.818   4.229
14151W        W86466   8.919  17.573  12.502
14152W        W86467  12.187  22.606   4.413
14153W        W86468   2.827  40.309  12.018
14154W        W86469  15.019  40.553  12.411
14155W        W86470  15.772   7.262   2.280
14156W        W86471   0.018   0.625  14.530
14157W        W86472  10.898   5.192  11.154
14158W        W86473  29.504  40.810   0.807
14159W        W86474  41.427  12.712  12.099
14160W        W86475  37.790   4.877  12.847
14161W        W86476   4.831  31.064   4.881
14162W        W86477  33.018   6.261  10.757
14163W        W86478  34.072  43.641  11.598
14164W        W86479  28.445  32.170  11.509
14165W        W86480   0.644  11.202   4.107
14166W        W86481   0.851  32.156   1.836
14167W        W86482   3.613  13.305  11.109
14168W        W86483  20.655   2.829  14.763
14169W        W86484  12.893   8.633   4.041
14170W        W86485  12.114  39.820   4.328
14171W        W86486  25.726  30.969   4.907
14172W        W86487   0.123  18.780   3.170
14173W        W86488  27.293  43.196  12.373
14174W        W86489  23.502   0.829   2.288
14175W        W86490  39.011  23.845  13.493
14176W        W86491  27.888  28.987   2.817
14177W        W86492  44.168  13.727  14.935
14178W        W86493  13.170  18.302   2.761
14179W        W86494   6.275  29.946   3.825
14180W        W86495  34.186  11.780   3.357
14181W        W86496   9.479  17.734   5.332
14182W        W86497  29.630  23.218  11.623
14183W        W86498  38.399  27.359  10.749
14184W        W86499  40.404   9.693  14.171
14185W        W86500  18.085  39.310  13.607
14186W        W86501  23.942  11.395   1.295
14187W        W86502  34.053  42.553  10.649
14188W        W86503  30.905  24.960  12.572
14189W        W86504  19.117  13.237   1.014
14190W        W86505  38.469  34.368  12.080
14191W        W86506   0.362  11.158   2.722
14192W        W86507  11.480  12.479   0.275
14193W        W86508  38.974   7.704  14.284
14194W        W86509  39.788  34.033   1.428
14195W        W86510   9.632  27.470   3.644
14196W        W86511   3.452  30.017  13.784
14197W        W86512  39.196  26.884   1.573
14198W        W86513  38.562  42.186   3.711
14199W        W86514  37.468  12.855   1.903
14200W        W86515  21.401   1.684  12.353
14201W        W86516  25.012  31.533   4.468
14202W        W86517  20.725  12.202   4.066
14203W        W86518  44.886   3.831   3.663
14204W        W86519  13.620   6.853   3.092
14205W        W86520   5.810  14.703  10.717
14206W        W86521  17.102  30.683  10.380
14207W        W86522   0.754  34.552   4.879
14208W        W86523  33.822   1.266   2.392
14209W        W86524  21.522   8.230   2.130
14210W        W86525  25.718  39.435   2.697
14211W        W86526   1.851  20.065   3.708
14212W        W86527  14.728  21.845   1.450
14213W        W86528  22.533  10.428   1.919
14214W        W86529   4.599  33.668   0.822
14215W        W86530  32.534   6.353  11.443
14216W        W86531   7.414   3.459  14.209
14217W        W86532  39.936  21.378  10.662
14218W        W86533  19.589   3.741   1.512
14219W        W86534  20.130  39.485  11.998
14220W        W86535  25.405  18.970   3.251
14221W        W86536  37.132  17.495   1.343
14222W        W86537  36.067  33.072   3.661
14223W        W86538  36.124  43.465   2.699
14224W        W86539  35.887  17.647   4.432
14225W        W86540  19.576  39.889   1.441
14226W        W86541  37.566   9.821   0.250
14227W        W86542  26.009  18.939  13.895
14228W        W86543   3.283  20.630   3.397
14229W        W86544  24.791  32.033   2.999
14230W        W86545  27.103  24.214   2.014
14231W        W86546  20.237  27.684   1.304
14232W        W86547  32.392  28.249  12.111
14233W        W86548  15.801  27.186  10.774
14234W        W86549  17.260  21.434  10.706
14235W        W86550  19.982  21.011  10.605
14236W        W86551  23.633  14.273   0.030
14237W        W86552  25.569   1.465   2.872
14238W        W86553  17.004   6.644  14.956
14239W        W86554  40.893   8.329  14.727
14240W        W86555   8.341  36.224   2.409
14241W        W86556   8.255   3.982  12.976
14242W        W86557   1.347  39.001  14.839
14243W        W86558  11.705  25.332  14.533
14244W        W86559  44.684  21.214  13.283
14245W        W86560  21.147  18.550   0.266
14246W        W86561  23.219   8.612   4.701
14247W        W86562  38.608  10.242   2.999
14248W        W86563  36.496   8.431  13.481
14249W        W86564  22.931  44.211  13.438
14250W        W86565   7.984  38.636  11.852
14251W        W86566  19.427  24.931   3.724
14252W        W86567  21.688  22.841  14.840
14253W        W86568  30.167   4.955   4.397
14254W        W86569   5.244   2.254   2.298
14255W        W86570  35.977  11.438  10.501
14256W        W86571  10.717   6.230  13.508
14257W        W86572  29.988  40.904   1.467
14258W        W86573  16.802  27.549   4.193
14259W        W86574  27.899  14.823   2.745
14260W        W86575   0.810  33.801   0.365
14261W        W86576  24.232  31.001  11.540
14262W        W86577  11.818   2.716  14.573
14263W        W86578  10.695  30.354  10.897
14264W        W86579  39.024   5.391   4.301
14265W        W86580  29.480  23.731   2.340
14266W        W86581  21.163  25.514  13.538
14267W        W86582   9.641  18.775   1.199
14268W        W86583  27.106  27.597  13.970
14269W        W86584  12.395  18.691   4.805
14270W        W86585  23.793  11.668  10.523
14271W        W86586   2.883  22.094  11.978
14272W        W86587  42.814   1.248  11.872
14273W        W86588  44.849   4.907   2.817
14274W        W86589  16.152  30.555   2.306
14275W        W86590  40.191  31.815   3.284
14276W        W86591   3.510  29.222   3.595
14277W        W86592  36.081  18.745   2.348
14278W        W86593  31.918   0.002   2.713
14279W        W86594  26.444   6.265   2.162
14280W        W86595  13.579  38.537   1.868
14281W        W86596  18.423  21.551   4.595
14282W        W86597   5.774  10.642  14.964
14283W        W86598  33.906  26.678  14.002
14284W        W86599  14.243  23.627   1.791
14285W        W86600  41.886  25.493   4.538
14286W        W86601   9.354  38.370   4.822
14287W        W86602  14.880  31.090   2.906
14288W        W86603   2.283  41.458   3.749
14289W        W86604   1.103  35.010  11.947
14290W        W86605  28.843  42.459  12.600
14291W        W86606  21.483  30.107   1.257
14292W        W86607  20.140  34.093   4.565
14293W        W86608   8.332  20.999   0.262
14294W        W86609   0.492  20.546   2.076
14295W        W86610  36.427  40.689   1.889
14296W        W86611  29.095  18.576   3.648
14297W        W86612  40.585  27.145  12.402
14298W        W86613  38.380  32.189   2.293
14299W        W86614  12.632  23.176   2.816
14300W        W86615  27.701  33.975  13.513
14301W        W86616  18.871  44.076  14.947
14302W        W86617   8.349  16.211  11.747
14303W        W86618  18.307  18.300  12.462
14304W        W86619   7.991   8.369   2.612
14305W        W86620  12.154  41.014   1.477
14306W        W86621  29.427  25.417   2.133
14307W        W86622  41.562  10.684   3.573
14308W        W86623  11.823  16.171   5.128
14309W        W86624  24.308  37.366   5.264
14310W        W86625   8.960  30.322  10.710
14311W        W86626   1.015  16.534   3.240
14312W        W86627  12.761  13.267   2.834
14313W        W86628  43.549  44.186  14.764
14314W        W86629  33.617  40.319  12.687
14315W        W86630  41.354  43.159  12.164
14316W        W86631  43.350  17.535   5.003
14317W        W86632  40.843  26.470   4.740
14318W        W86633  32.905  37.658  12.073
14319W        W86634  15.129  34.637   0.115
14320W        W86635   8.432   3.807   2.595
14321W        W86636  38.848  23.413   1.968
14322W        W86637  15.775  31.035   0.237
14323W        W86638  24.977  44.955   1.298
14324W        W86639  20.679   8.372   0.382
14325W        W86640  22.914  15.327   3.728
14326W        W86641  40.995  37.266  11.712
14327W        W86642   3.998   8.345  13.683
14328W        W86643  13.725  12.072  11.356
14329W        W86644  26.626  16.828   1.279
14330W        W86645  27.152  25.189   3.842
14331W        W86646  15.215   2.336  11.405
14332W        W86647  27.000  21.212   4.527
14333W        W86648   6.629  39.019   3.155
14334W        W86649  41.580  11.265  14.767
14335W        W86650  12.069  10.132  10.634
14336W        W86651  20.769  36.922   0.185
14337W        W86652   9.898  23.003   3.798
14338W        W86653  19.555  14.006  11.099
14339W        W86654  22.569  23.071   2.822
14340W        W86655  27.662   6.631   0.238
14341W        W86656  15.064  17.308   3.173
14342W        W86657  24.550  11.802  14.481
14343W        W86658  34.455  10.304  12.897
14344W        W86659  39.487  18.546   2.736
14345W        W86660  18.542   1.852  12.560
14346W        W86661  44.193  20.701  11.641
14347W        W86662  23.783  19.113   9.815
14348W        W86663  23.533  22.693   4.607
14349W        W86664  33.508  16.057  12.789
14350W        W86665   8.173  18.185   4.220
14351W        W86666   7.103   7.462   3.141
14352W        W86667  37.946  20.027  14.811
14353W        W86668  42.980  40.119   0.506
14354W        W86669  26.141   5.673  10.660
14355W        W86670  11.137  11.749   0.847
14356W        W86671   9.985  16.988   3.628
14357W        W86672  11.706  41.088  13.889
14358W        W86673  43.949  44.398  11.902
14359W        W86674  25.726  34.854   5.065
14360W        W86675  18.704   9.770   0.186
14361W        W86676   6.005  25.424  11.522
14362W        W86677   8.890   2.073  12.957
14363W        W86678  20.624  44.035   2.492
14364W        W86679   4.736  26.683   2.576
14365W        W86680  33.172  31.866   0.272
14366W        W86681   0.978  40.495   2.829
14367W        W86682  43.451   7.701  12.101
14368W        W86683  13.203  30.273   0.885
14369W        W86684   6.366  10.943   4.626
14370W        W86685  30.467   7.002   2.729
14371W        W86686  21.738  31.917   0.363
14372W        W86687  34.749  24.754   5.084
14373W        W86688  11.332  21.884   4.145
14374W        W86689  35.250  23.141   4.665
14375W        W86690  38.364   8.379   0.925
14376W        W86691  34.103   1.998  12.003
14377W        W86692  28.054   0.261   4.138
14378W        W86693  38.798  21.310   1.404
14379W        W86694   0.200  25.126   4.703
14380W        W86695  13.592   0.711  12.103
14381W        W86696   2.723  36.771   3.893
14382W        W86697  11.626   2.795   4.258
14383W        W86698  36.818  28.622   4.592
14384W        W86699  10.598  28.930   0.760
14385W        W86700  16.863  30.498   3.585
14386W        W86701  11.391   9.178   2.241
14387W        W86702  21.540   8.613  14.998
14388W        W86703  38.466  38.858  11.552
14389W        W86704  25.705  31.920  14.568
14390W        W86705  27.744  40.342   2.391
14391W        W86706  23.816   8.820   3.338
14392W        W86707  30.581  13.395   0.182
14393W        W86708   1.236  28.438   2.349
14394W        W86709   2.571  28.028  14.776
14395W        W86710  23.503  43.996  11.746
14396W        W86711   5.163  38.134  13.360
14397W        W86712   9.924   3.226   3.209
14398W        W86713  14.335  21.105  14.034
14399W        W86714  25.420  23.600   0.932
14400W        W86715  23.409  36.543  12.899
14401W        W86716  17.762  24.451   2.199
14402W        W86717   0.813  31.371   4.213
14403W        W86718  10.246  41.793   3.353
14404W        W86719  23.997  33.652   2.730
14405W        W86720  21.747  31.648  12.648
14406W        W86721  20.739  21.327   4.876
14407W        W86722  19.655  27.421   2.240
14408W        W86723   1.260  38.542  10.727
14409W        W86724  40.526  21.962   0.238
14410W        W86725   3.248  32.461   1.207
14411W        W86726  44.796  10.144   3.233
14412W        W86727  35.809  21.881   2.154
14413W        W86728  43.822  30.045   2.156
14414W        W86729  43.954  12.080   4.543
14415W        W86730  36.522  39.303  11.845
14416W        W86731  27.937  40.780   2.169
14417W        W86732  39.776  38.822  13.753
14418W        W86733  10.597  38.338  14.303
14419W        W86734   7.707   4.376  10.691
14420W        W86735  26.151  14.082   4.878
14421W        W86736  31.391  33.348   3.671
14422W        W86737   4.199  31.263   4.926
14423W        W86738  18.061  31.805  13.376
14424W        W86739  19.023  11.698   2.662
14425W        W86740  39.872   7.803   4.892
14426W        W86741  43.885   0.291   3.671
14427W        W86742  23.632  44.475  14.220
14428W        W86743  36.634  40.439   4.549
14429W        W86744  15.883  16.804   3.133
14430W        W86745   9.735  41.401   0.753
14431W        W86746  25.691  40.313   2.151
14432W        W86747  24.194  23.994   3.305
14433W        W86748  39.931  21.278   2.618
14434W        W86749  23.005  22.885   2.007
14435W        W86750  12.613   9.870  12.811
14436W        W86751   3.932   8.591  12.594
14437W        W86752  40.219  29.557   2.687
14438W        W86753  31.673  30.192  12.459
14439W        W86754   4.416  36.837  13.435
14440W        W86755  43.016   0.182  12.654
14441W        W86756  15.982  24.564   0.390
14442W        W86757  18.791  39.929   1.859
14443W        W86758  14.979  43.704  13.756
14444W        W86759   0.463   9.374  14.373
14445W        W86760  15.071  30.128  11.085
14446W        W86761  39.618  42.032   4.650
14447W        W86762  24.805  39.063  13.907
14448W        W86763  38.596  33.410  14.863
14449W        W86764  13.740   2.406  10.649
14450W        W86765   3.284   6.912  12.593
14451W        W86766  42.930   6.543  13.271
14452W        W86767  24.675  12.921  14.232
14453W        W86768  11.331  21.565  11.155
14454W        W86769  44.696  21.814   2.322
14455W        W86770  16.568  38.828   2.375
14456W        W86771  18.835  43.940  11.855
14457W        W86772  44.834  30.217  13.058
14458W        W86773  28.118   8.482   2.234
14459W        W86774  32.190   3.471  14.488
14460W        W86775   9.687   8.375  11.515
14461W        W86776  19.232   8.851  12.958
14462W        W86777  32.663  27.465  13.443
14463W        W86778   2.715   7.426  13.283
14464W        W86779  32.102  25.667  10.758
14465W        W86780  18.601  40.974  12.516
14466W        W86781  37.223  41.320  11.619
14467W        W86782  19.023  43.837   2.463
14468W        W86783  10.066   2.154  12.146
14469W        W86784  15.735  25.753  13.463
14470W        W86785  17.049  37.630   4.911
14471W        W86786  41.823  10.310   3.787
14472W        W86787  10.099  43.005   0.511
14473W        W86788  36.348  40.308  14.018
14474W        W86789  21.113   1.185  14.693
14475W        W86790  41.341  37.515   3.318
14476W        W86791  30.955  25.266  14.498
14477W        W86792  18.199  17.192   0.176
14478W        W86793  20.065  17.993   3.448
14479W        W86794  29.437  29.395  14.760
14480W        W86795  32.967  26.268  11.134
14481W        W86796   7.101  11.888   3.610
14482W        W86797  11.124  38.087   2.514
14483W        W86798  23.715  16.845   1.305
14484W        W86799  39.000  29.468   1.048
14485W        W86800   8.626  29.914  10.702
14486W        W86801   6.850  15.583   1.719
14487W        W86802  24.463  31.012   2.644
14488W        W86803  35.956  12.059  11.995
14489W        W86804  10.716  43.418   4.401
14490W        W86805  31.504   2.178   2.460
14491W        W86806  17.537  24.645  12.392
14492W        W86807  10.109  43.795  14.295
14493W        W86808  16.529  17.200  14.956
14494W        W86809  17.142   7.286   0.850
14495W        W86810  27.232  38.358   4.634
14496W        W86811  23.594  14.148   3.763
14497W        W86812  26.582  40.822   3.769
14498W        W86813  10.203  12.356  13.523
14499W        W86814  34.559   2.007   1.352
14500W        W86815  24.590  33.054   1.858
14501W        W86816  23.086  18.197   4.076
14502W        W86817   1.242  26.633   3.230
14503W        W86818  16.131   5.875  12.313
14504W        W86819   2.076  41.968  11.578
14505W        W86820  13.067  43.015   2.250
14506W        W86821  15.125  39.322  12.003
14507W        W86822  13.369  39.983  11.931
14508W        W86823  20.025  27.533   2.643
14509W        W86824  22.232  15.327  14.991
14510W        W86825  26.723  29.679   4.188
14511W        W86826  21.244  15.655   3.579
14512W        W86827  16.976  26.267   4.597
14513W        W86828  27.242  22.580  14.900
14514W        W86829  27.580  13.606   2.856
14515W        W86830  31.364  13.270   3.780
14516W        W86831  27.723   1.326  13.485
14517W        W86832  29.115  35.010   1.738
14518W        W86833  15.195   2.886   4.045
14519W        W86834   8.290  19.630  10.882
14520W        W86835  23.625   4.258   4.245
14521W        W86836  43.112   1.915  10.126
14522W        W86837  13.457  28.399   3.846
14523W        W86838  42.514  10.687   3.675
14524W        W86839   0.842  43.437  14.854
14525W        W86840  38.870  28.747   3.778
14526W        W86841  42.468  23.213  12.745
14527W        W86842   4.136   7.204   1.887
14528W        W86843  23.539  24.187  14.645
14529W        W86844  32.152  44.748   4.030
14530W        W86845  40.327  27.733  13.440
14531W        W86846   9.861  24.257   2.414
14532W        W86847  37.385  20.030   3.334
14533W        W86848  43.857  15.092  12.887
14534W        W86849  37.593  14.228  13.578
14535W        W86850  12.535   7.526  14.204
14536W        W86851  25.003  20.634   4.656
14537W        W86852   1.273  11.349   1.839
14538W        W86853   8.716   8.731  14.079
14539W        W86854  19.539  18.916  12.404
14540W        W86855  20.682  14.574   0.002
14541W        W86856  39.481  42.478  12.461
14542W        W86857  21.988  20.584   4.001
14543W        W86858   6.865  13.292   1.909
14544W        W86859   6.950  35.807   0.553
14545W        W86860   5.640  28.785  11.141
14546W        W86861   2.589  32.974  12.099
14547W        W86862  32.917   3.979   0.241
14548W        W86863  31.527  40.994  13.806
14549W        W86864  42.820  42.952  10.541
14550W        W86865   0.482  22.276   1.276
14551W        W86866  18.743  33.877  12.423
14552W        W86867  32.715   2.741   1.157
14553W        W86868  10.921   9.450  14.041
14554W        W86869  36.536  31.353   3.898
14555W        W86870  36.711  40.545   1.329
14556W        W86871   8.368  41.586   2.825
14557W        W86872  28.434  28.493  12.023
14558W        W86873  26.755  30.296  14.792
14559W        W86874  10.728   9.962   5.098
14560W        W86875  32.326  33.431  12.096
14561W        W86876  17.694  26.018   2.140
14562W        W86877  33.919   8.728  12.496
14563W        W86878  14.985   2.146  12.604
14564W        W86879  28.050  19.819   2.555
14565W        W86880   2.989  19.599   1.923
14566W        W86881  32.219  15.616  11.138
14567W        W86882  16.716   9.742  13.997
14568W        W86883  28.980  24.568   1.962
14569W        W86884  44.088  19.130   1.835
14570W        W86885  38.793  24.128  10.712
14571W        W86886  42.475  26.515   1.178
14572W        W86887  17.261  29.043  10.398
14573W        W86888  32.324  23.730   2.721
14574W        W86889  12.724  30.018   3.860
14575W        W86890  31.687  31.057   5.217
14576W        W86891  22.944  24.013   0.977
14577W        W86892   4.228  14.839  14.433
14578W        W86893  22.718  30.709  13.502
14579W        W86894  27.616  43.060   2.894
14580W        W86895  19.725  32.441   1.893
14581W        W86896  31.941  20.092   3.802
14582W        W86897  31.990  37.370   1.483
14583W        W86898  16.515  10.531  12.440
14584W        W86899  34.275  40.901  10.466
14585W        W86900   5.258  31.956   1.721
14586W        W86901  21.715  23.605  10.522
14587W        W86902  35.430  28.593  10.582
14588W        W86903  28.954   9.523  13.373
14589W        W86904  16.246  25.897  13.956
14590W        W86905  22.569  22.532  12.802
14591W        W86906  21.328  20.080   2.738
14592W        W86907  28.148  35.313   0.227
14593W        W86908  44.807   0.904  14.908
14594W        W86909  16.500  30.047  10.243
14595W        W86910   2.778  11.553   0.836
14596W        W86911   2.344  11.074   0.251
14597W        W86912  28.328  12.199  13.888
14598W        W86913  38.084  42.372   3.697
14599W        W86914  26.613  42.434   3.172
14600W        W86915  32.563  34.593  12.052
14601W        W86916  26.994  34.489   4.111
14602W        W86917  39.480  24.290  14.291
14603W        W86918  16.228  16.776   2.763
14604W        W86919  29.068   1.046  13.654
14605W        W86920   6.900  17.177  14.505
14606W        W86921  35.890  24.698  13.863
14607W        W86922  39.978  30.693  12.987
14608W        W86923   5.829  35.422   1.107
14609W        W86924  43.708  17.277   1.658
14610W        W86925  44.529   7.254   0.184
14611W        W86926  29.156  39.262  13.022
14612W        W86927  23.706  44.324   1.149
14613W        W86928  28.042   8.165  11.126
14614W        W86929  19.021  21.060   0.967
14615W        W86930  30.147   9.250  14.966
14616W        W86931   8.925  15.654   0.298
14617W        W86932  44.869  29.650   1.780
14618W        W86933   6.411  43.104   3.883
14619W        W86934   8.173   1.747  13.706
14620W        W86935   4.367  30.628  12.493
14621W        W86936  27.580  17.947  13.782
14622W        W86937  32.090  11.166   3.642
14623W        W86938  18.541   8.413  11.750
14624W        W86939  41.501  23.947   0.134
14625W        W86940  10.679  18.773   2.391
14626W        W86941  24.113   1.947   2.775
14627W        W86942  36.137  40.745   4.202
14628W        W86943   9.646  28.041  13.967
14629W        W86944  13.248  24.150  11.445
14630W        W86945  13.833   0.857   4.631
14631W        W86946  26.699  18.679   3.530
14632W        W86947  20.980   3.794  13.010
14633W        W86948  20.708  29.270   4.106
14634W        W86949  34.785  15.240   2.725
14635W        W86950   3.295  17.145  14.227
14636W        W86951  30.893  32.391   2.221
14637W        W86952  26.125   1.735   0.300
14638W        W86953   5.924   0.991  11.610
14639W        W86954  25.979  25.651   1.953
14640W        W86955  13.666   5.382   2.199
14641W        W86956   5.918  27.748  12.422
14642W        W86957  24.137  41.357   3.667
14643W        W86958  42.446   7.885   4.248
14644W        W86959   0.916  10.892  14.967
14645W        W86960  44.825   4.156   0.236
14646W        W86961  44.439  38.100   1.672
14647W        W86962  26.655  13.836  13.262
14648W        W86963  33.667  40.212  10.876
14649W        W86964  39.524   1.836  10.998
14650W        W86965  19.551   4.485  13.840
14651W        W86966   3.403  15.360  12.291
14652W        W86967   4.446   1.701  12.056
14653W        W86968  23.802  34.058   4.730
14654W        W86969  11.547  24.191   4.209
14655W        W86970  25.681   1.558  12.465
14656W        W86971  10.360  24.589   1.200
14657W        W86972  28.238  11.237  11.083
14658W        W86973   1.206  12.157  14.437
14659W        W86974  16.220  44.424   0.784
14660W        W86975  38.658  17.760   4.291
14661W        W86976   2.808  41.233  13.969
14662W        W86977  42.930   6.373   4.616
14663W        W86978   8.151  33.770   0.469
14664W        W86979   0.367  35.151   3.040
14665W        W86980  38.872  25.929  12.633
14666W        W86981  21.777  22.663   0.750
14667W        W86982   6.329  36.123  11.600
14668W        W86983  36.568  12.721   4.728
14669W        W86984  42.719   9.155   3.669
14670W        W86985  37.143   5.668   3.258
14671W        W86986  34.521  12.120  11.585
14672W        W86987  20.927  12.647  14.277
14673W        W86988   5.288  13.357   0.612
14674W        W86989  22.670   1.932  11.609
14675W        W86990  35.347   7.007  12.921
14676W        W86991  22.503   4.014   0.478
14677W        W86992  15.998   5.181   3.260
14678W        W86993  31.768  16.198  14.688
14679W        W86994   1.215  17.249  12.982
14680W        W86995  20.643  31.490   4.615
14681W        W86996  10.903   4.944  14.302
14682W        W86997   1.711   9.777   4.148
14683W        W86998  42.876  39.040   1.434
14684W        W86999  33.229  26.114   5.107
14685W        W87000  31.174  13.103  14.408
14686W        W87001   7.226  43.336   1.499
14687W        W87002  36.235   0.313   1.962
14688W        W87003  37.361  21.979   0.946
14689W        W87004  23.092  44.107  14.385
14690W        W87005   2.567  37.081  10.337
14691W        W87006   7.488  17.733   3.896
14692W        W87007  13.318  20.363   2.881
14693W        W87008  16.075  12.267  10.413
14694W        W87009  44.528   7.679   2.755
14695W        W87010  27.605   9.399  11.919
14696W        W87011   2.752   4.800   0.448
14697W        W87012  43.752  21.369  12.444
14698W        W87013   9.840  23.431  10.892
14699W        W87014  16.810  21.249  10.941
14700W        W87015  24.787   9.723  11.291
14701W        W87016  10.433  39.916  14.352
14702W        W87017  42.962   3.775   2.684
14703W        W87018  37.823  14.426   3.351
14704W        W87019  37.569  27.705   1.450
14705W        W87020   6.659  39.781   3.191
14706W        W87021   6.357  44.248  13.473
14707W        W87022  30.473  38.050   4.669
14708W        W87023  20.900  32.818  14.436
14709W        W87024  31.934  12.654  14.048
14710W        W87025  33.375  13.580  12.072
14711W        W87026  16.806  27.550  10.479
14712W        W87027  37.909  20.904   3.301
14713W        W87028  21.706  30.415  10.388
14714W        W87029  29.619  20.700  14.669
14715W        W87030  22.092  19.241  12.064
14716W        W87031  14.765   2.997  14.968
14717W        W87032   9.650   0.740  10.415
14718W        W87033   3.442  38.389   1.865
14719W        W87034  40.391  40.381   1.749
14720W        W87035  14.490  13.659  12.100
14721W        W87036  15.264  31.319   3.741
14722W        W87037  33.491   9.921  14.485
14723W        W87038   1.847   9.788   2.223
14724W        W87039  34.932  37.229  12.460
14725W        W87040  38.428  27.535   2.444
14726W        W87041  11.750   0.401  10.971
14727W        W87042  22.329  25.784  14.778
14728W        W87043  12.849   3.397  11.234
14729W        W87044  34.122  40.274  12.984
14730W        W87045  28.138  22.586   5.032
14731W        W87046  41.733  10.217  10.733
14732W        W87047  40.766  12.288   1.784
14733W        W87048  43.457  17.722   2.890
14734W        W87049   3.648  40.868   0.993
14735W        W87050  15.156  28.124  12.611
14736W        W87051   2.330   9.314  14.978
14737W        W87052  35.834   4.618   2.884
14738W        W87053  29.552  10.730   3.452
14739W        W87054  35.569  10.778  10.809
14740W        W87055  36.952  24.165   1.369
14741W        W87056  18.179  41.831   2.773
14742W        W87057  12.610  36.159  12.810
14743W        W87058   5.205  20.209   4.291
14744W        W87059  36.100  23.939   3.188
14745W        W87060  15.547  38.375  12.143
14746W        W87061  23.058  41.442   2.256
14747W        W87062   6.400  10.003   4.760
14748W        W87063  16.736  39.496   4.984
14749W        W87064   8.742  14.844   5.113
14750W        W87065  44.237  11.919  13.687
14751W        W87066  15.154   3.899  11.934
14752W        W87067  10.737  40.791   1.396
14753W        W87068   9.200  22.598   2.312
14754W        W87069   1.761  44.556  11.404
14755W        W87070   2.869  44.539  12.135
14756W        W87071  33.897  35.584   4.761
14757W        W87072  25.046   4.813  14.474
14758W        W87073  27.901  33.596   2.310
14759W        W87074  11.723  18.680   0.786
14760W        W87075  12.154   4.264   1.218
14761W        W87076  23.853  40.512   2.252
14762W        W87077  42.353  10.334  12.074
14763W        W87078  11.497   7.245   2.013
14764W        W87079  31.920  21.735   2.153
14765W        W87080  27.976  25.931   0.268
14766W        W87081  27.139  44.018   1.631
14767W        W87082   9.794   5.467   1.995
14768W        W87083   7.723  44.002   1.886
14769W        W87084  31.902   6.821   2.749
14770W        W87085  32.024  18.751   0.487
14771W        W87086  30.018  44.177   0.949
14772W        W87087  40.028  40.072   4.270
14773W        W87088  33.550  39.034  13.834
14774W        W87089  35.470   6.391  13.608
14775W        W87090  20.780  14.519   2.627
14776W        W87091   2.674  40.961   3.281
14777W        W87092  38.440  33.157  11.577
14778W        W87093  22.823   7.361  13.790
14779W        W87094  19.564  42.344  14.890
14780W        W87095   7.867   7.241  12.416
14781W        W87096  37.511   6.777   1.582
14782W        W87097  24.417  44.978   2.188
14783W        W87098  17.082  29.611   1.629
14784W        W87099   7.907   0.362   1.754
14785W        W87100  41.055  25.730   4.241
14786W        W87101  22.651  28.661   3.235
14787W        W87102   9.943  10.313   4.569
14788W        W87103  19.332  32.917  11.069
14789W        W87104   2.282  43.518   1.944
14790W        W87105  14.855  22.558   0.823
14791W        W87106  21.207   1.334   2.760
14792W        W87107  14.616  15.068   0.239
14793W        W87108  15.844  12.723  12.380
14794W        W87109   8.388  35.431  12.038
14795W        W87110  20.817  18.770  14.935
14796W        W87111  14.065  42.458  13.037
14797W        W87112  40.332  25.412   0.947
14798W        W87113  15.883  39.972  11.172
14799W        W87114  39.544  19.105  13.584
14800W        W87115  13.660  40.520  12.079
14801W        W87116   9.724  26.046   4.107
14802W        W87117  21.495  41.724  11.597
14803W        W87118  29.860  24.196  11.685
14804W        W87119  27.645   8.182  11.465
14805W        W87120   7.751  42.913   4.418
14806W        W87121  35.975  39.224  14.727
14807W        W87122  31.153  30.611   2.361
14808W        W87123  38.573  40.754   0.401
14809W        W87124  36.924  38.249   2.652
14810W        W87125  33.525  24.437  12.939
14811W        W87126   6.223  25.235  13.008
14812W        W87127  32.221   0.500  13.464
14813W        W87128  22.394  19.486  14.810
14814W        W87129  14.159  29.183   3.212
14815W        W87130  22.641  42.457  11.592
14816W        W87131  19.223  16.174   3.360
14817W        W87132  40.928  39.465   4.720
14818W        W87133  11.769  15.863  13.876
14819W        W87134  43.678  15.091  14.240
14820W        W87135  13.392  24.939   0.403
14821W        W87136  10.214   5.302  12.708
14822W        W87137  22.708   6.466   4.488
14823W        W87138   4.280  23.018   3.258
14824W        W87139   2.717   2.201   4.424
14825W        W87140  36.363  35.018  10.709
14826W        W87141  41.739  28.153  14.824
14827W        W87142  43.416  35.526   0.905
14828W        W87143  26.898  27.045   3.790
14829W        W87144  10.867  24.652  11.975
14830W        W87145   1.854  27.966  13.375
14831W        W87146  35.494  27.739  11.971
14832W        W87147  21.731   7.565  11.097
14833W        W87148  14.120  27.240  14.421
14834W        W87149  30.899   7.927   4.525
14835W        W87150  13.847  14.815   3.737
14836W        W87151  31.141  29.742   1.400
14837W        W87152   9.286  21.765  13.945
14838W        W87153  44.805  25.676  10.382
14839W        W87154  40.316   0.068  11.044
14840W        W87155  38.049   1.210   1.895
14841W        W87156  25.776  40.967  11.984
14842W        W87157  43.679  18.214   2.244
14843W        W87158  17.781  26.939   1.821
14844W        W87159   2.822  29.110  10.811
14845W        W87160  15.848  44.335   3.328
14846W        W87161  25.420  29.126   4.525
14847W        W87162  37.473  39.020  12.865
14848W        W87163  11.656   3.435  10.644
14849W        W87164  25.541  21.028   2.300
14850W        W87165  43.439   8.685   0.083
14851W        W87166  32.074  18.222   3.634
14852W        W87167  19.858   0.784  14.662
14853W        W87168  22.042  13.085  13.839
14854W        W87169   2.518  12.286  14.901
14855W        W87170  34.839  22.284  12.528
14856W        W87171   4.718  20.257   0.857
14857W        W87172  32.826  35.789  10.873
14858W        W87173  12.687  42.529   2.804
14859W        W87174  40.304   0.564  11.939
14860W        W87175  20.737  31.064  13.498
14861W        W87176  30.628  20.699   2.225
14862W        W87177   4.787   0.215   4.723
14863W        W87178  18.623  28.239   0.332
14864W        W87179  16.327  19.558   2.247
14865W        W87180  33.602  23.449   2.758
14866W        W87181  30.441   5.310  13.307
14867W        W87182  27.674  29.366  14.902
14868W        W87183   0.778  30.578  13.438
14869W        W87184  32.472   4.155   1.183
14870W        W87185  31.585  32.543   4.629
14871W        W87186   9.434  29.745  12.706
14872W        W87187  33.515  13.580   2.189
14873W        W87188  26.974  19.126  10.717
14874W        W87189  27.785  33.092   3.787
14875W        W87190   1.906  39.454   1.818
14876W        W87191  14.506   9.815   0.387
14877W        W87192  21.512  16.366  14.928
14878W        W87193   9.115  44.899   0.047
14879W        W87194  27.537  29.484   3.161
14880W        W87195  33.020   9.390   4.179
14881W        W87196  37.271  28.597  11.647
14882W        W87197  40.783  31.822  12.907
14883W        W87198   4.976  33.896   3.417
14884W        W87199  43.447  28.533   4.589
14885W        W87200   8.118   4.948   0.794
14886W        W87201  39.055  16.202  10.881
14887W        W87202   0.753  13.155  10.196
14888W        W87203   0.572   5.269  14.066
14889W        W87204  35.278  14.911  13.370
14890W        W87205  32.925  10.616  11.606
14891W        W87206   6.704   6.872  13.467
14892W        W87207   5.907  40.530  14.486
14893W        W87208  24.993  21.533  11.591
14894W        W87209  16.889  36.177  12.983
14895W        W87210  22.251  11.871  12.916
14896W        W87211  16.233  22.731   0.891
14897W        W87212  43.532  17.162  14.792
14898W        W87213  20.678  11.778  10.626
14899W        W87214  11.569  25.310  12.313
14900W        W87215   4.910  12.247   1.200
14901W        W87216  28.074  13.808  10.993
14902W        W87217  28.109   0.080  14.994
14903W        W87218   8.357  29.032   3.324
14904W        W87219  34.564  29.274   3.075
14905W        W87220  22.132  18.539  12.733
14906W        W87221  16.025  44.771  12.659
14907W        W87222  10.255  24.364   2.072
14908W        W87223  20.801  12.746  12.878
14909W        W87224  31.970  35.714  10.793
14910W        W87225  20.020  21.572   3.347
14911W        W87226  11.834  13.270   4.741
14912W        W87227   4.920  30.635  14.719
14913W        W87228   1.507  39.752   3.698
14914W        W87229  39.776  12.182   1.751
14915W        W87230  30.542  29.839   0.234
14916W        W87231   2.839   3.747   0.378
14917W        W87232  29.968  19.793  13.175
14918W        W87233  33.393   0.777  10.183
14919W        W87234  20.525  12.181  14.984
14920W        W87235  30.736  17.736   2.455
14921W        W87236  44.035   7.802   0.811
14922W        W87237  30.548  13.884   4.533
14923W        W87238  13.315  36.966  11.929
14924W        W87239  43.500  14.309  13.141
14925W        W87240  20.657  26.995   2.365
14926W        W87241  41.483  27.559   4.670
14927W        W87242  10.264   8.696  11.156
14928W        W87243  10.589   2.785  13.966
14929W        W87244  24.640  25.211   2.681
14930W        W87245  30.213   1.741  10.480
14931W        W87246  41.836  41.013  13.499
14932W        W87247   7.624  32.866  12.424
14933W        W87248  31.561  10.660   3.651
14934W        W87249  24.478  37.400   1.879
14935W        W87250  32.599  40.319  12.568
14936W        W87251  17.795  32.629  11.548
14937W        W87252  22.672  37.574   0.513
14938W        W87253  31.121   0.940  10.813
14939W        W87254   1.595   0.932  13.892
14940W        W87255  33.143  15.136   4.344
14941W        W87256   4.275  32.327  11.677
14942W        W87257  14.025   9.431   1.102
14943W        W87258   0.174  16.605  12.656
14944W        W87259  18.892  24.172  11.809
14945W        W87260  24.637  26.118  13.294
14946W        W87261   3.340  36.077  13.469
14947W        W87262   1.746  24.462  12.017
14948W        W87263  29.650  43.017   1.284
14949W        W87264  15.487   6.878  13.036
14950W        W87265  36.102  21.158  14.279
14951W        W87266  27.927   0.646  12.924
14952W        W87267  38.342   5.642  11.179
14953W        W87268   0.940   2.688   0.793
14954W        W87269  14.400  27.352  13.106
14955W        W87270  27.041   1.437  11.490
14956W        W87271   2.486  27.125   2.241
14957W        W87272  29.975  25.198   0.311
14958W        W87273  37.042   4.692  12.165
14959W        W87274   8.283  29.494  10.799
14960W        W87275  27.406  10.639  13.581
14961W        W87276  32.573  36.783  11.156
14962W        W87277  26.072  20.800   0.968
14963W        W87278  28.745  40.732  13.888
14964W        W87279  29.047  39.836   2.367
14965W        W87280  16.548   4.331   4.719
14966W        W87281   5.695  28.565   4.464
14967W        W87282  20.696   0.195  10.698
14968W        W87283  17.293  31.868   5.068
14969W        W87284  38.852  10.908  13.265
14970W        W87285  25.841  15.801   4.480
14971W        W87286  19.656  29.489  12.004
14972W        W87287  14.670  30.125   3.505
14973W        W87288   1.809  39.054   3.699
14974W        W87289  17.806  15.268  13.376
14975W        W87290  19.113  30.627   0.267
14976W        W87291  18.681  41.439   4.674
14977W        W87292  10.957  37.341  13.440
14978W        W87293  22.156   1.511  12.801
14979W        W87294  44.597  23.081  13.828
14980W        W87295   2.206  24.930   2.080
14981W        W87296  12.104   8.843   4.113
14982W        W87297  26.493  33.608   0.918
14983W        W87298   0.588  17.126   5.169
14984W        W87299   6.436   0.829  14.920
14985W        W87300  23.676  41.202  11.200
14986W        W87301  26.528   8.640   0.557
14987W        W87302  42.844   0.273  13.490
14988W        W87303  31.349   5.782  10.628
14989W        W87304  16.355  39.097  11.534
14990W        W87305  43.048  23.199  12.446
14991W        W87306  36.972  18.736   0.831
14992W        W87307   2.338  38.164  12.509
14993W        W87308  19.396   8.853   5.111
14994W        W87309  15.831  26.701  14.441
14995W        W87310  12.954  27.468  13.987
14996W        W87311  43.139  29.098   4.879
14997W        W87312  44.808  11.307  10.316
14998W        W87313  19.692   3.420  13.369
14999W        W87314  28.548   8.085  13.607
15000W        W87315  37.996  37.171   0.941
15001W        W87316  18.780   9.713   3.696
15002W        W87317  19.733  18.569   4.605
15003W        W87318  28.446  11.590   4.541
15004W        W87319  17.196  40.268   2.213
15005W        W87320  37.502  33.629  11.026
15006W        W87321  26.138  24.974   4.635
15007W        W87322  34.768  38.502   0.823
15008W        W87323  19.121  16.051  14.305
15009W        W87324  40.997  29.351  13.331
15010W        W87325  13.565  18.301  11.942
15011W        W87326  43.483   7.413   2.110
15012W        W87327  40.592  33.091  13.342
15013W        W87328   9.150   0.057   3.146
15014W        W87329  17.139   1.174   3.159
15015W        W87330  28.094  24.420   1.756
15016W        W87331  37.027  23.275   1.978
15017W        W87332  11.385   9.768   3.657
15018W        W87333  22.716  12.740   1.192
15019W        W87334  11.959  42.823  14.094
15020W        W87335  36.092  12.965   4.691
15021W        W87336   0.486   8.647  11.910
15022W        W87337   8.389   0.204  14.899
15023W        W87338  28.091  26.977   4.994
15024W        W87339  10.200   8.682  13.999
15025W        W87340  32.654  14.038  13.394
15026W        W87341  10.697  26.479   3.679
15027W        W87342  30.941  14.076  13.944
15028W        W87343  14.204  25.949  13.820
15029W        W87344  26.999  30.218   2.179
15030W        W87345  35.067  33.644   0.285
15031W        W87346  21.010  11.507  13.957
15032W        W87347  11.866  13.648  14.863
15033W        W87348  24.529  11.844  11.987
15034W        W87349  15.790  38.403  14.574
15035W        W87350  31.578  22.972   2.317
15036W        W87351  27.020  16.671  13.745
15037W        W87352   7.409  35.991   0.348
15038W        W87353  15.119   4.256   2.164
15039W        W87354  12.309  26.644   3.787
15040W        W87355  35.575  22.295   0.043
15041W        W87356  27.548   1.875  13.153
15042W        W87357   6.940  38.794  14.416
15043W        W87358  20.980  23.236   4.068
15044W        W87359  21.030  22.034   2.792
15045W        W87360  15.564   2.919   1.379
15046W        W87361  43.036  27.995  14.406
15047W        W87362  40.623   0.416   0.512
15048W        W87363  41.614  36.781  12.908
15049W        W87364  22.752  29.925  14.737
15050W        W87365  23.710  36.651  11.170
15051W        W87366   0.739   2.211   3.580
15052W        W87367  21.235   7.690   3.167
15053W        W87368  26.588  42.569  13.434
15054W        W87369  18.784  34.005   3.365
15055W        W87370   3.115   9.319  11.457
15056W        W87371  13.141  24.209   2.338
15057W        W87372   6.709  24.968  13.824
15058W        W87373  19.802  27.952   1.492
15059W        W87374  19.309  22.512   1.826
15060W        W87375  22.225  16.743  12.579
15061W        W87376  28.065   2.938   4.168
15062W        W87377  16.032  21.552  12.065
15063W        W87378  44.134  32.527   1.199
15064W        W87379   0.163  10.094  10.697
15065W        W87380  22.481  20.091  10.695
15066W        W87381  39.509  40.024   4.380
15067W        W87382  27.181  38.776  12.447
15068W        W87383   5.316   2.489   3.779
15069W        W87384  40.575  17.118  12.657
15070W        W87385  25.941  22.995  13.897
15071W        W87386  40.943  20.175  11.584
15072W        W87387  23.154  33.933  14.969
15073W        W87388  21.327  29.132  13.349
15074W        W87389  43.539  20.070   4.338
15075W        W87390   4.839  17.478   2.035
15076W        W87391  32.172   7.644  14.024
15077W        W87392  38.010  41.872  10.595
15078W        W87393   2.852   4.408  11.572
15079W        W87394  11.714   5.320   1.983
15080W        W87395  23.202  10.395  10.135
15081W        W87396  12.161   6.769  11.592
15082W        W87397  19.663  43.297   2.826
15083W        W87398   4.284  25.045  13.240
15084W        W87399   5.189  26.774   4.221
15085W        W87400  27.653  34.882  12.460
15086W        W87401  10.044  42.077  13.031
15087W        W87402   9.623  40.765  13.922
15088W        W87403  14.372  10.318  13.664
15089W        W87404   3.775  26.182   0.210
15090W        W87405  39.983   7.785  11.473
15091W        W87406  16.332  29.481  14.718
15092W        W87407  10.870   9.722  12.923
15093W        W87408   1.329  20.535   4.250
15094W        W87409  21.101  40.075   2.327
15095W        W87410  23.243  21.307   4.598
15096W        W87411  18.342  20.177   4.171
15097W        W87412  16.706  33.142  10.861
15098W        W87413  10.690   6.170   2.870
15099W        W87414  33.993   4.025  13.381
15100W        W87415  14.094   3.660   3.828
15101W        W87416  31.101  28.119  11.763
15102W        W87417  18.148   2.874   2.038
15103W        W87418  32.316  33.574  12.912
15104W        W87419  32.678  28.185  12.535
15105W        W87420  27.428  28.113   2.154
15106W        W87421  16.334  32.962   2.309
15107W        W87422  14.072  18.560   3.831
15108W        W87423  17.565  11.218   5.051
15109W        W87424  26.173  32.138   4.426
15110W        W87425   8.018  39.385   4.177
15111W        W87426   2.280  44.202   1.426
15112W        W87427  32.044  33.081  14.329
15113W        W87428   9.941  21.475   2.272
15114W        W87429  21.199  39.798  10.606
15115W        W87430   2.334  20.066   0.954
15116W        W87431   4.692  27.508   0.798
15117W        W87432  23.767  20.280   2.195
15118W        W87433  41.975  16.338  11.770
15119W        W87434  22.541  34.531   4.668
15120W        W87435  19.492  23.938   3.449
15121W        W87436  16.824  15.768   0.323
15122W        W87437  14.786   9.352   0.091
15123W        W87438  41.746  24.678   4.010
15124W        W87439  24.168  12.870  14.435
15125W        W87440  28.799  35.924  11.849
15126W        W87441  16.069  12.210   0.470
15127W        W87442  28.111   5.831   2.845
15128W        W87443   0.734  12.633   0.865
15129W        W87444  25.054  34.123   2.081
15130W        W87445  21.623   9.264   1.480
15131W        W87446  30.074   2.486  14.272
15132W        W87447  14.211  15.835   0.390
15133W        W87448  34.981  21.188  11.169
15134W        W87449  30.869  38.449  10.701
15135W        W87450  17.055  34.111   4.689
15136W        W87451  33.819  13.628   3.706
15137W        W87452  21.081  11.322   2.765
15138W        W87453   1.539   0.810   5.013
15139W        W87454   9.973  28.621  10.694
15140W        W87455  20.789  37.903   4.060
15141W        W87456  14.881  18.304  11.581
15142W        W87457  36.843  16.868   0.280
15143W        W87458  32.997   2.697  11.378
15144W        W87459   6.878  14.428  12.914
15145W        W87460   8.646   7.039  13.498
15146W        W87461  23.946   3.362  11.288
15147W        W87462  20.366  17.588   3.568
15148W        W87463   4.253   3.915   3.294
15149W        W87464  29.673   6.678  12.504
15150W        W87465  15.103  29.773   3.667
15151W        W87466  32.414  38.012  11.329
15152W        W87467  33.331   0.460   0.758
15153W        W87468  23.365  26.441  12.055
15154W        W87469  34.748   8.307   0.025
15155W        W87470   6.275  19.203  11.668
15156W        W87471  15.832  12.548  14.842
15157W        W87472   1.400   4.866   0.671
15158W        W87473   5.004  16.385  12.437
15159W        W87474   3.795  34.626  11.879
15160W        W87475  30.601  42.795  10.542
15161W        W87476  41.871   1.762   1.763
15162W        W87477  37.959  41.333   2.279
15163W        W87478  12.998  22.064  12.146
15164W        W87479   7.872  26.893   3.191
15165W        W87480   3.802   0.759   1.511
15166W        W87481  25.815   3.933  10.226
15167W        W87482   9.764  29.499   0.769
15168W        W87483  16.825  18.959   0.393
15169W        W87484  38.880  37.558   2.784
15170W        W87485   0.310   0.314  12.358
15171W        W87486  31.677  10.597   2.778
15172W        W87487  21.598  28.211  13.741
15173W        W87488  34.092  31.857   4.659
15174W        W87489  17.150  41.287   0.057
15175W        W87490  16.071  40.306  12.040
15176W        W87491   5.634  41.775  12.127
15177W        W87492  44.786  35.839  14.872
15178W        W87493  27.676  23.015  10.791
15179W        W87494  22.196   7.399  11.220
15180W        W87495  24.181  26.949  10.131
15181W        W87496  15.166  28.439  11.021
15182W        W87497  36.817  41.195  11.948
15183W        W87498   4.828  36.308  12.163
15184W        W87499  35.816  13.632  13.024
15185W        W87500   4.192   9.955  14.556
15186W        W87501  44.990  27.555   3.825
15187W        W87502  32.922  28.507   1.393
15188W        W87503   7.372  38.755   1.787
15189W        W87504   9.588  34.360   1.739
15190W        W87505  31.661  15.054   2.225
15191W        W87506  42.932  20.562   1.896
15192W        W87507  36.991  42.327  10.355
15193W        W87508  17.232  34.071  10.178
15194W        W87509  20.548   6.241  13.283
15195W        W87510   8.420   2.364   1.140
15196W        W87511  36.599  32.590  14.995
15197W        W87512   3.252  37.310  11.466
15198W        W87513  16.627  42.989   3.064
15199W        W87514  19.222  25.581   2.649
15200W        W87515   1.456   7.421   2.859
15201W        W87516  23.211   9.841   3.386
15202W        W87517  39.580  34.035  13.569
15203W        W87518  30.223   1.914  12.766
15204W        W87519   6.877  19.514  13.899
15205W        W87520  29.627  28.404   3.274
15206W        W87521   1.420  36.903   3.381
15207W        W87522   2.737  30.627   2.379
15208W        W87523   4.780  44.370   0.818
15209W        W87524  10.419   0.095   4.210
15210W        W87525   8.181  14.699  12.100
15211W        W87526   6.782  39.300   4.108
15212W        W87527  36.081  39.880   0.873
15213W        W87528   3.702  30.040   1.958
15214W        W87529   0.187  15.764   1.999
15215W        W87530  32.299  11.516   2.299
15216W        W87531  12.188  33.939   0.838
15217W        W87532   8.344  41.597  14.706
15218W        W87533  26.708  17.313  13.264
15219W        W87534  34.819  29.194   2.634
15220W        W87535  21.839  33.077  14.297
15221W        W87536  23.500  35.997  14.472
15222W        W87537  21.349   0.433  13.827
15223W        W87538   0.952  42.395  14.431
15224W        W87539   0.515  12.221   3.724
15225W        W87540  23.570   1.191   1.037
15226W        W87541  40.532  43.950  10.962
15227W        W87542   1.655  19.538  10.744
15228W        W87543  19.350  22.181   4.174
15229W        W87544  18.728  22.152   2.945
15230W        W87545  39.062  21.669   3.186
15231W        W87546   3.779   8.952   0.502
15232W        W87547  32.694  32.132   0.305
15233W        W87548  16.559   0.942  13.943
15234W        W87549  39.913  44.206  12.637
15235W        W87550  14.170  42.003  13.818
15236W        W87551   2.041  13.313   4.753
15237W        W87552  23.521  16.455  10.879
15238W        W87553  23.176  29.339   2.572
15239W        W87554  41.516  35.159   0.510
15240W        W87555  43.799  35.006  13.553
15241W        W87556  11.129  22.562  13.081
15242W        W87557  20.172   4.879   4.988
15243W        W87558   2.341  19.140   1.537
15244W        W87559  30.111  42.344   1.022
15245W        W87560   1.396  38.540  12.450
15246W        W87561  43.513  41.297   3.816
15247W        W87562  13.391  17.598   4.521
15248W        W87563  39.375  16.744   4.147
15249W        W87564  42.085  32.910   1.874
15250W        W87565  14.073  32.456   4.117
15251W        W87566  11.147  25.369   3.405
15252W        W87567  15.112   7.703   1.241
15253W        W87568  30.731  41.545  11.073
15254W        W87569  17.654  28.138   1.066
15255W        W87570  13.844  42.934   1.225
15256W        W87571  34.404   5.581  14.663
15257W        W87572  32.990   9.089  11.589
15258W        W87573  25.051  17.105   0.409
15259W        W87574  32.182   4.859   0.036
15260W        W87575  18.580  38.510  11.896
15261W        W87576  37.457  43.186   0.849
15262W        W87577  44.683  11.381  11.384
15263W        W87578  33.572  27.617  12.317
15264W        W87579  42.305  31.952   3.966
15265W        W87580  15.735  16.717   5.000
15266W        W87581  11.079  37.321   3.339
15267W        W87582  13.249  23.796   3.254
15268W        W87583  15.202  17.146   2.167
15269W        W87584  29.619  11.643  13.431
15270W        W87585  40.884   3.448  13.388
15271W        W87586  38.785  27.311  12.442
15272W        W87587  11.722   4.400   1.498
15273W        W87588  38.947  12.831  13.517
15274W        W87589  10.424  18.982  12.977
15275W        W87590  31.868   8.499   2.248
15276W        W87591  14.848  29.134  14.938
15277W        W87592  25.025  25.439   3.661
15278W        W87593  37.569  17.769   1.234
15279W        W87594  39.486   8.930   0.789
15280W        W87595  15.775   2.917  12.982
15281W        W87596   9.811  16.998   5.245
15282W        W87597  23.618  31.478   2.142
15283W        W87598   9.290  31.862   4.506
15284W        W87599  10.398  36.981   0.777
15285W        W87600  44.435   1.766  11.649
15286W        W87601  26.899  26.433   0.360
15287W        W87602  44.742  22.252  14.190
15288W        W87603  20.162  20.259   0.728
15289W        W87604  11.148  18.075   1.972
15290W        W87605  32.970  10.858  12.054
15291W        W87606   8.416  20.665   4.603
15292W        W87607   6.386  19.479   2.927
15293W        W87608   9.259   3.662  11.997
15294W        W87609  30.487  28.230   4.566
15295W        W87610  26.161  22.979   1.418
15296W        W87611  21.618   6.877  14.090
15297W        W87612  23.580   7.687   0.781
15298W        W87613  36.979   4.185  12.980
15299W        W87614  27.200  30.115   0.031
15300W        W87615  18.943  23.009  12.431
15301W        W87616  34.870  33.638   3.705
15302W        W87617   5.116   0.358   0.909
15303W        W87618  37.132  36.925   3.437
15304W        W87619  38.247  26.870  14.373
15305W        W87620  22.132  41.318  12.935
15306W        W87621  34.422  20.312  14.531
15307W        W87622  14.816  22.077  11.929
15308W        W87623   5.067  40.918   2.311
15309W        W87624  29.948  44.719  12.539
15310W        W87625  40.099  40.593  14.313
15311W        W87626  21.304   6.112  11.531
15312W        W87627  26.970   3.707   4.504
15313W        W87628  40.247  31.726   2.325
15314W        W87629  32.485  35.117   2.280
15315W        W87630  12.214   0.549   3.181
15316W        W87631   0.851  26.431  12.434
15317W        W87632  10.256  14.653   2.667
15318W        W87633  41.611  27.888   1.850
15319W        W87634   8.129  37.339   1.834
15320W        W87635   1.426  14.005  14.452
15321W        W87636  18.032  20.990  14.379
15322W        W87637  31.860  14.665   2.997
15323W        W87638  39.027  10.682   5.107
15324W        W87639   2.265  11.043   1.739
15325W        W87640   4.277   6.195  11.390
15326W        W87641   6.461  29.878   4.650
15327W        W87642   7.882   6.429   2.487
15328W        W87643  11.118  39.313   2.113
15329W        W87644  32.521  20.155  10.802
15330W        W87645  28.891  14.881   1.839
15331W        W87646  35.932  39.812  13.492
15332W        W87647  31.934  39.383  13.334
15333W        W87648   6.705  25.610   4.728
15334W        W87649   1.479  33.211   2.405
15335W        W87650  22.230  36.512  13.619
15336W        W87651  25.994  15.898   0.669
15337W        W87652  22.811   6.484   0.958
15338W        W87653  32.535  19.286  11.398
15339W        W87654   3.023   7.963   3.116
15340W        W87655  30.449  17.087  10.776
15341W        W87656  25.614  17.104  13.439
15342W        W87657  21.622  22.992  14.011
15343W        W87658   4.218  13.343  14.014
15344W        W87659  36.486   6.411   4.286
15345W        W87660  10.240  35.848   3.820
15346W        W87661  38.970  22.228   4.891
15347W        W87662   9.666  15.264  11.464
15348W        W87663  38.558  41.928  14.425
15349W        W87664   1.665  17.183  10.722
15350W        W87665   6.086   6.655   3.391
15351W        W87666   5.717  41.305  13.862
15352W        W87667   5.131  41.058  14.926
15353W        W87668   9.394  37.473   4.361
15354W        W87669   1.988  41.224  13.258
15355W        W87670  27.595   6.617   9.843
15356W        W87671   3.278  32.663  14.872
15357W        W87672  40.936  37.809  10.617
15358W        W87673  18.194   0.483   0.403
15359W        W87674  40.597  37.397   1.667
15360W        W87675  44.334   5.397   4.703
15361W        W87676   8.005  29.490  11.369
15362W        W87677  30.927   5.302   2.150
15363W        W87678  44.878  20.075  14.352
15364W        W87679  12.184  44.597  11.086
15365W        W87680  31.147  21.828  10.416
15366W        W87681  34.636   2.037   2.898
15367W        W87682  40.058  37.391   1.395
15368W        W87683   7.807  31.599   3.297
15369W        W87684  42.959  20.604   2.439
15370W        W87685  19.474  40.165   5.464
15371W        W87686  44.024  31.156  12.082
15372W        W87687  10.605  41.242  10.648
15373W        W87688  33.577  30.238   3.281
15374W        W87689   0.840   7.472   4.930
15375W        W87690  30.967  31.053  13.938
15376W        W87691   1.536  41.613   4.850
15377W        W87692  28.678  41.216  12.680
15378W        W87693   6.301   9.888  10.772
15379W        W87694   2.789  38.897   2.185
15380W        W87695  16.321  42.426  12.448
15381W        W87696  41.036  37.638  14.119
15382W        W87697  42.448  21.988  13.433
15383W        W87698  38.331   3.397   2.647
15384W        W87699  32.929  18.037   4.223
15385W        W87700  11.381  22.563   1.301
15386W        W87701  25.422  43.948  10.439
15387W        W87702   1.485  38.494  14.949
15388W        W87703  17.297  26.173   0.793
15389W        W87704   5.732   1.768  12.801
15390W        W87705   0.233  10.620   3.606
15391W        W87706   5.676  28.084   3.322
15392W        W87707  44.180  26.626  13.958
15393W        W87708  23.733  27.308   3.409
15394W        W87709  43.026  31.380   0.470
15395W        W87710  22.022  25.407   0.684
15396W        W87711  29.529  10.625  13.375
15397W        W87712  12.249   5.967   3.231
15398W        W87713  26.514  41.531  14.511
15399W        W87714  36.064  19.189   2.094
15400W        W87715  43.686  41.847  11.193
15401W        W87716  31.570  16.163  13.342
15402W        W87717  37.886   3.028   1.906
15403W        W87718  34.595  29.428  13.968
15404W        W87719   1.340  32.698   3.332
15405W        W87720  22.805  17.549  14.895
15406W        W87721  30.970  24.659  13.925
15407W        W87722  44.754  12.110  11.034
15408W        W87723  27.454  10.746  14.116
15409W        W87724  26.148  38.858   0.488
15410W        W87725  33.568  10.798  10.534
15411W        W87726  32.564   1.696  10.703
15412W        W87727  14.555  35.366  10.742
15413W        W87728  39.511   1.739  14.391
15414W        W87729  38.428  44.422   3.649
15415W        W87730   9.866   9.689  11.142
15416W        W87731  26.733  38.808  11.637
15417W        W87732   6.490  16.078  13.377
15418W        W87733  32.997   0.519   4.793
15419W        W87734  20.587  16.166   1.359
15420W        W87735  26.570  38.523  13.042
15421W        W87736  26.082  23.783  10.292
15422W        W87737  43.710  23.158  10.598
15423W        W87738  21.979  40.591  12.164
15424W        W87739  15.246  29.083   0.287
15425W        W87740  14.780  13.202   4.876
15426W        W87741  28.022  39.378   0.714
15427W        W87742   7.411  40.148   4.148
15428W        W87743  29.050  24.210   0.258
15429W        W87744  44.125   1.983   1.828
15430W        W87745  44.629   5.821   3.955
15431W        W87746  20.757   1.505  13.424
15432W        W87747  35.280  37.007   2.859
15433W        W87748  27.556   1.253  14.403
15434W        W87749  42.336  35.053   1.209
15435W        W87750  17.780  27.170   4.848
15436W        W87751  44.965   8.332   1.944
15437W        W87752  22.466  44.789  13.807
15438W        W87753  27.032  15.299   0.899
15439W        W87754  42.276  24.157   4.424
15440W        W87755  14.873  15.543  12.164
15441W        W87756  23.274   6.546  10.557
15442W        W87757  23.864  23.609   3.412
15443W        W87758  12.867  28.616  10.512
15444W        W87759  41.295  43.859   3.783
15445W        W87760  25.604  41.000   0.434
15446W        W87761  38.744  13.729   1.346
15447W        W87762  42.805  28.628  13.559
15448W        W87763  16.122   0.397  12.188
15449W        W87764  42.377  20.894  14.535
15450W        W87765  30.576  24.738  12.914
15451W        W87766  22.031   8.468  12.350
15452W        W87767   8.161   3.292   2.329
15453W        W87768  42.903  41.908   1.737
15454W        W87769  35.994   6.384  10.708
15455W        W87770  37.440  41.522  12.677
15456W        W87771   8.914  44.311  13.487
15457W        W87772  44.287   7.884   3.741
15458W        W87773  40.972  29.200   0.233
15459W        W87774  16.769  15.412  11.026
15460W        W87775  38.010   6.453   0.040
15461W        W87776  39.937   7.234  12.536
15462W        W87777  13.968  11.126  14.187
15463W        W87778  23.562   9.626   4.333
15464W        W87779  40.609  34.579  11.667
15465W        W87780  35.520  16.169  11.524
15466W        W87781  41.379  21.147   0.314
15467W        W87782  41.670  22.953   4.600
15468W        W87783  39.912  40.342  10.335
15469W        W87784  23.171  31.250  12.908
15470W        W87785  37.121  23.320  14.905
15471W        W87786  20.517  15.393   3.624
15472W        W87787  34.901  29.061  12.619
15473W        W87788  22.940  11.634  13.922
15474W        W87789  43.146   1.775   3.824
15475W        W87790  40.319  19.768  14.549
15476W        W87791  12.334  24.956  11.942
15477W        W87792  39.344  18.316  12.542
15478W        W87793  16.065   6.676   3.217
15479W        W87794  28.547  35.278   2.255
15480W        W87795  10.337  31.337   3.740
15481W        W87796  10.879  11.660   2.701
15482W        W87797  40.539   8.417  13.530
15483W        W87798  18.683  14.234  11.157
15484W        W87799  10.062   4.266   2.180
15485W        W87800   1.872  33.356   2.062
15486W        W87801   4.181  27.034   3.405
15487W        W87802  36.333  10.201   3.541
15488W        W87803  42.220  17.313  12.462
15489W        W87804  12.813  19.125  14.936
15490W        W87805  31.513   9.900  11.531
15491W        W87806  21.534  10.874  10.649
15492W        W87807  21.469  44.335  14.266
15493W        W87808  34.559   9.725  10.819
15494W        W87809  34.134  37.523   4.033
15495W        W87810  38.846   6.822   2.381
15496W        W87811  23.615  42.933  13.272
15497W        W87812  32.946  42.808   3.132
15498W        W87813  22.584  27.829   2.715
15499W        W87814  28.059   5.684   5.311
15500W        W87815  39.795  31.043   1.406
15501W        W87816  22.755  13.090   4.260
15502W        W87817  18.777  34.667  13.900
15503W        W87818   8.300   7.176  10.569
15504W        W87819  30.916  25.954  11.872
15505W        W87820   0.850   0.183   1.218
15506W        W87821   5.918  30.502  12.224
15507W        W87822  23.646   8.647  11.173
15508W        W87823  42.995  42.953   1.840
15509W        W87824  14.046  38.085   0.298
15510W        W87825  41.774  11.701  10.213
15511W        W87826   9.716   8.690   4.761
15512W        W87827  43.379  36.372   0.248
15513W        W87828  16.168  12.124  14.566
15514W        W87829  17.302  30.930   5.307
15515W        W87830   8.347  42.412  11.561
15516W        W87831  26.762   2.813   0.768
15517W        W87832  10.595   9.157  13.753
15518W        W87833  37.865  34.172   3.732
15519W        W87834   2.267  26.674   0.778
15520W        W87835   1.013  39.850   3.638
15521W        W87836  34.022  41.323   4.070
15522W        W87837  25.492  38.400  12.817
15523W        W87838   3.877   2.383  11.525
15524W        W87839  31.527  28.565  14.768
15525W        W87840  26.402  26.170   3.035
15526W        W87841  28.580  11.712  14.971
15527W        W87842  13.158   0.933  11.949
15528W        W87843  34.553  26.498   3.674
15529W        W87844  37.759  26.503   0.058
15530W        W87845  42.805  14.562   3.652
15531W        W87846  30.333   9.682  10.719
15532W        W87847  23.865  25.632  14.754
15533W        W87848  29.968  14.886  14.720
15534W        W87849  22.555  26.176  11.651
15535W        W87850  22.606  19.135  11.117
15536W        W87851  17.583   6.268   4.024
15537W        W87852   4.662  34.498  12.965
15538W        W87853  40.936  40.746  14.017
15539W        W87854  29.507  15.592  14.696
15540W        W87855  15.709  24.698   1.583
15541W        W87856  26.766  32.194  10.185
15542W        W87857  35.414  19.250  13.047
15543W        W87858  40.904  28.989  14.265
15544W        W87859  44.530   1.457  14.312
15545W        W87860   6.347  35.132  11.536
15546W        W87861  34.661  28.024   3.404
15547W        W87862  11.056   8.745   2.321
15548W        W87863  10.910  25.901  14.048
15549W        W87864  32.024   0.090  14.492
15550W        W87865  43.333  16.318  12.088
15551W        W87866  39.912   3.720   1.480
15552W        W87867  44.671  11.589  10.738
15553W        W87868  31.030  29.278  11.065
15554W        W87869  21.971  43.843  13.555
15555W        W87870  42.568   2.888  12.394
15556W        W87871   9.657  28.893   1.822
15557W        W87872  32.028  14.984  12.099
15558W        W87873  13.820  21.529  12.433
15559W        W87874  41.185  16.038  14.726
15560W        W87875  41.713  18.987   4.431
15561W        W87876  13.762  20.294   1.214
15562W        W87877  28.227  29.129  13.485
15563W        W87878  37.572  41.903  10.868
15564W        W87879  12.174  35.864   0.204
15565W        W87880  33.180  27.506  13.359
15566W        W87881  21.721   4.497   3.354
15567W        W87882  32.934   6.440   0.898
15568W        W87883  26.293  43.767   4.273
15569W        W87884   6.386   0.698  10.286
15570W        W87885  36.351  44.370   0.540
15571W        W87886   3.623  33.916   0.269
15572W        W87887  12.707  21.712  11.892
15573W        W87888   6.850  35.143   3.773
15574W        W87889   4.456   1.464   3.797
15575W        W87890   4.282  40.723   1.865
15576W        W87891  28.720  34.430   2.871
15577W        W87892   3.691  39.940   0.513
15578W        W87893  16.049  39.133   5.481
15579W        W87894  35.315  43.716  14.776
15580W        W87895  24.574  14.789   1.912
15581W        W87896  26.612  41.986  12.668
15582W        W87897   3.637  29.515   0.872
15583W        W87898   7.328  23.109   3.294
15584W        W87899   6.484  37.364  11.215
15585W        W87900  27.166  37.387   2.063
15586W        W87901  41.748  21.563   0.909
15587W        W87902  25.214  27.555   1.610
15588W        W87903  25.087  33.628  11.902
15589W        W87904  26.934  32.153   2.368
15590W        W87905  16.259  35.661   0.950
15591W        W87906  17.735  38.941   2.727
15592W        W87907  41.059   9.183   4.404
15593W        W87908  25.804  41.225  10.352
15594W        W87909  16.573  33.416   3.444
15595W        W87910  20.988   7.160   2.289
15596W        W87911   6.135  29.515  11.917
15597W        W87912  10.710  24.094  13.247
15598W        W87913   1.346  24.090   3.310
15599W        W87914  16.326   4.694  14.030
15600W        W87915  21.347  13.110  11.589
15601W        W87916  31.906  44.079  14.348
15602W        W87917  13.423  14.349  13.353
15603W        W87918  23.200   2.775  14.379
15604W        W87919  38.962   7.272  10.733
15605W        W87920  13.291  13.147   2.707
15606W        W87921  38.262   3.695  12.387
15607W        W87922  32.501  27.547   3.435
15608W        W87923  23.020  33.923  11.115
15609W        W87924   0.065  18.183  11.990
15610W        W87925  33.905  39.414  11.815
15611W        W87926  41.820  21.585  14.440
15612W        W87927  27.940  28.520   0.276
15613W        W87928  20.267   6.172   4.553
15614W        W87929  30.709  32.949  13.910
15615W        W87930   1.251  28.481   4.575
15616W        W87931  15.692  18.902  13.823
15617W        W87932  15.579  25.254  11.126
15618W        W87933  34.917  34.536  14.958
15619W        W87934  19.865  11.118   0.460
15620W        W87935  19.486  27.357   4.185
15621W        W87936  40.864   7.283  12.817
15622W        W87937  30.430  27.393   3.179
15623W        W87938  37.153  36.848   2.432
15624W        W87939  23.600  44.146  11.245
15625W        W87940  37.489  18.743   0.317
15626W        W87941  42.705  43.575   2.881
15627W        W87942  10.297  24.724   1.691
15628W        W87943  33.446  17.275   1.901
15629W        W87944  16.822  30.636   5.229
15630W        W87945  38.870  43.190   0.654
15631W        W87946  41.760   0.385  11.136
15632W        W87947  35.087  28.156  12.862
15633W        W87948  38.998  15.261   0.708
15634W        W87949  23.743  22.499   4.149
15635W        W87950  32.859   4.164  11.344
15636W        W87951  29.989  14.264   0.968
15637W        W87952   6.830  40.575   3.599
15638W        W87953  42.917  11.785  12.488
15639W        W87954  36.641  43.357  11.216
15640W        W87955  41.727  29.855   2.725
15641W        W87956   8.479  33.110   2.317
15642W        W87957  13.693  25.316   3.914
15643W        W87958  25.932   5.308   1.847
15644W        W87959  29.174  33.082  13.960
15645W        W87960  32.429  44.301  12.855
15646W        W87961  38.374  27.170   0.912
15647W        W87962  29.477  28.152   4.087
15648W        W87963  25.456  35.809   2.171
15649W        W87964   0.762  27.675   2.259
15650W        W87965  18.738  22.634   1.215
15651W        W87966  37.360  22.071   2.521
15652W        W87967  32.545  17.322   3.398
15653W        W87968   0.876   9.489   2.137
15654W        W87969  42.858  43.792  11.976
15655W        W87970  35.871  17.886  13.412
15656W        W87971  15.761   5.772   3.409
15657W        W87972  12.256  25.283  12.950
15658W        W87973  39.278  35.860  13.440
15659W        W87974  20.196   2.468  13.115
15660W        W87975  16.004   3.385   0.288
15661W        W87976  43.240  37.846  11.477
15662W        W87977  38.163  25.418  14.446
15663W        W87978  27.401  15.655  12.656
15664W        W87979  41.565   0.725   3.904
15665W        W87980   0.532  25.605   1.123
15666W        W87981  18.563  11.289  10.542
15667W        W87982  11.202  43.688  10.895
15668W        W87983  15.403  26.024   4.698
15669W        W87984  33.130  10.681  12.521
15670W        W87985   8.573  40.396  13.485
15671W        W87986  10.654  16.130  10.615
15672W        W87987  30.101  42.797   2.237
15673W        W87988  12.980  29.857  12.437
15674W        W87989  16.232   5.634   3.275
15675W        W87990  19.608   1.377  14.022
15676W        W87991  16.053  12.381   3.685
15677W        W87992  13.786  11.898   4.666
15678W        W87993  41.791  12.075   3.308
15679W        W87994   4.746  33.701   4.602
15680W        W87995  28.356  18.642   1.299
15681W        W87996  21.144   4.945  14.907
15682W        W87997   6.342  20.244   1.891
15683W        W87998  38.369   3.649  11.023
15684W        W87999  30.896   3.917   3.142
15685W        W88000  38.325  34.987   4.163
15686W        W88001   7.458  13.145   4.891
15687W        W88002  20.738  11.675   3.818
15688W        W88003  11.358  29.987  11.411
15689W        W88004  44.113   5.874   0.288
15690W        W88005  33.881  20.697   1.252
15691W        W88006  34.590   7.876   4.062
15692W        W88007  42.177  25.551  14.202
15693W        W88008   4.336   0.673  12.972
15694W        W88009  38.157  14.354   4.154
15695W        W88010  29.183  35.794  12.570
15696W        W88011  25.662  10.871  13.909
15697W        W88012  15.723  34.347  13.020
15698W        W88013  20.645  13.584   2.044
15699W        W88014  42.667  37.515   4.573
15700W        W88015  32.582  38.772   2.929
15701W        W88016  39.278  27.921   0.890
15702W        W88017  18.870   9.206   4.332
15703W        W88018   3.825  36.948   1.396
15704W        W88019  44.216  14.055  10.661
15705W        W88020  33.424  22.258   3.274
15706W        W88021  39.456  21.998  12.593
15707W        W88022  11.028  21.157   1.316
15708W        W88023  15.842  41.885  14.330
15709W        W88024   4.632  13.387   4.049
15710W        W88025  40.417   5.457   4.269
15711W        W88026  11.337  40.094  13.921
15712W        W88027  16.128  29.939   5.291
15713W        W88028  26.235  32.606   0.770
15714W        W88029   8.822   2.659   3.924
15715W        W88030   3.819   7.493   0.350
15716W        W88031  23.895   9.501  12.869
15717W        W88032  18.154   4.390  12.017
15718W        W88033   9.320  44.741   3.541
15719W        W88034  39.998  36.766   2.630
15720W        W88035   5.131  15.561   1.053
15721W        W88036  36.531  38.994  10.793
15722W        W88037  19.211  10.541  12.525
15723W        W88038  44.764   3.437  12.080
15724W        W88039  12.108   5.592   0.874
15725W        W88040   7.220  25.720  10.791
15726W        W88041  14.782  14.962   3.843
15727W        W88042   4.864   2.477  13.893
15728W        W88043  10.748  40.156  12.988
15729W        W88044   7.323  16.075   1.387
15730W        W88045  25.801  34.333   5.594
15731W        W88046  18.109   7.167  10.273
15732W        W88047  12.914  27.450  13.047
15733W        W88048  27.537  40.048   3.094
15734W        W88049   0.502  12.708  14.471
15735W        W88050  36.181  40.598  13.310
15736W        W88051  39.431   2.823   0.470
15737W        W88052  22.973  11.424  14.843
15738W        W88053  25.445  24.623   2.803
15739W        W88054   5.441  25.627   3.849
15740W        W88055  38.256   5.301  11.628
15741W        W88056   9.860   3.870  14.524
15742W        W88057   7.009  20.892  12.480
15743W        W88058  38.660  22.591  10.944
15744W        W88059  10.083  14.083   0.855
15745W        W88060  44.319   4.307  13.815
15746W        W88061  44.030  41.469   1.272
15747W        W88062  36.356  44.312  13.389
15748W        W88063  25.318  38.957  13.972
15749W        W88064  17.655  18.820  14.806
15750W        W88065   2.173  20.690  14.315
15751W        W88066  38.519  30.552   4.949
15752W        W88067  12.698  42.009   2.709
15753W        W88068   4.873   3.859   2.094
15754W        W88069  30.176  37.461  13.377
15755W        W88070  24.274   4.707  12.867
15756W        W88071   3.244  16.037   4.570
15757W        W88072   8.648  38.462   3.661
15758W        W88073  28.760  34.921  14.374
15759W        W88074  12.069  36.358  10.343
15760W        W88075  18.289   5.312   3.855
15761W        W88076  29.958  26.062   0.651
15762W        W88077  10.487   3.511  10.347
15763W        W88078   7.175   5.920  14.747
15764W        W88079   5.215  20.786  11.044
15765W        W88080  22.168  36.102  14.835
15766W        W88081  16.809  24.586   4.670
15767W        W88082  19.182   7.882   1.171
15768W        W88083  17.200   6.616   4.071
15769W        W88084  31.025  28.243  10.854
15770W        W88085  35.665  25.140  12.408
15771W        W88086  11.272   9.622  13.249
15772W        W88087   6.452  30.515   2.674
15773W        W88088   2.259  40.798  13.075
15774W        W88089  12.188  15.530   4.698
15775W        W88090  37.207  15.212   2.381
15776W        W88091  33.528  43.926   4.437
15777W        W88092   4.348   1.569  11.557
15778W        W88093  36.470  35.933  13.819
15779W        W88094  34.434   0.346   3.342
15780W        W88095  29.946   3.424   1.739
15781W        W88096  10.635  13.719  13.445
15782W        W88097   9.360  42.701  12.377
15783W        W88098  27.331   6.319   5.719
15784W        W88099   2.204  33.328  13.777
15785W        W88100  18.104  37.621   1.488
15786W        W88101  27.939  38.434  13.740
15787W        W88102  11.620  23.953  12.071
15788W        W88103  35.362  10.784  12.934
15789W        W88104  23.141  29.769   1.860
15790W        W88105  10.856  19.308  13.451
15791W        W88106   4.875   6.660   2.763
15792W        W88107  21.178  18.487  12.576
15793W        W88108  29.146  42.258  11.372
15794W        W88109  37.964  13.948   0.088
15795W        W88110  44.307   6.679  12.864
15796W        W88111   6.879  39.331  12.456
15797W        W88112  26.131  43.021  11.530
15798W        W88113  31.187  24.197  12.183
15799W        W88114  39.468   6.007  11.443
15800W        W88115  42.255  15.776  12.440
15801W        W88116  25.743   2.085   0.205
15802W        W88117  29.179  39.070   1.905
15803W        W88118  42.567   8.225  12.387
15804W        W88119  29.604  41.435  10.224
15805W        W88120   0.296  10.458   2.382
15806W        W88121   6.911   8.731  10.620
15807W        W88122  31.060   1.356  11.544
15808W        W88123   8.193  24.646   4.606
15809W        W88124  30.106  21.743   3.660
15810W        W88125  29.080  10.565  13.601
15811W        W88126  34.948   3.333  10.461
15812W        W88127  12.224   2.274   4.754
15813W        W88128  12.114  40.499   3.714
15814W        W88129  43.960  44.291   4.128
15815W        W88130  11.262  10.078  13.021
15816W        W88131  14.801   9.334  10.981
15817W        W88132  17.231  20.278  14.405
15818W        W88133  18.725  43.843   3.312
15819W        W88134  32.058  43.356  11.051
15820W        W88135  17.044  30.423   1.887
15821W        W88136  42.250   6.921  13.714
15822W        W88137   3.380  11.242   4.473
15823W        W88138  31.466  29.479  10.582
15824W        W88139  39.133  21.193  14.445
15825W        W88140  37.583   4.728  13.353
15826W        W88141  30.045  32.687   2.651
15827W        W88142  22.230  16.243  11.803
15828W        W88143   0.964  26.032  10.567
15829W        W88144  40.458  29.464   0.891
15830W        W88145  35.472  42.367  13.065
15831W        W88146  15.723  19.838  10.451
15832W        W88147   0.914  21.502   4.464
15833W        W88148   9.690  36.013   1.209
15834W        W88149  27.630  40.373   4.597
15835W        W88150  21.330   5.442  11.185
15836W        W88151  16.004  44.160  10.274
15837W        W88152  40.747  18.476   4.750
15838W        W88153  23.315  33.116   0.414
15839W        W88154  34.844  13.910  12.936
15840W        W88155  30.951   8.767  14.292
15841W        W88156  28.260   4.422   3.102
15842W        W88157  38.431   0.810  13.952
15843W        W88158  20.313  42.857   3.595
15844W        W88159  34.422  25.400  11.228
15845W        W88160  34.058   1.702  10.622
15846W        W88161   5.422   8.467   1.902
15847W        W88162  11.306  12.385   2.954
15848W        W88163  16.508  32.466  11.061
15849W        W88164  31.184  21.733  14.443
15850W        W88165  21.569  33.480  12.392
15851W        W88166   3.024  25.890  11.907
15852W        W88167  16.282  20.220   3.196
15853W        W88168  25.450  27.756  13.954
15854W        W88169  14.282   0.777   0.349
15855W        W88170  19.539   5.606  11.620
15856W        W88171   2.483  30.728   4.081
15857W        W88172  21.177  11.219  12.653
15858W        W88173  31.332  26.487  13.905
15859W        W88174  16.740  29.601  11.098
15860W        W88175   0.393  42.417   0.739
15861W        W88176  43.476  32.335  13.563
15862W        W88177  37.613  34.576  10.912
15863W        W88178  24.863  16.748   2.236
15864W        W88179  20.211  25.982  14.235
15865W        W88180  38.109  41.333   1.790
15866W        W88181  40.803  10.406  14.487
15867W        W88182  42.069  28.058  12.502
15868W        W88183  30.918   9.130  12.489
15869W        W88184  10.398  27.257   2.073
15870W        W88185   8.373  33.873   1.375
15871W        W88186   7.638  29.042   2.371
15872W        W88187  39.787  34.463   2.729
15873W        W88188  29.125   5.849   2.849
15874W        W88189  15.006   1.786  14.644
15875W        W88190  38.308  16.316  13.849
15876W        W88191  38.311  42.317   1.443
15877W        W88192  33.994  39.641   4.596
15878W        W88193   2.310  27.731   4.125
15879W        W88194  28.468   8.977  12.529
15880W        W88195  35.337  14.195   0.393
15881W        W88196  37.455   2.678   3.118
15882W        W88197  20.788  40.794   4.180
15883W        W88198  37.798  29.153   3.076
15884W        W88199  18.207  14.777   3.404
15885W        W88200   7.766  13.727   1.371
15886W        W88201  30.321   5.534  12.593
15887W        W88202  27.291  33.728  11.914
15888W        W88203  27.110  11.090   1.905
15889W        W88204   6.228  31.617   1.134
15890W        W88205   2.058  10.791   4.205
15891W        W88206  10.627   2.254  13.910
15892W        W88207  13.284  10.422  13.392
15893W        W88208  10.128   0.449   0.526
15894W        W88209  35.544   6.304   0.677
15895W        W88210  19.295  21.118   4.624
15896W        W88211  25.674  41.776   1.786
15897W        W88212  19.631   9.698   1.359
15898W        W88213  21.655   5.878   0.769
15899W        W88214  15.286  23.644   3.491
15900W        W88215  13.721  17.349  13.822
15901W        W88216  13.270  17.343   3.169
15902W        W88217  42.475  28.457   1.713
15903W        W88218  32.576  39.713   2.723
15904W        W88219  15.643  41.406  14.055
15905W        W88220  11.974  14.219  13.477
15906W        W88221  14.738  15.743   0.426
15907W        W88222  30.883  37.716  12.496
15908W        W88223   6.321  41.509   0.895
15909W        W88224  19.722   0.831   0.629
15910W        W88225  37.050   4.503  11.543
15911W        W88226  40.624   3.291   3.943
15912W        W88227  39.791  39.264   4.132
15913W        W88228  32.839  33.861   4.880
15914W        W88229   5.400   6.165   4.586
15915W        W88230   2.723   7.163   1.806
15916W        W88231  30.327  24.474  12.567
15917W        W88232  25.844  28.085  11.577
15918W        W88233  43.454  24.967   4.015
15919W        W88234   9.125   7.207  13.435
15920W        W88235  39.773  29.064  11.923
15921W        W88236  35.970  12.622  11.124
15922W        W88237  18.844   3.462   0.760
15923W        W88238  30.167  25.180  11.999
15924W        W88239  27.571  11.125  11.653
15925W        W88240  17.287  40.119   3.598
15926W        W88241  23.250   7.537  12.981
15927W        W88242  27.241  15.716   1.819
15928W        W88243  20.050  43.957  14.456
15929W        W88244   4.299  11.603  13.087
15930W        W88245  44.480  18.613   4.201
15931W        W88246  29.888   2.996   2.681
15932W        W88247  34.525  33.855  12.613
15933W        W88248   3.753  35.622   1.901
15934W        W88249  25.459  44.496  14.336
15935W        W88250  44.456  12.463  13.069
15936W        W88251  30.084   7.693   0.657
15937W        W88252  44.788  14.760  12.110
15938W        W88253   6.783   5.469  10.755
15939W        W88254  38.602   0.526   1.675
15940W        W88255  37.998  26.960   0.159
15941W        W88256  33.927  39.483   2.337
15942W        W88257  28.177  31.477   4.180
15943W        W88258  13.782  43.304  12.570
15944W        W88259  21.677  17.186   3.188
15945W        W88260  24.434  28.253   2.758
15946W        W88261  31.703  28.671  12.000
15947W        W88262   4.530  43.977   2.689
15948W        W88263  17.762   9.853   3.730
15949W        W88264  16.289  29.830  12.490
15950W        W88265  22.451   2.977  11.991
15951W        W88266  41.037   6.459   2.357
15952W        W88267  37.342  10.978   0.680
15953W        W88268  30.647   3.997  11.130
15954W        W88269  36.400  33.659   0.855
15955W        W88270  10.805  31.122   3.731
15956W        W88271  43.126  18.106  11.889
15957W        W88272  11.203  11.611   3.379
15958W        W88273   9.289  42.508  13.082
15959W        W88274  20.039  20.098   4.881
15960W        W88275  39.632   3.494   3.220
15961W        W88276  44.339   6.427  14.449
15962W        W88277   6.266  21.171   4.146
15963W        W88278   0.364  44.250   1.658
15964W        W88279  16.032  44.491   2.833
15965W        W88280  20.105  29.691   4.554
15966W        W88281  21.534   8.597   2.846
15967W        W88282  40.484  25.991   0.294
15968W        W88283  27.867  16.754   3.139
15969W        W88284  30.431  26.924   4.180
15970W        W88285   0.334  35.597   2.713
15971W        W88286  17.580  13.084   4.105
15972W        W88287   2.784  10.881  12.777
15973W        W88288  41.321  16.253  10.650
15974W        W88289   4.249  24.080  10.647
15975W        W88290   8.378   9.883  13.958
15976W        W88291  10.102  44.806  11.494
15977W        W88292   0.838  16.036   1.897
15978W        W88293  35.939  24.791   0.657
15979W        W88294  43.225   5.673   2.799
15980W        W88295  38.144   5.075  12.519
15981W        W88296  37.395  37.844  10.712
15982W        W88297  15.704  28.011  14.452
15983W        W88298   6.070   1.404   3.149
15984W        W88299   1.382  27.434   1.432
15985W        W88300  10.886   6.295  12.106
15986W        W88301  18.531  36.363  10.946
15987W        W88302  29.733   8.981   3.276
15988W        W88303  27.483   3.859   5.115
15989W        W88304  14.379  39.461  14.450
15990W        W88305   4.228  23.261  13.773
15991W        W88306   1.867   9.490  11.133
15992W        W88307  18.145   2.327  14.376
15993W        W88308  29.349  12.191   4.956
15994W        W88309  28.261  26.631   4.301
15995W        W88310   9.610  32.598   0.787
15996W        W88311  23.949  16.732  13.860
15997W        W88312  43.417  13.893  10.613
15998W        W88313  27.862   1.988  13.969
15999W        W88314  37.447  21.751  11.105
16000W        W88315  38.987   1.389   3.408
16001W        W88316  22.557  20.571  10.867
16002W        W88317  11.678  11.371   2.196
16003W        W88318   1.407  17.629  14.310
16004W        W88319  37.063   6.429   4.545
16005W        W88320  10.699   9.315   3.324
16006W        W88321  38.838   5.954   9.851
16007W        W88322   2.349  42.736   1.254
16008W        W88323  16.215  42.040   1.214
16009W        W88324  12.182   0.935  14.867
16010W        W88325  27.914   2.407  11.098
16011W        W88326   6.791  26.526   1.729
16012W        W88327   5.008  12.732  12.930
16013W        W88328  41.657  12.184  14.306
16014W        W88329  40.830  16.603   1.881
16015W        W88330   2.315   2.434   3.978
16016W        W88331   3.286   7.672   0.315
16017W        W88332   4.483  32.877   1.235
16018W        W88333   5.273  32.133  13.536
16019W        W88334   0.352  37.253  10.767
16020W        W88335  41.734  29.101   0.786
16021W        W88336  31.456  36.153  12.080
16022W        W88337  32.383  22.586   2.888
16023W        W88338   6.342  11.179   0.979
16024W        W88339  36.300  34.333   1.767
16025W        W88340   0.864  37.627   2.928
16026W        W88341  33.141  18.033  13.368
16027W        W88342   5.465  26.639   2.001
16028W        W88343  40.512  29.456  14.951
16029W        W88344  21.367  11.316   4.841
16030W        W88345  38.404  32.514  13.318
16031W        W88346  34.456  24.766  12.053
16032W        W88347  19.232  16.741  14.513
16033W        W88348  33.921  30.065  11.265
16034W        W88349  31.331  39.411  11.650
16035W        W88350   8.175  36.519   4.169
16036W        W88351   4.266  18.919   3.045
16037W        W88352  17.849  13.083   1.506
16038W        W88353  11.135  40.485  13.593
16039W        W88354  33.017  16.869  11.562
16040W        W88355  26.079  23.995  11.558
16041W        W88356  37.571   5.267   2.259
16042W        W88357  35.472  35.031  12.105
16043W        W88358  10.254   3.373  11.853
16044W        W88359  34.175  11.664  14.699
16045W        W88360  23.218  31.657  13.794
16046W        W88361  25.502  34.090   2.884
16047W        W88362  35.059  40.658  14.005
16048W        W88363  31.877  28.027   2.244
16049W        W88364  29.082  22.990  13.966
16050W        W88365  30.075   2.410  13.759
16051W        W88366  25.446   0.109  11.075
16052W        W88367   4.910  16.942  13.342
16053W        W88368  37.812   5.458  13.404
16054W        W88369  17.878   7.784  14.285
16055W        W88370  11.283  17.534  11.631
16056W        W88371   0.816  28.945  10.634
16057W        W88372  40.868   4.428   3.088
16058W        W88373   3.908  19.289  13.986
16059W        W88374  11.631  37.741   1.441
16060W        W88375  27.425   1.238   0.289
16061W        W88376  37.869  19.552  13.496
16062W        W88377   2.041  34.844   3.898
16063W        W88378  22.049  30.595   0.364
16064W        W88379  38.005  26.840  12.751
16065W        W88380  29.380  12.538   4.107
16066W        W88381  23.464  33.588   2.762
16067W        W88382  43.691  30.950   3.789
16068W        W88383  21.779   1.926  14.102
16069W        W88384   9.626  18.759  10.633
16070W        W88385  16.506  22.512  13.936
16071W        W88386   8.827  23.614  11.461
16072W        W88387  33.390  11.692  10.987
16073W        W88388   3.853  16.025  12.087
16074W        W88389  41.637  30.230  14.728
16075W        W88390  43.643   3.978   3.344
16076W        W88391  20.310  33.826  11.274
16077W        W88392   9.319  13.295  14.490
16078W        W88393   7.636  44.367  12.175
16079W        W88394  31.078   7.823   1.155
16080W        W88395  40.306  29.213  14.053
16081W        W88396  41.479   3.873  10.559
16082W        W88397  16.082   7.653  12.558
16083W        W88398   2.780  44.203  13.566
16084W        W88399  16.781  38.900  12.894
16085W        W88400  40.731  22.840   2.768
16086W        W88401  31.326  24.638  12.499
16087W        W88402  38.843  42.364   1.414
16088W        W88403  42.078  35.863  11.722
16089W        W88404   4.020  32.419  12.249
16090W        W88405  10.788  38.838  13.444
16091W        W88406   7.735  20.049   3.482
16092W        W88407  18.813  21.536   3.786
16093W        W88408  26.742   5.300   1.220
16094W        W88409  18.595  17.829   0.759
16095W        W88410  24.018  42.498   1.314
16096W        W88411  44.972   9.772  11.524
16097W        W88412  24.252  19.690  13.443
16098W        W88413   0.977  38.346  11.121
16099W        W88414  29.315   7.242  11.305
16100W        W88415  13.860   3.987   0.892
16101W        W88416  42.533  36.580   3.738
16102W        W88417  43.765  22.237   2.200
16103W        W88418   4.957   4.894   4.569
16104W        W88419   5.546  40.520  11.108
16105W        W88420  10.705  14.006   3.148
16106W        W88421  10.366  32.800  12.994
16107W        W88422  15.537   2.724  11.528
16108W        W88423  25.095   6.351   3.390
16109W        W88424   8.967   5.721   3.862
16110W        W88425  33.527  24.670  10.692
16111W        W88426  17.646   7.161   2.469
16112W        W88427  31.856  15.142  10.473
16113W        W88428  29.225  40.956  13.855
16114W        W88429   9.328   2.925   3.781
16115W        W88430  19.025  34.505   2.314
16116W        W88431  16.702  17.305  10.781
16117W        W88432  11.327  37.333  14.094
16118W        W88433  36.346  25.551   0.934
16119W        W88434  22.804  11.196   3.153
16120W        W88435  17.753  30.585   5.066
16121W        W88436  40.477  30.869  12.992
16122W        W88437  44.846  15.699   9.931
16123W        W88438  31.484  11.151   4.562
16124W        W88439  10.215  12.317  11.136
16125W        W88440  26.007  26.987   4.567
16126W        W88441  13.949   9.070  14.238
16127W        W88442  20.328  37.689   3.342
16128W        W88443  15.253  21.927  13.577
16129W        W88444  22.524  15.872   0.679
16130W        W88445   0.083  44.247   4.738
16131W        W88446  33.942  36.956  13.260
16132W        W88447   6.342  10.014   3.142
16133W        W88448  27.484  26.288  11.099
16134W        W88449  31.122  29.194   2.252
16135W        W88450   7.253  41.837   1.857
16136W        W88451   9.741   1.687  11.415
16137W        W88452   3.353   8.081  14.941
16138W        W88453   0.030  24.060   3.681
16139W        W88454  22.424  27.094   0.596
16140W        W88455  10.833  11.223  14.795
16141W        W88456  18.069  19.206  10.299
16142W        W88457  37.163  25.125  10.576
16143W        W88458   5.444  22.911   1.911
16144W        W88459   9.279  22.161  10.467
16145W        W88460  28.253  37.715  10.737
16146W        W88461  34.155  20.056  14.171
16147W        W88462  10.754  24.142  12.067
16148W        W88463  17.221  21.731  12.560
16149W        W88464  19.198   4.970   3.647
16150W        W88465   4.424  17.080  13.451
16151W        W88466  42.584  28.122  12.493
16152W        W88467   0.668  11.395  10.636
16153W        W88468  17.534  36.635  11.111
16154W        W88469  42.580  15.483   2.250
16155W        W88470   4.703  40.007  11.634
16156W        W88471  40.939  26.496   3.266
16157W        W88472  39.950  20.256   1.155
16158W        W88473  14.943  25.962   0.425
16159W        W88474  15.787  38.465  12.590
16160W        W88475  42.059  40.462   1.374
16161W        W88476   3.247  41.524  14.014
16162W        W88477  25.008  41.223   1.439
16163W        W88478  37.109   2.782  12.431
16164W        W88479  14.128  19.199  12.786
16165W        W88480  35.920  29.295   3.457
16166W        W88481  32.514  16.198   2.351
16167W        W88482   2.848  34.842   2.624
16168W        W88483   6.454  42.028  10.745
16169W        W88484  38.024  43.071  14.135
16170W        W88485  35.536  44.323   2.885
16171W        W88486  32.493  20.677   3.516
16172W        W88487  18.833  27.085   4.594
16173W        W88488   1.691  44.410   0.959
16174W        W88489  32.620  44.830   0.870
16175W        W88490  31.392   0.401   2.018
16176W        W88491  38.594   5.709  14.969
16177W        W88492  21.157  19.093   1.528
16178W        W88493   5.937  18.166  14.111
16179W        W88494   7.562  10.253  14.841
16180W        W88495  13.119  34.449  14.516
16181W        W88496  30.576  31.050   3.890
16182W        W88497   8.865  41.939   4.441
16183W        W88498  21.759  33.296   3.257
16184W        W88499   4.904  28.487   2.065
16185W        W88500  41.730  32.172   2.303
16186W        W88501  31.476   1.254  13.282
16187W        W88502   2.973  25.968   3.775
16188W        W88503  17.591  18.158  11.102
16189W        W88504  21.489   9.721   1.165
16190W        W88505   8.011  43.333   3.816
16191W        W88506  44.764   8.016  11.928
16192W        W88507  37.614  28.494  13.450
16193W        W88508   4.327  14.949   1.828
16194W        W88509  15.087  23.521  11.692
16195W        W88510  25.589  39.457  10.582
16196W        W88511   7.983  41.994  12.512
16197W        W88512  18.331  30.968  13.175
16198W        W88513   8.124  41.515  12.703
16199W        W88514  28.144   7.917  13.364
16200W        W88515   5.381  14.535  12.082
16201W        W88516   2.183  37.730   0.885
16202W        W88517  22.474   3.437   4.542
16203W        W88518  32.037   1.079   5.099
16204W        W88519  33.945  25.194   3.813
16205W        W88520  11.933  37.399   4.231
16206W        W88521  43.935   2.984   1.865
16207W        W88522  24.040  21.757  11.554
16208W        W88523  14.248  19.742   1.877
16209W        W88524  14.318  22.246  10.710
16210W        W88525  24.938   1.896   3.823
16211W        W88526  41.787  25.026   2.309
16212W        W88527  23.293  18.676   4.144
16213W        W88528  28.281   2.181  13.399
16214W        W88529   0.839  33.306   3.306
16215W        W88530  25.652   8.747   2.277
16216W        W88531  34.037  17.794   3.206
16217W        W88532  15.698  22.113  12.852
16218W        W88533   9.229  10.650   0.464
16219W        W88534  39.313  18.020   1.779
16220W        W88535  36.494  41.351   4.569
16221W        W88536  14.069  24.038  11.002
16222W        W88537  16.781  44.522   4.277
16223W        W88538   3.997  28.075  11.526
16224W        W88539  32.500  11.866  13.096
16225W        W88540   0.345   3.057   0.927
16226W        W88541  35.238  40.455  13.029
16227W        W88542   5.210  22.265  14.434
16228W        W88543  44.827   2.403   4.632
16229W        W88544  14.683  25.399   4.883
16230W        W88545  30.942  16.660  13.915
16231W        W88546  37.997  42.564  12.897
16232W        W88547  44.730  36.532  10.761
16233W        W88548  44.459  39.696   0.711
16234W        W88549  36.613  24.088  13.272
16235W        W88550  31.026  25.029  11.695
16236W        W88551   1.441  41.699   3.350
16237W        W88552  27.773  38.822  11.331
16238W        W88553  33.540   3.965  12.771
16239W        W88554   1.392  10.104  12.424
16240W        W88555  40.304  20.340   2.303
16241W        W88556  28.573  42.999   1.343
16242W        W88557  27.103   3.673  13.441
16243W        W88558  37.455   0.336  12.855
16244W        W88559   4.004   8.748   4.148
16245W        W88560   1.939  22.583   3.532
16246W        W88561   2.340  16.128   3.853
16247W        W88562   1.376  31.524  12.012
16248W        W88563   1.321  20.164  11.673
16249W        W88564  10.949  37.092  12.395
16250W        W88565  20.522  42.451   3.153
16251W        W88566   9.213   1.875  14.489
16252W        W88567  18.703  44.503   0.872
16253W        W88568  16.178   2.848  11.074
16254W        W88569  10.287  35.536   3.263
16255W        W88570  34.609   5.605   3.702
16256W        W88571   0.998   7.367  11.809
16257W        W88572  26.483   4.842   2.678
16258W        W88573   2.179  20.577   1.274
16259W        W88574  39.478   1.181   4.365
16260W        W88575  20.485  11.617  11.078
16261W        W88576  34.902   5.450  10.949
16262W        W88577  16.866  19.745   5.008
16263W        W88578  16.115  19.194   3.145
16264W        W88579  11.109  19.678   4.365
16265W        W88580  42.152  16.742   3.774
16266W        W88581  41.370  35.966  13.369
16267W        W88582   9.868  39.983   3.370
16268W        W88583  32.649  29.015  13.922
16269W        W88584  25.891   9.501  12.027
16270W        W88585   3.977   4.433  13.900
16271W        W88586  40.905  24.974  13.497
16272W        W88587  28.777  27.745   0.367
16273W        W88588  24.263  23.202  11.442
16274W        W88589  28.430  18.024   3.377
16275W        W88590  39.236   9.314   0.492
16276W        W88591  16.817  27.871   5.077
16277W        W88592  43.530  21.781  11.527
16278W        W88593   1.232   0.983  13.407
16279W        W88594  30.386  31.763   2.671
16280W        W88595  42.566  22.122  10.756
16281W        W88596  22.081  14.087   2.732
16282W        W88597  38.032  16.756  14.018
16283W        W88598  29.491   3.936  14.439
16284W        W88599  16.730   1.249   3.760
16285W        W88600  24.801   6.537   3.004
16286W        W88601   1.426  34.138  11.187
16287W        W88602   5.397  23.033  10.623
16288W        W88603  36.952  40.822  12.308
16289W        W88604   5.463  35.636  13.835
16290W        W88605  20.279  43.582   0.746
16291W        W88606  27.041  10.259  12.515
16292W        W88607  27.139  32.805  12.970
16293W        W88608  31.029  27.086  13.916
16294W        W88609  17.731  22.577   3.862
16295W        W88610  28.536  34.004   0.269
16296W        W88611  33.839   3.769  14.368
16297W        W88612  14.814   8.260  14.422
16298W        W88613  13.970  28.181  13.648
16299W        W88614  42.822  23.227  14.277
16300W        W88615  25.409  26.483   3.216
16301W        W88616  44.219  23.146   0.318
16302W        W88617  26.929   0.394  13.076
16303W        W88618  34.960   1.182   1.283
16304W        W88619  44.383  18.585  12.601
16305W        W88620   4.727  16.481   3.304
16306W        W88621  15.693   9.298   3.387
16307W        W88622  38.635   7.194   0.133
16308W        W88623  19.806  36.020  11.987
16309W        W88624  42.771  20.593  11.555
16310W        W88625  40.871  10.112  14.921
16311W        W88626  19.209  37.269   0.774
16312W        W88627  21.041  24.654   4.308
16313W        W88628  30.306  19.327  11.123
16314W        W88629  24.779  13.389  11.245
16315W        W88630  27.090  40.845   1.960
16316W        W88631  41.130  39.456  14.476
16317W        W88632  33.864  43.386   1.356
16318W        W88633  40.966  43.336   4.610
16319W        W88634  16.093  35.902   3.708
16320W        W88635   2.389  13.867  14.017
16321W        W88636  21.624  22.009  12.318
16322W        W88637  13.823  29.518  13.488
16323W        W88638  35.188   9.670   2.667
16324W        W88639  22.204  24.897   4.640
16325W        W88640  24.583  18.712   2.229
16326W        W88641   6.742  26.649  13.030
16327W        W88642   4.773  25.764  14.950
16328W        W88643  26.613  18.383  10.771
16329W        W88644  35.213   0.315  11.100
16330W        W88645   9.264   6.634  10.836
16331W        W88646   0.901  31.821  12.032
16332W        W88647  42.538  28.959   1.189
16333W        W88648   2.965  44.099  10.077
16334W        W88649  43.521  35.331  14.311
16335W        W88650  19.638   5.643  12.880
16336W        W88651  34.003  20.543  14.269
16337W        W88652   9.640  34.985   4.444
16338W        W88653  42.267   1.969   3.644
16339W        W88654  28.073   0.775   4.205
16340W        W88655  13.263  20.109   1.452
16341W        W88656  25.682  29.741  11.274
16342W        W88657  21.262   8.905   1.398
16343W        W88658  13.740  40.974   0.751
16344W        W88659  11.833  41.627  13.030
16345W        W88660  16.558  33.649  14.842
16346W        W88661  42.255  16.212   4.311
16347W        W88662  14.861  22.546   2.115
16348W        W88663  25.924   4.808  10.161
16349W        W88664   4.359   1.174  13.097
16350W        W88665  31.427   2.238   0.967
16351W        W88666  42.065  13.133  12.016
16352W        W88667  42.264  37.947   3.905
16353W        W88668   3.094  44.809   1.783
16354W        W88669  22.242  19.151  10.640
16355W        W88670  34.178  28.574   0.238
16356W        W88671  18.014  19.606   3.691
16357W        W88672  43.455  37.054  11.139
16358W        W88673  31.596  36.853   4.932
16359W        W88674  21.493  21.988   1.962
16360W        W88675  26.040  15.688  12.065
16361W        W88676   4.874  21.993   0.313
16362W        W88677  44.216  19.348  10.504
16363W        W88678   5.413  31.081   3.648
16364W        W88679  23.876   2.937  13.404
16365W        W88680  26.733   6.717   0.046
16366W        W88681  29.295  20.129  11.944
16367W        W88682  44.371  40.219   4.094
16368W        W88683  12.728  37.955   3.564
16369W        W88684   2.838  37.371   3.119
16370W        W88685   0.033   8.911  11.934
16371W        W88686  29.172  21.105  12.873
16372W        W88687  27.862  26.959  10.616
16373W        W88688  42.804  40.508   4.708
16374W        W88689   9.701  27.901  11.889
16375W        W88690  23.599  31.136  14.826
16376W        W88691  11.093  30.522   1.532
16377W        W88692  34.447  41.280  11.186
16378W        W88693  33.084  16.777   2.659
16379W        W88694  34.119   0.757   4.194
16380W        W88695  41.277   9.728   3.844
16381W        W88696  39.383   5.450   1.823
16382W        W88697  11.799   8.337   4.822
16383W        W88698   7.737  22.080  12.525
16384W        W88699   7.625  39.495   1.975
16385W        W88700  34.762  17.219  12.095
16386W        W88701  26.929  14.793  13.559
16387W        W88702  21.935  26.069   2.911
16388W        W88703  35.066  17.815   0.369
16389W        W88704  37.999   1.469  14.130
16390W        W88705   4.338  35.389   3.801
16391W        W88706  20.651   5.933  14.051
16392W        W88707  41.885  16.357  13.614
16393W        W88708  41.168  29.961   3.209
16394W        W88709  14.057  13.177   4.119
16395W        W88710  18.801  26.168   1.105
16396W        W88711  29.051  20.144  11.479
16397W        W88712  10.875  44.857  12.892
16398W        W88713  28.603  35.501  12.170
16399W        W88714  19.518  30.181  14.262
16400W        W88715   7.921  15.076  13.519
16401W        W88716  12.176   9.193  14.475
16402W        W88717  22.993  21.402  12.604
16403W        W88718  43.755  18.452   1.194
16404W        W88719   6.584  42.423   4.698
16405W        W88720  15.763  32.351   0.438
16406W        W88721  29.378  18.122  14.985
16407W        W88722  30.446  23.531  14.766
16408W        W88723   5.037  40.958  12.941
16409W        W88724  32.394   8.856   3.581
16410W        W88725  24.186  41.740  13.942
16411W        W88726  30.231  34.131  13.884
16412W        W88727  39.550  17.752   2.171
16413W        W88728  13.499   1.279  14.460
16414W        W88729   9.330  29.755   3.856
16415W        W88730  23.819  26.546   1.167
16416W        W88731  19.590  13.220   1.230
16417W        W88732  36.018  30.606  13.451
16418W        W88733  37.940   0.017   2.311
16419W        W88734   9.598  18.530   0.184
16420W        W88735   6.395   5.277   3.708
16421W        W88736  41.067   9.363   2.644
16422W        W88737  27.613  38.454  12.014
16423W        W88738  18.734   3.786   0.351
16424W        W88739  17.788  41.708   4.358
16425W        W88740  42.058  34.753  13.477
16426W        W88741  19.220  35.991   4.875
16427W        W88742  43.780  11.679   2.795
16428W        W88743   0.132  25.625  14.349
16429W        W88744  17.645  37.133   3.608
16430W        W88745   4.749   7.698  14.053
16431W        W88746  38.599   3.721   2.992
16432W        W88747  40.358  28.389  12.811
16433W        W88748  18.807  10.201   1.324
16434W        W88749  23.765  26.592   1.714
16435W        W88750  28.394   2.249   1.360
16436W        W88751  36.329   7.839  14.276
16437W        W88752   6.310  42.287  14.526
16438W        W88753  28.495  41.257   1.935
16439W        W88754  11.868  39.936  13.422
16440W        W88755  31.589   0.403  12.870
16441W        W88756  38.936  18.066   0.578
16442W        W88757   4.421  19.191  12.800
16443W        W88758  27.889  14.786  12.360
16444W        W88759  33.374  42.632  12.553
16445W        W88760   3.648  14.745  11.693
16446W        W88761  43.271   4.031   0.746
16447W        W88762  37.642  23.499  13.311
16448W        W88763   9.433   4.178  12.947
16449W        W88764  35.927  21.450  11.162
16450W        W88765  41.883  16.758  13.262
16451W        W88766   3.256  44.524   2.413
16452W        W88767  23.401   5.040  12.045
16453W        W88768  39.228  14.869  11.924
16454W        W88769  28.646   5.263  14.359
16455W        W88770  25.518  12.716   0.433
16456W        W88771  23.137   1.351  12.104
16457W        W88772   0.418  20.611   3.015
16458W        W88773  40.915   5.719  11.526
16459W        W88774   4.347  33.404  13.709
16460W        W88775  13.042  42.914   0.060
16461W        W88776  18.212  19.527  11.141
16462W        W88777  28.475  15.540   0.748
16463W        W88778  16.575  11.363  11.599
16464W        W88779  24.297  19.619   0.476
16465W        W88780  32.612  42.409  12.014
16466W        W88781   6.740  34.413   0.462
16467W        W88782  31.561   8.320  12.816
16468W        W88783  21.618  18.580  13.487
16469W        W88784  30.659   5.769  13.613
16470W        W88785  24.248   0.340   3.819
16471W        W88786  32.046   9.355  13.341
16472W        W88787  23.174   6.748   3.257
16473W        W88788  44.387  24.397  10.598
16474W        W88789  30.274  12.959   0.948
16475W        W88790  19.038  19.602   0.361
16476W        W88791  44.928  40.568  12.129
16477W        W88792  26.565  10.757  11.014
16478W        W88793  37.059  32.569   4.062
16479W        W88794  17.088  37.809   2.378
16480W        W88795  43.605   8.647   2.611
16481W        W88796  19.596  20.221   3.166
16482W        W88797   2.439  30.626   3.550
16483W        W88798  23.703  22.060   0.775
16484W        W88799  21.208   0.802   3.704
16485W        W88800  17.812  15.337  11.195
16486W        W88801  41.074  37.590   1.664
16487W        W88802   8.424  37.058   3.746
16488W        W88803  11.741  19.049  12.997
16489W        W88804   8.311  18.245   3.735
16490W        W88805   1.372  15.934  13.295
16491W        W88806  11.324  23.772  13.887
16492W        W88807  16.011  20.167   2.728
16493W        W88808  26.016  39.504  13.779
16494W        W88809  12.720  17.746   0.169
16495W        W88810  21.244   5.291   3.178
16496W        W88811  23.871  29.766  12.909
16497W        W88812  42.315   0.450   4.845
16498W        W88813  29.618   5.239   1.328
16499W        W88814  22.067  43.894   1.935
16500W        W88815  39.443  16.687  14.068
16501W        W88816  32.049   8.065   3.328
16502W        W88817  38.383  10.630   0.299
16503W        W88818  11.923  35.391  11.645
16504W        W88819  17.735  38.580  13.451
16505W        W88820  42.811  40.052  10.692
16506W        W88821  34.590  44.176  11.878
16507W        W88822  28.603  40.540   1.186
16508W        W88823  41.008  34.926  12.040
16509W        W88824   3.767  31.928   0.019
16510W        W88825   0.738  22.612  12.858
16511W        W88826  25.417  29.601   1.290
16512W        W88827  24.259  26.601   1.865
16513W        W88828   6.200  24.655  14.908
16514W        W88829  39.982  14.237   3.789
16515W        W88830  17.076  20.678   2.882
16516W        W88831  16.696   6.507   1.145
16517W        W88832  21.735  37.768   1.456
16518W        W88833  26.459  28.304   4.436
16519W        W88834  24.207   1.865  14.338
16520W        W88835  22.216  24.126   2.318
16521W        W88836  13.760  28.079  12.052
16522W        W88837  29.209  12.260   1.903
16523W        W88838  32.617   9.601  14.436
16524W        W88839  44.885  10.209  11.209
16525W        W88840  41.917  21.481   1.756
16526W        W88841  30.526  33.412   3.759
16527W        W88842  12.617  44.073  11.051
16528W        W88843  36.592  29.672  12.151
16529W        W88844  19.492  29.940   2.244
16530W        W88845  42.248   0.919   1.440
16531W        W88846  25.428  32.080   2.382
16532W        W88847  40.267  24.076   2.834
16533W        W88848  35.893  25.931  11.970
16534W        W88849  29.061   4.208   3.883
16535W        W88850  27.568  30.147   0.385
16536W        W88851  42.697  43.917   0.887
16537W        W88852  24.969  35.332   1.437
16538W        W88853  37.515  23.925   9.812
16539W        W88854  20.850   0.156   4.167
16540W        W88855  42.481  38.352   4.144
16541W        W88856  43.187  12.787  13.974
16542W        W88857  34.018  12.552  13.595
16543W        W88858   5.148  41.081  13.434
16544W        W88859  33.501   5.334  11.607
16545W        W88860  15.957  18.285   0.414
16546W        W88861  43.510  44.010  13.856
16547W        W88862  15.298   0.802  13.483
16548W        W88863  38.632  16.801  13.002
16549W        W88864  23.424  21.440   4.132
16550W        W88865   5.769  38.240  12.957
16551W        W88866  28.831  17.382  11.166
16552W        W88867  32.597  14.296   2.948
16553W        W88868  42.795  36.421   0.986
16554W        W88869  42.721  30.982  12.838
16555W        W88870  12.106  12.236   4.153
16556W        W88871  29.300  20.567  12.250
16557W        W88872   1.234  28.223  14.990
16558W        W88873  10.271  22.282  13.984
16559W        W88874  43.179   1.862   0.735
16560W        W88875  44.396  44.798  12.395
16561W        W88876  33.704  37.485  11.209
16562W        W88877  16.188   4.881  10.725
16563W        W88878  27.448   8.650  14.423
16564W        W88879  13.660  19.496   3.718
16565W        W88880   2.759  32.851   0.611
16566W        W88881   7.846  25.094   4.648
16567W        W88882   6.905  40.497   1.841
16568W        W88883   3.185   8.163   0.459
16569W        W88884   1.280  43.498   1.795
16570W        W88885  13.817  14.631   2.942
16571W        W88886   0.994  19.148  10.684
16572W        W88887  22.668  31.947   3.024
16573W        W88888   5.678  24.475   1.688
16574W        W88889  14.363  44.891  13.804
16575W        W88890  18.202   7.687  10.246
16576W        W88891   6.239  40.811  11.941
16577W        W88892   3.741  23.231  11.984
16578W        W88893  25.582   7.078  10.999
16579W        W88894  27.103  21.046  11.753
16580W        W88895  16.317   3.376   4.125
16581W        W88896  21.530   6.629  11.496
16582W        W88897  12.087  34.834  11.000
16583W        W88898  33.601  17.100  14.365
16584W        W88899  13.661  30.037  13.514
16585W        W88900   8.851  35.994   3.203
16586W        W88901   0.018   3.912  12.899
16587W        W88902  23.162  38.804   0.341
16588W        W88903  44.005  34.481   0.262
16589W        W88904   0.227  44.841  12.107
16590W        W88905  36.636   1.983   1.221
16591W        W88906  28.550  36.008  10.647
16592W        W88907  32.708  18.166  13.994
16593W        W88908  39.481  28.755  10.567
16594W        W88909  42.119  36.271   3.800
16595W        W88910   9.300  14.009  13.815
16596W        W88911  28.560  40.983   1.468
16597W        W88912  13.827  37.402   5.091
16598W        W88913   2.787  13.314   1.178
16599W        W88914  35.152  14.258  14.436
16600W        W88915  10.256  31.470  11.978
16601W        W88916  37.800  43.359   3.238
16602W        W88917  13.779  23.523  12.945
16603W        W88918  44.939  18.735  13.345
16604W        W88919  32.516   8.925   0.062
16605W        W88920  17.246  20.753   3.828
16606W        W88921  15.267  11.169   0.545
16607W        W88922  17.690  21.469  11.494
16608W        W88923  44.566  35.107   0.308
16609W        W88924  12.744  23.589   4.667
16610W        W88925   2.812   5.150   2.729
16611W        W88926  26.245  27.528  12.070
16612W        W88927  28.960  29.410  11.400
16613W        W88928   4.997  16.097   3.533
16614W        W88929   8.710  31.663   2.571
16615W        W88930  30.168  38.825   1.397
16616W        W88931   2.867  14.709  12.441
16617W        W88932  22.461  44.409  12.525
16618W        W88933   0.948  35.874  12.425
16619W        W88934  16.699  19.217  11.473
16620W        W88935  20.439  33.007   2.652
16621W        W88936   7.452   1.451   4.625
16622W        W88937  20.937  35.921   0.423
16623W        W88938  38.864  14.411   5.075
16624W        W88939  33.924   3.761  13.831
16625W        W88940   5.734   8.174   3.305
16626W        W88941   9.654  39.304   1.860
16627W        W88942  41.401  15.252   2.392
16628W        W88943  32.096  14.805  11.590
16629W        W88944   0.772  35.520  12.912
16630W        W88945   5.818  22.681   1.248
16631W        W88946   5.267  24.909  10.589
16632W        W88947  34.472  33.475   3.398
16633W        W88948  40.926  22.280   0.198
16634W        W88949   2.953  19.092  10.715
16635W        W88950  39.448  44.290   4.416
16636W        W88951  34.452  27.589  12.555
16637W        W88952  16.200  39.320   3.066
16638W        W88953  14.251  20.624  13.000
16639W        W88954  12.746   1.229  11.372
16640W        W88955  20.414  41.425  14.396
16641W        W88956  32.364  14.569  12.018
16642W        W88957  22.828  21.028  12.004
16643W        W88958   3.318  24.397  12.923
16644W        W88959  14.868  21.793   0.544
16645W        W88960  43.229   1.947  12.945
16646W        W88961  18.250  30.567   3.338
16647W        W88962  43.291  10.522   0.255
16648W        W88963  37.965  33.051   4.116
16649W        W88964   0.338  39.549   1.770
16650W        W88965  22.117   6.290  13.842
16651W        W88966  14.385   9.122   4.634
16652W        W88967  41.847  43.103   4.148
16653W        W88968  40.603  22.666   1.489
16654W        W88969  17.199  11.712  10.656
16655W        W88970  34.362  37.480  11.467
16656W        W88971  30.454  20.811   1.738
16657W        W88972   2.291   2.917  13.099
16658W        W88973  36.993   3.157   0.994
16659W        W88974  22.031  38.462   3.518
16660W        W88975  39.444  23.539  13.467
16661W        W88976  38.199   3.444  13.382
16662W        W88977  27.176   5.683   3.678
16663W        W88978  17.288  39.527   3.646
16664W        W88979  34.035   8.953  12.941
16665W        W88980  13.636  20.093  14.736
16666W        W88981  41.353  20.834  12.620
16667W        W88982   2.931  27.289   3.345
16668W        W88983  23.324  29.454  14.380
16669W        W88984   8.122  25.551   4.689
16670W        W88985  44.015  40.598   2.752
16671W        W88986   0.815  40.826   0.890
16672W        W88987   0.327  19.177   0.900
16673W        W88988  31.097  36.002   1.071
16674W        W88989  25.025  28.916   3.272
16675W        W88990   3.835  38.320   1.511
16676W        W88991  31.981  33.208   0.771
16677W        W88992  37.331  18.422   3.194
16678W        W88993  27.807   1.946   2.712
16679W        W88994   9.780  15.226  13.848
16680W        W88995   9.452  41.789   1.725
16681W        W88996  18.104  43.031   4.103
16682W        W88997  30.218  28.951   1.770
16683W        W88998  39.842  35.877   3.142
16684W        W88999   2.202  22.597   1.856
16685W        W89000  37.439  31.716   3.175
16686W        W89001  29.863  13.679   3.937
16687W        W89002  40.025   7.692  14.728
16688W        W89003  17.360   6.746   1.873
16689W        W89004  11.934  41.732   0.235
16690W        W89005  18.314  25.165  10.973
16691W        W89006  29.227  11.589  13.950
16692W        W89007  44.716   6.391  14.973
16693W        W89008  15.729  20.009  14.891
16694W        W89009  38.367  11.865   4.575
16695W        W89010  37.511  18.330  14.367
16696W        W89011   0.097  17.074   1.481
16697W        W89012  43.579  42.636  10.196
16698W        W89013  30.709  38.277   2.889
16699W        W89014  25.727  19.061  11.204
16700W        W89015  34.668  26.685  12.982
16701W        W89016  18.337  27.607  11.068
16702W        W89017  38.562  38.977   2.134
16703W        W89018  31.823  20.514   0.761
16704W        W89019   6.610  39.223  14.521
16705W        W89020  28.132   6.433  12.507
16706W        W89021  40.754  22.692  11.555
16707W        W89022   6.933  38.025  10.687
16708W        W89023  12.990  26.188   4.098
16709W        W89024  19.224  29.868   0.966
16710W        W89025  40.818  43.610  11.628
16711W        W89026  14.269   6.150   2.267
16712W        W89027  37.969  39.111  12.877
16713W        W89028   4.759  27.641  10.058
16714W        W89029  37.032  42.811   1.317
16715W        W89030  12.263  21.431  11.094
16716W        W89031   1.417  19.962  14.422
16717W        W89032  27.100  30.034  13.596
16718W        W89033  32.414  35.530   0.982
16719W        W89034   1.934   5.783   4.034
16720W        W89035  22.580  14.684  11.561
16721W        W89036  35.298  35.215  13.463
16722W        W89037  27.269  28.617   4.389
16723W        W89038  17.257   0.987  11.650
16724W        W89039  36.858  31.232   1.884
16725W        W89040  42.504  14.072  13.866
16726W        W89041  33.072  12.267  13.333
16727W        W89042  35.412   8.190   4.528
16728W        W89043   3.914   8.510   9.929
16729W        W89044   8.823   9.889   1.266
16730W        W89045   2.907  23.231   2.387
16731W        W89046  22.076   9.246   3.645
16732W        W89047  25.626  28.254  12.994
16733W        W89048  23.065   4.191   0.454
16734W        W89049   9.825   4.112   4.102
16735W        W89050  42.949  25.319   5.029
16736W        W89051   0.835  13.344   2.333
16737W        W89052  41.187   5.246   0.808
16738W        W89053  11.260  43.800   1.973
16739W        W89054  24.947  12.683  12.004
16740W        W89055  42.685   4.027   3.401
16741W        W89056  14.307  31.136   1.680
16742W        W89057  26.225   0.853  11.597
16743W        W89058  18.546  11.118  11.440
16744W        W89059  29.025  26.854  14.444
16745W        W89060  43.384  10.365  12.117
16746W        W89061  36.834  40.395   2.096
16747W        W89062   2.975  30.268   2.749
16748W        W89063  41.950   8.585  13.262
16749W        W89064  25.226  28.657   2.814
16750W        W89065  22.514   0.965  12.635
16751W        W89066  34.326   0.479  11.545
16752W        W89067  12.541  41.884   1.075
16753W        W89068  22.195  36.830   2.233
16754W        W89069  29.523   9.923   4.305
16755W        W89070   2.741  14.188  14.899
16756W        W89071  18.818  11.337   5.512
16757W        W89072  43.882   1.876   2.287
16758W        W89073  39.595  32.056   0.672
16759W        W89074  44.445  20.313  10.752
16760W        W89075  40.055  18.777   1.339
16761W        W89076  19.496   5.685  10.796
16762W        W89077  23.116  13.872   3.329
16763W        W89078  38.119   0.760  12.599
16764W        W89079  31.053   6.180  10.478
16765W        W89080  16.299   1.248   3.072
16766W        W89081  21.551   5.496  12.005
16767W        W89082  44.167   5.514   0.642
16768W        W89083  40.620  21.101  14.704
16769W        W89084  41.305  10.263   1.853
16770W        W89085  34.798  25.528   2.850
16771W        W89086  40.847  10.707   1.906
16772W        W89087  42.995  44.718   5.255
16773W        W89088   3.764  11.650  12.912
16774W        W89089   5.241  17.407   3.232
16775W        W89090  41.122   6.719   3.195
16776W        W89091  35.822  27.520   0.234
16777W        W89092  37.128  18.675  11.834
16778W        W89093  21.473  17.576   0.377
16779W        W89094   4.237  40.762   2.420
16780W        W89095  23.484  43.574  11.393
16781W        W89096  23.006  13.901  13.559
16782W        W89097  30.653  40.525  11.128
16783W        W89098  17.973  40.426   3.983
16784W        W89099  38.957  23.487   3.818
16785W        W89100   1.790  10.700  14.379
16786W        W89101  42.886  18.826   4.695
16787W        W89102  23.170  18.128   4.586
16788W        W89103  29.548  13.593  10.381
16789W        W89104  14.785  36.490   1.795
16790W        W89105  42.589  42.306  11.625
16791W        W89106  30.616  24.985   2.303
16792W        W89107  34.402  39.883   2.888
16793W        W89108   1.057  12.314   3.638
16794W        W89109  12.401  43.516  13.790
16795W        W89110  33.327   9.896  12.705
16796W        W89111   2.215  18.193  10.642
16797W        W89112  33.566  33.897   0.472
16798W        W89113  11.309   4.871  13.500
16799W        W89114  42.534  34.774   2.642
16800W        W89115  36.870  20.523  11.853
16801W        W89116  34.104  16.561  14.436
16802W        W89117  23.881  24.063  13.787
16803W        W89118  32.322  17.336  14.168
16804W        W89119  10.190  40.616   0.476
16805W        W89120  24.644  27.940  12.533
16806W        W89121  17.813  28.636  11.056
16807W        W89122  44.891   7.219   2.976
16808W        W89123  38.450  23.193   0.469
16809W        W89124  16.357  18.924   4.190
16810W        W89125  11.827  30.442   4.858
16811W        W89126   2.319   4.809   4.284
16812W        W89127   2.358  25.834  12.047
16813W        W89128  37.491  17.029  11.635
16814W        W89129   0.723  22.630  14.312
16815W        W89130   0.941  13.732   3.700
16816W        W89131  21.122  18.492   4.563
16817W        W89132  12.228   2.774  12.450
16818W        W89133  35.667  35.173  13.047
16819W        W89134   2.969  30.447  10.867
16820W        W89135  19.285   4.361   2.825
16821W        W89136  24.711  44.899   1.745
16822W        W89137   3.529  43.914   0.233
16823W        W89138  42.948  19.668  11.893
16824W        W89139  42.048  20.469  11.055
16825W        W89140  10.238  23.590  10.607
16826W        W89141  24.785   4.967   3.299
16827W        W89142  38.562  15.641   3.381
16828W        W89143  42.672  17.960  11.124
16829W        W89144  36.146  19.420   3.893
16830W        W89145  22.013  27.343  10.721
16831W        W89146  35.081   3.635   4.088
16832W        W89147  32.565  30.389   1.776
16833W        W89148  40.870  20.672  12.539
16834W        W89149  32.375   4.758  12.591
16835W        W89150  17.044   2.845   0.628
16836W        W89151  33.350  35.697   4.250
16837W        W89152  40.573   9.221  10.493
16838W        W89153  43.487  11.676   3.228
16839W        W89154  44.752  37.013  12.408
16840W        W89155  26.206  18.606   3.391
16841W        W89156  27.892  22.232   4.603
16842W        W89157  27.341  14.774  12.899
16843W        W89158  40.739  21.191   3.448
16844W        W89159  19.217  22.060  14.989
16845W        W89160  41.010  23.699  11.594
16846W        W89161  34.283  20.224   2.369
16847W        W89162  14.193  36.481   1.352
16848W        W89163  35.645  28.196   1.443
16849W        W89164  12.345  40.058  14.494
16850W        W89165   1.763  15.785  14.037
16851W        W89166   0.262  34.819  13.467
16852W        W89167  30.395  15.377   4.580
16853W        W89168  15.338  20.479  12.327
16854W        W89169  23.074  18.679   1.697
16855W        W89170  12.130  14.110   1.698
16856W        W89171   9.361  24.521   0.293
16857W        W89172  11.664  16.760  10.101
16858W        W89173  29.735   9.507  13.838
16859W        W89174  39.359  21.313  13.637
16860W        W89175  44.156  24.029   0.312
16861W        W89176  33.671  28.456   1.453
16862W        W89177  44.032  28.442  14.969
16863W        W89178   2.953  18.057  14.920
16864W        W89179   5.174  23.095   0.044
16865W        W89180  31.150  31.828  11.884
16866W        W89181  41.027  21.280  14.973
16867W        W89182  36.801   6.135   1.949
16868W        W89183  17.051   6.289  11.979
16869W        W89184   7.191  12.661  13.160
16870W        W89185  31.926  15.162  13.118
16871W        W89186  28.040  34.546   1.290
16872W        W89187  28.055  34.041   1.378
16873W        W89188  23.042  40.735   3.795
16874W        W89189  26.332  12.631  12.029
16875W        W89190  39.750  41.377   1.618
16876W        W89191   0.261  17.364   1.901
16877W        W89192  30.124  39.655  12.863
16878W        W89193   6.388   5.411  14.007
16879W        W89194   9.734  19.951   0.239
16880W        W89195  17.488  43.018   2.911
16881W        W89196   6.886  39.230  11.706
16882W        W89197  19.024  40.281   2.736
16883W        W89198  19.389  42.460  10.768
16884W        W89199  19.631  34.666   1.831
16885W        W89200  41.084  38.452  11.165
16886W        W89201  28.427   6.468   4.987
16887W        W89202  33.909   7.399  11.976
16888W        W89203  41.767  22.073   0.826
16889W        W89204  43.491  40.982   4.278
16890W        W89205  41.774   6.247   4.741
16891W        W89206  23.614  36.393  13.360
16892W        W89207  15.294   8.384   3.041
16893W        W89208  15.389   7.839   2.618
16894W        W89209   2.791  31.835  14.891
16895W        W89210   9.388  16.315   3.940
16896W        W89211  19.984  33.200   1.741
16897W        W89212   7.746  12.347   0.261
16898W        W89213  31.435  43.487   1.650
16899W        W89214  33.112  28.102  13.749
16900W        W89215   0.262  26.969  11.985
16901W        W89216  31.551   9.681  13.968
16902W        W89217  22.248  10.197   1.147
16903W        W89218   7.724  24.248  12.495
16904W        W89219   9.932  38.530   2.263
16905W        W89220  29.941  20.980   4.215
16906W        W89221  39.476  34.667   3.401
16907W        W89222   7.463  30.614  11.595
16908W        W89223  27.968  38.926   2.323
16909W        W89224  36.589  27.902  12.318
16910W        W89225  43.411  39.867  14.213
16911W        W89226  27.284  30.119   3.081
16912W        W89227  16.113  20.840  11.487
16913W        W89228   1.562  15.555  14.449
16914W        W89229  32.059   4.898  10.334
16915W        W89230  29.492  29.623   1.766
16916W        W89231  22.288  35.023   3.183
16917W        W89232  34.050  22.299   4.717
16918W        W89233   6.269  36.070   1.216
16919W        W89234  26.171  28.846  11.246
16920W        W89235   1.298  31.960  11.706
16921W        W89236  38.284  20.346  12.074
16922W        W89237  10.887  41.471   3.664
16923W        W89238  27.595  25.901   2.229
16924W        W89239   6.951  16.540  14.939
16925W        W89240   1.896  25.737  14.782
16926W        W89241  27.080  18.074   4.454
16927W        W89242  10.587   0.425  13.589
16928W        W89243  37.137  33.618   4.074
16929W        W89244  43.437  43.026   1.521
16930W        W89245  13.069  22.030  13.824
16931W        W89246  34.959  29.620   0.327
16932W        W89247  19.716  17.679  13.505
16933W        W89248   2.489   1.557   1.852
16934W        W89249  31.448  42.223   4.366
16935W        W89250  32.896   5.289  11.055
16936W        W89251  12.406  31.068   1.920
16937W        W89252  38.359  44.374  11.967
16938W        W89253  36.133  32.953  13.870
16939W        W89254  27.901  12.319  13.354
16940W        W89255  29.121  19.238   0.914
16941W        W89256  28.461  31.178  10.756
16942W        W89257  21.622  30.144  13.366
16943W        W89258  15.812  14.158  13.428
16944W        W89259  12.124  27.018  12.542
16945W        W89260  42.380  12.811  14.389
16946W        W89261  19.142  42.767  12.551
16947W        W89262  43.900  39.848   0.989
16948W        W89263  44.472  35.043   4.567
16949W        W89264  44.274  44.517   2.672
16950W        W89265  36.527  29.672   1.924
16951W        W89266  27.585  40.078  12.985
16952W        W89267  14.729  36.952  12.528
16953W        W89268  40.091  24.023   1.305
16954W        W89269  40.492  29.389   3.393
16955W        W89270   9.422   4.825   2.414
16956W        W89271  11.441  31.479   2.007
16957W        W89272  22.029  13.805   4.081
16958W        W89273  30.851  29.991  11.490
16959W        W89274  23.982  23.933   3.802
16960W        W89275  18.116   0.889   3.191
16961W        W89276  19.069   6.551   1.212
16962W        W89277  42.274  18.723  10.731
16963W        W89278   0.740  26.844  12.140
16964W        W89279  18.616  30.716  13.884
16965W        W89280  26.486  40.499  12.345
16966W        W89281  22.331  36.819   2.735
16967W        W89282  11.176  22.241   3.782
16968W        W89283  36.901  40.004  12.868
16969W        W89284  26.748   7.221  11.846
16970W        W89285  14.374  36.365  14.835
16971W        W89286  42.727   1.438  12.351
16972W        W89287  31.672  19.670   3.659
16973W        W89288  23.307  41.614   1.799
16974W        W89289  35.402  40.926   0.100
16975W        W89290  38.483  36.013   2.653
16976W        W89291  18.277  41.569   3.193
16977W        W89292   3.348   9.412  14.473
16978W        W89293   0.056   7.833  14.770
16979W        W89294  43.704   7.306   2.945
16980W        W89295  23.028  20.650   2.731
16981W        W89296  10.405  41.669   3.827
16982W        W89297  29.578  15.610   0.259
16983W        W89298  36.815  15.682   4.090
16984W        W89299  42.929   5.687  14.301
16985W        W89300  32.490  44.080  11.101
16986W        W89301   0.641  21.160  13.322
16987W        W89302  12.369  34.857   0.343
16988W        W89303   7.859   1.460   3.746
16989W        W89304  17.833  44.000  12.145
16990W        W89305   4.303   5.331  11.531
16991W        W89306  23.996  31.035   2.899
16992W        W89307  23.052  20.936   2.271
16993W        W89308   5.302  12.206  12.723
16994W        W89309  24.137  23.651   1.262
16995W        W89310  32.680  38.766  10.789
16996W        W89311  26.085   0.235   4.465
16997W        W89312  33.906  29.949  10.237
16998W        W89313  19.111  39.613   3.255
16999W        W89314  39.563  35.859  11.944
17000W        W89315  38.456  42.336  14.106
17001W        W89316  33.685  38.034  11.465
17002W        W89317  16.375  40.296   3.224
17003W        W89318  36.616  21.217   0.109
17004W        W89319  12.856  29.621  14.853
17005W        W89320  27.436  22.780   3.837
17006W        W89321   3.505  44.884   2.740
17007W        W89322  37.559  23.577  10.646
17008W        W89323  42.953  21.157  11.956
17009W        W89324  21.187  18.107  11.627
17010W        W89325  19.240  37.300   2.260
17011W        W89326   4.924  35.956  13.548
17012W        W89327  18.353  18.951  14.401
17013W        W89328  17.596  32.035  14.581
17014W        W89329  18.081  20.771   2.606
17015W        W89330   0.510   5.286  14.967
17016W        W89331   2.787  18.635   4.213
17017W        W89332  17.252   7.804  10.264
17018W        W89333  24.862  13.862   3.763
17019W        W89334  28.201  35.455  13.316
17020W        W89335  33.598  32.069   3.400
17021W        W89336  11.659   0.366   4.737
17022W        W89337  10.622  41.390  14.249
17023W        W89338  15.040  22.052   1.922
17024W        W89339  13.019  10.161  12.039
17025W        W89340  36.972  13.788  12.300
17026W        W89341   8.580   4.119   1.897
17027W        W89342  10.387  34.607   0.012
17028W        W89343  18.674   0.896   3.392
17029W        W89344   0.578  19.200   1.927
17030W        W89345  13.105   2.104  14.918
17031W        W89346  31.497  36.506  13.525
17032W        W89347  26.191  32.228  11.970
17033W        W89348  13.365  42.088  13.398
17034W        W89349  18.026   5.306  11.063
17035W        W89350  27.184  25.776   1.146
17036W        W89351  21.709  29.597  12.476
17037W        W89352  38.309   1.895   2.368
17038W        W89353  17.566  30.028  14.826
17039W        W89354  42.883  10.346  12.870
17040W        W89355  40.312  34.119   2.353
17041W        W89356  23.560  22.104   9.825
17042W        W89357  40.195  19.809   4.666
17043W        W89358  44.391   5.469   1.119
17044W        W89359  33.294  37.460  14.647
17045W        W89360  43.535  10.308  14.243
17046W        W89361  13.284  27.072   1.153
17047W        W89362   7.817  37.685  11.075
17048W        W89363  29.343  44.177  14.956
17049W        W89364  41.413  25.040   4.200
17050W        W89365  27.951  30.881  14.053
17051W        W89366  17.788   4.454  10.656
17052W        W89367  14.489  19.672   3.981
17053W        W89368   0.082  36.622  13.890
17054W        W89369  26.496  32.008   3.574
17055W        W89370  22.213  13.779   4.571
17056W        W89371   2.408  37.494   4.153
17057W        W89372  27.786  41.783  10.757
17058W        W89373  40.559  21.626  12.082
17059W        W89374  18.609  32.342  12.630
17060W        W89375  26.549  10.591   2.608
17061W        W89376  13.810   4.851  10.635
17062W        W89377  33.825  30.627   1.288
17063W        W89378  35.852  24.570   1.110
17064W        W89379   0.053  28.557  14.342
17065W        W89380  16.836  20.746   2.075
17066W        W89381  36.964  40.313  14.533
17067W        W89382   0.889   4.239  14.072
17068W        W89383   8.642   3.318   2.748
17069W        W89384  10.861  20.023   5.091
17070W        W89385   5.895  11.796  12.923
17071W        W89386  35.965  34.068  11.875
17072W        W89387  31.136  18.097   4.155
17073W        W89388  23.683  29.614   0.431
17074W        W89389  23.762  10.768   2.304
17075W        W89390  44.841  24.191  10.728
17076W        W89391  35.915  22.515   3.610
17077W        W89392  43.054  28.806   3.388
17078W        W89393  23.305  44.869  14.873
17079W        W89394  19.010   1.530  14.757
17080W        W89395   0.822  42.392  14.962
17081W        W89396  18.684  42.009  12.569
17082W        W89397  13.744  26.943  14.925
17083W        W89398  17.205  38.447   5.127
17084W        W89399   2.416  34.910  11.476
17085W        W89400  13.841  26.974   3.333
17086W        W89401  10.284  37.837  10.738
17087W        W89402  14.345   8.658  10.547
17088W        W89403  13.679  42.616  13.871
17089W        W89404   4.859  10.355   4.211
17090W        W89405  44.850  31.687   3.252
17091W        W89406   9.192  31.368  12.115
17092W        W89407  28.522  24.558   3.871
17093W        W89408   3.464  18.355  11.888
17094W        W89409  30.068   0.582   2.784
17095W        W89410  27.455  11.642  14.398
17096W        W89411   3.614  12.482  10.045
17097W        W89412  13.199  36.767  11.026
17098W        W89413  20.251  28.167   0.268
17099W        W89414  43.765  11.596   4.575
17100W        W89415  43.493  32.247  12.465
17101W        W89416   7.304  14.275  11.128
17102W        W89417   2.289  34.564   4.678
17103W        W89418   6.452  10.868   2.747
17104W        W89419   0.771  22.166   0.318
17105W        W89420  29.163  14.152   3.079
17106W        W89421  32.311   7.708  14.739
17107W        W89422  35.390  16.134   4.331
17108W        W89423  38.927  35.343  10.935
17109W        W89424  11.420  35.116   4.459
17110W        W89425  18.503  37.563  11.081
17111W        W89426  34.615  27.882  12.975
17112W        W89427   5.300   2.359   1.268
17113W        W89428  38.274  22.253   2.806
17114W        W89429  26.450  32.112   0.870
17115W        W89430   5.703  21.862  14.897
17116W        W89431  21.211  21.355  10.234
17117W        W89432   2.426  15.212   2.076
17118W        W89433   3.699   8.756  11.041
17119W        W89434  27.213  41.116  13.089
17120W        W89435   9.371   5.322   2.289
17121W        W89436  11.714  44.903  11.141
17122W        W89437  31.943  20.041  12.414
17123W        W89438  11.940  37.988   2.837
17124W        W89439  32.692  38.560  11.997
17125W        W89440   9.712  35.852   3.738
17126W        W89441   4.739  41.984   2.018
17127W        W89442   9.215   9.663   4.047
17128W        W89443  40.888   9.595   4.173
17129W        W89444  11.069   4.405   0.863
17130W        W89445  13.218  32.067   4.574
17131W        W89446   2.910  21.776   0.004
17132W        W89447  21.694  31.843  14.836
17133W        W89448  22.838   0.077   4.816
17134W        W89449  28.731  36.372   2.909
17135W        W89450  35.658  17.728   1.174
17136W        W89451   8.200   8.232  14.386
17137W        W89452  36.815   6.658  13.957
17138W        W89453   3.644  27.827   1.903
17139W        W89454  44.728  10.633   4.651
17140W        W89455  30.676  41.768   4.613
17141W        W89456  10.089  15.267   1.929
17142W        W89457  22.197  23.859  12.994
17143W        W89458  10.443  17.161   2.829
17144W        W89459   0.890  18.847   1.295
17145W        W89460  16.077  18.535  12.504
17146W        W89461   5.365  32.097   3.527
17147W        W89462   4.230  44.367  12.488
17148W        W89463   6.438  17.394  14.568
17149W        W89464  21.165  20.579   2.718
17150W        W89465  13.664   0.677  13.964
17151W        W89466  16.295  44.945   2.718
17152W        W89467  34.929  35.402  12.552
17153W        W89468  24.211  13.347   2.698
17154W        W89469  40.816  29.166  11.053
17155W        W89470  21.368  44.931   4.905
17156W        W89471  43.915  15.101   4.736
17157W        W89472  28.568  35.605   1.382
17158W        W89473   9.218  42.824   4.254
17159W        W89474  32.581  13.948   0.470
17160W        W89475  21.596   7.702   0.837
17161W        W89476   8.156  10.222   3.237
17162W        W89477  11.894  28.772   0.835
17163W        W89478   4.795  14.243  14.927
17164W        W89479  15.054  30.258  14.308
17165W        W89480  44.665  18.465   3.195
17166W        W89481  42.295  21.561   4.358
17167W        W89482  43.915  12.326  14.891
17168W        W89483   9.366  16.790   4.116
17169W        W89484   5.373  10.397   0.186
17170W        W89485  27.252  42.410  11.184
17171W        W89486  33.344  17.261  11.645
17172W        W89487  42.273   6.737  14.692
17173W        W89488  30.930  12.210  13.576
17174W        W89489   2.237  30.049  10.790
17175W        W89490   2.839  10.160  14.254
17176W        W89491  33.098  33.446  14.738
17177W        W89492  26.565  44.781   2.831
17178W        W89493  27.883  33.123  11.489
17179W        W89494  29.596   8.408  10.573
17180W        W89495  24.324  41.324   2.121
17181W        W89496  32.115  25.910  12.988
17182W        W89497  36.285  19.580  14.284
17183W        W89498   2.265  35.654  10.501
17184W        W89499  23.254  19.081   0.894
17185W        W89500   8.180   9.300  11.522
17186W        W89501  34.513   8.171   3.258
17187W        W89502  39.570  37.095   2.765
17188W        W89503  25.762  32.667   5.453
17189W        W89504  24.275   5.321   4.442
17190W        W89505  32.053  22.186   0.744
17191W        W89506  25.441  34.090   4.756
17192W        W89507  10.238   4.750   3.762
17193W        W89508   7.291  33.318  10.286
17194W        W89509  26.536   6.763  11.972
17195W        W89510  40.058  22.992   0.899
17196W        W89511   5.185   5.751  14.890
17197W        W89512  38.584  40.093  10.871
17198W        W89513  35.453   3.997  11.230
17199W        W89514  33.031  12.110  12.001
17200W        W89515  44.883  15.260   3.205
17201W        W89516   1.230  21.195  13.324
17202W        W89517  10.865  36.380   1.437
17203W        W89518  18.975  33.374   1.776
17204W        W89519  19.199  19.406  12.469
17205W        W89520  43.431  34.982   0.334
17206W        W89521  10.921  17.980  14.719
17207W        W89522  31.380   2.733   4.286
17208W        W89523  30.085  29.570   4.163
17209W        W89524  29.112   0.446   3.583
17210W        W89525  43.570  37.658  11.826
17211W        W89526  16.600  26.736   3.755
17212W        W89527  25.702  37.620  14.307
17213W        W89528   7.629  25.044  12.960
17214W        W89529  44.842  39.906   1.028
17215W        W89530  12.652  21.094  11.155
17216W        W89531  26.841  39.791  13.473
17217W        W89532   6.419   5.867  14.316
17218W        W89533  21.007  15.858  13.362
17219W        W89534   6.852   6.897   3.925
17220W        W89535   0.599  28.051  11.615
17221W        W89536  14.617  39.957  13.359
17222W        W89537  23.549  19.265  11.042
17223W        W89538  32.260  44.955  11.641
17224W        W89539  40.274  24.057   0.742
17225W        W89540   5.368   2.062  13.080
17226W        W89541  31.547   9.148   4.650
17227W        W89542  22.407  12.814   2.960
17228W        W89543  43.406  20.828   2.327
17229W        W89544  19.524  11.702  13.533
17230W        W89545  39.835  29.453   3.003
17231W        W89546   6.874  24.458   0.793
17232W        W89547  21.013  30.016  14.424
17233W        W89548  19.951  30.223   3.690
17234W        W89549  38.880  11.965  12.572
17235W        W89550  40.936  22.671  14.865
17236W        W89551   7.370  26.021  12.535
17237W        W89552  10.781   2.377   1.132
17238W        W89553  40.443  20.064   4.181
17239W        W89554  25.117   8.941  13.975
17240W        W89555  25.276   8.188  11.814
17241W        W89556   6.116   4.452   0.263
17242W        W89557  33.460  42.081  13.892
17243W        W89558  28.255  26.534   4.830
17244W        W89559  23.719   1.558   2.828
17245W        W89560  30.929  39.768  13.946
17246W        W89561   4.327   2.401  10.959
17247W        W89562  22.993  25.332   2.679
17248W        W89563  22.964  16.889   3.690
17249W        W89564  12.347  40.895  13.585
17250W        W89565   8.703  18.563   3.663
17251W        W89566  24.108  25.464  14.336
17252W        W89567  42.906  18.340  11.462
17253W        W89568   4.685  42.054  10.278
17254W        W89569  26.964   2.348  13.012
17255W        W89570  23.625  27.565  14.418
17256W        W89571  31.402  14.225   4.638
17257W        W89572  33.406   0.155  14.403
17258W        W89573  29.472  44.065  14.134
17259W        W89574  24.853  44.564   3.745
17260W        W89575   6.123   2.176   2.605
17261W        W89576  31.320  22.518  10.782
17262W        W89577  14.490  13.576   3.386
17263W        W89578  17.145  25.422  11.844
17264W        W89579  32.883  28.241   3.674
17265W        W89580  42.313  13.183  11.022
17266W        W89581  33.076  25.080  11.737
17267W        W89582  33.715  28.056   2.717
17268W        W89583  33.554  39.354   4.675
17269W        W89584   4.339  42.968  14.716
17270W        W89585  41.888  35.449  12.861
17271W        W89586  18.147   4.793   4.640
17272W        W89587   4.941  24.130   1.098
17273W        W89588  21.530   0.061   0.373
17274W        W89589   0.906  41.905   2.438
17275W        W89590  20.774  31.788   2.300
17276W        W89591   4.490  44.210   3.153
17277W        W89592  17.147  20.478  12.870
17278W        W89593   3.394   9.611  11.124
17279W        W89594  15.488  44.527   2.848
17280W        W89595   2.319  14.615  12.460
17281W        W89596  36.963  10.127   3.036
17282W        W89597  33.438   0.445  14.833
17283W        W89598  42.291  21.731  13.957
17284W        W89599  44.739  22.642  14.531
17285W        W89600  41.416  43.791   2.464
17286W        W89601   6.905  39.010   1.858
17287W        W89602  19.085  14.233  10.358
17288W        W89603  12.615  40.347  14.847
17289W        W89604  26.513  34.724  14.603
17290W        W89605   3.438  42.983   4.332
17291W        W89606  21.917  34.189   0.801
17292W        W89607   8.652   3.690   3.659
17293W        W89608  17.357   4.296   4.157
17294W        W89609  37.893  12.247  11.091
17295W        W89610  39.865  31.353   2.375
17296W        W89611  39.036  31.490  12.898
17297W        W89612  34.571  41.961  13.252
17298W        W89613  30.446  21.095   2.528
17299W        W89614  26.894  37.527  11.688
17300W        W89615  14.849   4.721  14.402
17301W        W89616  11.713  28.732   4.185
17302W        W89617  24.039  42.480   4.194
17303W        W89618  12.737  11.212  13.443
17304W        W89619  11.495  37.534   1.901
17305W        W89620   1.082  37.774   2.456
17306W        W89621  17.246  11.792  11.675
17307W        W89622  35.902  25.418   2.277
17308W        W89623  31.642   2.761  10.681
17309W        W89624  19.138  33.548   1.205
17310W        W89625  31.395  16.805  14.089
17311W        W89626   0.533  11.331   4.590
17312W        W89627  35.727   2.412   2.236
17313W        W89628   1.944  37.301  11.846
17314W        W89629   6.713  39.546   1.873
17315W        W89630  31.675  24.008  14.955
17316W        W89631  14.383  10.419  11.523
17317W        W89632   5.817   1.318   2.421
17318W        W89633  25.533   9.655   1.459
17319W        W89634  41.770   0.382   3.194
17320W        W89635   2.445   8.172   1.883
17321W        W89636  32.497   2.431   1.869
17322W        W89637   2.236  35.585  12.492
17323W        W89638   3.426  23.341  10.654
17324W        W89639   9.416  38.373   3.803
17325W        W89640   9.896  10.378   0.213
17326W        W89641  23.006  20.277  14.028
17327W        W89642   8.922  37.640   9.936
17328W        W89643  17.287  25.032  13.870
17329W        W89644  32.951  23.254   2.331
17330W        W89645  34.745   4.209  13.872
17331W        W89646  14.814  39.843  14.863
17332W        W89647   2.153  13.174   3.258
17333W        W89648   9.192   2.361  14.753
17334W        W89649   2.530  12.070   3.797
17335W        W89650  32.213  30.522   5.440
17336W        W89651  37.362  29.502   0.927
17337W        W89652  12.638  15.576  12.159
17338W        W89653  34.649  23.735   2.713
17339W        W89654   3.453  24.046   4.170
17340W        W89655  27.409  37.516  11.654
17341W        W89656  32.385  35.318   3.724
17342W        W89657  22.608  44.523  10.743
17343W        W89658  14.746  21.305   1.271
17344W        W89659  16.507  42.882   0.221
17345W        W89660  14.316  37.427   0.891
17346W        W89661  23.612  19.554   0.898
17347W        W89662  17.239  37.068  11.189
17348W        W89663  34.579  20.146  12.051
17349W        W89664  33.955  42.807   0.268
17350W        W89665  18.847  10.755  14.339
17351W        W89666  32.792  26.456  12.782
17352W        W89667  42.861  20.132  13.558
17353W        W89668  21.990  35.217   4.135
17354W        W89669   3.060  10.021  11.125
17355W        W89670  32.094   2.217   3.625
17356W        W89671  13.316  40.961   1.553
17357W        W89672  29.119   8.984   1.695
17358W        W89673  35.532  44.886  12.607
17359W        W89674  10.133  30.961  11.085
17360W        W89675   1.669   9.208  12.006
17361W        W89676  18.354  18.602   1.384
17362W        W89677  39.447  41.117   3.852
17363W        W89678   5.166  41.450  13.030
17364W        W89679  43.134  26.844   4.543
17365W        W89680  28.905  31.803   5.029
17366W        W89681  36.131  18.935  14.930
17367W        W89682  12.254  11.717   1.229
17368W        W89683  39.122  20.686  14.315
17369W        W89684  23.665  23.211   4.613
17370W        W89685  41.780  38.237   4.902
17371W        W89686  41.954  32.997  12.695
17372W        W89687  41.366  43.620  12.894
17373W        W89688  35.306  40.048   3.863
17374W        W89689   5.994  11.098  12.347
17375W        W89690  14.195  24.212   2.184
17376W        W89691  40.542  37.708  13.006
17377W        W89692  28.250  17.796  12.378
17378W        W89693  42.265  28.615  11.244
17379W        W89694  21.990  26.629   2.355
17380W        W89695   6.637  25.109   0.904
17381W        W89696  35.492  22.832   1.796
17382W        W89697   9.907  25.497   1.506
17383W        W89698  14.394  10.825   2.295
17384W        W89699  12.224  13.658   4.745
17385W        W89700   2.974   5.713  12.529
17386W        W89701  40.277  30.619  12.572
17387W        W89702  15.541  15.248   0.350
17388W        W89703  16.031   3.646   2.653
17389W        W89704  36.432  13.166  11.216
17390W        W89705  39.332  23.010  14.542
17391W        W89706  40.808  41.318  14.914
17392W        W89707   4.821  21.952  14.579
17393W        W89708  15.491  31.483   4.183
17394W        W89709  19.101   6.842   3.685
17395W        W89710  37.522  25.923   4.662
17396W        W89711  24.755  18.595  13.412
17397W        W89712   6.227  36.457  10.724
17398W        W89713   7.796   0.269  12.050
17399W        W89714  42.759  12.894  12.490
17400W        W89715   4.707   1.842   1.745
17401W        W89716   7.387  32.165  14.289
17402W        W89717   0.205  31.576  14.417
17403W        W89718   7.236  30.835   3.371
17404W        W89719  33.160   8.258  11.868
17405W        W89720   7.056  14.258  12.480
17406W        W89721  32.521  24.492  10.688
17407W        W89722  11.272   4.501   1.788
17408W        W89723  18.220  34.883  12.987
17409W        W89724  24.519  26.032   0.439
17410W        W89725  34.511  38.656   3.355
17411W        W89726  33.891  22.751   2.336
17412W        W89727  18.265  33.840   2.441
17413W        W89728   7.819  40.898   2.263
17414W        W89729  12.707  34.747  13.438
17415W        W89730  29.154  10.230  10.954
17416W        W89731   0.295   9.279  12.206
17417W        W89732  21.185   3.127   4.171
17418W        W89733  14.622  16.971   0.591
17419W        W89734  26.229  12.380   2.387
17420W        W89735   3.725  44.823  13.077
17421W        W89736   4.391   0.792   4.133
17422W        W89737   6.173  23.529  10.637
17423W        W89738  22.123  19.899   4.644
17424W        W89739   4.810   3.922   4.544
17425W        W89740  43.830  42.114  14.439
17426W        W89741   7.268  24.719   1.886
17427W        W89742  23.713  20.781  11.130
17428W        W89743  14.023  43.630   4.711
17429W        W89744  11.197   8.116  11.241
17430W        W89745  15.585   2.639   1.830
17431W        W89746  22.437  19.201  14.054
17432W        W89747  32.075  27.659  12.668
17433W        W89748  36.248  25.019   5.155
17434W        W89749  18.547   4.067   3.351
17435W        W89750  21.777  31.149  12.500
17436W        W89751  38.989  16.160   0.713
17437W        W89752  30.352  37.374   4.688
17438W        W89753  37.124  27.251  13.920
17439W        W89754  28.166  13.578  13.123
17440W        W89755  22.405  38.082   4.293
17441W        W89756  43.653  15.273  10.337
17442W        W89757  26.127  18.262  11.354
17443W        W89758  32.687   8.243  12.033
17444W        W89759   3.409  24.879  13.825
17445W        W89760  31.208  14.749  13.014
17446W        W89761  22.697   0.504   4.560
17447W        W89762  11.203  19.679   4.873
17448W        W89763   9.686  21.826   4.362
17449W        W89764  13.299  38.149   2.103
17450W        W89765  40.354  42.043  13.849
17451W        W89766   0.293  16.289  14.170
17452W        W89767  12.920   0.786  13.703
17453W        W89768   8.156  37.269  11.061
17454W        W89769  30.080  14.633   3.310
17455W        W89770  30.081   6.839   1.215
17456W        W89771   7.668  33.017  10.522
17457W        W89772   2.257   2.703  11.374
17458W        W89773   8.280  18.574  10.632
17459W        W89774  24.222  18.517   0.281
17460W        W89775  23.130  36.386   2.499
17461W        W89776  32.215  38.579  13.394
17462W        W89777  41.181  19.699  11.550
17463W        W89778  43.363  40.413  14.363
17464W        W89779  24.336   6.378   3.147
17465W        W89780  33.319  11.216   0.817
17466W        W89781  40.044  18.778   0.803
17467W        W89782  22.088   5.403  11.415
17468W        W89783  25.472  19.998  13.694
17469W        W89784  35.003   9.107   3.301
17470W        W89785  34.576   5.197  14.358
17471W        W89786  28.879   6.175  14.919
17472W        W89787  33.574  44.712  11.063
17473W        W89788  15.045  36.003  14.941
17474W        W89789   7.857  27.055   0.753
17475W        W89790  12.678   8.822   4.491
17476W        W89791  29.881  16.726   0.777
17477W        W89792  25.189  19.058   2.785
17478W        W89793  14.625   6.744  10.655
17479W        W89794  24.438  43.488   2.699
17480W        W89795  28.033   0.886  13.467
17481W        W89796  42.911  22.615  12.039
17482W        W89797  37.971  39.783  14.489
17483W        W89798  15.249  12.673  10.413
17484W        W89799  21.326  31.392  12.450
17485W        W89800  19.747  21.078   2.607
17486W        W89801  10.371  23.234   4.143
17487W        W89802   8.903  39.680   1.427
17488W        W89803   5.814  24.460   0.780
17489W        W89804   3.255  30.973  12.881
17490W        W89805   1.752   4.490  10.665
17491W        W89806  35.136   6.817  10.759
17492W        W89807  10.239  17.184   0.075
17493W        W89808   0.887  11.906   2.874
17494W        W89809  27.214  19.796  11.835
17495W        W89810  29.525  39.579   2.292
17496W        W89811  40.380  22.438  12.413
17497W        W89812  33.193  14.014   1.144
17498W        W89813  30.655  27.162  12.337
17499W        W89814   2.947  14.222   4.281
17500W        W89815   6.699  17.105  13.996
17501W        W89816  40.441  43.523   3.319
17502W        W89817  34.634  28.210  14.333
17503W        W89818  14.243  12.136   4.629
17504W        W89819   6.678  18.629   3.275
17505W        W89820   2.356  13.171  11.205
17506W        W89821  16.717  12.232  14.740
17507W        W89822  19.932  31.885   3.918
17508W        W89823  24.679  35.102  10.427
17509W        W89824  20.620  31.949  12.554
17510W        W89825  18.241  37.013   3.190
17511W        W89826  42.255  42.342  14.305
17512W        W89827   8.198  44.319   0.927
17513W        W89828  27.300  14.620   4.503
17514W        W89829   1.571  27.235  12.899
17515W        W89830  28.756  42.286  10.996
17516W        W89831  36.365  19.142  10.842
17517W        W89832  43.331  11.491   4.121
17518W        W89833  11.340  27.643   3.290
17519W        W89834   3.419  10.346   2.267
17520W        W89835  12.370  29.076  13.615
17521W        W89836  18.680  19.226   0.495
17522W        W89837  39.332   4.894  14.045
17523W        W89838   9.636  22.730   1.732
17524W        W89839  10.474  38.879   2.700
17525W        W89840  12.013  10.486   2.217
17526W        W89841  22.956  18.931  10.075
17527W        W89842  37.890   9.878   1.745
17528W        W89843  34.672  30.950  12.470
17529W        W89844  29.927  24.587   3.948
17530W        W89845  14.649   3.215  12.202
17531W        W89846  38.520  31.893   2.748
17532W        W89847  25.702  22.773   1.566
17533W        W89848  44.590   2.965   2.396
17534W        W89849   2.268  29.171   3.205
17535W        W89850   4.932  35.512  13.849
17536W        W89851  15.304  21.543   0.685
17537W        W89852  19.939  27.616   0.019
17538W        W89853  16.158  41.676  12.925
17539W        W89854  15.147  13.975   1.716
17540W        W89855  14.283  33.856   3.591
17541W        W89856  26.589   5.442  12.134
17542W        W89857  14.859  10.916   2.465
17543W        W89858  15.035  39.622  10.243
17544W        W89859  40.754   0.512  13.254
17545W        W89860  25.019  15.329  14.350
17546W        W89861  26.561  22.570   4.685
17547W        W89862  19.193   8.538  11.494
17548W        W89863  35.949  13.045   3.819
17549W        W89864  41.907  22.742   0.150
17550W        W89865  13.935   8.420   1.942
17551W        W89866  24.486   4.393   0.021
17552W        W89867   4.804  19.740   0.821
17553W        W89868  33.986   8.376  13.883
17554W        W89869  17.506  12.874  11.065
17555W        W89870  27.660  19.101   2.927
17556W        W89871  43.995  14.324  13.342
17557W        W89872   6.463   8.651  14.349
17558W        W89873  30.487   3.737  14.068
17559W        W89874  33.030  14.589  10.694
17560W        W89875  44.388   7.947  10.691
17561W        W89876  42.851   6.134   4.155
17562W        W89877  44.848   6.031  10.683
17563W        W89878  22.952  14.385   1.688
17564W        W89879   5.907   7.671  12.721
17565W        W89880   6.735  19.916  11.571
17566W        W89881  40.138  16.369  13.310
17567W        W89882   4.767  32.529  11.598
17568W        W89883  44.416  40.821   1.419
17569W        W89884  15.994  15.039   1.615
17570W        W89885   7.501  11.185   2.959
17571W        W89886  12.230  26.939   4.229
17572W        W89887  34.969  35.386  13.823
17573W        W89888  37.634   3.878  14.917
17574W        W89889  11.266   0.168  11.100
17575W        W89890  11.665  44.392  10.331
17576W        W89891  11.348  21.367   4.058
17577W        W89892   1.735  42.014  13.895
17578W        W89893  34.594  25.031   3.488
17579W        W89894  29.679  33.536   2.563
17580W        W89895  39.472  10.991  11.604
17581W        W89896  18.880  39.204  10.149
17582W        W89897  25.301  28.156   2.894
17583W        W89898  10.860  43.933   0.648
17584W        W89899  28.923  30.164   2.119
17585W        W89900  33.444  30.600   2.831
17586W        W89901  24.196   4.190  14.043
17587W        W89902  39.533  10.674   1.021
17588W        W89903  35.106  41.376  14.406
17589W        W89904  26.153  10.340   3.122
17590W        W89905  43.075  36.474   2.379
17591W        W89906   0.920   5.873   2.579
17592W        W89907  34.796  39.445  12.391
17593W        W89908  33.880  34.515   2.164
17594W        W89909  16.530   2.823   1.340
17595W        W89910  18.508  27.886  14.964
17596W        W89911   7.510  32.389   1.813
17597W        W89912  11.749  30.720  13.834
17598W        W89913  41.805  15.288   4.114
17599W        W89914  16.523   5.245   3.143
17600W        W89915  30.712  17.944   0.171
17601W        W89916  25.481   4.479   5.018
17602W        W89917  14.920  36.848  11.186
17603W        W89918   2.952  14.401  10.713
17604W        W89919   0.135  24.248  12.383
17605W        W89920  17.348  35.929  14.417
17606W        W89921   4.246  27.216  13.536
17607W        W89922  30.081  31.255   1.242
17608W        W89923  23.170  29.538   0.363
17609W        W89924  13.059   7.782   4.983
17610W        W89925  32.469  19.268   0.132
17611W        W89926  18.651  30.863   1.243
17612W        W89927  15.775  27.048   4.733
17613W        W89928  20.490  23.202   2.223
17614W        W89929  38.393  43.420  11.942
17615W        W89930  35.914  19.977   1.034
17616W        W89931  23.599  14.127   4.836
17617W        W89932  30.188  23.941  14.937
17618W        W89933  17.263  12.614   0.875
17619W        W89934  36.605   6.246  11.737
17620W        W89935  12.277  12.176  11.440
17621W        W89936  43.428  30.193   2.462
17622W        W89937  39.381  40.092   2.418
17623W        W89938  31.997  35.242  13.621
17624W        W89939   5.351  14.936   3.272
17625W        W89940   7.652  33.972   0.458
17626W        W89941  17.486  10.405   2.763
17627W        W89942   9.897  12.640   4.175
17628W        W89943  18.718  43.052  12.414
17629W        W89944  43.053   5.926   3.728
17630W        W89945  19.738  10.635   2.728
17631W        W89946  12.899  25.595  11.138
17632W        W89947   0.845   7.647   0.633
17633W        W89948  19.264  16.090  11.404
17634W        W89949  19.061  20.723   3.800
17635W        W89950  32.701  16.916   0.879
17636W        W89951  19.148   4.261   4.649
17637W        W89952  23.029   5.413  13.871
17638W        W89953  18.705  26.444   0.242
17639W        W89954  15.359  29.892  10.699
17640W        W89955   1.706  32.427   1.877
17641W        W89956  15.954  33.912  11.454
17642W        W89957  35.815   2.241   4.562
17643W        W89958   0.857  42.970  10.260
17644W        W89959  17.978  42.045   5.139
17645W        W89960   4.863   5.684   0.302
17646W        W89961  30.359  34.579   1.902
17647W        W89962  27.380  44.696  11.085
17648W        W89963  36.136  22.653  10.726
17649W        W89964  14.647   6.709  12.518
17650W        W89965  25.555   8.169   2.613
17651W        W89966  41.003  36.569  13.922
17652W        W89967  10.648  37.841   0.343
17653W        W89968   8.150  21.199  14.282
17654W        W89969   7.850  40.205   2.826
17655W        W89970   3.131  37.827  13.967
17656W        W89971  18.594  36.514   1.709
17657W        W89972  42.380  44.931  10.422
17658W        W89973  25.255  15.598   5.171
17659W        W89974  15.090  27.070  13.532
17660W        W89975  23.690  38.117   2.276
17661W        W89976  17.174  38.089  12.995
17662W        W89977   5.884  15.079  11.084
17663W        W89978  25.102  42.309  10.957
17664W        W89979   6.177  39.453   3.821
17665W        W89980  29.589  37.913  11.809
17666W        W89981  37.174  27.887  11.498
17667W        W89982  39.991   2.353   1.228
17668W        W89983   1.461   7.254   0.389
17669W        W89984  27.095  35.614  10.485
17670W        W89985  43.026  24.576   2.887
17671W        W89986  13.518  32.489  12.124
17672W        W89987   2.187   0.476  11.111
17673W        W89988   8.899  43.219  11.746
17674W        W89989  29.510  14.978   0.926
17675W        W89990  16.963  26.711   1.885
17676W        W89991  30.157  18.274   0.669
17677W        W89992   5.621   0.429   0.920
17678W        W89993  30.159   3.250   4.301
17679W        W89994  42.812   5.888  13.836
17680W        W89995  20.747   7.333  14.120
17681W        W89996  43.312  29.998   3.733
17682W        W89997  10.314  15.696   0.868
17683W        W89998  11.645  36.309  11.378
17684W        W89999   0.070   5.924  14.313
17685W        W90000  31.631  29.435  13.488
17686W        W90001  27.372  37.847   2.876
17687W        W90002  32.071   7.281  12.451
17688W        W90003  11.848   8.415   1.267
17689W        W90004  41.352  34.142   2.324
17690W        W90005  39.113  23.421   5.553
17691W        W90006  39.079  41.352   4.620
17692W        W90007   6.522  41.844  13.846
17693W        W90008  43.419  43.305  12.621
17694W        W90009  25.545  31.307  10.688
17695W        W90010  36.810   7.023  10.836
17696W        W90011  29.094   4.795   1.805
17697W        W90012  23.111  14.391  13.709
17698W        W90013  32.116  36.102   3.337
17699W        W90014  32.914   0.397   0.348
17700W        W90015  42.548  26.022   0.449
17701W        W90016   7.597  14.178  12.452
17702W        W90017   3.756   9.657  10.764
17703W        W90018  26.933   6.187   3.677
17704W        W90019  18.005   9.598   4.172
17705W        W90020   1.519   9.853   0.838
17706W        W90021  10.619  40.969  12.437
17707W        W90022  19.679  41.827   4.495
17708W        W90023  22.513  22.474  10.005
17709W        W90024  29.961  36.634   0.954
17710W        W90025   7.969  18.200   0.163
17711W        W90026  30.228   7.910   0.091
17712W        W90027  26.401  34.178  13.872
17713W        W90028  10.095  31.939  12.059
17714W        W90029  18.839  25.508  14.422
17715W        W90030  20.246  12.270  12.433
17716W        W90031  36.848  20.934  11.117
17717W        W90032  11.159  28.152  11.415
17718W        W90033   0.085  32.148   1.081
17719W        W90034  17.524  33.671   0.487
17720W        W90035  15.615  32.109   1.005
17721W        W90036  10.071  27.635   0.826
17722W        W90037  35.892  27.481  10.699
17723W        W90038  33.650   4.441  11.500
17724W        W90039   4.280  19.748   4.644
17725W        W90040  20.985  25.565  12.848
17726W        W90041   2.449  22.558  10.224
17727W        W90042  22.428  24.011   0.945
17728W        W90043  41.613   5.085  11.648
17729W        W90044  30.614  23.342   4.886
17730W        W90045  39.550  26.958  12.348
17731W        W90046  44.511  23.090   4.081
17732W        W90047  16.759  34.631   1.295
17733W        W90048  38.884   5.280  14.311
17734W        W90049   9.455  24.844  12.129
17735W        W90050  38.284  15.295   4.195
17736W        W90051   6.673  18.006  13.465
17737W        W90052  26.063  34.003   1.189
17738W        W90053   0.780  16.054  11.719
17739W        W90054   0.710  17.067  10.676
17740W        W90055   4.913  24.719   3.588
17741W        W90056  40.561  16.001  11.917
17742W        W90057  37.595  11.079  14.842
17743W        W90058  10.144  11.277  12.940
17744W        W90059  37.489  34.754   4.162
17745W        W90060  23.916  14.188   1.333
17746W        W90061  34.810  36.086  13.145
17747W        W90062   2.194  21.989   1.322
17748W        W90063  21.014  31.158   3.744
17749W        W90064  15.884   1.130  11.214
17750W        W90065   7.181  35.010  12.108
17751W        W90066  41.371  12.350  11.735
17752W        W90067  41.903  25.160   5.115
17753W        W90068  31.062  27.410   3.736
17754W        W90069   3.597  20.989  14.284
17755W        W90070  10.119  10.384  14.390
17756W        W90071  14.398  17.890  14.306
17757W        W90072  23.336  19.055  12.459
17758W        W90073  21.449   4.326   4.666
17759W        W90074  43.071   3.363  11.545
17760W        W90075   1.517  40.373   2.619
17761W        W90076   7.316  39.890  10.754
17762W        W90077  34.414  11.151  11.654
17763W        W90078  43.012  40.760   0.762
17764W        W90079  25.036  18.025   1.168
17765W        W90080  35.356   7.440   0.201
17766W        W90081  14.462  16.201   1.688
17767W        W90082  30.650   8.470   0.829
17768W        W90083   9.293  11.865  11.519
17769W        W90084  25.508   3.373   0.949
17770W        W90085  37.899  33.505  13.151
17771W        W90086  43.212  30.224  12.463
17772W        W90087  35.228  19.780  11.161
17773W        W90088  12.707  44.367   2.158
17774W        W90089  32.342  34.034   0.267
17775W        W90090  32.613  38.410   4.282
17776W        W90091   9.938   5.237  13.503
17777W        W90092  23.130  18.091  13.135
17778W        W90093  11.171  27.578  14.480
17779W        W90094   2.348  16.585   2.203
17780W        W90095  12.886  13.741   1.454
17781W        W90096  42.897  32.941  10.644
17782W        W90097  11.360  35.229   1.955
17783W        W90098  22.648  41.580   4.953
17784W        W90099  36.061  21.968  11.993
17785W        W90100   7.021  25.303   1.247
17786W        W90101  44.757  24.666   5.009
17787W        W90102  37.567  34.351  12.353
17788W        W90103  19.577  20.979  13.072
17789W        W90104   0.976   7.909  14.282
17790W        W90105   9.973   4.532  12.806
17791W        W90106  11.256  37.755   3.577
17792W        W90107  14.013  38.285   1.941
17793W        W90108   1.342  29.273  10.866
17794W        W90109  19.131  37.393  13.900
17795W        W90110  22.642  16.245  13.601
17796W        W90111  12.437   0.926  13.841
17797W        W90112  16.740  19.070  13.382
17798W        W90113  17.695  32.021   4.739
17799W        W90114   6.445   4.703   2.476
17800W        W90115   0.408  42.994   2.645
17801W        W90116  17.185   2.829  13.025
17802W        W90117  31.657  13.222   1.777
17803W        W90118  29.177  26.921  14.971
17804W        W90119  24.457   6.697   1.404
17805W        W90120  37.031   6.449   2.826
17806W        W90121  13.851  11.486   4.986
17807W        W90122  37.384  31.837  11.577
17808W        W90123  12.562   7.241  12.101
17809W        W90124  36.402  14.352  10.098
17810W        W90125  33.129  10.681   2.947
17811W        W90126  35.025  43.349   3.709
17812W        W90127  38.055  42.260   4.211
17813W        W90128  31.801   2.573  12.803
17814W        W90129  36.974  36.348  11.517
17815W        W90130  25.683  19.119  12.954
17816W        W90131  41.352   8.382   2.767
17817W        W90132  16.823  18.348  12.365
17818W        W90133  33.110  36.373   4.302
17819W        W90134   9.448   6.726   0.497
17820W        W90135  23.586  34.523   4.559
17821W        W90136  16.097  25.257  11.126
17822W        W90137  22.662   7.207  10.712
17823W        W90138  21.199  33.105  11.993
17824W        W90139  35.162  19.551   2.719
17825W        W90140  16.718  44.351   1.581
17826W        W90141  21.991  24.545  11.184
17827W        W90142  24.858  15.800  13.500
17828W        W90143  21.677   5.902  13.867
17829W        W90144  36.237  28.082  12.628
17830W        W90145   0.368  12.732   5.512
17831W        W90146   3.746   8.319  12.218
17832W        W90147  10.251  22.014   0.759
17833W        W90148  26.148   4.392   4.643
17834W        W90149  27.625  11.344  10.647
17835W        W90150  43.896  32.315   2.742
17836W        W90151  24.756  28.032   3.263
17837W        W90152  36.081  25.471   0.445
17838W        W90153  39.284  38.992  13.622
17839W        W90154  10.797   5.361   1.736
17840W        W90155  28.600  14.335  14.286
17841W        W90156  37.357   8.689  11.851
17842W        W90157  16.862  32.502   4.527
17843W        W90158  37.399  42.878   4.722
17844W        W90159  16.274  11.278  10.354
17845W        W90160   0.982   0.388   1.713
17846W        W90161  14.505   0.285   3.375
17847W        W90162  34.512  44.699   0.771
17848W        W90163  39.547  32.960  10.745
17849W        W90164   8.745  19.032   3.900
17850W        W90165  15.050   5.185  14.375
17851W        W90166   9.738  15.632  14.661
17852W        W90167  39.615   4.798   4.140
17853W        W90168  30.666  30.637  13.923
17854W        W90169  32.916  39.850   3.694
17855W        W90170  43.533  30.060  14.916
17856W        W90171  40.131   2.565   0.778
17857W        W90172  26.036   4.460   2.218
17858W        W90173  18.788   6.905  11.001
17859W        W90174  41.470  29.442  12.151
17860W        W90175   2.480   6.688   4.915
17861W        W90176  18.662  38.922  11.571
17862W        W90177  37.320  28.620  13.868
17863W        W90178  25.688   6.631   3.751
17864W        W90179  10.754  43.902   4.228
17865W        W90180  38.754  19.683   3.166
17866W        W90181  38.472  22.494   1.282
17867W        W90182   8.590  17.783  10.288
17868W        W90183  36.482  10.675  14.269
17869W        W90184  13.210  25.624   0.717
17870W        W90185  21.895   7.914   3.534
17871W        W90186   0.625  11.901   3.347
17872W        W90187  19.096   4.318   4.134
17873W        W90188  28.187  24.526  11.088
17874W        W90189  12.725  20.760  13.476
17875W        W90190   3.402  43.038   1.369
17876W        W90191  35.498  12.112   2.474
17877W        W90192  11.555  42.493  11.529
17878W        W90193  24.514  37.433   0.817
17879W        W90194  21.018  38.709   4.065
17880W        W90195   7.238  26.846   2.409
17881W        W90196  16.158   2.373  11.895
17882W        W90197  25.448  40.970  10.745
17883W        W90198   7.317  24.135  14.737
17884W        W90199   9.828   6.686   3.226
17885W        W90200  41.918   1.691  10.443
17886W        W90201  20.586  15.551  12.071
17887W        W90202  25.204  29.424  14.337
17888W        W90203   3.394  16.931  10.255
17889W        W90204  33.456  42.612  11.447
17890W        W90205  13.862   6.532   1.688
17891W        W90206  23.672  37.117   4.248
17892W        W90207  29.302   7.982  12.925
17893W        W90208  39.540  28.725   2.723
17894W        W90209  41.666  44.075  12.621
17895W        W90210  12.373  16.709   0.717
17896W        W90211  32.894  12.852  10.862
17897W        W90212  19.094  18.977   4.877
17898W        W90213  34.467   5.574   0.746
17899W        W90214  14.868  33.525  12.785
17900W        W90215  18.366  36.861   0.306
17901W        W90216  13.804  37.880  12.030
17902W        W90217  13.130   1.857   4.342
17903W        W90218   3.996  17.569   0.938
17904W        W90219  44.031  42.040  11.627
17905W        W90220  19.402  43.847  11.925
17906W        W90221  12.831  17.206   0.189
17907W        W90222  14.874  31.862   3.262
17908W        W90223  15.587  16.730  12.742
17909W        W90224  25.239  14.205  11.973
17910W        W90225  11.985  36.838  12.480
17911W        W90226  35.877  15.271   3.514
17912W        W90227   6.875  10.812   1.257
17913W        W90228  37.124   0.212  14.918
17914W        W90229   1.715  23.565  12.119
17915W        W90230  40.091   3.566   2.703
17916W        W90231  17.334  22.913   1.382
17917W        W90232  44.757  35.094  10.760
17918W        W90233  19.674  30.269  10.982
17919W        W90234  17.308   9.503  11.995
17920W        W90235   0.928  35.641  10.691
17921W        W90236   7.771  42.528  11.673
17922W        W90237  38.839  31.003   1.511
17923W        W90238  25.206  40.800   3.735
17924W        W90239   9.701  18.635   9.722
17925W        W90240  37.362   8.567  11.365
17926W        W90241   2.362   5.635   1.365
17927W        W90242  31.496   6.574  12.152
17928W        W90243  35.905  12.519   3.875
17929W        W90244   3.893  17.047   4.087
17930W        W90245  38.391  28.683  13.943
17931W        W90246  34.990  41.816   4.629
17932W        W90247   2.992  16.020   3.360
17933W        W90248  24.630   2.137  14.427
17934W        W90249   9.754  31.057   0.663
17935W        W90250   3.371  10.941  14.912
17936W        W90251  37.808   7.780   2.420
17937W        W90252  39.530  27.542  13.065
17938W        W90253  35.176  32.186  12.060
17939W        W90254  34.819   8.667  13.775
17940W        W90255  23.068  32.299   3.211
17941W        W90256   8.638  17.837   1.754
17942W        W90257  41.271  40.777  14.404
17943W        W90258  14.976  22.831   3.852
17944W        W90259   6.288  39.886   3.555
17945W        W90260   4.710   7.667   1.398
17946W        W90261   8.674  40.932   4.661
17947W        W90262   8.421  14.052   1.219
17948W        W90263  43.408  25.775   1.844
17949W        W90264  28.266  43.739  13.005
17950W        W90265  16.284   8.219  11.057
17951W        W90266  25.087   9.236  10.328
17952W        W90267  31.440   1.532  13.760
17953W        W90268  30.586  32.185  13.415
17954W        W90269  33.882  31.137   1.313
17955W        W90270  20.813  41.886   1.962
17956W        W90271   9.134  44.508  13.036
17957W        W90272   5.161  31.303   3.273
17958W        W90273  19.790  20.512  13.038
17959W        W90274  33.802  34.202   1.329
17960W        W90275   1.661  39.043   4.732
17961W        W90276  27.180   9.289  12.659
17962W        W90277  25.690   5.693   0.958
17963W        W90278   3.978  21.072   3.848
17964W        W90279  23.316  23.614   4.614
17965W        W90280  33.411  29.176  10.989
17966W        W90281   0.307   9.306  11.703
17967W        W90282  24.492  25.086  12.610
17968W        W90283  25.227  15.748  12.544
17969W        W90284  10.570  14.339   2.280
17970W        W90285  43.909  32.719   0.790
17971W        W90286  23.753  20.468   2.684
17972W        W90287  38.579  14.734  13.964
17973W        W90288   1.393   2.152  10.635
17974W        W90289  10.843  37.706   1.805
17975W        W90290  22.110  12.831  12.340
17976W        W90291  15.238  32.623  12.760
17977W        W90292  35.788  29.984   2.280
17978W        W90293   1.943  36.002   3.100
17979W        W90294  44.938  35.479   1.056
17980W        W90295  22.081  13.154   3.157
17981W        W90296   1.627  24.660   2.826
17982W        W90297  41.681  28.602   0.334
17983W        W90298  36.985  14.655   4.351
17984W        W90299  34.161  18.090  11.370
17985W        W90300  38.400  14.570  11.667
17986W        W90301  16.576  20.752  14.040
17987W        W90302  42.253  28.552  12.637
17988W        W90303  22.540  30.157  11.168
17989W        W90304  14.542  14.684   1.047
17990W        W90305  10.341   4.390   5.209
17991W        W90306  26.215   2.377   1.251
17992W        W90307   7.901  33.477  10.669
17993W        W90308  40.771  35.419   4.244
17994W        W90309   4.766  36.453  10.666
17995W        W90310  40.632  39.346  14.413
17996W        W90311  23.644  31.723   0.512
17997W        W90312  29.161   5.712  10.581
17998W        W90313  35.384  18.164   3.456
17999W        W90314  16.575  29.973  14.978
18000W        W90315  42.238   8.160   1.750
18001W        W90316   5.328  35.314  10.749
18002W        W90317   1.986  12.234  12.096
18003W        W90318  44.008   2.213   2.707
18004W        W90319  38.474  30.703  12.935
18005W        W90320  42.566   9.917   4.573
18006W        W90321  38.543   6.753   3.158
18007W        W90322  29.565  30.680   0.442
18008W        W90323  38.478  43.970   2.126
18009W        W90324  37.324  12.821   2.543
18010W        W90325  31.132  31.420  12.710
18011W        W90326  44.969  10.230   2.723
18012W        W90327   1.952  12.626   2.194
18013W        W90328  22.528  16.083  12.175
18014W        W90329  39.650  16.220  13.454
18015W        W90330  20.958  19.046  14.080
18016W        W90331   4.283  19.365   3.280
18017W        W90332  27.065   5.446   2.233
18018W        W90333  32.142  29.460  13.442
18019W        W90334  38.860  28.952  13.851
18020W        W90335   8.660  30.626  14.775
18021W        W90336  12.124  23.223  10.563
18022W        W90337   2.218   7.581  13.403
18023W        W90338  30.136  33.117   4.399
18024W        W90339  11.729   5.122  11.359
18025W        W90340  22.211  30.440  13.379
18026W        W90341   5.240  37.350   2.694
18027W        W90342  42.786   9.148  11.507
18028W        W90343   0.411   6.719   4.587
18029W        W90344  27.796  30.718  13.588
18030W        W90345   3.224  10.695  13.461
18031W        W90346  33.062  24.206  13.710
18032W        W90347  23.139  28.915  13.316
18033W        W90348   7.360   9.261  14.290
18034W        W90349  19.135  27.440  13.866
18035W        W90350   5.882  43.515   1.880
18036W        W90351  23.484   9.883  14.501
18037W        W90352  43.300  27.000   2.848
18038W        W90353  41.495  36.909  11.121
18039W        W90354   4.144   6.244   0.226
18040W        W90355  22.389  23.684  14.786
18041W        W90356   2.296  37.267   4.963
18042W        W90357  39.060  37.077   2.614
18043W        W90358   2.335  15.338  11.172
18044W        W90359  35.288  15.135   4.135
18045W        W90360  27.369  22.166  14.094
18046W        W90361  44.906   5.412   2.919
18047W        W90362   9.929   0.716   2.751
18048W        W90363  18.122  33.094   1.976
18049W        W90364  23.671   7.237   1.297
18050W        W90365  21.643   3.684   2.281
18051W        W90366   4.453  19.092  14.316
18052W        W90367  17.710  16.118   3.689
18053W        W90368  16.237  26.598   3.378
18054W        W90369  29.072  36.399  11.802
18055W        W90370   4.913  12.633   3.715
18056W        W90371  11.536  41.605  11.590
18057W        W90372   6.197   0.201  12.649
18058W        W90373  41.309  23.486   0.032
18059W        W90374  15.139  18.498  14.569
18060W        W90375   9.408  22.189  14.935
18061W        W90376  15.124   0.268  13.197
18062W        W90377   3.564  39.480   0.757
18063W        W90378  44.716  17.618  14.757
18064W        W90379  43.526  21.279   0.466
18065W        W90380  33.825  28.952   1.593
18066W        W90381  44.374   2.416   4.882
18067W        W90382   9.599   5.786   2.355
18068W        W90383  13.264  20.443   4.817
18069W        W90384  12.712   8.996  13.710
18070W        W90385  40.594   3.663   0.995
18071W        W90386  27.515  17.135   3.156
18072W        W90387  15.211  44.394   2.412
18073W        W90388  30.600  19.329   2.067
18074W        W90389   2.841  17.349  12.479
18075W        W90390  41.822  39.624  10.779
18076W        W90391  40.002  15.303   1.675
18077W        W90392   9.514  43.514   3.625
18078W        W90393  38.625  23.478  14.723
18079W        W90394   0.247   5.424  12.678
18080W        W90395  11.718  24.595  13.472
18081W        W90396  33.424  26.755   3.210
18082W        W90397  36.553  29.076  10.751
18083W        W90398  20.648  10.193   2.894
18084W        W90399  14.918   7.651   2.737
18085W        W90400  40.025  36.430   1.353
18086W        W90401  11.555  21.041  10.051
18087W        W90402   8.892   2.721  10.914
18088W        W90403  25.340  31.306   4.129
18089W        W90404  19.291   5.753  14.747
18090W        W90405   8.188  25.653   0.180
18091W        W90406  38.091  31.836  13.854
18092W        W90407  10.090  44.323  14.304
18093W        W90408  44.942  29.725   0.291
18094W        W90409  13.439   1.984   0.676
18095W        W90410  36.117  34.179   4.624
18096W        W90411  12.715  19.735   2.412
18097W        W90412  34.926   1.695   4.579
18098W        W90413   7.964   1.064  10.562
18099W        W90414  44.308   7.722   0.350
18100W        W90415  41.548   1.320  14.494
18101W        W90416   4.002  15.019   0.507
18102W        W90417   4.830  17.201  13.788
18103W        W90418  27.593  14.140  13.305
18104W        W90419  24.085  19.698  11.530
18105W        W90420  39.401  10.450  13.829
18106W        W90421   1.113  44.588  13.066
18107W        W90422  33.606  44.966   0.713
18108W        W90423  13.641  36.142   0.307
18109W        W90424  26.547  36.788  12.124
18110W        W90425  40.763  25.230  10.663
18111W        W90426  16.294  37.175   2.725
18112W        W90427  28.243  13.338  11.694
18113W        W90428  21.566  18.434   1.937
18114W        W90429  29.214  39.785   1.459
18115W        W90430  40.254  34.336  11.380
18116W        W90431   7.610  16.533  14.264
18117W        W90432  39.320  43.932  11.121
18118W        W90433  16.646  43.779  14.967
18119W        W90434   9.419  33.077   0.704
18120W        W90435  42.384  21.912   3.112
18121W        W90436  19.696  38.884   2.660
18122W        W90437  27.392  34.603   3.096
18123W        W90438   9.304  19.298  11.875
18124W        W90439  32.622  11.175  10.591
18125W        W90440  37.260  32.441   0.239
18126W        W90441  22.503  15.781   1.876
18127W        W90442  19.177  20.242  12.419
18128W        W90443   2.374  42.583   1.747
18129W        W90444  14.044  40.312   2.659
18130W        W90445  35.814   1.516   1.275
18131W        W90446  21.621  38.277   2.779
18132W        W90447  42.748  44.404   1.856
18133W        W90448  28.310  42.320   0.268
18134W        W90449  19.135  25.248   3.437
18135W        W90450  44.562  17.624  11.047
18136W        W90451  33.054  19.772   1.968
18137W        W90452  34.559  39.271   2.304
18138W        W90453  18.247  25.366  14.880
18139W        W90454   2.544  23.063  13.712
18140W        W90455  24.301   7.427  10.941
18141W        W90456  38.394  28.746   4.002
18142W        W90457  35.599  21.347   4.106
18143W        W90458  20.282  16.703  12.857
18144W        W90459   7.408  42.465  14.978
18145W        W90460  14.990  38.316   0.456
18146W        W90461   3.362  16.274   3.041
18147W        W90462  19.686   8.408   5.152
18148W        W90463  30.459  43.540  13.749
18149W        W90464  44.381  19.938  12.068
18150W        W90465  44.212  40.842  11.036
18151W        W90466  33.804  40.232  11.362
18152W        W90467  18.698  11.155  14.964
18153W        W90468  43.610   9.963  10.188
18154W        W90469  33.265  36.346   3.045
18155W        W90470  39.793   7.728   0.700
18156W        W90471  39.576  22.117  10.579
18157W        W90472  39.920   1.487   1.732
18158W        W90473  24.712  28.303   3.707
18159W        W90474  27.415  22.001   2.024
18160W        W90475  42.776  35.037  10.383
18161W        W90476  14.746  38.319  13.069
18162W        W90477  28.914   2.304  10.739
18163W        W90478  37.800  32.273  10.379
18164W        W90479   7.847  13.687  12.443
18165W        W90480  24.836  39.415  11.305
18166W        W90481  10.812   8.227  12.441
18167W        W90482  44.480  27.677  10.820
18168W        W90483  10.383  15.695  10.601
18169W        W90484  42.953   5.996  14.712
18170W        W90485  20.211   3.814   2.257
18171W        W90486  23.932  31.074  10.617
18172W        W90487  12.751   2.246  12.001
18173W        W90488   6.819  32.812  13.478
18174W        W90489   3.763  27.138   3.114
18175W        W90490  23.519  40.108   1.309
18176W        W90491  16.895  10.525   5.288
18177W        W90492  28.181  14.463   5.088
18178W        W90493  20.282   0.672  13.435
18179W        W90494  17.258  36.352  14.974
18180W        W90495  26.265  14.533   0.336
18181W        W90496  34.925  43.017   0.406
18182W        W90497  33.147  18.262   2.862
18183W        W90498  10.373  43.509   1.728
18184W        W90499  41.962   5.251   3.398
18185W        W90500  12.877  23.177   0.563
18186W        W90501   5.652  17.004  10.603
18187W        W90502  33.168   5.356   3.251
18188W        W90503   4.248   7.259   4.486
18189W        W90504   2.920  21.187  11.543
18190W        W90505  27.089  43.155  14.781
18191W        W90506  28.406  10.873   4.167
18192W        W90507  31.560  43.534  13.563
18193W        W90508  42.707  17.126  12.413
18194W        W90509  42.396  33.551   3.155
18195W        W90510  32.527   7.236  12.055
18196W        W90511  15.685  20.076   3.675
18197W        W90512  10.296  28.559  11.884
18198W        W90513  38.039  43.422   0.838
18199W        W90514   9.929   7.458   0.784
18200W        W90515  23.463  32.433   0.904
18201W        W90516  43.448  22.981   4.428
18202W        W90517  15.060  28.407   0.784
18203W        W90518   7.058   2.330   0.653
18204W        W90519  10.839  24.763  14.364
18205W        W90520  12.411  37.364   4.507
18206W        W90521   5.361  40.458   1.029
18207W        W90522  22.583  16.211   3.726
18208W        W90523  16.885  13.983   4.087
18209W        W90524   1.035  25.476   1.071
18210W        W90525   9.252  17.354   2.213
18211W        W90526  41.391  28.521  11.112
18212W        W90527  23.361  30.730   1.676
18213W        W90528  28.854  22.031   2.196
18214W        W90529  42.974   7.772  14.994
18215W        W90530  24.604  31.099  14.834
18216W        W90531  20.560  24.541   0.482
18217W        W90532  39.777  43.423  14.074
18218W        W90533  44.427  39.589  13.430
18219W        W90534  29.127  33.625  14.254
18220W        W90535  26.607  42.354  11.964
18221W        W90536   2.230  20.768   3.324
18222W        W90537  28.918  20.594   3.770
18223W        W90538  28.653  10.206  13.020
18224W        W90539  42.340  34.947  11.633
18225W        W90540   2.222  12.591   0.228
18226W        W90541  39.534  39.346  11.156
18227W        W90542  21.567  41.198   2.799
18228W        W90543  40.846  32.648  13.238
18229W        W90544  20.073  13.273   3.815
18230W        W90545  42.455  15.502   0.166
18231W        W90546  28.737  10.256   2.138
18232W        W90547  32.322   2.927   3.235
18233W        W90548  27.701  34.098   2.274
18234W        W90549  42.555  28.241  11.040
18235W        W90550   9.745   2.310   1.481
18236W        W90551   0.009  13.854   3.193
18237W        W90552  37.372  23.283  12.931
18238W        W90553  13.616  27.949   3.199
18239W        W90554   6.655  21.682  13.445
18240W        W90555  39.804  42.368  14.382
18241W        W90556   6.498  38.430   0.003
18242W        W90557  16.618   9.195   2.845
18243W        W90558   4.888  39.483  14.471
18244W        W90559  33.551  14.803   1.843
18245W        W90560   4.312   2.232  13.923
18246W        W90561   9.544  16.584  11.127
18247W        W90562  31.818   6.751  11.749
18248W        W90563  34.074  40.027  10.568
18249W        W90564  15.262   4.436   0.863
18250W        W90565  40.363  12.770  11.733
18251W        W90566   9.901   1.498   2.491
18252W        W90567   6.897   0.372   4.059
18253W        W90568  30.787  19.608  12.988
18254W        W90569  19.254  16.036  13.287
18255W        W90570  35.892  18.603   3.248
18256W        W90571   4.193  23.994  13.019
18257W        W90572  17.545   7.124   3.212
18258W        W90573  34.303  42.813   2.721
18259W        W90574  31.152  44.360   4.099
18260W        W90575  30.052  35.459   1.682
18261W        W90576  27.419  30.194   2.490
18262W        W90577  14.245  26.092  11.123
18263W        W90578   6.294   7.904   4.687
18264W        W90579   7.755   8.291  14.994
18265W        W90580  20.565  29.379  12.947
18266W        W90581  20.142  26.945  14.456
18267W        W90582  28.765  17.936  13.565
18268W        W90583  17.833  44.199   2.215
18269W        W90584   6.787   0.800  10.610
18270W        W90585  44.753  19.735   4.019
18271W        W90586  16.913  14.082   2.714
18272W        W90587   2.282  39.909   2.350
18273W        W90588   5.471   9.558   4.276
18274W        W90589  29.204  18.317   0.796
18275W        W90590  12.633  11.157   3.251
18276W        W90591  20.060  14.329  12.506
18277W        W90592  24.651  41.290  13.296
18278W        W90593   1.809  31.991  10.903
18279W        W90594  33.312  38.270   3.587
18280W        W90595  23.954  17.130  12.438
18281W        W90596  15.198  28.571   2.732
18282W        W90597  19.134  31.368  12.953
18283W        W90598  24.555  41.222  14.342
18284W        W90599  22.680  24.466   0.941
18285W        W90600  30.466  13.305   3.137
18286W        W90601   8.224  16.347   3.282
18287W        W90602   9.469  14.180  12.988
18288W        W90603  23.063  16.254  11.482
18289W        W90604  39.994  42.343  11.636
18290W        W90605  10.998   5.469   0.034
18291W        W90606   0.320  38.920   2.195
18292W        W90607  21.527  39.861   1.153
18293W        W90608  13.003  38.232   1.664
18294W        W90609  36.840  43.042   3.174
18295W        W90610  40.092  44.274  14.309
18296W        W90611  28.476  35.227   3.854
18297W        W90612  36.576  24.214   1.919
18298W        W90613  19.564  35.583   4.816
18299W        W90614  28.021  12.692   0.153
18300W        W90615  35.467  29.901  12.990
18301W        W90616  28.436  34.871  14.789
18302W        W90617  43.675  20.230   3.312
18303W        W90618   7.356  37.082  14.029
18304W        W90619  44.860   5.409   1.819
18305W        W90620  10.221  42.554  12.954
18306W        W90621   6.522  35.796   3.615
18307W        W90622  11.249  15.266  11.082
18308W        W90623  22.014   5.809   2.639
18309W        W90624  10.732  18.786  14.298
18310W        W90625  17.490  26.619   0.015
18311W        W90626  15.743  43.450  10.680
18312W        W90627  12.674  26.188  12.331
18313W        W90628  41.843  10.797  14.824
18314W        W90629  29.004  23.588  13.748
18315W        W90630  17.902  11.731   4.734
18316W        W90631  42.032  15.750   1.423
18317W        W90632  26.410  31.449  13.992
18318W        W90633  33.444   2.730  13.507
18319W        W90634  43.489   1.650  12.590
18320W        W90635  12.904   7.778   3.609
18321W        W90636  22.354   8.690  13.439
18322W        W90637  30.183  28.947   2.830
18323W        W90638  41.002  35.885   4.129
18324W        W90639   3.830  13.892  10.594
18325W        W90640  25.124  14.397   0.692
18326W        W90641  44.049   3.623   4.211
18327W        W90642   3.174  28.913  14.315
18328W        W90643  39.661  37.381   1.740
18329W        W90644  22.971  10.861  14.490
18330W        W90645   2.189  12.168  14.422
18331W        W90646   6.620   5.229  12.101
18332W        W90647   5.908  10.420  12.945
18333W        W90648  44.297  15.778   0.889
18334W        W90649  26.039  17.875  11.662
18335W        W90650  25.021  37.215  11.590
18336W        W90651  17.079  10.429  13.449
18337W        W90652  43.285   6.895  14.748
18338W        W90653  12.425  21.100  14.970
18339W        W90654  14.832  12.743  10.090
18340W        W90655  18.507   1.877   2.319
18341W        W90656  20.233   8.727   2.332
18342W        W90657  44.497  26.362  10.220
18343W        W90658   2.825  43.486  12.064
18344W        W90659  34.996  16.875   4.513
18345W        W90660   1.389  19.443  11.192
18346W        W90661  27.366   6.432  11.951
18347W        W90662  17.210  34.582  10.018
18348W        W90663  26.011   1.311  12.094
18349W        W90664  43.342  29.621  10.231
18350W        W90665  12.640   3.506   1.409
18351W        W90666   8.686  16.611  10.028
18352W        W90667   2.463  24.231  14.492
18353W        W90668  44.499  17.226  13.062
18354W        W90669  18.727  22.536  10.795
18355W        W90670  31.930  35.250  10.511
18356W        W90671   7.185  18.454   3.180
18357W        W90672  34.573  29.949   0.898
18358W        W90673  30.935  20.975  14.687
18359W        W90674  17.000   6.311   0.730
18360W        W90675  37.290  33.832  12.293
18361W        W90676  25.556  42.788  14.962
18362W        W90677   8.436  20.530  10.572
18363W        W90678   1.233  41.335  12.504
18364W        W90679  10.739  15.680  14.927
18365W        W90680  30.237  31.202  12.105
18366W        W90681   2.752  42.898   4.881
18367W        W90682  36.532  20.923   1.600
18368W        W90683  15.791  19.062   1.674
18369W        W90684  33.270  44.367   3.661
18370W        W90685  43.306  39.355   0.878
18371W        W90686   6.932   8.451  12.343
18372W        W90687   8.209  44.069  13.152
18373W        W90688   0.310  39.099  12.066
18374W        W90689   4.048  10.867   0.453
18375W        W90690  26.546  39.824   1.270
18376W        W90691  20.698  10.853  10.077
18377W        W90692  16.236  38.922   1.723
18378W        W90693  19.570  16.749   0.891
18379W        W90694  11.744  42.626   0.011
18380W        W90695   0.831  35.165   4.163
18381W        W90696  11.621  12.070  13.541
18382W        W90697  12.383  18.049   9.675
18383W        W90698  39.058  29.008  11.526
18384W        W90699   4.745  32.630  11.055
18385W        W90700  44.664  43.053   1.629
18386W        W90701  12.745   6.682   2.742
18387W        W90702   6.186  38.029  13.326
18388W        W90703  35.458  43.926  12.882
18389W        W90704   3.987   6.300   0.710
18390W        W90705   1.460   2.686  13.913
18391W        W90706   4.962   9.461   0.408
18392W        W90707  13.318  13.281  11.527
18393W        W90708  38.490   3.023   0.296
18394W        W90709  34.558  37.066  12.889
18395W        W90710  13.542  36.422   0.776
18396W        W90711  17.320  19.658   3.084
18397W        W90712  14.891  15.179  13.947
18398W        W90713  34.942  13.697   4.259
18399W        W90714  24.200  27.009  10.666
18400W        W90715  20.136  25.686   4.232
18401W        W90716  36.447  29.865   0.033
18402W        W90717  41.197   9.347   1.723
18403W        W90718  19.610  31.320  12.736
18404W        W90719  40.457  11.727   0.333
18405W        W90720  39.362   9.218  13.572
18406W        W90721  15.697   0.494  14.011
18407W        W90722  35.447  10.110   0.397
18408W        W90723   7.580   4.941   0.836
18409W        W90724  16.462  19.788  12.471
18410W        W90725   1.247   2.933  14.903
18411W        W90726  19.708   5.784   4.658
18412W        W90727  16.769  26.046   2.956
18413W        W90728   2.409  25.629   0.520
18414W        W90729   4.949   4.962   0.951
18415W        W90730  36.084   7.096   0.726
18416W        W90731   5.437  32.123   2.165
18417W        W90732   6.406   9.817   3.791
18418W        W90733  29.096   9.692   3.409
18419W        W90734  31.047  36.824   0.528
18420W        W90735  36.595  16.110   1.481
18421W        W90736  22.515   1.452  11.392
18422W        W90737  41.093  34.005  10.674
18423W        W90738  30.677  18.416   1.842
18424W        W90739  44.402  43.023   2.872
18425W        W90740  25.740  24.174   5.111
18426W        W90741  34.401   0.052  10.691
18427W        W90742  30.543  24.303  14.492
18428W        W90743  19.749  30.778  13.517
18429W        W90744   5.528  17.018   2.431
18430W        W90745   8.677  40.238  11.500
18431W        W90746  11.763   9.687  13.931
18432W        W90747  10.271  37.810  11.731
18433W        W90748  27.585  29.352   0.843
18434W        W90749  17.344  41.388  10.477
18435W        W90750  31.387  41.813  14.912
18436W        W90751  28.567  19.940  12.218
18437W        W90752  13.861  31.079   1.918
18438W        W90753   4.947  19.113   1.256
18439W        W90754   5.458  30.096  12.885
18440W        W90755  11.745   7.606   1.767
18441W        W90756  10.787  31.941   0.753
18442W        W90757   7.600  39.107   4.091
18443W        W90758   8.886  30.068   3.770
18444W        W90759  16.157  36.215  10.574
18445W        W90760  41.505  38.581  14.627
18446W        W90761  40.258  29.347   0.397
18447W        W90762   9.732  23.647  11.829
18448W        W90763   3.259   7.729  10.676
18449W        W90764  20.696  22.212   3.157
18450W        W90765  21.442  14.730  11.892
18451W        W90766   2.764  38.957  10.680
18452W        W90767   7.121  28.169  12.935
18453W        W90768  41.271  16.906  14.572
18454W        W90769   4.274  22.406  13.500
18455W        W90770   1.342  31.739   1.366
18456W        W90771  23.070  11.226  10.719
18457W        W90772   8.120  36.038  13.255
18458W        W90773   1.107  28.148  13.467
18459W        W90774  21.047  26.631  13.005
18460W        W90775  23.609  37.077   2.383
18461W        W90776  35.333   4.657  10.674
18462W        W90777  35.228  12.330   0.171
18463W        W90778   8.966  38.727  14.913
18464W        W90779  10.836   3.415   3.678
18465W        W90780   3.478   4.378  14.850
18466W        W90781  14.336  15.272   4.186
18467W        W90782  15.865  13.402  10.665
18468W        W90783   0.292   1.693  10.657
18469W        W90784  22.410  22.535  14.275
18470W        W90785  14.796  13.551   0.311
18471W        W90786  18.712  23.470  13.622
18472W        W90787  24.823  41.927  10.547
18473W        W90788   4.179   2.891  14.341
18474W        W90789   3.847  28.565  13.871
18475W        W90790   5.410  36.972   0.449
18476W        W90791  40.029  36.521   4.525
18477W        W90792  19.592  22.706  11.138
18478W        W90793  14.002   4.780  11.109
18479W        W90794  33.507   0.944  13.797
18480W        W90795  27.105  15.733  11.156
18481W        W90796  13.069   2.428  12.416
18482W        W90797  11.407  42.349   0.650
18483W        W90798  10.804  38.531  12.911
18484W        W90799   2.437   5.080  11.035
18485W        W90800  32.410  26.618  12.450
18486W        W90801  18.177  14.074   3.695
18487W        W90802  28.268   6.293   4.480
18488W        W90803  12.559  43.176   3.230
18489W        W90804   0.375  27.362   2.436
18490W        W90805   1.536   3.483   2.645
18491W        W90806  29.451  38.519  13.935
18492W        W90807  38.169  33.017  14.398
18493W        W90808  32.674  42.795   2.220
18494W        W90809  21.551  31.956  11.329
18495W        W90810  37.490  31.549   1.307
18496W        W90811   6.925  32.629  10.981
18497W        W90812  18.868  38.126  14.917
18498W        W90813  43.833  10.436   1.221
18499W        W90814   3.947  44.249  11.786
18500W        W90815  15.784  11.435  10.213
18501W        W90816  40.051  11.345   0.997
18502W        W90817  19.329  36.440   3.874
18503W        W90818   0.931  25.230  12.139
18504W        W90819  39.283  17.203   3.177
18505W        W90820  36.303  28.078   0.952
18506W        W90821   0.135  17.483  13.614
18507W        W90822  13.636  34.606  14.486
18508W        W90823   9.113  14.580  12.946
18509W        W90824  42.889  13.237   1.085
18510W        W90825  16.821  22.899   3.515
18511W        W90826  34.922  14.205   4.100
18512W        W90827  29.273  38.701  12.174
18513W        W90828  21.172   9.451  11.218
18514W        W90829   0.729  12.140   0.351
18515W        W90830   1.666  18.791   0.963
18516W        W90831  11.163  44.186   2.324
18517W        W90832  28.457  18.561   1.848
18518W        W90833  24.069  12.487   4.427
18519W        W90834  16.748   8.207  12.912
18520W        W90835   4.653  27.571  13.333
18521W        W90836   2.482  36.938  11.784
18522W        W90837  15.320   8.575  10.599
18523W        W90838  40.722  24.150  14.667
18524W        W90839  16.942  17.923   0.305
18525W        W90840  13.191   3.937   2.739
18526W        W90841  19.073  38.943  14.414
18527W        W90842  23.584  10.039  10.094
18528W        W90843  31.126  17.238  13.359
18529W        W90844  29.390  40.461  13.110
18530W        W90845  17.827   9.683  11.989
18531W        W90846  38.147  11.368  11.574
18532W        W90847  29.415   5.313   0.049
18533W        W90848  28.421  37.476  11.562
18534W        W90849  21.623  18.330  12.328
18535W        W90850   5.695  41.388  13.012
18536W        W90851  41.493  14.701  13.963
18537W        W90852  31.955   6.429  12.967
18538W        W90853   1.407  27.576   4.484
18539W        W90854  40.536   4.669  12.281
18540W        W90855  39.536  44.523  12.408
18541W        W90856  30.420  33.318  14.127
18542W        W90857  31.484  25.280   2.900
18543W        W90858  28.047   3.708  11.901
18544W        W90859  29.487  10.391  10.601
18545W        W90860  41.560  44.861  11.989
18546W        W90861  38.335  34.860  13.657
18547W        W90862  14.299  11.821   3.763
18548W        W90863  16.720  42.865  11.720
18549W        W90864  19.495  28.535   4.055
18550W        W90865  10.296  40.100   0.326
18551W        W90866   3.094   9.552   1.707
18552W        W90867  16.180   1.509  11.608
18553W        W90868   1.367   0.670   3.684
18554W        W90869   7.656  38.888   3.198
18555W        W90870  18.802   3.281   2.756
18556W        W90871  27.939  35.911   2.918
18557W        W90872  29.998   3.726  12.734
18558W        W90873   8.786  40.427   3.660
18559W        W90874   2.886   6.344   3.982
18560W        W90875  23.185  12.269   1.893
18561W        W90876  11.034  27.459   3.761
18562W        W90877  20.546   6.371  13.791
18563W        W90878  37.858  12.437  14.814
18564W        W90879  17.251  44.470   4.033
18565W        W90880  43.120   3.765   3.249
18566W        W90881  21.609  16.606  12.517
18567W        W90882  28.009  20.155  13.509
18568W        W90883  35.971  17.663   3.415
18569W        W90884  20.078   0.773   2.273
18570W        W90885   4.292   1.541  14.244
18571W        W90886   8.026  29.055  11.134
18572W        W90887  27.132  25.631   2.156
18573W        W90888  18.835  36.370  10.487
18574W        W90889  33.625  36.835   2.314
18575W        W90890   2.348   0.292   0.052
18576W        W90891  22.800   4.896  11.127
18577W        W90892  19.618  25.089   3.280
18578W        W90893   1.484  20.757  13.488
18579W        W90894  16.234  29.079  11.945
18580W        W90895  17.520   0.677   3.783
18581W        W90896  14.257  43.512   4.174
18582W        W90897  42.989  43.877  13.863
18583W        W90898  12.076  19.164   1.242
18584W        W90899   6.405   4.917  12.457
18585W        W90900  10.750  37.655   3.577
18586W        W90901   3.452  41.815   1.822
18587W        W90902  36.894  40.519   3.110
18588W        W90903  17.978   7.797  11.958
18589W        W90904   4.842  23.867   3.465
18590W        W90905  27.308  13.117   1.810
18591W        W90906  28.695  35.056   0.774
18592W        W90907  13.117  36.522  14.429
18593W        W90908  13.168  33.001   3.831
18594W        W90909  16.110  23.250   0.856
18595W        W90910  42.792  16.806   4.584
18596W        W90911   8.213   9.837   0.949
18597W        W90912  12.629  24.539   2.743
18598W        W90913  10.235  38.067  11.192
18599W        W90914  35.068  40.337  13.532
18600W        W90915  20.710   5.851   3.126
18601W        W90916  13.044  42.410  11.992
18602W        W90917  20.089   2.335   0.867
18603W        W90918  27.132  14.815  14.582
18604W        W90919  28.097  35.599  12.344
18605W        W90920  26.711  18.703   4.715
18606W        W90921   6.733  14.713   2.906
18607W        W90922  24.120  15.618  12.429
18608W        W90923   5.473  29.919  14.779
18609W        W90924  35.391  36.324   0.925
18610W        W90925  34.639  40.547  13.721
18611W        W90926  39.515   8.810  13.853
18612W        W90927   4.200  37.848   3.898
18613W        W90928  16.219  39.329   2.314
18614W        W90929  16.642   7.537  11.978
18615W        W90930  19.347   3.258   1.606
18616W        W90931  31.007  33.680  13.449
18617W        W90932  10.089  30.621   0.019
18618W        W90933  33.110  18.600  14.379
18619W        W90934   1.964  17.604  11.017
18620W        W90935  24.944  18.285  12.554
18621W        W90936   7.845  39.122   3.629
18622W        W90937  35.838   0.972   1.269
18623W        W90938  10.107  34.847   4.677
18624W        W90939  30.959  41.105  12.986
18625W        W90940  37.085  20.063   2.906
18626W        W90941  28.514  43.236  11.893
18627W        W90942  21.265  36.521   0.298
18628W        W90943  21.051  11.622   0.926
18629W        W90944  26.422   0.777   0.443
18630W        W90945  12.787  11.161   4.164
18631W        W90946  15.709   8.083  12.476
18632W        W90947   7.682  41.940   0.017
18633W        W90948  34.416  42.029   3.655
18634W        W90949   3.939  31.442  12.462
18635W        W90950  20.940  36.756  12.455
18636W        W90951  23.074  25.019   3.621
18637W        W90952  12.285  38.552  12.188
18638W        W90953   1.047  31.181  14.919
18639W        W90954   4.700   1.455  12.851
18640W        W90955   0.764  40.339  10.723
18641W        W90956  14.173  23.224   2.143
18642W        W90957  42.864  29.890   0.278
18643W        W90958   0.375  39.241   3.531
18644W        W90959   5.953  19.723  11.981
18645W        W90960  11.931  15.207   3.658
18646W        W90961  10.289   6.791  12.970
18647W        W90962   9.064  14.533  11.117
18648W        W90963  27.919   6.441  13.712
18649W        W90964  26.674  25.496   0.358
18650W        W90965  10.560   5.199   0.406
18651W        W90966  29.760   4.084   0.787
18652W        W90967  10.921  19.537  10.661
18653W        W90968  39.523  29.266  10.636
18654W        W90969  25.565   3.033  14.263
18655W        W90970  17.056   2.492   2.909
18656W        W90971  10.461  10.714   1.610
18657W        W90972  26.054   2.372  14.550
18658W        W90973   0.601  23.248   2.114
18659W        W90974  32.050  15.336   2.442
18660W        W90975  29.599  40.082   1.298
18661W        W90976  37.956  23.495   0.830
18662W        W90977   1.026  39.424  14.898
18663W        W90978  20.241   4.894  12.964
18664W        W90979  43.827  21.033   0.843
18665W        W90980  38.602  22.236   0.624
18666W        W90981   8.616  25.481   4.622
18667W        W90982  38.137  15.561   3.689
18668W        W90983  29.606   7.753   0.884
18669W        W90984  39.300  24.098  10.761
18670W        W90985   8.938  33.577  10.771
18671W        W90986  40.483  32.104  12.630
18672W        W90987  22.957   5.874   3.129
18673W        W90988  13.747   0.823  14.455
18674W        W90989  21.294  29.885   3.342
18675W        W90990  26.425  21.523   2.336
18676W        W90991  10.451  24.557  12.911
18677W        W90992  12.282  31.355  12.056
18678W        W90993  19.784  28.058  13.900
18679W        W90994  32.765  44.496  10.168
18680W        W90995   1.833   4.767  14.883
18681W        W90996  23.766   0.671  13.756
18682W        W90997  21.327  40.951   0.990
18683W        W90998   2.965   2.432  13.963
18684W        W90999   0.049  14.966   2.401
18685W        W91000  17.075  23.256  14.906
18686W        W91001  31.906   8.394   1.237
18687W        W91002  41.172  10.800  13.417
18688W        W91003  18.776  16.987   2.716
18689W        W91004  19.120  20.494  13.620
18690W        W91005  44.457   9.595  14.800
18691W        W91006  16.267  31.137  13.105
18692W        W91007  12.315  41.413  13.804
18693W        W91008  17.566  41.477   3.559
18694W        W91009  36.133  12.459   2.859
18695W        W91010  20.694  11.139  11.278
18696W        W91011  37.388  23.714   1.899
18697W        W91012   6.436   3.974  13.961
18698W        W91013  28.712  44.355   0.282
18699W        W91014   4.911  10.285  13.993
18700W        W91015  36.847   6.791   0.833
18701W        W91016  25.738  36.786   1.987
18702W        W91017  44.328  21.980  12.127
18703W        W91018   1.283  39.752   3.209
18704W        W91019  29.913  28.586   0.461
18705W        W91020  12.459  35.271  14.358
18706W        W91021  24.652  39.318   1.747
18707W        W91022  24.731   8.728   2.378
18708W        W91023  35.989  21.345  14.846
18709W        W91024  22.797  27.529   0.191
18710W        W91025   4.746   1.798   3.451
18711W        W91026   6.907  17.246   2.370
18712W        W91027  15.349  38.800  11.874
18713W        W91028  18.592  19.143  11.172
18714W        W91029  12.741   8.959   1.352
18715W        W91030   4.324  24.137  14.877
18716W        W91031  18.102  31.654  14.961
18717W        W91032  41.876   7.287  13.746
18718W        W91033  16.136  35.050  11.630
18719W        W91034   3.294  32.465  12.965
18720W        W91035   9.139  18.052   4.314
18721W        W91036  11.490  10.735  13.241
18722W        W91037  13.382  44.663   1.444
18723W        W91038  41.371  38.567   1.963
18724W        W91039  29.240  39.979  10.956
18725W        W91040  21.726  33.990   2.758
18726W        W91041  18.644  43.290  11.159
18727W        W91042  16.462  34.419  11.048
18728W        W91043  42.013   0.337  14.074
18729W        W91044  23.740  32.063   4.831
18730W        W91045  40.887   5.331   4.452
18731W        W91046  26.547   1.887  13.428
18732W        W91047  29.748  22.347   4.120
18733W        W91048  10.740   8.672   1.878
18734W        W91049  20.952   8.901   1.803
18735W        W91050  16.386  35.955   4.133
18736W        W91051   0.005  40.026  12.838
18737W        W91052   1.987  36.997  14.494
18738W        W91053  30.553   7.852  11.193
18739W        W91054  38.478  29.589  12.780
18740W        W91055  32.423  13.160  11.520
18741W        W91056   7.259  27.976  13.424
18742W        W91057  42.390  25.553   4.399
18743W        W91058  43.441   3.444  11.974
18744W        W91059  44.126  18.390  10.171
18745W        W91060   5.912   8.967   0.461
18746W        W91061  44.968  10.380  14.964
18747W        W91062  44.232  22.545  14.483
18748W        W91063  29.681  26.387  11.356
18749W        W91064  24.676  30.020  11.974
18750W        W91065   4.331  36.987   1.592
18751W        W91066  13.724  28.648   1.057
18752W        W91067   0.279  15.078   2.853
18753W        W91068  29.496   7.488  14.235
18754W        W91069  27.445  33.756  14.864
18755W        W91070  32.447  43.258  10.718
18756W        W91071   4.159  40.805  13.194
18757W        W91072   1.322  24.920  12.022
18758W        W91073  20.575  14.072   3.698
18759W        W91074  40.765  35.577  14.506
18760W        W91075   6.165  31.392  12.022
18761W        W91076  40.434  21.533   0.494
18762W        W91077  29.577  19.716   4.553
18763W        W91078   9.432  36.293  12.888
18764W        W91079  26.605  43.724   2.818
18765W        W91080   6.261  33.870  10.460
18766W        W91081  29.486  11.402   9.872
18767W        W91082  32.435  41.059   0.836
18768W        W91083  24.430  20.131  10.730
18769W        W91084  41.936  18.359   2.473
18770W        W91085  38.421   1.825   3.331
18771W        W91086  17.198   0.334   3.565
18772W        W91087  42.984   6.988  11.398
18773W        W91088  37.402  24.318  13.018
18774W        W91089   8.574  32.639   4.940
18775W        W91090  12.672  14.350  14.028
18776W        W91091  27.733  37.487   0.109
18777W        W91092  11.092   4.731  11.142
18778W        W91093  15.011  26.404  12.377
18779W        W91094  44.381  24.692   0.745
18780W        W91095  24.053  11.006  12.160
18781W        W91096  21.527  26.483   2.228
18782W        W91097  13.552  27.244   2.939
18783W        W91098  25.707   0.255  13.881
18784W        W91099   1.292   4.225  14.435
18785W        W91100  17.565  43.775   2.457
18786W        W91101   1.745  18.657  12.920
18787W        W91102  40.969   7.679  10.684
18788W        W91103  20.322  35.136   4.598
18789W        W91104  16.686  14.323   4.661
18790W        W91105  10.624  18.783   4.613
18791W        W91106  34.601  37.204  14.978
18792W        W91107  40.408  43.953   1.334
18793W        W91108  31.405   0.856   1.193
18794W        W91109  28.272  37.091   2.336
18795W        W91110  28.939  23.704  10.663
18796W        W91111  42.554  24.007   2.213
18797W        W91112  25.169  40.707   2.861
18798W        W91113  17.309  41.615  10.006
18799W        W91114   3.051  15.716   2.745
18800W        W91115  14.179  42.863  12.748
18801W        W91116  13.626  18.744   0.109
18802W        W91117   0.276   8.878   4.246
18803W        W91118  35.106  28.425   2.241
18804W        W91119  29.072  36.828   1.529
18805W        W91120  23.162  42.760   0.370
18806W        W91121  15.866  31.167   1.843
18807W        W91122  27.481   4.292  13.767
18808W        W91123  20.536  38.527   0.783
18809W        W91124  18.694   4.429   4.422
18810W        W91125  14.265   8.828   0.393
18811W        W91126  30.102  43.327   2.345
18812W        W91127  39.017   6.350  14.714
18813W        W91128  33.569  13.690   4.597
18814W        W91129  17.094  12.263  11.916
18815W        W91130  16.592   6.310   2.597
18816W        W91131  43.940   7.381  14.531
18817W        W91132  44.250   3.202   3.715
18818W        W91133  12.690   1.765   3.102
18819W        W91134  41.419  17.223  12.944
18820W        W91135  16.120  16.139  14.521
18821W        W91136  32.151   5.435   4.576
18822W        W91137  39.365   3.946   4.525
18823W        W91138  32.120  34.422   3.811
18824W        W91139  33.663  24.833   0.521
18825W        W91140  19.076  23.109  13.555
18826W        W91141  39.479  25.118   3.170
18827W        W91142  20.220  17.885  11.092
18828W        W91143   1.227  27.682  14.997
18829W        W91144   1.799   0.434  11.485
18830W        W91145  30.176   3.444   2.632
18831W        W91146  20.057  27.543  10.772
18832W        W91147   8.674  11.770  10.719
18833W        W91148  20.982   6.936  12.563
18834W        W91149   8.849  24.529   0.310
18835W        W91150   5.729  40.224   2.330
18836W        W91151  43.857  28.000   4.720
18837W        W91152  15.816  15.565   2.744
18838W        W91153   0.710  19.084   4.600
18839W        W91154  21.812  35.383   0.719
18840W        W91155  23.168   9.897   4.156
18841W        W91156   9.782  25.654   1.007
18842W        W91157  35.388  40.801   2.826
18843W        W91158   0.284   1.849  12.865
18844W        W91159  42.850  37.945  10.788
18845W        W91160  41.862   0.999   2.188
18846W        W91161  20.863   7.422   4.065
18847W        W91162  18.590   1.509   4.195
18848W        W91163  17.597  39.626  14.288
18849W        W91164  16.997   5.280  12.867
18850W        W91165  12.595  36.512   1.127
18851W        W91166  39.880  18.324  12.985
18852W        W91167  28.637  31.112   3.698
18853W        W91168  14.102  33.453   0.769
18854W        W91169  21.162  26.566   1.860
18855W        W91170  25.898  34.631  11.195
18856W        W91171   4.799   9.162   4.076
18857W        W91172  29.593   6.434   3.760
18858W        W91173  29.360  25.569  12.008
18859W        W91174  13.345  32.481  11.189
18860W        W91175   2.393  33.946   2.801
18861W        W91176  28.944   6.934   4.226
18862W        W91177   8.261  10.383   2.740
18863W        W91178  26.678  24.487   1.903
18864W        W91179  15.868  25.716  11.238
18865W        W91180  20.461   5.668  11.340
18866W        W91181  27.715  13.648   3.855
18867W        W91182  41.941  11.608  13.972
18868W        W91183  24.504  43.322  11.454
18869W        W91184  21.521  24.949   1.482
18870W        W91185  19.141  24.409   4.860
18871W        W91186   6.861  40.931  12.472
18872W        W91187  11.598   7.348  11.123
18873W        W91188  22.823  35.825  10.181
18874W        W91189  20.142  33.153  10.611
18875W        W91190  35.802  39.524  12.565
18876W        W91191  23.554   7.844  14.816
18877W        W91192   7.148   3.651  10.721
18878W        W91193  28.545  39.929  12.080
18879W        W91194  10.687  39.935   4.409
18880W        W91195  36.916   5.428  11.936
18881W        W91196  42.465   8.645  12.077
18882W        W91197   7.789   3.692   4.847
18883W        W91198  17.625  28.901  13.854
18884W        W91199  10.677  16.621  11.949
18885W        W91200   1.792   0.789  14.355
18886W        W91201  35.833   1.296  10.439
18887W        W91202  19.793  28.317  10.699
18888W        W91203  29.165  32.452   0.652
18889W        W91204  35.981   8.191   3.308
18890W        W91205  24.421   1.837  13.358
18891W        W91206  21.791  18.480  10.972
18892W        W91207  29.963  24.508   4.454
18893W        W91208   0.890  34.187   1.730
18894W        W91209  33.961  33.892   0.875
18895W        W91210  35.841   1.069  13.836
18896W        W91211  20.487  12.178   0.499
18897W        W91212  41.621  27.107  12.265
18898W        W91213  30.346  26.142  14.576
18899W        W91214   7.390  30.146   1.781
18900W        W91215  44.408  15.614   4.229
18901W        W91216  30.409   8.950  12.498
18902W        W91217   7.306  10.887  12.106
18903W        W91218   2.860  28.161  10.675
18904W        W91219  31.862  14.351   1.466
18905W        W91220  24.677   6.617   0.924
18906W        W91221  15.830  28.202   5.219
18907W        W91222   1.001  34.334  12.340
18908W        W91223  34.074  30.082   3.269
18909W        W91224  34.081  34.010  10.779
18910W        W91225  15.161  34.447  13.310
18911W        W91226  11.170  31.341  10.568
18912W        W91227  21.494  29.609   3.809
18913W        W91228   1.734  17.315  14.041
18914W        W91229   8.832  20.155   4.354
18915W        W91230  15.079  11.944   4.257
18916W        W91231  31.015  15.071   0.405
18917W        W91232  34.305  44.830  14.546
18918W        W91233  28.783  34.011   9.663
18919W        W91234  22.588  13.053   0.754
18920W        W91235  20.068  41.473  12.534
18921W        W91236  41.018  23.944   3.167
18922W        W91237  34.451  24.916  11.084
18923W        W91238  33.477  14.188   4.746
18924W        W91239  28.055  16.273   3.658
18925W        W91240  25.946  38.313   1.840
18926W        W91241   1.820  33.659   2.475
18927W        W91242  39.065  23.449  14.441
18928W        W91243  36.793  11.810  11.522
18929W        W91244  33.002  39.238   3.253
18930W        W91245  27.616  14.676   4.952
18931W        W91246  31.519  28.456   4.126
18932W        W91247  10.910  37.043  11.515
18933W        W91248  41.539   7.133  13.383
18934W        W91249   7.107  37.567  12.846
18935W        W91250  42.310  32.564  12.018
18936W        W91251  39.561  23.650  10.603
18937W        W91252   8.753  37.056   0.069
18938W        W91253   3.419  16.719   0.072
18939W        W91254  11.348  42.238  12.700
18940W        W91255  31.457  19.576   4.120
18941W        W91256  19.699  35.625  12.302
18942W        W91257  25.630   5.714  11.367
18943W        W91258  26.491   6.288  14.813
18944W        W91259  21.170   7.754   0.240
18945W        W91260  22.255  30.919  11.649
18946W        W91261   7.966  24.231  10.621
18947W        W91262  21.938  16.488   1.954
18948W        W91263   2.729  28.946   3.180
18949W        W91264  20.596  16.812  10.712
18950W        W91265   8.698  21.821   2.784
18951W        W91266   6.324  11.184   4.109
18952W        W91267  27.938   2.564   1.358
18953W        W91268  16.336  44.468  11.423
18954W        W91269  34.048  36.590   1.339
18955W        W91270  33.437  11.208  13.166
18956W        W91271  31.361   9.223   1.286
18957W        W91272  35.417   1.175  11.236
18958W        W91273  18.249  34.775   3.770
18959W        W91274  26.526  11.589  10.589
18960W        W91275  10.666   2.349  10.924
18961W        W91276  13.446  15.258  12.800
18962W        W91277  25.431   5.056   2.677
18963W        W91278  31.611  26.489   5.398
18964W        W91279  26.761  37.833  14.371
18965W        W91280  24.696   8.524  10.595
18966W        W91281  30.502  38.043  11.820
18967W        W91282  40.915  16.108   1.833
18968W        W91283  35.564  11.574  12.573
18969W        W91284  26.153  39.229  13.348
18970W        W91285  29.561   6.844   3.390
18971W        W91286  21.983   9.273   2.357
18972W        W91287   7.084  43.012  10.703
18973W        W91288  31.564  29.386  11.070
18974W        W91289   0.556  25.169   1.376
18975W        W91290  37.858  19.016  10.603
18976W        W91291  21.152  25.890   0.852
18977W        W91292  38.938  13.896  10.616
18978W        W91293  29.597  27.096   3.166
18979W        W91294  10.744   6.914   4.856
18980W        W91295  26.413   8.334  13.044
18981W        W91296  33.604   2.038   0.974
18982W        W91297   2.212  17.488  11.631
18983W        W91298   9.841  19.133   1.725
18984W        W91299  40.753  17.041  14.016
18985W        W91300   1.498   2.997  13.470
18986W        W91301  34.556  19.221  14.098
18987W        W91302   6.323  17.822   4.532
18988W        W91303  14.277   7.730  11.378
18989W        W91304  17.373  31.056  13.114
18990W        W91305  13.421  35.930   0.890
18991W        W91306   2.252  30.951  12.081
18992W        W91307  43.225  29.422  13.487
18993W        W91308  20.161  40.567   1.394
18994W        W91309   0.305  22.099  13.662
18995W        W91310  41.272  30.356  11.307
18996W        W91311  30.950  31.060   1.879
18997W        W91312  40.383   1.169   0.896
18998W        W91313  22.290  19.037  12.546
18999W        W91314  41.732  23.624  13.842
19000W        W91315  13.592  32.991  12.953
19001W        W91316   8.969   7.751   3.269
19002W        W91317   2.486   8.792   3.154
19003W        W91318  23.247  13.078   0.440
19004W        W91319   5.126  41.886  12.618
19005W        W91320   0.402  14.096  13.482
19006W        W91321  44.879   9.905  10.064
19007W        W91322  10.681  43.940   3.724
19008W        W91323  37.363   0.275   4.202
19009W        W91324  23.155  43.297   2.534
19010W        W91325   4.371  17.303  11.037
19011W        W91326  34.894  21.505  10.462
19012W        W91327   8.311  35.982   4.917
19013W        W91328  36.468  15.360  12.066
19014W        W91329  30.155  44.104  11.982
19015W        W91330  26.299  35.414   2.941
19016W        W91331  37.461  11.301   0.284
19017W        W91332   0.587  17.083   0.589
19018W        W91333  36.997  16.992   4.559
19019W        W91334  21.255  35.811   1.934
19020W        W91335  28.102  30.966   4.360
19021W        W91336   2.956  34.978   4.114
19022W        W91337  18.712  17.487  14.296
19023W        W91338   8.971   9.215  12.121
19024W        W91339  21.743  28.524   0.578
19025W        W91340  31.987  12.565   2.161
19026W        W91341  31.526  20.495   4.466
19027W        W91342  17.831  29.377  13.974
19028W        W91343  34.272  21.492   5.187
19029W        W91344   9.267  22.278   1.454
19030W        W91345  19.104   5.817  11.422
19031W        W91346   7.005  28.102   3.760
19032W        W91347  13.381   7.659  12.940
19033W        W91348   6.432  16.118  10.986
19034W        W91349  33.476  15.534  14.457
19035W        W91350  39.441  31.055   2.307
19036W        W91351  15.916  38.818   1.219
19037W        W91352   1.952  37.425   3.919
19038W        W91353   0.342  28.077  12.059
19039W        W91354   2.363  17.590  14.387
19040W        W91355  35.105  36.358   1.799
19041W        W91356  23.175  22.816   9.639
19042W        W91357  22.080  26.409  11.607
19043W        W91358  11.901  19.205   4.704
19044W        W91359  18.383  33.122  14.012
19045W        W91360  42.448  31.043   4.294
19046W        W91361   0.862   8.433   5.019
19047W        W91362   5.016   7.724   0.961
19048W        W91363  25.766  34.105  11.176
19049W        W91364  37.916  31.075  14.377
19050W        W91365  14.767   8.971   4.978
19051W        W91366  17.738  10.602  11.914
19052W        W91367  11.883  16.196   1.905
19053W        W91368   8.309  39.983   2.101
19054W        W91369  11.716  24.070  14.083
19055W        W91370  30.224  19.590  11.555
19056W        W91371   9.148  19.990   1.479
19057W        W91372  28.203   8.988   2.216
19058W        W91373  23.742  32.009   3.305
19059W        W91374   3.226  31.585  11.512
19060W        W91375   9.755  26.752  11.731
19061W        W91376  11.854  43.890  13.113
19062W        W91377  19.164   7.310   3.463
19063W        W91378  17.874  36.137   2.797
19064W        W91379   4.754  19.604  12.437
19065W        W91380  37.215  10.862   3.317
19066W        W91381  25.933   1.909   3.448
19067W        W91382   1.344  28.504   0.420
19068W        W91383   5.626  22.498   0.781
19069W        W91384  26.356  24.315  10.812
19070W        W91385  41.511  41.387  13.757
19071W        W91386  16.793  38.445  10.604
19072W        W91387  24.557   3.813  13.914
19073W        W91388  43.519   5.189   1.748
19074W        W91389  38.887  44.576   3.792
19075W        W91390  25.739  33.863  14.549
19076W        W91391  29.598   3.789   2.309
19077W        W91392  21.024   2.479  13.148
19078W        W91393   0.435  32.442  14.347
19079W        W91394  12.079  18.282  13.957
19080W        W91395  24.814  40.741  13.174
19081W        W91396   6.305  21.092   0.749
19082W        W91397  17.824  29.696   0.919
19083W        W91398  35.677  35.981   3.354
19084W        W91399  10.381  22.243   0.312
19085W        W91400  30.679   9.196   3.683
19086W        W91401   4.703  37.491  10.707
19087W        W91402  25.711   5.207   4.521
19088W        W91403  12.687  38.816   2.921
19089W        W91404  21.038   1.883   2.401
19090W        W91405  25.551  21.842   0.580
19091W        W91406  44.186  18.029   2.259
19092W        W91407  44.998  42.421  13.335
19093W        W91408  23.562  44.928  14.431
19094W        W91409  18.063  21.790  13.499
19095W        W91410   0.942   3.718   4.293
19096W        W91411  10.393  22.027   2.756
19097W        W91412   9.652  36.572  10.798
19098W        W91413   4.268  26.238   4.141
19099W        W91414  43.600  43.957   0.717
19100W        W91415  36.354   8.797  10.595
19101W        W91416  15.089  35.464  10.774
19102W        W91417  14.794  35.637   0.392
19103W        W91418   1.278  34.368   4.103
19104W        W91419  43.610   7.199   0.323
19105W        W91420  26.665  36.297   2.502
19106W        W91421  13.589  15.577   2.308
19107W        W91422   7.749  23.432  13.953
19108W        W91423  13.705  33.888  14.853
19109W        W91424  21.521  13.080  13.859
19110W        W91425  21.462  13.581   3.732
19111W        W91426  18.795  19.798   3.037
19112W        W91427  36.829   2.342  12.426
19113W        W91428  29.909   7.457  12.900
19114W        W91429  16.626  34.600  13.293
19115W        W91430  37.924  40.876   2.594
19116W        W91431  25.778  10.200   4.735
19117W        W91432  14.757  32.198   0.229
19118W        W91433  30.910  44.008   3.247
19119W        W91434  36.404  29.556   3.639
19120W        W91435  36.081  35.570  13.152
19121W        W91436   6.139  29.438   3.752
19122W        W91437   1.239  30.693  11.112
19123W        W91438  36.830   9.088   2.528
19124W        W91439  42.432  18.858  14.294
19125W        W91440  12.883  16.636   0.728
19126W        W91441  41.955  41.096  11.676
19127W        W91442  44.987  32.814  14.310
19128W        W91443  28.682  10.705   3.553
19129W        W91444  23.547  18.216  12.261
19130W        W91445   1.197  31.419   2.199
19131W        W91446   1.447  23.566   3.950
19132W        W91447  41.820  37.000  10.727
19133W        W91448  12.756  29.553  12.775
19134W        W91449   1.185  39.363   1.301
19135W        W91450  20.530  17.369  14.840
19136W        W91451   4.376  32.932  13.464
19137W        W91452  28.025   0.140  12.018
19138W        W91453  31.236   0.235  11.547
19139W        W91454  28.403  30.003   4.571
19140W        W91455  37.448  28.137  14.237
19141W        W91456  41.033  13.851   3.126
19142W        W91457  40.278   8.779   5.049
19143W        W91458   9.635  34.068  14.883
19144W        W91459  21.732  37.589   2.422
19145W        W91460  20.102  42.070   4.693
19146W        W91461  24.635  28.515   1.537
19147W        W91462   0.781  38.008   2.092
19148W        W91463  26.606   4.834  13.436
19149W        W91464  24.612  19.750  11.512
19150W        W91465  12.149  15.717  14.458
19151W        W91466  24.382  29.936  10.768
19152W        W91467   6.023  32.125   1.189
19153W        W91468  10.814  25.451  13.806
19154W        W91469  41.984  23.193   1.566
19155W        W91470  40.669  25.364  13.287
19156W        W91471  18.061  15.288  14.204
19157W        W91472  20.620  43.732   0.332
19158W        W91473  26.190  15.879   3.676
19159W        W91474  30.940  33.974  11.822
19160W        W91475  13.445  37.604   0.235
19161W        W91476  42.987  42.338   1.392
19162W        W91477  39.249   7.278   1.470
19163W        W91478  35.890  15.497  12.541
19164W        W91479  20.341  17.113  13.499
19165W        W91480  27.717  40.331   5.113
19166W        W91481  42.442  27.986   3.652
19167W        W91482  14.543  33.755   0.825
19168W        W91483  13.595  28.078  12.561
19169W        W91484  20.754  31.949  10.839
19170W        W91485  28.511  28.061   2.386
19171W        W91486  16.103  32.170  11.238
19172W        W91487  29.567  39.021  13.884
19173W        W91488  34.913  33.952  14.823
19174W        W91489  43.457  43.502   3.619
19175W        W91490  33.923  16.364  13.993
19176W        W91491  33.171  25.869   3.751
19177W        W91492  21.485  27.208  14.542
19178W        W91493  24.175   6.460   2.294
19179W        W91494  15.586   9.933   0.021
19180W        W91495  13.043  29.082  10.975
19181W        W91496  27.461  16.914  13.811
19182W        W91497  17.520  25.158  12.071
19183W        W91498  12.969  42.885   4.626
19184W        W91499  22.825  15.586   2.238
19185W        W91500  37.492  10.675   2.445
19186W        W91501  11.180  29.538  11.138
19187W        W91502   7.376  38.909   3.656
19188W        W91503   3.115  43.654  13.939
19189W        W91504  25.267  40.829   4.597
19190W        W91505  33.439  10.762  11.873
19191W        W91506  19.272  20.364   2.601
19192W        W91507  22.580  13.681  14.340
19193W        W91508  32.878  20.809   2.589
19194W        W91509  11.731   1.442  13.812
19195W        W91510  29.662   5.483  12.147
19196W        W91511  19.115   4.213  13.939
19197W        W91512  29.192  14.218  10.122
19198W        W91513  31.371  27.603   2.880
19199W        W91514  24.585  30.606  14.592
19200W        W91515  36.775  33.452  13.653
19201W        W91516  20.807  11.624  11.479
19202W        W91517  32.684  30.979  13.449
19203W        W91518  17.728  15.141   1.091
19204W        W91519  31.036  25.525  11.601
19205W        W91520  14.810  28.093  10.724
19206W        W91521  44.908  34.846   2.882
19207W        W91522  30.487  29.602   1.735
19208W        W91523  34.459  41.931  14.607
19209W        W91524  18.112   9.366  11.656
19210W        W91525  34.610   7.104  14.362
19211W        W91526   7.167  31.913   0.050
19212W        W91527   8.124   7.533  14.774
19213W        W91528  43.411  22.636   1.921
19214W        W91529   8.854   1.562  12.966
19215W        W91530  29.275  30.382   2.417
19216W        W91531  21.336  35.099   3.306
19217W        W91532  35.900  38.963  11.947
19218W        W91533  13.013  38.926  10.630
19219W        W91534  10.091  24.591   4.901
19220W        W91535  12.539  12.384  12.340
19221W        W91536   1.717  31.414   2.199
19222W        W91537   0.959  13.216  14.998
19223W        W91538  10.672   0.973   2.332
19224W        W91539  24.259  30.462   0.380
19225W        W91540  40.438   9.691  13.096
19226W        W91541   3.708  41.411  10.587
19227W        W91542   2.238  44.475   0.944
19228W        W91543  25.681  31.391  14.484
19229W        W91544  21.188  22.133   3.302
19230W        W91545  31.860  23.542  12.904
19231W        W91546   7.453  33.853   3.608
19232W        W91547   3.870   2.838  12.451
19233W        W91548  40.573  34.019   2.787
19234W        W91549  21.050  36.201   5.108
19235W        W91550  21.019  38.283   0.841
19236W        W91551   4.195  10.896  12.476
19237W        W91552  17.735  31.060  12.082
19238W        W91553  42.845  28.236   4.970
19239W        W91554   8.267  23.231   2.456
19240W        W91555  12.307  42.769  12.485
19241W        W91556  42.568   3.422  13.605
19242W        W91557  37.419  44.536  14.382
19243W        W91558   8.147  36.407   1.914
19244W        W91559  31.916   7.214   4.099
19245W        W91560  34.827  41.701   3.743
19246W        W91561  32.810  44.178  13.290
19247W        W91562  43.914  39.985   1.492
19248W        W91563  18.747   8.672   0.256
19249W        W91564  16.583   7.281  10.645
19250W        W91565  26.985  36.899   4.504
19251W        W91566  20.535  18.581  12.552
19252W        W91567   5.273  31.618  13.576
19253W        W91568  11.601  22.312  11.670
19254W        W91569  17.654  19.617  13.556
19255W        W91570  39.872  42.387   2.724
19256W        W91571  18.976   3.391  10.667
19257W        W91572  41.785  15.190   3.151
19258W        W91573  32.601  38.602  12.499
19259W        W91574  40.338  20.029  11.689
19260W        W91575  24.610  20.121  14.901
19261W        W91576  16.639  22.964  13.148
19262W        W91577  35.884   4.636  14.269
19263W        W91578  15.164  20.059   1.072
19264W        W91579   6.993  42.061   1.361
19265W        W91580  29.292   9.551   1.507
19266W        W91581   0.320  16.557   2.780
19267W        W91582   9.701  38.991   3.120
19268W        W91583  38.812   2.664  10.188
19269W        W91584  25.887  16.850   3.753
19270W        W91585  43.286  40.042  13.299
19271W        W91586  20.220  35.149   0.324
19272W        W91587  23.984  43.725   2.573
19273W        W91588  43.056  36.020  14.374
19274W        W91589  26.428  17.691  14.402
19275W        W91590  11.798  16.058   1.407
19276W        W91591  35.534  16.513  14.363
19277W        W91592  41.051  24.456  11.925
19278W        W91593  14.097   7.239  11.534
19279W        W91594  43.799  34.394  10.763
19280W        W91595  35.117  13.361   0.846
19281W        W91596   4.642  27.237  14.941
19282W        W91597  38.945  38.348   3.151
19283W        W91598  23.616  41.103  13.315
19284W        W91599  40.805  32.246  11.068
19285W        W91600  31.940  31.403   1.262
19286W        W91601  36.428  28.101   3.661
19287W        W91602  33.034  36.267  10.739
19288W        W91603  42.222  31.493  14.342
19289W        W91604  15.632  14.626  11.538
19290W        W91605  34.575  40.562   1.742
19291W        W91606  30.808   8.392  12.097
19292W        W91607  15.160  17.786   4.079
19293W        W91608  26.128  17.290  13.473
19294W        W91609  17.799  36.506  13.469
19295W        W91610   2.872  19.537   3.266
19296W        W91611  40.528   4.060   4.745
19297W        W91612  33.416  23.345   5.146
19298W        W91613  36.518   9.676   2.857
19299W        W91614  10.252  26.076  13.290
19300W        W91615  35.592  31.407   4.867
19301W        W91616  41.240  26.176  10.847
19302W        W91617  13.632  21.647   0.802
19303W        W91618  41.161   9.227  12.850
19304W        W91619  37.854   5.404  14.953
19305W        W91620  40.493  36.495  10.490
19306W        W91621  30.630   4.705  14.826
19307W        W91622   0.191  17.910   4.123
19308W        W91623  16.874  11.951  10.978
19309W        W91624  28.517   9.236   4.662
19310W        W91625  18.722  37.903   4.411
19311W        W91626  44.785   3.778   1.007
19312W        W91627  42.414   8.996  13.406
19313W        W91628  33.079  16.344   1.730
19314W        W91629  44.238  41.834  11.202
19315W        W91630  22.097   4.444   3.744
19316W        W91631   7.974  23.371   4.354
19317W        W91632  16.170  19.779   3.803
19318W        W91633  39.528  17.062  12.019
19319W        W91634   9.719  41.033   2.829
19320W        W91635  12.631  13.824   3.848
19321W        W91636  43.363  30.655  10.351
19322W        W91637  26.608  25.799   3.331
19323W        W91638  39.937  12.548  11.552
19324W        W91639   8.793   7.563   4.085
19325W        W91640  33.609  29.145   4.229
19326W        W91641  39.070  15.651   3.233
19327W        W91642  27.999  29.950   0.586
19328W        W91643   4.414  30.643   0.032
19329W        W91644  26.255  24.017  12.037
19330W        W91645   3.254  15.419   0.957
19331W        W91646   1.987  11.180  13.020
19332W        W91647  21.475  38.024   0.967
19333W        W91648  31.171  19.044   1.461
19334W        W91649  16.066  43.339   2.165
19335W        W91650  19.488  35.160   1.837
19336W        W91651   6.219   2.974  14.122
19337W        W91652  22.572  21.990   4.199
19338W        W91653   5.899   4.986  11.580
19339W        W91654   9.253  23.591   3.173
19340W        W91655  39.510  44.231   2.629
19341W        W91656  34.745  22.505   4.164
19342W        W91657  27.273  15.460   3.265
19343W        W91658  21.976   3.391  11.681
19344W        W91659  35.431  36.514  12.372
19345W        W91660  14.492  25.696   3.336
19346W        W91661  42.073   8.444   3.170
19347W        W91662  15.063  17.088  12.144
19348W        W91663  20.788  25.132   1.878
19349W        W91664   8.855  34.451  11.758
19350W        W91665  41.845  33.334  14.892
19351W        W91666  15.088  31.940  13.821
19352W        W91667  42.017  25.631  12.177
19353W        W91668  35.846  13.319  13.443
19354W        W91669  14.650  10.383  14.971
19355W        W91670  27.685  22.144   0.710
19356W        W91671   4.711   0.767  12.564
19357W        W91672  24.668  11.062   1.636
19358W        W91673   6.631  16.811   2.351
19359W        W91674  21.854  17.466   0.937
19360W        W91675   0.674   6.365   1.156
19361W        W91676  42.537  31.072  14.258
19362W        W91677  37.244  40.479  13.750
19363W        W91678   6.557   4.670  11.089
19364W        W91679  36.675  38.384   0.010
19365W        W91680   7.249  24.423   5.102
19366W        W91681  19.154  41.536  12.054
19367W        W91682  23.732  44.199  13.820
19368W        W91683  13.536  18.750   1.373
19369W        W91684   8.653  11.692   4.049
19370W        W91685  10.219  29.711   5.050
19371W        W91686  44.381  15.089   0.368
19372W        W91687  44.209  17.112  13.948
19373W        W91688  29.433   8.219   0.674
19374W        W91689   2.130   0.514   1.059
19375W        W91690  16.872  10.891  12.007
19376W        W91691  25.466  36.421  11.600
19377W        W91692  15.694  30.935   1.382
19378W        W91693   6.802  13.089  12.516
19379W        W91694  17.186  43.051  11.933
19380W        W91695  10.739  22.763   2.805
19381W        W91696  31.156   6.484   0.244
19382W        W91697  39.156  21.153  11.155
19383W        W91698   6.938  14.206   0.898
19384W        W91699   8.303   0.256  13.968
19385W        W91700  43.271   7.739   3.645
19386W        W91701  20.401  11.032   2.263
19387W        W91702  12.054   3.227  14.487
19388W        W91703  26.547  30.817  14.537
19389W        W91704  32.136  16.120  12.579
19390W        W91705  15.767   8.181   1.917
19391W        W91706  20.246   3.658   0.386
19392W        W91707  32.612  43.235  14.966
19393W        W91708   1.337  30.888   0.282
19394W        W91709  19.524  11.800   2.681
19395W        W91710  13.980   0.658   0.781
19396W        W91711  25.944   2.222  13.005
19397W        W91712  11.895   2.454  12.982
19398W        W91713  21.199  31.972  14.868
19399W        W91714  36.884  41.456  12.958
19400W        W91715  37.342  22.837  11.101
19401W        W91716  44.899  27.404   2.199
19402W        W91717  35.744  16.313   1.230
19403W        W91718  30.092   6.825   3.447
19404W        W91719   7.811  44.121   3.221
19405W        W91720   6.158  19.613   3.363
19406W        W91721  32.399  44.330   4.642
19407W        W91722  34.813  21.680   2.475
19408W        W91723  13.349  39.309   3.742
19409W        W91724  13.649  27.570  14.302
19410W        W91725  29.408  32.255   1.822
19411W        W91726   0.855  38.524   3.192
19412W        W91727  32.079  19.289  14.772
19413W        W91728  33.138  26.107  13.030
19414W        W91729  42.759   9.099  10.797
19415W        W91730   7.174   0.326  10.732
19416W        W91731   3.440  21.060  11.630
19417W        W91732  12.646  19.525   3.816
19418W        W91733  36.965   7.957  12.047
19419W        W91734  25.740  36.748   0.368
19420W        W91735  21.515  16.786   4.590
19421W        W91736   6.308   2.481  12.017
19422W        W91737  27.450   2.411  11.966
19423W        W91738  32.070  34.827  12.146
19424W        W91739   5.912  20.046   1.688
19425W        W91740   8.897   3.818   2.781
19426W        W91741  27.006  12.305   2.730
19427W        W91742  33.332  28.100   0.462
19428W        W91743   4.660  40.377  12.401
19429W        W91744  17.735   5.894   1.892
19430W        W91745   1.009   0.499  13.417
19431W        W91746  38.844  22.290  12.405
19432W        W91747  13.316   2.307   3.277
19433W        W91748  19.250  14.580  12.760
19434W        W91749  35.342  22.539   0.528
19435W        W91750   6.237  41.997  13.437
19436W        W91751  26.418  17.804   2.668
19437W        W91752  11.138   9.793  11.633
19438W        W91753  32.110   6.974   0.410
19439W        W91754  38.447  21.006  13.865
19440W        W91755  22.512  20.256   1.953
19441W        W91756  18.498  30.559  12.832
19442W        W91757  22.599   9.736   0.369
19443W        W91758   5.234  39.312   4.119
19444W        W91759   8.714  14.285   3.676
19445W        W91760  38.441  44.847   1.147
19446W        W91761  39.366  27.692   4.803
19447W        W91762   7.818  13.445  11.031
19448W        W91763  14.705  34.924   2.744
19449W        W91764  16.266   2.191   0.868
19450W        W91765  17.497  20.729  11.914
19451W        W91766  21.621  19.888  10.219
19452W        W91767  36.606  27.146   2.235
19453W        W91768  30.032  36.401   3.398
19454W        W91769   7.148  24.244   3.291
19455W        W91770  21.141  16.824  14.430
19456W        W91771  15.644  39.348  12.100
19457W        W91772  28.946  14.182   4.527
19458W        W91773  40.351  39.871  12.609
19459W        W91774   8.742  21.210   0.501
19460W        W91775  41.387  22.248  14.243
19461W        W91776  26.748  19.215   4.716
19462W        W91777  32.400  35.552   3.243
19463W        W91778  25.377  25.106  11.086
19464W        W91779  25.987  20.037  13.585
19465W        W91780   4.653   0.788   2.627
19466W        W91781  11.279  22.611   2.625
19467W        W91782   2.787  21.544  11.942
19468W        W91783   7.099  16.519  12.308
19469W        W91784   7.856  34.639  13.849
19470W        W91785  14.132  42.224   0.631
19471W        W91786  16.183   5.942   3.673
19472W        W91787   8.315  28.544   2.702
19473W        W91788  37.540   4.393   0.795
19474W        W91789  17.068  11.239   1.967
19475W        W91790  32.070  16.142  14.243
19476W        W91791   1.932   6.623   2.991
19477W        W91792  38.071   6.976  14.207
19478W        W91793  19.274   0.245   0.748
19479W        W91794   4.326  34.085  10.530
19480W        W91795   4.278  34.387  10.960
19481W        W91796  28.067   2.391  14.825
19482W        W91797  43.875   3.174  10.987
19483W        W91798  30.879  20.769   1.071
19484W        W91799   1.343  12.086   1.243
19485W        W91800  39.430  19.603   0.977
19486W        W91801  24.211   1.666   3.239
19487W        W91802  27.128   4.910   0.343
19488W        W91803   5.242  14.568   1.973
19489W        W91804  34.402  41.396  12.078
19490W        W91805  10.861  44.529   2.039
19491W        W91806  21.000   1.204   0.179
19492W        W91807  44.242  26.165   0.859
19493W        W91808  30.725  26.673   2.697
19494W        W91809   2.958  18.060  11.791
19495W        W91810   0.468  10.524  10.616
19496W        W91811  18.136  26.443  12.798
19497W        W91812   8.452  39.434  10.881
19498W        W91813  38.954  29.078  12.019
19499W        W91814  32.497  19.790   0.502
19500W        W91815  32.306  11.292  14.118
19501W        W91816  37.349  28.548   4.614
19502W        W91817   9.183  31.030   2.442
19503W        W91818   9.841  40.885   1.088
19504W        W91819  23.322  39.350  11.058
19505W        W91820   9.085  13.153   2.888
19506W        W91821   3.227  44.863   4.088
19507W        W91822  38.456  25.005  14.319
19508W        W91823  10.872  23.921  13.692
19509W        W91824   5.828   5.865  13.490
19510W        W91825  36.530  35.328  13.211
19511W        W91826  15.033  43.827   3.295
19512W        W91827  28.267  36.231  11.630
19513W        W91828  23.535   6.899   0.351
19514W        W91829  37.744  31.120   4.165
19515W        W91830  35.680  41.490  12.421
19516W        W91831  44.613  13.204   0.478
19517W        W91832  22.490  43.094   4.679
19518W        W91833  24.317  35.941   2.686
19519W        W91834  16.261  28.435  11.074
19520W        W91835  18.132   2.801   4.430
19521W        W91836   6.449  22.991  11.659
19522W        W91837  16.578  41.573  11.139
19523W        W91838  15.105  10.258  12.588
19524W        W91839  14.744  28.073   4.331
19525W        W91840  24.986  39.929  14.313
19526W        W91841  12.705  37.944  12.496
19527W        W91842  10.878  40.988  13.327
19528W        W91843  27.206  41.845  12.020
19529W        W91844  11.956  21.150   5.171
19530W        W91845  25.429  34.541  13.906
19531W        W91846   4.794  18.088   1.289
19532W        W91847  39.848  20.800   2.817
19533W        W91848  17.659  16.034   1.781
19534W        W91849  41.457  41.336   2.923
19535W        W91850   4.153  21.777   2.246
19536W        W91851  18.869  33.072   4.723
19537W        W91852   8.458  27.620  13.636
19538W        W91853  13.140  44.747   4.663
19539W        W91854  34.744   0.471  14.962
19540W        W91855   5.416   8.815   1.393
19541W        W91856   4.191  10.590   3.635
19542W        W91857  13.826  29.097  12.701
19543W        W91858  33.614  31.617  10.210
19544W        W91859  15.326  27.969   0.843
19545W        W91860  34.510  29.354   0.535
19546W        W91861   2.366   1.301   2.664
19547W        W91862  20.686   9.659  11.959
19548W        W91863  10.668  16.749   2.245
19549W        W91864   3.787  31.496   1.257
19550W        W91865  35.003  35.644  11.625
19551W        W91866  10.223   9.123  10.860
19552W        W91867  16.706   0.424  12.800
19553W        W91868   2.427  16.791  12.852
19554W        W91869  20.331  25.673  11.045
19555W        W91870  18.082   3.215  10.252
19556W        W91871  24.208   5.951   2.220
19557W        W91872  29.142  33.215  10.988
19558W        W91873   3.779   3.457   1.775
19559W        W91874  37.804  43.258  14.563
19560W        W91875  38.406  24.457   1.758
19561W        W91876  13.252  13.285  14.934
19562W        W91877  21.771   8.303  14.561
19563W        W91878  30.111  21.737  11.118
19564W        W91879   9.370  23.205  12.422
19565W        W91880  15.733  10.211  10.212
19566W        W91881   8.837  44.111   1.271
19567W        W91882  40.701   0.782   4.572
19568W        W91883   5.724  30.952   0.523
19569W        W91884  28.930   7.874   0.261
19570W        W91885  29.397  28.539  13.757
19571W        W91886  33.827  44.251  11.042
19572W        W91887  36.523  23.526  14.053
19573W        W91888   8.271  11.131  12.568
19574W        W91889   5.322  12.769  10.943
19575W        W91890   1.128  25.043  13.494
19576W        W91891  31.112  10.597   1.380
19577W        W91892  38.921  25.196  14.996
19578W        W91893   6.017  29.552   0.782
19579W        W91894   3.377  35.791  13.025
19580W        W91895  22.673   1.982   1.268
19581W        W91896  31.462  25.990  12.435
19582W        W91897  17.771  43.228  11.619
19583W        W91898  33.095  16.141  11.009
19584W        W91899   1.971  17.092  13.595
19585W        W91900   1.328  28.475   3.297
19586W        W91901  28.707  15.469   1.713
19587W        W91902  39.907   5.251  11.201
19588W        W91903  42.332  16.967   0.337
19589W        W91904  24.545   4.741  11.916
19590W        W91905  25.652   1.562  14.375
19591W        W91906  15.286  37.494  12.181
19592W        W91907   0.465  17.835   3.264
19593W        W91908  17.184  28.008   1.228
19594W        W91909   4.801  10.937  10.025
19595W        W91910  36.091  25.562  13.099
19596W        W91911  13.553  25.135   4.768
19597W        W91912  29.593  13.127  10.128
19598W        W91913  25.063  18.847   4.318
19599W        W91914   2.770  39.430   3.223
19600W        W91915  30.586   8.529   4.188
19601W        W91916   5.278  22.518  13.449
19602W        W91917  18.068  31.007  10.621
19603W        W91918  37.322   8.934  12.318
19604W        W91919  29.078  16.053  14.033
19605W        W91920   5.150  13.650   3.940
19606W        W91921  22.573  19.762   2.672
19607W        W91922  29.246  33.816  12.385
19608W        W91923  15.966  38.769  14.908
19609W        W91924  44.793  28.477  11.026
19610W        W91925   4.857   7.434  13.320
19611W        W91926  31.800   3.071   3.657
19612W        W91927   6.151  23.231  12.010
19613W        W91928   8.422   3.235  11.435
19614W        W91929  37.591  38.798   2.292
19615W        W91930  15.316  26.979   3.794
19616W        W91931  29.949  27.468  11.668
19617W        W91932  19.512  22.167  12.549
19618W        W91933  38.585   7.249   2.471
19619W        W91934  18.362  32.723  13.338
19620W        W91935  18.061  19.001  13.944
19621W        W91936  29.193  11.243   2.843
19622W        W91937   8.835   9.087   1.759
19623W        W91938   9.784   6.672   1.314
19624W        W91939  18.942  21.494   4.590
19625W        W91940  18.891  23.274  11.986
19626W        W91941  41.506  27.679   0.985
19627W        W91942  42.036   3.512  12.313
19628W        W91943  42.349  38.829  11.009
19629W        W91944  28.748  36.839   3.154
19630W        W91945  36.117  29.460  12.070
19631W        W91946  14.678  26.670   2.817
19632W        W91947  25.455  12.134  14.520
19633W        W91948  29.004  27.915   2.537
19634W        W91949  30.694  44.397   0.314
19635W        W91950  44.223  10.797   0.314
19636W        W91951  17.694   1.380  14.257
19637W        W91952  28.152  26.718  14.839
19638W        W91953  24.112  33.574   0.975
19639W        W91954  44.777  29.115   4.100
19640W        W91955  23.021  15.904  14.329
19641W        W91956   0.492  19.085  12.299
19642W        W91957  28.374  14.208   2.571
19643W        W91958   0.038   2.292  14.836
19644W        W91959  19.075  37.756  11.604
19645W        W91960  13.403   0.004  10.633
19646W        W91961  15.026  22.678  13.998
19647W        W91962  37.681  27.998  11.434
19648W        W91963  43.211   1.849  11.028
19649W        W91964  33.650   9.582  11.239
19650W        W91965  23.625  30.421  12.494
19651W        W91966  41.031   4.809   0.554
19652W        W91967  15.051   8.660   3.407
19653W        W91968   6.223  26.979   0.284
19654W        W91969  33.479  22.030  11.141
19655W        W91970   2.479  31.398   2.721
19656W        W91971  27.793  25.316   2.691
19657W        W91972   0.464  14.639   0.445
19658W        W91973  22.942  34.328  13.362
19659W        W91974  21.633  24.245  14.739
19660W        W91975  20.723  29.284  14.969
19661W        W91976  36.094   7.622   0.704
19662W        W91977   1.653  29.014  13.051
19663W        W91978  28.057   7.469   2.363
19664W        W91979  34.686  32.912  10.732
19665W        W91980  39.602  26.137   5.194
19666W        W91981  41.484   3.242  14.007
19667W        W91982  10.686  42.582   2.864
19668W        W91983  21.171  13.222   1.847
19669W        W91984   8.921  36.295   1.330
19670W        W91985  20.619  26.759  14.369
19671W        W91986  32.583  10.151   1.915
19672W        W91987  28.119  17.765  10.633
19673W        W91988   1.417  14.219   4.234
19674W        W91989  10.104   1.274   4.605
19675W        W91990  39.999  32.017  10.581
19676W        W91991  23.718   7.857  12.898
19677W        W91992  22.707  28.416   4.141
19678W        W91993  30.225  36.502  11.078
19679W        W91994  17.277  31.534   4.082
19680W        W91995  39.020   6.368   2.215
19681W        W91996  40.897  15.058  12.859
19682W        W91997  20.587  33.053   0.892
19683W        W91998  37.351   2.260   3.841
19684W        W91999  32.005  24.538  12.088
19685W        W92000  14.303  40.256  14.163
19686W        W92001  40.328   8.105   1.709
19687W        W92002  25.245  37.401   3.055
19688W        W92003  35.628   9.628   0.468
19689W        W92004  43.903  10.135   4.614
19690W        W92005  37.881  31.200  12.512
19691W        W92006  23.545  11.693   0.382
19692W        W92007  34.391  42.487   0.598
19693W        W92008   8.594  34.406   2.880
19694W        W92009  37.315  31.031   1.728
19695W        W92010  43.954  28.938  10.450
19696W        W92011  26.893  40.241   0.855
19697W        W92012  17.525  27.291  13.893
19698W        W92013  41.364  11.794   3.382
19699W        W92014  39.186  36.783   1.196
19700W        W92015   1.058   9.259  13.298
19701W        W92016  30.638  18.861  13.968
19702W        W92017  41.943  18.683   0.170
19703W        W92018   9.152  20.732   2.437
19704W        W92019  44.996   2.283  12.796
19705W        W92020   5.355  19.081  12.856
19706W        W92021  29.134   1.776  14.881
19707W        W92022  16.657  32.411  14.453
19708W        W92023  13.850  43.530  10.720
19709W        W92024  37.382   9.416  10.482
19710W        W92025  29.025   6.777  13.688
19711W        W92026  26.408  44.967   2.348
19712W        W92027   9.282  15.838   4.124
19713W        W92028  26.435   2.983   3.993
19714W        W92029  34.938  34.947  12.869
19715W        W92030  42.335  28.056  12.008
19716W        W92031   5.406  40.399   2.949
19717W        W92032  26.312   6.858  10.088
19718W        W92033  23.137  17.015   4.178
19719W        W92034  11.035  23.762   4.484
19720W        W92035  19.160  22.412  11.139
19721W        W92036  42.768   2.197  12.171
19722W        W92037   8.831  35.299   0.339
19723W        W92038  31.883  18.155  11.121
19724W        W92039   8.620  30.263  12.344
19725W        W92040  41.872  31.835   2.668
19726W        W92041  25.936   0.824   2.446
19727W        W92042  35.428   7.447  13.202
19728W        W92043  40.515  27.447  11.248
19729W        W92044  38.073  26.712   1.883
19730W        W92045  43.930  10.378   3.128
19731W        W92046   0.804  16.332   1.481
19732W        W92047  36.461  42.881   9.930
19733W        W92048  26.123  40.772   2.816
19734W        W92049   2.855  25.114  12.576
19735W        W92050  37.586  34.788  12.612
19736W        W92051  31.862  37.499  14.903
19737W        W92052  13.309  15.693  11.457
19738W        W92053  29.716   7.181  12.510
19739W        W92054  12.647  28.388   3.129
19740W        W92055  10.747  11.329   0.817
19741W        W92056  26.889   0.409   2.914
19742W        W92057  22.779  11.178   2.332
19743W        W92058  34.039   7.204   4.300
19744W        W92059  34.046  26.217  14.985
19745W        W92060  24.189  35.037  10.586
19746W        W92061  15.803   3.702  13.458
19747W        W92062   1.136  42.388   1.306
19748W        W92063   9.580   7.238   1.835
19749W        W92064   7.312  30.966  10.989
19750W        W92065  18.648  11.330  13.953
19751W        W92066  42.553  22.108  12.540
19752W        W92067   0.377   1.409   0.111
19753W        W92068  14.649  36.033  12.888
19754W        W92069  12.316   5.143   0.683
19755W        W92070   1.341   7.764   0.776
19756W        W92071  16.760  37.813   4.512
19757W        W92072   0.450  20.775   4.872
19758W        W92073  39.906  17.058   4.750
19759W        W92074  15.608  35.132   2.251
19760W        W92075  23.651  19.569   0.060
19761W        W92076  34.422   3.013  14.090
19762W        W92077  31.437  23.098  11.857
19763W        W92078  27.273  11.059  13.307
19764W        W92079   7.727  35.391   1.584
19765W        W92080  43.906  10.354  14.587
19766W        W92081  25.323  21.046  14.457
19767W        W92082  25.120  20.338  10.937
19768W        W92083  11.375  28.127  12.376
19769W        W92084  10.306   0.008   1.379
19770W        W92085  14.680  20.985   4.014
19771W        W92086  15.803  43.044  13.010
19772W        W92087   7.318  40.248  11.494
19773W        W92088  31.534  20.458  14.223
19774W        W92089   0.003  44.228  13.398
19775W        W92090  30.426  20.651   0.807
19776W        W92091  14.747  29.193   3.097
19777W        W92092  29.081  23.924   2.636
19778W        W92093  12.175  23.713   0.312
19779W        W92094  17.617  37.370  12.024
19780W        W92095  19.788  20.581   0.900
19781W        W92096   7.386   9.438   3.650
19782W        W92097  19.110  39.275  13.333
19783W        W92098  13.671   8.265  12.411
19784W        W92099  31.657  42.354   0.708
19785W        W92100   1.793  25.148   1.879
19786W        W92101  28.089  17.553   1.997
19787W        W92102  21.121  34.799  12.367
19788W        W92103  39.964  13.937  13.589
19789W        W92104  44.711   1.734  12.073
19790W        W92105  31.993  37.974   3.745
19791W        W92106   6.462   9.232  12.082
19792W        W92107   0.173   7.069   2.412
19793W        W92108  24.705  28.108  14.853
19794W        W92109  32.068  29.270   3.626
19795W        W92110  13.531  19.729   0.168
19796W        W92111   7.823  11.691  11.877
19797W        W92112  41.326  10.373  12.276
19798W        W92113   8.225  22.596  12.044
19799W        W92114  32.482   8.367  13.050
19800W        W92115  14.163  43.323   0.341
19801W        W92116  28.473  28.428   4.558
19802W        W92117  15.595  14.531  12.485
19803W        W92118  31.452  27.876   0.525
19804W        W92119  41.075  34.402   3.155
19805W        W92120  34.478  13.614   4.496
19806W        W92121  25.379  15.625   4.629
19807W        W92122  13.440  23.017  12.988
19808W        W92123  14.335  34.345   0.804
19809W        W92124  16.735  11.834   4.720
19810W        W92125  42.054  31.498   3.344
19811W        W92126  15.766  21.722  13.579
19812W        W92127  29.946  25.371  14.433
19813W        W92128   0.404  30.482  12.115
19814W        W92129   2.445  15.172  13.574
19815W        W92130  13.497  11.027  14.395
19816W        W92131  36.487   4.105   0.352
19817W        W92132  32.217   9.919  14.374
19818W        W92133  24.829  21.430   9.621
19819W        W92134  14.211  38.092   4.413
19820W        W92135  17.672  11.332  11.136
19821W        W92136  32.773   2.981  11.001
19822W        W92137  11.321  19.295  10.984
19823W        W92138  35.235  17.615  14.815
19824W        W92139  37.225  20.440  11.464
19825W        W92140  39.927   3.528  14.447
19826W        W92141   1.711  33.098  14.768
19827W        W92142  32.887  30.920  13.959
19828W        W92143  36.960  42.811  10.563
19829W        W92144  27.492  18.170   5.158
19830W        W92145  10.826  11.700   0.415
19831W        W92146  18.065  29.038  10.871
19832W        W92147  23.525   8.106  13.310
19833W        W92148  29.078   4.900  14.406
19834W        W92149  36.134  17.779  12.458
19835W        W92150   0.326   4.177  13.376
19836W        W92151  34.865  25.557  10.585
19837W        W92152   9.171  25.167   3.718
19838W        W92153  42.349  35.539  12.575
19839W        W92154  33.163  28.607   0.405
19840W        W92155  28.068  29.371  10.952
19841W        W92156  10.477   1.239  10.825
19842W        W92157   4.629   2.841   4.198
19843W        W92158  32.542  18.495   1.330
19844W        W92159  12.798  41.617   4.956
19845W        W92160  11.598  40.066  10.651
19846W        W92161  11.740  17.476   4.209
19847W        W92162  26.961  33.169   0.271
19848W        W92163  16.191  24.119  12.282
19849W        W92164  29.391  39.292   0.896
19850W        W92165   6.438   8.338  12.140
19851W        W92166   2.956  26.505  14.502
19852W        W92167   5.717  37.262   4.134
19853W        W92168  43.455  31.733   1.391
19854W        W92169  19.273  20.873   2.463
19855W        W92170  39.990  28.931  10.612
19856W        W92171  16.767   7.083  12.187
19857W        W92172   6.867   0.406   1.426
19858W        W92173  14.131  22.656  14.130
19859W        W92174  42.098   2.721  12.611
19860W        W92175  35.097  15.688  12.052
19861W        W92176  27.369  31.096   5.050
19862W        W92177  43.061  14.057  11.883
19863W        W92178  32.919  22.458  14.834
19864W        W92179  39.877  32.342   1.211
19865W        W92180  22.205  15.193   4.486
19866W        W92181  13.056   6.196  11.157
19867W        W92182   9.533  16.831  12.905
19868W        W92183   5.886  27.386   1.985
19869W        W92184  31.822  14.338  13.568
19870W        W92185  44.763  24.470  13.095
19871W        W92186  34.530  24.653  13.568
19872W        W92187  29.092  33.025   1.246
19873W        W92188   6.178  35.455  10.471
19874W        W92189  36.181  43.133  11.282
19875W        W92190  43.259   5.880   2.003
19876W        W92191   9.587   4.723  11.216
19877W        W92192   2.841   6.732  12.380
19878W        W92193  43.725   9.649  13.080
19879W        W92194  43.012  20.302  10.719
19880W        W92195  15.718  20.267   1.227
19881W        W92196   3.439  35.767   3.084
19882W        W92197   9.411  21.681   2.213
19883W        W92198  14.230  38.401  12.563
19884W        W92199  23.265  44.932   1.866
19885W        W92200  43.770  21.177  13.719
19886W        W92201  24.581  41.532  11.781
19887W        W92202  23.413  20.656   5.154
19888W        W92203  41.132  15.527  14.491
19889W        W92204   2.411  12.952   2.790
19890W        W92205  27.647  34.158   5.388
19891W        W92206  39.894   6.314   4.840
19892W        W92207  43.006   2.271   4.114
19893W        W92208  43.490  34.724  11.050
19894W        W92209  43.340  14.561   2.873
19895W        W92210   0.946  12.213  13.973
19896W        W92211  38.997  23.566  13.947
19897W        W92212  15.301   0.825   1.300
19898W        W92213  30.638  10.394   0.511
19899W        W92214  26.045   4.998   2.266
19900W        W92215  12.671  25.613  12.993
19901W        W92216   7.003   9.206   1.418
19902W        W92217  12.819  32.759   2.959
19903W        W92218  14.915  10.178   4.522
19904W        W92219  40.472  26.154  11.877
19905W        W92220   6.247  27.473   0.114
19906W        W92221  17.059   8.854   2.698
19907W        W92222  27.806  12.831  12.680
19908W        W92223  43.881  16.628  14.635
19909W        W92224  18.118  21.666   2.709
19910W        W92225  20.195  38.585  11.985
19911W        W92226  30.835  12.332   3.258
19912W        W92227  15.219  29.606   2.644
19913W        W92228  29.172  12.938   4.391
19914W        W92229  21.991  30.857  13.057
19915W        W92230   8.844  20.546  13.428
19916W        W92231  33.128  25.699  11.963
19917W        W92232  36.910  16.315  12.137
19918W        W92233  23.817  39.983   3.789
19919W        W92234  29.120  19.341   4.159
19920W        W92235  33.928   7.863   2.613
19921W        W92236  43.783  34.244   3.867
19922W        W92237  30.074  22.246  11.116
19923W        W92238  40.433  27.666  14.336
19924W        W92239   1.454  40.658  11.561
19925W        W92240  33.965  17.508  11.503
19926W        W92241  15.889   1.351  12.888
19927W        W92242   9.619   9.890   4.697
19928W        W92243  34.914  38.035   1.355
19929W        W92244   9.888  18.517   3.492
19930W        W92245  42.263   8.898  10.414
19931W        W92246  28.085   4.512  11.500
19932W        W92247  38.362   9.636  13.088
19933W        W92248  37.409  39.907   0.147
19934W        W92249  30.195  18.571  13.966
19935W        W92250  37.007   1.715  10.453
19936W        W92251  35.095  11.413   0.265
19937W        W92252   6.806  34.871  14.282
19938W        W92253  14.353   7.711   2.807
19939W        W92254  22.582  21.917   1.464
19940W        W92255  15.209  11.586   0.240
19941W        W92256   5.243  32.561   3.293
19942W        W92257  15.586  32.661  13.504
19943W        W92258  26.506  43.045   9.891
19944W        W92259  18.688   6.819  13.996
19945W        W92260  23.520  24.154   2.731
19946W        W92261  24.072  34.910   4.323
19947W        W92262  26.132  32.027  13.301
19948W        W92263   8.301   3.540   4.855
19949W        W92264  21.508  20.193   4.665
19950W        W92265  17.323  41.990  11.141
19951W        W92266   0.633   8.298   3.197
19952W        W92267  27.203  22.526  12.073
19953W        W92268  30.111  32.190   2.768
19954W        W92269  31.886   2.698   4.344
19955W        W92270   0.675  37.113  14.416
19956W        W92271   5.696  26.580  11.684
19957W        W92272  10.687   4.608  12.560
19958W        W92273  26.966  23.114   4.725
19959W        W92274  38.977   7.468   3.741
19960W        W92275  11.168  38.292  11.143
19961W        W92276  41.296  22.797  12.454
19962W        W92277   0.205  17.173  11.952
19963W        W92278  16.456  32.208  13.151
19964W        W92279  12.999   6.160  13.098
19965W        W92280  18.271   7.132   1.760
19966W        W92281  43.172   8.779   2.389
19967W        W92282  10.151  23.694   3.254
19968W        W92283  26.653  16.601  14.362
19969W        W92284  12.115  31.118  11.594
19970W        W92285  33.085  11.661   4.173
19971W        W92286  23.955  20.397   3.887
19972W        W92287  37.309   9.342   2.737
19973W        W92288  10.262   2.752   0.735
19974W        W92289  10.103  19.086   2.206
19975W        W92290  41.957  29.947  14.374
19976W        W92291  12.431  27.547   1.284
19977W        W92292  15.095  40.404   3.751
19978W        W92293  17.786  29.171   0.835
19979W        W92294  44.032  37.332   0.475
19980W        W92295  40.346  40.524   4.030
19981W        W92296  43.833  33.640   2.371
19982W        W92297  20.725   0.522   3.627
19983W        W92298  12.700  13.309   1.233
19984W        W92299  35.876  41.928  11.906
19985W        W92300  41.647  42.183   3.656
19986W        W92301  11.909  21.072  13.622
19987W        W92302  34.191   4.900  13.590
19988W        W92303   4.329  43.468   4.707
19989W        W92304  43.005  14.303   1.717
19990W        W92305  28.816  22.643   0.909
19991W        W92306  19.269  24.540   2.268
19992W        W92307  26.979  36.783   3.348
19993W        W92308  18.995  42.526  13.010
19994W        W92309   6.287  33.644  14.288
19995W        W92310  42.952  20.565   3.796
19996W        W92311  42.138   6.869   3.060
19997W        W92312  22.986  32.657   1.256
19998W        W92313  20.172  13.279  13.420
19999W        W92314  21.539  11.057  11.139
20000W        W92315   7.875  20.728   4.394
20001W        W92316  24.263  27.092  14.860
20002W        W92317  42.514  13.545   4.131
20003W        W92318   7.231  36.041   1.684
20004W        W92319  24.181  16.819  14.725
20005W        W92320  18.499  29.646  12.877
20006W        W92321   9.585  16.489  10.196
20007W        W92322  10.157   6.394   1.874
20008W        W92323  38.468   2.483   0.267
20009W        W92324  42.987  14.789  10.693
20010W        W92325  29.116  11.842  14.904
20011W        W92326   3.541  44.866  14.509
20012W        W92327  16.191   5.418   0.812
20013W        W92328  37.118  30.495  12.537
20014W        W92329   9.214  14.712   1.131
20015W        W92330  33.700  21.817   3.298
20016W        W92331  12.332  18.025   0.383
20017W        W92332  42.978  25.071   3.619
20018W        W92333   8.280   7.974   1.983
20019W        W92334  25.661  17.746   0.708
20020W        W92335  12.296  30.472   4.629
20021W        W92336  16.845   8.915   3.245
20022W        W92337  14.994   8.275   4.011
20023W        W92338  25.207  28.555  13.653
20024W        W92339  26.665  42.924  13.019
20025W        W92340  21.750  39.573   3.621
20026W        W92341  32.616  29.234   1.534
20027W        W92342   9.802  40.759  11.982
20028W        W92343   7.182  37.874   3.794
20029W        W92344  14.147   6.365   1.278
20030W        W92345  30.432  28.034  13.100
20031W        W92346   8.370   1.757   2.760
20032W        W92347  41.756  29.144   3.224
20033W        W92348  11.873  12.836   3.720
20034W        W92349  21.708  29.522   2.873
20035W        W92350  15.387  36.507  11.686
20036W        W92351  36.285  21.574   4.577
20037W        W92352  39.004  39.421  12.928
20038W        W92353  37.300  14.607  14.538
20039W        W92354  32.833   6.847  11.389
20040W        W92355  42.512  22.560   4.364
20041W        W92356  14.768  25.606   0.925
20042W        W92357  39.281  16.783  12.362
20043W        W92358  32.588  15.501   3.741
20044W        W92359  37.876  24.884  14.366
20045W        W92360  33.695  28.515  12.055
20046W        W92361  32.007  29.709   5.092
20047W        W92362  41.951  32.066  12.386
20048W        W92363   3.973  25.453  13.443
20049W        W92364  43.029  27.196  13.146
20050W        W92365  20.570  44.942   0.381
20051W        W92366   4.226  25.191  11.122
20052W        W92367  24.621  12.557   1.781
20053W        W92368  32.424  32.365   2.271
20054W        W92369  19.183  27.274  14.428
20055W        W92370   9.155  23.666  13.576
20056W        W92371  29.978  12.164  13.563
20057W        W92372  15.184  11.143  14.051
20058W        W92373  15.720  39.731  12.561
20059W        W92374   3.967  18.835   0.427
20060W        W92375  17.004   3.899   2.801
20061W        W92376  13.643   3.222  14.484
20062W        W92377  10.710  18.456  14.792
20063W        W92378   3.526  20.015  12.362
20064W        W92379  16.600  28.063  11.188
20065W        W92380   0.412  27.415   2.974
20066W        W92381  27.869   5.397  13.938
20067W        W92382  23.350  23.437  14.339
20068W        W92383  35.021  36.935   3.539
20069W        W92384   9.365  33.373   3.836
20070W        W92385  44.940  28.570   3.622
20071W        W92386  38.083  30.469  11.512
20072W        W92387  28.997  23.909   3.806
20073W        W92388  34.592  11.035   0.345
20074W        W92389  35.915  38.042  13.091
20075W        W92390  19.461   3.431  10.476
20076W        W92391  33.939  27.162   2.623
20077W        W92392   7.796  35.152  14.915
20078W        W92393  18.103  41.515  11.105
20079W        W92394  26.183  31.949   1.364
20080W        W92395  28.373  40.111   2.974
20081W        W92396  18.554  18.570   1.885
20082W        W92397   0.395   4.017  10.972
20083W        W92398  19.808   5.444  12.437
20084W        W92399   5.294  38.513   3.633
20085W        W92400  20.152  29.675   1.380
20086W        W92401  41.365  38.885  11.223
20087W        W92402  11.877  36.080   2.784
20088W        W92403   7.764   3.194   3.032
20089W        W92404  31.986   3.487   2.240
20090W        W92405  32.008  35.205   4.238
20091W        W92406  14.176  41.302   2.788
20092W        W92407  22.698  25.046   4.595
20093W        W92408  41.371  26.773   0.332
20094W        W92409  36.862  30.568  12.122
20095W        W92410   4.844  31.928  13.308
20096W        W92411   2.204  21.580   2.188
20097W        W92412   6.874   5.565  13.455
20098W        W92413  24.138   7.499  12.688
20099W        W92414  15.105  18.181  12.064
20100W        W92415  32.051   2.207   4.151
20101W        W92416   5.741  42.277   3.313
20102W        W92417  22.296   9.710   2.478
20103W        W92418  40.284   8.945   0.310
20104W        W92419  20.023  42.639  11.866
20105W        W92420  30.926  39.429   2.122
20106W        W92421  38.063  33.978  13.442
20107W        W92422  43.837  22.049  13.572
20108W        W92423  44.771  26.654   3.403
20109W        W92424   5.036  14.378   4.068
20110W        W92425  24.974  28.568  14.970
20111W        W92426  37.885  21.639   0.368
20112W        W92427   6.366  29.167   0.835
20113W        W92428   8.409  43.342   4.190
20114W        W92429  20.983   8.149  14.079
20115W        W92430   9.083  33.545  10.270
20116W        W92431   1.669  18.130   1.322
20117W        W92432   7.414   7.009   4.722
20118W        W92433  10.836  29.148   1.634
20119W        W92434  20.417  36.059   0.373
20120W        W92435  11.210  25.859   3.314
20121W        W92436  27.710  35.706   1.883
20122W        W92437   9.841  26.121  12.431
20123W        W92438  26.122   0.488  14.703
20124W        W92439  34.939  10.114   2.147
20125W        W92440  28.844  30.919   1.753
20126W        W92441  37.253  18.257  13.925
20127W        W92442  34.396  11.615   1.934
20128W        W92443   9.108  11.133   4.629
20129W        W92444  35.354   9.905  14.926
20130W        W92445  35.136  33.451  11.669
20131W        W92446  36.477  33.101   3.960
20132W        W92447   3.876  11.161   1.383
20133W        W92448  36.581  28.578   2.923
20134W        W92449  25.521  19.163  10.743
20135W        W92450  37.183  22.557  10.705
20136W        W92451  15.196  22.932  13.545
20137W        W92452  25.710  34.551   2.575
20138W        W92453  34.025   9.909  13.910
20139W        W92454  23.277  43.141   3.366
20140W        W92455   1.041  26.103  12.820
20141W        W92456  32.093  38.751   0.776
20142W        W92457   9.611  25.414   3.902
20143W        W92458  12.709  23.696   0.446
20144W        W92459  12.686   2.994   1.292
20145W        W92460  20.217  38.866   3.422
20146W        W92461  10.582  14.820  11.195
20147W        W92462   6.314   5.676  10.791
20148W        W92463  40.299  36.589  12.605
20149W        W92464  32.239   1.051  13.427
20150W        W92465  35.696  20.016  11.210
20151W        W92466   9.643  19.223  10.373
20152W        W92467  30.100   7.833   2.189
20153W        W92468  40.588  35.982  11.262
20154W        W92469  23.424  36.474  11.583
20155W        W92470  24.271  38.864   4.090
20156W        W92471  27.939  22.683   3.645
20157W        W92472  34.939  36.893  14.768
20158W        W92473  15.563  13.135  11.519
20159W        W92474  22.714   8.105  11.205
20160W        W92475   0.247   3.524  10.947
20161W        W92476  20.577  41.858   4.716
20162W        W92477  31.121  43.594   0.686
20163W        W92478  38.442  11.423   0.734
20164W        W92479  19.603   7.933   4.550
20165W        W92480  26.584  42.529   0.765
20166W        W92481  17.592  26.267   3.672
20167W        W92482   6.134  25.680  14.866
20168W        W92483  16.883  38.361   2.959
20169W        W92484   6.209  29.624   4.241
20170W        W92485  16.735   6.177  10.627
20171W        W92486   0.342  17.118  12.468
20172W        W92487  44.278  16.749   3.785
20173W        W92488  43.239   6.792  13.871
20174W        W92489  34.957   8.515  14.271
20175W        W92490  14.534  16.057  14.478
20176W        W92491  41.234  16.926   3.822
20177W        W92492  11.734  29.210   1.792
20178W        W92493   9.777  12.847   0.733
20179W        W92494   9.319  39.086  12.435
20180W        W92495  26.479  20.624   3.251
20181W        W92496  40.272  11.137   1.458
20182W        W92497  18.759  18.647  13.865
20183W        W92498  10.215  19.187  14.121
20184W        W92499  42.790  33.381  13.811
20185W        W92500  32.609  39.068   0.462
20186W        W92501  17.013  29.441   2.848
20187W        W92502  29.983  31.073   2.162
20188W        W92503   1.802   6.695  13.969
20189W        W92504  16.429   3.051  12.456
20190W        W92505  20.333  10.704   3.830
20191W        W92506  14.645  22.298  13.866
20192W        W92507   8.624  12.854  13.070
20193W        W92508  38.911   7.457  13.794
20194W        W92509  34.628  21.172   5.016
20195W        W92510  12.636  42.718   2.307
20196W        W92511  30.713  23.815  14.420
20197W        W92512  24.548  30.642  14.076
20198W        W92513  18.601   3.367   3.243
20199W        W92514  35.889  17.642   3.921
20200W        W92515  39.094  39.477   3.711
20201W        W92516  17.786  33.112   4.611
20202W        W92517   2.562  35.059   0.703
20203W        W92518  14.845  23.579  12.603
20204W        W92519   7.723  15.311  10.503
20205W        W92520  41.811  17.300  14.414
20206W        W92521  23.679  14.590   4.635
20207W        W92522   6.303   6.430  12.568
20208W        W92523   3.116   8.173  14.179
20209W        W92524  29.226  40.780   0.367
20210W        W92525  12.057  11.771  14.851
20211W        W92526   5.467   1.762  10.710
20212W        W92527  37.653  17.841   2.381
20213W        W92528  18.265  17.187   2.910
20214W        W92529  28.638  33.088  13.995
20215W        W92530  10.357  19.147   2.662
20216W        W92531  21.064  44.510   1.184
20217W        W92532  26.495  24.976  12.446
20218W        W92533  36.725  41.770  11.039
20219W        W92534   7.909  22.059   3.117
20220W        W92535  10.123  26.053  14.737
20221W        W92536   0.782  42.096   3.744
20222W        W92537  43.984  21.975   1.726
20223W        W92538  37.983  39.532   0.805
20224W        W92539  31.764  43.073  13.454
20225W        W92540  30.943   5.979   0.363
20226W        W92541  24.091  16.621  12.630
20227W        W92542  40.755   2.914  10.603
20228W        W92543  26.676  43.554  10.685
20229W        W92544  20.009  38.093   3.408
20230W        W92545  44.830  27.545   9.818
20231W        W92546   9.828  37.019  12.527
20232W        W92547  41.290   1.126   3.737
20233W        W92548  18.657  34.142   2.359
20234W        W92549  44.232  44.851   4.538
20235W        W92550  13.759  28.615   1.940
20236W        W92551  18.029  15.600  12.681
20237W        W92552  33.092  30.364   3.112
20238W        W92553  17.274  40.564   9.914
20239W        W92554  10.231  44.030  12.962
20240W        W92555   3.402   7.249  14.548
20241W        W92556   9.605  21.354  14.979
20242W        W92557  43.714  43.292   1.874
20243W        W92558  29.722  40.071  13.197
20244W        W92559  18.712  17.796   4.154
20245W        W92560  39.137  33.549   1.419
20246W        W92561  43.526   5.841   4.644
20247W        W92562  23.228  33.399   3.181
20248W        W92563  20.461   1.393   4.901
20249W        W92564  13.267   4.983   0.404
20250W        W92565   4.906   5.158  12.429
20251W        W92566   8.725   5.301  12.934
20252W        W92567  20.768  16.587  12.035
20253W        W92568  21.490  30.237  12.476
20254W        W92569  25.755  33.667   1.433
20255W        W92570   7.839  16.313  14.770
20256W        W92571  25.075  29.168   2.460
20257W        W92572  37.615  29.938   0.827
20258W        W92573  41.574   9.853  12.096
20259W        W92574  31.829  12.698  12.220
20260W        W92575  21.916  42.088  11.042
20261W        W92576  32.870  35.463  12.508
20262W        W92577  11.682  18.112  12.054
20263W        W92578  32.179  19.341  10.287
20264W        W92579  28.914  25.173   3.559
20265W        W92580  20.541  35.577   4.380
20266W        W92581  11.877  10.406   4.659
20267W        W92582   0.727  11.836  14.867
20268W        W92583  43.487  14.371   4.210
20269W        W92584  17.665  32.922   2.182
20270W        W92585   2.414  23.408   2.429
20271W        W92586  43.858   7.001  12.913
20272W        W92587  31.920  31.156  10.618
20273W        W92588  38.123  34.904  14.944
20274W        W92589  25.190   6.945  10.615
20275W        W92590  42.983  19.107   1.965
20276W        W92591  29.045  19.675   3.711
20277W        W92592  42.903   2.348  14.050
20278W        W92593   6.362  17.511  10.236
20279W        W92594  30.816  20.115  10.711
20280W        W92595  24.727  19.787   3.641
20281W        W92596   1.684  22.649  14.636
20282W        W92597  19.465  19.281  11.480
20283W        W92598  20.300  11.348   1.308
20284W        W92599  14.763  36.511   3.668
20285W        W92600   5.513  37.403  13.738
20286W        W92601  24.655  14.554   2.839
20287W        W92602  17.045  32.521   1.460
20288W        W92603  16.299   1.010  11.540
20289W        W92604  16.491  40.971  13.386
20290W        W92605  42.163   3.922  11.102
20291W        W92606  18.207  43.017  11.099
20292W        W92607  42.598  15.340   4.802
20293W        W92608   8.174  43.514   4.613
20294W        W92609  23.947  41.554   0.912
20295W        W92610  41.373   2.330  12.981
20296W        W92611  23.796   9.254   3.698
20297W        W92612  14.205   6.688   0.079
20298W        W92613  12.272  38.013  11.134
20299W        W92614  24.675   4.384   1.530
20300W        W92615   9.503   2.824   0.419
20301W        W92616  44.865  13.881  12.082
20302W        W92617   0.529   4.767   3.372
20303W        W92618   4.437  39.234   3.331
20304W        W92619  43.198   0.534   2.709
20305W        W92620  20.484  26.942   1.139
20306W        W92621  17.231   3.735   0.429
20307W        W92622  16.267  24.198   0.150
20308W        W92623  14.732   9.346   3.542
20309W        W92624  21.914   4.647  14.263
20310W        W92625  14.838  21.749   0.044
20311W        W92626   4.270  32.494  11.194
20312W        W92627   8.770  19.786   0.456
20313W        W92628  35.978  40.948  12.965
20314W        W92629  39.341  41.922  10.962
20315W        W92630  23.633  27.918  10.836
20316W        W92631  25.233  30.624  11.823
20317W        W92632  16.726   0.403  14.839
20318W        W92633  29.422  41.516   1.915
20319W        W92634  29.094  16.107  12.613
20320W        W92635  14.662  39.067   4.366
20321W        W92636  40.766  28.389  12.490
20322W        W92637  37.634   9.324   2.322
20323W        W92638   1.651  16.324  11.635
20324W        W92639  40.527  14.827  11.092
20325W        W92640   1.893  17.836  14.292
20326W        W92641  10.327  41.852  10.560
20327W        W92642  42.380  40.947  10.433
20328W        W92643  44.770  13.418  11.914
20329W        W92644   5.908  32.321  13.456
20330W        W92645  38.994   1.956  12.527
20331W        W92646  34.524  17.297  11.266
20332W        W92647   5.901   6.118  12.996
20333W        W92648  25.017  40.341   4.619
20334W        W92649   0.332  25.064   3.607
20335W        W92650   7.271  11.432  13.881
20336W        W92651  23.255   3.209  13.010
20337W        W92652  21.551   1.700   5.037
20338W        W92653  17.628  28.708   3.836
20339W        W92654  16.912  36.689  12.108
20340W        W92655  44.710  18.668  14.337
20341W        W92656   7.732  41.815  11.199
20342W        W92657  23.096  32.027   0.040
20343W        W92658  23.762  27.569  13.434
20344W        W92659  29.001  27.061  12.079
20345W        W92660  30.639  28.481  12.948
20346W        W92661  43.057   2.842   1.856
20347W        W92662  17.663  35.998  12.018
20348W        W92663   3.225  18.118   1.237
20349W        W92664  40.791  26.783   2.350
20350W        W92665  13.636  40.732   1.911
20351W        W92666  21.311  38.547  12.360
20352W        W92667  21.538   1.026   3.348
20353W        W92668  20.902  34.652  11.504
20354W        W92669  28.038  39.404  13.936
20355W        W92670   3.242  40.860  12.714
20356W        W92671  33.878  18.663  13.947
20357W        W92672   1.288  35.392  12.852
20358W        W92673  15.782   1.190   3.670
20359W        W92674  28.172  40.056  11.753
20360W        W92675  25.203  37.445  14.241
20361W        W92676  22.458  24.708   1.375
20362W        W92677  10.693  17.865  11.437
20363W        W92678   9.183  26.558   3.897
20364W        W92679  23.616  36.256  12.035
20365W        W92680   6.781   0.875   4.078
20366W        W92681  39.247  13.652   1.226
20367W        W92682  40.404  31.525  13.838
20368W        W92683  43.339  28.016   1.916
20369W        W92684   1.019  40.067   1.745
20370W        W92685   2.703  12.583   3.217
20371W        W92686  17.209  20.240  10.865
20372W        W92687  40.852  44.517   4.913
20373W        W92688  36.772   2.102   0.012
20374W        W92689  18.862  28.773  10.701
20375W        W92690   2.872  38.817  11.979
20376W        W92691   2.038  24.500  14.628
20377W        W92692  23.152  39.158   1.358
20378W        W92693  37.502  23.029   0.164
20379W        W92694   7.679   4.143  12.496
20380W        W92695  12.574  44.293  12.589
20381W        W92696  43.400  13.278  11.706
20382W        W92697  28.664   4.453  10.653
20383W        W92698  23.462  20.153  13.750
20384W        W92699  32.543  35.092   1.262
20385W        W92700  23.466  32.566   1.416
20386W        W92701  43.427  19.076  13.804
20387W        W92702   2.437  43.895   1.013
20388W        W92703  31.583   6.290  14.407
20389W        W92704  11.095  28.068  10.925
20390W        W92705  44.008  12.394  11.651
20391W        W92706  22.737  14.700  13.898
20392W        W92707  12.256  30.626   1.636
20393W        W92708  19.511  18.861   1.848
20394W        W92709   4.506  32.427  14.518
20395W        W92710  18.708   8.326   9.816
20396W        W92711   0.301   5.363   1.402
20397W        W92712  43.304  29.609   4.810
20398W        W92713  37.513  25.575  13.261
20399W        W92714  42.394  27.013  10.527
20400W        W92715  26.876  20.879   3.585
20401W        W92716  14.781  24.357  12.003
20402W        W92717   6.693  32.960  11.987
20403W        W92718  44.724  37.044   2.276
20404W        W92719  35.782   6.723  12.990
20405W        W92720  27.395   2.536  11.074
20406W        W92721  11.715  44.865   4.642
20407W        W92722  23.000  10.679   3.038
20408W        W92723   2.756  24.400   0.565
20409W        W92724   0.732  27.701  11.946
20410W        W92725  15.987  10.217  11.592
20411W        W92726  28.967  36.207   4.275
20412W        W92727  41.077  35.620   4.628
20413W        W92728  34.386  23.132   0.809
20414W        W92729  43.869   7.299   2.438
20415W        W92730   8.413  30.702   1.014
20416W        W92731  41.413  43.827   3.277
20417W        W92732  35.966   3.257   4.770
20418W        W92733  29.796  10.292  12.577
20419W        W92734  28.507   2.514   2.335
20420W        W92735  42.318   6.879   1.445
20421W        W92736   9.160  36.339  13.893
20422W        W92737  41.340  26.510   3.983
20423W        W92738  24.598  25.519   1.335
20424W        W92739  23.163  33.833  13.401
20425W        W92740  29.193  38.087   1.730
20426W        W92741   2.496  15.368   1.102
20427W        W92742  36.480  17.355  10.740
20428W        W92743   6.734  12.209  11.205
20429W        W92744  36.504  28.635  11.988
20430W        W92745   4.954  10.285  13.482
20431W        W92746   4.186  20.152   2.481
20432W        W92747  30.600   7.693  11.718
20433W        W92748   4.199  40.500  10.594
20434W        W92749  33.527  21.352   3.899
20435W        W92750  34.115  22.515   2.775
20436W        W92751  31.603  25.119  12.728
20437W        W92752  14.958  40.907  13.127
20438W        W92753   7.766   3.053   0.906
20439W        W92754  18.069  25.671   0.856
20440W        W92755  13.170  22.486   0.242
20441W        W92756  31.431   3.378  14.990
20442W        W92757   9.266  39.266   2.776
20443W        W92758  30.069  19.229  14.507
20444W        W92759  15.071  20.313   0.639
20445W        W92760  22.204  33.067   0.272
20446W        W92761  40.156  33.853  14.382
20447W        W92762  38.979  43.776   0.838
20448W        W92763  22.583  30.717   0.293
20449W        W92764   6.436  27.559   4.953
20450W        W92765  35.220  36.160  13.466
20451W        W92766   7.339  26.606  11.018
20452W        W92767  28.830  19.662  12.602
20453W        W92768  18.658  42.508   0.373
20454W        W92769  19.723  38.384   1.281
20455W        W92770  41.794  27.886  10.590
20456W        W92771  16.571  29.203  13.840
20457W        W92772  41.125  22.057  13.819
20458W        W92773  41.471  33.263  11.539
20459W        W92774   9.882  43.331   0.173
20460W        W92775   7.492  21.819   0.769
20461W        W92776   8.089   3.139   0.490
20462W        W92777  20.504  19.569  14.421
20463W        W92778   0.343  11.356  10.198
20464W        W92779   1.705  36.064   5.417
20465W        W92780  29.433  36.059   0.445
20466W        W92781  29.869   0.080   3.650
20467W        W92782   7.761  22.540  13.671
20468W        W92783  44.829  28.506   2.680
20469W        W92784  30.695  20.004   3.720
20470W        W92785  32.827  34.727   3.255
20471W        W92786  33.417  20.561  14.433
20472W        W92787  25.606  23.689  10.543
20473W        W92788  37.990  44.324   1.684
20474W        W92789  23.101   8.864  11.205
20475W        W92790  30.204   0.461  12.467
20476W        W92791  22.456  10.436  12.996
20477W        W92792  29.109  32.081   1.429
20478W        W92793   6.437  30.516   0.445
20479W        W92794  37.474  36.270   0.362
20480W        W92795  44.956  36.501   1.146
20481W        W92796  28.085  12.027  12.880
20482W        W92797  42.475  22.415   3.864
20483W        W92798  22.434  28.609  13.046
20484W        W92799  23.075  40.527  12.057
20485W        W92800  17.153  17.514   2.294
20486W        W92801  31.839  42.091   3.873
20487W        W92802  20.555   5.166   1.997
20488W        W92803   0.164  22.300   2.226
20489W        W92804  23.943  41.524   2.421
20490W        W92805   6.875   2.520  12.506
20491W        W92806  24.685  43.345  13.875
20492W        W92807  40.422  15.155  11.627
20493W        W92808  24.107  44.373   1.966
20494W        W92809  19.058  27.485  11.541
20495W        W92810  44.332  24.714   3.167
20496W        W92811   8.301  24.184   2.456
20497W        W92812  19.879  30.088   2.593
20498W        W92813  13.603  27.922  10.608
20499W        W92814  22.600  26.824   1.836
20500W        W92815  38.289  22.655  11.303
20501W        W92816  25.572   7.744   0.455
20502W        W92817  43.018   9.222   0.782
20503W        W92818  29.622  29.994   2.487
20504W        W92819  25.649  14.587   1.385
20505W        W92820  20.759  42.401  10.757
20506W        W92821  42.407   0.087   3.368
20507W        W92822  32.157  32.887  13.858
20508W        W92823  42.101   1.291   1.764
20509W        W92824  11.956  24.190   3.283
20510W        W92825  34.369  23.918  12.508
20511W        W92826  37.863   2.696   0.463
20512W        W92827  19.533  28.261   5.274
20513W        W92828  37.282  13.520   1.164
20514W        W92829  33.377  30.395   1.208
20515W        W92830   2.818  44.671   4.502
20516W        W92831  41.390  28.270   2.662
20517W        W92832  38.495   9.677  13.572
20518W        W92833   5.373   1.131  13.310
20519W        W92834  26.565  24.850  13.776
20520W        W92835   1.082  10.256  13.253
20521W        W92836  29.492  20.288   4.910
20522W        W92837  28.166  21.799  14.512
20523W        W92838  25.773  14.859  11.158
20524W        W92839   6.344  33.654  12.418
20525W        W92840  30.723  22.238  14.779
20526W        W92841  27.096  43.330  13.326
20527W        W92842  24.793  42.382   4.740
20528W        W92843  22.524  34.371   1.888
20529W        W92844  19.279   9.387   1.044
20530W        W92845  26.192  15.181   1.395
20531W        W92846   0.826   2.983  10.746
20532W        W92847  35.049  29.525   3.192
20533W        W92848  31.467  37.310   4.714
20534W        W92849  12.521  18.026   3.204
20535W        W92850  25.621  39.742  11.036
20536W        W92851  37.745  26.976  14.355
20537W        W92852  18.711  36.113  14.937
20538W        W92853   0.708   2.501  13.706
20539W        W92854   3.741  21.047  12.390
20540W        W92855  11.584  10.320  10.669
20541W        W92856  10.135  39.639   2.978
20542W        W92857   6.232  39.280  10.642
20543W        W92858   2.471  28.916   3.614
20544W        W92859  24.000  29.077   4.035
20545W        W92860  34.561  20.018  12.573
20546W        W92861  42.423   9.471  13.116
20547W        W92862  14.205   6.639   2.395
20548W        W92863  33.582  16.002  11.408
20549W        W92864  20.078  29.167   4.540
20550W        W92865  41.711   1.833   4.151
20551W        W92866  24.520  32.138  14.795
20552W        W92867  20.376  25.497   3.766
20553W        W92868  35.554  33.452   4.153
20554W        W92869  37.005   4.012  14.335
20555W        W92870  37.868  41.958  14.714
20556W        W92871  39.919  41.061   0.231
20557W        W92872  10.862   3.358  13.005
20558W        W92873  34.862  25.520   4.660
20559W        W92874   5.289  44.797  12.953
20560W        W92875   1.947  21.628  14.042
20561W        W92876  27.516  33.498  13.583
20562W        W92877  19.748  32.394   0.899
20563W        W92878  42.344  32.332   0.702
20564W        W92879  23.215  42.235   0.331
20565W        W92880  32.627  37.623   4.176
20566W        W92881  36.020   3.681  14.709
20567W        W92882  25.687  15.543  14.393
20568W        W92883  27.561  21.707  13.969
20569W        W92884  13.683  10.444   2.769
20570W        W92885  16.096   2.093  13.340
20571W        W92886   5.072  20.332  14.387
20572W        W92887   0.287  25.455  13.009
20573W        W92888   4.515  10.843   2.674
20574W        W92889  21.992   8.131  11.944
20575W        W92890  38.503  39.486   0.796
20576W        W92891  37.445  41.957  12.919
20577W        W92892   4.526  13.172  12.094
20578W        W92893   4.965  26.983  10.319
20579W        W92894   0.010   6.844  11.626
20580W        W92895   9.205  27.475  12.971
20581W        W92896  31.896  16.069  11.254
20582W        W92897  28.140   1.426  10.917
20583W        W92898  25.597  22.733   2.786
20584W        W92899  18.609   5.518   3.197
20585W        W92900  44.822  43.667   2.825
20586W        W92901  35.585   3.721   1.731
20587W        W92902  37.021   9.306   0.902
20588W        W92903  24.258  22.570   2.033
20589W        W92904   3.919  42.914  12.074
20590W        W92905  26.773  28.029   4.118
20591W        W92906  42.821   5.880  12.020
20592W        W92907  37.534  44.230  14.783
20593W        W92908  44.727  34.407   1.999
20594W        W92909  17.342  12.417   1.373
20595W        W92910  30.341  32.054  10.545
20596W        W92911  39.641  30.593  14.682
20597W        W92912  23.978  19.532  12.040
20598W        W92913  42.486  41.401   1.359
20599W        W92914  33.819  13.888  11.190
20600W        W92915  16.549   3.480   3.681
20601W        W92916  25.519  44.005   3.315
20602W        W92917  42.037  20.257  14.935
20603W        W92918   5.988  32.658  12.136
20604W        W92919  35.097  43.985   1.317
20605W        W92920  31.101  31.830  13.105
20606W        W92921  14.404   9.870  13.367
20607W        W92922  41.261  36.390   1.761
20608W        W92923   0.414  21.783   4.145
20609W        W92924  11.749  22.882   2.666
20610W        W92925  15.616  15.201  14.467
20611W        W92926  40.493  42.332  12.392
20612W        W92927  40.895  38.143   0.919
20613W        W92928  31.991   0.908  10.829
20614W        W92929  12.760   5.856   3.161
20615W        W92930   8.793  35.785   1.273
20616W        W92931   0.044  31.379  14.908
20617W        W92932  28.725  37.760  12.631
20618W        W92933  17.364  16.122   0.783
20619W        W92934  13.044   1.445   2.868
20620W        W92935  16.496  12.854  11.162
20621W        W92936  31.273   9.166  14.139
20622W        W92937  40.228   8.155   0.875
20623W        W92938  18.538  29.985   5.194
20624W        W92939  22.849  42.965   0.743
20625W        W92940  40.512  35.004  13.812
20626W        W92941  33.490  14.749   0.792
20627W        W92942   6.950  29.449   1.223
20628W        W92943  36.563   7.741  13.792
20629W        W92944  17.353   9.088   4.048
20630W        W92945  13.790   0.636  11.623
20631W        W92946  35.127   3.528   1.856
20632W        W92947  36.842  24.248  10.373
20633W        W92948  41.658  37.257  12.588
20634W        W92949  28.615  13.832   3.406
20635W        W92950  17.317  14.095  12.613
20636W        W92951  23.586  10.133   2.829
20637W        W92952  38.766  15.703   0.506
20638W        W92953  27.973   1.337  10.454
20639W        W92954  36.008  13.940  11.378
20640W        W92955   0.236  40.413   3.634
20641W        W92956  27.825  12.348  13.878
20642W        W92957  21.939  25.452  13.019
20643W        W92958   4.038  11.215  12.847
20644W        W92959   6.786  28.958   4.560
20645W        W92960  40.373  28.518  11.540
20646W        W92961  36.778   7.765   2.926
20647W        W92962  25.154  11.782   1.894
20648W        W92963  13.177  29.818  12.949
20649W        W92964  37.262  41.925  13.827
20650W        W92965   6.794  29.538   2.182
20651W        W92966  21.866  20.343  10.119
20652W        W92967  18.539  21.123  10.237
20653W        W92968  38.940  18.111  14.571
20654W        W92969   1.225  22.001  11.249
20655W        W92970  20.787  34.041  13.508
20656W        W92971  36.083   7.881   0.218
20657W        W92972  16.378  16.665  12.104
20658W        W92973  22.984  20.299  13.511
20659W        W92974   3.825  10.007   0.281
20660W        W92975   0.425  23.193   4.083
20661W        W92976  12.542  24.462  12.462
20662W        W92977  33.030   6.368   4.363
20663W        W92978  39.383  11.108  14.839
20664W        W92979   0.489  36.997  13.036
20665W        W92980  19.243  12.715   2.810
20666W        W92981  28.927   8.616  10.419
20667W        W92982  25.193  13.688  11.148
20668W        W92983   0.338   1.316   4.567
20669W        W92984  43.189  32.597   4.085
20670W        W92985   9.149  17.327  13.597
20671W        W92986  32.866  40.786  12.418
20672W        W92987  21.542  25.139   2.883
20673W        W92988  24.372  14.682  14.805
20674W        W92989  13.188  28.300   3.217
20675W        W92990  27.119  33.196  10.783
20676W        W92991  12.257   7.833  11.500
20677W        W92992   2.588  30.150   1.855
20678W        W92993  43.572  30.560   2.144
20679W        W92994   7.929  39.406  12.412
20680W        W92995  20.543  41.442  11.949
20681W        W92996  27.711  39.654  14.351
20682W        W92997  14.754  28.605   4.247
20683W        W92998  14.037  32.067  13.091
20684W        W92999  25.259   2.154   1.484
20685W        W93000  12.853  39.475   1.668
20686W        W93001  19.316  19.578   2.219
20687W        W93002   0.425   1.369  14.578
20688W        W93003  37.111  38.352  13.656
20689W        W93004  31.115  17.053  12.459
20690W        W93005  38.649  13.806   2.652
20691W        W93006  11.257  28.488   4.169
20692W        W93007  34.316  33.948  14.476
20693W        W93008  36.052  14.357   2.153
20694W        W93009  44.269  32.638  10.743
20695W        W93010  38.519  39.105  11.116
20696W        W93011   7.715  12.603  11.970
20697W        W93012  21.514  43.559  12.885
20698W        W93013  36.501   5.304  13.219
20699W        W93014   2.226  37.137   4.490
20700W        W93015   0.845   4.527  10.654
20701W        W93016  29.572  33.938  11.562
20702W        W93017   7.356  15.388   0.864
20703W        W93018  35.543  22.319   4.624
20704W        W93019  31.128  33.875  13.977
20705W        W93020   0.429  43.286  10.592
20706W        W93021   6.248  36.124   1.732
20707W        W93022  17.696  36.280  12.996
20708W        W93023  38.723   3.015   0.967
20709W        W93024  36.383  30.028   3.381
20710W        W93025  22.791   2.242  13.088
20711W        W93026  32.985  37.806   0.680
20712W        W93027  21.475  36.594  12.477
20713W        W93028  35.412  33.900   0.007
20714W        W93029  44.469  21.486  12.017
20715W        W93030  27.789  33.730  10.190
20716W        W93031  18.630  31.235   4.586
20717W        W93032  21.964  14.776   0.126
20718W        W93033  10.353  36.139   4.233
20719W        W93034  41.679  30.831   2.705
20720W        W93035  27.154  42.361  12.021
20721W        W93036  33.504   7.672   1.854
20722W        W93037  31.089  11.244   0.370
20723W        W93038   3.259  16.572  10.648
20724W        W93039  19.880  40.537   0.478
20725W        W93040  41.318  38.354  13.630
20726W        W93041  35.959   4.720   1.154
20727W        W93042  41.080   9.685  12.018
20728W        W93043  13.021  17.823   2.821
20729W        W93044  20.324  31.457  11.466
20730W        W93045  10.146  42.055  11.553
20731W        W93046  18.058  20.259  13.333
20732W        W93047  37.546  42.224   4.268
20733W        W93048  17.044  21.231  14.189
20734W        W93049  22.783  23.891  11.948
20735W        W93050  30.525  37.315  10.278
20736W        W93051  10.797  13.503  14.637
20737W        W93052   8.206  38.011   0.735
20738W        W93053   9.974  36.071   2.340
20739W        W93054  19.041  18.088   2.159
20740W        W93055  13.057   3.173   3.980
20741W        W93056  16.622   2.219  12.084
20742W        W93057  35.918  40.385   2.099
20743W        W93058  21.612  38.606  13.064
20744W        W93059  10.014   8.218   3.808
20745W        W93060  43.795  14.588  12.001
20746W        W93061  30.867  12.740  12.106
20747W        W93062  26.767  10.285  11.050
20748W        W93063  19.540  21.577  12.177
20749W        W93064  29.650  33.178  11.126
20750W        W93065  43.856   7.912  10.587
20751W        W93066  26.615   3.460  10.271
20752W        W93067   6.292  28.994   2.876
20753W        W93068  31.122   7.981   0.317
20754W        W93069  31.603  35.038  12.067
20755W        W93070  12.216   3.974  11.978
20756W        W93071  11.126  32.617  12.342
20757W        W93072  27.305  28.133  11.525
20758W        W93073  30.408  40.361  10.700
20759W        W93074  35.293  32.924  14.710
20760W        W93075  28.983   5.890   4.332
20761W        W93076   1.344   9.777   1.345
20762W        W93077   1.756  11.777  11.903
20763W        W93078  29.868  26.150  14.786
20764W        W93079  41.280  30.854   0.495
20765W        W93080  20.442  23.421  13.581
20766W        W93081   1.672  17.035   3.613
20767W        W93082  41.935  37.178   0.676
20768W        W93083  26.317  22.993   2.279
20769W        W93084  18.223  31.680  13.919
20770W        W93085  10.066   8.173   0.270
20771W        W93086  19.304  17.564   3.423
20772W        W93087  16.324  22.255  10.990
20773W        W93088  14.660  15.676   9.982
20774W        W93089  40.269  27.630   1.804
20775W        W93090   6.848  34.170   1.408
20776W        W93091   5.614   1.536  14.358
20777W        W93092  23.040  12.805   1.828
20778W        W93093  24.136   7.691   4.084
20779W        W93094  26.134  29.209   2.110
20780W        W93095  28.728  33.752  12.384
20781W        W93096  12.531   6.190   2.661
20782W        W93097  28.424  18.722   4.209
20783W        W93098   9.763  17.070   4.324
20784W        W93099  18.566  18.426  14.977
20785W        W93100  40.495  11.387  13.453
20786W        W93101  17.336  24.935  11.637
20787W        W93102  31.424  44.261  12.642
20788W        W93103   6.332  12.305   3.022
20789W        W93104  12.291  24.590  14.200
20790W        W93105  19.669  19.817   1.888
20791W        W93106   8.043  36.846  11.339
20792W        W93107  34.404  19.221   1.374
20793W        W93108  38.487  29.674  14.295
20794W        W93109   3.347  33.594   3.686
20795W        W93110  10.286  38.162   5.044
20796W        W93111  17.189  40.283   3.105
20797W        W93112  39.395  13.042   2.654
20798W        W93113  26.691  42.030   0.887
20799W        W93114   1.049   0.825  11.580
20800W        W93115   0.258  13.113  11.057
20801W        W93116   3.302  17.142   4.610
20802W        W93117  33.846  13.619  10.691
20803W        W93118  40.498   9.588   3.350
20804W        W93119   1.407  42.356   0.815
20805W        W93120   8.302   6.202   3.405
20806W        W93121  43.193  24.093   2.801
20807W        W93122   3.984  29.893   1.019
20808W        W93123   2.771  23.139  12.152
20809W        W93124  44.704  44.291   3.741
20810W        W93125  38.614   2.733  11.596
20811W        W93126  20.646   2.170   0.317
20812W        W93127  18.175   8.670  12.979
20813W        W93128  23.081   8.679   2.038
20814W        W93129   4.774  26.093  13.729
20815W        W93130   2.865  32.192   2.761
20816W        W93131  28.579  12.236   4.618
20817W        W93132   1.510   2.414   1.838
20818W        W93133   8.689  43.822  14.898
20819W        W93134  14.758  17.291   1.002
20820W        W93135  14.281  32.919   4.325
20821W        W93136  21.991  31.065  13.970
20822W        W93137  32.643   7.760  14.278
20823W        W93138   5.486   5.901   1.781
20824W        W93139  43.719   0.499   2.811
20825W        W93140  26.035  43.353   2.161
20826W        W93141  28.101  13.281   3.923
20827W        W93142  10.079  14.222   2.379
20828W        W93143  43.323  44.974   0.891
20829W        W93144  11.281   2.143   3.121
20830W        W93145  21.688  28.571   3.245
20831W        W93146  27.657  26.443   3.084
20832W        W93147   5.803   5.974  11.323
20833W        W93148  42.341  12.334   0.790
20834W        W93149  34.460  36.778   2.933
20835W        W93150  30.706   1.161   1.019
20836W        W93151   8.301  24.215  11.857
20837W        W93152  29.972   0.928  12.481
20838W        W93153   0.894  26.413  14.510
20839W        W93154  25.391  12.237   0.485
20840W        W93155  35.621  35.100   2.897
20841W        W93156   0.788  16.511   4.581
20842W        W93157  17.581  12.877  13.049
20843W        W93158   8.404  21.041  10.569
20844W        W93159   1.531  37.009   1.902
20845W        W93160  32.829   4.432  13.421
20846W        W93161  12.305  44.791  13.396
20847W        W93162  40.628  23.001   3.656
20848W        W93163  15.692  13.052  14.845
20849W        W93164   3.816  24.252  12.800
20850W        W93165  21.403  21.619   1.152
20851W        W93166  43.680  16.976  12.457
20852W        W93167  26.890  21.964  14.187
20853W        W93168  19.045  18.159  10.536
20854W        W93169  40.818  33.367   1.891
20855W        W93170  31.675  20.573   0.260
20856W        W93171  15.389  14.772  14.295
20857W        W93172  26.410  16.092   4.095
20858W        W93173  12.414  29.656   2.338
20859W        W93174  38.496  14.698  10.689
20860W        W93175  32.465  19.862   5.026
20861W        W93176  42.278  42.194  12.480
20862W        W93177   6.629   9.173   2.935
20863W        W93178  44.014  22.667   4.634
20864W        W93179  42.967  30.034  12.023
20865W        W93180  44.039   0.426   2.370
20866W        W93181   8.335  23.080   0.480
20867W        W93182  24.172  21.610   1.862
20868W        W93183  17.823  37.801  13.968
20869W        W93184  21.106   2.764   3.325
20870W        W93185   7.922  31.667   1.534
20871W        W93186  10.138   9.836   4.677
20872W        W93187  10.356  17.481  11.562
20873W        W93188  26.435  26.556  12.543
20874W        W93189  20.715  32.456   3.664
20875W        W93190   8.086  25.587  11.095
20876W        W93191  19.399  35.917   3.933
20877W        W93192  38.942  10.171   5.020
20878W        W93193  12.907  33.068  14.170
20879W        W93194  25.257  31.026  11.469
20880W        W93195   7.320  38.000  12.233
20881W        W93196  39.316  21.627  14.066
20882W        W93197   2.538   7.318  12.104
20883W        W93198  18.602  35.492  10.361
20884W        W93199  38.273   6.471  10.655
20885W        W93200   4.897  12.150  12.390
20886W        W93201   1.368  21.664  14.727
20887W        W93202  36.565   3.459   1.214
20888W        W93203  40.540  32.889  13.819
20889W        W93204  26.059  32.420   1.649
20890W        W93205  40.312   1.896   2.697
20891W        W93206   3.543  41.530   1.339
20892W        W93207  32.374  34.373  11.624
20893W        W93208  23.743  35.499   3.195
20894W        W93209  24.020  11.280  12.647
20895W        W93210  37.456  30.054   2.175
20896W        W93211  30.769   0.922   3.263
20897W        W93212  29.677   2.202   4.522
20898W        W93213  38.963  42.654  13.188
20899W        W93214  15.194  31.051   1.506
20900W        W93215  11.848  29.121   3.229
20901W        W93216  28.145  34.661  12.296
20902W        W93217  17.073  11.672   3.281
20903W        W93218  37.507  13.367   1.958
20904W        W93219  24.586  23.987  13.458
20905W        W93220  43.277   0.030  12.086
20906W        W93221  35.366  21.433  13.197
20907W        W93222  19.488  15.705  13.592
20908W        W93223   0.912  15.267   2.073
20909W        W93224   0.505  13.861   3.967
20910W        W93225  19.486  11.431   1.904
20911W        W93226   1.272  12.355   4.171
20912W        W93227  28.924  31.122  12.877
20913W        W93228  32.751  42.604  11.149
20914W        W93229   2.338   9.076  11.397
20915W        W93230  19.542  35.560  10.797
20916W        W93231  12.295  33.329   2.394
20917W        W93232  18.215  10.337  10.668
20918W        W93233  19.443  11.905  12.359
20919W        W93234  41.797  32.723   2.326
20920W        W93235  35.129  25.602   1.873
20921W        W93236  30.161  38.881   3.644
20922W        W93237  39.360  13.115   1.877
20923W        W93238  21.990  40.535   4.359
20924W        W93239  10.246   3.341  12.360
20925W        W93240  25.430  12.026   2.870
20926W        W93241  18.542  10.861  10.996
20927W        W93242  10.144   0.274  12.352
20928W        W93243  25.030   5.100  14.919
20929W        W93244  17.218   8.791   0.740
20930W        W93245  22.337  10.524   4.179
20931W        W93246   1.704   0.651  11.049
20932W        W93247   2.246  41.190  11.215
20933W        W93248   4.121  22.565  10.810
20934W        W93249   7.449  38.556   1.297
20935W        W93250   9.553   8.343   3.965
20936W        W93251   2.939  32.167  13.545
20937W        W93252  30.881  34.623  10.996
20938W        W93253  21.413  14.204  12.631
20939W        W93254  34.461   0.734   0.756
20940W        W93255  12.266  42.042  14.519
20941W        W93256  37.125   0.056   1.937
20942W        W93257  27.627  22.545   4.979
20943W        W93258  21.066   2.503   0.289
20944W        W93259  42.093  25.982   1.424
20945W        W93260  10.063  34.309   1.935
20946W        W93261   3.425  24.927   1.517
20947W        W93262  18.647  13.868  13.010
20948W        W93263  22.013  43.373  14.948
20949W        W93264   4.206  11.681   0.838
20950W        W93265  25.764   1.752  13.910
20951W        W93266  19.081   2.956   3.881
20952W        W93267  24.578  15.728   4.087
20953W        W93268   0.348  16.664  12.141
20954W        W93269  17.556  35.139   0.690
20955W        W93270  17.712  13.812   3.701
20956W        W93271   9.707  24.505  12.444
20957W        W93272   8.007   2.809   2.225
20958W        W93273   2.998  12.649  12.940
20959W        W93274   9.151  25.214  12.996
20960W        W93275   7.287  15.552  14.262
20961W        W93276  18.560  22.367   3.387
20962W        W93277  11.191   9.868  10.670
20963W        W93278  18.958   8.383  11.067
20964W        W93279  13.096  27.632  12.159
20965W        W93280  14.012  15.736   3.158
20966W        W93281  19.552  23.828  13.536
20967W        W93282   1.741  22.381   0.084
20968W        W93283  21.339  21.941  14.848
20969W        W93284  35.525  24.470   3.513
20970W        W93285   5.301  35.680   0.271
20971W        W93286  14.247  31.059   4.634
20972W        W93287  22.658  40.522  14.706
20973W        W93288  36.115   0.463  13.474
20974W        W93289  28.348  12.120  11.871
20975W        W93290   3.361  27.816  14.158
20976W        W93291   9.445  21.565   3.584
20977W        W93292   8.926  42.948  12.189
20978W        W93293   9.681  35.656   0.811
20979W        W93294  34.890  31.937  14.991
20980W        W93295  14.006   7.681   4.583
20981W        W93296  44.718  24.127   1.193
20982W        W93297   5.684  31.115  12.019
20983W        W93298  43.687  11.531  11.516
20984W        W93299  13.123  14.530  12.945
20985W        W93300  17.805  18.160  12.485
20986W        W93301  37.782   1.758  14.481
20987W        W93302  27.128  44.434  10.198
20988W        W93303  34.643  43.798   1.463
20989W        W93304  43.028  13.061   4.734
20990W        W93305  12.048   2.464   3.502
20991W        W93306  27.471  43.743   3.983
20992W        W93307   9.910  38.144   3.973
20993W        W93308  36.973  17.076  11.496
20994W        W93309  33.739  29.212   3.188
20995W        W93310  35.910  43.555   3.599
20996W        W93311   0.804  35.885  13.300
20997W        W93312  26.722  13.106   3.066
20998W        W93313  40.340  18.195  14.237
20999W        W93314  25.630  17.585  11.717
21000W        W93315  29.165  26.505   2.681
21001W        W93316  10.630   3.856   0.219
21002W        W93317   4.250   3.794  12.194
21003W        W93318  14.210  20.663  14.359
21004W        W93319   9.596   7.972   3.598
21005W        W93320   0.541   7.665   3.738
21006W        W93321  37.377   2.628   0.287
21007W        W93322  24.799  39.467   2.232
21008W        W93323  27.625  43.052  11.996
21009W        W93324  44.969  40.465  13.141
21010W        W93325   0.057  40.536   0.395
21011W        W93326  35.320   7.929  13.049
21012W        W93327  21.971   3.886  11.948
21013W        W93328  31.018  33.594   3.947
21014W        W93329   2.395   9.365  13.241
21015W        W93330  34.172  42.522  11.952
21016W        W93331  17.190  35.973  11.154
21017W        W93332  14.544  34.948   3.582
21018W        W93333  40.969  31.009  12.847
21019W        W93334  12.236  30.034  10.894
21020W        W93335  11.411   9.891   1.655
21021W        W93336  19.215  12.316  12.155
21022W        W93337  41.842  31.188  13.255
21023W        W93338   3.288   2.775   3.965
21024W        W93339  32.298  34.167   4.226
21025W        W93340  22.138   2.632   1.806
21026W        W93341  23.600  16.101   4.644
21027W        W93342  26.072   5.257  13.907
21028W        W93343  29.203  10.400   2.737
21029W        W93344  19.688   7.144   2.768
21030W        W93345  12.544  18.785  12.052
21031W        W93346  15.585  11.068  12.428
21032W        W93347   8.952  26.964   0.851
21033W        W93348  17.990  15.763  13.431
21034W        W93349   6.151  21.510  13.351
21035W        W93350  28.251   9.173   2.958
21036W        W93351  12.686  20.301  12.138
21037W        W93352  26.132   4.035  14.673
21038W        W93353  33.045   4.484  14.504
21039W        W93354   7.657   8.312   4.585
21040W        W93355  38.140  24.096   4.923
21041W        W93356  20.640   1.000   3.853
21042W        W93357  13.378  35.608   1.755
21043W        W93358   8.898  29.022  11.126
21044W        W93359  38.069  15.926   4.638
21045W        W93360  15.984   6.250  11.113
21046W        W93361   7.296  32.667   0.611
21047W        W93362  37.072  44.899   2.783
21048W        W93363  29.356   4.540  14.930
21049W        W93364  30.590   7.729   2.320
21050W        W93365  41.331   0.943  11.648
21051W        W93366  24.646  25.962  12.341
21052W        W93367  34.958  30.614   3.235
21053W        W93368   4.928  18.291  14.260
21054W        W93369  22.953  34.137  10.667
21055W        W93370   5.536  42.968   4.099
21056W        W93371  33.172  32.721  11.648
21057W        W93372  15.255  31.219   2.587
21058W        W93373  14.164  32.525   2.721
21059W        W93374  21.263  42.165   2.203
21060W        W93375  42.091  40.367   2.259
21061W        W93376   8.156  15.984   0.029
21062W        W93377  14.296   4.030  11.996
21063W        W93378  42.805  28.020   4.180
21064W        W93379  26.304  37.823  11.022
21065W        W93380   2.263   2.272   1.204
21066W        W93381  28.983  29.979  12.089
21067W        W93382   6.870  15.335  14.478
21068W        W93383  26.940  19.793  12.250
21069W        W93384  42.070   0.373  12.546
21070W        W93385  42.031  24.077  13.921
21071W        W93386  33.003   4.658   3.730
21072W        W93387  31.479   3.110   4.631
21073W        W93388   1.578  27.646   3.400
21074W        W93389  34.818  10.188  10.144
21075W        W93390   4.036   7.608   3.635
21076W        W93391  28.582  33.169  10.372
21077W        W93392  31.778  16.071  13.837
21078W        W93393  33.142   2.888   0.864
21079W        W93394  23.144  22.543   4.963
21080W        W93395  25.644  26.239  12.115
21081W        W93396  28.110  27.720  14.789
21082W        W93397  23.623  16.049   1.285
21083W        W93398  35.545  22.713  12.006
21084W        W93399   9.258  31.356  11.152
21085W        W93400  18.999  14.626   4.961
21086W        W93401  28.488   5.392   3.157
21087W        W93402  25.396  10.498  13.652
21088W        W93403  13.780  33.940  11.926
21089W        W93404  16.169   4.163   1.174
21090W        W93405   5.457  14.638   0.041
21091W        W93406  42.498  26.533  13.705
21092W        W93407  12.411  26.717   0.814
21093W        W93408  43.534  16.668   4.236
21094W        W93409  36.130  10.325   0.012
21095W        W93410  35.479  17.115   4.654
21096W        W93411  41.808  16.962  11.045
21097W        W93412  41.765   1.320   4.085
21098W        W93413  28.232  28.386  10.727
21099W        W93414   1.979   0.329   4.272
21100W        W93415  42.889  27.597   2.254
21101W        W93416  16.477   5.976  14.974
21102W        W93417  41.894  20.583   4.772
21103W        W93418  39.078  17.132   4.020
21104W        W93419  11.469  18.677   2.092
21105W        W93420   3.306  44.410   4.342
21106W        W93421  34.950  31.307   1.303
21107W        W93422  38.251  17.348  11.358
21108W        W93423  36.437  13.169   2.415
21109W        W93424  17.280  11.870  12.194
21110W        W93425   6.342  41.157   0.506
21111W        W93426  25.544  32.194   5.542
21112W        W93427  43.852  12.346   2.329
21113W        W93428  31.838  29.092  14.413
21114W        W93429   7.346  34.831  14.624
21115W        W93430  26.083  24.113   0.906
21116W        W93431  43.868  37.303  11.521
21117W        W93432  44.295  42.950   5.026
21118W        W93433  33.021  35.445   3.922
21119W        W93434   8.697  44.529  12.159
21120W        W93435  15.589   6.291  11.477
21121W        W93436  13.842  22.751   1.879
21122W        W93437  29.302  43.205   3.802
21123W        W93438  26.111  27.164  11.700
21124W        W93439  14.925  32.519   4.539
21125W        W93440  39.376   3.226   2.267
21126W        W93441  27.937   5.440  14.847
21127W        W93442  30.220  36.297  13.118
21128W        W93443  29.334  18.944  11.108
21129W        W93444  25.812  14.361  11.188
21130W        W93445   7.356   5.733  11.558
21131W        W93446  19.070  40.127   4.621
21132W        W93447  27.330  10.139   3.652
21133W        W93448  41.856  37.993   3.604
21134W        W93449  39.822   0.996   1.456
21135W        W93450  20.679  16.198   0.469
21136W        W93451   4.682  32.181  11.992
21137W        W93452  26.195   7.196  14.551
21138W        W93453  19.819   8.235   4.194
21139W        W93454  44.376  19.046   2.803
21140W        W93455  15.777  23.263  14.445
21141W        W93456   1.838  35.920  11.582
21142W        W93457  14.686  18.158   0.291
21143W        W93458  17.604   5.918  12.615
21144W        W93459  17.362  22.096  10.997
21145W        W93460  19.930   3.474   0.787
21146W        W93461   9.985   2.941  11.017
21147W        W93462  28.515  36.742  11.144
21148W        W93463  31.896   8.609  11.151
21149W        W93464  21.572   5.997  11.963
21150W        W93465  33.688   3.964   0.884
21151W        W93466  24.137   8.477  11.040
21152W        W93467  41.631  39.559  14.369
21153W        W93468  20.437  23.097   0.866
21154W        W93469   3.735  35.529  14.426
21155W        W93470  12.578  39.438  13.798
21156W        W93471  35.474  38.512  14.582
21157W        W93472  19.635   6.758   3.106
21158W        W93473   3.265  31.412  14.484
21159W        W93474  18.129  30.427   1.852
21160W        W93475  19.730   2.400   2.603
21161W        W93476  28.597  12.734   1.459
21162W        W93477  44.872  27.613  11.580
21163W        W93478   6.481   7.829   0.814
21164W        W93479  36.133  44.188   4.806
21165W        W93480  32.188  34.721   0.551
21166W        W93481  34.879  13.391  14.808
21167W        W93482  12.293   6.457   1.042
21168W        W93483  39.769  35.755  13.705
21169W        W93484  43.105  37.053  12.111
21170W        W93485  12.803  40.941   0.270
21171W        W93486  30.820  11.209   2.821
21172W        W93487  10.388   9.804  13.078
21173W        W93488  24.637  38.784   3.389
21174W        W93489  42.843  27.224   0.806
21175W        W93490  12.593  21.700   2.758
21176W        W93491  21.963  18.160  10.609
21177W        W93492   4.821  38.559   1.399
21178W        W93493   1.327  29.291  14.868
21179W        W93494  33.957   8.952   1.877
21180W        W93495  31.951  26.830  14.712
21181W        W93496  11.754  37.349   2.781
21182W        W93497   4.682  18.611  13.399
21183W        W93498  37.255   9.242  13.932
21184W        W93499   0.884  26.233   4.215
21185W        W93500   1.207  15.806  10.735
21186W        W93501  23.010   1.088   2.148
21187W        W93502   4.315   9.680   4.280
21188W        W93503  16.783  26.987   2.294
21189W        W93504  32.007  32.686  13.374
21190W        W93505  14.237  37.856   1.743
21191W        W93506  23.660  17.783   3.121
21192W        W93507  29.680  26.260   1.852
21193W        W93508  43.399  14.801  13.001
21194W        W93509  25.507   8.310   3.636
21195W        W93510  43.994  29.625   0.739
21196W        W93511  43.344   7.502   5.119
21197W        W93512  29.336  19.851  10.301
21198W        W93513  28.159  41.571  11.178
21199W        W93514  38.935  21.685  14.418
21200W        W93515   2.374  27.393   3.705
21201W        W93516   4.785   3.714  11.166
21202W        W93517  42.475   4.449   3.676
21203W        W93518   5.613  29.880  13.395
21204W        W93519   4.450   1.750   2.197
21205W        W93520   3.357  13.708   4.194
21206W        W93521  22.272  41.952  14.774
21207W        W93522  22.201  17.041  13.950
21208W        W93523  15.652  40.830   0.256
21209W        W93524  23.128   3.695  12.413
21210W        W93525  30.861  23.236  11.144
21211W        W93526   0.778  35.430   4.615
21212W        W93527  42.780  29.189  14.318
21213W        W93528  33.655  13.884  12.442
21214W        W93529  27.738   3.404   0.411
21215W        W93530   2.380  32.570  14.733
21216W        W93531  21.185  29.009  12.884
21217W        W93532  41.278  15.863   0.949
21218W        W93533   5.988  16.838   4.677
21219W        W93534  25.739  42.806   4.637
21220W        W93535  31.932  26.616   0.630
21221W        W93536  36.541  27.358  12.313
21222W        W93537  17.041   5.729   3.811
21223W        W93538  24.153   6.424   1.104
21224W        W93539  14.979  16.011   0.871
21225W        W93540  17.826  12.238  11.190
21226W        W93541  31.558  37.359   0.298
21227W        W93542   5.066   0.059   1.843
21228W        W93543  20.514  24.099  11.356
21229W        W93544  34.366   1.372  12.941
21230W        W93545  21.599  21.469  13.913
21231W        W93546   2.955   9.008  10.709
21232W        W93547   0.372  40.264   3.143
21233W        W93548  37.599  12.043  13.959
21234W        W93549  30.424  15.691  12.429
21235W        W93550   1.249   4.452  11.050
21236W        W93551  44.899  17.682   4.496
21237W        W93552  22.974  35.128   4.111
21238W        W93553  24.964  11.344   1.305
21239W        W93554  18.214  34.000   0.124
21240W        W93555   9.044   3.987  12.433
21241W        W93556   2.318  44.571  11.415
21242W        W93557  30.674  35.695   0.391
21243W        W93558  25.099  43.789  12.161
21244W        W93559   8.743   4.783   4.621
21245W        W93560  16.265  36.846  11.075
21246W        W93561  24.111  27.968  10.606
21247W        W93562   6.261  27.462  14.602
21248W        W93563  40.785  37.798  13.480
21249W        W93564  40.869  21.980  10.667
21250W        W93565  40.926  23.927   4.953
21251W        W93566  31.556  36.843   0.415
21252W        W93567   9.746  24.815   2.469
21253W        W93568   3.923  37.856  10.415
21254W        W93569  26.515  31.347  11.024
21255W        W93570   7.929   1.992   2.970
21256W        W93571  27.690  17.225  12.875
21257W        W93572  16.275  27.707   0.839
21258W        W93573   8.112  15.167  12.292
21259W        W93574  27.533  32.812  14.805
21260W        W93575  42.337  12.760  10.732
21261W        W93576  35.338  30.636  13.801
21262W        W93577   6.570  15.198   2.760
21263W        W93578  32.985   1.797   3.896
21264W        W93579  13.690   8.076   3.860
21265W        W93580  44.691   1.688  11.131
21266W        W93581  31.031  11.274  11.956
21267W        W93582  22.156  26.905  12.877
21268W        W93583  23.741  39.930  11.613
21269W        W93584   5.209  33.614   3.784
21270W        W93585  12.573  42.657   3.305
21271W        W93586  15.469  15.251  10.423
21272W        W93587  42.608   1.611   3.794
21273W        W93588  18.290   7.735   1.038
21274W        W93589  26.113  15.273  13.526
21275W        W93590   9.923  22.019   0.353
21276W        W93591  16.761  25.844  12.354
21277W        W93592  29.573  33.345  14.275
21278W        W93593   3.760  31.410   0.227
21279W        W93594   7.161   9.917  13.911
21280W        W93595   6.822  20.826  11.983
21281W        W93596  38.423  19.883  12.193
21282W        W93597   6.772   1.549   0.339
21283W        W93598  27.601  39.450   4.568
21284W        W93599  27.467   7.327  12.970
21285W        W93600   5.136  29.928   0.216
21286W        W93601   0.815   3.945  11.608
21287W        W93602  23.632  26.942  12.536
21288W        W93603  24.471  25.553  11.774
21289W        W93604  29.371   0.297  14.336
21290W        W93605  24.763  36.548   0.207
21291W        W93606  17.194  44.790  14.046
21292W        W93607   2.900  15.343   2.292
21293W        W93608   2.231  29.681  12.487
21294W        W93609  42.558  20.196   4.597
21295W        W93610  26.439  20.591  14.544
21296W        W93611  36.501  27.172  12.898
21297W        W93612  42.444  43.023  14.818
21298W        W93613  24.834  11.125  11.000
21299W        W93614  38.490   7.719   2.657
21300W        W93615  16.763  27.229  12.305
21301W        W93616  31.916   7.890  14.405
21302W        W93617  41.031  22.806  12.005
21303W        W93618  21.146   3.743  14.846
21304W        W93619  28.203  38.077   0.049
21305W        W93620  29.062  42.533   4.851
21306W        W93621   3.628   6.818   2.171
21307W        W93622  21.724  15.139  14.237
21308W        W93623  35.903  41.577  12.895
21309W        W93624  34.140   9.807  11.720
21310W        W93625  36.735   7.704   0.007
21311W        W93626  14.346   5.468   4.262
21312W        W93627  41.775  29.495   0.302
21313W        W93628  11.710  39.407   1.711
21314W        W93629  24.586  12.128  12.982
21315W        W93630  36.865   5.629   4.086
21316W        W93631   9.967   0.977   0.751
21317W        W93632  13.788   7.445   0.435
21318W        W93633  20.284  39.625  14.449
21319W        W93634   3.304   6.195   2.251
21320W        W93635  44.799  22.153   3.654
21321W        W93636  17.827  31.305  11.582
21322W        W93637  36.609  39.836   4.182
21323W        W93638  35.183  28.414   1.464
21324W        W93639  17.861  23.557  13.389
21325W        W93640  15.191  17.040  12.657
21326W        W93641   6.888  18.458  12.507
21327W        W93642  40.506  27.693   4.446
21328W        W93643  30.236  12.998  14.285
21329W        W93644   6.423  35.483  11.935
21330W        W93645  13.613  38.939  12.249
21331W        W93646  22.706   5.768  14.747
21332W        W93647   6.729  27.368  11.663
21333W        W93648  21.249  21.419  11.584
21334W        W93649  38.350  18.204   1.738
21335W        W93650  27.025  16.302   3.301
21336W        W93651  35.537   9.540   4.284
21337W        W93652  14.745  13.176   1.359
21338W        W93653  35.598   4.286   0.947
21339W        W93654   4.202  24.149   2.379
21340W        W93655  43.982  18.187   2.714
21341W        W93656  34.337  31.286   3.082
21342W        W93657  39.479  27.199   4.636
21343W        W93658   7.668  26.409  13.968
21344W        W93659   1.858  21.192   0.311
21345W        W93660   5.298  27.095   1.265
21346W        W93661  14.531  13.749  13.669
21347W        W93662  12.642   4.316   0.836
21348W        W93663  42.388  20.980   1.536
21349W        W93664  21.013  44.991   0.958
21350W        W93665  32.938  38.812   1.741
21351W        W93666   3.727  19.122   0.816
21352W        W93667  37.582  22.078   0.491
21353W        W93668  35.896  12.628  13.092
21354W        W93669  26.170  30.767   1.020
21355W        W93670  28.010  33.454  10.566
21356W        W93671   4.046   3.806  14.308
21357W        W93672   2.672  29.548   2.390
21358W        W93673   6.718  17.317   4.507
21359W        W93674  14.307   3.068   1.658
21360W        W93675  21.056  31.128   2.758
21361W        W93676  20.419  41.265  10.213
21362W        W93677  29.514  12.588   1.185
21363W        W93678   6.752  27.862  13.508
21364W        W93679  39.712  36.108   4.473
21365W        W93680  44.161  21.739  12.631
21366W        W93681  39.188  29.029   2.960
21367W        W93682   0.411   4.166  11.991
21368W        W93683  33.300  28.303  13.296
21369W        W93684  23.771  43.357   3.724
21370W        W93685  25.245  20.700  10.160
21371W        W93686   1.512  13.329  10.610
21372W        W93687  18.761  42.415   4.614
21373W        W93688   7.023  32.819  11.550
21374W        W93689   2.391  41.561  12.179
21375W        W93690   5.003  42.930   3.171
21376W        W93691  28.569   3.665  12.427
21377W        W93692  21.840  37.383  12.864
21378W        W93693  22.208   2.229   1.289
21379W        W93694  10.671  20.138  11.869
21380W        W93695  24.992  31.491  11.539
21381W        W93696  37.997  35.050  11.517
21382W        W93697  43.606  12.442   4.173
21383W        W93698  26.141  22.741   2.749
21384W        W93699   0.797   5.740  14.820
21385W        W93700  42.006  37.315  14.807
21386W        W93701  32.859   0.761   2.448
21387W        W93702  28.522  42.691  13.761
21388W        W93703  35.524   5.512   2.783
21389W        W93704  20.207  17.262   3.910
21390W        W93705   2.342  21.137   2.456
21391W        W93706  32.436  39.039  11.144
21392W        W93707   5.977  27.668   3.212
21393W        W93708  21.669  31.416   4.710
21394W        W93709  20.527  33.910   2.358
21395W        W93710   9.189   6.948  11.767
21396W        W93711  34.511  10.897  10.713
21397W        W93712  19.346  27.236  13.438
21398W        W93713  19.021  31.102  10.685
21399W        W93714  27.821  27.107  13.444
21400W        W93715  12.551  21.181  12.030
21401W        W93716  44.832  44.266   0.747
21402W        W93717  16.299  38.377  14.803
21403W        W93718  34.060  41.592   2.347
21404W        W93719   4.497  13.604  12.879
21405W        W93720  30.953  34.096  13.124
21406W        W93721   2.016   5.081  12.994
21407W        W93722   3.196  17.111  10.715
21408W        W93723  15.102  30.283  11.895
21409W        W93724  10.563  34.351   1.801
21410W        W93725  27.468  15.759  11.597
21411W        W93726   0.223  36.411  11.007
21412W        W93727  10.859  40.304   1.403
21413W        W93728  43.599  16.930   3.339
21414W        W93729  22.179   1.348  14.715
21415W        W93730  38.817  14.261  13.876
21416W        W93731  29.147  37.322   2.350
21417W        W93732  40.775  44.873   0.801
21418W        W93733  18.995  43.411  13.463
21419W        W93734  39.183  31.544   3.114
21420W        W93735  39.948  12.131   4.100
21421W        W93736  33.468  17.079  12.124
21422W        W93737  35.849  11.322   2.282
21423W        W93738  13.198  35.013  10.235
21424W        W93739  39.617  33.770   4.165
21425W        W93740   5.585   9.580   3.317
21426W        W93741  32.994  39.086   3.755
21427W        W93742  37.050  38.470   1.856
21428W        W93743  26.262   7.400   0.879
21429W        W93744  16.585  36.252   4.650
21430W        W93745  26.388  19.077   3.329
21431W        W93746   0.985   9.387   4.574
21432W        W93747  26.546  24.759   3.291
21433W        W93748   2.284  39.286  11.522
21434W        W93749  35.944  37.380  12.338
21435W        W93750  22.261  37.660   1.752
21436W        W93751   4.993   4.850   2.422
21437W        W93752  14.746  26.115   3.557
21438W        W93753  10.288  15.256  11.096
21439W        W93754  11.771  29.157  12.179
21440W        W93755  14.909  37.440   2.762
21441W        W93756   9.789   3.032   0.797
21442W        W93757  31.998  32.827   4.760
21443W        W93758  13.057  11.749   2.805
21444W        W93759  28.966  34.811  10.710
21445W        W93760  16.068   7.201   1.845
21446W        W93761  22.810  26.510  10.924
21447W        W93762   2.324   5.681   0.274
21448W        W93763  38.557  42.802  13.822
21449W        W93764  21.217  15.416   3.129
21450W        W93765  28.117  23.433  13.853
21451W        W93766  39.081  30.994   1.944
21452W        W93767  25.648  34.262  14.888
21453W        W93768  24.266  44.519  14.964
21454W        W93769  44.782   7.742  12.399
21455W        W93770  41.586   8.285  12.998
21456W        W93771  36.164   0.346  10.739
21457W        W93772  24.982  17.093  12.394
21458W        W93773   7.270  22.643   3.500
21459W        W93774   5.765  31.484   2.427
21460W        W93775  16.147  30.965  13.590
21461W        W93776  40.890  11.658  11.640
21462W        W93777  22.372   7.299   4.049
21463W        W93778  30.127  10.593  14.504
21464W        W93779  23.672  13.703  11.426
21465W        W93780   6.241  12.715   4.061
21466W        W93781  10.140  20.476  14.107
21467W        W93782  38.672   4.207  14.758
21468W        W93783   9.068  10.583  12.543
21469W        W93784   8.731   9.947  13.283
21470W        W93785  44.418  41.232  13.799
21471W        W93786  30.901  21.015  11.521
21472W        W93787  14.214  43.007   4.250
21473W        W93788  11.421  24.177   0.424
21474W        W93789  37.580  38.560   3.685
21475W        W93790  43.502  34.660  14.245
21476W        W93791  28.569   3.680  13.366
21477W        W93792  38.488  36.002   3.174
21478W        W93793  25.002  31.209   0.609
21479W        W93794  10.282  29.542  13.023
21480W        W93795  16.739  40.354   4.490
21481W        W93796   0.904  25.049  10.809
21482W        W93797  44.003   9.674   9.975
21483W        W93798  32.004  34.053  11.475
21484W        W93799   1.283   8.953   4.127
21485W        W93800  28.037  31.523   9.944
21486W        W93801  39.895  29.910  13.426
21487W        W93802  19.054  24.152   4.412
21488W        W93803  23.054  27.851   2.973
21489W        W93804  12.297  26.749  13.362
21490W        W93805  18.507  11.813  14.847
21491W        W93806   4.391   2.445  11.489
21492W        W93807  40.581  22.205  11.534
21493W        W93808  13.827   4.755  14.662
21494W        W93809  18.447  38.922   4.141
21495W        W93810   8.751   0.394  12.081
21496W        W93811  17.806   7.602  12.413
21497W        W93812  19.503  42.782   4.176
21498W        W93813   6.249  14.257  14.958
21499W        W93814   0.894   1.292   4.528
21500W        W93815  35.339  21.845   4.676
21501W        W93816  33.084  36.316   4.839
21502W        W93817  43.896  39.038  11.689
21503W        W93818  31.383  33.081   2.869
21504W        W93819  26.581  16.902   2.268
21505W        W93820  23.344  36.812   2.805
21506W        W93821  29.552   4.408   0.404
21507W        W93822  13.071   0.793  10.146
21508W        W93823  41.400   1.284   3.200
21509W        W93824  18.562  10.056   4.241
21510W        W93825  25.023  23.991   0.841
21511W        W93826  43.356   3.707   3.728
21512W        W93827  34.747  14.985  11.580
21513W        W93828  18.603   2.889  12.613
21514W        W93829   6.604  27.602  12.922
21515W        W93830  41.455  21.240  12.222
21516W        W93831  34.147  36.397   2.795
21517W        W93832  29.508  24.451   0.045
21518W        W93833   8.246  36.331  11.109
21519W        W93834  30.411  32.399   2.397
21520W        W93835  41.710  15.715  10.414
21521W        W93836   8.161  17.323  11.195
21522W        W93837   7.521  30.378   0.738
21523W        W93838   9.736  44.120  13.953
21524W        W93839  10.608  44.448  11.092
21525W        W93840  21.608   6.422  13.807
21526W        W93841  44.348   4.291   2.187
21527W        W93842  44.130  26.773   1.385
21528W        W93843  33.119  40.256   3.325
21529W        W93844  39.047  30.529   1.319
21530W        W93845  30.148  41.909  14.208
21531W        W93846  27.216  35.494   1.714
21532W        W93847  11.024  24.203   4.159
21533W        W93848  18.147  31.790   4.220
21534W        W93849  19.721   8.114  12.649
21535W        W93850  40.962   7.150   4.219
21536W        W93851  18.559  35.903  11.172
21537W        W93852  25.582   7.881  14.955
21538W        W93853  28.883  23.489   2.846
21539W        W93854  12.510  29.611  11.482
21540W        W93855  27.923  43.550   3.715
21541W        W93856  26.097  14.203   1.789
21542W        W93857   2.838   5.378   4.641
21543W        W93858   4.650  11.663  11.242
21544W        W93859  34.131  43.969  12.014
21545W        W93860   0.366  41.403  14.230
21546W        W93861   2.511  41.660   5.105
21547W        W93862  26.177  22.477   1.417
21548W        W93863   5.115  10.218  11.993
21549W        W93864   4.318  17.514   2.779
21550W        W93865  32.823  31.005   2.218
21551W        W93866   2.343   9.481  10.930
21552W        W93867  31.941  39.476   4.156
21553W        W93868   8.236  23.024   2.914
21554W        W93869   1.249  13.455  11.052
21555W        W93870  25.821  28.875   2.882
21556W        W93871  35.856  44.524  13.388
21557W        W93872  34.515  11.817  12.021
21558W        W93873  16.799   4.171   2.340
21559W        W93874  38.992  17.747  11.025
21560W        W93875  31.138  32.184  14.469
21561W        W93876   4.842  44.203  10.910
21562W        W93877  40.095   2.799  14.841
21563W        W93878  44.276  36.948  12.592
21564W        W93879   3.588   6.665  14.766
21565W        W93880  29.950  27.342  14.404
21566W        W93881   9.072  29.073  12.103
21567W        W93882  14.107  25.529  14.334
21568W        W93883  25.587  16.491  10.851
21569W        W93884  44.306  10.119   3.690
21570W        W93885  11.746  18.280  14.846
21571W        W93886  42.833  21.707  14.498
21572W        W93887   5.888   4.725  12.906
21573W        W93888   3.743  18.719   4.160
21574W        W93889  19.211  11.062   1.661
21575W        W93890  18.212  40.836   5.159
21576W        W93891  28.140  35.492  11.855
21577W        W93892  26.189   9.305   4.335
21578W        W93893  27.546   2.927  11.994
21579W        W93894   7.910  35.973  11.414
21580W        W93895   7.905  28.509  10.551
21581W        W93896  24.766  15.769   3.598
21582W        W93897  37.219  36.817   3.955
21583W        W93898  39.079  42.279  11.193
21584W        W93899  12.311  15.850  13.964
21585W        W93900   0.458  20.416  11.390
21586W        W93901  39.039  23.057   5.193
21587W        W93902   7.303  39.601  13.926
21588W        W93903  39.793  24.112  10.642
21589W        W93904  27.001  22.219   2.215
21590W        W93905  29.200  37.093  13.017
21591W        W93906  23.045  12.945   3.203
21592W        W93907  24.780   3.419  10.900
21593W        W93908  13.723   1.659  12.187
21594W        W93909  19.698   1.233   4.928
21595W        W93910   4.845  43.394  11.692
21596W        W93911  12.887  16.481  12.312
21597W        W93912  18.778  35.021   0.320
21598W        W93913   8.078  34.305   0.475
21599W        W93914  44.534  18.460   2.188
21600W        W93915  22.740  36.349   0.883
21601W        W93916  40.720  19.341  12.044
21602W        W93917  17.212  31.633   2.169
21603W        W93918  17.168  40.412   0.260
21604W        W93919  27.662   6.641  11.127
21605W        W93920  30.097  22.494   1.225
21606W        W93921  35.979   3.663  12.601
21607W        W93922  12.233  35.992  10.715
21608W        W93923  15.027  24.256  13.049
21609W        W93924  14.384  30.487   2.922
21610W        W93925  32.012   0.188  13.094
21611W        W93926  26.768  43.429   3.229
21612W        W93927  40.853  31.483  14.135
21613W        W93928  26.078  28.572   1.366
21614W        W93929  10.543   0.434   3.202
21615W        W93930  34.978   9.564   4.530
21616W        W93931  25.837  36.378  12.405
21617W        W93932  32.854  14.687   2.666
21618W        W93933  18.314  41.361  10.646
21619W        W93934  24.223   5.694   4.051
21620W        W93935   0.392  38.056   1.762
21621W        W93936  40.794  43.823   2.967
21622W        W93937  42.567  26.867   4.007
21623W        W93938   8.652  15.989   2.733
21624W        W93939  24.266  27.716   0.418
21625W        W93940  13.809  30.199   1.729
21626W        W93941  42.355  27.507  13.845
21627W        W93942  22.016   8.676  11.891
21628W        W93943   1.570  29.161   1.851
21629W        W93944   6.405  40.763   0.174
21630W        W93945  37.104  23.929   2.282
21631W        W93946  10.757   8.491  14.351
21632W        W93947   9.317  13.052  14.038
21633W        W93948  16.111  29.706   0.130
21634W        W93949  27.611   8.398  13.837
21635W        W93950  11.343   0.288  11.614
21636W        W93951  18.054  29.555   2.023
21637W        W93952   2.964  44.814   3.623
21638W        W93953  24.763   0.449  12.383
21639W        W93954  35.840  30.534   4.070
21640W        W93955  18.328  39.439   1.222
21641W        W93956  40.255   7.409  13.506
21642W        W93957  37.128  35.470  11.572
21643W        W93958  37.966   9.159  14.478
21644W        W93959  14.689  39.689  12.436
21645W        W93960  22.058  17.421   4.095
21646W        W93961  19.955  33.571  11.588
21647W        W93962  12.388  18.863   3.146
21648W        W93963  25.916  26.343   3.162
21649W        W93964  42.849   2.357  10.498
21650W        W93965  14.740  18.545  12.162
21651W        W93966  37.560   0.915  14.292
21652W        W93967   2.903   5.305   3.252
21653W        W93968  39.015   0.010   0.885
21654W        W93969  26.723  43.584  13.606
21655W        W93970  39.492  33.315   3.239
21656W        W93971  38.125   7.526  12.425
21657W        W93972  41.100  27.612   1.348
21658W        W93973  29.831  25.119   3.731
21659W        W93974  33.894   1.725   3.870
21660W        W93975  26.969  28.410   0.167
21661W        W93976   7.317  37.495  11.047
21662W        W93977  41.959  41.516  13.526
21663W        W93978  37.062  17.241   1.877
21664W        W93979   8.189   1.538   3.205
21665W        W93980  21.487   9.888   4.646
21666W        W93981  16.375   2.185   1.917
21667W        W93982  28.510   5.186   4.248
21668W        W93983   2.358  42.977   0.294
21669W        W93984  17.638  25.497  13.827
21670W        W93985   6.906  19.334   3.792
21671W        W93986  38.792  14.707  12.145
21672W        W93987  44.226  33.597   4.406
21673W        W93988  23.463   5.592   1.795
21674W        W93989  15.822   8.514  14.435
21675W        W93990  24.851   7.816   1.721
21676W        W93991  21.934   1.751  12.382
21677W        W93992  31.548  16.006   4.290
21678W        W93993  36.756  32.184  11.056
21679W        W93994  21.484  25.021  14.549
21680W        W93995  15.272  30.583  14.832
21681W        W93996   0.046  16.185   0.496
21682W        W93997  22.243   0.376   0.722
21683W        W93998  18.252  40.778   3.656
21684W        W93999  22.510  29.437  14.748
21685W        W94000  43.896  24.798  14.038
21686W        W94001  10.157  16.012  12.425
21687W        W94002   8.508  13.226  13.434
21688W        W94003  26.748  34.978   0.962
21689W        W94004  13.787  40.533   1.221
21690W        W94005   6.334  38.967   4.632
21691W        W94006  41.453  22.496  11.157
21692W        W94007  44.522  40.939  12.003
21693W        W94008   8.833  22.623  14.324
21694W        W94009  27.733  32.425   1.125
21695W        W94010  35.795  23.915   0.259
21696W        W94011   1.316  39.257   3.625
21697W        W94012  27.181  25.244   1.820
21698W        W94013  21.698  25.010  13.191
21699W        W94014  25.641  17.518  10.675
21700W        W94015  18.743   3.441  13.490
21701W        W94016  34.873  27.626  14.061
21702W        W94017  17.684  18.806   4.240
21703W        W94018  41.354  30.358   1.939
21704W        W94019  41.256  14.378   4.588
21705W        W94020  44.790  22.883  13.360
21706W        W94021  14.200  19.220  12.269
21707W        W94022  18.055  27.417  12.861
21708W        W94023  34.001   8.397  12.959
21709W        W94024  28.116  18.661  13.284
21710W        W94025  21.228  16.006  10.709
21711W        W94026  19.351  30.538  14.800
21712W        W94027  39.053  27.048  14.018
21713W        W94028  42.641  35.074  14.270
21714W        W94029  38.544  13.715  10.898
21715W        W94030  37.806  33.003   2.179
21716W        W94031  10.881   1.866  12.638
21717W        W94032   2.408   4.206   0.927
21718W        W94033  32.385  14.286  11.477
21719W        W94034  35.023  29.703  13.776
21720W        W94035  16.219   2.992  13.385
21721W        W94036  16.998  17.056   2.175
21722W        W94037  26.168  33.541  13.448
21723W        W94038   9.111  40.474   0.772
21724W        W94039  42.565   2.074  13.408
21725W        W94040   2.928  23.263  12.635
21726W        W94041  23.328  17.570  14.792
21727W        W94042  21.319  33.273   1.388
21728W        W94043  34.837  39.854   1.160
21729W        W94044  23.813   8.074   2.742
21730W        W94045  30.374  22.701   3.801
21731W        W94046  42.566  27.470  10.294
21732W        W94047  28.601   8.929  12.031
21733W        W94048  37.436  41.056  14.410
21734W        W94049  15.291  11.663   2.056
21735W        W94050  39.665   0.418   1.399
21736W        W94051  12.200  19.299  11.160
21737W        W94052   0.649   8.658   0.861
21738W        W94053  28.910  40.211  10.649
21739W        W94054  39.150  42.928  14.210
21740W        W94055  26.571   5.076  13.881
21741W        W94056  33.314   4.049   2.225
21742W        W94057  20.494  10.918  10.587
21743W        W94058  19.683  12.008   5.062
21744W        W94059  14.774  20.690  12.110
21745W        W94060  27.248  31.679   0.710
21746W        W94061  21.222  24.646  11.352
21747W        W94062   6.887  23.368   3.281
21748W        W94063   0.341   0.931  14.835
21749W        W94064  20.819  41.410  10.534
21750W        W94065  14.360  15.674   1.789
21751W        W94066  39.416   1.838  12.814
21752W        W94067  38.384  35.688   4.339
21753W        W94068  28.197  32.419  11.988
21754W        W94069  31.008  37.329  13.291
21755W        W94070   3.362  10.041   0.876
21756W        W94071  20.281  10.045   9.805
21757W        W94072  15.219  24.488   3.339
21758W        W94073  41.382  31.064   3.535
21759W        W94074  25.588  36.987   4.528
21760W        W94075  12.251  17.307  14.011
21761W        W94076  42.904   1.852  10.598
21762W        W94077   0.025  25.039   0.504
21763W        W94078  40.581  27.761   1.389
21764W        W94079   0.389  26.498   4.054
21765W        W94080  12.677   4.387  13.104
21766W        W94081   9.630   7.713   1.129
21767W        W94082  27.528   5.670  11.194
21768W        W94083  36.351  34.080   4.173
21769W        W94084  21.693   3.730  12.553
21770W        W94085  17.791   8.673   2.345
21771W        W94086  43.267   9.323  11.535
21772W        W94087  44.309  32.101   0.344
21773W        W94088  44.646  40.937   3.170
21774W        W94089  23.153  20.503  11.158
21775W        W94090  41.255  29.045   3.182
21776W        W94091  26.790  38.110   1.861
21777W        W94092  25.558   7.980  14.452
21778W        W94093  10.073  33.400   2.922
21779W        W94094   7.154  16.101   0.345
21780W        W94095  12.726  21.489   2.099
21781W        W94096  25.490   0.664  11.091
21782W        W94097  20.971  27.056   1.826
21783W        W94098  37.593  27.442  14.167
21784W        W94099  41.059  26.317   1.464
21785W        W94100  20.330  17.295   0.812
21786W        W94101   1.484  18.962  10.613
21787W        W94102  11.434  35.506  14.513
21788W        W94103  30.234  21.143  12.946
21789W        W94104  42.137  32.080   5.016
21790W        W94105  15.214  11.117   4.633
21791W        W94106   7.941   1.450  12.604
21792W        W94107   9.196  37.269   3.406
21793W        W94108  43.706  33.695  12.554
21794W        W94109  22.121   9.295  11.214
21795W        W94110  38.035  26.219  13.192
21796W        W94111  12.858  15.279   1.938
21797W        W94112   7.750   7.302   1.631
21798W        W94113  26.377   2.002  14.745
21799W        W94114  33.082  18.493   0.285
21800W        W94115  39.115   5.668  11.558
21801W        W94116  13.816   3.515   4.255
21802W        W94117  34.588   4.410  10.511
21803W        W94118  30.408  43.879   2.339
21804W        W94119  29.015  12.217  10.468
21805W        W94120  31.943  10.975  11.032
21806W        W94121   1.287  16.062   1.373
21807W        W94122  14.326  37.627  13.005
21808W        W94123  15.651  44.973   4.405
21809W        W94124   1.289  37.903  13.721
21810W        W94125  42.037  31.051   0.884
21811W        W94126  21.518  23.932   3.207
21812W        W94127  43.978  38.528   0.003
21813W        W94128   8.099  25.574   3.158
21814W        W94129   4.681  25.874  12.380
21815W        W94130  35.073  10.702   1.335
21816W        W94131  37.786  20.159  12.123
21817W        W94132  31.874  23.994   2.793
21818W        W94133  10.708  31.144   1.932
21819W        W94134  10.248  33.488  14.436
21820W        W94135  44.846  20.431  12.594
21821W        W94136   5.129  18.310   3.194
21822W        W94137  41.063   2.388  11.577
21823W        W94138  13.144  22.971  13.896
21824W        W94139  41.947   2.665  14.391
21825W        W94140  33.997  32.383   2.757
21826W        W94141  41.324   4.690   2.957
21827W        W94142  39.036  39.953   4.115
21828W        W94143  26.153  38.323  13.793
21829W        W94144  28.228  40.382  13.544
21830W        W94145   1.845  34.950   5.465
21831W        W94146   7.964  32.884   3.616
21832W        W94147  21.306   4.756  12.920
21833W        W94148  37.829   2.062  12.837
21834W        W94149  21.036  33.468   0.927
21835W        W94150  38.703  24.230  13.312
21836W        W94151  42.917  30.737  14.384
21837W        W94152  36.104  30.674  11.525
21838W        W94153  40.972  22.409   0.696
21839W        W94154  13.798  30.897  10.750
21840W        W94155   7.031  30.399   0.872
21841W        W94156  28.952  33.123  13.475
21842W        W94157  15.880   2.408  12.997
21843W        W94158  31.353  26.585  12.952
21844W        W94159  25.386  35.458  14.419
21845W        W94160  35.895  19.465   1.082
21846W        W94161  12.426   5.795   3.695
21847W        W94162  10.851  18.011   4.286
21848W        W94163  43.969  35.852   4.944
21849W        W94164  31.361  34.956  12.522
21850W        W94165   9.356  25.953   4.935
21851W        W94166  18.719  19.207   4.041
21852W        W94167  19.835  10.725   3.682
21853W        W94168  36.866  13.399  13.080
21854W        W94169  15.360  18.173   1.999
21855W        W94170  26.547  39.758   2.155
21856W        W94171  36.282   7.592   2.806
21857W        W94172  40.188  12.899   3.119
21858W        W94173  31.918  41.360  10.304
21859W        W94174   9.470  19.761   3.685
21860W        W94175  15.076  44.699  14.513
21861W        W94176  32.444  40.086  13.323
21862W        W94177  39.978  15.055  12.865
21863W        W94178  32.420  20.503   4.533
21864W        W94179  16.483  16.113  13.483
21865W        W94180  17.176  33.971   2.271
21866W        W94181  35.679   6.250  11.923
21867W        W94182  11.713   2.312  13.453
21868W        W94183  31.870  44.486   4.596
21869W        W94184  19.481  36.825   2.633
21870W        W94185   4.413  21.992  13.873
21871W        W94186  34.045  16.227   4.595
21872W        W94187  42.540  24.162  10.805
21873W        W94188  31.881  26.986   0.260
21874W        W94189   0.371  41.390   2.758
21875W        W94190   3.706  27.947   0.064
21876W        W94191  27.120  13.866  14.981
21877W        W94192  12.754  18.945   0.904
21878W        W94193  32.117  40.989   0.434
21879W        W94194  10.175  16.106   3.610
21880W        W94195  31.287  19.529  11.175
21881W        W94196  28.939  27.809   1.088
21882W        W94197  29.848  19.200   4.908
21883W        W94198   7.787  41.032  10.795
21884W        W94199  22.601  23.723   2.263
21885W        W94200  36.504  25.737  11.523
21886W        W94201  10.397  18.030  14.780
21887W        W94202  35.552   2.909  12.051
21888W        W94203  21.585  22.975  10.395
21889W        W94204  29.608  28.963   0.675
21890W        W94205  17.700  27.936   9.855
21891W        W94206  16.312   3.940   3.634
21892W        W94207  19.690   5.409   4.252
21893W        W94208  28.576   1.476   4.364
21894W        W94209  14.037   8.184  13.961
21895W        W94210  36.473  32.053  14.800
21896W        W94211   2.822  27.519  12.851
21897W        W94212   9.179  10.835   2.678
21898W        W94213  37.317  22.972   2.311
21899W        W94214  35.683  33.840   3.253
21900W        W94215  34.435  40.891  13.394
21901W        W94216  10.061  43.969   0.320
21902W        W94217  32.090   3.361  13.954
21903W        W94218  38.100  39.472  14.882
21904W        W94219   3.687  25.656   4.910
21905W        W94220  11.777  25.406   2.028
21906W        W94221  28.228  36.923  12.508
21907W        W94222  23.746  31.034  14.315
21908W        W94223  17.245  25.399  10.457
21909W        W94224  32.537  35.091  14.277
21910W        W94225  26.611   4.417   3.721
21911W        W94226  38.811  30.851   2.711
21912W        W94227  25.699  31.723   2.121
21913W        W94228  39.979  38.863  13.261
21914W        W94229   3.756  12.306   3.309
21915W        W94230  20.182  17.503   4.344
21916W        W94231   6.374  27.447   4.457
21917W        W94232  14.936  26.187   2.165
21918W        W94233  31.646  24.030  11.955
21919W        W94234  34.380  28.020   4.898
21920W        W94235   6.208  10.746   3.787
21921W        W94236   3.435  19.760   4.407
21922W        W94237   7.408  14.632  12.654
21923W        W94238  14.729  27.740   2.868
21924W        W94239  26.194  20.008  11.617
21925W        W94240  12.172   8.895   1.691
21926W        W94241  27.459  37.408  12.512
21927W        W94242  21.138  14.791   3.823
21928W        W94243  25.196  20.982   4.997
21929W        W94244  23.461  39.025   3.724
21930W        W94245  39.431  11.209   3.244
21931W        W94246  36.884  18.231   0.066
21932W        W94247  29.457  17.306  12.004
21933W        W94248  19.148  44.375  10.732
21934W        W94249  42.376  40.612   3.116
21935W        W94250   2.269  16.288   2.805
21936W        W94251  30.100  36.847  14.419
21937W        W94252  14.557  24.443   2.702
21938W        W94253  20.223  23.976  12.401
21939W        W94254  25.553  32.452   0.753
21940W        W94255  30.547  17.813   1.045
21941W        W94256  32.429  23.765   4.626
21942W        W94257   3.182  36.436  14.307
21943W        W94258   4.963  15.608  11.004
21944W        W94259  18.854  11.286   4.596
21945W        W94260  37.369  14.162   3.088
21946W        W94261  38.448  42.797  14.337
21947W        W94262  44.373  42.774   1.977
21948W        W94263  23.976  22.867   2.374
21949W        W94264  19.282   8.918  10.248
21950W        W94265   4.231  21.733   3.668
21951W        W94266   5.268  25.276   2.449
21952W        W94267  35.274   8.910   1.872
21953W        W94268   5.251  34.816  10.642
21954W        W94269  28.401  23.718  12.525
21955W        W94270  41.150  30.217  11.845
21956W        W94271  30.613  40.680   0.418
21957W        W94272  24.135   9.862   2.680
21958W        W94273  20.666  30.189  11.673
21959W        W94274  35.614  33.011  13.930
21960W        W94275   6.794   4.488  12.481
21961W        W94276  25.178   8.487  10.875
21962W        W94277  38.798  22.599  13.910
21963W        W94278  27.212   3.885  11.497
21964W        W94279   1.939   9.229  13.477
21965W        W94280   8.121  32.976  12.953
21966W        W94281   6.179  27.364  11.612
21967W        W94282   4.803   3.506  14.291
21968W        W94283  41.909   3.907  13.518
21969W        W94284  23.986   0.989  11.171
21970W        W94285  35.460  10.630  13.433
21971W        W94286  35.875  38.744  14.910
21972W        W94287  15.028  26.374   3.040
21973W        W94288  41.435  39.482   1.722
21974W        W94289   4.394  16.772  10.986
21975W        W94290  25.427   5.368  13.083
21976W        W94291  35.902  10.568   1.935
21977W        W94292  42.931  42.614  13.018
21978W        W94293   2.755  13.756   2.933
21979W        W94294   3.476  13.789  11.038
21980W        W94295   3.699  32.651  14.020
21981W        W94296  40.942  12.196   2.697
21982W        W94297  38.043  27.552  13.766
21983W        W94298   5.272   3.892   3.834
21984W        W94299  44.707  35.546   3.373
21985W        W94300  42.832  17.382  11.493
21986W        W94301  43.813  31.463   4.588
21987W        W94302   2.918   5.668   4.220
21988W        W94303  11.070   6.277  14.928
21989W        W94304  29.119   4.731   3.729
21990W        W94305  24.285   4.483   4.600
21991W        W94306   7.658  43.431   2.645
21992W        W94307  26.490   5.280   2.241
21993W        W94308   6.461  14.134   3.660
21994W        W94309  21.578  39.580   0.709
21995W        W94310   9.856   7.004  12.721
21996W        W94311  18.879  17.069   4.035
21997W        W94312  40.196  27.311   1.412
21998W        W94313  19.974   2.049   4.474
21999W        W94314  14.700  37.846  11.034
22000W        W94315   2.293  10.804  12.836
22001W        W94316   1.324  14.417   2.805
22002W        W94317  34.681  11.726   2.942
22003W        W94318  15.138   1.857   1.674
22004W        W94319  15.189  11.383  13.374
22005W        W94320  42.111  36.412  13.876
22006W        W94321  16.262  15.737  11.668
22007W        W94322  16.747  22.151   1.711
22008W        W94323  15.134   1.234   0.362
22009W        W94324   8.383   2.332  14.292
22010W        W94325   6.599  44.206  13.013
22011W        W94326  18.632  44.383   4.356
22012W        W94327   6.545  28.544   3.081
22013W        W94328  21.225  42.392  13.095
22014W        W94329  11.216   3.246  12.099
22015W        W94330  36.416  12.809  13.967
22016W        W94331  18.324  29.966   9.942
22017W        W94332  13.782  20.317  14.270
22018W        W94333  36.074   6.083  14.496
22019W        W94334  18.231  28.350  13.356
22020W        W94335   0.750  11.247   0.396
22021W        W94336  38.892  30.397  14.069
22022W        W94337  25.000  10.286   1.489
22023W        W94338   7.747  33.126  11.974
22024W        W94339  11.845  32.171   2.955
22025W        W94340  12.647  22.717  14.363
22026W        W94341  37.818  17.074  11.194
22027W        W94342  19.069  35.344  10.637
22028W        W94343  43.491  37.894   0.677
22029W        W94344   6.937  40.135  12.123
22030W        W94345  22.543  18.724   0.371
22031W        W94346  43.009  43.570  12.818
22032W        W94347  13.714   4.444   1.714
22033W        W94348  43.974  29.109  13.453
22034W        W94349   8.441   8.774  11.519
22035W        W94350  20.173   9.045  10.842
22036W        W94351  14.911  29.190   2.606
22037W        W94352  24.962  18.021  14.432
22038W        W94353  20.087  32.453  11.085
22039W        W94354  27.108  17.010  11.617
22040W        W94355  18.500  31.082   2.553
22041W        W94356  29.591  25.969  13.972
22042W        W94357  37.785  18.213   3.136
22043W        W94358  19.603   2.150   0.806
22044W        W94359  11.189  22.219  11.963
22045W        W94360   6.215  31.489   0.179
22046W        W94361   9.137  20.324   1.886
22047W        W94362   1.254  25.614  10.716
22048W        W94363   8.614  23.603   1.898
22049W        W94364  31.969  34.584   1.115
22050W        W94365  15.324  37.982   4.766
22051W        W94366   4.970  17.495  10.651
22052W        W94367  15.338  18.634   4.568
22053W        W94368  28.602  35.829   0.070
22054W        W94369  39.326  30.499  11.963
22055W        W94370  30.834   5.683  12.616
22056W        W94371  34.181  26.021   3.341
22057W        W94372  38.524  30.634   1.335
22058W        W94373  18.847  32.105   0.161
22059W        W94374   9.677  29.458  14.727
22060W        W94375   2.462  19.092  12.568
22061W        W94376  34.630  35.628  14.117
22062W        W94377  34.095  42.090  13.114
22063W        W94378  21.699  37.925  13.741
22064W        W94379  43.244  36.965  13.000
22065W        W94380   7.940  39.484   2.381
22066W        W94381  42.920  22.475  14.753
22067W        W94382  31.646   6.261   1.030
22068W        W94383  32.415   0.931   4.292
22069W        W94384   3.851  35.397   3.662
22070W        W94385  20.065  13.535  13.883
22071W        W94386  42.320  18.368   0.380
22072W        W94387  35.821   4.356   0.260
22073W        W94388  36.972  31.525   3.166
22074W        W94389  26.249   9.251   2.860
22075W        W94390  17.167  29.876  12.514
22076W        W94391  20.611   4.681  10.586
22077W        W94392   4.007  16.098   2.165
22078W        W94393   9.630   3.892  13.335
22079W        W94394  30.443  25.555  10.712
22080W        W94395  21.110   0.199  12.560
22081W        W94396   5.995   6.879  11.394
22082W        W94397  24.746  11.560   4.112
22083W        W94398  16.020  12.433  13.551
22084W        W94399  21.668  34.827   4.264
22085W        W94400  26.249   6.438  12.851
22086W        W94401  18.742  15.132  11.652
22087W        W94402   0.486  36.883   5.028
22088W        W94403  12.306  29.092   0.528
22089W        W94404  29.428   8.271  13.463
22090W        W94405  12.176  17.195   4.087
22091W        W94406  26.513  21.650  13.849
22092W        W94407  27.333  44.911  12.451
22093W        W94408   9.414   4.943   4.152
22094W        W94409   6.618  30.278   2.247
22095W        W94410  27.981  18.531   1.659
22096W        W94411   0.251  11.768   4.585
22097W        W94412  29.426  36.712  13.259
22098W        W94413  17.708  12.671  11.482
22099W        W94414  11.330  30.414  13.148
22100W        W94415  20.304  25.151   4.145
22101W        W94416  37.831  31.590  11.818
22102W        W94417  41.056  20.123  13.028
22103W        W94418  44.061  14.327   1.736
22104W        W94419  10.545  37.950   3.229
22105W        W94420  14.653   7.486  12.848
22106W        W94421   1.284   5.745   3.831
22107W        W94422  32.181  44.232   3.218
22108W        W94423   5.225  39.933  12.069
22109W        W94424   8.722   5.387  14.239
22110W        W94425   8.856  36.552   3.139
22111W        W94426  26.084  42.493   2.386
22112W        W94427  41.371  42.596  14.345
22113W        W94428   6.499  39.301  12.077
22114W        W94429  33.537  44.454  13.776
22115W        W94430   7.689  30.127   1.261
22116W        W94431   5.354  35.568   4.648
22117W        W94432  21.920  12.788   3.776
22118W        W94433  42.289  30.243  13.920
22119W        W94434  27.723  18.345  12.115
22120W        W94435  16.605   8.406   2.382
22121W        W94436  20.110  22.690   1.020
22122W        W94437   0.481  26.939   4.325
22123W        W94438  14.790  43.013  10.670
22124W        W94439  35.386  20.802  10.883
22125W        W94440  16.576   0.291   2.945
22126W        W94441  11.757  15.386   2.695
22127W        W94442  26.634  39.093   4.686
22128W        W94443   2.751   4.996   0.951
22129W        W94444  38.910  24.501   2.901
22130W        W94445  12.630  10.141   3.218
22131W        W94446  13.848  28.927   0.189
22132W        W94447  28.495  29.606  10.670
22133W        W94448   3.417  22.248  14.648
22134W        W94449  34.561  17.912   0.413
22135W        W94450  26.963  19.135  14.385
22136W        W94451  39.436  41.490   4.288
22137W        W94452  15.871  10.613   1.917
22138W        W94453  35.082  28.675   0.927
22139W        W94454  42.413   3.934   3.853
22140W        W94455  35.849  20.639   1.657
22141W        W94456  13.531   3.668   3.293
22142W        W94457  13.114  34.234  12.362
22143W        W94458  33.194  31.847  13.856
22144W        W94459   7.728   7.267  14.528
22145W        W94460   1.288  42.729   2.411
22146W        W94461  14.580  10.780   2.883
22147W        W94462  18.959  21.305   2.447
22148W        W94463  16.326  11.389   2.723
22149W        W94464  23.273  42.404  11.108
22150W        W94465  28.410  30.629   4.655
22151W        W94466   6.647  28.645  13.813
22152W        W94467  17.174  30.082   3.696
22153W        W94468  43.662  17.273  12.016
22154W        W94469   9.908   7.727  13.438
22155W        W94470   6.731  23.393  11.903
22156W        W94471  29.910  17.668   1.712
22157W        W94472   1.288  27.901   1.238
22158W        W94473   5.028   5.224  12.929
22159W        W94474  32.537  26.422   1.944
22160W        W94475   0.342   9.886  10.265
22161W        W94476  40.762   6.681  14.500
22162W        W94477  26.220  26.456  14.536
22163W        W94478   6.413  41.095  11.060
22164W        W94479  13.612  40.730  11.042
22165W        W94480  10.364   8.449  12.618
22166W        W94481  26.726   2.851  14.839
22167W        W94482  18.501  28.907   1.408
22168W        W94483  35.883  30.399   1.010
22169W        W94484  33.875   6.730   2.210
22170W        W94485  12.829   0.358   3.929
22171W        W94486  27.083  11.830   2.939
22172W        W94487  11.070   2.170  13.073
22173W        W94488  19.668  12.371  11.380
22174W        W94489  11.896  35.140   1.738
22175W        W94490  36.105  35.697   1.863
22176W        W94491  35.064  24.205   1.830
22177W        W94492  23.943  40.027   5.414
22178W        W94493  22.242  28.957  14.704
22179W        W94494   8.952  43.866   0.818
22180W        W94495  28.677  43.696  12.683
22181W        W94496  19.495  26.770  10.829
22182W        W94497  12.940  17.297  14.647
22183W        W94498  43.734  25.946   2.749
22184W        W94499  36.465   6.643   3.809
22185W        W94500  16.285  43.356   0.859
22186W        W94501  18.745  28.800  11.565
22187W        W94502  16.386  16.172   0.880
22188W        W94503  36.577  16.331   4.144
22189W        W94504  36.307  42.561  12.501
22190W        W94505  43.312  34.105   4.113
22191W        W94506  31.645  39.952  13.554
22192W        W94507  40.632  43.469   1.356
22193W        W94508  20.260  12.810   1.176
22194W        W94509  43.925  40.485  14.844
22195W        W94510  38.448  26.339   1.198
22196W        W94511  22.729  29.137  12.032
22197W        W94512  35.264  33.739   2.832
22198W        W94513  41.821  35.093   1.335
22199W        W94514  24.376  25.286   3.130
22200W        W94515  30.148  31.400  11.236
22201W        W94516  21.157   1.391   2.229
22202W        W94517  13.255  44.220   4.708
22203W        W94518  36.477   8.705  11.925
22204W        W94519  38.861  33.266   3.625
22205W        W94520   9.934   0.206  11.226
22206W        W94521  29.344  37.879   2.820
22207W        W94522  10.350   0.503   0.051
22208W        W94523  16.198   8.749   0.270
22209W        W94524  40.478   1.190  14.337
22210W        W94525  22.416  41.930   4.605
22211W        W94526   6.209  10.719   2.318
22212W        W94527  24.274   2.848  13.722
22213W        W94528  40.110   3.039  11.426
22214W        W94529  16.788  38.264   1.473
22215W        W94530  31.609  18.290  10.709
22216W        W94531  26.478  30.314  14.366
22217W        W94532  32.423   2.905   2.104
22218W        W94533   7.755  11.654  12.396
22219W        W94534  24.596  36.032  14.302
22220W        W94535  17.032  16.145   2.694
22221W        W94536  33.384  30.982   1.954
22222W        W94537  27.400   1.991   3.995
22223W        W94538  14.990  19.595  14.060
22224W        W94539  39.020  34.520   2.286
22225W        W94540   0.719  24.905  10.336
22226W        W94541  25.584  21.693  14.038
22227W        W94542  21.677  14.023   0.013
22228W        W94543  41.963   3.776  10.658
22229W        W94544  30.905  41.390  12.089
22230W        W94545  13.528  24.617  14.923
22231W        W94546   7.286  39.771  12.211
22232W        W94547  28.469  25.837   3.234
22233W        W94548   8.604  39.375   0.441
22234W        W94549   0.403  38.816   3.200
22235W        W94550  19.296   0.846   0.903
22236W        W94551   8.264   8.906  13.825
22237W        W94552  13.116  20.968  11.330
22238W        W94553  36.080  26.578  14.356
22239W        W94554  21.490   1.864   2.128
22240W        W94555  11.147  41.746   4.388
22241W        W94556  43.093  44.409  12.608
22242W        W94557   8.112  31.574  14.467
22243W        W94558  15.288  29.117  11.277
22244W        W94559   9.851  38.766  10.777
22245W        W94560  21.520  23.443  12.454
22246W        W94561  14.683  12.605   3.134
22247W        W94562  31.242  34.135  13.546
22248W        W94563  40.044   6.125   3.869
22249W        W94564  31.577  19.210  13.308
22250W        W94565  42.830  11.671  13.501
22251W        W94566  34.520  32.125   4.526
22252W        W94567  26.370   0.746  13.674
22253W        W94568   9.635  13.881   1.838
22254W        W94569  35.202   0.666  14.862
22255W        W94570  17.231  10.660  12.966
22256W        W94571   9.815  23.219  12.103
22257W        W94572  17.245  32.851   4.577
22258W        W94573   2.010  39.479   2.372
22259W        W94574  29.349  22.309  11.608
22260W        W94575  12.021  42.522   4.785
22261W        W94576  17.692  36.589   3.684
22262W        W94577   7.162   8.376   4.782
22263W        W94578  10.285  27.872  14.648
22264W        W94579  40.335  18.731  14.069
22265W        W94580  16.225   3.715   4.555
22266W        W94581   7.880  16.045  13.370
22267W        W94582  23.507  23.704   3.766
22268W        W94583  16.573  40.372  13.882
22269W        W94584  20.147  36.679  13.303
22270W        W94585  21.660  22.544  10.129
22271W        W94586   6.417  23.169   3.317
22272W        W94587  18.416  17.097  13.383
22273W        W94588  44.774  24.814  13.508
22274W        W94589  36.514  19.998  14.483
22275W        W94590  24.288  34.646  13.152
22276W        W94591  22.480   5.460  11.920
22277W        W94592  25.195  43.413  13.814
22278W        W94593  15.516  16.756  14.836
22279W        W94594  30.167  11.052  12.278
22280W        W94595  26.202  26.169   4.078
22281W        W94596   3.399  29.569  14.456
22282W        W94597  22.215  21.283  10.156
22283W        W94598  31.195  17.305   3.188
22284W        W94599  14.681   9.898  14.000
22285W        W94600  16.199  33.440  12.183
22286W        W94601  10.609  32.901  14.932
22287W        W94602   0.541  19.570   3.199
22288W        W94603  43.825   1.707   2.791
22289W        W94604  35.120  43.279   0.794
22290W        W94605  30.373  17.240   0.850
22291W        W94606  17.119  37.411   1.566
22292W        W94607  14.086  42.867  10.918
22293W        W94608   6.176  44.302  14.517
22294W        W94609  41.509   0.961  10.740
22295W        W94610  37.509  42.448  14.065
22296W        W94611  12.101  18.258   4.609
22297W        W94612   4.954   1.700  12.089
22298W        W94613  29.438  34.138  12.023
22299W        W94614  18.121  12.107  12.970
22300W        W94615   8.263   0.397   2.630
22301W        W94616  43.211  33.175   0.471
22302W        W94617   9.229  12.649   2.896
22303W        W94618   5.868  44.566   1.747
22304W        W94619  22.788  33.021   0.375
22305W        W94620  19.242  29.426   3.604
22306W        W94621  14.637  37.887   2.724
22307W        W94622  14.295  41.697  12.775
22308W        W94623  43.243  11.627   5.415
22309W        W94624  40.926  36.373  10.741
22310W        W94625   0.750  25.694   3.211
22311W        W94626  40.035   3.917  11.601
22312W        W94627  16.103  18.063   0.864
22313W        W94628  19.295  27.713  11.127
22314W        W94629  25.282  25.592   4.108
22315W        W94630   0.004  34.521  10.130
22316W        W94631  20.615  13.427  11.206
22317W        W94632  16.155   6.384  14.983
22318W        W94633   8.821  19.092  14.348
22319W        W94634  33.436  33.338   1.431
22320W        W94635   0.513  41.937  13.375
22321W        W94636  40.567  35.391   1.289
22322W        W94637  14.265  41.899  11.044
22323W        W94638  14.245  32.363   3.649
22324W        W94639  43.455  26.238  11.232
22325W        W94640  31.202  26.042  10.916
22326W        W94641  26.563  12.145  13.818
22327W        W94642   4.306  25.448   3.681
22328W        W94643  19.365  30.606  11.375
22329W        W94644  24.956  28.101   1.658
22330W        W94645  39.578   9.415   0.876
22331W        W94646  12.421  19.622   4.256
22332W        W94647  36.436  15.966  13.888
22333W        W94648  30.639  19.337  12.405
22334W        W94649  20.340   5.894   0.330
22335W        W94650  41.540  19.503  14.815
22336W        W94651  33.085  17.555   4.123
22337W        W94652   4.268  21.258  12.715
22338W        W94653  31.640  24.243   1.435
22339W        W94654   3.341  14.888  12.592
22340W        W94655  35.813  16.064   4.047
22341W        W94656  38.566  24.111   1.365
22342W        W94657   3.767   1.646  11.122
22343W        W94658   9.809  23.717  11.318
22344W        W94659  39.272   7.974   1.035
22345W        W94660  13.205  28.333  14.315
22346W        W94661   7.793   5.238   2.613
22347W        W94662  18.753  40.068   0.037
22348W        W94663   6.798  43.855   1.654
22349W        W94664  43.899  18.015  11.447
22350W        W94665  39.899  37.468  12.313
22351W        W94666  16.266  11.802  11.577
22352W        W94667  27.118  25.704   4.574
22353W        W94668   6.198  31.570   4.678
22354W        W94669  19.376  28.600   5.612
22355W        W94670  40.436   6.414   4.041
22356W        W94671   5.893  42.242  12.192
22357W        W94672   9.159   7.121  10.678
22358W        W94673  27.415  28.470  11.113
22359W        W94674  17.979  20.657  12.141
22360W        W94675   9.822  43.795  12.037
22361W        W94676  26.397  19.741  12.183
22362W        W94677  40.950  39.419  14.009
22363W        W94678  13.105   8.171   2.789
22364W        W94679   4.711  42.852  12.599
22365W        W94680   8.051   9.025   2.127
22366W        W94681  17.105  32.601   3.333
22367W        W94682  42.821  33.159   2.392
22368W        W94683  26.619  40.352   1.297
22369W        W94684   2.030  28.169   0.889
22370W        W94685   5.510  30.722   0.950
22371W        W94686  28.941  38.843  14.752
22372W        W94687  23.247  26.480  10.668
22373W        W94688  27.639   4.520  11.978
22374W        W94689  26.707   4.272  13.195
22375W        W94690  35.507   2.422  11.635
22376W        W94691   8.728  26.508   4.117
22377W        W94692  32.996  30.163   0.307
22378W        W94693  10.891   9.640   3.665
22379W        W94694  35.379  13.502  14.846
22380W        W94695   8.715  43.440   4.604
22381W        W94696  19.209  27.771  14.321
22382W        W94697  34.524   4.723  14.536
22383W        W94698  11.670   8.960  11.974
22384W        W94699  32.169  15.203   4.390
22385W        W94700  28.118  19.158  11.606
22386W        W94701  29.420   5.351  13.262
22387W        W94702  36.393  28.672  12.988
22388W        W94703  38.569   5.857  12.441
22389W        W94704  36.127  16.285   4.403
22390W        W94705  28.487  37.370  12.386
22391W        W94706   1.154   1.771  10.889
22392W        W94707  17.757  41.631  10.273
22393W        W94708  15.284  11.416  11.614
22394W        W94709  30.274   6.751   3.997
22395W        W94710  12.072  38.034  11.615
22396W        W94711   1.011  18.541   2.212
22397W        W94712   4.204  25.677  11.487
22398W        W94713   7.346  44.870   2.325
22399W        W94714   1.288  35.374   4.194
22400W        W94715  24.131  31.938  10.146
22401W        W94716  29.187  33.007   3.891
22402W        W94717   4.184  14.742  11.574
22403W        W94718   0.700  17.267  11.753
22404W        W94719   9.149   7.644  10.566
22405W        W94720  30.191  44.472   1.369
22406W        W94721  42.555  10.791   1.402
22407W        W94722  39.260  10.239   3.788
22408W        W94723  36.313  20.989  10.700
22409W        W94724  35.653  11.638  14.773
22410W        W94725  10.815  40.340   2.935
22411W        W94726  12.171  42.152   1.801
22412W        W94727  24.865  21.993   2.266
22413W        W94728   1.476  42.146   2.663
22414W        W94729  41.515   4.319   1.701
22415W        W94730  23.690  15.300   3.311
22416W        W94731  30.441  38.823  13.826
22417W        W94732  22.578  23.753   3.671
22418W        W94733  29.758  38.079  13.394
22419W        W94734  26.539   9.137  13.895
22420W        W94735  24.423   6.720  14.668
22421W        W94736  29.828  41.411  11.243
22422W        W94737  40.792  11.162   1.647
22423W        W94738  17.523  14.629   0.731
22424W        W94739  30.227  25.449  11.169
22425W        W94740   4.750  31.822   3.833
22426W        W94741  37.113  12.209  11.562
22427W        W94742  15.306  42.346   4.643
22428W        W94743  36.453  20.247   4.236
22429W        W94744  36.546  12.201  10.697
22430W        W94745   8.396  38.934   2.672
22431W        W94746   9.184  43.098   1.337
22432W        W94747  18.277   4.362   0.076
22433W        W94748   8.749  11.350   3.662
22434W        W94749  44.805  39.084   0.349
22435W        W94750   8.366  34.910   1.479
22436W        W94751  23.207  36.448   1.097
22437W        W94752  34.923  25.348  11.467
22438W        W94753  25.219  25.619  11.121
22439W        W94754  10.048  21.114   4.102
22440W        W94755  20.236   2.376   2.873
22441W        W94756  25.951   0.018   3.665
22442W        W94757  42.919  33.368   4.508
22443W        W94758   8.743  22.493   3.720
22444W        W94759  34.980  21.510   2.957
22445W        W94760  14.198  36.081  12.586
22446W        W94761   4.436   3.313  10.972
22447W        W94762  12.675  13.684  14.228
22448W        W94763  24.046   8.155  13.307
22449W        W94764  26.492   5.819   0.532
22450W        W94765  23.201  28.231   4.325
22451W        W94766   8.382   4.234  13.864
22452W        W94767  31.519   6.909   3.979
22453W        W94768  27.800  26.112  11.481
22454W        W94769  37.830   3.468   3.294
22455W        W94770  22.163  11.601   1.953
22456W        W94771  10.229  11.833   3.839
22457W        W94772   7.510  44.584  13.950
22458W        W94773   7.426  38.919   4.554
22459W        W94774   6.492  41.852   2.699
22460W        W94775  11.398  34.556   4.521
22461W        W94776  18.545  29.965   3.833
22462W        W94777   3.847  35.923  13.476
22463W        W94778  43.213  30.338  11.120
22464W        W94779  43.052  30.674   2.225
22465W        W94780  22.776  31.574   2.673
22466W        W94781  11.569  20.515   3.495
22467W        W94782  38.850  39.592  13.387
22468W        W94783  43.404  32.147  11.136
22469W        W94784  22.990  10.623   0.515
22470W        W94785  39.429   0.469   1.872
22471W        W94786  35.887  14.706   4.730
22472W        W94787  11.840  12.589   1.641
22473W        W94788   9.850  37.958  12.016
22474W        W94789  17.007  40.447   2.651
22475W        W94790  37.132  25.708   2.727
22476W        W94791  11.532  44.451   1.322
22477W        W94792  38.348  15.547   2.903
22478W        W94793  30.333  21.275  11.077
22479W        W94794  33.116  33.901  12.923
22480W        W94795  10.911  33.969   0.328
22481W        W94796  10.735   7.985  14.330
22482W        W94797  14.226   3.475  12.038
22483W        W94798  13.135  29.692   3.971
22484W        W94799   2.870  27.659  13.956
22485W        W94800   5.950  43.462  13.406
22486W        W94801  17.100  41.002  14.430
22487W        W94802  13.697  29.850   0.034
22488W        W94803  39.473  23.053  10.069
22489W        W94804   6.918  13.578  10.866
22490W        W94805  35.774  30.898   0.874
22491W        W94806  33.992  24.507   3.319
22492W        W94807  35.136   7.043   0.497
22493W        W94808   6.395  16.067   2.194
22494W        W94809   3.715  21.857  11.666
22495W        W94810  36.304  25.176  14.262
22496W        W94811  24.410   0.237   3.267
22497W        W94812  20.806   7.911   0.605
22498W        W94813  31.638  17.241   2.293
22499W        W94814  39.880  23.102   3.158
22500W        W94815  29.865  43.385   2.842
22501W        W94816  20.391  26.140   1.412
22502W        W94817  10.389  19.791   0.775
22503W        W94818  16.692  14.624  14.058
22504W        W94819  25.818  24.186  10.608
22505W        W94820  11.814  21.350  11.364
22506W        W94821   2.412  41.425   3.239
22507W        W94822  38.025   5.360  12.939
22508W        W94823  12.864  37.371   3.769
22509W        W94824   1.810   7.612   3.200
22510W        W94825   1.504  44.141   0.580
22511W        W94826  26.678  12.691   1.418
22512W        W94827  30.589  26.750  13.501
22513W        W94828   8.776  24.201   1.271
22514W        W94829  33.138   4.063  13.107
22515W        W94830  44.044  40.282   2.310
22516W        W94831  37.724  19.779  13.031
22517W        W94832  16.298  10.798  13.831
22518W        W94833  29.716  36.012  11.645
22519W        W94834   3.078   9.555  12.900
22520W        W94835  31.647  14.410   0.262
22521W        W94836  23.789  27.782   0.243
22522W        W94837   1.497  31.817   3.775
22523W        W94838  22.288  31.120   4.202
22524W        W94839  37.896   1.467   1.350
22525W        W94840  30.314  43.423   0.406
22526W        W94841  22.605  24.595   4.844
22527W        W94842  38.774  20.044   0.280
22528W        W94843   0.703  10.262  10.249
22529W        W94844   8.232  38.813   0.339
22530W        W94845  27.015  24.796  11.617
22531W        W94846   3.413  15.172  13.307
22532W        W94847  40.968   9.695  14.025
22533W        W94848  43.866  19.550  14.876
22534W        W94849  11.478   9.226  13.994
22535W        W94850  27.534  17.159  14.942
22536W        W94851  26.898  22.189  12.379
22537W        W94852  42.438  11.278   2.405
22538W        W94853  10.534  10.890   4.026
22539W        W94854  17.767  42.097  12.658
22540W        W94855  21.069  31.495   3.318
22541W        W94856  35.783  34.916   1.230
22542W        W94857  31.191  25.728   3.596
22543W        W94858  43.887  24.603   3.386
22544W        W94859  12.611  37.885   0.492
22545W        W94860  37.409  14.640   3.642
22546W        W94861  12.281  22.729   1.428
22547W        W94862  39.827  18.538  11.865
22548W        W94863  37.539  17.921  11.474
22549W        W94864  14.087  31.872  12.323
22550W        W94865  37.486  14.352   2.166
22551W        W94866  36.348  36.084  12.466
22552W        W94867  31.274   7.481   5.183
22553W        W94868  41.377  28.202  10.637
22554W        W94869  30.865  30.134   0.502
22555W        W94870  39.163  32.543  14.848
22556W        W94871  13.541  25.399   3.437
22557W        W94872  20.953   3.777   1.505
22558W        W94873  22.145  18.611  14.364
22559W        W94874  10.895  43.482   2.898
22560W        W94875  39.912  16.370  11.105
22561W        W94876  28.038  35.453   3.701
22562W        W94877  17.171   7.743   3.186
22563W        W94878  18.272  15.014  11.444
22564W        W94879   5.838  10.111  12.473
22565W        W94880  31.943  22.546   2.618
22566W        W94881  26.472  41.032  14.567
22567W        W94882  12.611  37.511  12.799
22568W        W94883  43.342  22.669  10.122
22569W        W94884  13.613  25.289  12.688
22570W        W94885  26.923   1.085   0.276
22571W        W94886  31.318   9.850   3.294
22572W        W94887  38.314  30.117  11.198
22573W        W94888   1.454  18.324   0.862
22574W        W94889  39.445   7.767   1.468
22575W        W94890   6.189  15.261   2.408
22576W        W94891  28.997   0.287   4.060
22577W        W94892  38.999  29.409   2.659
22578W        W94893  11.195  16.383  13.691
22579W        W94894  42.599  10.320   4.228
22580W        W94895  43.346  29.465   3.766
22581W        W94896  32.145  16.564  14.502
22582W        W94897   6.314  25.719  10.797
22583W        W94898  39.483  38.420   3.114
22584W        W94899  41.060  32.591   2.826
22585W        W94900  43.914  27.477   4.799
22586W        W94901  26.645  43.944  13.963
22587W        W94902  15.430  34.641  11.204
22588W        W94903  38.831  13.855  14.573
22589W        W94904  25.749  41.006  12.513
22590W        W94905  32.830  42.915  14.499
22591W        W94906  33.443   8.440  13.472
22592W        W94907  41.036  14.111  13.585
22593W        W94908  15.232   4.229   2.654
22594W        W94909   9.337  36.906  11.495
22595W        W94910  15.380   1.368   3.369
22596W        W94911  31.100  13.377  10.728
22597W        W94912  37.455  19.008  11.641
22598W        W94913  19.057  34.210  11.273
22599W        W94914  44.719  25.538  11.916
22600W        W94915   3.715  32.127   1.828
22601W        W94916  29.806  39.086  10.664
22602W        W94917  32.592  12.130   3.902
22603W        W94918  11.697   6.931  10.386
22604W        W94919  14.105   2.791  10.696
22605W        W94920  19.151  33.048   1.396
22606W        W94921   4.104  20.702   1.382
22607W        W94922   3.451  18.162  14.877
22608W        W94923  19.580  43.308   1.943
22609W        W94924  44.394  15.591  10.757
22610W        W94925  17.784  39.309  12.956
22611W        W94926  15.961   8.585  12.487
22612W        W94927   6.205   2.482   4.380
22613W        W94928  27.910  16.809  14.916
22614W        W94929  12.710  27.519  13.539
22615W        W94930   1.255  13.515   0.945
22616W        W94931  11.752  35.337  12.122
22617W        W94932   9.856   1.723  12.404
22618W        W94933   1.017  12.856   2.344
22619W        W94934  41.243   3.861   1.819
22620W        W94935  43.795  14.350   3.607
22621W        W94936   2.550  37.260   3.661
22622W        W94937  18.230  31.315   2.925
22623W        W94938  44.295  13.260   0.891
22624W        W94939  28.252  44.633  12.650
22625W        W94940  22.748  16.702  13.322
22626W        W94941  30.670  12.248   1.965
22627W        W94942  33.059  13.358   4.646
22628W        W94943  13.258  36.009  13.570
22629W        W94944  23.155  42.932  11.004
22630W        W94945  25.193  39.394  10.931
22631W        W94946  11.266  40.614   2.174
22632W        W94947  15.877  26.378   2.431
22633W        W94948   6.458   6.651  11.167
22634W        W94949  40.917  27.998  10.555
22635W        W94950  19.043  29.157   2.207
22636W        W94951   9.726   7.200  14.436
22637W        W94952  12.285  13.983  14.004
22638W        W94953  28.084  19.353  12.123
22639W        W94954   2.507  28.990   2.116
22640W        W94955  35.254  26.161   0.516
22641W        W94956  36.667   3.295  11.251
22642W        W94957  22.246  40.703  10.757
22643W        W94958  29.410  18.757  12.068
22644W        W94959   3.937  10.277   2.442
22645W        W94960  31.146  21.251   4.650
22646W        W94961  30.671   0.961   1.782
22647W        W94962  41.885  33.820  12.001
22648W        W94963   6.768   5.827   1.698
22649W        W94964  24.984  35.869   0.079
22650W        W94965   4.726  15.207   3.111
22651W        W94966   7.901  29.144   1.373
22652W        W94967  43.477  30.207  10.659
22653W        W94968  18.009  19.980   1.189
22654W        W94969  36.502  11.171  14.512
22655W        W94970  10.931  42.761  13.951
22656W        W94971  43.439  17.508   2.056
22657W        W94972  18.016  28.068  14.987
22658W        W94973  18.210  38.257   2.795
22659W        W94974  43.277  28.082  14.883
22660W        W94975  22.293  13.323   0.380
22661W        W94976   0.709  40.066   4.639
22662W        W94977  44.029  30.455   2.375
22663W        W94978  43.450  19.994  10.681
22664W        W94979  41.466  35.640  10.482
22665W        W94980  34.357  10.242  11.990
22666W        W94981   6.918  33.940   3.612
22667W        W94982   8.948  18.363  13.882
22668W        W94983   6.331   7.955  12.921
22669W        W94984  27.152  37.404  14.297
22670W        W94985  19.576  16.069  11.995
22671W        W94986  18.355  35.438  11.694
22672W        W94987  22.444  14.761  13.436
22673W        W94988  18.534  40.908   4.545
22674W        W94989  37.791  20.083  13.456
22675W        W94990   0.110  19.285   3.325
22676W        W94991  25.673   5.086   3.578
22677W        W94992  33.866  16.424   4.128
22678W        W94993  36.729   3.363   9.900
22679W        W94994  15.381   7.771  14.967
22680W        W94995  30.854  29.140  11.964
22681W        W94996  24.332   7.939  11.097
22682W        W94997  18.308   8.424  13.544
22683W        W94998  14.590   5.400  10.499
22684W        W94999   2.482   9.622   2.893
22685W        W95000  21.470  17.127  11.587
22686W        W95001  39.833  10.966   0.348
22687W        W95002  42.716  40.485  11.224
22688W        W95003  25.007  29.871  13.489
22689W        W95004  42.020  13.164  12.556
22690W        W95005  37.483   9.765   4.785
22691W        W95006  11.771  24.135   0.799
22692W        W95007  27.215  25.798  11.342
22693W        W95008  26.423  16.423  12.996
22694W        W95009  33.063  19.238  11.168
22695W        W95010  35.106  22.179   0.257
22696W        W95011  18.245  17.582   4.267
22697W        W95012  26.716  32.732  10.737
22698W        W95013  21.480  33.057   3.647
22699W        W95014  11.740  43.992   0.310
22700W        W95015  30.340  23.780  13.071
22701W        W95016  12.621  44.975   4.646
22702W        W95017  38.084  25.743   2.928
22703W        W95018  41.273  14.269   3.329
22704W        W95019   8.850  42.199  11.565
22705W        W95020  41.208   0.656   4.547
22706W        W95021   1.997  34.626   2.245
22707W        W95022  41.973   4.955   4.300
22708W        W95023  23.138  31.656   2.158
22709W        W95024  40.838  37.852   0.283
22710W        W95025  30.605  32.159  10.997
22711W        W95026  43.849  32.402   1.871
22712W        W95027  25.297  32.892   5.336
22713W        W95028   3.923  30.932   4.643
22714W        W95029  12.662  16.607   2.179
22715W        W95030  35.963  28.442   0.196
22716W        W95031  24.972  41.317   4.562
22717W        W95032  23.940  26.752  12.912
22718W        W95033   0.499  26.430  11.994
22719W        W95034  29.347   5.441   3.576
22720W        W95035  43.793  36.893  13.440
22721W        W95036  43.533  17.323   1.149
22722W        W95037  23.000  20.244  11.584
22723W        W95038  29.924  30.941  11.281
22724W        W95039   0.738  22.574  13.365
22725W        W95040   7.125  36.785   0.402
22726W        W95041  28.879  43.096  14.802
22727W        W95042  18.529  16.526   2.733
22728W        W95043  32.416   2.418   2.900
22729W        W95044   8.863  12.681  11.654
22730W        W95045   8.759  29.892  14.351
22731W        W95046  14.058  40.269  12.327
22732W        W95047  44.008  31.708   0.631
22733W        W95048  29.732  40.083  10.971
22734W        W95049  38.025  32.096  11.966
22735W        W95050  11.083  39.749   0.685
22736W        W95051  18.189   1.417  11.077
22737W        W95052  27.757  41.628   0.199
22738W        W95053  13.861  42.279   2.348
22739W        W95054  31.536  30.353  13.904
22740W        W95055   0.214   7.456  10.655
22741W        W95056  37.291  33.421  13.590
22742W        W95057   5.668  16.052  10.730
22743W        W95058  43.926   1.291  13.393
22744W        W95059  40.849   2.942  13.489
22745W        W95060   6.786  35.587   3.200
22746W        W95061  35.094  20.882   3.802
22747W        W95062  10.914  43.699   2.351
22748W        W95063  20.717  25.430  12.413
22749W        W95064  33.906  37.144  10.629
22750W        W95065  43.040   0.270  14.444
22751W        W95066  36.841   0.378  11.257
22752W        W95067  32.483  34.639   0.981
22753W        W95068  13.359  10.277  13.915
22754W        W95069  25.772  13.325  12.066
22755W        W95070  26.552   7.615   0.464
22756W        W95071  24.443  38.135  12.682
22757W        W95072  42.298  23.874   3.322
22758W        W95073  35.125  17.170   0.049
22759W        W95074  30.128   5.366   3.211
22760W        W95075  35.683   2.900  11.564
22761W        W95076  31.750  39.376  10.714
22762W        W95077   2.399  38.032   4.271
22763W        W95078  13.903  24.330   0.483
22764W        W95079  29.045  36.347  12.771
22765W        W95080   6.736  27.506  13.883
22766W        W95081  37.402  42.991  13.287
22767W        W95082  25.423   3.296   2.445
22768W        W95083  22.711  36.533  11.200
22769W        W95084  14.238   7.781  10.891
22770W        W95085  35.531   9.426   0.970
22771W        W95086  38.979  16.168   1.781
22772W        W95087  40.154  36.050  14.767
22773W        W95088   2.367  18.353  11.096
22774W        W95089  26.015   4.984  12.396
22775W        W95090  27.019   6.292   2.142
22776W        W95091  25.939  24.909   1.247
22777W        W95092   3.895  11.201  11.592
22778W        W95093  11.734  14.410   3.148
22779W        W95094  42.270  29.053  13.036
22780W        W95095  31.642  26.384   4.901
22781W        W95096  35.031  30.371  12.520
22782W        W95097  13.153  25.064  12.482
22783W        W95098  36.474  22.741  11.144
22784W        W95099  28.397  15.597   2.815
22785W        W95100  41.946  32.393  10.644
22786W        W95101  19.737   5.901  14.961
22787W        W95102  10.653  39.650  13.034
22788W        W95103  40.248  36.075   4.661
22789W        W95104  24.161  22.322  14.228
22790W        W95105  12.332  21.094  13.329
22791W        W95106  42.006   2.635   4.281
22792W        W95107  43.942   7.584   1.935
22793W        W95108  13.235  34.630   0.424
22794W        W95109  14.791  22.353   3.773
22795W        W95110  19.599  20.736   4.953
22796W        W95111  35.446  20.181   1.003
22797W        W95112  13.634  29.115   1.254
22798W        W95113  13.300  35.605  11.909
22799W        W95114  10.315   0.533   1.447
22800W        W95115   7.706  36.479  11.138
22801W        W95116  21.224  30.956  11.592
22802W        W95117  43.513   6.843   1.821
22803W        W95118   3.418  32.558   3.646
22804W        W95119   0.449  29.504  14.410
22805W        W95120  32.003  40.745  13.970
22806W        W95121  13.859  38.432  11.372
22807W        W95122  44.953   3.367   0.706
22808W        W95123  19.617  17.785   1.819
22809W        W95124   6.542   9.304   3.796
22810W        W95125  29.431  40.879  14.554
22811W        W95126  14.153  23.010  11.183
22812W        W95127  35.395  29.458  14.439
22813W        W95128  15.205  41.564   1.392
22814W        W95129  36.100   5.904  13.537
22815W        W95130  35.576  38.353  12.019
22816W        W95131   9.754  12.844  11.462
22817W        W95132  44.519   2.295  12.992
22818W        W95133  40.788  11.194  13.970
22819W        W95134   1.342  32.931   5.235
22820W        W95135  16.255  24.113   1.175
22821W        W95136  39.557  39.802   4.895
22822W        W95137  13.581   4.324   2.192
22823W        W95138  35.793  25.069  14.305
22824W        W95139   3.158  24.431  13.851
22825W        W95140  10.634   3.258  14.781
22826W        W95141  27.755  29.545  12.148
22827W        W95142  27.207  34.635  11.986
22828W        W95143  23.691  42.022   0.772
22829W        W95144  24.366  19.427   3.654
22830W        W95145  27.092   8.075   4.547
22831W        W95146  18.674  38.128  11.023
22832W        W95147  37.045  43.678  12.184
22833W        W95148  41.703   6.403  11.464
22834W        W95149  23.512  27.934   0.690
22835W        W95150  35.086  11.791   2.369
22836W        W95151  33.382  37.592  12.961
22837W        W95152  28.652  14.279   2.138
22838W        W95153  30.713  12.448  13.171
22839W        W95154   2.413   1.020   1.899
22840W        W95155   7.095  36.130  13.361
22841W        W95156  42.819   4.955  14.726
22842W        W95157   4.108  33.807  12.273
22843W        W95158  31.957  19.243   0.273
22844W        W95159  42.979  36.942  14.794
22845W        W95160  23.640  19.087  12.873
22846W        W95161  36.560  29.993  11.734
22847W        W95162  42.452  15.401   0.667
22848W        W95163  43.899  33.576  14.056
22849W        W95164  14.531   4.751   2.952
22850W        W95165  23.514  36.041   2.224
22851W        W95166  21.855  31.427   1.346
22852W        W95167  29.679  11.270   4.242
22853W        W95168  31.914  40.364  12.457
22854W        W95169  14.409  37.543   3.027
22855W        W95170  41.488  32.142  10.571
22856W        W95171  14.186  26.490   2.657
22857W        W95172  11.310   3.890   0.923
22858W        W95173  40.441  29.392   3.905
22859W        W95174  11.409  21.749   3.106
22860W        W95175  38.069  19.603  13.982
22861W        W95176  36.006  10.903   3.745
22862W        W95177  38.570   1.246  11.108
22863W        W95178  24.598  42.222  13.128
22864W        W95179  23.989  14.405  14.273
22865W        W95180  26.341  41.025   3.235
22866W        W95181  34.014  31.382  11.305
22867W        W95182  27.502   9.980   1.419
22868W        W95183   3.674  32.635   1.797
22869W        W95184  16.571  41.087   4.313
22870W        W95185  22.651  44.364  14.438
22871W        W95186   4.444   8.896  14.492
22872W        W95187  29.440  34.963  12.607
22873W        W95188  28.646  34.524  10.423
22874W        W95189   5.677  25.409  14.811
22875W        W95190  20.825  40.721  10.947
22876W        W95191  21.322  22.472  14.866
22877W        W95192  29.025  32.497   1.142
22878W        W95193  34.793  16.709  11.083
22879W        W95194  15.854  34.145  14.501
22880W        W95195  39.376  43.402  12.064
22881W        W95196  24.503  40.637   0.454
22882W        W95197  19.508  20.965  10.261
22883W        W95198  32.153  33.030   1.238
22884W        W95199  11.362   4.821   2.903
22885W        W95200   9.544  31.178   2.783
22886W        W95201  15.181   1.393  11.729
22887W        W95202   3.378  10.144  13.929
22888W        W95203  38.569  22.970   1.892
22889W        W95204  15.521   1.202  12.557
22890W        W95205  20.740  18.773   3.272
22891W        W95206  24.138   5.412  13.465
22892W        W95207   1.226   5.818   2.159
22893W        W95208  30.035  30.232   1.137
22894W        W95209  43.366  23.569  10.631
22895W        W95210  35.912  15.374   4.891
22896W        W95211  35.569  14.423  13.153
22897W        W95212  11.179  14.920   3.641
22898W        W95213  17.987  27.072  14.066
22899W        W95214   5.179  34.649  13.924
22900W        W95215  14.799  35.392   3.676
22901W        W95216  24.088  28.906  14.268
22902W        W95217   8.563  30.052  11.632
22903W        W95218   7.047  17.977  12.624
22904W        W95219  26.712  40.350  14.921
22905W        W95220  18.072   1.736   4.958
22906W        W95221  10.677  24.033  11.240
22907W        W95222  30.962  38.852   3.200
22908W        W95223   5.979  21.110   3.695
22909W        W95224   4.477  38.890   4.236
22910W        W95225   1.999  13.638   3.939
22911W        W95226  38.600   6.883   1.122
22912W        W95227   5.686  36.392  10.606
22913W        W95228  42.115  22.598   3.236
22914W        W95229   9.385  33.893   3.757
22915W        W95230   9.609  32.146  12.230
22916W        W95231   3.989  30.102   3.875
22917W        W95232  40.992   4.286  12.487
22918W        W95233  24.303  13.402  14.312
22919W        W95234   9.168  26.421   2.862
22920W        W95235   9.118  39.013  13.326
22921W        W95236  24.611  33.907   4.080
22922W        W95237  36.903  40.256   4.155
22923W        W95238  18.000  36.703   4.518
22924W        W95239  30.640  42.493   1.925
22925W        W95240  38.967  31.844   1.477
22926W        W95241  12.123  11.104  12.622
22927W        W95242  28.076  43.300  11.596
22928W        W95243   7.948   5.790  10.597
22929W        W95244   0.075  10.912   2.372
22930W        W95245  25.165  24.397  12.375
22931W        W95246  44.395  21.324  13.950
22932W        W95247  29.141  27.369   0.887
22933W        W95248  17.037  11.546   0.897
22934W        W95249   7.894  15.164   1.452
22935W        W95250  16.549  14.723   4.972
22936W        W95251  17.699   7.285  14.072
22937W        W95252   9.270  38.600  10.433
22938W        W95253  21.289  44.964  12.151
22939W        W95254  19.201  33.602  14.327
22940W        W95255  33.162   2.865   3.513
22941W        W95256   3.239   7.277   0.683
22942W        W95257  15.345  18.668   0.038
22943W        W95258  23.072   6.180  14.844
22944W        W95259  40.319  31.528   0.818
22945W        W95260  18.117   1.080  11.915
22946W        W95261  11.271  26.713   4.939
22947W        W95262   0.841  27.721   4.598
22948W        W95263  36.450  24.319  12.819
22949W        W95264  10.035   4.706  11.523
22950W        W95265  29.472   3.487  12.650
22951W        W95266  12.224  20.086  11.502
22952W        W95267   3.421  38.761   3.683
22953W        W95268  32.519  35.795  14.992
22954W        W95269   6.298  21.569  12.467
22955W        W95270  32.333  22.505  10.664
22956W        W95271  29.687  20.128   0.958
22957W        W95272  23.749  29.419  11.642
22958W        W95273   2.184   7.386   4.869
22959W        W95274  32.569  18.295   4.506
22960W        W95275   2.667  20.739   1.187
22961W        W95276  32.912   3.186  14.606
22962W        W95277   7.128  42.869  14.787
22963W        W95278  11.882  15.001   0.508
22964W        W95279  28.551  38.224  12.514
22965W        W95280  26.873  20.621  11.100
22966W        W95281  19.138  10.453  11.598
22967W        W95282  18.106  23.776   0.867
22968W        W95283  16.065  13.693  13.427
22969W        W95284  18.194  19.955   0.204
22970W        W95285  31.583   2.456   0.044
22971W        W95286   3.187  14.735  11.430
22972W        W95287   6.304   3.427  11.871
22973W        W95288  35.575  26.583   2.754
22974W        W95289  42.121  19.045   0.930
22975W        W95290  29.057  29.231   4.685
22976W        W95291  14.402  14.725   1.699
22977W        W95292  30.671  35.907  11.950
22978W        W95293  33.085  19.321   2.873
22979W        W95294  32.557  35.297  11.146
22980W        W95295  25.168  32.607   3.769
22981W        W95296  28.630   2.996   0.982
22982W        W95297  18.079   8.322  11.967
22983W        W95298  41.551  32.806   0.622
22984W        W95299   7.414   3.820   4.086
22985W        W95300  40.486   8.927  11.387
22986W        W95301  27.500  43.288   1.060
22987W        W95302  18.322  39.467   4.747
22988W        W95303  21.661  20.762  10.405
22989W        W95304  18.230  42.280  12.500
22990W        W95305  13.681   8.587   4.544
22991W        W95306  11.655  41.790  10.876
22992W        W95307   1.279  31.278   3.686
22993W        W95308  34.112  19.956   0.194
22994W        W95309  20.868   9.242   4.111
22995W        W95310  16.135  39.264  14.910
22996W        W95311  37.568  29.055  10.786
22997W        W95312  44.459   1.479   4.532
22998W        W95313  39.738  38.902  14.264
22999W        W95314  10.796   0.749  11.552
23000W        W95315  18.967  27.222   0.403
23001W        W95316  28.109   5.410  11.322
23002W        W95317  29.611  42.427   1.934
23003W        W95318  28.698   2.754   1.924
23004W        W95319   5.712  39.952  11.391
23005W        W95320  25.626  22.673  13.015
23006W        W95321  31.588  38.946  11.478
23007W        W95322   7.816  11.819   9.898
23008W        W95323  29.946   0.594   3.733
23009W        W95324  43.090  11.068   9.533
23010W        W95325  29.275  25.241   4.666
23011W        W95326  28.347  26.978  10.443
23012W        W95327  26.235   7.166  13.284
23013W        W95328  12.940  35.349   1.856
23014W        W95329  10.784   1.688  14.860
23015W        W95330  11.808  30.186   3.948
23016W        W95331  43.044  25.641  13.601
23017W        W95332  13.550  37.835  12.484
23018W        W95333   1.345  13.258  13.118
23019W        W95334  15.920  38.518   2.713
23020W        W95335  36.545  44.013   3.217
23021W        W95336  21.008  25.393   0.933
23022W        W95337  43.517  16.452   3.189
23023W        W95338  38.107   9.350   0.849
23024W        W95339   4.385   6.405   4.311
23025W        W95340  39.096  22.972   1.861
23026W        W95341  25.809  33.652  10.012
23027W        W95342  23.564  21.562  14.367
23028W        W95343  28.665  15.354   1.196
23029W        W95344  31.435  33.378  13.437
23030W        W95345   4.906  21.262   4.978
23031W        W95346  40.877  37.148  13.972
23032W        W95347  39.763  21.054  13.073
23033W        W95348  29.537   9.665   0.524
23034W        W95349  14.549  36.849  13.908
23035W        W95350  31.567  30.528  12.046
23036W        W95351   4.242  36.878  12.934
23037W        W95352   6.288  18.397   0.687
23038W        W95353   3.897  26.239  14.705
23039W        W95354   4.831   1.527  13.826
23040W        W95355  44.985  31.426   2.771
23041W        W95356   2.460  19.871  12.940
23042W        W95357  26.041  37.964   0.667
23043W        W95358   0.977  31.939  10.349
23044W        W95359  14.302  41.617   2.390
23045W        W95360  30.974  39.349   3.073
23046W        W95361  34.374   5.038  12.587
23047W        W95362  18.049   7.369   0.375
23048W        W95363  36.732  27.857  10.158
23049W        W95364  36.452  35.040  11.201
23050W        W95365  31.063   9.339  12.916
23051W        W95366  39.125  11.164   2.467
23052W        W95367  37.485   2.173   2.946
23053W        W95368  44.147   6.796   3.734
23054W        W95369  37.860  35.017   3.937
23055W        W95370   3.751  38.459   1.006
23056W        W95371  23.866  11.277   0.394
23057W        W95372  41.268   5.664  12.450
23058W        W95373  31.121  27.435   4.654
23059W        W95374  24.127   7.195  13.126
23060W        W95375  26.046   1.811  12.203
23061W        W95376  12.585  35.208   0.702
23062W        W95377  38.881  23.329  10.200
23063W        W95378  25.502  28.290   3.712
23064W        W95379  16.779  23.066  14.522
23065W        W95380  33.955  29.552  11.195
23066W        W95381  16.774  36.207  12.020
23067W        W95382  20.561  28.544   2.194
23068W        W95383  19.308  34.284   1.711
23069W        W95384   5.442  25.535   2.902
23070W        W95385   1.950   7.700  14.897
23071W        W95386   8.864  40.840  14.489
23072W        W95387  19.016  28.825  13.850
23073W        W95388  13.718  34.115   0.317
23074W        W95389  11.794  13.374   3.380
23075W        W95390  33.539  17.405   5.193
23076W        W95391  44.401  27.689   0.993
23077W        W95392   8.172  33.230   0.574
23078W        W95393  18.652  31.499  12.902
23079W        W95394  11.646  40.309   2.343
23080W        W95395   8.265  13.874   0.778
23081W        W95396  41.682  39.085   2.751
23082W        W95397  39.714  37.501   0.434
23083W        W95398  28.865  29.046  13.043
23084W        W95399  32.596  16.033  11.708
23085W        W95400  33.526  24.951  12.031
23086W        W95401   5.827  42.019  14.290
23087W        W95402  14.717  18.329   0.790
23088W        W95403   1.273  34.461   3.579
23089W        W95404  35.579  26.933   2.316
23090W        W95405  40.209   2.292   2.380
23091W        W95406  33.107  39.529   2.726
23092W        W95407  41.132  26.874  10.906
23093W        W95408  34.178  18.729  14.433
23094W        W95409  12.139  16.671  12.988
23095W        W95410  14.575  33.842  12.460
23096W        W95411   7.480  26.262  10.646
23097W        W95412  16.009  12.774   0.838
23098W        W95413  43.989  38.077   2.857
23099W        W95414  26.168  28.490   2.846
23100W        W95415  10.754  20.949  13.754
23101W        W95416  33.606  38.992   3.058
23102W        W95417  41.029  41.613  14.286
23103W        W95418  29.481  39.773  11.767
23104W        W95419   5.064  24.079  10.218
23105W        W95420  21.679   2.343   1.838
23106W        W95421  35.103  27.096   1.359
23107W        W95422  41.948  20.257  13.517
23108W        W95423  31.493  34.886   1.148
23109W        W95424  39.979  16.388   3.247
23110W        W95425   8.099  16.169   0.514
23111W        W95426   1.692  36.373  13.341
23112W        W95427  27.144  19.266   3.831
23113W        W95428  22.079  43.463   4.330
23114W        W95429  28.249  24.173   0.282
23115W        W95430  10.848  34.509   2.237
23116W        W95431  13.530  11.628  10.624
23117W        W95432  37.603   8.932   3.689
23118W        W95433  41.912  11.521   0.409
23119W        W95434   4.764  20.034   3.567
23120W        W95435  38.598  44.077   0.645
23121W        W95436   3.507   8.789   4.252
23122W        W95437  14.513  34.907   4.997
23123W        W95438  24.300  32.106  11.988
23124W        W95439  16.139  22.190   1.936
23125W        W95440  16.053  37.617   1.760
23126W        W95441  16.815  31.475   4.792
23127W        W95442  16.013  22.449  14.108
23128W        W95443  44.764  36.107  12.558
23129W        W95444   1.953  39.909   3.503
23130W        W95445  29.879   1.804   3.205
23131W        W95446   2.423  20.821  13.029
23132W        W95447  24.532  37.084  11.518
23133W        W95448   6.247  29.597  13.989
23134W        W95449  27.121  34.415  14.988
23135W        W95450  30.132  15.834  10.259
23136W        W95451   9.946   8.684  10.174
23137W        W95452  17.739   6.440  10.523
23138W        W95453  36.284  21.047   3.052
23139W        W95454  33.412  42.849   3.389
23140W        W95455   4.773  44.787  14.104
23141W        W95456  19.185  42.048   1.989
23142W        W95457  26.035  29.612  13.987
23143W        W95458  14.790  39.968   3.075
23144W        W95459  39.283  29.893  11.178
23145W        W95460   5.389   9.374  12.307
23146W        W95461  26.258  31.825  11.081
23147W        W95462  43.300  44.506  13.813
23148W        W95463  14.900   3.492  13.078
23149W        W95464  31.573  34.395  11.387
23150W        W95465  26.831  40.388   3.613
23151W        W95466  39.037  20.473  13.366
23152W        W95467  21.159  39.717  13.051
23153W        W95468  43.777   6.654   1.399
23154W        W95469  25.559   0.013  14.309
23155W        W95470  34.372  23.116  11.122
23156W        W95471   8.209  41.313  13.166
23157W        W95472  28.555  40.201  14.869
23158W        W95473  29.608  17.286  13.488
23159W        W95474   3.192   3.812  13.953
23160W        W95475  18.402   7.228  12.925
23161W        W95476  29.917  40.569  11.628
23162W        W95477   7.887  28.169   4.038
23163W        W95478  35.552  28.537   0.484
23164W        W95479  18.763  24.668   4.513
23165W        W95480  22.193  37.896  10.600
23166W        W95481  12.660  20.650   0.799
23167W        W95482  39.353  13.601  10.684
23168W        W95483  30.505  30.995   2.191
23169W        W95484  13.178  42.401  12.515
23170W        W95485  40.076  35.837   2.675
23171W        W95486   6.670   2.059  11.048
23172W        W95487  36.806  13.123  13.547
23173W        W95488  25.555  26.100  10.737
23174W        W95489   9.294  11.941   0.774
23175W        W95490  14.154  10.951  12.393
23176W        W95491  26.453  43.575  11.142
23177W        W95492  24.511  26.952  12.676
23178W        W95493   9.641  17.719   3.551
23179W        W95494  41.944  28.041   3.848
23180W        W95495  43.427  22.940   0.908
23181W        W95496  23.087  10.458   0.026
23182W        W95497  44.325  13.291   4.022
23183W        W95498  42.333  40.277   2.706
23184W        W95499   5.338  33.656   0.457
23185W        W95500  37.100  42.753   2.162
23186W        W95501   9.315   3.508  11.445
23187W        W95502  11.831  36.607   0.450
23188W        W95503  41.932  14.845   1.185
23189W        W95504   5.355  33.158  14.353
23190W        W95505  41.335  14.776  11.601
23191W        W95506  26.232  36.544  14.761
23192W        W95507  42.626  13.071  11.886
23193W        W95508  32.331  27.660  10.770
23194W        W95509   4.429  34.217   2.767
23195W        W95510  41.820  35.571   3.174
23196W        W95511  24.056  31.839  14.801
23197W        W95512  36.289   4.733   3.447
23198W        W95513  26.201  18.121   4.267
23199W        W95514   9.810   7.851   4.713
23200W        W95515  31.776  44.989  13.561
23201W        W95516  40.161  32.277  11.038
23202W        W95517  27.635  44.299   2.335
23203W        W95518  21.646  41.297   1.419
23204W        W95519   4.684  15.824   0.961
23205W        W95520  30.264  20.330  12.267
23206W        W95521  10.862   3.228  13.927
23207W        W95522  14.008   6.036   9.959
23208W        W95523  23.353  17.985  11.103
23209W        W95524  11.122  31.617   0.076
23210W        W95525   3.722  29.026   0.723
23211W        W95526  32.034   1.004  12.562
23212W        W95527  27.052  44.721   4.715
23213W        W95528  11.072  22.665   2.139
23214W        W95529  35.077  20.526   4.206
23215W        W95530  23.843   3.260  12.509
23216W        W95531  18.519  21.521  11.937
23217W        W95532  30.833  26.592  13.934
23218W        W95533  36.764   4.096   0.797
23219W        W95534  42.609  20.276  12.962
23220W        W95535  13.264  37.567  12.119
23221W        W95536   2.639  43.866  14.006
23222W        W95537  22.438  31.480  13.516
23223W        W95538  44.147  33.650   4.938
23224W        W95539  43.532   0.862  11.118
23225W        W95540  18.808  24.143  14.039
23226W        W95541   9.846   6.788  14.751
23227W        W95542  40.052  36.038   1.712
23228W        W95543  36.699  27.561  13.854
23229W        W95544   8.204  44.977   0.372
23230W        W95545  21.762  18.420   3.622
23231W        W95546  33.825   4.426   1.928
23232W        W95547   4.652  36.075  13.119
23233W        W95548  25.539  41.537   4.075
23234W        W95549  23.011  44.361   4.445
23235W        W95550  33.071  14.336  14.733
23236W        W95551  37.397   6.377  10.683
23237W        W95552  28.771  11.831  13.952
23238W        W95553  38.354  32.458   4.500
23239W        W95554  39.416  43.257  14.534
23240W        W95555  33.209  14.290   4.155
23241W        W95556  37.117  16.710   1.823
23242W        W95557  41.450  38.314  14.138
23243W        W95558  38.559  10.927  10.717
23244W        W95559  43.846   7.203   3.832
23245W        W95560  24.038  15.530   0.301
23246W        W95561   6.382  23.924  14.506
23247W        W95562  40.757   8.653  13.042
23248W        W95563   5.707  35.736  14.399
23249W        W95564   2.044  28.066   2.694
23250W        W95565   6.162  24.132  14.898
23251W        W95566  24.994  17.219   0.953
23252W        W95567  10.323   5.272   3.777
23253W        W95568  29.533  40.624   2.221
23254W        W95569  25.474  41.539  11.448
23255W        W95570  19.106   7.816  13.900
23256W        W95571   9.337  23.082  14.233
23257W        W95572  22.936   8.907   1.021
23258W        W95573  43.212  10.763  13.451
23259W        W95574  31.897  40.148   3.402
23260W        W95575  32.918  12.890   0.311
23261W        W95576  27.621  11.426   1.283
23262W        W95577  18.206  19.694  12.531
23263W        W95578  36.835  13.484   3.405
23264W        W95579  18.285  41.608   2.281
23265W        W95580   2.511   1.767   2.323
23266W        W95581   4.220  20.804  12.441
23267W        W95582   2.262  18.670   1.793
23268W        W95583  11.971  15.836   9.855
23269W        W95584  33.725   4.213  13.971
23270W        W95585  23.147  35.898   3.707
23271W        W95586  26.530  14.072  12.463
23272W        W95587  27.684  31.877   4.763
23273W        W95588  38.453  42.130   2.580
23274W        W95589  35.363  42.984  11.017
23275W        W95590  37.246  21.946  12.417
23276W        W95591  17.926  40.159   0.695
23277W        W95592  28.951  41.818  11.092
23278W        W95593  35.973  17.864   2.424
23279W        W95594   1.840  44.059  14.837
23280W        W95595   1.817  18.540   0.530
23281W        W95596  29.024  13.713  11.676
23282W        W95597   3.939  32.934  12.332
23283W        W95598  36.640  32.384   1.309
23284W        W95599   1.663  39.936   0.210
23285W        W95600  36.095   3.825  11.755
23286W        W95601   7.017  25.104   4.111
23287W        W95602  20.404  28.503   4.412
23288W        W95603  19.131  38.731  11.468
23289W        W95604  35.462  43.407   3.385
23290W        W95605  44.985  14.466   0.322
23291W        W95606  25.967  32.593   4.544
23292W        W95607  24.763  17.559  12.522
23293W        W95608  17.716  21.861  12.917
23294W        W95609  11.733   1.317  12.541
23295W        W95610  29.173  34.927   3.774
23296W        W95611  24.570   3.854   4.229
23297W        W95612  36.347  25.519   1.472
23298W        W95613  37.858  38.050  14.489
23299W        W95614  35.483  28.480  12.564
23300W        W95615  18.283  15.653   2.783
23301W        W95616  14.307  24.532   4.535
23302W        W95617  11.202   9.711  14.816
23303W        W95618  37.480   4.346   4.834
23304W        W95619  22.963  22.761  11.517
23305W        W95620   4.552  24.707  10.199
23306W        W95621   0.807  30.048   2.907
23307W        W95622  10.621  16.201  12.942
23308W        W95623   9.667  43.379  12.858
23309W        W95624  19.163  24.676   4.149
23310W        W95625  27.058  15.075  12.086
23311W        W95626  40.010  41.808   1.424
23312W        W95627  13.516  33.642  11.597
23313W        W95628  12.095  39.461  13.268
23314W        W95629   8.274  16.569  13.412
23315W        W95630  29.213   1.515  13.485
23316W        W95631  44.291   0.422   4.488
23317W        W95632  42.540   7.703   1.810
23318W        W95633  14.835  36.366  13.978
23319W        W95634  34.758  12.444   1.124
23320W        W95635   1.767  34.625   4.291
23321W        W95636  35.278  16.081  11.077
23322W        W95637  13.173  31.560   4.417
23323W        W95638   7.679  16.510  11.226
23324W        W95639  33.126   7.255   2.267
23325W        W95640   6.613   6.250   1.385
23326W        W95641  33.643  12.461   2.322
23327W        W95642  32.370   6.399   3.107
23328W        W95643   3.481  26.234  11.462
23329W        W95644  13.598   6.690   0.199
23330W        W95645  43.800  25.890  11.096
23331W        W95646  26.291  30.990   2.315
23332W        W95647   3.960  30.551  10.144
23333W        W95648  38.343  33.436  12.077
23334W        W95649  24.717  21.968  13.555
23335W        W95650   4.894  33.373   0.538
23336W        W95651   1.993  27.452   0.354
23337W        W95652  22.959  30.031   1.404
23338W        W95653  35.898  33.558  10.553
23339W        W95654  44.396  12.261  11.360
23340W        W95655  27.625  27.050  11.805
23341W        W95656   1.734  13.986   2.217
23342W        W95657  18.481  44.054  10.611
23343W        W95658  17.028  15.398  12.454
23344W        W95659  34.777   9.888   0.894
23345W        W95660  11.839  11.897  11.451
23346W        W95661   2.049  32.163  13.279
23347W        W95662  20.043  27.633  12.114
23348W        W95663  28.307   6.249   3.161
23349W        W95664  20.804  15.886  12.397
23350W        W95665  34.546  25.556   3.335
23351W        W95666  34.826   0.120  12.809
23352W        W95667   4.718  37.109   4.178
23353W        W95668   2.679   1.178   4.073
23354W        W95669  25.373  37.952  13.034
23355W        W95670  44.464  12.329  10.671
23356W        W95671   4.467  13.713  11.433
23357W        W95672  28.460  44.096  12.096
23358W        W95673  37.729  18.688   3.385
23359W        W95674  24.044   9.737   4.591
23360W        W95675  33.225  10.810  14.421
23361W        W95676   7.374  15.499   1.765
23362W        W95677  38.359  24.587   4.616
23363W        W95678  16.724   6.659  13.790
23364W        W95679   6.721  14.734   2.017
23365W        W95680   3.001  33.159   1.538
23366W        W95681  33.712  33.069   2.355
23367W        W95682   0.847   1.368   1.968
23368W        W95683   6.608   9.718  12.407
23369W        W95684  12.728  27.618  14.435
23370W        W95685  23.465  32.319  12.442
23371W        W95686  43.258  26.125   2.792
23372W        W95687  36.193  21.275   0.710
23373W        W95688   6.727  34.177   0.009
23374W        W95689  29.141  26.530  12.006
23375W        W95690   7.412   8.678  10.572
23376W        W95691  38.574  36.081   1.667
23377W        W95692  43.448  39.328  12.923
23378W        W95693   6.733  12.692  12.108
23379W        W95694  26.311   6.257   5.296
23380W        W95695  40.434   7.178   2.837
23381W        W95696  35.560  23.225  12.151
23382W        W95697  18.609  21.335   2.029
23383W        W95698  32.525  10.482   2.303
23384W        W95699   2.273  11.758  13.809
23385W        W95700  14.488  17.595   3.695
23386W        W95701  35.832  16.320   3.508
23387W        W95702  42.806  27.516   4.236
23388W        W95703  20.895  43.261  13.597
23389W        W95704  11.551   7.391  12.232
23390W        W95705   6.385   4.928  14.946
23391W        W95706  21.838   4.937   4.210
23392W        W95707  17.684   6.768   3.872
23393W        W95708  38.593  15.673  14.414
23394W        W95709  29.876  41.801  14.744
23395W        W95710  42.085  29.563   4.158
23396W        W95711  14.353  35.442  13.899
23397W        W95712  36.353  22.140   0.752
23398W        W95713  13.562  34.916   3.572
23399W        W95714   3.816  40.408  14.733
23400W        W95715  37.476  41.481  11.190
23401W        W95716  35.320  44.895   1.148
23402W        W95717  10.876  24.032  14.181
23403W        W95718   3.814  32.439  11.417
23404W        W95719   2.304  44.258  14.965
23405W        W95720  36.438   8.307  10.764
23406W        W95721  10.432  42.854   2.337
23407W        W95722   7.972  31.498  14.966
23408W        W95723  32.686  27.747  12.053
23409W        W95724   8.936  28.234   2.509
23410W        W95725  19.110  17.801   0.213
23411W        W95726  38.864  23.071  13.068
23412W        W95727   6.717  21.799  11.684
23413W        W95728  31.599  37.776  12.771
23414W        W95729  12.283   2.819  13.526
23415W        W95730   6.822   9.380   4.237
23416W        W95731   7.184  33.883  12.024
23417W        W95732  36.125   1.966  11.039
23418W        W95733  17.660  10.727   2.413
23419W        W95734  19.179  18.513   3.759
23420W        W95735  12.552   8.836  14.478
23421W        W95736  16.141  28.389  13.915
23422W        W95737  44.309  35.849  12.480
23423W        W95738   6.004  25.087   4.162
23424W        W95739  42.574  39.317   3.708
23425W        W95740  11.505  29.035  13.317
23426W        W95741   7.133  31.475   4.599
23427W        W95742  12.760  18.063   3.724
23428W        W95743  25.206  34.962  12.999
23429W        W95744   5.471  14.092   1.903
23430W        W95745  20.125  14.858  12.427
23431W        W95746  13.837  41.267   2.388
23432W        W95747  26.713  30.817   0.984
23433W        W95748  40.358  12.157  12.427
23434W        W95749  30.599   6.623   4.457
23435W        W95750  11.640   2.942   1.832
23436W        W95751  10.677  44.226   1.041
23437W        W95752   8.364   9.639   1.438
23438W        W95753  10.414  28.866  13.984
23439W        W95754  18.874   3.746  13.902
23440W        W95755  37.154  42.848  13.979
23441W        W95756  23.051   5.038   3.170
23442W        W95757  28.486  18.118   0.345
23443W        W95758   5.374  14.778   1.539
23444W        W95759   6.162  17.329   0.066
23445W        W95760   2.132  37.995  13.916
23446W        W95761  35.340  15.976   1.317
23447W        W95762  12.595  13.094   2.172
23448W        W95763  32.829  17.718   0.511
23449W        W95764  41.090  34.875   1.802
23450W        W95765  18.159  27.346  12.363
23451W        W95766  20.837  29.585   5.070
23452W        W95767  43.332  44.658   4.830
23453W        W95768  24.602   1.302  12.476
23454W        W95769   7.741  28.140  12.086
23455W        W95770  40.223  17.306  14.097
23456W        W95771  40.785  15.615   1.765
23457W        W95772  43.791  18.332   0.348
23458W        W95773  19.364  42.468  14.424
23459W        W95774  35.023  38.990  10.043
23460W        W95775  28.739  42.709  10.683
23461W        W95776  22.176  24.119  10.588
23462W        W95777  24.209  39.733   0.431
23463W        W95778   7.951  16.834  14.813
23464W        W95779  41.899  21.362   4.081
23465W        W95780  33.908  11.770   0.501
23466W        W95781  15.678  36.390  10.489
23467W        W95782  26.743   8.919  11.124
23468W        W95783  12.716  19.265  10.676
23469W        W95784   4.369  15.545  13.343
23470W        W95785  12.359  35.046   3.396
23471W        W95786  41.853  17.490   4.143
23472W        W95787  29.433  11.583  12.948
23473W        W95788   5.838   0.065  14.425
23474W        W95789  33.446  32.258   2.949
23475W        W95790  13.380  27.657  11.727
23476W        W95791  28.073   3.401  12.313
23477W        W95792  19.177  22.618  13.453
23478W        W95793  38.430  41.545   4.242
23479W        W95794   5.929  22.948   1.706
23480W        W95795  37.607  30.527   4.942
23481W        W95796  36.366  18.171   4.613
23482W        W95797  33.898  23.720   3.686
23483W        W95798  16.324  19.698  10.897
23484W        W95799  18.135  22.762   0.452
23485W        W95800   4.775  14.876  10.533
23486W        W95801   7.653  19.064   0.667
23487W        W95802  39.029  33.858   0.566
23488W        W95803   6.132  28.061   1.354
23489W        W95804  13.133  33.929   0.854
23490W        W95805  22.070  44.446  10.710
23491W        W95806  42.744  27.538   2.778
23492W        W95807  42.633  18.727   3.384
23493W        W95808  17.479  42.009   2.282
23494W        W95809  31.129   2.618   0.329
23495W        W95810  26.188  39.082  11.995
23496W        W95811  21.127  27.603  10.663
23497W        W95812  10.330  30.939  11.973
23498W        W95813  41.762  28.095   2.322
23499W        W95814  28.691  22.265   4.059
23500W        W95815   7.905  30.114   1.742
23501W        W95816  22.175  35.554  10.606
23502W        W95817  11.414   7.486  12.735
23503W        W95818  37.795   9.379   0.439
23504W        W95819  39.862  42.917   2.824
23505W        W95820   4.014  40.288  14.264
23506W        W95821  30.139   4.000  11.031
23507W        W95822  16.842  22.675  13.549
23508W        W95823  21.952  36.425  14.488
23509W        W95824  10.716  29.443   0.743
23510W        W95825  42.108  43.552  12.483
23511W        W95826  12.090  12.165  11.913
23512W        W95827  20.235  24.216   2.116
23513W        W95828  19.605  38.972   0.613
23514W        W95829  12.033  11.360   0.935
23515W        W95830  29.526   5.640   0.462
23516W        W95831  18.523  15.774   1.921
23517W        W95832  41.934  20.160  12.360
23518W        W95833  21.479  31.443   1.755
23519W        W95834  22.493  11.355  13.915
23520W        W95835  12.297   3.393   2.185
23521W        W95836  38.527  25.164  13.267
23522W        W95837  43.967  20.239  11.573
23523W        W95838  19.293  26.430  10.088
23524W        W95839  20.567   1.790  11.579
23525W        W95840  31.050  44.080  14.497
23526W        W95841  39.512  40.779   1.858
23527W        W95842  28.958  12.408  11.982
23528W        W95843   2.789  14.576  14.567
23529W        W95844  24.951   0.936  12.380
23530W        W95845   8.829  24.524  10.918
23531W        W95846  41.786   7.210  14.731
23532W        W95847  21.171   5.143  13.853
23533W        W95848  37.026  30.412   0.307
23534W        W95849  36.393  27.100   0.017
23535W        W95850  18.584  42.806  11.410
23536W        W95851  40.251  19.283   1.413
23537W        W95852   9.616  43.340   2.259
23538W        W95853  21.203  41.119   2.393
23539W        W95854  31.465  32.395  10.433
23540W        W95855  41.309  13.920   0.348
23541W        W95856  42.000  29.012   0.326
23542W        W95857  19.942  15.183   0.877
23543W        W95858  39.107  15.833  14.415
23544W        W95859  14.562  33.477   1.760
23545W        W95860  27.630   9.077   4.155
23546W        W95861  38.295  35.888   1.289
23547W        W95862  41.314  44.941  12.555
23548W        W95863   4.803  25.079   4.834
23549W        W95864   0.147  42.862  14.371
23550W        W95865   9.226  27.867  11.197
23551W        W95866  11.339  29.990  10.379
23552W        W95867  23.238   3.267   0.364
23553W        W95868   6.207  24.381   4.922
23554W        W95869  30.550   6.960   3.622
23555W        W95870  38.041  15.838   3.246
23556W        W95871  19.966  13.331  14.954
23557W        W95872  14.481  40.916  10.758
23558W        W95873  22.791  42.426  13.562
23559W        W95874  20.611   0.950   0.717
23560W        W95875  41.914  29.281   3.753
23561W        W95876  23.710  22.267  13.929
23562W        W95877  12.205  10.956  11.195
23563W        W95878  13.894  21.530   3.014
23564W        W95879  22.081  44.792   3.716
23565W        W95880  14.620  15.999   3.651
23566W        W95881  13.088  30.852  13.818
23567W        W95882  33.733   9.950   0.271
23568W        W95883   2.602  18.280   3.220
23569W        W95884  16.673  24.815  14.294
23570W        W95885  31.796  39.595   2.499
23571W        W95886  34.790   4.803   0.956
23572W        W95887   3.277  16.670  12.500
23573W        W95888  24.568  18.071   0.910
23574W        W95889  24.926  37.458   3.485
23575W        W95890  35.890  35.982   2.358
23576W        W95891  28.611  19.200  12.616
23577W        W95892  23.789  24.214  10.745
23578W        W95893  24.200  15.499   2.304
23579W        W95894  24.118  36.121   0.778
23580W        W95895  14.243  31.897   3.379
23581W        W95896   4.257  44.990   0.065
23582W        W95897  28.655  20.648   0.045
23583W        W95898  36.390  31.874  10.815
23584W        W95899  11.619   3.915  13.812
23585W        W95900   4.487   4.377   3.146
23586W        W95901  13.385   8.273  11.968
23587W        W95902  18.656  39.859   0.503
23588W        W95903  24.111   9.247   1.059
23589W        W95904  33.199  12.377  12.809
23590W        W95905  42.268   8.362   0.366
23591W        W95906   4.566  33.596  11.983
23592W        W95907   0.896  15.641  14.027
23593W        W95908  29.715   1.736   2.268
23594W        W95909  21.162  42.844  11.024
23595W        W95910  10.904  20.009  12.824
23596W        W95911  35.482  14.153   2.890
23597W        W95912  22.165  40.354  10.372
23598W        W95913  25.042  35.449   0.409
23599W        W95914   9.283   8.262   4.383
23600W        W95915  18.993   7.365   2.116
23601W        W95916  20.848  40.004   1.850
23602W        W95917   8.887  13.161  13.797
23603W        W95918  16.729  21.512  11.441
23604W        W95919  40.563   6.137  11.111
23605W        W95920  14.674   7.502  12.108
23606W        W95921   0.294  44.781   3.415
23607W        W95922  31.109  12.004   1.873
23608W        W95923  30.889  38.487  12.997
23609W        W95924  14.813  34.199   0.879
23610W        W95925  28.650   3.698   4.113
23611W        W95926  30.654   4.997   0.277
23612W        W95927   8.493  21.641   0.320
23613W        W95928  34.941  15.497   3.997
23614W        W95929   1.826  14.621  10.689
23615W        W95930   6.320  14.354  13.764
23616W        W95931  17.285  15.398   4.227
23617W        W95932  31.090  34.498  12.797
23618W        W95933  29.431  42.542   1.210
23619W        W95934  43.849  27.728  14.074
23620W        W95935  27.141  37.030  10.627
23621W        W95936  36.865  20.169   1.921
23622W        W95937  32.406   6.585   2.214
23623W        W95938  28.207  29.958  12.988
23624W        W95939  32.552  26.495   2.940
23625W        W95940  27.598  36.338   4.504
23626W        W95941  25.245  44.159   2.846
23627W        W95942  42.688   1.169   1.307
23628W        W95943  31.567   8.660   0.442
23629W        W95944  32.086  37.902  12.852
23630W        W95945  20.149   4.796   1.456
23631W        W95946  30.680  33.052   4.760
23632W        W95947  26.246  11.259  12.987
23633W        W95948  28.441  28.156   3.765
23634W        W95949   7.290  21.378  12.461
23635W        W95950  11.228   4.701   1.282
23636W        W95951   4.700  16.649  12.106
23637W        W95952   2.626  28.007   1.661
23638W        W95953  29.715  24.218   2.277
23639W        W95954  43.441  33.120   2.859
23640W        W95955  25.962  22.481  13.920
23641W        W95956  41.471  21.832   2.268
23642W        W95957  39.902   1.268   3.337
23643W        W95958  15.684   4.856  10.591
23644W        W95959  43.893   8.238   3.724
23645W        W95960  36.640  14.731   3.076
23646W        W95961  34.123  27.061  10.934
23647W        W95962  22.055  23.011   4.543
23648W        W95963  28.049  39.891   0.762
23649W        W95964   4.895  44.274   0.326
23650W        W95965  26.215  36.008   0.863
23651W        W95966   2.441  36.880   0.433
23652W        W95967  32.454  43.334  14.466
23653W        W95968   0.617   8.703   3.914
23654W        W95969  21.660   8.830   1.063
23655W        W95970   3.723   3.943  13.231
23656W        W95971  26.957  40.238   2.771
23657W        W95972  26.686  40.082  14.057
23658W        W95973  42.543  25.187  13.970
23659W        W95974   5.989   9.523  14.239
23660W        W95975  44.478  22.902   0.686
23661W        W95976  11.856  15.506   0.722
23662W        W95977  26.477   4.307   5.045
23663W        W95978   0.684  24.746  13.439
23664W        W95979  33.158  37.450  13.420
23665W        W95980  10.367   4.452  11.848
23666W        W95981  41.981   9.298   0.830
23667W        W95982  42.614  24.814   2.652
23668W        W95983   4.767   5.604  12.634
23669W        W95984  17.606  37.566   1.222
23670W        W95985  44.464  24.198   4.530
23671W        W95986  21.999   4.618  13.525
23672W        W95987  32.456  35.275  14.989
23673W        W95988  35.867   0.460  11.201
23674W        W95989  26.420  10.337   1.678
23675W        W95990  40.218  39.946  10.186
23676W        W95991  12.628  25.979   4.421
23677W        W95992   6.624  17.152  11.733
23678W        W95993  33.837  21.323   1.697
23679W        W95994  44.520   4.430  11.223
23680W        W95995  41.461  13.126  11.130
23681W        W95996  38.452  33.666   4.399
23682W        W95997  12.686  24.243  10.736
23683W        W95998  32.373  19.505  13.548
23684W        W95999   4.190   5.248  13.235
23685W        W96000  19.139  40.637  10.200
23686W        W96001  11.593  38.873  11.940
23687W        W96002  18.074  28.420  11.483
23688W        W96003  27.611  11.391   4.202
23689W        W96004  35.285  25.597  13.576
23690W        W96005   2.027  42.207   1.871
23691W        W96006  44.270  10.609  10.511
23692W        W96007  30.554  21.250   1.487
23693W        W96008  40.322  37.625   2.278
23694W        W96009   6.859  25.919  14.827
23695W        W96010   0.984  13.702  11.420
23696W        W96011   9.868  42.706  13.770
23697W        W96012  19.308  11.259  13.286
23698W        W96013  28.444  20.037   4.180
23699W        W96014  12.810  17.126   3.184
23700W        W96015   9.865  43.020   4.835
23701W        W96016   7.909  44.257   4.242
23702W        W96017  41.232  18.124  11.045
23703W        W96018  35.612  43.232  11.972
23704W        W96019  17.263  44.345  14.775
23705W        W96020   7.862  31.097  14.664
23706W        W96021  21.221  34.965   0.301
23707W        W96022  24.202   0.518  14.882
23708W        W96023  31.030  43.128   0.905
23709W        W96024  15.230  29.759  14.374
23710W        W96025  11.433  40.074  14.434
23711W        W96026  42.236  20.258   0.513
23712W        W96027  33.952   6.409   1.785
23713W        W96028  41.908  27.274   1.819
23714W        W96029  19.040  34.377  12.011
23715W        W96030  30.992   2.015   5.064
23716W        W96031  13.202  21.091  11.810
23717W        W96032  43.041  12.786   2.314
23718W        W96033   1.777  32.868  10.924
23719W        W96034  29.606   3.732  13.077
23720W        W96035   1.875  36.380   4.784
23721W        W96036  23.680  14.361   3.291
23722W        W96037  25.200   2.361  14.205
23723W        W96038  20.093  32.706  13.235
23724W        W96039   0.399  17.676   4.564
23725W        W96040  32.832  21.655   0.471
23726W        W96041  37.367  41.319  13.127
23727W        W96042  30.631  13.237   0.679
23728W        W96043  29.383  20.626   3.539
23729W        W96044  18.139   1.448  14.511
23730W        W96045  19.702  25.132   2.772
23731W        W96046  10.833  27.715   1.450
23732W        W96047  30.111  42.368  11.425
23733W        W96048   1.341   4.941   2.679
23734W        W96049   1.804  42.147  12.174
23735W        W96050   4.405  24.787   1.364
23736W        W96051  24.160  20.961  11.995
23737W        W96052  10.851  43.033   2.589
23738W        W96053  17.611  24.129   1.483
23739W        W96054   4.882  32.074   0.377
23740W        W96055   3.941  14.310  11.613
23741W        W96056   4.862  27.287   1.469
23742W        W96057   4.270  19.560  13.644
23743W        W96058   7.190   8.657   3.796
23744W        W96059  32.938  22.156  14.362
23745W        W96060  10.687  24.210   2.300
23746W        W96061  27.483  10.679   0.503
23747W        W96062  14.665   1.779  12.412
23748W        W96063   7.317  19.664   1.859
23749W        W96064  21.587  38.061  11.374
23750W        W96065   1.855  36.950  10.446
23751W        W96066  41.020  23.451   3.353
23752W        W96067   0.028  43.334   0.315
23753W        W96068   4.842   3.897  12.351
23754W        W96069  16.061  38.844   2.206
23755W        W96070  39.070  11.053  10.652
23756W        W96071   7.753  14.339  11.447
23757W        W96072   6.121  27.055   1.646
23758W        W96073   2.455  28.182  12.573
23759W        W96074   2.845   5.728   0.082
23760W        W96075  37.597  11.682   3.799
23761W        W96076  28.967   8.740  12.353
23762W        W96077  40.351  23.769  12.530
23763W        W96078  19.073  41.308   2.743
23764W        W96079   8.617  40.877  14.002
23765W        W96080  10.905  19.561  14.961
23766W        W96081  20.341  21.294  13.795
23767W        W96082  37.271  35.613   1.913
23768W        W96083  24.701  42.925  12.552
23769W        W96084  34.370  18.997   0.044
23770W        W96085  31.531   4.344   0.337
23771W        W96086  11.306  39.401   2.837
23772W        W96087   0.748   9.193   3.235
23773W        W96088  11.737  11.857   2.073
23774W        W96089  35.855  24.411  13.427
23775W        W96090   5.678  10.608   1.976
23776W        W96091  29.179  23.252  12.637
23777W        W96092  17.868  17.493   2.852
23778W        W96093   8.212   8.047  14.914
23779W        W96094   7.847  37.328  12.594
23780W        W96095  30.061  39.044  14.102
23781W        W96096  41.074   5.722  14.933
23782W        W96097   3.929   5.478   2.271
23783W        W96098  24.212  41.736   1.812
23784W        W96099   0.327  32.152   0.164
23785W        W96100   2.010   5.331   2.293
23786W        W96101   4.130   6.761   2.278
23787W        W96102  24.448  18.930   3.608
23788W        W96103  34.424   9.413  13.886
23789W        W96104  12.328  11.341  11.964
23790W        W96105  42.628  39.067  11.365
23791W        W96106  26.567   0.507  14.973
23792W        W96107  31.643  24.723   0.440
23793W        W96108  10.780  10.402  11.829
23794W        W96109  32.601  31.891   2.390
23795W        W96110  28.536  29.720  12.613
23796W        W96111  25.027  35.831   3.356
23797W        W96112  34.311   0.974  10.752
23798W        W96113   5.466   7.135  10.653
23799W        W96114  10.256  36.065   3.366
23800W        W96115  39.926  26.647   1.214
23801W        W96116  10.942   3.145  11.659
23802W        W96117  24.303  25.574   0.026
23803W        W96118  27.200  20.514  14.813
23804W        W96119  22.633  37.576   3.330
23805W        W96120  22.402  15.798   0.186
23806W        W96121  35.585  19.675  14.755
23807W        W96122  25.695  40.493   1.245
23808W        W96123  43.301  29.131  14.876
23809W        W96124  23.781  41.563  13.553
23810W        W96125  11.159   6.691   1.274
23811W        W96126   7.715   6.732   0.797
23812W        W96127  27.055  35.790   3.260
23813W        W96128  16.971   2.812   1.664
23814W        W96129  17.247  36.152   2.977
23815W        W96130   1.363  19.219   0.854
23816W        W96131  40.249  35.538  14.496
23817W        W96132  10.030   9.162  13.867
23818W        W96133  27.623  16.900  11.848
23819W        W96134  33.003  30.402  12.166
23820W        W96135  44.156  38.718   4.160
23821W        W96136  33.798  30.705  12.428
23822W        W96137   1.836  21.745   4.793
23823W        W96138  15.334   9.348  14.439
23824W        W96139  19.011  36.746   2.872
23825W        W96140   1.235   3.329   4.049
23826W        W96141   6.896  17.548  11.541
23827W        W96142  30.411  16.175  14.892
23828W        W96143   4.879  30.753  13.554
23829W        W96144  29.541  16.100  12.317
23830W        W96145  20.506   9.973  12.989
23831W        W96146  22.908  34.205  11.977
23832W        W96147   5.028  28.171  13.877
23833W        W96148  33.031  28.970  12.579
23834W        W96149   6.600  33.511   3.660
23835W        W96150  25.597  38.321  11.034
23836W        W96151  13.211  34.795   1.276
23837W        W96152  31.578  11.275  12.826
23838W        W96153  14.662  34.115  13.891
23839W        W96154   1.216  33.552   3.655
23840W        W96155   8.810  33.881   0.281
23841W        W96156   2.461  13.626   1.813
23842W        W96157  15.626  39.311  14.979
23843W        W96158  31.277  36.985  13.594
23844W        W96159   8.276  16.741   3.594
23845W        W96160  16.234  19.742  10.399
23846W        W96161   3.410  40.776  14.704
23847W        W96162  40.072  35.827  10.627
23848W        W96163  38.394  23.413   1.671
23849W        W96164  38.383   2.987  11.961
23850W        W96165  20.684   4.969   2.626
23851W        W96166  13.382   9.601   1.779
23852W        W96167  42.575  14.342  14.675
23853W        W96168  23.949  13.610  10.776
23854W        W96169   8.086  40.317  14.485
23855W        W96170  31.018  36.481  11.326
23856W        W96171  21.206  34.507  14.889
23857W        W96172  25.938  16.549  13.240
23858W        W96173  28.495  13.833   2.897
23859W        W96174  39.339  13.121   4.322
23860W        W96175   8.901   1.951   3.163
23861W        W96176  13.586  21.213   2.770
23862W        W96177  18.105  42.466  11.137
23863W        W96178  27.465  40.289  12.276
23864W        W96179  37.469  29.450   1.951
23865W        W96180   8.496  26.578   5.079
23866W        W96181  26.029  16.916  11.601
23867W        W96182  29.632  12.870  12.653
23868W        W96183   0.777  12.595  12.204
23869W        W96184  33.554  36.317   1.415
23870W        W96185  44.302   2.221  10.768
23871W        W96186  42.759  30.599   0.884
23872W        W96187  18.959   9.730   4.334
23873W        W96188   2.791  37.819  10.349
23874W        W96189   7.821   5.381   0.709
23875W        W96190  35.165  12.275  13.981
23876W        W96191  11.597  19.234  14.002
23877W        W96192  17.758  40.857   1.789
23878W        W96193  28.573  29.144  10.944
23879W        W96194  20.023  42.511   3.318
23880W        W96195  24.672  15.529  10.382
23881W        W96196  25.672   6.713   1.016
23882W        W96197  38.865  26.645  11.170
23883W        W96198  40.854  14.873  10.700
23884W        W96199   2.773  11.763   4.797
23885W        W96200  11.372  15.785  11.023
23886W        W96201  32.997   5.944   0.800
23887W        W96202  44.903  35.364   2.911
23888W        W96203  21.926  21.209  12.907
23889W        W96204  24.081  10.326   4.013
23890W        W96205  38.033  25.923   4.672
23891W        W96206   8.655   2.180   4.008
23892W        W96207   5.139   6.296  14.361
23893W        W96208   4.516  24.130   0.790
23894W        W96209   8.633   5.085   2.326
23895W        W96210  38.304  27.085   5.792
23896W        W96211  23.014  16.658   4.537
23897W        W96212  30.178  42.750   4.629
23898W        W96213  33.452  25.752   1.745
23899W        W96214  28.129  18.234   3.818
23900W        W96215  11.936   5.835  10.612
23901W        W96216  34.781  14.476  11.644
23902W        W96217  42.468  42.798   4.501
23903W        W96218  39.374  10.618  14.956
23904W        W96219  21.259   5.839  14.898
23905W        W96220  36.789   2.582   4.629
23906W        W96221   0.808  28.755   4.647
23907W        W96222  35.061  39.974  10.107
23908W        W96223   3.668  17.738  11.647
23909W        W96224   2.070   6.896  11.488
23910W        W96225   3.391  19.951   1.617
23911W        W96226   2.975   0.577   4.808
23912W        W96227  43.892  39.032  12.968
23913W        W96228  15.201  16.206  13.865
23914W        W96229  34.059   5.659  12.604
23915W        W96230  34.614  20.391   0.941
23916W        W96231  15.835  29.859  11.555
23917W        W96232  19.700  23.022   0.319
23918W        W96233   4.339  18.510   2.764
23919W        W96234  24.425   2.682  12.555
23920W        W96235  11.969   7.275  10.692
23921W        W96236  21.158  32.018   5.057
23922W        W96237  33.510  25.615  13.876
23923W        W96238  25.176  28.510  12.964
23924W        W96239   6.301   4.364  12.986
23925W        W96240   4.375  19.702  11.672
23926W        W96241  34.147   9.619   2.504
23927W        W96242   2.310  35.873  12.040
23928W        W96243   7.281  23.715  12.935
23929W        W96244  43.918  24.617   1.470
23930W        W96245  34.436  44.412  14.287
23931W        W96246  27.225  16.064   1.196
23932W        W96247  20.585  39.811  13.889
23933W        W96248  15.290  19.514   1.795
23934W        W96249  20.641   4.929   3.645
23935W        W96250  29.027   8.360   2.232
23936W        W96251  21.527   2.786  13.891
23937W        W96252  19.039  44.925   4.033
23938W        W96253   0.395   7.826   2.872
23939W        W96254  29.592   4.975  13.680
23940W        W96255  37.870   5.814  11.135
23941W        W96256  38.545  41.865   1.419
23942W        W96257  36.084  12.598  13.584
23943W        W96258  44.075   0.022  11.003
23944W        W96259  35.979  18.226   1.632
23945W        W96260  10.414  29.934   1.433
23946W        W96261  35.973  10.196  11.841
23947W        W96262  15.222  39.511  13.275
23948W        W96263  38.588  10.580   3.393
23949W        W96264  17.537  25.062   1.619
23950W        W96265  20.988  18.112  10.730
23951W        W96266  11.736  14.666  14.840
23952W        W96267  10.172   8.942  12.626
23953W        W96268  24.252  30.984  14.440
23954W        W96269   5.390  39.019   3.161
23955W        W96270  23.966  12.379  14.333
23956W        W96271   8.476   6.179   4.430
23957W        W96272   2.224  20.994   0.981
23958W        W96273  25.462  17.570  12.201
23959W        W96274  29.892   2.791   3.401
23960W        W96275  23.785  17.957  13.852
23961W        W96276  11.763  18.264   3.744
23962W        W96277  42.720  27.519  13.475
23963W        W96278  28.026  24.500  12.928
23964W        W96279  44.318   4.195   0.333
23965W        W96280  11.364   7.331  13.980
23966W        W96281   6.168  18.839   3.715
23967W        W96282  25.490  22.101   4.838
23968W        W96283  32.926   3.147   1.383
23969W        W96284   7.475  39.383   3.359
23970W        W96285  36.549  11.297   4.533
23971W        W96286  30.991  21.102   0.688
23972W        W96287   3.954  42.568   3.767
23973W        W96288  13.796  17.383   4.795
23974W        W96289  19.923  26.567  11.984
23975W        W96290  12.156  38.557  14.598
23976W        W96291  40.594  18.575   1.047
23977W        W96292   7.289  31.363   3.285
23978W        W96293  10.321  11.035  13.942
23979W        W96294   6.615  35.034   4.653
23980W        W96295   3.297  38.536  11.109
23981W        W96296  44.925  28.957  14.896
23982W        W96297  40.570  42.391  14.734
23983W        W96298  16.113   8.908  12.086
23984W        W96299   9.570  11.087   1.310
23985W        W96300  42.291  15.059   2.325
23986W        W96301  20.650   3.661  14.711
23987W        W96302  37.481  25.151   0.282
23988W        W96303   7.775  25.650   0.639
23989W        W96304  38.558   5.900   3.261
23990W        W96305   6.894   4.279  11.110
23991W        W96306  37.511  26.758   0.435
23992W        W96307  14.836  38.047   3.588
23993W        W96308  16.251  24.590  12.067
23994W        W96309  44.834  16.306   4.877
23995W        W96310   4.314  18.124   3.804
23996W        W96311  40.086  36.171   4.105
23997W        W96312  33.912  36.109  10.742
23998W        W96313  39.574  11.865  13.950
23999W        W96314  42.809  10.839   0.295
24000W        W96315  27.304  40.566   3.681
24001W        W96316  14.180  15.586  13.353
24002W        W96317  14.523   3.107   4.620
24003W        W96318  27.567  28.459   3.172
24004W        W96319  29.114   5.809   3.853
24005W        W96320   6.244  22.942  14.386
24006W        W96321  35.911  27.418  11.997
24007W        W96322  28.133  32.667   3.156
24008W        W96323  39.852  22.495   1.779
24009W        W96324  31.818   9.663   3.919
24010W        W96325  40.826   3.943   3.303
24011W        W96326   0.270  42.946   4.715
24012W        W96327   4.143  44.028   1.781
24013W        W96328  22.415  12.889   3.857
24014W        W96329  40.045  21.673  12.008
24015W        W96330   5.488   1.778   2.319
24016W        W96331  25.551  39.691  14.768
24017W        W96332  12.612  24.288   2.261
24018W        W96333   7.219  13.429  11.638
24019W        W96334  25.118  23.043   3.790
24020W        W96335  14.113   1.160   0.673
24021W        W96336  14.654  23.778  14.140
24022W        W96337  30.495  31.445   0.392
24023W        W96338  34.619  10.914  14.499
24024W        W96339  31.672  14.641   1.040
24025W        W96340  14.804  33.979   3.657
24026W        W96341  16.808  35.559  10.671
24027W        W96342  25.055  23.675   2.387
24028W        W96343  37.389  39.085  12.027
24029W        W96344   5.800  21.346  14.973
24030W        W96345  24.536  41.165   1.184
24031W        W96346  43.309  28.158  10.738
24032W        W96347  19.641  30.196   0.965
24033W        W96348  28.363  34.145   4.519
24034W        W96349  15.984  17.258  14.034
24035W        W96350   0.474  22.285   4.643
24036W        W96351  38.416  40.438  11.634
24037W        W96352   0.022  25.807  13.303
24038W        W96353   1.891   6.274  12.272
24039W        W96354  38.127  21.539   3.272
24040W        W96355   6.860  10.561  10.963
24041W        W96356  15.626  15.747   2.252
24042W        W96357   1.034  31.313  13.004
24043W        W96358  15.078   0.265   0.397
24044W        W96359  39.380  43.097   1.230
24045W        W96360  16.354  40.971   2.317
24046W        W96361  22.271  11.554  12.482
24047W        W96362   5.840  12.687  12.411
24048W        W96363  16.600  11.365  12.122
24049W        W96364  22.059   5.185   2.880
24050W        W96365  25.237   0.005  14.865
24051W        W96366   8.955  41.828  12.080
24052W        W96367  40.629   1.350  13.237
24053W        W96368  30.635  36.026   0.854
24054W        W96369  33.959  42.803  10.172
24055W        W96370  22.488   8.798  14.952
24056W        W96371   0.667  32.623   1.606
24057W        W96372  23.006  17.746   1.711
24058W        W96373   9.277   2.601   4.182
24059W        W96374   0.839  17.615  10.482
24060W        W96375  31.000  37.267   2.206
24061W        W96376  18.948   1.526   0.824
24062W        W96377   3.901   7.734   3.157
24063W        W96378   5.932  23.206   1.246
24064W        W96379  12.259   3.269  13.965
24065W        W96380  17.672  13.746   0.966
24066W        W96381  38.408  23.967   4.100
24067W        W96382  31.913  25.069   4.590
24068W        W96383   9.634  25.429  12.919
24069W        W96384  29.487  15.215  12.940
24070W        W96385   1.455  40.345  12.987
24071W        W96386  39.320  42.937   3.684
24072W        W96387  13.426  27.167   3.582
24073W        W96388  31.644   6.672   4.955
24074W        W96389  10.811  44.924  11.002
24075W        W96390  30.942  35.630   3.829
24076W        W96391   1.455  29.372  14.319
24077W        W96392  10.419   0.899  14.722
24078W        W96393   1.683  35.472   0.998
24079W        W96394   9.864  12.780  12.874
24080W        W96395  17.658   0.746  11.226
24081W        W96396  33.017  22.746   2.176
24082W        W96397  12.041  14.250  14.395
24083W        W96398  31.541  10.229  14.276
24084W        W96399  28.623  34.843  11.597
24085W        W96400  38.254  34.786   2.150
24086W        W96401  30.564  28.924  14.861
24087W        W96402   0.270  37.992  13.884
24088W        W96403  18.146  41.323   2.721
24089W        W96404  16.434   0.890  14.468
24090W        W96405  18.300   0.309   3.843
24091W        W96406  27.719  33.721  12.203
24092W        W96407  13.727  41.002   2.822
24093W        W96408  12.473  39.348   2.003
24094W        W96409   5.729  13.038  11.111
24095W        W96410  43.894  14.661  14.002
24096W        W96411  39.628  15.347  13.658
24097W        W96412  10.958  30.898   2.857
24098W        W96413  32.624  13.259  12.919
24099W        W96414   0.733  13.686   4.689
24100W        W96415   0.997  36.381  12.998
24101W        W96416   2.389  41.235  10.700
24102W        W96417  16.125  22.695   2.857
24103W        W96418  40.443  18.010  11.537
24104W        W96419  30.358  39.589  11.652
24105W        W96420  28.072  17.282  14.490
24106W        W96421  34.521  29.406  12.950
24107W        W96422  38.906  42.565   3.770
24108W        W96423  18.179  21.492   1.237
24109W        W96424  38.951   2.335   3.740
24110W        W96425  39.731  28.024   4.075
24111W        W96426  17.868  42.026   1.329
24112W        W96427  44.995  30.714  13.065
24113W        W96428  25.502  18.513   4.005
24114W        W96429  18.064   8.821   4.577
24115W        W96430  14.793  33.934   1.828
24116W        W96431  12.581  14.060   4.613
24117W        W96432  26.555  23.924  14.679
24118W        W96433  44.281  38.363   2.465
24119W        W96434  19.095  19.110   2.159
24120W        W96435   3.690  36.565  14.279
24121W        W96436   1.746  10.144   1.311
24122W        W96437   6.761  43.910  13.413
24123W        W96438   3.589  26.018   4.540
24124W        W96439  20.239   7.238   4.143
24125W        W96440  42.944   6.935  14.341
24126W        W96441  17.620  32.176  14.067
24127W        W96442  33.497  37.350   0.518
24128W        W96443   6.349  24.179  12.111
24129W        W96444  22.521  22.103  10.476
24130W        W96445  12.966   9.868   0.262
24131W        W96446  18.314  42.007  11.999
24132W        W96447  24.747   7.348  12.065
24133W        W96448  32.358  37.405  12.929
24134W        W96449  34.800  36.094   3.722
24135W        W96450  20.650   1.779  14.934
24136W        W96451   4.795  15.245  13.347
24137W        W96452  32.988  25.155   1.939
24138W        W96453   4.967  14.349  12.406
24139W        W96454  18.760  14.312  14.865
24140W        W96455  17.526   8.779  13.325
24141W        W96456  40.696  40.323  11.015
24142W        W96457  44.405   3.803  14.450
24143W        W96458  28.032  37.481   1.122
24144W        W96459  25.707  12.358  14.955
24145W        W96460   9.787  42.292   4.360
24146W        W96461  26.622  43.087   1.406
24147W        W96462  27.124  24.742   1.929
24148W        W96463  15.055  12.120   0.282
24149W        W96464   6.696  31.857   0.981
24150W        W96465   8.946  13.380   5.069
24151W        W96466   9.596  24.583  11.464
24152W        W96467  13.079  38.013   0.264
24153W        W96468  35.681  37.961   3.801
24154W        W96469  19.523   2.166  12.929
24155W        W96470  24.518   8.806   1.905
24156W        W96471  30.880  44.358   3.646
24157W        W96472  20.501  38.424  10.681
24158W        W96473  43.617   1.242  14.411
24159W        W96474   5.635  28.612   3.438
24160W        W96475  32.376   7.255   3.695
24161W        W96476   8.446   2.890  12.209
24162W        W96477   8.126  27.640  14.043
24163W        W96478  22.574  27.570  12.343
24164W        W96479  10.917  30.119  14.064
24165W        W96480  24.293  41.819  12.981
24166W        W96481  19.599  27.407  12.056
24167W        W96482   9.913  25.642  14.949
24168W        W96483   4.352   8.256   0.711
24169W        W96484   2.714   1.271   2.242
24170W        W96485  38.150  32.100  11.004
24171W        W96486   4.246  40.554   2.909
24172W        W96487   6.463  31.958  13.323
24173W        W96488  34.320  20.843   0.492
24174W        W96489  44.017   5.726  13.506
24175W        W96490  33.853  15.180  10.771
24176W        W96491  44.480  40.080   9.983
24177W        W96492   3.874  18.355  14.365
24178W        W96493  31.891  29.577   2.859
24179W        W96494  38.733  38.421  13.001
24180W        W96495   4.817  29.996  12.863
24181W        W96496   1.737  39.453   3.358
24182W        W96497  19.222  41.527  11.098
24183W        W96498  42.514  14.557   4.102
24184W        W96499  44.925  14.691  14.625
24185W        W96500  12.262   4.634  12.903
24186W        W96501  41.874  13.122   3.594
24187W        W96502  37.846   7.897  12.232
24188W        W96503  37.414  39.404   3.134
24189W        W96504  19.447  20.076  11.461
24190W        W96505   5.385  39.835   2.482
24191W        W96506  28.084   9.191   4.387
24192W        W96507   1.415  18.017  11.160
24193W        W96508   0.639  21.326  12.494
24194W        W96509   7.211  10.662  14.848
24195W        W96510  14.403  40.454  13.311
24196W        W96511   7.387  15.374   4.963
24197W        W96512  17.577  42.450  11.134
24198W        W96513  10.253   2.344   1.745
24199W        W96514  44.380  36.575  12.045
24200W        W96515  41.799  15.056   2.132
24201W        W96516  33.410  10.716   0.682
24202W        W96517  12.687  17.031  13.267
24203W        W96518  43.966   9.334  11.463
24204W        W96519  26.251  38.342   2.714
24205W        W96520  29.644  39.545   1.309
24206W        W96521   4.622  29.263  13.483
24207W        W96522   9.138  31.061  10.756
24208W        W96523  20.017  21.695  14.958
24209W        W96524  13.120  15.816   3.097
24210W        W96525  32.561   8.043  13.458
24211W        W96526  13.119  23.254  10.726
24212W        W96527  21.018  10.695   1.838
24213W        W96528  26.221  36.603  12.984
24214W        W96529  24.236   8.275  13.783
24215W        W96530  41.271  40.806   2.195
24216W        W96531  10.198  38.420   3.602
24217W        W96532  10.350  28.989  14.492
24218W        W96533  28.069  40.422  14.910
24219W        W96534  23.277   1.861  12.468
24220W        W96535  15.018  43.848  13.230
24221W        W96536  33.312   6.767   4.527
24222W        W96537   0.134  20.315   0.239
24223W        W96538  17.742  32.055  13.068
24224W        W96539  42.708  26.027  13.475
24225W        W96540  12.203  19.611  14.522
24226W        W96541  41.445  33.135   3.634
24227W        W96542   2.309  12.627  12.410
24228W        W96543  13.784  28.661   4.267
24229W        W96544   4.534   4.178  12.028
24230W        W96545   5.775  39.504  11.038
24231W        W96546   1.449   9.009   5.021
24232W        W96547  36.906  38.075   2.175
24233W        W96548   2.338  11.080  11.633
24234W        W96549   7.458  29.967   3.855
24235W        W96550  32.069  20.184   3.315
24236W        W96551  34.062  16.120  10.384
24237W        W96552  17.843  39.289   0.716
24238W        W96553  22.534  43.488  14.990
24239W        W96554   8.308   7.321  13.253
24240W        W96555  30.604   7.120  12.586
24241W        W96556  37.788  31.919   4.515
24242W        W96557  37.130  23.119  12.411
24243W        W96558  37.909  23.567   3.208
24244W        W96559  37.358   7.198  12.075
24245W        W96560  28.921  15.610  12.520
24246W        W96561  29.439   2.232   1.394
24247W        W96562   0.868  25.467   3.668
24248W        W96563  27.938  29.677  11.337
24249W        W96564  25.895  24.962   3.176
24250W        W96565  23.476  18.777   0.506
24251W        W96566  25.694  18.195  13.407
24252W        W96567   2.975  17.555  11.934
24253W        W96568  44.129  35.990   4.471
24254W        W96569  29.852   1.450   1.825
24255W        W96570  33.614  17.264  11.199
24256W        W96571  34.964  18.239   1.343
24257W        W96572  37.922  39.958   1.525
24258W        W96573  17.191  26.435  12.883
24259W        W96574  43.914  27.247   1.404
24260W        W96575   3.444  40.000  12.938
24261W        W96576   3.392  16.827  11.998
24262W        W96577  21.755  29.995   3.124
24263W        W96578  26.642  14.664  11.429
24264W        W96579  37.145  29.502  14.348
24265W        W96580  24.509   8.251   4.142
24266W        W96581  44.847  26.531  11.114
24267W        W96582   5.276  39.679  11.468
24268W        W96583   2.903  40.007  14.949
24269W        W96584  26.120  10.451   1.232
24270W        W96585  39.821   3.564  12.586
24271W        W96586  40.458  38.408   3.109
24272W        W96587  41.989   1.003   3.745
24273W        W96588  31.521  31.140  12.419
24274W        W96589  10.406   7.625   0.752
24275W        W96590   7.209   1.083   4.374
24276W        W96591  39.803  19.356   4.108
24277W        W96592  25.862  33.544  11.316
24278W        W96593  41.085  27.731  11.191
24279W        W96594   3.715  37.958   4.077
24280W        W96595   1.716  25.250  14.888
24281W        W96596  22.718   9.048  13.420
24282W        W96597   5.337  27.454   0.445
24283W        W96598   4.376   3.444  14.939
24284W        W96599   0.543  34.484  12.485
24285W        W96600   2.159   5.334  11.444
24286W        W96601  13.304   3.134  11.115
24287W        W96602   2.895  10.465  14.717
24288W        W96603   1.060  32.549   1.286
24289W        W96604   8.467  23.085  13.003
24290W        W96605  22.141  12.644  11.684
24291W        W96606  34.037  42.944  14.778
24292W        W96607  23.531  29.608  11.169
24293W        W96608  11.737  20.067  10.934
24294W        W96609   0.457   1.365   2.747
24295W        W96610  26.821  26.537   4.560
24296W        W96611  43.543   5.371  14.776
24297W        W96612  36.650  37.718  10.074
24298W        W96613  23.646  15.123  10.697
24299W        W96614  26.839  19.248  13.894
24300W        W96615  16.854   0.927   1.295
24301W        W96616   7.483  38.879  14.476
24302W        W96617  39.833  33.427  10.684
24303W        W96618  14.868  23.213   1.305
24304W        W96619  15.955  38.510   3.581
24305W        W96620  18.245  12.665  14.078
24306W        W96621  25.821  35.418  14.950
24307W        W96622  24.995  21.202  13.545
24308W        W96623  15.257  16.158   1.830
24309W        W96624  44.273  26.663   0.893
24310W        W96625  33.985  29.986   4.293
24311W        W96626  22.251   3.166  13.158
24312W        W96627  16.289  20.715  12.391
24313W        W96628  29.931  26.963   0.948
24314W        W96629   5.467  34.213  11.154
24315W        W96630  34.624  16.462   0.320
24316W        W96631  43.764   1.338   2.409
24317W        W96632  33.745   5.641  13.943
24318W        W96633  32.639  20.114  12.722
24319W        W96634  27.526  23.996   4.566
24320W        W96635  35.832  18.579  12.371
24321W        W96636  40.506  31.407  11.420
24322W        W96637   1.194   0.362  10.364
24323W        W96638   2.693  13.426  14.034
24324W        W96639  17.925   4.530  14.727
24325W        W96640  20.179  11.059   0.885
24326W        W96641  10.917   0.765   1.721
24327W        W96642  19.690   6.506  14.082
24328W        W96643  14.775  21.022  13.772
24329W        W96644  37.302  24.906  11.542
24330W        W96645  12.376  29.399   2.776
24331W        W96646  20.983   9.972   4.577
24332W        W96647  41.818  12.802   5.015
24333W        W96648  42.309  38.497   3.207
24334W        W96649  25.981   6.617   5.125
24335W        W96650   7.714  35.371   2.124
24336W        W96651  35.432  42.584   1.232
24337W        W96652  25.428  36.144  11.128
24338W        W96653  27.904  34.589   3.109
24339W        W96654   3.338   9.122  11.022
24340W        W96655  42.043  44.960  11.187
24341W        W96656  43.276   0.167   4.880
24342W        W96657  36.712   9.171  11.302
24343W        W96658   8.115  41.564   4.976
24344W        W96659   7.432  39.505   2.476
24345W        W96660   6.668   5.295   1.910
24346W        W96661  39.064  19.289  12.679
24347W        W96662  37.583  14.162  12.160
24348W        W96663  23.958  15.122  12.523
24349W        W96664  12.336  27.164  11.111
24350W        W96665  24.646  32.181  12.366
24351W        W96666   2.822  37.504   5.058
24352W        W96667   7.930  27.120  12.979
24353W        W96668  11.044  39.955  12.377
24354W        W96669   8.945   3.252   1.766
24355W        W96670  11.605  18.934   1.216
24356W        W96671  36.989   7.501  10.717
24357W        W96672  39.877  27.059   4.342
24358W        W96673   1.905   6.275   3.751
24359W        W96674  12.061  28.074   0.176
24360W        W96675  30.826  27.098   0.903
24361W        W96676  15.724  42.141  12.862
24362W        W96677  40.745  27.470   4.880
24363W        W96678  16.147  13.166  14.569
24364W        W96679   7.447  31.546   1.756
24365W        W96680  26.285  33.569   9.811
24366W        W96681  40.924  42.009   4.117
24367W        W96682  30.269  15.539  13.985
24368W        W96683  29.478  38.550   2.308
24369W        W96684  38.364  25.466   4.690
24370W        W96685  14.660  37.118   4.173
24371W        W96686   5.109  27.655   5.011
24372W        W96687   0.872  38.231  12.802
24373W        W96688  41.054  14.894   2.438
24374W        W96689   8.662  15.053   4.163
24375W        W96690  44.854  14.294  12.388
24376W        W96691  40.315   2.978   3.667
24377W        W96692  17.200  11.658   2.266
24378W        W96693  18.755  19.023   3.268
24379W        W96694  14.073  36.997  13.476
24380W        W96695  18.219  41.949   1.872
24381W        W96696  21.332  23.530   2.360
24382W        W96697  37.795  13.911   3.285
24383W        W96698  11.740  29.066  11.147
24384W        W96699   9.687  14.112  12.509
24385W        W96700   6.794  40.396  12.549
24386W        W96701  23.223   1.651   1.876
24387W        W96702  10.320  22.106  12.903
24388W        W96703  12.874  31.821   0.243
24389W        W96704   5.949   4.151  13.790
24390W        W96705  14.532  32.706   0.691
24391W        W96706   6.061  43.332  11.616
24392W        W96707   6.851  28.685  14.822
24393W        W96708   4.792  40.266  10.314
24394W        W96709  23.239  11.872   4.286
24395W        W96710  40.647  22.068  14.745
24396W        W96711  19.381   0.291  13.805
24397W        W96712  22.986  44.795   3.637
24398W        W96713  32.584   9.244  14.066
24399W        W96714  13.682  23.500  11.615
24400W        W96715   7.327  14.151  12.900
24401W        W96716  20.804   1.317  11.649
24402W        W96717  22.444  26.624  11.880
24403W        W96718  33.414  36.760   5.010
24404W        W96719   8.054  19.546   4.123
24405W        W96720  34.038  25.016  10.437
24406W        W96721   3.677   4.947  13.480
24407W        W96722  28.914   2.041   0.767
24408W        W96723  16.152  16.599  11.084
24409W        W96724  29.038  24.743  14.356
24410W        W96725   8.087  22.667   1.916
24411W        W96726  43.386  13.774  14.248
24412W        W96727  36.268  13.960   5.151
24413W        W96728  11.157   6.404   2.115
24414W        W96729  26.079   2.770  13.616
24415W        W96730   6.023  29.611   3.282
24416W        W96731  31.414  20.654  14.798
24417W        W96732  21.087  12.264  11.114
24418W        W96733  13.778  41.723  11.067
24419W        W96734  13.951  29.176  10.852
24420W        W96735  43.524  11.768   1.391
24421W        W96736   2.875  38.307  11.867
24422W        W96737  38.123  11.769   3.683
24423W        W96738  24.583  21.286  10.061
24424W        W96739   0.220  43.753  13.455
24425W        W96740   5.977  42.532   0.314
24426W        W96741  15.592  33.128  13.743
24427W        W96742  43.373   0.781   4.133
24428W        W96743  16.662  31.614   5.663
24429W        W96744  34.279  14.726  13.265
24430W        W96745  34.090  26.750   3.613
24431W        W96746  26.528  37.171  11.773
24432W        W96747  18.727  10.440  10.100
24433W        W96748  27.342   3.717  10.638
24434W        W96749   8.899  13.851   4.866
24435W        W96750  23.228  18.033   2.639
24436W        W96751  23.590  39.410  12.841
24437W        W96752  23.829  17.567   0.018
24438W        W96753  18.696   2.380  12.567
24439W        W96754  37.593  43.983   1.660
24440W        W96755  32.803   7.969  14.740
24441W        W96756  42.355  31.708   4.730
24442W        W96757  15.337  13.051   1.908
24443W        W96758  18.168   3.017  12.858
24444W        W96759   5.426   8.161   0.820
24445W        W96760  28.495   1.508   3.034
24446W        W96761  22.096  15.806  12.081
24447W        W96762   4.424  31.924  12.972
24448W        W96763  25.702  27.142  13.448
24449W        W96764   0.348  20.895  11.229
24450W        W96765  44.358   3.448  13.250
24451W        W96766  28.680  22.835  12.040
24452W        W96767  38.040  41.379   0.896
24453W        W96768  14.347  36.785  11.507
24454W        W96769   3.188  42.567   3.568
24455W        W96770   2.464   8.868   0.227
24456W        W96771  37.852  24.523   4.752
24457W        W96772   4.348  44.514   3.670
24458W        W96773  39.462   0.402  12.282
24459W        W96774  34.905  31.643  13.737
24460W        W96775  27.666  21.585   2.176
24461W        W96776  33.110   5.435  12.909
24462W        W96777  16.718  36.988  12.482
24463W        W96778   8.752  37.517  12.845
24464W        W96779   8.678   8.153   0.264
24465W        W96780   2.087  24.298   3.842
24466W        W96781   9.632  29.930   0.319
24467W        W96782  26.533  30.869   3.629
24468W        W96783  35.211  12.670   5.137
24469W        W96784  19.621  14.554   0.260
24470W        W96785   2.717  20.133  13.577
24471W        W96786  23.691  32.671   2.781
24472W        W96787   2.212  10.187   5.372
24473W        W96788   3.884  12.750   2.640
24474W        W96789  27.133  24.609   0.544
24475W        W96790  42.394  14.817  14.038
24476W        W96791  19.779   9.314   0.243
24477W        W96792   2.352  30.975  13.007
24478W        W96793  39.995  43.019  11.627
24479W        W96794  18.233  32.408   3.868
24480W        W96795  24.646  20.797  11.953
24481W        W96796  26.719  43.450  11.567
24482W        W96797   8.468   6.706   0.419
24483W        W96798  31.109  30.161  14.543
24484W        W96799  27.660  25.813  14.866
24485W        W96800  42.540  34.540  13.492
24486W        W96801  11.656  15.787  13.359
24487W        W96802  26.647   8.783  14.914
24488W        W96803  22.728  39.761  11.525
24489W        W96804  21.489   4.882   4.615
24490W        W96805  13.975   0.000  11.426
24491W        W96806  10.347  27.874   0.488
24492W        W96807  33.493  22.751  10.762
24493W        W96808  41.284  29.042  13.038
24494W        W96809  44.321  42.945  11.696
24495W        W96810  21.517  24.508  10.965
24496W        W96811   6.747  24.749  11.492
24497W        W96812   1.552  27.160   2.299
24498W        W96813   2.957  42.262  14.505
24499W        W96814  42.488  17.244  10.624
24500W        W96815  35.906  32.699  12.608
24501W        W96816   0.084  11.834   2.262
24502W        W96817  15.338  20.998  14.891
24503W        W96818  31.458  40.914   3.746
24504W        W96819  15.801   8.338  12.041
24505W        W96820  10.925   1.475  10.958
24506W        W96821  36.835  22.058   0.929
24507W        W96822  38.828  22.092  10.951
24508W        W96823  43.073  27.121   2.355
24509W        W96824  13.188  32.006   3.571
24510W        W96825  36.581   4.877  13.528
24511W        W96826   1.288  33.539   0.323
24512W        W96827  13.161  41.918  14.815
24513W        W96828  10.661  30.910   4.722
24514W        W96829  15.828   5.050   1.275
24515W        W96830   2.696  41.898   4.645
24516W        W96831  20.765  10.858  12.599
24517W        W96832  20.312   2.512   1.845
24518W        W96833  26.280  27.096  14.901
24519W        W96834  23.487  27.994  11.846
24520W        W96835   7.167  15.735  12.463
24521W        W96836   1.175   7.286   0.843
24522W        W96837  10.282  33.848  11.127
24523W        W96838  44.229   0.003  13.397
24524W        W96839   8.634  17.587  12.054
24525W        W96840  26.232   7.169  11.886
24526W        W96841  44.353  31.079   0.246
24527W        W96842  27.883  43.792  11.529
24528W        W96843   1.688  29.451   4.232
24529W        W96844   9.433  28.158   4.236
24530W        W96845  17.718  29.162  14.819
24531W        W96846  36.099  16.159  12.775
24532W        W96847  28.974  34.967  13.881
24533W        W96848   8.433   4.203  12.071
24534W        W96849  10.504  19.823  11.491
24535W        W96850  12.126  16.628   4.626
24536W        W96851  18.173   5.500   0.977
24537W        W96852  17.669  11.874   2.747
24538W        W96853  10.222   7.596   2.382
24539W        W96854   1.599   4.390   1.155
24540W        W96855  35.323  13.723   3.730
24541W        W96856  30.745  14.439  14.290
24542W        W96857  20.268  27.901  12.497
24543W        W96858   5.147  11.585   3.180
24544W        W96859  20.659  18.177  11.116
24545W        W96860  10.112  42.506   2.099
24546W        W96861  34.374  19.147  10.721
24547W        W96862  33.872  24.032  13.327
24548W        W96863   6.785  21.175   0.409
24549W        W96864  25.280  33.053  10.663
24550W        W96865  12.715  19.271  12.047
24551W        W96866   3.695  37.880  11.873
24552W        W96867   5.934  12.041   3.205
24553W        W96868   9.635  30.667  12.602
24554W        W96869  43.489  24.466   4.194
24555W        W96870   5.683  30.949   2.376
24556W        W96871  39.316  27.399  13.506
24557W        W96872   7.381  23.632   3.308
24558W        W96873  24.094  19.751  10.642
24559W        W96874   6.208   3.947   2.866
24560W        W96875  41.879  29.444   2.420
24561W        W96876  26.186  24.591  13.083
24562W        W96877  12.038  16.448   4.153
24563W        W96878  33.667  19.702  12.994
24564W        W96879  36.079  36.980   1.017
24565W        W96880  12.379  17.595  12.493
24566W        W96881  12.410  39.760  12.769
24567W        W96882  36.489  38.302  13.890
24568W        W96883  22.071  24.689   4.169
24569W        W96884  34.130  23.728   2.798
24570W        W96885  10.210  35.358  13.240
24571W        W96886  15.333  39.800  12.040
24572W        W96887   4.430  31.987  10.496
24573W        W96888  11.485  35.433   3.762
24574W        W96889   5.139   0.033  13.850
24575W        W96890   0.733  31.110  12.643
24576W        W96891  40.471  23.373  13.501
24577W        W96892  32.566  34.533   1.913
24578W        W96893  41.327  27.636  11.628
24579W        W96894  44.367  14.636  11.247
24580W        W96895  29.111  15.265  13.386
24581W        W96896   3.641  37.206  11.134
24582W        W96897  36.117  14.856  11.170
24583W        W96898  12.509  39.882   0.471
24584W        W96899  38.248   0.194   1.481
24585W        W96900  17.690   1.621  14.729
24586W        W96901  18.143  18.233   1.690
24587W        W96902  39.351  37.095  11.562
24588W        W96903  10.652  15.068   1.016
24589W        W96904  14.224  28.721   5.136
24590W        W96905  13.216  20.502   0.328
24591W        W96906  25.144  33.581  10.547
24592W        W96907  33.082   2.300  11.681
24593W        W96908  20.601  42.830   4.560
24594W        W96909  34.044   9.300  12.487
24595W        W96910  21.157   5.719   4.459
24596W        W96911  36.613  23.537  12.461
24597W        W96912  43.798  37.044   1.937
24598W        W96913  16.114  15.554   1.709
24599W        W96914  21.995  29.512  12.899
24600W        W96915   6.207  35.504   3.907
24601W        W96916  13.686  26.267   0.402
24602W        W96917  13.045  11.766   3.866
24603W        W96918  44.944  22.514  11.536
24604W        W96919  12.819  12.067  12.039
24605W        W96920  43.271  17.350   0.219
24606W        W96921  31.825   7.362  14.321
24607W        W96922   2.286  41.181  14.031
24608W        W96923  41.363  26.289   2.776
24609W        W96924  23.455  25.609  12.046
24610W        W96925  36.847   0.977  12.931
24611W        W96926  26.991  23.729  14.267
24612W        W96927  27.205  42.956   1.390
24613W        W96928  37.517  31.946  12.060
24614W        W96929  27.257  32.510   0.976
24615W        W96930  10.306   3.862   5.176
24616W        W96931  31.087  25.014   1.237
24617W        W96932   9.261   5.299  12.897
24618W        W96933  27.442  37.884   0.757
24619W        W96934  24.668  25.521   0.410
24620W        W96935  28.047  36.637   2.270
24621W        W96936  22.116   2.254   4.627
24622W        W96937  10.458  19.881   3.821
24623W        W96938  32.603  29.542  13.745
24624W        W96939   1.858  35.121  14.325
24625W        W96940   0.560  35.920   4.554
24626W        W96941  26.359  23.243   1.824
24627W        W96942  21.683  38.878   2.235
24628W        W96943  21.709  16.133  11.953
24629W        W96944  41.854  30.533  13.875
24630W        W96945  43.923  41.438  13.888
24631W        W96946  30.382  40.322  13.865
24632W        W96947  17.331   3.252  11.659
24633W        W96948  33.359  43.965   0.820
24634W        W96949  19.538  30.700   0.853
24635W        W96950  35.387   2.683  11.170
24636W        W96951   2.780   1.689  13.467
24637W        W96952  36.590  37.438   1.732
24638W        W96953  20.927  14.154   1.938
24639W        W96954  36.569  26.959   3.169
24640W        W96955   8.236  19.569   1.257
24641W        W96956  17.740  19.660  10.900
24642W        W96957  25.440  37.202   4.057
24643W        W96958  42.752   0.413   0.438
24644W        W96959  18.356  10.388   4.602
24645W        W96960   9.958  26.500   0.437
24646W        W96961  32.040   7.417  10.484
24647W        W96962  24.656   7.761  10.648
24648W        W96963  30.817  18.871   4.193
24649W        W96964  39.856  21.201  13.555
24650W        W96965  17.122   0.920  13.094
24651W        W96966  13.224   2.958   0.261
24652W        W96967  15.541  23.021   1.838
24653W        W96968  43.546  36.035   2.926
24654W        W96969  32.418   0.675   1.065
24655W        W96970  16.130  16.097   1.603
24656W        W96971  14.624  22.731  10.742
24657W        W96972  24.501   7.420   1.741
24658W        W96973  17.733   5.811   0.464
24659W        W96974  17.616  26.189  12.586
24660W        W96975  27.665  23.474  13.447
24661W        W96976  23.155   4.009   4.503
24662W        W96977   1.898  18.118  11.039
24663W        W96978  39.559  41.791  13.596
24664W        W96979  40.467  18.524   1.940
24665W        W96980  39.359  32.361  13.871
24666W        W96981  33.980  41.631   1.488
24667W        W96982  35.412  21.234   3.100
24668W        W96983  34.573  16.596   4.578
24669W        W96984   7.915  24.139   4.714
24670W        W96985  19.476  36.464   2.119
24671W        W96986  36.168  33.139   1.248
24672W        W96987  31.056   8.928   4.708
24673W        W96988   7.737  38.828   0.948
24674W        W96989  23.765  38.690  14.260
24675W        W96990  15.979  24.272   3.245
24676W        W96991   1.762  40.774  14.386
24677W        W96992  37.343   9.124   3.233
24678W        W96993   0.280  29.067  13.979
24679W        W96994  15.650   5.383  11.466
24680W        W96995  43.720  20.720  13.972
24681W        W96996   4.237  36.357  12.977
24682W        W96997   3.116  21.724   0.524
24683W        W96998  13.610   6.176  14.973
24684W        W96999   0.371  30.121  12.948
24685W        W97000  23.737   1.689   0.515
24686W        W97001  15.218  41.359   4.623
24687W        W97002  43.874  43.159  10.940
24688W        W97003  38.550   0.190   3.090
24689W        W97004  35.653  40.574  14.786
24690W        W97005   4.205  24.648   0.008
24691W        W97006  44.238  12.827  11.488
24692W        W97007  27.766  30.128   2.892
24693W        W97008  41.096  13.737   0.778
24694W        W97009  28.871  20.571  13.580
24695W        W97010  37.361  16.524   4.142
24696W        W97011  30.397  32.590   3.433
24697W        W97012   0.874  18.286  12.423
24698W        W97013  13.753  43.995  12.390
24699W        W97014  32.967   7.834   2.396
24700W        W97015  17.120  40.941  11.603
24701W        W97016  36.947  23.032   4.640
24702W        W97017  41.520  22.160   3.436
24703W        W97018  29.925  15.152   4.651
24704W        W97019  30.662  34.399   2.288
24705W        W97020  36.895   4.972  14.483
24706W        W97021  12.274  15.881   3.216
24707W        W97022   4.602   4.010  13.509
24708W        W97023   2.882  28.525   0.838
24709W        W97024  37.771   8.707  12.166
24710W        W97025   9.193  10.371  14.035
24711W        W97026   3.677  29.036   3.157
24712W        W97027  16.371  29.830  13.763
24713W        W97028  15.771  17.485  11.190
24714W        W97029  18.045  29.821   3.765
24715W        W97030  22.772  18.604   2.128
24716W        W97031  29.472  14.783  14.608
24717W        W97032  43.321  11.170  11.694
24718W        W97033  25.504  23.602   1.471
24719W        W97034  18.753  40.390   0.436
24720W        W97035  16.544   1.230  10.620
24721W        W97036  10.782  39.500  11.747
24722W        W97037  34.487  27.572   2.758
24723W        W97038  43.514  13.186  13.830
24724W        W97039  21.720  14.084   2.329
24725W        W97040   9.231  25.993  10.702
24726W        W97041   9.717  34.517  11.504
24727W        W97042  26.431  29.510   1.431
24728W        W97043  21.044  12.099   4.638
24729W        W97044  28.030  32.503  12.808
24730W        W97045  17.925   7.241  13.114
24731W        W97046  16.263  17.612  10.655
24732W        W97047  28.057   1.354  12.577
24733W        W97048  23.764   6.689   2.544
24734W        W97049   1.363  12.480   5.062
24735W        W97050  31.121  21.631  11.401
24736W        W97051  31.231   7.754   4.130
24737W        W97052  20.753  30.588   2.753
24738W        W97053  22.848  38.302   4.136
24739W        W97054  23.828  24.156   2.303
24740W        W97055   6.459   9.630  14.419
24741W        W97056  42.164  43.897  11.626
24742W        W97057   7.385  20.029  12.016
24743W        W97058  25.916   2.387   0.841
24744W        W97059  12.204   5.942   4.475
24745W        W97060  13.325  25.479   2.987
24746W        W97061  29.180  25.207  14.543
24747W        W97062  21.262  36.044   0.022
24748W        W97063   7.582  30.598   0.273
24749W        W97064   6.152  19.354   4.663
24750W        W97065   0.005   0.052   2.697
24751W        W97066  38.346   2.575   3.800
24752W        W97067  17.419  37.384   3.987
24753W        W97068   6.683  34.770  11.439
24754W        W97069  10.188  11.834  13.483
24755W        W97070  10.980   7.415  13.073
24756W        W97071  16.561  12.256  11.748
24757W        W97072  19.929  17.732   0.220
24758W        W97073  17.625  24.770  12.906
24759W        W97074   2.260  43.902   3.442
24760W        W97075   8.658  21.295   2.881
24761W        W97076  26.546  33.601  13.080
24762W        W97077  26.197  40.726   1.346
24763W        W97078   0.068   8.336   3.694
24764W        W97079  40.225   3.711  12.032
24765W        W97080  29.528  30.453  14.963
24766W        W97081  15.280  40.544   1.490
24767W        W97082  32.693  34.947   2.754
24768W        W97083  35.054  13.312   2.858
24769W        W97084  23.658  18.587   3.751
24770W        W97085  21.613  41.112  13.882
24771W        W97086   9.955  24.741  11.066
24772W        W97087  32.147  42.036   5.020
24773W        W97088  38.847  38.899  12.825
24774W        W97089  11.789  42.955   4.971
24775W        W97090  29.647  15.452   0.779
24776W        W97091  24.655   2.431  11.077
24777W        W97092   8.973  19.454   0.780
24778W        W97093  23.536  26.068  10.672
24779W        W97094  26.478  44.816  12.042
24780W        W97095  26.906   1.872   4.056
24781W        W97096  18.920   2.534   4.176
24782W        W97097   5.888   6.822   1.181
24783W        W97098  11.706  36.712   3.929
24784W        W97099  41.569  40.393   2.330
24785W        W97100  22.815  42.008  13.910
24786W        W97101  24.545  36.671   4.031
24787W        W97102  28.914  39.001  10.743
24788W        W97103   5.770  44.806   1.228
24789W        W97104  22.072  32.706   3.193
24790W        W97105  34.160   4.434   2.342
24791W        W97106   9.612  44.389   3.187
24792W        W97107  33.303   8.558   4.096
24793W        W97108   3.848  44.484   9.894
24794W        W97109   3.228  38.817  11.564
24795W        W97110  36.567   5.070  10.986
24796W        W97111  37.597  12.094  10.674
24797W        W97112  36.504  30.942   3.487
24798W        W97113   9.654  29.497   3.443
24799W        W97114  38.386  14.849   0.639
24800W        W97115  36.471  20.507  13.589
24801W        W97116   2.781  16.819  12.463
24802W        W97117  11.594  29.485  12.545
24803W        W97118   7.846   8.449  10.642
24804W        W97119  36.225   6.480  12.385
24805W        W97120  24.682  29.870   1.837
24806W        W97121  25.396  20.089  14.192
24807W        W97122  17.093  28.268  12.612
24808W        W97123  28.479  38.080   3.244
24809W        W97124  25.997  17.630   3.350
24810W        W97125   2.303   9.300   1.048
24811W        W97126  13.994   8.667  10.030
24812W        W97127  27.429  32.096   1.835
24813W        W97128  22.804  36.587   0.260
24814W        W97129  18.494  39.814  14.345
24815W        W97130  34.206  18.288   0.254
24816W        W97131  28.125  33.395  11.930
24817W        W97132  41.336  18.231   4.172
24818W        W97133  34.155  39.395   2.835
24819W        W97134   6.968  39.376   3.311
24820W        W97135   3.713   0.333  10.455
24821W        W97136  42.930  38.874   5.106
24822W        W97137  21.421  22.722  14.416
24823W        W97138  25.793   8.218  12.484
24824W        W97139   4.193  11.225  10.571
24825W        W97140  12.822   1.689   2.209
24826W        W97141   1.006  23.068  12.841
24827W        W97142  16.779   5.914  11.075
24828W        W97143  43.890  34.936  14.465
24829W        W97144   0.236  44.720   1.467
24830W        W97145  19.489  25.541   0.327
24831W        W97146  39.052  21.682   1.709
24832W        W97147  43.266  25.215  13.387
24833W        W97148  23.476   4.201   2.372
24834W        W97149  15.259  24.374   0.728
24835W        W97150  43.200  36.936   4.106
24836W        W97151  18.006  23.664  13.867
24837W        W97152  37.927  43.763   3.947
24838W        W97153  37.395  15.172   3.759
24839W        W97154  32.419  17.592   0.222
24840W        W97155  29.065   5.649   0.713
24841W        W97156  22.506  37.546   9.988
24842W        W97157  44.357  40.179   2.731
24843W        W97158  17.982  30.619   4.172
24844W        W97159  33.658  14.376  11.089
24845W        W97160  21.302   8.966   4.262
24846W        W97161  33.007  32.968  10.870
24847W        W97162  34.073  18.676   4.942
24848W        W97163  17.265  22.702  14.647
24849W        W97164   1.760  32.160  14.717
24850W        W97165   2.407   8.846  13.441
24851W        W97166  10.854  29.922  10.666
24852W        W97167  21.744  15.240   0.271
24853W        W97168  43.809   4.326   2.194
24854W        W97169  28.057  23.394   4.000
24855W        W97170  30.639  34.986  14.662
24856W        W97171  34.805  40.267   5.090
24857W        W97172  35.454  25.448  14.032
24858W        W97173   4.766  18.694   0.433
24859W        W97174  22.700  18.152   0.355
24860W        W97175  37.598   8.773   0.198
24861W        W97176  26.218  43.548  11.598
24862W        W97177   2.668   2.948   1.721
24863W        W97178  20.590  28.534   0.413
24864W        W97179  32.611  18.340   3.600
24865W        W97180  12.020   0.278   0.196
24866W        W97181   6.785   4.495   3.202
24867W        W97182  20.582  36.021   5.160
24868W        W97183  21.788  25.001   1.027
24869W        W97184  19.979  26.474   3.912
24870W        W97185  13.718  15.101  14.674
24871W        W97186  37.667  20.280   1.313
24872W        W97187  27.402  18.602   2.213
24873W        W97188  23.686  11.469   0.840
24874W        W97189  37.134  40.768   0.826
24875W        W97190  44.189  37.517   1.955
24876W        W97191   5.677   4.551   1.684
24877W        W97192   7.767  36.622   3.882
24878W        W97193   2.413  25.485  14.119
24879W        W97194  26.763  31.594   3.679
24880W        W97195  44.214  44.789   3.114
24881W        W97196  13.836  25.341  13.442
24882W        W97197  35.011  42.321  10.593
24883W        W97198   7.859  35.668   3.690
24884W        W97199  43.032  19.627   3.354
24885W        W97200  12.385  16.759  11.060
24886W        W97201  26.599  24.533  13.374
24887W        W97202  30.530   5.760   3.238
24888W        W97203  26.441  32.585   4.308
24889W        W97204  29.621   7.782  11.154
24890W        W97205   5.888  11.724  11.540
24891W        W97206  25.550   9.342   0.403
24892W        W97207   0.686  26.970   2.602
24893W        W97208  44.530   6.118   3.258
24894W        W97209  22.018  32.458   4.065
24895W        W97210  44.750  26.889   0.834
24896W        W97211  28.549  23.275  12.252
24897W        W97212   5.920  39.677   3.236
24898W        W97213  11.166  15.248  10.563
24899W        W97214  14.120  11.481  12.470
24900W        W97215  41.409  42.072  11.080
24901W        W97216  30.192  42.085   3.044
24902W        W97217  17.222  17.109   2.692
24903W        W97218   0.676  25.935   4.599
24904W        W97219  40.392  30.096  13.430
24905W        W97220  32.212  33.616   3.306
24906W        W97221  28.376  13.781  11.468
24907W        W97222   2.908  28.458  14.279
24908W        W97223  44.457  35.224   2.544
24909W        W97224  13.374   4.197  13.817
24910W        W97225  30.609  41.042  11.121
24911W        W97226  31.870  37.042  12.769
24912W        W97227  31.623   7.913  12.493
24913W        W97228   6.156  28.709  11.905
24914W        W97229   9.265  34.739  11.376
24915W        W97230  23.998  41.009   2.384
24916W        W97231  15.588  20.256  10.742
24917W        W97232  14.885  38.974  14.377
24918W        W97233  17.023   8.782  12.441
24919W        W97234  18.997  35.868   2.653
24920W        W97235  12.651   7.193   1.787
24921W        W97236  39.998  31.955   0.225
24922W        W97237  14.511  28.442  10.468
24923W        W97238  12.758  43.264   1.435
24924W        W97239   0.919  16.200  12.738
24925W        W97240  19.571  38.748  13.089
24926W        W97241  32.449   8.704   4.095
24927W        W97242  30.738  32.145   2.756
24928W        W97243   3.740   3.582   9.693
24929W        W97244   1.915  31.309  11.121
24930W        W97245  15.771  17.257   5.089
24931W        W97246   5.453  24.450   3.737
24932W        W97247  43.138  27.496   3.604
24933W        W97248  41.934   4.421  13.461
24934W        W97249  25.613  20.617  10.525
24935W        W97250  38.698  25.428  14.542
24936W        W97251  19.748  25.071   0.302
24937W        W97252  25.905  11.651  12.958
24938W        W97253  44.472  27.463   3.272
24939W        W97254  19.233  35.449   1.504
24940W        W97255   8.810  35.950   2.287
24941W        W97256  44.321  15.339  12.980
24942W        W97257   3.754  25.462  14.428
24943W        W97258  17.764  32.867  12.480
24944W        W97259   6.971  30.201  14.698
24945W        W97260  36.870  30.114   3.186
24946W        W97261  11.282  32.004   2.028
24947W        W97262   2.265  44.043   1.922
24948W        W97263   8.390  33.091   4.349
24949W        W97264  25.163  41.929   0.878
24950W        W97265  17.071  22.482   2.620
24951W        W97266  20.268  28.222  11.260
24952W        W97267   9.698  12.297   2.678
24953W        W97268  35.338  38.296   0.463
24954W        W97269  43.393  12.180   3.795
24955W        W97270  15.864  18.702   3.222
24956W        W97271   1.401  19.003  12.361
24957W        W97272  34.771  27.215  11.553
24958W        W97273  33.600  43.841   1.312
24959W        W97274  38.576  37.207   1.915
24960W        W97275  17.685  36.598   1.316
24961W        W97276  27.118  25.061  12.878
24962W        W97277  12.144  41.799  13.511
24963W        W97278   0.361  34.889   9.968
24964W        W97279  43.485  43.627  11.116
24965W        W97280   7.864  27.613  14.902
24966W        W97281  26.514  11.583   4.227
24967W        W97282  36.306  35.943   0.149
24968W        W97283   6.991  16.859   3.686
24969W        W97284   9.936  18.354   4.176
24970W        W97285  19.634   7.032  12.822
24971W        W97286  30.568  38.229   4.196
24972W        W97287   4.881  25.998  11.895
24973W        W97288   1.732  11.018   3.649
24974W        W97289   0.222  32.579  13.884
24975W        W97290  17.318  21.000  13.757
24976W        W97291  21.607   5.849   4.198
24977W        W97292  27.903  12.247   2.438
24978W        W97293  11.165   7.756   4.416
24979W        W97294  22.144   1.820  11.534
24980W        W97295  13.503  38.555   2.378
24981W        W97296  39.626  43.296   1.694
24982W        W97297  34.144  11.682   1.445
24983W        W97298  33.467   5.152   1.979
24984W        W97299   0.374  25.755   0.665
24985W        W97300  31.533  23.999   2.403
24986W        W97301  20.619   4.919  13.446
24987W        W97302  17.686  33.863   2.174
24988W        W97303  35.307  14.720   0.795
24989W        W97304  21.057  40.930   2.859
24990W        W97305  14.025  28.205  10.471
24991W        W97306  29.005   4.954  11.559
24992W        W97307   4.575  27.528   2.243
24993W        W97308  12.363  44.895  10.678
24994W        W97309  10.144  40.290   0.846
24995W        W97310  27.303  34.123   4.556
24996W        W97311  29.525  20.225   4.337
24997W        W97312  27.640  11.163   0.779
24998W        W97313  24.899  12.343   3.585
24999W        W97314   7.093  13.123  11.248
25000W        W97315  40.027  24.024   4.310
25001W        W97316  39.959  27.160   3.830
25002W        W97317  37.013  10.017   4.648
25003W        W97318  28.421  22.905  13.626
25004W        W97319  22.985   2.982   3.095
25005W        W97320  34.497   1.999  14.054
25006W        W97321  35.929   9.627  11.014
25007W        W97322  19.211  30.673   3.054
25008W        W97323  33.381  18.867   4.063
25009W        W97324   9.161  32.419  12.134
25010W        W97325  19.085  23.809  12.862
25011W        W97326  29.880  41.919   1.198
25012W        W97327  12.612   8.125   3.864
25013W        W97328  43.713   0.887   4.978
25014W        W97329   1.224  31.525  10.612
25015W        W97330   3.730  12.802  14.218
25016W        W97331  23.977   0.285  13.023
25017W        W97332   8.044  36.888   0.201
25018W        W97333   3.380   5.454   4.102
25019W        W97334  24.953   1.165   5.124
25020W        W97335  28.171  18.973   1.968
25021W        W97336   9.172   3.424   3.867
25022W        W97337  25.220  19.284   1.755
25023W        W97338  24.655  13.543   1.895
25024W        W97339   6.427  39.102   2.572
25025W        W97340  40.323  22.065  13.395
25026W        W97341  33.057  39.421   4.574
25027W        W97342  13.314   1.306   4.263
25028W        W97343  44.838  33.686  11.215
25029W        W97344  28.555  20.081  12.740
25030W        W97345  17.755   8.699  10.287
25031W        W97346   0.481  37.103  13.562
25032W        W97347   2.902  26.632   2.733
25033W        W97348   6.406  23.022  10.703
25034W        W97349   3.073  44.198  13.976
25035W        W97350  23.970  25.616  11.934
25036W        W97351  27.571  29.009   4.590
25037W        W97352   5.767  32.504   3.312
25038W        W97353  12.794  32.346   3.727
25039W        W97354  23.769  22.575  14.438
25040W        W97355  17.546  40.359   2.616
25041W        W97356   1.192  12.180  12.523
25042W        W97357  34.454  33.850  11.122
25043W        W97358  15.585  38.444   4.692
25044W        W97359  27.241  33.784   5.332
25045W        W97360  22.119  15.889  12.579
25046W        W97361  33.467  13.548  11.027
25047W        W97362  16.922  23.256  12.368
25048W        W97363   1.731  35.626  10.732
25049W        W97364   0.965  29.477  11.960
25050W        W97365  32.658  26.618  14.193
25051W        W97366   5.912  43.832  10.468
25052W        W97367  18.321   9.397   1.469
25053W        W97368  43.089  31.495   3.228
25054W        W97369  37.811  31.380   3.202
25055W        W97370   9.323  15.365   2.396
25056W        W97371  32.611  33.146  13.916
25057W        W97372  42.831  17.127   0.366
25058W        W97373   9.211   0.785  13.211
25059W        W97374  18.242  37.454  13.947
25060W        W97375  16.348  44.318   3.230
25061W        W97376  44.390  20.512   0.749
25062W        W97377   4.222  27.507   2.635
25063W        W97378  40.368  17.539  12.886
25064W        W97379  18.044  30.078   3.298
25065W        W97380  23.578  12.196   4.514
25066W        W97381   6.516  29.852   3.394
25067W        W97382   3.368  18.798   3.312
25068W        W97383  24.162  27.392   2.257
25069W        W97384  36.404  40.394   3.315
25070W        W97385  41.107  33.114   2.751
25071W        W97386   0.836   3.496  10.718
25072W        W97387  24.531  32.113  13.928
25073W        W97388  32.029   8.947   4.595
25074W        W97389  43.315   5.782  13.958
25075W        W97390   2.974  10.356   4.204
25076W        W97391   5.625  40.486   1.891
25077W        W97392  28.218  13.345  11.181
25078W        W97393   7.866  18.548  12.540
25079W        W97394   8.165  37.473   0.912
25080W        W97395  28.687  20.666  11.507
25081W        W97396  22.742   8.688  11.596
25082W        W97397  20.770  32.083   4.048
25083W        W97398  15.127  40.821   4.098
25084W        W97399  41.918  18.944  11.953
25085W        W97400  33.373  16.206   3.153
25086W        W97401  43.816  13.440   0.909
25087W        W97402   6.361  42.975  12.512
25088W        W97403  19.253  30.708   2.057
25089W        W97404   5.710  14.286  13.552
25090W        W97405  43.138  19.116   3.312
25091W        W97406  36.824   4.308   0.023
25092W        W97407  13.058  43.809  10.846
25093W        W97408  12.724  32.926  10.551
25094W        W97409  15.776   8.385   4.354
25095W        W97410  44.480  38.386  12.214
25096W        W97411   9.219  25.714  13.088
25097W        W97412  14.352   1.729   2.663
25098W        W97413   6.594  40.938  13.780
25099W        W97414  27.600  23.945  11.610
25100W        W97415  41.481   0.278   0.903
25101W        W97416  40.022  37.411   4.450
25102W        W97417   5.862  40.167   0.378
25103W        W97418   9.816  36.577   3.625
25104W        W97419  12.711  41.078  13.885
25105W        W97420  25.621  43.932   3.846
25106W        W97421  40.839  38.806  10.856
25107W        W97422  31.725  19.496  11.954
25108W        W97423  27.118  18.272   3.807
25109W        W97424  16.382  40.344  14.440
25110W        W97425  37.067  12.751   4.570
25111W        W97426  29.921  29.634   4.650
25112W        W97427   1.311   0.991  12.028
25113W        W97428  43.126  24.197  13.399
25114W        W97429  44.576  42.251  11.125
25115W        W97430  25.613  37.613  12.104
25116W        W97431  27.564  31.643  12.134
25117W        W97432  25.132  24.724  11.971
25118W        W97433   5.055   6.029  12.607
25119W        W97434  42.628  12.880  13.123
25120W        W97435  40.517  31.668  13.321
25121W        W97436   1.042   7.107   1.302
25122W        W97437  38.540   5.394   1.318
25123W        W97438  40.105   8.586   3.652
25124W        W97439  13.673  21.759  11.506
25125W        W97440  29.146  42.375   2.440
25126W        W97441  33.332   7.338   0.580
25127W        W97442  36.450  26.716  13.130
25128W        W97443  19.743  25.061  13.023
25129W        W97444  34.581  37.852   4.657
25130W        W97445  18.185  32.575   2.871
25131W        W97446  21.929  22.579  14.464
25132W        W97447  16.459  12.243  11.225
25133W        W97448   4.291   3.360  11.932
25134W        W97449  27.537  17.695  13.307
25135W        W97450  24.952  18.672  12.941
25136W        W97451  21.769  33.542  12.869
25137W        W97452   4.852  23.264   4.765
25138W        W97453  22.693  32.564  12.003
25139W        W97454  10.699  12.071   1.324
25140W        W97455  37.361  25.225  12.859
25141W        W97456  42.788  12.616  12.030
25142W        W97457  33.143  13.261  12.948
25143W        W97458  35.776  39.849   3.090
25144W        W97459  30.549  29.984  10.675
25145W        W97460  33.910  21.793   0.452
25146W        W97461  18.754  39.354  14.491
25147W        W97462  11.084  42.896  10.433
25148W        W97463   8.456  41.548  11.904
25149W        W97464   6.335   7.408  12.603
25150W        W97465   8.565   9.465  13.353
25151W        W97466   0.012  37.038   0.465
25152W        W97467  20.452  23.618   3.271
25153W        W97468  32.594   2.398  14.816
25154W        W97469  11.493  40.777  12.778
25155W        W97470  19.454   6.703  14.514
25156W        W97471  32.977  32.109  13.453
25157W        W97472  18.249  42.289   4.564
25158W        W97473  28.649  30.716   0.474
25159W        W97474  17.361  10.230   1.486
25160W        W97475  41.617  29.938   1.193
25161W        W97476  40.242  35.138   4.721
25162W        W97477  39.559   4.138  12.415
25163W        W97478  44.255  14.265   3.251
25164W        W97479  13.848  15.160   3.312
25165W        W97480  20.797   2.367   1.717
25166W        W97481   9.933  41.540   1.745
25167W        W97482  27.600  31.801   9.840
25168W        W97483  35.899   8.237  10.689
25169W        W97484  11.161  17.052  10.449
25170W        W97485  14.942   7.104  12.307
25171W        W97486  29.372  18.596  13.422
25172W        W97487  44.862  38.936  14.208
25173W        W97488  37.959  20.636   4.338
25174W        W97489  28.461  23.942   4.568
25175W        W97490  31.830  27.478  11.667
25176W        W97491  20.751  40.917  11.462
25177W        W97492  13.159  31.368   4.949
25178W        W97493  35.104  23.288  14.926
25179W        W97494  10.665   6.843  11.235
25180W        W97495   4.697   7.616   2.273
25181W        W97496  29.123  14.801   4.160
25182W        W97497  43.865  42.419   1.451
25183W        W97498   1.046  42.763   4.222
25184W        W97499  11.508   5.407  14.953
25185W        W97500  14.329   4.757  12.391
25186W        W97501  43.482  16.110  12.524
25187W        W97502  40.705  10.914  10.989
25188W        W97503  25.505   4.317  11.241
25189W        W97504  13.614  41.773   1.898
25190W        W97505  12.340   5.467   3.243
25191W        W97506   4.443  14.320   4.091
25192W        W97507  10.741  32.646   3.816
25193W        W97508  28.744   3.405   0.448
25194W        W97509  27.082   4.634  13.349
25195W        W97510  30.056  39.816   3.266
25196W        W97511  26.526  34.637   0.650
25197W        W97512   6.675   7.431  10.859
25198W        W97513  26.553  44.374  11.741
25199W        W97514  10.237   3.803   3.803
25200W        W97515  33.421  17.088   1.343
25201W        W97516  36.044   3.050   4.188
25202W        W97517   0.560  29.658  12.929
25203W        W97518   5.183  19.953   3.842
25204W        W97519  41.105  19.025  13.795
25205W        W97520  17.549  41.345  14.008
25206W        W97521  39.440  36.905   1.789
25207W        W97522  28.943  32.967   1.767
25208W        W97523  27.972  34.542  13.198
25209W        W97524  15.253  38.842   4.678
25210W        W97525  29.335  14.533   2.763
25211W        W97526   0.971  44.365   3.157
25212W        W97527  32.059  28.538  10.445
25213W        W97528  29.502  14.678  12.887
25214W        W97529   9.737  36.117   4.621
25215W        W97530  18.094  38.065  12.948
25216W        W97531  32.384  28.913  10.674
25217W        W97532   1.826  11.196   0.257
25218W        W97533  24.142   4.468   3.113
25219W        W97534   4.786  31.678   1.704
25220W        W97535  15.841  18.837   2.287
25221W        W97536  19.627  19.830   4.684
25222W        W97537  22.660  44.835  11.157
25223W        W97538  17.373  28.018   3.182
25224W        W97539   0.998  31.705   3.819
25225W        W97540  22.692  32.045  12.042
25226W        W97541  35.380  30.031  11.408
25227W        W97542  29.458  14.097   0.757
25228W        W97543  27.128  31.069  12.600
25229W        W97544  20.070  12.538  10.290
25230W        W97545  15.726  10.521   3.600
25231W        W97546  28.069  21.330   4.050
25232W        W97547  30.997  14.745   1.746
25233W        W97548   4.433  13.876   3.236
25234W        W97549  24.611   5.982  13.975
25235W        W97550  13.098  40.005  11.494
25236W        W97551  20.182   5.677   4.420
25237W        W97552  10.864  22.507  12.279
25238W        W97553  14.574  17.091   4.942
25239W        W97554  15.625  36.587   4.125
25240W        W97555   0.454  35.879  13.692
25241W        W97556  16.762  35.095   4.368
25242W        W97557  30.488   9.898  12.715
25243W        W97558  38.423   2.074   3.779
25244W        W97559   2.169   9.394   2.377
25245W        W97560  11.405  27.153  14.613
25246W        W97561  40.942   6.258   3.361
25247W        W97562   9.081  33.971   0.731
25248W        W97563  14.259  16.172  14.958
25249W        W97564  32.534   9.613   2.883
25250W        W97565  29.696  13.056   2.727
25251W        W97566   2.342  28.177  10.568
25252W        W97567  41.529   5.050  14.424
25253W        W97568  28.981  29.552  12.406
25254W        W97569  11.727  26.685   4.161
25255W        W97570   3.829  36.553   2.776
25256W        W97571   6.189  38.775   3.111
25257W        W97572  22.200   0.385  11.591
25258W        W97573  42.741  18.217   1.426
25259W        W97574  34.122   7.665   4.090
25260W        W97575  19.796  27.489   3.183
25261W        W97576   6.877  22.853   3.242
25262W        W97577   8.040  26.306   2.571
25263W        W97578  39.267  23.705   2.801
25264W        W97579   0.307  43.537   2.638
25265W        W97580  35.651  37.171   3.393
25266W        W97581  10.898  38.934  12.579
25267W        W97582  31.373   0.135   3.733
25268W        W97583  21.026  10.660  13.000
25269W        W97584   1.158  28.578  13.731
25270W        W97585   1.194  28.480  11.184
25271W        W97586  23.996  27.674  11.522
25272W        W97587  26.886  16.148   4.275
25273W        W97588  27.584   6.202   4.248
25274W        W97589  17.224  16.081   0.259
25275W        W97590   4.227  41.578  14.882
25276W        W97591  22.980  34.654  10.748
25277W        W97592  31.517  22.256   1.786
25278W        W97593  32.902  17.536   0.025
25279W        W97594  29.293  10.055   1.329
25280W        W97595  22.210   4.852   0.797
25281W        W97596  26.503  27.075  12.036
25282W        W97597  15.834  40.850  11.160
25283W        W97598  39.094  11.874  13.029
25284W        W97599  27.788   8.990   3.210
25285W        W97600  29.792  13.884  14.454
25286W        W97601  13.646  11.263  11.542
25287W        W97602  21.470  23.110   0.736
25288W        W97603   2.910  43.410   1.649
25289W        W97604  15.056  36.829  13.945
25290W        W97605  20.549  36.605   2.925
25291W        W97606   0.915   5.297   4.533
25292W        W97607  19.698  18.228  14.443
25293W        W97608   6.703  24.517  14.805
25294W        W97609   5.732   9.579   2.010
25295W        W97610  42.451   4.838  11.920
25296W        W97611  33.369   1.017  10.681
25297W        W97612  14.399   0.735  13.541
25298W        W97613   8.729  28.116   2.026
25299W        W97614  40.738  21.573  12.573
25300W        W97615  18.878  13.563   4.098
25301W        W97616  33.184  35.905   0.810
25302W        W97617   3.826  37.932   2.242
25303W        W97618   6.181  44.457  12.126
25304W        W97619  40.286  29.572  13.437
25305W        W97620  43.730  28.335  10.313
25306W        W97621  16.294  26.067   3.208
25307W        W97622  31.082  16.232   4.468
25308W        W97623   2.822  22.612  12.018
25309W        W97624  34.523  23.654  10.456
25310W        W97625   1.822  15.468  11.875
25311W        W97626   7.831   7.934  10.637
25312W        W97627  30.884  26.993   4.466
25313W        W97628  11.189   8.338   4.093
25314W        W97629  36.089  38.470  12.059
25315W        W97630  37.650  16.531   1.870
25316W        W97631  11.861   6.845  13.255
25317W        W97632   6.776  42.665  11.431
25318W        W97633  11.198  37.829   4.667
25319W        W97634  15.252  32.987  12.017
25320W        W97635  16.182  14.469  14.156
25321W        W97636  27.510   4.324   2.338
25322W        W97637  38.552  12.813  14.338
25323W        W97638  44.440   9.705  10.243
25324W        W97639  40.027  34.935   2.635
25325W        W97640  39.080   2.749   0.054
25326W        W97641   6.223   2.240  14.919
25327W        W97642  34.875  21.071   1.782
25328W        W97643   1.878  33.304  11.191
25329W        W97644  29.666  44.424   1.350
25330W        W97645  27.272  33.599  10.181
25331W        W97646  33.206  14.627   2.280
25332W        W97647  18.724  24.927  11.238
25333W        W97648  25.518  27.701   3.748
25334W        W97649  10.336  32.286  12.893
25335W        W97650   0.292  34.448  11.733
25336W        W97651  32.172  16.364  11.624
25337W        W97652  18.327  12.311   3.284
25338W        W97653  35.600  27.434  11.524
25339W        W97654   3.278  40.989   4.386
25340W        W97655  31.417  23.724   2.824
25341W        W97656  44.249  18.111   3.156
25342W        W97657  28.919   9.212  12.564
25343W        W97658  24.511   2.354  14.889
25344W        W97659   2.749   5.097  14.469
25345W        W97660  19.653  37.605   2.298
25346W        W97661  33.518  19.654  11.595
25347W        W97662  25.685  38.488   4.744
25348W        W97663  43.541  28.542   0.794
25349W        W97664  42.826  43.926  14.372
25350W        W97665  18.777  30.856   2.188
25351W        W97666  38.041  38.630   0.466
25352W        W97667  24.163  13.831   4.368
25353W        W97668  13.978  38.859  12.615
25354W        W97669   1.819  25.645   4.600
25355W        W97670  31.299  15.927  11.421
25356W        W97671   4.976  31.381  13.243
25357W        W97672  29.106  42.664   0.154
25358W        W97673  34.963  41.738   0.224
25359W        W97674  11.722  19.001   4.263
25360W        W97675  21.119   3.901  11.410
25361W        W97676   1.268  27.727  10.688
25362W        W97677  11.863   3.948   1.720
25363W        W97678  15.111  21.525   3.690
25364W        W97679  36.973  14.652  12.510
25365W        W97680  29.617   9.756  12.786
25366W        W97681  20.473   8.916  13.278
25367W        W97682  36.141  28.324   5.003
25368W        W97683  22.920  42.103  12.565
25369W        W97684  44.992  24.491  14.827
25370W        W97685   3.947  25.500   0.310
25371W        W97686   4.833   0.164  11.052
25372W        W97687  12.152  26.735   0.349
25373W        W97688  30.099  41.447   2.354
25374W        W97689  18.311  12.673   0.042
25375W        W97690  33.484   3.795   1.338
25376W        W97691  18.229  11.328   3.979
25377W        W97692   5.500  10.297   1.531
25378W        W97693  44.909  18.981  10.967
25379W        W97694  35.267   0.458   1.832
25380W        W97695  20.739   0.986  13.455
25381W        W97696  37.371  15.701  11.505
25382W        W97697  15.539  19.500  12.499
25383W        W97698  33.677  35.230   5.087
25384W        W97699  21.920  38.078   2.386
25385W        W97700  36.997  11.827   2.678
25386W        W97701  34.398  44.357  12.318
25387W        W97702   0.449  12.569   1.319
25388W        W97703  38.606  20.288  13.129
25389W        W97704  43.790   4.502  12.589
25390W        W97705  27.481  38.048   2.207
25391W        W97706  15.574  31.544  12.606
25392W        W97707  24.038  30.487   3.284
25393W        W97708  29.457  25.909   0.864
25394W        W97709   2.366  40.758   1.949
25395W        W97710   2.895  37.343  14.039
25396W        W97711  26.134   4.955   4.348
25397W        W97712   7.318  19.147  11.723
25398W        W97713  23.309  23.685  12.791
25399W        W97714   6.203   7.639  11.009
25400W        W97715  33.678  13.024  10.993
25401W        W97716   9.863   3.764  11.833
25402W        W97717  21.739  31.021  11.606
25403W        W97718  34.002  17.735  13.295
25404W        W97719  25.720   6.662  14.064
25405W        W97720  35.882   6.877   4.414
25406W        W97721  12.766  30.604  11.945
25407W        W97722  35.270  33.586   2.347
25408W        W97723  27.726   8.250   2.876
25409W        W97724  38.045  30.486   2.674
25410W        W97725  30.970  41.956  11.382
25411W        W97726  15.517  16.704   3.485
25412W        W97727   5.301  16.123  11.618
25413W        W97728  19.010  40.720  12.425
25414W        W97729  22.333  35.514   3.454
25415W        W97730  27.813  18.549  10.255
25416W        W97731  13.905  12.590   1.511
25417W        W97732  11.900  35.112  12.864
25418W        W97733  10.129  32.452  12.072
25419W        W97734   7.924   3.883   2.639
25420W        W97735  40.496  42.526  13.789
25421W        W97736  12.358  20.696  12.003
25422W        W97737   9.339  15.321  14.816
25423W        W97738   6.933   6.889   1.807
25424W        W97739  19.757  26.674   1.147
25425W        W97740  42.426  17.561   3.455
25426W        W97741  40.522   7.401  10.705
25427W        W97742  40.980  19.202   4.011
25428W        W97743  25.196  42.821   3.505
25429W        W97744  10.272  22.153  11.963
25430W        W97745  25.194  17.658  14.012
25431W        W97746  39.308  15.600  12.873
25432W        W97747  21.883   7.166  12.526
25433W        W97748  18.791  16.784  13.096
25434W        W97749  11.273  42.689  12.440
25435W        W97750  11.736  14.149  14.862
25436W        W97751   5.834   0.334   1.374
25437W        W97752  25.628  35.091   1.745
25438W        W97753  28.463  33.767   1.155
25439W        W97754   2.384  31.545  11.857
25440W        W97755  40.837   5.721  14.060
25441W        W97756  43.347  20.339   2.212
25442W        W97757   1.912  31.276  13.981
25443W        W97758   8.101  34.106  12.641
25444W        W97759   4.975  36.399   0.797
25445W        W97760   6.555   8.728   4.096
25446W        W97761  15.791  19.991   4.998
25447W        W97762  40.071  28.482  14.400
25448W        W97763   5.330   8.360  13.844
25449W        W97764  19.159  37.017  13.548
25450W        W97765  22.004  19.570  11.635
25451W        W97766  15.803   2.275   0.634
25452W        W97767   8.523  26.563   4.568
25453W        W97768  10.630  15.233  11.500
25454W        W97769  13.012   3.660   3.151
25455W        W97770  11.274  37.349   0.485
25456W        W97771  25.972  37.521   0.925
25457W        W97772   0.709  40.074   1.296
25458W        W97773  16.554  23.129   1.964
25459W        W97774   8.165   9.133  13.371
25460W        W97775  29.850  14.691   2.808
25461W        W97776  39.046  34.919  12.226
25462W        W97777  12.394  32.831   4.233
25463W        W97778  11.688  39.502   4.412
25464W        W97779  38.085  25.056  14.808
25465W        W97780  33.430  18.611  10.639
25466W        W97781   1.346  15.299  12.057
25467W        W97782  31.918  20.418   1.263
25468W        W97783  37.639   2.299   3.416
25469W        W97784  42.257   9.619   3.657
25470W        W97785  41.808   9.638  13.106
25471W        W97786   1.962  36.558  12.910
25472W        W97787  28.626  35.480   2.737
25473W        W97788   5.776  43.763  13.814
25474W        W97789   1.947  18.212   0.887
25475W        W97790  20.289  10.916  11.479
25476W        W97791   2.436  41.043  10.205
25477W        W97792  20.212   3.367  11.619
25478W        W97793  24.704  38.326   1.253
25479W        W97794   6.644  43.366   0.900
25480W        W97795  12.114  27.711  11.839
25481W        W97796  34.547  17.645   3.170
25482W        W97797  25.684   1.780  10.483
25483W        W97798   7.149  21.049  14.708
25484W        W97799  22.465  17.793  11.117
25485W        W97800  35.549  21.111  12.103
25486W        W97801  39.293  35.915   1.381
25487W        W97802  42.602   7.150   1.796
25488W        W97803   6.992  23.000   4.212
25489W        W97804  31.099  37.882  13.470
25490W        W97805  43.241  15.847   3.340
25491W        W97806  19.769  19.681  11.570
25492W        W97807   2.406  11.560   0.432
25493W        W97808  26.605  32.221  11.200
25494W        W97809  28.095  27.187  12.011
25495W        W97810   7.309  29.366  11.876
25496W        W97811  38.207  21.738   2.268
25497W        W97812  25.625  11.584   4.224
25498W        W97813  11.876  14.307   3.650
25499W        W97814  25.173  11.084  14.433
25500W        W97815  25.439  35.611  11.106
25501W        W97816  31.803  22.801  11.609
25502W        W97817  10.183  29.608  10.732
25503W        W97818   8.249  12.101   0.281
25504W        W97819  27.141  26.610   0.799
25505W        W97820  28.844  23.019   3.653
25506W        W97821  39.504   0.646  10.594
25507W        W97822  27.833   9.333  14.354
25508W        W97823  23.424   5.260   4.219
25509W        W97824  17.677  32.939   1.655
25510W        W97825  17.638  40.511   3.586
25511W        W97826   3.258  12.250   1.894
25512W        W97827   7.908   4.372  12.984
25513W        W97828  11.544  23.609  11.091
25514W        W97829  18.878  15.882  12.963
25515W        W97830  39.729  26.373  11.820
25516W        W97831  10.328  11.316  13.465
25517W        W97832  31.201  38.295   2.296
25518W        W97833   2.071  39.369   4.279
25519W        W97834  23.860  26.458  14.796
25520W        W97835  29.661  27.467   2.203
25521W        W97836   8.874  33.546   4.577
25522W        W97837  37.322   2.250  11.589
25523W        W97838  32.044  20.062   1.879
25524W        W97839   0.437  33.493  12.336
25525W        W97840  20.530  21.942  10.491
25526W        W97841  39.984  23.506   1.049
25527W        W97842  29.002  34.537  14.654
25528W        W97843  24.923  22.127   0.303
25529W        W97844  40.782  15.350   3.289
25530W        W97845  34.307  26.544   2.276
25531W        W97846   4.192  16.136  14.777
25532W        W97847  37.420   3.149   3.317
25533W        W97848  39.413  27.741  13.874
25534W        W97849   0.366   5.977  10.439
25535W        W97850  36.389   6.426   3.342
25536W        W97851  34.057   1.717  13.257
25537W        W97852   2.115   3.246  10.682
25538W        W97853  16.252   5.189  14.131
25539W        W97854  27.206   2.409   3.168
25540W        W97855  25.173  44.410  10.505
25541W        W97856  29.134  20.276   1.791
25542W        W97857  23.243  27.709  11.092
25543W        W97858  27.593  22.527   2.652
25544W        W97859   2.929  20.611  10.744
25545W        W97860   7.341  11.998   1.047
25546W        W97861  33.979  20.013  13.347
25547W        W97862  19.101  30.504  13.903
25548W        W97863  39.305   9.637   4.120
25549W        W97864  12.691   1.583   4.243
25550W        W97865  19.207  12.898  13.751
25551W        W97866  13.172  24.157   5.006
25552W        W97867  32.973  40.294  14.074
25553W        W97868  40.302  37.826   1.663
25554W        W97869  27.625   4.262   3.386
25555W        W97870   9.746  16.118  14.454
25556W        W97871   2.754  14.416   2.159
25557W        W97872  27.999   6.259   9.854
25558W        W97873  20.173  14.620  13.922
25559W        W97874  13.208  22.107  11.486
25560W        W97875  43.555   4.898   2.389
25561W        W97876   8.199  13.288   2.860
25562W        W97877   8.928  28.191   3.321
25563W        W97878  41.560  20.506  14.939
25564W        W97879   6.731  36.192   1.433
25565W        W97880  30.436   5.708  10.501
25566W        W97881  35.649  38.144  14.250
25567W        W97882   7.103  27.116   3.403
25568W        W97883   3.361   5.256   0.242
25569W        W97884   2.476  36.047   3.112
25570W        W97885  15.600  32.374  13.029
25571W        W97886   0.824  14.656  13.906
25572W        W97887  37.206  37.345   2.596
25573W        W97888  33.402   5.352  11.104
25574W        W97889  43.403   3.991  14.725
25575W        W97890  22.974  14.582   2.412
25576W        W97891   5.984  15.889   1.201
25577W        W97892   6.932  33.603  13.942
25578W        W97893  21.961   9.278  12.994
25579W        W97894   4.703   0.286   2.210
25580W        W97895  19.788  41.477  10.551
25581W        W97896  35.667  44.779  13.916
25582W        W97897  16.177  24.592   1.395
25583W        W97898  19.749  33.901  13.337
25584W        W97899  14.074  30.886  13.985
25585W        W97900  36.375  27.926  11.440
25586W        W97901  41.418  33.670   4.491
25587W        W97902   1.597   6.959   2.692
25588W        W97903   4.797  18.003  11.535
25589W        W97904  28.080  22.891   4.089
25590W        W97905   0.264  42.098  11.947
25591W        W97906  10.645  36.402   3.352
25592W        W97907   6.345   9.175   4.261
25593W        W97908   6.014  29.207   1.210
25594W        W97909  23.647  26.523   0.256
25595W        W97910  13.300  25.869   3.799
25596W        W97911  22.321  21.117  11.963
25597W        W97912  41.851  13.208   0.889
25598W        W97913  43.066  44.501  10.424
25599W        W97914  14.314  18.745   2.391
25600W        W97915  20.154  32.432   2.786
25601W        W97916   6.414  43.845   4.632
25602W        W97917  24.974  27.674  10.607
25603W        W97918  10.181   8.091   0.786
25604W        W97919  33.356  32.400  12.014
25605W        W97920  37.492   2.401  12.468
25606W        W97921   3.388   3.791   4.276
25607W        W97922  13.668  16.074  14.397
25608W        W97923  33.588   8.685  13.043
25609W        W97924   3.481   3.307  13.998
25610W        W97925  17.146   2.424   3.726
25611W        W97926  21.905   8.618  13.690
25612W        W97927   2.936  19.980   1.419
25613W        W97928  17.651  39.084  13.412
25614W        W97929  26.078  26.098  13.200
25615W        W97930  38.855  18.283   1.809
25616W        W97931   8.746   8.781   0.329
25617W        W97932  14.214  39.610  13.511
25618W        W97933  34.498  19.230   2.311
25619W        W97934   0.890   5.655  13.945
25620W        W97935  31.496   6.260  10.758
25621W        W97936  17.263  38.392   1.221
25622W        W97937  22.277  34.086   4.622
25623W        W97938  42.096   9.501  12.694
25624W        W97939  39.241  14.807   3.224
25625W        W97940  42.220  26.917  13.497
25626W        W97941   9.310  23.116   1.680
25627W        W97942  33.878  44.938  12.924
25628W        W97943  28.388  39.165  10.110
25629W        W97944  32.058   2.016   0.754
25630W        W97945  32.090   6.413  12.108
25631W        W97946  24.013   9.983  14.472
25632W        W97947  42.325  39.350   0.811
25633W        W97948  35.977  16.547  12.141
25634W        W97949   7.332  26.585   3.741
25635W        W97950  18.201   3.046  11.993
25636W        W97951  35.304   5.377   4.410
25637W        W97952  18.682  31.893   1.200
25638W        W97953   9.265  42.566   3.626
25639W        W97954   2.797  38.492   0.366
25640W        W97955  30.333   9.510  13.593
25641W        W97956  25.241  41.216   2.874
25642W        W97957  21.648  38.833   1.207
25643W        W97958  30.408  19.679   2.434
25644W        W97959   4.750  19.506  13.385
25645W        W97960  32.432  27.893  13.007
25646W        W97961  14.077  10.422  12.176
25647W        W97962  37.948  44.528  14.037
25648W        W97963  28.733   4.431   3.369
25649W        W97964  21.190  36.913   1.928
25650W        W97965  15.411  34.080   4.391
25651W        W97966  31.415  12.557  14.951
25652W        W97967  16.723  27.491   0.696
25653W        W97968   4.222   4.585  12.041
25654W        W97969  39.456   2.010  11.890
25655W        W97970   3.393  23.754   4.571
25656W        W97971   3.788  37.386  13.521
25657W        W97972   4.408  43.712   1.408
25658W        W97973   1.503  34.476   0.343
25659W        W97974  24.926   2.701   2.132
25660W        W97975  39.443  25.143   0.751
25661W        W97976  15.194  31.674   2.341
25662W        W97977  31.908  32.412   2.239
25663W        W97978   4.627  30.576   4.702
25664W        W97979  35.019  22.685   4.537
25665W        W97980  11.703  37.485  13.760
25666W        W97981  34.568  14.159   1.309
25667W        W97982  20.273  26.184   4.340
25668W        W97983  33.359  40.013  13.889
25669W        W97984  19.811  13.783  10.698
25670W        W97985  35.045  39.902   0.679
25671W        W97986  30.692   2.020  12.540
25672W        W97987  24.028   7.036   0.459
25673W        W97988  16.165  41.136   1.452
25674W        W97989   2.908  21.748   3.225
25675W        W97990  30.924  13.236   3.434
25676W        W97991  27.508   2.132   1.679
25677W        W97992  40.422  14.805   1.744
25678W        W97993  30.202  24.026  13.520
25679W        W97994   0.737  44.661   1.546
25680W        W97995  20.552  40.253   1.291
25681W        W97996  30.499  24.466  10.510
25682W        W97997  33.124   2.375   3.237
25683W        W97998  38.870  12.700   1.279
25684W        W97999  37.356  16.769  10.663
25685W        W98000  38.994  27.758   1.810
25686W        W98001   0.926  35.145  14.150
25687W        W98002  44.234  10.875  11.348
25688W        W98003  19.747  16.738  13.748
25689W        W98004  12.725  16.484   1.636
25690W        W98005  15.020  44.504  14.036
25691W        W98006  19.560  30.987  12.127
25692W        W98007  11.845  40.107   3.181
25693W        W98008  27.620   4.231   1.814
25694W        W98009  39.350  24.683  14.567
25695W        W98010  18.652  16.213  10.753
25696W        W98011  36.333   1.534  11.190
25697W        W98012  20.560  17.777   4.569
25698W        W98013  31.403  19.182   2.415
25699W        W98014  10.375   9.305   4.684
25700W        W98015  42.286  15.493  12.920
25701W        W98016  32.931  20.019  11.669
25702W        W98017  18.816  31.952  11.119
25703W        W98018  24.657  44.071   3.772
25704W        W98019  15.216   7.347   3.128
25705W        W98020  29.188   8.336   3.887
25706W        W98021  31.076  30.489  13.651
25707W        W98022  21.757  26.002   3.390
25708W        W98023  19.559  14.159   3.759
25709W        W98024  20.115   2.649   0.456
25710W        W98025  22.155  37.955   0.297
25711W        W98026  11.797  16.113  14.503
25712W        W98027  20.083  42.338  14.946
25713W        W98028   1.029  17.052   3.296
25714W        W98029  39.875  31.459  13.708
25715W        W98030  14.103   8.096  12.635
25716W        W98031  18.326   4.877   4.155
25717W        W98032  42.070  25.164  13.051
25718W        W98033  37.985  41.792  13.492
25719W        W98034  25.134  28.580   1.777
25720W        W98035   9.826  34.089   3.976
25721W        W98036  12.243  20.637   3.664
25722W        W98037  29.943  28.966  11.464
25723W        W98038  28.871  39.466   3.820
25724W        W98039   0.260  34.065  14.271
25725W        W98040  15.248   3.455   0.859
25726W        W98041  15.629   5.268  13.531
25727W        W98042  35.334  10.936  11.232
25728W        W98043  37.511  44.241   3.338
25729W        W98044  41.930  22.703   1.406
25730W        W98045  20.013   5.236   4.623
25731W        W98046  11.304   7.431   0.654
25732W        W98047   9.353  27.001   2.721
25733W        W98048  29.514  13.049   4.034
25734W        W98049   9.574  14.647  11.155
25735W        W98050  31.946  10.149  14.863
25736W        W98051  13.785  35.781  10.437
25737W        W98052   3.006   3.776   3.779
25738W        W98053  15.664  12.612  11.501
25739W        W98054   1.514  26.657   2.222
25740W        W98055  30.462  11.107  11.839
25741W        W98056  27.866  43.040  12.462
25742W        W98057  44.074  17.632   3.372
25743W        W98058   9.622  21.135  11.707
25744W        W98059  23.692  20.168   4.287
25745W        W98060  11.830  20.846  10.466
25746W        W98061  32.943  28.028  14.778
25747W        W98062  28.635  24.152  14.946
25748W        W98063  37.329  14.398  11.292
25749W        W98064  28.101  13.421   2.367
25750W        W98065   6.287  44.790  14.379
25751W        W98066   1.154   8.284   4.597
25752W        W98067  39.403  21.989   1.955
25753W        W98068  30.046   3.410  14.017
25754W        W98069  39.519   8.847   0.294
25755W        W98070  35.015  27.660  12.676
25756W        W98071  34.949   3.209  12.895
25757W        W98072  27.656  29.902  14.911
25758W        W98073   7.781  12.615   3.604
25759W        W98074  32.483  14.351   2.430
25760W        W98075  37.306  21.196  12.188
25761W        W98076  10.291   9.593   4.238
25762W        W98077  19.441  12.808  11.538
25763W        W98078  17.359   3.478   2.803
25764W        W98079  24.926  32.824  11.002
25765W        W98080  22.975  17.650  11.131
25766W        W98081  39.319   7.799   2.965
25767W        W98082  40.397  21.518  11.124
25768W        W98083  44.528   5.137   3.186
25769W        W98084  36.520   3.316   4.255
25770W        W98085  15.233  14.727   3.761
25771W        W98086  35.069  16.270   0.555
25772W        W98087  15.689  25.738  14.834
25773W        W98088   6.438  11.912  10.895
25774W        W98089  11.423  30.174  14.030
25775W        W98090  36.380  23.231   3.877
25776W        W98091  10.563  22.631   2.322
25777W        W98092  30.185  10.268  11.146
25778W        W98093   2.918  22.091  10.698
25779W        W98094   9.905  11.648   3.166
25780W        W98095  16.197  21.746  11.208
25781W        W98096  42.362  43.748  12.920
25782W        W98097  31.362  29.448  11.545
25783W        W98098  25.231  27.660  13.500
25784W        W98099  22.134   7.950   0.308
25785W        W98100  39.326   3.249   2.814
25786W        W98101   4.265   5.902   4.326
25787W        W98102  41.174  20.660  10.713
25788W        W98103  20.577  30.661  12.783
25789W        W98104  36.498  19.452  11.657
25790W        W98105  15.235  32.162   2.136
25791W        W98106  25.086  13.457  12.449
25792W        W98107  12.448   1.310   1.304
25793W        W98108  43.891  36.392  11.841
25794W        W98109  22.332  37.196  11.963
25795W        W98110  13.678   7.631  13.368
25796W        W98111  29.098  27.229   3.201
25797W        W98112  32.396  15.637  12.018
25798W        W98113  35.415  17.599   1.733
25799W        W98114  16.814  42.316  11.573
25800W        W98115  14.670  40.616   1.931
25801W        W98116  19.708   5.252  11.968
25802W        W98117  24.972   5.345  14.022
25803W        W98118  30.590  28.792   3.077
25804W        W98119  37.753  24.421  10.182
25805W        W98120  14.160  20.035  14.016
25806W        W98121  33.918  35.568  10.754
25807W        W98122  11.192   8.186  13.218
25808W        W98123  14.114  11.124   4.686
25809W        W98124   1.915   7.695   4.532
25810W        W98125   0.663   5.295   1.789
25811W        W98126  40.421  28.508   0.769
25812W        W98127   9.265  12.557   1.803
25813W        W98128  24.378  34.762  10.145
25814W        W98129  33.287  13.614   3.549
25815W        W98130  34.536  26.353   4.608
25816W        W98131  14.298   9.382  13.470
25817W        W98132  21.907  20.067   0.405
25818W        W98133  25.145  36.603   4.689
25819W        W98134  15.443  13.283   4.521
25820W        W98135   8.235  24.682  13.826
25821W        W98136  13.531   5.956   0.878
25822W        W98137   2.852  41.668  13.697
25823W        W98138  10.214  24.090  11.898
25824W        W98139  42.370   9.287  11.231
25825W        W98140  18.602  33.322  11.125
25826W        W98141  27.418  29.550   1.760
25827W        W98142  13.135  40.513   1.780
25828W        W98143  39.842   6.168  14.496
25829W        W98144  31.733  22.076   3.741
25830W        W98145   2.160  38.812   2.773
25831W        W98146  20.159  16.211   2.869
25832W        W98147  14.362  23.196   4.443
25833W        W98148  30.432   4.766   0.742
25834W        W98149  41.275   5.170  13.366
25835W        W98150  14.258  19.620   0.844
25836W        W98151  24.486   8.747   4.418
25837W        W98152  14.328  20.276   3.335
25838W        W98153  38.024  20.391   2.585
25839W        W98154  13.280  16.596  13.999
25840W        W98155  27.684  34.246  13.964
25841W        W98156  37.160  41.986  11.175
25842W        W98157   2.554  11.109   0.906
25843W        W98158  20.209   6.319  12.467
25844W        W98159  23.731  10.156   0.810
25845W        W98160  22.590  30.406  12.994
25846W        W98161  17.658  29.855   2.331
25847W        W98162   8.425  36.919  13.418
25848W        W98163  43.773  20.161   0.190
25849W        W98164  39.042  21.740   1.207
25850W        W98165  12.719  31.567  12.981
25851W        W98166  37.490   6.365  12.587
25852W        W98167  20.917  30.343  13.093
25853W        W98168  22.252  28.689   4.162
25854W        W98169   7.288  15.880   4.989
25855W        W98170  12.567  30.581   0.232
25856W        W98171   7.547   3.901   0.904
25857W        W98172   8.997   9.377   1.261
25858W        W98173  42.503  16.186   1.821
25859W        W98174  17.031  38.601   1.777
25860W        W98175  27.573  38.590  14.082
25861W        W98176  26.560  12.196  13.295
25862W        W98177  40.843   7.377   0.687
25863W        W98178  30.939   7.783  14.501
25864W        W98179  39.963  20.396  10.511
25865W        W98180  43.194   6.520  11.591
25866W        W98181  17.032   3.911   0.907
25867W        W98182  25.005   8.837  14.979
25868W        W98183   1.827   9.408   0.743
25869W        W98184  41.431   4.785   0.971
25870W        W98185  22.222  29.518  12.449
25871W        W98186  37.548  23.599   5.615
25872W        W98187  42.742   9.380  14.416
25873W        W98188  26.537   7.805  13.026
25874W        W98189  18.516  30.914  14.385
25875W        W98190  20.206  44.962   2.635
25876W        W98191   1.513  32.444  11.660
25877W        W98192   6.707   6.708   2.806
25878W        W98193  32.422  31.138   1.222
25879W        W98194  31.338  14.124  10.577
25880W        W98195   0.772  42.313  10.919
25881W        W98196  17.259  43.344   2.599
25882W        W98197  18.680   0.862   1.452
25883W        W98198   7.408   1.370   0.257
25884W        W98199  31.884  13.058   5.062
25885W        W98200  25.580   9.711  14.989
25886W        W98201   8.356  34.419  12.989
25887W        W98202  13.149   8.758  12.020
25888W        W98203  43.840   6.436  14.635
25889W        W98204  26.501  15.399  14.845
25890W        W98205  14.772  10.408   2.302
25891W        W98206  13.343   7.747  11.870
25892W        W98207   5.266  31.947  12.042
25893W        W98208  34.508  23.591   1.012
25894W        W98209   3.266  25.464   0.814
25895W        W98210  12.598  33.474  14.276
25896W        W98211   1.473  44.475  12.538
25897W        W98212  20.218  23.671   1.937
25898W        W98213  21.118   2.289   3.090
25899W        W98214   3.663  19.484   2.054
25900W        W98215  25.523   7.432  12.293
25901W        W98216  32.856  21.941  14.938
25902W        W98217  17.267  27.927  12.961
25903W        W98218  16.248  30.688  14.025
25904W        W98219   1.437   8.401   1.406
25905W        W98220  14.585  44.342   1.266
25906W        W98221  33.402  29.265  12.389
25907W        W98222  42.821  31.170  11.281
25908W        W98223  25.611   7.925  12.100
25909W        W98224  16.250  23.665  13.065
25910W        W98225  17.506  30.038  11.572
25911W        W98226  12.095  43.999   4.737
25912W        W98227  26.953  13.561   1.302
25913W        W98228  27.059   2.784   4.981
25914W        W98229  21.702  33.193   2.309
25915W        W98230  36.083  25.038  12.097
25916W        W98231  23.322  20.898  12.055
25917W        W98232  42.027  15.325  11.610
25918W        W98233   4.213  37.054   4.167
25919W        W98234  12.697  42.723  14.711
25920W        W98235  31.726   0.115  11.433
25921W        W98236   9.218   1.517  13.741
25922W        W98237  23.996  28.019  13.371
25923W        W98238  29.016   7.316   2.994
25924W        W98239  25.990  18.984   1.291
25925W        W98240   6.386   3.045   0.913
25926W        W98241   7.179  41.056   2.798
25927W        W98242  33.174  24.919   4.676
25928W        W98243  28.183   6.985  14.974
25929W        W98244  33.963  25.919   1.783
25930W        W98245  17.132  10.672   0.836
25931W        W98246   3.305  22.822  10.502
25932W        W98247  28.496  27.735  11.571
25933W        W98248  33.065   3.512  13.591
25934W        W98249  37.040  30.935   0.291
25935W        W98250  10.759  26.932  13.308
25936W        W98251  42.754   3.350   0.430
25937W        W98252  24.443  29.502   3.134
25938W        W98253  37.595  21.496  13.460
25939W        W98254  24.458  13.093  12.592
25940W        W98255  33.480  17.993  12.537
25941W        W98256  20.088   7.672  12.017
25942W        W98257   0.793  40.321   0.840
25943W        W98258  21.435  42.604   1.802
25944W        W98259  17.205   4.957  12.332
25945W        W98260  20.557  12.667  14.740
25946W        W98261  44.502   9.667  13.395
25947W        W98262  24.680   1.627  14.401
25948W        W98263  10.933  43.728  14.051
25949W        W98264  37.617  32.691  14.930
25950W        W98265   0.008  26.514  12.044
25951W        W98266  36.521  16.818  12.188
25952W        W98267   2.680  23.523  14.641
25953W        W98268  44.592  26.598   4.727
25954W        W98269   4.256  35.898   3.674
25955W        W98270  37.774  15.893  13.912
25956W        W98271   0.254   1.455   1.414
25957W        W98272  41.031   5.362   3.119
25958W        W98273   9.428   1.972   3.287
25959W        W98274  14.264  19.240  13.669
25960W        W98275  24.221  38.623   3.620
25961W        W98276  25.035  23.659   1.291
25962W        W98277  40.619  14.645   1.281
25963W        W98278  11.231  18.486   0.686
25964W        W98279  11.977  28.777  12.480
25965W        W98280  21.506  38.762  14.192
25966W        W98281  30.044  11.564  14.470
25967W        W98282   0.983  28.984  11.640
25968W        W98283  35.752  42.374  11.672
25969W        W98284  44.436  11.109  13.389
25970W        W98285  34.094  25.503   4.253
25971W        W98286  36.945  36.884  13.284
25972W        W98287   7.226  23.490   4.622
25973W        W98288  14.692  28.063  13.124
25974W        W98289   5.264  35.601   3.709
25975W        W98290  20.822  27.255  12.393
25976W        W98291  39.309  16.199  13.859
25977W        W98292   8.690  10.275  13.881
25978W        W98293  32.301  25.517  12.187
25979W        W98294  21.615  28.646   1.352
25980W        W98295  28.073  39.593   4.798
25981W        W98296  17.178   6.232   3.716
25982W        W98297  10.654  14.385  14.296
25983W        W98298   6.721  28.968  13.422
25984W        W98299  26.975  13.316   4.385
25985W        W98300  36.346  27.872  14.504
25986W        W98301  26.502  11.192  12.527
25987W        W98302   0.960  32.565  12.417
25988W        W98303  30.246   3.759  12.047
25989W        W98304  29.446  41.348  12.061
25990W        W98305  11.201   6.211  10.646
25991W        W98306  42.343  37.631   0.712
25992W        W98307   2.919  29.562   4.324
25993W        W98308  43.886  26.458  12.442
25994W        W98309   4.976  13.279   3.081
25995W        W98310  37.041  38.611   1.345
25996W        W98311  16.656   0.994  12.851
25997W        W98312  19.491  10.623   3.190
25998W        W98313  44.738   5.701  11.622
25999W        W98314  16.856  44.194  12.388
26000W        W98315  31.391  35.503  14.310
26001W        W98316   3.740  11.221   4.104
26002W        W98317  44.325  36.136  12.927
26003W        W98318  21.642   2.993   0.831
26004W        W98319  31.181   7.177   2.258
26005W        W98320   2.435  20.606  12.056
26006W        W98321  13.068   8.769  14.569
26007W        W98322   4.702  37.068  13.885
26008W        W98323  25.558  23.079  10.498
26009W        W98324  17.816  24.731  13.453
26010W        W98325  35.609  35.487  11.007
26011W        W98326  34.943   4.213   0.285
26012W        W98327  29.531  10.930  11.508
26013W        W98328  18.558  19.128  13.960
26014W        W98329  13.611   4.268   0.286
26015W        W98330  39.859  13.091   1.726
26016W        W98331  14.616  10.924  14.965
26017W        W98332  39.090   4.773   0.490
26018W        W98333  14.168  26.912   4.317
26019W        W98334  31.124  42.252   3.175
26020W        W98335  30.795  44.331  12.980
26021W        W98336   4.723  39.337   4.164
26022W        W98337  28.932  44.002   3.776
26023W        W98338   0.065   5.248  14.018
26024W        W98339  23.671   1.245   4.277
26025W        W98340   1.036  20.761   0.517
26026W        W98341  36.915  14.720  11.995
26027W        W98342  13.073  40.507   3.216
26028W        W98343  36.363  36.298  11.580
26029W        W98344  34.608  12.932   0.196
26030W        W98345  25.953  31.647  10.556
26031W        W98346  35.513  10.633   0.376
26032W        W98347  33.954  13.846   2.333
26033W        W98348  28.279  26.010  10.112
26034W        W98349   2.088  25.171   1.402
26035W        W98350  26.884  28.870  14.905
26036W        W98351  40.038  13.411   3.750
26037W        W98352  40.398   4.904   4.099
26038W        W98353  15.673  35.442  12.417
26039W        W98354  31.535  19.304  12.386
26040W        W98355  38.920  14.595  14.857
26041W        W98356  15.815  22.446   4.737
26042W        W98357   8.867  12.303   1.445
26043W        W98358  24.041  17.508   4.697
26044W        W98359  27.126   7.180   2.225
26045W        W98360  25.722  11.745   3.259
26046W        W98361  15.459  14.334   2.243
26047W        W98362  30.990  18.504  13.309
26048W        W98363  35.441  27.846  11.201
26049W        W98364   3.656  28.502   3.263
26050W        W98365  22.195  13.546  13.994
26051W        W98366   6.921  36.049  10.858
26052W        W98367  43.366  37.440   3.154
26053W        W98368  29.333   5.248  12.467
26054W        W98369  25.157   7.664  14.244
26055W        W98370  29.593  35.785   0.018
26056W        W98371   1.010   8.513  11.880
26057W        W98372  33.682  29.552  13.102
26058W        W98373  11.928  13.613  13.965
26059W        W98374  42.368   3.795  13.303
26060W        W98375  25.180  13.272   4.486
26061W        W98376  20.262  16.773  11.997
26062W        W98377  37.671  11.582   2.284
26063W        W98378   0.346  36.146  13.256
26064W        W98379   0.946   8.870  10.641
26065W        W98380  10.748   4.761   2.724
26066W        W98381  11.042  42.594  12.916
26067W        W98382  44.595  27.176  10.746
26068W        W98383  36.152  30.856  12.107
26069W        W98384  24.266  12.084   2.282
26070W        W98385  19.013  20.033   2.247
26071W        W98386  38.832   3.942  12.778
26072W        W98387  10.925  11.098  14.314
26073W        W98388  44.662  31.117  13.143
26074W        W98389  11.383  36.815   0.682
26075W        W98390  32.523  40.721   3.797
26076W        W98391  41.024  10.661   0.364
26077W        W98392   2.360  11.921   2.683
26078W        W98393  44.810   3.449  14.072
26079W        W98394   0.462   7.664  11.037
26080W        W98395   9.812  37.371  10.123
26081W        W98396   9.149   0.384   2.746
26082W        W98397  40.880  15.922  10.813
26083W        W98398  40.395  16.649  14.013
26084W        W98399  28.245  40.288   2.501
26085W        W98400  14.635  36.284  11.974
26086W        W98401  23.025   6.333   2.925
26087W        W98402  40.030  35.398   2.392
26088W        W98403  11.815   0.562  14.811
26089W        W98404  21.576  31.061   2.875
26090W        W98405  21.942  14.251  13.346
26091W        W98406  12.679  20.099  14.912
26092W        W98407   1.986  15.127  13.350
26093W        W98408  11.237  34.426   3.615
26094W        W98409   3.175  34.054   1.222
26095W        W98410   6.194  17.291   4.510
26096W        W98411  22.117  37.880  13.429
26097W        W98412   0.710  11.313  13.711
26098W        W98413  42.798  40.571  13.456
26099W        W98414  34.476  15.783  10.941
26100W        W98415  44.778  40.901   2.275
26101W        W98416  14.299  10.004   4.948
26102W        W98417  19.813  32.094   4.387
26103W        W98418  24.676  18.188   2.434
26104W        W98419  30.517  14.854   0.432
26105W        W98420  14.155   9.301   1.613
26106W        W98421   3.963  25.732   2.899
26107W        W98422   8.136  42.553   4.442
26108W        W98423  26.561   4.327   2.421
26109W        W98424  25.623  31.653   2.629
26110W        W98425  16.201  39.857  14.292
26111W        W98426  28.849  36.720   4.272
26112W        W98427  26.358  21.649  12.086
26113W        W98428  13.035  41.862   1.327
26114W        W98429  17.423  20.707   1.823
26115W        W98430  15.150   9.000  12.217
26116W        W98431   3.967  30.414  11.616
26117W        W98432  25.977   7.540   3.508
26118W        W98433  39.776   0.319  12.740
26119W        W98434  30.224  27.462  10.792
26120W        W98435  40.338   2.863  13.427
26121W        W98436  28.727  29.220  13.605
26122W        W98437  32.287  43.861  12.524
26123W        W98438  32.060  25.213   0.758
26124W        W98439  26.605   4.202  11.132
26125W        W98440  35.603  10.369   0.810
26126W        W98441  43.292  38.455   3.315
26127W        W98442   7.253  21.740   4.976
26128W        W98443   4.164   3.305   1.182
26129W        W98444  41.511   0.024   1.370
26130W        W98445   3.017  11.110   3.433
26131W        W98446  37.859  28.075   3.261
26132W        W98447  15.598  32.969   4.722
26133W        W98448  11.081  12.106  13.714
26134W        W98449  17.034  19.066  13.943
26135W        W98450   8.841  20.618  14.343
26136W        W98451  39.866  38.999   1.353
26137W        W98452  37.180  19.546   3.185
26138W        W98453  36.364   2.025  12.062
26139W        W98454   3.958  31.964  12.506
26140W        W98455  30.418  21.152  11.561
26141W        W98456  25.434  21.115  10.560
26142W        W98457  25.540  29.887   4.352
26143W        W98458  15.679  18.571   1.842
26144W        W98459  43.514  29.462   0.722
26145W        W98460  26.175  29.977   1.278
26146W        W98461   8.234  28.064  12.222
26147W        W98462  14.662  25.033   2.749
26148W        W98463  24.623  21.222  11.183
26149W        W98464  37.915  28.300  14.423
26150W        W98465   9.895  39.429   3.388
26151W        W98466  12.666  25.207  12.636
26152W        W98467  40.477   2.428  14.057
26153W        W98468  10.317   8.224   1.378
26154W        W98469  28.932  39.514   3.322
26155W        W98470  42.689  32.465  13.548
26156W        W98471  29.973  36.873   1.429
26157W        W98472  23.178  14.506  14.219
26158W        W98473  34.019  27.863  13.331
26159W        W98474   7.721  19.032  13.413
26160W        W98475  25.677  31.446  12.034
26161W        W98476  13.259  12.073   1.854
26162W        W98477   2.292   5.899   0.835
26163W        W98478  30.515  16.101  10.813
26164W        W98479  19.258  17.712  11.305
26165W        W98480   1.497  19.564  12.944
26166W        W98481  37.853  41.824   2.247
26167W        W98482  43.329  22.634  13.030
26168W        W98483  14.716   1.803   0.930
26169W        W98484   5.885  35.154  13.000
26170W        W98485   1.846  40.754  11.862
26171W        W98486  32.297  37.063  12.478
26172W        W98487   8.811  14.360   4.873
26173W        W98488  20.145  36.283   0.957
26174W        W98489  36.021  32.502   2.350
26175W        W98490  13.329  37.548   0.862
26176W        W98491  14.982  20.946   2.435
26177W        W98492  11.718  13.661   4.405
26178W        W98493  33.012   3.258  14.073
26179W        W98494   7.975  14.899   0.776
26180W        W98495  11.838  36.237   9.805
26181W        W98496  28.425  10.585  10.432
26182W        W98497  22.310  11.990  11.626
26183W        W98498  32.396  11.203  12.564
26184W        W98499  28.618   2.796   4.301
26185W        W98500   8.845  26.954   2.695
26186W        W98501  35.952  35.845  11.085
26187W        W98502  14.090  37.042  11.861
26188W        W98503  42.920   1.414  10.883
26189W        W98504  35.906  18.103  13.883
26190W        W98505  21.244  11.815   3.751
26191W        W98506   6.126  15.060   4.679
26192W        W98507   8.751   5.743   0.494
26193W        W98508   1.985  38.874   5.181
26194W        W98509  21.492  14.472  13.522
26195W        W98510   9.411   4.345   1.685
26196W        W98511   0.719  22.912   0.771
26197W        W98512  31.897  37.835  13.679
26198W        W98513  40.440  27.179  10.636
26199W        W98514  24.439   5.073  11.527
26200W        W98515  44.909  40.356  13.636
26201W        W98516  12.294  27.456   3.374
26202W        W98517  20.606  14.090   2.829
26203W        W98518  14.204   0.937  12.490
26204W        W98519   0.255   2.220  14.099
26205W        W98520  12.656  28.534  13.037
26206W        W98521  28.521  41.485   1.415
26207W        W98522   7.090  16.085   2.608
26208W        W98523  41.936  34.876   0.676
26209W        W98524  43.272  13.860   1.841
26210W        W98525   8.965  17.158  12.203
26211W        W98526  10.764  21.971   1.684
26212W        W98527  41.568  16.374  12.416
26213W        W98528   0.997   3.964   1.847
26214W        W98529  25.746  18.203  12.904
26215W        W98530   2.950   4.902   3.562
26216W        W98531  44.455  16.206  12.023
26217W        W98532   3.835  15.282  12.551
26218W        W98533   5.144  27.434  13.464
26219W        W98534  36.880   5.661   1.742
26220W        W98535   9.426   4.387  10.386
26221W        W98536  34.941  32.661   0.425
26222W        W98537  17.861  35.404   2.385
26223W        W98538  22.641  23.012   0.755
26224W        W98539  20.810  36.431   4.368
26225W        W98540  37.864  17.385  13.456
26226W        W98541   0.335   0.678  10.513
26227W        W98542  14.273  21.556   1.326
26228W        W98543  40.265  13.192   4.618
26229W        W98544  16.630  22.183  10.494
26230W        W98545  44.542  44.395  10.620
26231W        W98546   4.855   8.404   3.662
26232W        W98547  18.086  18.926   4.575
26233W        W98548  36.111  40.455   3.761
26234W        W98549   0.391  22.289  12.659
26235W        W98550  25.523   5.687   2.431
26236W        W98551  36.077  18.994   4.538
26237W        W98552  17.153  23.565  10.059
26238W        W98553  29.132  42.610  11.762
26239W        W98554  13.921  13.122   0.393
26240W        W98555   5.908  40.381   2.791
26241W        W98556  14.573  14.797   4.270
26242W        W98557  27.929  10.669   4.253
26243W        W98558   7.170   3.340  11.163
26244W        W98559  36.782  25.080   9.686
26245W        W98560  17.671  34.104  12.920
26246W        W98561   3.190   2.279   4.196
26247W        W98562  25.471  36.221  13.307
26248W        W98563  27.582   8.287  10.501
26249W        W98564  41.420  25.842   0.263
26250W        W98565   3.389  12.641   2.788
26251W        W98566  30.350  42.381  12.374
26252W        W98567   9.718  30.988   2.309
26253W        W98568  35.491   4.765  12.913
26254W        W98569  25.126   7.723   0.162
26255W        W98570  32.584  10.814   4.888
26256W        W98571   3.877  39.938   0.019
26257W        W98572  37.726  15.588   0.465
26258W        W98573   4.655   6.923   0.823
26259W        W98574  23.478  44.573  12.558
26260W        W98575   9.326   9.431  11.221
26261W        W98576  40.462  24.987  13.770
26262W        W98577  10.801  18.038   0.201
26263W        W98578  25.048  23.770  13.310
26264W        W98579  24.742  33.433   3.380
26265W        W98580  18.683  28.452  14.393
26266W        W98581  11.868   1.525  11.935
26267W        W98582   7.317  11.296   4.220
26268W        W98583  42.550   9.202  14.867
26269W        W98584   3.289  27.644  13.660
26270W        W98585  11.812  36.222   0.118
26271W        W98586  34.541   3.480  10.776
26272W        W98587  13.751  17.526   3.126
26273W        W98588  26.015  44.470  14.367
26274W        W98589  34.171  42.694  11.478
26275W        W98590  10.353   2.195  14.443
26276W        W98591  14.866  33.037   2.608
26277W        W98592   2.920  44.207  14.463
26278W        W98593   6.155  13.760  10.358
26279W        W98594  14.219  39.754  14.048
26280W        W98595  32.375  24.038   1.619
26281W        W98596   7.291  30.677   5.139
26282W        W98597  25.546  13.346   1.288
26283W        W98598  26.611  32.742  11.254
26284W        W98599  23.077  22.769  13.651
26285W        W98600   9.400   0.199   0.352
26286W        W98601  44.753  15.796   4.686
26287W        W98602  18.783   9.310  10.938
26288W        W98603  39.715  37.303  14.717
26289W        W98604   8.109  35.376  14.567
26290W        W98605  19.728   8.218   3.224
26291W        W98606  39.139  29.936  13.920
26292W        W98607   5.246  23.740   4.181
26293W        W98608  14.701  41.407  10.709
26294W        W98609  44.255  14.678   1.352
26295W        W98610  22.055  21.380   5.120
26296W        W98611  43.235  23.024   3.096
26297W        W98612  24.070  15.925  13.781
26298W        W98613  21.434  23.794  14.476
26299W        W98614  35.152  44.181   3.217
26300W        W98615  42.165  41.768   0.536
26301W        W98616  13.303  18.546   4.507
26302W        W98617  22.562  33.640   4.589
26303W        W98618  32.580  41.767   1.284
26304W        W98619   8.204  43.415  12.567
26305W        W98620   9.471  27.055  13.875
26306W        W98621  36.058  20.997   1.335
26307W        W98622  34.446   0.656  12.020
26308W        W98623   2.702  20.654  14.272
26309W        W98624  14.690  27.453  13.550
26310W        W98625   3.075  35.330  13.498
26311W        W98626  42.503  32.931  13.472
26312W        W98627  33.121  32.476   2.411
26313W        W98628   4.544  38.911   0.161
26314W        W98629   6.477  40.804   1.894
26315W        W98630  15.907  17.526   1.816
26316W        W98631  17.502  30.065   4.161
26317W        W98632   0.493  33.515  14.943
26318W        W98633  34.865  41.065  11.009
26319W        W98634  23.141  18.610  12.299
26320W        W98635  43.766  37.606   2.794
26321W        W98636  28.247  22.845   0.400
26322W        W98637  44.308  29.678  11.028
26323W        W98638  34.905  12.895  13.527
26324W        W98639  25.293  11.195  11.168
26325W        W98640  24.198  13.637  13.517
26326W        W98641  22.982  29.074   0.220
26327W        W98642  32.843  14.736   0.038
26328W        W98643  10.717  18.637  12.082
26329W        W98644  23.155  40.075  10.782
26330W        W98645  36.421  39.888  13.029
26331W        W98646  28.080   5.656   5.835
26332W        W98647   1.748   0.294   0.418
26333W        W98648   0.824  14.531  14.866
26334W        W98649   5.484  42.548   0.207
26335W        W98650   4.104   0.590  10.167
26336W        W98651   5.980  34.512   1.251
26337W        W98652  21.416  34.471   0.392
26338W        W98653   6.900  10.822   0.325
26339W        W98654  24.934  38.329   1.778
26340W        W98655  14.705  22.730   3.429
26341W        W98656  22.514  15.631  11.335
26342W        W98657  25.569  38.599   5.241
26343W        W98658  28.645  35.599  12.673
26344W        W98659  31.055  39.125   1.029
26345W        W98660  43.382  39.338   0.373
26346W        W98661  43.287   0.925   3.063
26347W        W98662  35.605  20.619  14.800
26348W        W98663   2.791  16.524   3.302
26349W        W98664  28.667  43.913   3.330
26350W        W98665  11.260  15.969  10.073
26351W        W98666  29.994   0.080  12.888
26352W        W98667  20.418   0.402   4.013
26353W        W98668  24.676   7.849   2.815
26354W        W98669  28.159  19.291   3.797
26355W        W98670  32.755  18.828  11.139
26356W        W98671  20.708  43.807   3.645
26357W        W98672  25.985   7.707  11.396
26358W        W98673  12.596  36.101  11.106
26359W        W98674  20.923  37.083   4.272
26360W        W98675  36.059  27.626  13.450
26361W        W98676  42.799  17.664   4.233
26362W        W98677  38.751  36.326   4.867
26363W        W98678   6.801  33.366   0.881
26364W        W98679   8.292  30.204   0.950
26365W        W98680  14.706  42.883   0.062
26366W        W98681  22.820  23.605  10.117
26367W        W98682  28.662  11.287   3.210
26368W        W98683   2.805  44.152  13.052
26369W        W98684  20.703  19.055   0.454
26370W        W98685  20.787  41.883   0.028
26371W        W98686  41.296  36.711   3.759
26372W        W98687  36.835  31.785   3.672
26373W        W98688  31.889   0.934   4.169
26374W        W98689  41.927  14.325   1.009
26375W        W98690  10.123  35.991   1.480
26376W        W98691  35.914  36.933  13.094
26377W        W98692  39.214   4.753  10.753
26378W        W98693  17.492  34.358   4.912
26379W        W98694  30.105  31.556  13.010
26380W        W98695  42.891   6.707   1.803
26381W        W98696  17.334  41.770  14.909
26382W        W98697  11.179  23.229   3.723
26383W        W98698  10.441   7.793   0.271
26384W        W98699   7.464   8.151  13.314
26385W        W98700  19.044  24.217   3.385
26386W        W98701  31.852  16.557  14.030
26387W        W98702  19.756  39.439   3.826
26388W        W98703  23.824   6.774   0.856
26389W        W98704   4.700  25.572  13.912
26390W        W98705  12.677   9.895   2.303
26391W        W98706  41.422  28.666   4.414
26392W        W98707  13.796   6.079  14.481
26393W        W98708  24.423  40.605  11.675
26394W        W98709  16.116  15.944  14.058
26395W        W98710  43.262  41.985   0.443
26396W        W98711  33.999   2.762   3.661
26397W        W98712  29.637  11.920  13.867
26398W        W98713  38.024  15.381   4.626
26399W        W98714  12.397  36.032  11.603
26400W        W98715   8.507  42.090  11.961
26401W        W98716  23.027  22.496   3.606
26402W        W98717   7.679  15.778  14.876
26403W        W98718  22.654  39.759   2.306
26404W        W98719  16.652  28.561   4.535
26405W        W98720  22.498  32.062  10.991
26406W        W98721  41.453   1.481  12.588
26407W        W98722  33.886  26.109   0.822
26408W        W98723  39.092  29.950  10.678
26409W        W98724  16.569  38.032   3.209
26410W        W98725   6.856  27.648   3.559
26411W        W98726  12.178   8.100  12.754
26412W        W98727  26.027  42.232  14.832
26413W        W98728  17.997  40.930   4.688
26414W        W98729  34.917  30.542   1.890
26415W        W98730  33.527  30.726   4.191
26416W        W98731  12.629  42.980   4.229
26417W        W98732   6.431  29.009   3.875
26418W        W98733  37.576  22.130  14.100
26419W        W98734  35.404  41.856  14.968
26420W        W98735  12.594  27.087   3.104
26421W        W98736  24.470  17.121  12.362
26422W        W98737  29.695  37.113   3.271
26423W        W98738  36.336  35.595  11.965
26424W        W98739   4.814  27.682  14.734
26425W        W98740  24.701  27.587   1.776
26426W        W98741  36.825   8.199  13.862
26427W        W98742  32.213  15.575   5.211
26428W        W98743  42.987  20.304  12.136
26429W        W98744  25.536  25.967   1.692
26430W        W98745  18.543  20.842   1.800
26431W        W98746   3.589  35.470  13.399
26432W        W98747  14.507  31.792   4.163
26433W        W98748  17.553   8.191  14.199
26434W        W98749   2.554   7.221   2.898
26435W        W98750  29.199  17.514  12.497
26436W        W98751  27.256  28.719  12.402
26437W        W98752  17.061  40.423   1.741
26438W        W98753  25.037   6.233   0.778
26439W        W98754  22.688  37.588   1.439
26440W        W98755  12.132  43.880   1.972
26441W        W98756  41.399  13.653  11.085
26442W        W98757  27.666  20.078   3.753
26443W        W98758   2.099  33.082  14.398
26444W        W98759  34.889  26.567   0.461
26445W        W98760  33.673  28.431   2.353
26446W        W98761  19.986  19.379  14.236
26447W        W98762   2.288   9.725   0.286
26448W        W98763   5.646  31.018   3.196
26449W        W98764  22.222  38.956   2.276
26450W        W98765  20.994   7.792  12.882
26451W        W98766  24.436  11.353  13.611
26452W        W98767  22.996  22.714  12.323
26453W        W98768  38.616   9.244   4.264
26454W        W98769  28.373  41.427  13.539
26455W        W98770  31.568  27.613  14.971
26456W        W98771  37.091  40.997  12.823
26457W        W98772  10.965  40.978   2.358
26458W        W98773  17.580  11.195   2.182
26459W        W98774  19.287  11.699   5.023
26460W        W98775  22.993  44.028   2.316
26461W        W98776  26.484  39.708  14.397
26462W        W98777  29.646  14.104   2.725
26463W        W98778   2.756  20.579   3.342
26464W        W98779  20.342  38.214   2.080
26465W        W98780  11.267   8.311  12.677
26466W        W98781  10.652   8.333  11.204
26467W        W98782  25.866  34.914  14.893
26468W        W98783  24.367  30.970   4.153
26469W        W98784   0.025  39.328  14.927
26470W        W98785   3.521  35.898   1.398
26471W        W98786  14.735   7.352   2.149
26472W        W98787  12.576  38.445   1.946
26473W        W98788  23.236  35.959  11.654
26474W        W98789   5.915   5.407   0.939
26475W        W98790  15.753   3.830   0.359
26476W        W98791   2.475  38.555   4.485
26477W        W98792  22.601  18.131  13.276
26478W        W98793  37.004   2.789  12.940
26479W        W98794   7.394  43.425   0.150
26480W        W98795  30.652  28.499  11.157
26481W        W98796  43.004  17.543  11.962
26482W        W98797   9.912  14.324   1.910
26483W        W98798  37.941  18.041  14.273
26484W        W98799  34.638   1.454  12.495
26485W        W98800  38.968  20.809   0.763
26486W        W98801  23.580  21.948   4.175
26487W        W98802  17.600   9.213   4.843
26488W        W98803   0.153  32.367  12.970
26489W        W98804  22.481  43.301   0.861
26490W        W98805  21.526  27.556  11.972
26491W        W98806  12.607  36.865  13.592
26492W        W98807  35.082   6.909  14.433
26493W        W98808  26.544   2.058   2.420
26494W        W98809   9.887  18.677  10.206
26495W        W98810  27.818  16.596   4.434
26496W        W98811   1.124  33.882   4.153
26497W        W98812  13.962  35.585  14.613
26498W        W98813  16.622  44.612  14.192
26499W        W98814  25.045  28.698   2.288
26500W        W98815   0.254  34.374  10.580
26501W        W98816  40.883  43.038   2.296
26502W        W98817   0.906  39.412   3.351
26503W        W98818  33.046  37.833  12.639
26504W        W98819   0.440  40.206   0.464
26505W        W98820   1.939   8.186  12.444
26506W        W98821  44.931   1.639   4.755
26507W        W98822   0.783  21.214  10.887
26508W        W98823   2.984  23.609   1.163
26509W        W98824  31.921  35.142  13.111
26510W        W98825   9.802  27.000   2.479
26511W        W98826  40.982  20.091   1.958
26512W        W98827  30.911  37.043   1.610
26513W        W98828  19.091  17.854   2.628
26514W        W98829  18.355  44.204   2.285
26515W        W98830  44.778   9.366   5.013
26516W        W98831  40.925  30.632  13.707
26517W        W98832   9.796  10.068   2.161
26518W        W98833   2.357  36.127  10.691
26519W        W98834  32.918  18.567   4.159
26520W        W98835  31.518  37.202  11.959
26521W        W98836  43.432  29.911  13.473
26522W        W98837   9.250  32.965   1.231
26523W        W98838  23.939   4.956   2.246
26524W        W98839  21.228  22.564  12.303
26525W        W98840  23.581  12.502  13.402
26526W        W98841  33.136   8.931   5.094
26527W        W98842   5.955  35.529  12.104
26528W        W98843  43.381  11.265   9.917
26529W        W98844  32.550  18.346  11.078
26530W        W98845  37.027  42.970   4.368
26531W        W98846  43.938  27.631   1.783
26532W        W98847  16.266  44.657   2.304
26533W        W98848   4.658   5.272   1.869
26534W        W98849  34.845   6.745   0.872
26535W        W98850  34.852   7.211  14.827
26536W        W98851  12.680  15.347   4.677
26537W        W98852  24.705  33.450  12.920
26538W        W98853   9.696  39.507  14.275
26539W        W98854  36.422  37.126  12.356
26540W        W98855  11.236  40.264   1.737
26541W        W98856   1.886   8.662   1.271
26542W        W98857  39.580  41.602  11.296
26543W        W98858  42.895  30.899  10.408
26544W        W98859  40.916  30.891   4.328
26545W        W98860   1.879   3.373   1.823
26546W        W98861  43.053   9.379  14.868
26547W        W98862   6.887  20.647   4.428
26548W        W98863  37.426  12.144   1.434
26549W        W98864  38.124   4.234   2.735
26550W        W98865  38.134  36.812   1.326
26551W        W98866  19.540  29.954  14.738
26552W        W98867  17.342   8.737  11.558
26553W        W98868  21.147  17.342  11.212
26554W        W98869  18.020  23.472   2.132
26555W        W98870  39.421   5.913   4.811
26556W        W98871  30.909  11.121   2.306
26557W        W98872  36.499  11.276   0.586
26558W        W98873  25.176  20.490   5.107
26559W        W98874   8.865  33.928   3.639
26560W        W98875  34.014  32.133  14.529
26561W        W98876  30.908  24.561  11.444
26562W        W98877  27.972  35.055  13.863
26563W        W98878  30.904  24.468   4.117
26564W        W98879  18.570  27.530   2.624
26565W        W98880   9.868   2.746  10.557
26566W        W98881  19.048  39.885   1.430
26567W        W98882  28.777  37.279  12.799
26568W        W98883  20.800  15.049   2.654
26569W        W98884  13.866   4.870  13.292
26570W        W98885  26.552  32.148   1.679
26571W        W98886   5.326  13.435   3.433
26572W        W98887  22.999   7.217  13.306
26573W        W98888   6.301  16.807  13.812
26574W        W98889  38.953   8.729  11.535
26575W        W98890   3.514  16.621   1.410
26576W        W98891   0.558  15.816  14.400
26577W        W98892  30.195  29.240   1.308
26578W        W98893  39.012  28.622  11.199
26579W        W98894  18.938  40.483  12.864
26580W        W98895  43.381   1.930   3.386
26581W        W98896  23.005  31.311  11.447
26582W        W98897  12.739   7.709   4.135
26583W        W98898  17.094  44.579  12.012
26584W        W98899  43.940   7.504  12.991
26585W        W98900  42.500   5.307   3.347
26586W        W98901  22.584   4.795  14.784
26587W        W98902  40.530  13.323   1.367
26588W        W98903  23.623  29.486   2.812
26589W        W98904  35.052  16.499   4.177
26590W        W98905   4.900  21.656  12.155
26591W        W98906  35.416   6.321  10.653
26592W        W98907   8.650  33.013  12.961
26593W        W98908  15.745  16.712  11.435
26594W        W98909  35.247  10.801   2.966
26595W        W98910  11.670  12.749   4.687
26596W        W98911  14.856  28.699  11.386
26597W        W98912  32.599  36.929  12.972
26598W        W98913   6.112   9.715   0.653
26599W        W98914  13.363  39.303  10.593
26600W        W98915  40.357  35.118  12.936
26601W        W98916  43.795  14.140   4.570
26602W        W98917  23.064  28.866   2.272
26603W        W98918  33.386  15.326   1.940
26604W        W98919  20.305  12.564  12.875
26605W        W98920  18.500  27.172   1.392
26606W        W98921   1.814  25.019  10.453
26607W        W98922  21.222  43.527  14.603
26608W        W98923  24.140  31.719  12.951
26609W        W98924  14.550  25.627   2.792
26610W        W98925  29.614   3.688  14.000
26611W        W98926  32.414  36.307  13.633
26612W        W98927  23.010  19.446  10.216
26613W        W98928   2.930  24.856   1.434
26614W        W98929  24.447  13.572  10.904
26615W        W98930  41.136  38.843   0.466
26616W        W98931  18.764  39.226   3.250
26617W        W98932  34.586  31.088   0.951
26618W        W98933  41.251  42.883   4.621
26619W        W98934  31.902  26.005  11.600
26620W        W98935  34.427   3.337   2.617
26621W        W98936   3.118  13.411  11.084
26622W        W98937  25.217  18.162  11.209
26623W        W98938  19.077  44.364   4.655
26624W        W98939  40.787   7.833   4.389
26625W        W98940  21.959  42.481  12.161
26626W        W98941  31.607  19.211  10.932
26627W        W98942  31.136  37.423  14.311
26628W        W98943  13.350  25.072  10.824
26629W        W98944  39.040   5.082  12.438
26630W        W98945  14.076  24.625  14.813
26631W        W98946  33.585  29.602  10.416
26632W        W98947  13.347  39.436   1.486
26633W        W98948   8.697  18.788   0.316
26634W        W98949  20.280   9.342   3.278
26635W        W98950  13.812  20.987  13.967
26636W        W98951  27.204  19.044  11.613
26637W        W98952  20.155  40.392  11.144
26638W        W98953  20.810  35.059  14.482
26639W        W98954  22.471  39.349   2.038
26640W        W98955  14.569   1.466   1.407
26641W        W98956  16.170  24.151   4.596
26642W        W98957  28.008  44.609  14.840
26643W        W98958  17.074  16.645  14.996
26644W        W98959  20.737  35.514  14.766
26645W        W98960  32.227  13.765   0.844
26646W        W98961  24.982  25.884  14.517
26647W        W98962  37.579  29.057   0.162
26648W        W98963  30.690  10.727  13.651
26649W        W98964  16.080   9.153  13.115
26650W        W98965   3.291  21.720   4.377
26651W        W98966  23.088   0.892   2.612
26652W        W98967  26.268  26.091  14.882
26653W        W98968  42.553  15.657   1.415
26654W        W98969  15.854   1.490  14.908
26655W        W98970  38.817  40.426   2.162
26656W        W98971  41.770  36.393  10.937
26657W        W98972  40.919  21.884   0.571
26658W        W98973   1.706  18.989   3.750
26659W        W98974   3.452  20.256  10.686
26660W        W98975  42.569  21.967   4.130
26661W        W98976  16.068  12.290  11.566
26662W        W98977  13.496  26.480  14.982
26663W        W98978   5.302  17.934  10.729
26664W        W98979   6.655  16.587  12.025
26665W        W98980  23.451  30.121   0.425
26666W        W98981  14.677   9.888  10.956
26667W        W98982  29.429   4.647  14.086
26668W        W98983  24.056  15.027   0.422
26669W        W98984  34.596  33.853   0.386
26670W        W98985  44.492  16.761  11.202
26671W        W98986   3.895  19.363  11.615
26672W        W98987  28.860   3.577   3.215
26673W        W98988   8.358  11.903  11.582
26674W        W98989  23.459  12.667  10.710
26675W        W98990  34.899   7.261  10.974
26676W        W98991  13.600   7.993   1.687
26677W        W98992   3.544  29.552  10.807
26678W        W98993  43.090  17.810   4.638
26679W        W98994  14.380  26.143   4.701
26680W        W98995  10.527  27.396   3.811
26681W        W98996  38.414  19.033   0.210
26682W        W98997   1.849  42.617   3.132
26683W        W98998  18.002   0.762  12.340
26684W        W98999  20.672  20.664  14.933
26685W        W99000   0.317   1.174  10.666
26686W        W99001  27.011  15.526  11.639
26687W        W99002  21.067  44.693  12.521
26688W        W99003   8.184  18.095  13.322
26689W        W99004   9.792  41.572   3.219
26690W        W99005  41.292  38.208  11.551
26691W        W99006  26.203  35.804   3.727
26692W        W99007  28.188  14.607  10.341
26693W        W99008   9.882  15.249   3.322
26694W        W99009  21.955  29.099  11.587
26695W        W99010  39.293  30.694   0.851
26696W        W99011  27.225   9.605   3.627
26697W        W99012  31.897  12.326  14.883
26698W        W99013  21.210  34.615   3.165
26699W        W99014  34.667   6.892  11.666
26700W        W99015  43.802  15.739  14.553
26701W        W99016   2.860  10.876  10.865
26702W        W99017  32.944  17.436  10.657
26703W        W99018   4.489   9.561   3.803
26704W        W99019  33.864  41.042   0.823
26705W        W99020  32.125   7.436   0.174
26706W        W99021  13.425  23.983   1.920
26707W        W99022  16.764  18.075   9.833
26708W        W99023  43.713   9.745   1.361
26709W        W99024  14.069  28.554   4.670
26710W        W99025   9.741   0.454  12.616
26711W        W99026  21.706  38.522   0.080
26712W        W99027   6.343  26.752   3.934
26713W        W99028  37.962  31.170  11.046
26714W        W99029  17.595   3.551  14.933
26715W        W99030  30.563  18.663  14.954
26716W        W99031   7.949  20.483   1.263
26717W        W99032  31.953  11.665  13.771
26718W        W99033  28.056  17.802  13.409
26719W        W99034  25.985   4.452  12.411
26720W        W99035  12.165  35.826  12.920
26721W        W99036  28.953  42.587   1.475
26722W        W99037  15.655  19.057   0.876
26723W        W99038  39.203   8.527  10.076
26724W        W99039  30.156  17.172   3.297
26725W        W99040  32.451  41.010  13.870
26726W        W99041   5.940   0.908  13.002
26727W        W99042   8.398   0.784  13.965
26728W        W99043  42.810  16.028  11.126
26729W        W99044  24.080  38.771  11.896
26730W        W99045  20.883   9.329   5.040
26731W        W99046  43.443  19.676   0.172
26732W        W99047  16.200  44.418   1.491
26733W        W99048  26.448  37.074  13.043
26734W        W99049  13.615  21.325   4.700
26735W        W99050  26.645   7.283  10.107
26736W        W99051  28.593  11.359  13.814
26737W        W99052   1.928  39.584  10.559
26738W        W99053   3.994   3.038   3.370
26739W        W99054   5.903  37.323   3.258
26740W        W99055  24.847  42.398  12.334
26741W        W99056   4.184  17.080  14.349
26742W        W99057  38.202  44.901   2.778
26743W        W99058  29.595  41.894  10.624
26744W        W99059  34.610  10.313  14.486
26745W        W99060   6.434  18.773  10.753
26746W        W99061   2.435  16.883   5.060
26747W        W99062  35.531  29.630   2.549
26748W        W99063  19.260   7.645   4.294
26749W        W99064   2.150  18.151  13.944
26750W        W99065  31.484   7.940   1.802
26751W        W99066  39.981  12.526  10.649
26752W        W99067   7.217  35.749  11.647
26753W        W99068  36.658  22.591  10.671
26754W        W99069  20.760  33.885   1.891
26755W        W99070  44.530  17.359  13.565
26756W        W99071  41.889  26.912  10.437
26757W        W99072  27.814  26.627   4.558
26758W        W99073  42.547  37.030  12.396
26759W        W99074  27.193  14.961   3.182
26760W        W99075  40.306  20.705  13.940
26761W        W99076  28.431  18.086  10.943
26762W        W99077   6.946  36.161   3.540
26763W        W99078   4.033  22.602  12.745
26764W        W99079   7.892   4.748  11.730
26765W        W99080   2.322  33.077   4.597
26766W        W99081  27.188  15.695  14.022
26767W        W99082  29.229  28.605  10.701
26768W        W99083   6.889  40.410  11.275
26769W        W99084  43.488  32.641  14.571
26770W        W99085   2.935  10.650  12.340
26771W        W99086   5.597   4.859  13.348
26772W        W99087  24.030  38.448  13.899
26773W        W99088   0.868  20.137  11.894
26774W        W99089   2.155  28.000  14.487
26775W        W99090  37.816  30.864   0.748
26776W        W99091  22.309   6.432   0.420
26777W        W99092  18.625  36.921  12.832
26778W        W99093  20.601   8.851   0.198
26779W        W99094  40.802  31.004   2.428
26780W        W99095  18.990  44.952   1.965
26781W        W99096   3.654  16.228   1.785
26782W        W99097  25.590  38.133  14.249
26783W        W99098  42.115   7.138   3.717
26784W        W99099  14.660  24.958   1.903
26785W        W99100  41.566  14.617   5.007
26786W        W99101  31.147   7.184  12.343
26787W        W99102  10.605  34.375   0.440
26788W        W99103  10.465  17.609   4.363
26789W        W99104  25.057  25.245  12.629
26790W        W99105  22.838  13.411  11.647
26791W        W99106   2.921  24.155  11.829
26792W        W99107  12.317  11.140  14.988
26793W        W99108  10.660  25.782  14.489
26794W        W99109   2.809  20.616  13.309
26795W        W99110  17.745   4.013   2.298
26796W        W99111  33.032  12.723   3.341
26797W        W99112  42.940  43.013   0.028
26798W        W99113  28.123  31.965   3.966
26799W        W99114  37.973  27.378  11.887
26800W        W99115  31.512  28.346  14.304
26801W        W99116   0.650   6.987   3.552
26802W        W99117  23.545  32.180   2.869
26803W        W99118  21.142  22.085   1.149
26804W        W99119  35.677   8.404  14.867
26805W        W99120  32.905  35.272  10.733
26806W        W99121  17.603   3.243   3.687
26807W        W99122  40.733  18.285  10.484
26808W        W99123  37.373  17.560  13.568
26809W        W99124  31.048  38.558  11.170
26810W        W99125   0.575  19.644   0.734
26811W        W99126  15.810  29.159   1.444
26812W        W99127   4.354  38.448  14.255
26813W        W99128  30.483  24.942   1.018
26814W        W99129  21.529   0.403  13.322
26815W        W99130   8.468  33.841   4.553
26816W        W99131   0.871  35.553   0.531
26817W        W99132   7.512  44.558   4.127
26818W        W99133  42.489   4.912   0.484
26819W        W99134  20.495  23.564  12.628
26820W        W99135  30.832  37.605  10.600
26821W        W99136   8.709   8.210   1.210
26822W        W99137  26.689  41.622   1.799
26823W        W99138   6.196  30.121  12.461
26824W        W99139  39.316  25.523   1.536
26825W        W99140  29.105  24.766  13.514
26826W        W99141  37.377  28.248   4.185
26827W        W99142  30.416  33.804   0.359
26828W        W99143   2.734  16.070   1.779
26829W        W99144  35.353   4.235   3.184
26830W        W99145  21.261  21.765  11.170
26831W        W99146  10.615   8.282   0.331
26832W        W99147  43.888  14.727   4.367
26833W        W99148  36.687   4.707   4.383
26834W        W99149   9.585  34.420  14.478
26835W        W99150   4.483  41.553  10.287
26836W        W99151  12.685  32.194   4.775
26837W        W99152  34.151  17.490   4.927
26838W        W99153  40.305  32.535  10.582
26839W        W99154  17.719  41.049  12.478
26840W        W99155  14.855  40.470   3.280
26841W        W99156  25.472  34.118  13.604
26842W        W99157  33.559   7.278  10.257
26843W        W99158   8.463  42.998  11.950
26844W        W99159   7.963  43.357   0.234
26845W        W99160   9.783   2.000   2.356
26846W        W99161  11.577   2.018   2.692
26847W        W99162  31.481   8.075  12.024
26848W        W99163  12.600  31.418  14.001
26849W        W99164  27.720  28.852   0.845
26850W        W99165  27.740   1.054   0.678
26851W        W99166  21.037  42.556   4.653
26852W        W99167  43.376  36.473   0.820
26853W        W99168   9.314  20.587   0.307
26854W        W99169  40.798  24.137   0.658
26855W        W99170  20.122  32.134  10.169
26856W        W99171   5.462  37.582   3.221
26857W        W99172   5.098  42.741  14.806
26858W        W99173  43.286  34.855   1.613
26859W        W99174  39.504  17.506  12.931
26860W        W99175  39.526  37.561   1.272
26861W        W99176  37.308  36.556   1.968
26862W        W99177  16.079  24.088  12.793
26863W        W99178  14.320  32.070   4.911
26864W        W99179   5.667  44.424  12.120
26865W        W99180  16.991  34.314  11.044
26866W        W99181  28.791  33.035   3.549
26867W        W99182  15.552  31.257  12.121
26868W        W99183  37.857  10.008   3.133
26869W        W99184  31.468  43.946   4.149
26870W        W99185  22.260  14.093   2.249
26871W        W99186  15.557  15.857   3.307
26872W        W99187  39.156  11.699  10.847
26873W        W99188  32.951  32.418   1.118
26874W        W99189  32.348  12.564   4.044
26875W        W99190  29.483  32.837  14.323
26876W        W99191  12.865  23.788  11.275
26877W        W99192  20.051  14.253   2.254
26878W        W99193   6.888  29.047  14.020
26879W        W99194  17.124   9.653  14.832
26880W        W99195  29.096  15.761  13.593
26881W        W99196  28.254  36.683  12.997
26882W        W99197  27.890  31.517   1.184
26883W        W99198  23.268  11.992   2.353
26884W        W99199  12.730  15.525  14.479
26885W        W99200  42.466  13.298  12.299
26886W        W99201   0.327  37.478  12.783
26887W        W99202  28.019  39.545  11.298
26888W        W99203  39.961  15.403  12.425
26889W        W99204   0.260  37.158   0.914
26890W        W99205  22.539  31.547   4.346
26891W        W99206   7.174   8.252   1.284
26892W        W99207  43.463   9.817   0.902
26893W        W99208  42.918  31.962  10.933
26894W        W99209  12.607  10.831  13.052
26895W        W99210   6.650  30.897   4.127
26896W        W99211   3.807   3.528   0.836
26897W        W99212   2.776  30.656   1.164
26898W        W99213  26.216  37.066  10.536
26899W        W99214  18.044  26.921   3.178
26900W        W99215  24.637  11.773   0.451
26901W        W99216  30.109   1.090   3.742
26902W        W99217   1.238   2.679  10.619
26903W        W99218  38.022  40.487  12.933
26904W        W99219  19.036  34.182  13.464
26905W        W99220   1.481  42.837  13.795
26906W        W99221  39.933  28.340   0.740
26907W        W99222  41.842  14.836  11.661
26908W        W99223  17.131  28.616   3.788
26909W        W99224  31.668  34.098  11.851
26910W        W99225  32.236  36.464  14.067
26911W        W99226  33.589  36.438  14.435
26912W        W99227   6.023  38.531  13.340
26913W        W99228  30.408  34.626  11.566
26914W        W99229  26.624  44.710   0.414
26915W        W99230   4.240  32.519   2.411
26916W        W99231  32.623  16.539   2.770
26917W        W99232  37.898  41.995   2.761
26918W        W99233   3.434  19.547  13.852
26919W        W99234  42.053  24.711   1.988
26920W        W99235  40.156  29.428   1.807
26921W        W99236  26.706   4.217  10.178
26922W        W99237  23.018  29.463  14.824
26923W        W99238  17.672   2.999   4.238
26924W        W99239  44.982   1.308  12.073
26925W        W99240  30.122  43.428   4.236
26926W        W99241  26.961  21.567  12.918
26927W        W99242   9.623   9.219   2.685
26928W        W99243  31.689  17.774  13.316
26929W        W99244  27.480  41.830   2.213
26930W        W99245  36.247  31.878   4.210
26931W        W99246  38.845  16.331   2.685
26932W        W99247  16.686  35.929   1.652
26933W        W99248  17.294  16.151   3.228
26934W        W99249  12.625  29.040  10.650
26935W        W99250  44.633  30.986  10.205
26936W        W99251  22.481   4.655   4.901
26937W        W99252   4.388  33.552  10.633
26938W        W99253   7.712  32.912  13.333
26939W        W99254  44.557  40.730  13.811
26940W        W99255  39.766   1.874   0.412
26941W        W99256  12.610  12.852  11.110
26942W        W99257  20.753  11.172   3.191
26943W        W99258  43.380  27.550  14.820
26944W        W99259  16.658  18.481   3.778
26945W        W99260  20.609  43.792   1.190
26946W        W99261  40.798  12.467   4.641
26947W        W99262   1.435   7.853   4.695
26948W        W99263   5.972  18.066   3.384
26949W        W99264  37.091  36.106  10.335
26950W        W99265  41.362  37.485   0.825
26951W        W99266  39.234  12.675   3.926
26952W        W99267  23.089   9.396   4.205
26953W        W99268   0.341  24.655   0.761
26954W        W99269  33.342   1.242  12.926
26955W        W99270  29.455  25.526  10.753
26956W        W99271  13.753  10.910   4.360
26957W        W99272  27.192  30.407  12.863
26958W        W99273  23.583  43.426   0.017
26959W        W99274  29.766  25.488  13.971
26960W        W99275  44.257  37.158  14.311
26961W        W99276   3.769  36.435   1.171
26962W        W99277  11.529  19.889   5.207
26963W        W99278  38.630  42.948  12.806
26964W        W99279  24.032  19.000  13.659
26965W        W99280  37.393   2.921  13.279
26966W        W99281  35.947  23.294  10.715
26967W        W99282  32.149  35.992   0.901
26968W        W99283  33.776  17.612   3.612
26969W        W99284  22.724  28.569   0.335
26970W        W99285  41.784  21.229   2.702
26971W        W99286  40.529  19.102  10.416
26972W        W99287  21.582  40.743   4.628
26973W        W99288  31.922  24.337   0.260
26974W        W99289  29.311  29.925  12.495
26975W        W99290  10.756  16.048   4.206
26976W        W99291  32.458  27.454   0.877
26977W        W99292  26.155  15.124  10.779
26978W        W99293  27.455   5.463  10.697
26979W        W99294   5.760  30.393   4.315
26980W        W99295  28.417  10.389   1.174
26981W        W99296  10.893  23.737   2.150
26982W        W99297  39.408   3.406   4.542
26983W        W99298  15.071  23.115   0.303
26984W        W99299  40.923  41.981   1.681
26985W        W99300  42.205  24.472   4.001
26986W        W99301  22.831  20.169   2.910
26987W        W99302  28.739  25.232   4.612
26988W        W99303  42.064  39.436   3.708
26989W        W99304   1.814  12.101   1.469
26990W        W99305  20.076   3.510  11.144
26991W        W99306  41.205  24.206  10.661
26992W        W99307   9.520  42.040  13.051
26993W        W99308  27.069   5.406  12.789
26994W        W99309   8.249  29.738  14.423
26995W        W99310   0.986  25.616  13.932
26996W        W99311  40.235  38.106   2.131
26997W        W99312  12.392  40.566  12.508
26998W        W99313  33.395  34.965  11.993
26999W        W99314  30.408  23.802  11.287
27000W        W99315  24.709   2.267  13.342
27001W        W99316  35.341   2.609   4.507
27002W        W99317  32.716  33.650   0.419
27003W        W99318   9.283  37.288   1.390
27004W        W99319  24.615  25.547   4.844
27005W        W99320  20.625   2.989  12.438
27006W        W99321  26.223  12.365  10.597
27007W        W99322   3.305  41.096  13.711
27008W        W99323   3.141  22.404  12.360
27009W        W99324  44.942  22.991  14.885
27010W        W99325   8.764  44.033   3.746
27011W        W99326  39.591  22.508  14.320
27012W        W99327  25.216  30.830  10.588
27013W        W99328  22.691  17.810   4.613
27014W        W99329  10.436  28.608  10.935
27015W        W99330   5.317  20.792  14.314
27016W        W99331  14.648  10.765  10.578
27017W        W99332   2.856   5.744   2.098
27018W        W99333  28.651  36.762   3.802
27019W        W99334  21.183  26.623   0.387
27020W        W99335   8.724   3.457   4.116
27021W        W99336  19.614  16.654  10.197
27022W        W99337  16.786  31.555  10.532
27023W        W99338  22.594  19.214   5.223
27024W        W99339  26.971   9.870   0.114
27025W        W99340   7.519  26.318   4.152
27026W        W99341   2.652  18.744   2.135
27027W        W99342  32.487   8.617  14.290
27028W        W99343  19.489  43.986  13.279
27029W        W99344  24.946   2.428   0.182
27030W        W99345  12.752   3.763   4.923
27031W        W99346  10.868  12.580  14.916
27032W        W99347   8.987  26.651  11.156
27033W        W99348   3.277  21.234  14.624
27034W        W99349   5.658  25.064  10.854
27035W        W99350  22.554   7.821   1.263
27036W        W99351  22.323  39.864  12.880
27037W        W99352  33.212  30.909   3.835
27038W        W99353  22.334  15.170  11.491
27039W        W99354  20.662   4.280  13.042
27040W        W99355  25.393  22.812   2.283
27041W        W99356  43.823  34.203  12.667
27042W        W99357  10.924   1.765   4.354
27043W        W99358  22.168  27.854   0.525
27044W        W99359   1.113  36.857  14.321
27045W        W99360  28.118  32.951  10.370
27046W        W99361  40.953  36.545  14.821
27047W        W99362   8.772   4.187  14.582
27048W        W99363   5.323   7.140   3.424
27049W        W99364   1.815  17.810  11.474
27050W        W99365  44.311  24.022   1.514
27051W        W99366  28.424  16.061   0.792
27052W        W99367  34.473  40.265   2.169
27053W        W99368  20.935  33.287  14.233
27054W        W99369  13.939   6.252   2.663
27055W        W99370  13.802   6.448   5.098
27056W        W99371  13.679  35.128   1.356
27057W        W99372  18.593  25.693   0.969
27058W        W99373  41.274  35.427  14.532
27059W        W99374  11.697  27.259  12.389
27060W        W99375   4.471   6.424   0.925
27061W        W99376  17.720   0.503  14.448
27062W        W99377  40.113  19.611   2.867
27063W        W99378  28.788  38.051  13.555
27064W        W99379  43.839  10.855  14.292
27065W        W99380  34.953   2.721  14.089
27066W        W99381  33.027  14.702   0.544
27067W        W99382  11.178  17.352  12.096
27068W        W99383  36.548   9.752  10.716
27069W        W99384  15.721  11.372   1.261
27070W        W99385  43.462  21.504   4.379
27071W        W99386  10.370   0.393  11.466
27072W        W99387  32.882   6.774   2.240
27073W        W99388  35.665   6.577  12.503
27074W        W99389  25.183  34.067   4.310
27075W        W99390   6.114   5.251  12.022
27076W        W99391  40.092  33.100  13.523
27077W        W99392  16.236  12.590   4.479
27078W        W99393   9.448   7.383  14.847
27079W        W99394  32.014  15.044  14.014
27080W        W99395  12.812  30.850   2.843
27081W        W99396  30.791   4.784   1.159
27082W        W99397  25.239   3.801   0.744
27083W        W99398  29.533  24.560  11.506
27084W        W99399  23.979   7.931   1.331
27085W        W99400  41.328  31.562  13.929
27086W        W99401  34.543  33.526  13.929
27087W        W99402  42.461  13.093   4.412
27088W        W99403  23.726  20.068   0.014
27089W        W99404   1.017  36.841  11.004
27090W        W99405  41.797   7.224  10.936
27091W        W99406  18.628  41.610   5.156
27092W        W99407  10.770  31.637   3.721
27093W        W99408   9.661  41.708   2.309
27094W        W99409  12.864  27.698   0.364
27095W        W99410  15.267  33.902  10.686
27096W        W99411  30.906  36.045   1.542
27097W        W99412  25.127  10.880   1.175
27098W        W99413  19.955  12.689  14.226
27099W        W99414   4.863  38.337  12.536
27100W        W99415  13.746  36.682   2.262
27101W        W99416  34.389  33.619  13.057
27102W        W99417   2.938  37.261   0.946
27103W        W99418  28.255   8.695   0.713
27104W        W99419  41.303  29.011  10.996
27105W        W99420  42.697  20.503  13.851
27106W        W99421  37.033   5.054   4.572
27107W        W99422  30.612   0.297  10.702
27108W        W99423   0.243  12.275   4.706
27109W        W99424  36.258  13.812   2.748
27110W        W99425   3.997  35.544  11.973
27111W        W99426   5.040  36.925   3.709
27112W        W99427  27.826  17.064  14.101
27113W        W99428   4.192  18.672  13.537
27114W        W99429  14.287  22.982  13.310
27115W        W99430  33.781  30.926  11.406
27116W        W99431  31.943  36.125  11.102
27117W        W99432  43.110  20.190  14.045
27118W        W99433   5.133  23.056  11.068
27119W        W99434  15.819  18.120   2.818
27120W        W99435  41.565  32.905   1.815
27121W        W99436  16.378  40.379   0.880
27122W        W99437  39.454   6.755   4.286
27123W        W99438  41.926  19.462  11.055
27124W        W99439  29.170  26.479   1.205
27125W        W99440  37.413  28.531  10.768
27126W        W99441   1.957  14.467  12.146
27127W        W99442  14.792   0.396  12.396
27128W        W99443  12.454  11.054   0.959
27129W        W99444  29.102  17.574  13.349
27130W        W99445   1.207  24.731  10.503
27131W        W99446  29.551  14.494   4.216
27132W        W99447  15.102  18.609   3.645
27133W        W99448  34.024  26.939   0.376
27134W        W99449   2.916   6.013   2.523
27135W        W99450  33.446  37.051  11.014
27136W        W99451  16.986  25.585   3.120
27137W        W99452  38.765  41.389   3.151
27138W        W99453   1.077  39.415  11.937
27139W        W99454  31.947  13.309  13.442
27140W        W99455  35.462   5.733  10.509
27141W        W99456  39.875  44.758  12.713
27142W        W99457  42.360  17.995   1.744
27143W        W99458   2.895  40.861   2.324
27144W        W99459  25.716  42.015  10.773
27145W        W99460   8.939   5.739  10.728
27146W        W99461   3.832  16.081  12.934
27147W        W99462  41.024  40.406   0.350
27148W        W99463   0.194  30.477   0.821
27149W        W99464  31.942   8.092  14.882
27150W        W99465   6.769  17.514  12.551
27151W        W99466  30.090  25.647  13.612
27152W        W99467  27.082   0.942  13.142
27153W        W99468  43.691  20.386  14.363
27154W        W99469   6.481  34.351  11.177
27155W        W99470  44.552  25.454   1.232
27156W        W99471   8.056  12.483   4.376
27157W        W99472   3.387   0.548   1.703
27158W        W99473   2.283  29.083  10.758
27159W        W99474  20.766  14.271   0.502
27160W        W99475   4.822   7.197  12.001
27161W        W99476  44.721  12.628  14.028
27162W        W99477  23.088  33.143   2.284
27163W        W99478  40.326   0.059   3.133
27164W        W99479  24.414  33.413  14.805
27165W        W99480  21.557  42.436   3.441
27166W        W99481  14.756   5.863   0.420
27167W        W99482  16.539  33.501  13.993
27168W        W99483  15.106  41.533  11.508
27169W        W99484  32.590   2.916   4.137
27170W        W99485  28.009  44.908  10.437
27171W        W99486  44.366  16.850  11.687
27172W        W99487  34.357  40.412  12.017
27173W        W99488  29.898   5.966  13.906
27174W        W99489  17.212  22.999  13.759
27175W        W99490  16.827   6.205   4.699
27176W        W99491  16.301  39.163   1.267
27177W        W99492  11.778  16.816  14.851
27178W        W99493   2.214   3.383  11.950
27179W        W99494  12.064   5.426   4.431
27180W        W99495  39.686  29.561  12.169
27181W        W99496  38.922   0.430   2.743
27182W        W99497   6.105  36.997   1.488
27183W        W99498  26.086   2.302   4.396
27184W        W99499  21.737  15.906   2.844
27185W        W99500  35.671   1.000  11.687
27186W        W99501   9.188  14.037  10.755
27187W        W99502  33.902  11.478   4.517
27188W        W99503   9.318  26.150  13.339
27189W        W99504  32.087  41.105  11.088
27190W        W99505   5.190  19.599  13.687
27191W        W99506  14.346   3.941   2.577
27192W        W99507  23.953  44.453  13.443
27193W        W99508  13.742  32.505   1.414
27194W        W99509   6.996  36.845  14.357
27195W        W99510  35.001  21.420  13.996
27196W        W99511  23.049  22.121   1.435
27197W        W99512  30.484  23.036   0.491
27198W        W99513  15.869   3.168   2.742
27199W        W99514  30.136  12.435   2.716
27200W        W99515  31.250   3.710  12.139
27201W        W99516  27.234  12.094  10.663
27202W        W99517  17.732  20.278  14.058
27203W        W99518  44.556  39.437  11.253
27204W        W99519  32.669   4.140  14.349
27205W        W99520  23.016  41.974   2.254
27206W        W99521   1.760  20.805   1.115
27207W        W99522   5.372   3.754  11.554
27208W        W99523  43.097   7.536  13.512
27209W        W99524  11.328  11.838   4.740
27210W        W99525  25.721  29.189   3.287
27211W        W99526  44.799  22.242  11.990
27212W        W99527   8.078  28.856   0.319
27213W        W99528   6.129  15.553   4.838
27214W        W99529  35.850  18.092  12.053
27215W        W99530   7.317  37.049  11.554
27216W        W99531  30.292   4.898   1.244
27217W        W99532   1.227  28.124  12.973
27218W        W99533  15.877  24.560  13.025
27219W        W99534  12.916  21.116  14.849
27220W        W99535  22.636  13.354   3.830
27221W        W99536  34.393  40.653   3.185
27222W        W99537  44.390  40.912   1.919
27223W        W99538   1.086  42.828  14.668
27224W        W99539   3.940   6.698  10.260
27225W        W99540   2.810  35.795   0.353
27226W        W99541  18.004  23.925  11.588
27227W        W99542  39.794  10.173   4.669
27228W        W99543  10.158  20.264  13.603
27229W        W99544  32.178   7.096  13.385
27230W        W99545  20.131  19.545  13.337
27231W        W99546   8.705  16.803   4.683
27232W        W99547  24.256   6.122  13.062
27233W        W99548   2.854  33.883  10.419
27234W        W99549  35.741  28.032  12.557
27235W        W99550   0.775  15.362   1.236
27236W        W99551  24.988   5.437   3.346
27237W        W99552  18.042  30.380  11.266
27238W        W99553  37.984  21.037  14.875
27239W        W99554  38.616  13.991   4.957
27240W        W99555   9.335  34.549  14.002
27241W        W99556  36.128  36.369   4.630
27242W        W99557  10.646  13.069   1.341
27243W        W99558   3.211  21.386   0.148
27244W        W99559  16.128  40.116  13.810
27245W        W99560  19.300  31.972  12.075
27246W        W99561  31.502  37.657  11.080
27247W        W99562  38.422  23.966   3.214
27248W        W99563  23.951  27.772   4.200
27249W        W99564   5.510  16.282  13.384
27250W        W99565  15.810  36.383   3.168
27251W        W99566  40.886  18.376   0.386
27252W        W99567  44.384  16.357  11.534
27253W        W99568  10.848  43.492   3.413
27254W        W99569  10.353  26.824  11.039
27255W        W99570  40.187  30.233   1.509
27256W        W99571  34.819  33.390  12.958
27257W        W99572  32.866  35.497  14.743
27258W        W99573  14.171  16.046  12.469
27259W        W99574  20.512  31.463  10.940
27260W        W99575  43.258   1.206   2.180
27261W        W99576  29.168  30.371  11.482
27262W        W99577  28.462   3.432  11.066
27263W        W99578  43.501   9.677  10.619
27264W        W99579   8.706  41.328   1.405
27265W        W99580  32.684   8.942   1.391
27266W        W99581   8.175  12.642   0.388
27267W        W99582   7.395   7.358   2.691
27268W        W99583  15.732   3.098  11.177
27269W        W99584  43.213  17.144  14.386
27270W        W99585  42.554  14.667   0.468
27271W        W99586  30.648  31.389   0.895
27272W        W99587  31.537  10.841   2.338
27273W        W99588  13.930  24.416  13.912
27274W        W99589  35.622  26.632   1.826
27275W        W99590  29.603  43.252   3.376
27276W        W99591  41.783  34.317   3.704
27277W        W99592  22.231  33.542   3.460
27278W        W99593  42.866  31.358  10.785
27279W        W99594  27.864  15.202   5.020
27280W        W99595  39.256  20.175  14.264
27281W        W99596   4.739  27.145   2.836
27282W        W99597  14.028  11.987   5.129
27283W        W99598  40.505   8.884  10.885
27284W        W99599  28.545   4.193  13.344
27285W        W99600  35.274  38.376  11.055
27286W        W99601  34.001  14.622  12.017
27287W        W99602  10.436  16.276  11.064
27288W        W99603  38.017  27.850   9.943
27289W        W99604  18.003  16.660  14.436
27290W        W99605  18.540  16.576  14.377
27291W        W99606  15.742  31.679   1.954
27292W        W99607  31.701  14.669  13.097
27293W        W99608  34.993  15.687  10.259
27294W        W99609  16.339  34.162  13.399
27295W        W99610  22.042  28.690   2.891
27296W        W99611  43.048  34.681   2.348
27297W        W99612   9.588  18.853  14.802
27298W        W99613  12.241  33.316   4.395
27299W        W99614  42.240  35.442  11.487
27300W        W99615  25.662  22.156  11.523
27301W        W99616  15.078  10.218  12.062
27302W        W99617   9.374  44.288   1.769
27303W        W99618  34.819   5.809   2.388
27304W        W99619  43.037  44.880  14.790
27305W        W99620  21.726  32.477  12.149
27306W        W99621  14.685   5.053  14.768
27307W        W99622  32.738  24.962  13.867
27308W        W99623  31.195  10.377   2.745
27309W        W99624  38.851  20.764   2.807
27310W        W99625  34.834  11.670  11.631
27311W        W99626  41.409   4.787   4.318
27312W        W99627  27.920  37.373   0.592
27313W        W99628  28.900  34.458  13.641
27314W        W99629  37.068  18.154   3.535
27315W        W99630   5.759  17.693   2.017
27316W        W99631  29.019   8.105  11.154
27317W        W99632  12.099  27.250   2.433
27318W        W99633   8.654  24.443   0.818
27319W        W99634  33.955  11.171  10.543
27320W        W99635  15.262   6.825  14.771
27321W        W99636   3.486  20.562  11.650
27322W        W99637   0.882  34.441  13.683
27323W        W99638  15.343  38.028   3.735
27324W        W99639  39.444  37.080   3.281
27325W        W99640  33.538  32.887  12.076
27326W        W99641  20.414   4.238  12.606
27327W        W99642  43.651  18.941  12.545
27328W        W99643  27.474  42.563  10.741
27329W        W99644   4.758  11.577  13.904
27330W        W99645  39.712  36.865  12.507
27331W        W99646  14.538   2.939  11.509
27332W        W99647  36.044  28.963   1.432
27333W        W99648  24.416  21.502   1.411
27334W        W99649   0.375  29.490   0.859
27335W        W99650   3.813   5.506   2.802
27336W        W99651  44.192   3.874   2.445
27337W        W99652  10.891  11.693   1.784
27338W        W99653  31.487   8.191   3.160
27339W        W99654  26.510  19.712  12.995
27340W        W99655  28.982  15.238   0.024
27341W        W99656  32.790   7.709   1.358
27342W        W99657  33.645  35.334  11.589
27343W        W99658  22.331  34.411  12.029
27344W        W99659  27.532   1.426   3.889
27345W        W99660  15.299  16.345  12.031
27346W        W99661   9.243  23.189   0.189
27347W        W99662  18.569  34.012  13.326
27348W        W99663  20.263  34.951  12.395
27349W        W99664  26.047  40.361   1.711
27350W        W99665   6.056  27.578   1.532
27351W        W99666  19.638   4.287  14.716
27352W        W99667   7.668  17.706  14.532
27353W        W99668  37.463  32.926   0.357
27354W        W99669  44.774  28.092  10.659
27355W        W99670  42.619  18.953   0.909
27356W        W99671  40.207  29.003   0.774
27357W        W99672   7.369   6.090  12.977
27358W        W99673  33.619  21.066   4.737
27359W        W99674  41.628  13.045   4.079
27360W        W99675   7.349  10.454   3.691
27361W        W99676  23.543  42.398  10.661
27362W        W99677  30.553  12.903  12.960
27363W        W99678  44.067  44.407  13.047
27364W        W99679   4.788  18.498   2.417
27365W        W99680  34.015  15.270   0.389
27366W        W99681  13.552   4.134   3.074
27367W        W99682  11.627  28.078   0.445
27368W        W99683  19.523  42.986   2.352
27369W        W99684  32.434  28.441  10.866
27370W        W99685  40.919  33.650   4.362
27371W        W99686  35.865  23.500   3.400
27372W        W99687   4.528   3.450   4.481
27373W        W99688  38.573  12.346  14.683
27374W        W99689   1.940  17.037   2.927
27375W        W99690  34.970  21.974   1.222
27376W        W99691  25.704   8.688  11.123
27377W        W99692   8.808  21.264  10.761
27378W        W99693  43.634  18.815   0.308
27379W        W99694  41.483  24.335  13.511
27380W        W99695   2.999  12.153  11.135
27381W        W99696  17.431  10.832  14.401
27382W        W99697  44.183  15.000  11.582
27383W        W99698   1.140   2.434   2.193
27384W        W99699  30.757   5.696  11.803
27385W        W99700  37.650  20.801  11.481
27386W        W99701  29.473  20.597   2.595
27387W        W99702  14.201  18.338  13.314
27388W        W99703  22.757  38.941   2.181
27389W        W99704   5.939  20.705  12.107
27390W        W99705  18.766  12.600   3.233
27391W        W99706  11.210  41.010  13.739
27392W        W99707  33.676  29.733   3.221
27393W        W99708  13.740   9.383  12.016
27394W        W99709  24.359  42.571  14.485
27395W        W99710  10.176   4.787   1.512
27396W        W99711   2.213  42.530   2.243
27397W        W99712  38.372  25.620  14.882
27398W        W99713  35.980  17.085  10.748
27399W        W99714  37.091  15.002   3.350
27400W        W99715  30.308  20.058  10.652
27401W        W99716   4.209  42.803  14.218
27402W        W99717  10.458  30.530  13.416
27403W        W99718   0.317  16.753  10.540
27404W        W99719  23.476   0.305   2.357
27405W        W99720  23.843  32.423  13.515
27406W        W99721  37.088  41.861   1.188
27407W        W99722   1.882  39.722  11.892
27408W        W99723  39.449  38.438   0.501
27409W        W99724  10.736  28.052   2.254
27410W        W99725  41.786  11.624  12.575
27411W        W99726  25.705   4.872  12.006
27412W        W99727  29.718   5.533   0.923
27413W        W99728  15.791  40.390   4.456
27414W        W99729  19.617  28.036  14.977
27415W        W99730  26.507   9.660  12.549
27416W        W99731  44.981  37.603   0.385
27417W        W99732  37.896  43.931   2.934
27418W        W99733  37.022  25.586   3.216
27419W        W99734  39.498  31.154  14.399
27420W        W99735  19.256  33.088  14.326
27421W        W99736  30.951  27.159   2.418
27422W        W99737  26.657  39.052   0.319
27423W        W99738  38.545   1.464  13.301
27424W        W99739  42.347  40.498   1.806
27425W        W99740  30.071   6.362  12.445
27426W        W99741  42.157   0.864  11.873
27427W        W99742   4.583  32.888   4.223
27428W        W99743  42.739   7.090   3.170
27429W        W99744  43.525   5.912   2.461
27430W        W99745   4.066  14.049  12.044
27431W        W99746   0.348  11.783   2.794
27432W        W99747  15.147   2.743   1.123
27433W        W99748  27.044  41.408  12.338
27434W        W99749  40.522   2.531   3.816
27435W        W99750  20.655  19.700   1.139
27436W        W99751  10.142   1.413   3.341
27437W        W99752  20.781  36.584   2.002
27438W        W99753  43.725  25.947  11.596
27439W        W99754  35.789  16.782   3.227
27440W        W99755  37.740   5.876   2.292
27441W        W99756  23.939   9.679  12.336
27442W        W99757  18.506  34.740   0.766
27443W        W99758  16.289   1.795   3.146
27444W        W99759   3.739  26.673  11.481
27445W        W99760   5.911  40.579  13.093
27446W        W99761  14.075   0.769  10.930
27447W        W99762  24.712  44.281  13.905
27448W        W99763  17.947  12.281  11.706
27449W        W99764  44.801  13.297   4.273
27450W        W99765  40.948  33.147   3.708
27451W        W99766  23.316  11.198   4.598
27452W        W99767  26.940  41.478   1.374
27453W        W99768  40.010   6.592   3.645
27454W        W99769  40.058   6.796   4.618
27455W        W99770  35.041  10.813   0.406
27456W        W99771  23.211  10.747  10.552
27457W        W99772  18.150  28.109   1.028
27458W        W99773   0.886  20.327  10.802
27459W        W99774  23.309   5.731  13.546
27460W        W99775  40.392  40.112  10.653
27461W        W99776  20.447  24.585   4.569
27462W        W99777  31.864  33.919   0.471
27463W        W99778   6.688  34.406   1.847
27464W        W99779  15.624  23.396   4.370
27465W        W99780  28.434  16.577   0.829
27466W        W99781  29.409  44.480  10.915
27467W        W99782   7.961  30.877  11.596
27468W        W99783  11.864  20.694   1.303
27469W        W99784  14.527   5.421   0.282
27470W        W99785  26.152   4.754   0.246
27471W        W99786  43.280   6.250   0.248
27472W        W99787  24.505  18.049  12.434
27473W        W99788  25.118  14.701   2.671
27474W        W99789  43.549  29.521  12.011
27475W        W99790  20.607  29.702  12.529
27476W        W99791  29.912  28.267  12.020
27477W        W99792   7.018  18.130   2.376
27478W        W99793  28.126  27.014   1.847
27479W        W99794   9.590  28.094   2.844
27480W        W99795  29.121   5.343  10.945
27481W        W99796  26.950  22.774  14.468
27482W        W99797  14.596  30.073   4.949
27483W        W99798  22.082   5.301   4.476
27484W        W99799  42.690  27.575  14.464
27485W        W99800   5.697  31.644  12.055
27486W        W99801  31.402  22.661   2.703
27487W        W99802  38.122  27.536   3.958
27488W        W99803   3.884  11.096   0.027
27489W        W99804  42.196  38.804   0.017
27490W        W99805  33.864  18.688  11.181
27491W        W99806  14.813  16.605  12.036
27492W        W99807  38.120  26.670   3.284
27493W        W99808  42.798   1.502   2.164
27494W        W99809  24.145  39.495   1.783
27495W        W99810  13.877  20.962  14.900
27496W        W99811  11.179  19.780   0.387
27497W        W99812  30.629  20.218   3.264
27498W        W99813  39.497  23.042   0.030
27499W        W99814   5.788  13.206   4.631
27500W        W99815  24.603   5.661   2.488
27501W        W99816  43.704  22.222   0.427
27502W        W99817  25.742   0.513  14.327
27503W        W99818  36.265  18.678  10.606
27504W        W99819  21.730  16.835  12.067
27505W        W99820  20.911  28.543   4.557
27506W        W99821  11.364  19.168  12.700
27507W        W99822  38.841  39.538   3.258
27508W        W99823   6.210  28.898  11.423
27509W        W99824   6.343   4.412  14.805
27510W        W99825  28.696  33.436   4.606
27511W        W99826  39.852   9.561  14.890
27512W        W99827  15.348  24.262  13.936
27513W        W99828  12.095  34.354   2.318
27514W        W99829  29.914  29.972   3.853
27515W        W99830   6.169  31.733   2.200
27516W        W99831  39.746  11.501   1.388
27517W        W99832  18.499  12.162   0.259
27518W        W99833  15.720  38.990  10.440
27519W        W99834  30.651  31.074   3.388
27520W        W99835  29.744  28.632  10.716
27521W        W99836   6.886  31.410  13.802
27522W        W99837  14.831  29.635   2.294
27523W        W99838   2.990  23.029  13.092
27524W        W99839  17.994  20.121   3.329
27525W        W99840  43.709  35.667  12.997
27526W        W99841  12.552  22.928   1.054
27527W        W99842  17.238  23.472  12.017
27528W        W99843  19.371   4.995   1.000
27529W        W99844  19.970  43.286   3.288
27530W        W99845  39.066  11.336   1.971
27531W        W99846   8.370  21.875   3.176
27532W        W99847  25.549  36.007  14.402
27533W        W99848  37.470  12.399  13.592
27534W        W99849  44.675  23.551   2.852
27535W        W99850  34.829  29.866  10.630
27536W        W99851   1.757  25.550  11.570
27537W        W99852  12.744  43.000  14.270
27538W        W99853  16.824  44.605  10.726
27539W        W99854   7.529   4.374  14.284
27540W        W99855   4.479   0.001  11.869
27541W        W99856  27.834  32.352   1.665
27542W        W99857   5.584  29.904   3.221
27543W        W99858  37.756   1.914   0.717
27544W        W99859  13.163   7.831  13.873
27545W        W99860  16.459  32.543  12.416
27546W        W99861  38.468  11.384   4.706
27547W        W99862  10.187  15.162  14.584
27548W        W99863  15.512  43.065   0.407
27549W        W99864  16.903  10.809  14.478
27550W        W99865  17.200   5.867   1.978
27551W        W99866  12.755  38.989   2.238
27552W        W99867  20.296  17.257  14.387
27553W        W99868  40.559  22.519  13.312
27554W        W99869   0.199  15.565   2.502
27555W        W99870  31.467   1.238   4.958
27556W        W99871   2.931  41.763   4.183
27557W        W99872  26.382  15.546  10.580
27558W        W99873  44.249   1.803   0.750
27559W        W99874  15.498  23.924   4.476
27560W        W99875   8.407  10.379  11.005
27561W        W99876  12.368  22.177   2.705
27562W        W99877  24.562  41.962  11.523
27563W        W99878  14.746  38.583  14.073
27564W        W99879   2.280  18.842  10.926
27565W        W99880  16.272  23.712   2.680
27566W        W99881  26.404  10.228   3.814
27567W        W99882  25.015  40.141   1.680
27568W        W99883  42.483  37.766  14.013
27569W        W99884  30.891   2.306  11.173
27570W        W99885  23.283  14.226   2.987
27571W        W99886  37.326  34.367   1.953
27572W        W99887  19.328  15.185   3.214
27573W        W99888  39.131  21.699  12.887
27574W        W99889  30.843  21.542  10.077
27575W        W99890  14.367  43.798   0.384
27576W        W99891  35.749   3.256   2.789
27577W        W99892  23.181   7.543  14.141
27578W        W99893  35.473   3.996   3.624
27579W        W99894  12.172  14.947  14.828
27580W        W99895  18.976   7.828  13.014
27581W        W99896  29.629  19.201   2.257
27582W        W99897  21.209  34.845   2.696
27583W        W99898  25.446  44.862  10.623
27584W        W99899  22.074   8.536   1.235
27585W        W99900  29.357  27.879   2.160
27586W        W99901  41.785  14.383   4.574
27587W        W99902   2.995  30.788   0.716
27588W        W99903  29.031   0.564  13.816
27589W        W99904  18.564   3.581  14.331
27590W        W99905  26.772   2.866   2.651
27591W        W99906  41.307  34.535   4.082
27592W        W99907  18.203   1.739   0.669
27593W        W99908   2.144  22.324  13.027
27594W        W99909  24.083  40.795   4.736
27595W        W99910  27.975  16.356   0.829
27596W        W99911  16.984  25.081   4.780
27597W        W99912  29.275  29.544  10.526
27598W        W99913  42.234  33.634  12.848
27599W        W99914  16.637  14.176  12.027
27600W        W99915   2.502  39.932   1.341
27601W        W99916  33.659  40.790  11.952
27602W        W99917  32.635  18.774  14.238
27603W        W99918  20.817  25.015  11.520
27604W        W99919  13.243  32.601   1.751
27605W        W99920   6.915   9.873   4.151
27606W        W99921  21.144  27.150  13.020
27607W        W99922  26.521  34.830  12.487
27608W        W99923  25.685   8.873   4.598
27609W        W99924  31.445  30.118   4.448
27610W        W99925  40.955  12.564   2.257
27611W        W99926  23.914   9.002  12.973
27612W        W99927   6.041  40.824  10.818
27613W        W99928   8.890   0.017   2.246
27614W        W99929  37.369  43.788  12.578
27615W        W99930  22.157  29.206   2.919
27616W        W99931  12.107  41.004  11.466
27617W        W99932  23.258   1.537   0.719
27618W        W99933  42.376  29.509  11.634
27619W        W99934   9.676   0.197   2.046
27620W        W99935  32.598  21.479  14.799
27621W        W99936  27.563  13.640  13.256
27622W        W99937  41.426   0.840  14.061
27623W        W99938  13.693  21.273   0.250
27624W        W99939  33.638   3.981   4.112
27625W        W99940  31.613  36.115   3.223
27626W        W99941  16.514  43.332  11.071
27627W        W99942  20.173   0.929   0.410
27628W        W99943  30.537   3.052  14.822
27629W        W99944  43.307  11.813  13.638
27630W        W99945   2.293  13.143   1.832
27631W        W99946   4.073   4.228  11.197
27632W        W99947   4.194  44.894   2.926
27633W        W99948   6.847  15.295  12.543
27634W        W99949  26.750   4.711  11.218
27635W        W99950   6.425  19.533   5.084
27636W        W99951  31.624  29.864  13.784
27637W        W99952  44.250  41.842  14.422
27638W        W99953  27.946  42.284   1.343
27639W        W99954  28.323  19.622  12.547
27640W        W99955  25.102  14.244  12.870
27641W        W99956   0.443   0.435  11.423
27642W        W99957   7.398  17.007  10.739
27643W        W99958  29.673  17.216   0.014
27644W        W99959  24.016  34.043  12.063
27645W        W99960  11.316  16.937   5.476
27646W        W99961   7.187  17.298  11.134
27647W        W99962  43.737  43.911  10.690
27648W        W99963  33.939  28.079   1.710
27649W        W99964  30.396  24.647   1.902
27650W        W99965  28.979  34.113  14.949
27651W        W99966   2.357  33.353  11.371
27652W        W99967   8.623  43.107  10.465
27653W        W99968  20.144  23.797  13.778
27654W        W99969  27.325  19.520  10.655
27655W        W99970  42.285  40.325   0.928
27656W        W99971   3.749  16.465  14.757
27657W        W99972  38.504  29.188  14.124
27658W        W99973  21.914  29.108  12.533
27659W        W99974   5.807   8.087   4.849
27660W        W99975  34.593  28.768   2.272
27661W        W99976  15.667   1.417  11.596
27662W        W99977  37.412  41.957   2.509
27663W        W99978  15.032   3.333   0.356
27664W        W99979  38.580  29.696   3.917
27665W        W99980  40.443  23.779   5.111
27666W        W99981  33.585  33.527   3.250
27667W        W99982   4.221  27.060   2.895
27668W        W99983  39.707  19.216  12.204
27669W        W99984  38.769  35.328   2.586
27670W        W99985  22.757   0.647  14.871
27671W        W99986  35.447  16.215   2.257
27672W        W99987   6.419   6.317  13.994
27673W        W99988  44.683  21.099   2.757
27674W        W99989  32.358  25.701  11.579
27675W        W99990  15.106   3.239   1.322
27676W        W99991  42.497  44.615  12.001
27677W        W99992  26.019  29.607   3.423
27678W        W99993  40.507  26.218  12.389
27679W        W99994   9.668  11.327  12.184
27680W        W99995  12.309  23.352   3.204
27681W        W99996   5.233  37.358  12.920
27682W        W99997  32.091  41.295   2.645
27683W        W99998   9.736  33.014   1.686
27684W        W99999  11.366  20.606  11.591
27685W        W    0  27.853   5.364  10.401
27686W        W    1  22.980  17.297  10.744
27687W        W    2  39.041   9.366   3.287
27688W        W    3   7.303  10.263  10.404
27689W        W    4  19.422  40.361   9.864
27690W        W    5   0.288   9.890  14.294
27691W        W    6  16.747  42.884   4.089
27692W        W    7  38.833   7.365  11.963
27693W        W    8   3.906   9.672  13.371
27694W        W    9  41.236  43.004   2.795
27695W        W   10   0.895  11.298   1.430
27696W        W   11   9.731  36.062  10.635
27697W        W   12  43.715   0.757  13.096
27698W        W   13  17.784  24.189   0.994
27699W        W   14   3.890   2.653  11.076
27700W        W   15  37.586   6.168  12.120
27701W        W   16   8.531  31.779   0.977
27702W        W   17   2.527  34.626   2.251
27703W        W   18  41.360   5.176   2.752
27704W        W   19  29.623  21.202  14.500
27705W        W   20  19.529   0.898  14.266
27706W        W   21   1.923   6.723   4.484
27707W        W   22  33.110  36.804   4.590
27708W        W   23  26.453  44.838  10.467
27709W        W   24  37.393  11.363   3.203
27710W        W   25  13.662  26.324   4.185
27711W        W   26  40.879  21.827  11.720
27712W        W   27   7.977   8.282  11.913
27713W        W   28  41.085  42.397  14.740
27714W        W   29  43.200   1.133  11.500
27715W        W   30  18.191  17.743  10.988
27716W        W   31  44.080  38.490   2.012
27717W        W   32  31.967   4.418  12.933
27718W        W   33  12.163   9.861  11.081
27719W        W   34   0.607  32.210  10.683
27720W        W   35  23.591  35.522  14.792
27721W        W   36   3.412  22.732  13.767
27722W        W   37  28.227  25.528   2.886
27723W        W   38  31.864  29.180  12.095
27724W        W   39   0.903  11.659   0.960
27725W        W   40  29.462   7.114   4.244
27726W        W   41  34.720  35.476   4.748
27727W        W   42  40.407  16.221  10.965
27728W        W   43  37.052  30.566  11.605
27729W        W   44  10.843  24.700   0.995
27730W        W   45   0.405  28.912   0.227
27731W        W   46  43.437  13.709   0.649
27732W        W   47  25.391   3.871  14.326
27733W        W   48  29.180  26.637  10.672
27734W        W   49  35.169  32.873  13.698
27735W        W   50   0.479  13.811   0.732
27736W        W   51  16.750   7.428   4.143
27737W        W   52   5.865  30.323   3.822
27738W        W   53  11.814  34.871   3.136
27739W        W   54  15.506  37.047   1.837
27740W        W   55  26.100  38.384  13.272
27741W        W   56  30.736  44.415   1.390
27742W        W   57  43.235  44.830  12.946
27743W        W   58  13.690  23.144  14.718
27744W        W   59  31.630  21.988  14.418
27745W        W   60  35.833  22.601   4.996
27746W        W   61   5.106   2.967  13.116
27747W        W   62   5.359   1.448  13.710
27748W        W   63  11.871  15.688  10.920
27749W        W   64  25.470   2.883   3.042
27750W        W   65   4.899  19.085   3.926
27751W        W   66  40.783  23.107  10.416
27752W        W   67  29.852  14.750  10.790
27753W        W   68  11.126  34.482  11.090
27754W        W   69   0.446  17.433   1.360
27755W        W   70  37.819  37.185   2.891
27756W        W   71  28.889  22.477  11.751
27757W        W   72  15.391   1.014  11.389
27758W        W   73  18.618  30.278   4.783
27759W        W   74  41.473  33.847  13.834
27760W        W   75  12.918   7.199  11.027
27761W        W   76  26.449  15.022   0.267
27762W        W   77  10.442  26.258   0.520
27763W        W   78   3.490  39.081   1.279
27764W        W   79  15.994   3.920  14.760
27765W        W   80  40.134   0.951  10.252
27766W        W   81  18.042  16.516   0.328
27767W        W   82  10.782  37.103   2.760
27768W        W   83  12.257  35.526   3.526
27769W        W   84  43.514  26.213   2.320
27770W        W   85  30.852  22.718   4.016
27771W        W   86  17.914  28.085  14.111
27772W        W   87   4.369  25.437   4.563
27773W        W   88  28.694  13.155   1.735
27774W        W   89  40.986  27.235   2.223
27775W        W   90  33.334  43.319   0.206
27776W        W   91  19.098  37.815  13.621
27777W        W   92  37.027   4.345   3.765
27778W        W   93  19.240  12.139  13.526
27779W        W   94  17.360  17.630  13.146
27780W        W   95  39.899  32.688  12.045
27781W        W   96  41.430  33.052  11.008
27782W        W   97  17.715   9.749  11.069
27783W        W   98  25.722   1.687  10.992
27784W        W   99   1.738   6.241  11.560
27785W        W  100  23.293  24.128   2.249
27786W        W  101  23.029  18.548   9.717
27787W        W  102   3.743  43.344   4.099
27788W        W  103  31.072  26.847  11.396
27789W        W  104  27.570   8.613  12.296
27790W        W  105  13.812  35.095  14.531
27791W        W  106   3.925  22.015   0.457
27792W        W  107   0.976  16.762  12.965
27793W        W  108  31.559  42.290  11.609
27794W        W  109  11.268  19.605  11.401
27795W        W  110  14.228  25.014  13.330
27796W        W  111  20.291  20.274   3.746
27797W        W  112  41.539  27.191  10.737
27798W        W  113  15.218   9.770  12.263
27799W        W  114  12.147  24.038  12.885
27800W        W  115  35.409   1.235   0.535
27801W        W  116  32.265  14.010   1.322
27802W        W  117   6.667  29.713   1.557
27803W        W  118  10.923  34.181  13.223
27804W        W  119  14.188  41.340   3.647
27805W        W  120  21.141  17.588  10.760
27806W        W  121  12.356  23.760  10.582
27807W        W  122  30.435  28.288   1.391
27808W        W  123  43.359  31.489   1.832
27809W        W  124  18.164  20.395   4.878
27810W        W  125   1.378   1.738  14.032
27811W        W  126   3.753  17.717   1.921
27812W        W  127  42.072  21.522  11.974
27813W        W  128  44.406  12.670  12.285
27814W        W  129  31.516  16.176   2.828
27815W        W  130   8.774   5.360  12.062
27816W        W  131   2.396  23.261   3.800
27817W        W  132   9.786   1.359  13.046
27818W        W  133  14.183  15.794  11.898
27819W        W  134   8.337  28.933  12.586
27820W        W  135  33.595  26.029  10.675
27821W        W  136   3.853  22.778  14.740
27822W        W  137  15.146  12.454   4.384
27823W        W  138  35.063  12.236  10.945
27824W        W  139  14.079  43.485   1.835
27825W        W  140  29.363  44.583  14.121
27826W        W  141  15.369  34.482  13.815
27827W        W  142  39.492  21.472  12.610
27828W        W  143   0.324  16.055  11.420
27829W        W  144  12.614  28.386  14.834
27830W        W  145  38.789  41.056   1.296
27831W        W  146  40.165  43.216  14.363
27832W        W  147  24.767  22.767   4.084
27833W        W  148   0.821  33.622  11.561
27834W        W  149  34.477  28.112   4.401
27835W        W  150  14.391  10.803  11.026
27836W        W  151   7.382   2.013  14.380
27837W        W  152   7.500   3.846   1.770
27838W        W  153  29.124  29.656  14.436
27839W        W  154   2.915  39.516  14.783
27840W        W  155  21.111  23.206   4.556
27841W        W  156   8.571  34.353   0.334
27842W        W  157  43.382  26.126  10.735
27843W        W  158  22.692  14.832   3.769
27844W        W  159  38.025   6.691   4.881
27845W        W  160  39.246   3.244  11.367
27846W        W  161   4.698  41.340  14.860
27847W        W  162  41.969  27.444   3.187
27848W        W  163  32.538  13.310   4.496
27849W        W  164  12.929   6.257   1.860
27850W        W  165   6.446  27.994   4.521
27851W        W  166  18.033  16.557  10.792
27852W        W  167   1.071  41.885   1.915
27853W        W  168  44.831  24.683   2.463
27854W        W  169  17.588  30.311   0.313
27855W        W  170   7.692  44.931   0.392
27856W        W  171   4.584   7.448   2.770
27857W        W  172  34.467  19.700  11.285
27858W        W  173   5.181   8.379  12.378
27859W        W  174   8.722  13.544  11.159
27860W        W  175  22.219   3.219   4.143
27861W        W  176  26.577  44.548   1.012
27862W        W  177  41.055  29.506  14.225
27863W        W  178  20.252  37.896  11.227
27864W        W  179  13.654   8.366  14.964
27865W        W  180  41.346   8.912  12.470
27866W        W  181  44.001  32.653  11.617
27867W        W  182  42.774  11.807   4.604
27868W        W  183  40.726  41.657  13.846
27869W        W  184  18.267  32.182   1.389
27870W        W  185  28.635  22.461  12.830
27871W        W  186  22.276  16.763  13.529
27872W        W  187  27.726  37.742  14.267
27873W        W  188  12.325  23.670   4.061
27874W        W  189  14.906  20.890  13.300
27875W        W  190  11.881  34.609   2.712
27876W        W  191  38.428   8.961   1.794
27877W        W  192  10.093  28.260  11.124
27878W        W  193  14.773  42.489  10.640
27879W        W  194  18.075  29.433  11.211
27880W        W  195  11.817  21.883  10.366
27881W        W  196   2.930  41.628  11.463
27882W        W  197  44.008  32.856   1.695
27883W        W  198  23.779  30.908   0.978
27884W        W  199  24.588  27.945  13.412
27885W        W  200  15.891   7.759  14.943
27886W        W  201   1.890  28.529  13.258
27887W        W  202  16.106   0.513  11.679
27888W        W  203   4.318   7.173   3.696
27889W        W  204  34.788  26.252  11.164
27890W        W  205   1.403  11.702  12.478
27891W        W  206  22.031  44.821   1.412
27892W        W  207  28.262   4.672   1.380
27893W        W  208  25.087   5.754  13.082
27894W        W  209  26.325   3.899  10.338
27895W        W  210  31.959  18.361  14.897
27896W        W  211   2.241  19.226   2.550
27897W        W  212  42.331  15.243   3.363
27898W        W  213  24.570   7.410   3.090
27899W        W  214  40.411  37.277  10.391
27900W        W  215  17.142  39.790  14.529
27901W        W  216  18.578  43.310   1.855
27902W        W  217  33.953  30.194   3.811
27903W        W  218   4.363  39.050  12.919
27904W        W  219  23.121  11.251   1.357
27905W        W  220  23.067  40.309   3.374
27906W        W  221   3.921   0.857  12.148
27907W        W  222   3.724   9.350   0.013
27908W        W  223  13.578  26.498  10.566
27909W        W  224  35.022  23.598  14.332
27910W        W  225  31.912  29.424   4.126
27911W        W  226   2.202  37.910  14.945
27912W        W  227  10.401   6.885   1.980
27913W        W  228  40.900  34.591  13.739
27914W        W  229  19.678   6.690   0.374
27915W        W  230  11.710  19.676   4.749
27916W        W  231  36.067   7.158   2.091
27917W        W  232   5.802  42.296  10.738
27918W        W  233  17.737  14.295  10.405
27919W        W  234  19.470  40.164   0.798
27920W        W  235  22.259   0.544  12.887
27921W        W  236  12.588   4.681   1.862
27922W        W  237  20.997  34.797   1.743
27923W        W  238  44.257  13.402  14.506
27924W        W  239  19.551  23.208  11.195
27925W        W  240  29.094  25.686  11.594
27926W        W  241  11.195  24.657  14.763
27927W        W  242  31.432  18.744   0.609
27928W        W  243  44.979  44.547  12.972
27929W        W  244  37.017  37.568  13.923
27930W        W  245  44.236  18.617   1.718
27931W        W  246   3.598  24.496   2.716
27932W        W  247  26.544  12.707   4.361
27933W        W  248  41.303  41.957   0.056
27934W        W  249  30.213   4.829  13.335
27935W        W  250  37.649  12.502   2.240
27936W        W  251   3.358   9.091  11.926
27937W        W  252   3.899  21.498  13.527
27938W        W  253   3.713  21.716   3.706
27939W        W  254  44.986  39.050   3.808
27940W        W  255  29.799  35.860  12.126
27941W        W  256  40.803  16.144   0.088
27942W        W  257  43.027  33.585  14.302
27943W        W  258  21.245  41.329   0.510
27944W        W  259  18.521  18.771  12.428
27945W        W  260  30.920  26.702   2.206
27946W        W  261  19.982  10.771   3.169
27947W        W  262  43.536  22.010   0.870
27948W        W  263   7.417   8.316  13.812
27949W        W  264  32.630  40.603   2.945
27950W        W  265   4.704  37.090  13.007
27951W        W  266  20.260  41.827  12.114
27952W        W  267   3.446  20.350  11.189
27953W        W  268  34.586  27.647  13.432
27954W        W  269  42.607   9.720  14.893
27955W        W  270  42.595  25.176   1.372
27956W        W  271  41.636  12.108  11.357
27957W        W  272  17.750  42.913   4.669
27958W        W  273  29.391  33.788   3.375
27959W        W  274   7.253   4.700  10.635
27960W        W  275  31.438   7.943  10.709
27961W        W  276   9.377  30.549   0.372
27962W        W  277  13.160  33.841  12.698
27963W        W  278  14.910  22.099  11.374
27964W        W  279  40.822  10.384  13.501
27965W        W  280  43.978  43.308  13.571
27966W        W  281  39.394  18.019  14.833
27967W        W  282  37.052  32.312  13.920
27968W        W  283  18.145  31.976   2.735
27969W        W  284  44.673  25.100   1.763
27970W        W  285   8.647  23.602  13.273
27971W        W  286  39.457  42.018   0.363
27972W        W  287  20.587  24.470  10.720
27973W        W  288  13.460  16.750   1.135
27974W        W  289  20.575  34.927   2.489
27975W        W  290  18.098  36.591   1.635
27976W        W  291  16.548  13.175   1.352
27977W        W  292  30.507  21.984   0.166
27978W        W  293  35.855  37.121   4.354
27979W        W  294  30.180  33.352   0.514
27980W        W  295  44.402  39.745  12.913
27981W        W  296  30.954  35.386   3.360
27982W        W  297  30.880   3.629  11.428
27983W        W  298  15.769   6.276   1.149
27984W        W  299  29.048  22.556   2.657
27985W        W  300  12.801  15.769   1.780
27986W        W  301  24.719  28.704   2.855
27987W        W  302  41.022   4.366   3.571
27988W        W  303   8.730  15.053   1.950
27989W        W  304  15.767  38.936   4.656
27990W        W  305  27.514  24.575   3.268
27991W        W  306   3.074  11.791   2.236
27992W        W  307  16.616  34.912   0.521
27993W        W  308   5.679   0.358  14.889
27994W        W  309  15.314  21.754  12.811
27995W        W  310  24.312   9.963   0.390
27996W        W  311  22.686  36.106   4.554
27997W        W  312  22.191  32.386  11.197
27998W        W  313  21.540   1.988   0.859
27999W        W  314  12.076  11.853   0.746
28000W        W  315  22.562  40.816  14.284
28001W        W  316  10.216  25.149   4.522
28002W        W  317  28.543  29.653   3.323
28003W        W  318  28.540  18.986   3.574
28004W        W  319  25.831  31.148   2.072
28005W        W  320  41.249  17.551   2.460
28006W        W  321  15.559  10.117   2.737
28007W        W  322  40.998   3.867   2.314
28008W        W  323  37.138  40.472   3.571
28009W        W  324  21.609  12.873   1.631
28010W        W  325  33.617  33.809  10.647
28011W        W  326  36.806   1.897  14.047
28012W        W  327  22.077  12.815  13.388
28013W        W  328  19.621  37.730  13.896
28014W        W  329  37.555  35.104   2.799
28015W        W  330  14.669   9.610   1.797
28016W        W  331  14.783  27.669  14.092
28017W        W  332  29.088  36.064   0.035
28018W        W  333  23.572  43.936   4.812
28019W        W  334  40.458  16.711   2.271
28020W        W  335  35.562  31.638   3.506
28021W        W  336  15.232  21.896  11.692
28022W        W  337  16.821  14.745   1.428
28023W        W  338   3.709  15.975  14.634
28024W        W  339  13.987  33.100   0.088
28025W        W  340  17.669  28.401   4.259
28026W        W  341  15.700  21.523   2.366
28027W        W  342  12.263  13.071  12.733
28028W        W  343  43.383  22.825  13.515
28029W        W  344  37.794   5.357  11.410
28030W        W  345  24.919  38.802   1.196
28031W        W  346  40.247  13.208  14.807
28032W        W  347  29.237  29.772   2.210
28033W        W  348   3.133  26.896  10.989
28034W        W  349  21.038  37.266  12.557
28035W        W  350  38.806  27.062  10.268
28036W        W  351  25.215  13.310  11.505
28037W        W  352  35.952  38.295  13.548
28038W        W  353  42.931  20.549   2.947
28039W        W  354  36.990  32.582  14.354
28040W        W  355   6.817  37.810   0.879
28041W        W  356  17.400  12.830   0.420
28042W        W  357   8.385  26.108   1.237
28043W        W  358   4.337  19.882   3.357
28044W        W  359  37.276  13.300  13.436
28045W        W  360   6.406  32.409  13.601
28046W        W  361  18.721  27.360  13.180
28047W        W  362  12.150  22.224   1.466
28048W        W  363  22.566  29.943  11.653
28049W        W  364  21.684   1.352  12.644
28050W        W  365  13.111   9.839  12.469
28051W        W  366  24.140   2.427  11.043
28052W        W  367  34.322  41.076  14.935
28053W        W  368   7.360  44.473  12.603
28054W        W  369  44.088  20.073  12.937
28055W        W  370   0.918  23.906   4.617
28056W        W  371  22.841  23.229  13.457
28057W        W  372  25.169   1.308   2.575
28058W        W  373  23.147   7.812  11.127
28059W        W  374  28.853   9.049  13.524
28060W        W  375  31.694   0.420  14.269
28061W        W  376  32.899  11.186   1.163
28062W        W  377   8.409  41.134   0.693
28063W        W  378  31.194   3.803   1.706
28064W        W  379  28.662  16.172  12.919
28065W        W  380  11.853  32.494   2.025
28066W        W  381  24.444  40.907  12.841
28067W        W  382  12.979   5.942  14.803
28068W        W  383  21.640  38.467  13.621
28069W        W  384  30.576   9.906   4.404
28070W        W  385  37.513   0.313   2.198
28071W        W  386  32.466  24.905   0.829
28072W        W  387   4.467  42.800  10.478
28073W        W  388  35.609  41.444   1.662
28074W        W  389  40.442  23.765  11.592
28075W        W  390  44.571   0.483  13.058
28076W        W  391  13.562  40.749   3.238
28077W        W  392  17.124  28.649   4.746
28078W        W  393  17.754   2.008  10.372
28079W        W  394  36.405  19.971   1.813
28080W        W  395  27.418  21.496  13.447
28081W        W  396  43.928  32.992  12.942
28082W        W  397  18.718  27.023  14.478
28083W        W  398  24.967  12.788   3.263
28084W        W  399  16.541  28.378  10.582
28085W        W  400  44.398   3.061  11.073
28086W        W  401   3.919  17.968  14.879
28087W        W  402  29.099  34.122  13.291
28088W        W  403  19.248  16.059   4.806
28089W        W  404  17.233  42.338   4.657
28090W        W  405  41.007  19.984  13.966
28091W        W  406  12.643  29.734   0.316
28092W        W  407  24.979  32.517  10.153
28093W        W  408  13.735  34.983  12.376
28094W        W  409  42.824   2.352   0.581
28095W        W  410  39.559  10.211   3.369
28096W        W  411  44.007  44.157   0.456
28097W        W  412  43.506  31.219   3.384
28098W        W  413  28.582  27.290   1.870
28099W        W  414  28.057  17.111   3.986
28100W        W  415  43.163  12.103  12.828
28101W        W  416  16.591  27.665  13.190
28102W        W  417   9.888  41.066   3.328
28103W        W  418  39.958   2.394   3.964
28104W        W  419  17.256  39.781   3.186
28105W        W  420  21.534  27.208   0.061
28106W        W  421   8.256  19.021  13.411
28107W        W  422  40.510  18.700  10.756
28108W        W  423  16.144  11.860   3.670
28109W        W  424  37.105  30.226   1.770
28110W        W  425   2.772  33.888   4.677
28111W        W  426  15.733   6.153   0.235
28112W        W  427   2.271   0.822  11.889
28113W        W  428   9.161  35.878  14.095
28114W        W  429  40.621  11.144   2.821
28115W        W  430  31.107   8.212   0.809
28116W        W  431  44.870  10.971  13.115
28117W        W  432   4.617   9.454   1.321
28118W        W  433  25.721  41.799   0.001
28119W        W  434  12.789  10.142   1.860
28120W        W  435   9.344  24.108   4.884
28121W        W  436  32.480   2.730  12.755
28122W        W  437  42.204   5.255   2.203
28123W        W  438   7.221  24.491  12.544
28124W        W  439  29.375  16.402  14.364
28125W        W  440  20.124  17.156   0.302
28126W        W  441   6.998  13.259  12.077
28127W        W  442  12.461  35.299   2.622
28128W        W  443  39.901   6.187   3.336
28129W        W  444   7.748   7.559   1.187
28130W        W  445  41.268  12.283   1.896
28131W        W  446  22.562   4.021  13.005
28132W        W  447   2.803  11.584   3.398
28133W        W  448  17.115  22.207  11.459
28134W        W  449   0.024  40.457   2.330
28135W        W  450   3.362   1.521   2.912
28136W        W  451  18.373  25.227   0.926
28137W        W  452  22.153  38.993   3.303
28138W        W  453  13.943  28.345  11.207
28139W        W  454  22.322  35.568   3.964
28140W        W  455  34.861  32.515  13.975
28141W        W  456   3.992  13.809  11.564
28142W        W  457  33.604  19.243  11.184
28143W        W  458   6.563  14.297   2.648
28144W        W  459  31.471  24.125   0.454
28145W        W  460   1.515  37.852   4.901
28146W        W  461  15.305  23.694   2.689
28147W        W  462  25.305   6.646  14.388
28148W        W  463  17.999  43.979  13.590
28149W        W  464   5.933  43.930   2.233
28150W        W  465  35.343  24.658  14.862
28151W        W  466   9.712  31.396   4.566
28152W        W  467  29.328  38.913   4.073
28153W        W  468  25.982  37.011  14.822
28154W        W  469  41.210  33.286   0.273
28155W        W  470  40.964  38.771   2.262
28156W        W  471  30.109  11.668   4.167
28157W        W  472   2.994  18.076   1.716
28158W        W  473  34.789  30.075  13.521
28159W        W  474  13.921  29.601   4.619
28160W        W  475  23.225  25.338   3.990
28161W        W  476  27.912   0.359   4.645
28162W        W  477  41.674  24.409  10.956
28163W        W  478  34.865  12.090   3.258
28164W        W  479   6.057  17.761   2.938
28165W        W  480   6.183  31.156   2.307
28166W        W  481  25.204  40.991   1.859
28167W        W  482   2.515   2.560   3.523
28168W        W  483   5.690   8.814   2.712
28169W        W  484  25.136   7.471   2.223
28170W        W  485  25.557   2.055   0.678
28171W        W  486  24.056  15.110   1.460
28172W        W  487  33.582  19.152  13.115
28173W        W  488   9.553   7.762  12.813
28174W        W  489  16.187  28.460   2.888
28175W        W  490  39.442  17.716  13.441
28176W        W  491  23.560   3.644  12.685
28177W        W  492  21.587  24.510   0.996
28178W        W  493  17.456  19.648  11.734
28179W        W  494   5.719  38.601  10.633
28180W        W  495  39.082  21.020   0.296
28181W        W  496  26.937  31.997  11.555
28182W        W  497  15.818  37.912  14.336
28183W        W  498   0.886   8.170   4.133
28184W        W  499   4.828  23.705   4.503
28185W        W  500  10.856  44.543  12.484
28186W        W  501   0.272  32.955  12.150
28187W        W  502  30.555  18.936   2.903
28188W        W  503  23.159   0.965  14.949
28189W        W  504  24.940  33.887   3.679
28190W        W  505   9.962   5.734  14.363
28191W        W  506  19.935  39.068  12.317
28192W        W  507   8.821  29.633  11.457
28193W        W  508  27.933  43.793  14.390
28194W        W  509  40.438   2.187  14.505
28195W        W  510  29.854  30.129  10.928
28196W        W  511  19.641  31.302  14.161
28197W        W  512  38.576  14.312  14.558
28198W        W  513  24.584  34.715  12.439
28199W        W  514  34.649   6.077   2.812
28200W        W  515  31.907  26.527   1.215
28201W        W  516  30.142  19.315   0.397
28202W        W  517  18.051  19.732  14.751
28203W        W  518  29.378  29.211  10.915
28204W        W  519  37.816  36.869  12.598
28205W        W  520   9.614  34.341  13.567
28206W        W  521  34.681  33.595  11.505
28207W        W  522  18.842  43.205  12.910
28208W        W  523  34.704  28.461   1.246
28209W        W  524  18.882  10.436   4.572
28210W        W  525  44.801  40.628   3.815
28211W        W  526   0.282  23.202   0.727
28212W        W  527   6.293  21.819   2.488
28213W        W  528  36.042  31.887  12.042
28214W        W  529   2.744   5.864   1.088
28215W        W  530   8.200  36.871   3.220
28216W        W  531  41.226   0.224  12.075
28217W        W  532  34.122   6.923   0.397
28218W        W  533  22.071   4.905  14.709
28219W        W  534  34.932   0.974   3.957
28220W        W  535  23.244  29.925  14.549
28221W        W  536  22.913  37.443  10.447
28222W        W  537   3.175  20.117   2.598
28223W        W  538  11.638   1.908   1.517
28224W        W  539  23.985  44.780   0.352
28225W        W  540   2.909  15.010   1.866
28226W        W  541  20.102   1.113   4.108
28227W        W  542  34.212  42.477   3.354
28228W        W  543   3.959  29.503   3.172
28229W        W  544  15.105   8.879  10.982
28230W        W  545   3.017  34.353  14.313
28231W        W  546  36.360  33.668  11.914
28232W        W  547  14.223  36.362   3.619
28233W        W  548  18.294   9.616   2.833
28234W        W  549  39.469  23.823  11.431
28235W        W  550  20.580   9.182   3.684
28236W        W  551  17.499   8.013  13.077
28237W        W  552  34.341  19.672  10.802
28238W        W  553  41.288  31.191   2.552
28239W        W  554   6.850  31.567  12.088
28240W        W  555  28.455  31.548   2.872
28241W        W  556  22.409  34.422   3.924
28242W        W  557  28.950  41.392  11.879
28243W        W  558  39.541  25.761  12.819
28244W        W  559  14.841  40.847   3.674
28245W        W  560  19.313  35.819  13.133
28246W        W  561  44.335   3.830   1.846
28247W        W  562  20.830  33.018   4.302
28248W        W  563  10.803   9.596  12.446
28249W        W  564  43.518  25.650   3.732
28250W        W  565  20.350  16.264   0.866
28251W        W  566  10.390  29.106   3.851
28252W        W  567  13.676  12.934   3.817
28253W        W  568  22.600  28.231   1.254
28254W        W  569  44.819  22.643  10.637
28255W        W  570  19.361  27.035   4.658
28256W        W  571   0.930  32.401   0.747
28257W        W  572   6.708  27.258  14.378
28258W        W  573   4.083  20.749  14.273
28259W        W  574   7.889  17.175   2.285
28260W        W  575  10.265  26.607   0.861
28261W        W  576   7.786  14.551  14.255
28262W        W  577  26.999  37.835   2.257
28263W        W  578  40.416  13.453  10.588
28264W        W  579  38.353  37.442  10.247
28265W        W  580   2.692  40.738  13.885
28266W        W  581  10.353  11.269   2.459
28267W        W  582   3.681  10.621   0.175
28268W        W  583   5.677  15.315   4.668
28269W        W  584  44.839  19.769  11.953
28270W        W  585  37.463  40.129  14.644
28271W        W  586  28.874  35.040  12.009
28272W        W  587  42.096  24.006   3.781
28273W        W  588   4.745  31.603  13.686
28274W        W  589  32.183   0.215   3.269
28275W        W  590  34.544  38.568   1.628
28276W        W  591  17.107  40.631  11.059
28277W        W  592   9.429   1.431  11.880
28278W        W  593   9.192  32.957  12.013
28279W        W  594  38.257  22.939   5.044
28280W        W  595   5.465  18.350  12.536
28281W        W  596  42.086  34.031   1.795
28282W        W  597  31.118  34.520  13.869
28283W        W  598   0.537   0.021  11.745
28284W        W  599   6.607  29.049  14.531
28285W        W  600  36.528  44.846  13.727
28286W        W  601  31.136  32.883   1.229
28287W        W  602  15.775  40.067  14.837
28288W        W  603  23.536   0.479  12.829
28289W        W  604  35.603   0.910   0.133
28290W        W  605  19.716   9.183  10.428
28291W        W  606  44.645   5.433  12.043
28292W        W  607   0.378  32.616   4.840
28293W        W  608  40.944  15.404  10.789
28294W        W  609  30.419  36.383  14.341
28295W        W  610  17.327  15.400   1.306
28296W        W  611  18.095  15.213   2.591
28297W        W  612  14.043  25.150   9.829
28298W        W  613  41.124   2.771  14.995
28299W        W  614  40.040   4.453   3.507
28300W        W  615  18.155   7.359  14.348
28301W        W  616  20.686  22.754   3.159
28302W        W  617  32.541  30.843  14.432
28303W        W  618  26.444  21.097  10.513
28304W        W  619   3.216  28.641   2.336
28305W        W  620  16.162  35.477   4.982
28306W        W  621   9.562  28.390   1.717
28307W        W  622  15.163  21.270   3.234
28308W        W  623  39.717  12.747   3.022
28309W        W  624  15.690  34.122   3.134
28310W        W  625  34.379  14.300  14.136
28311W        W  626   4.267   2.708   0.616
28312W        W  627  17.815  15.529   0.304
28313W        W  628  24.653  26.695  10.768
28314W        W  629  12.845   5.120   0.690
28315W        W  630   2.513  14.237   0.801
28316W        W  631  27.928  17.392  11.024
28317W        W  632  23.200  11.929  11.161
28318W        W  633  11.342  23.209  14.740
28319W        W  634  35.075  41.553  13.901
28320W        W  635  39.253  19.998  13.342
28321W        W  636  21.223  14.142   2.918
28322W        W  637  11.553  14.339   4.724
28323W        W  638  13.225   6.500   3.676
28324W        W  639  33.408  44.714  12.931
28325W        W  640  27.637  44.310  10.887
28326W        W  641  26.855  31.708  13.994
28327W        W  642   5.289  38.639   9.923
28328W        W  643  27.636  40.618  10.378
28329W        W  644  28.587   3.645  10.231
28330W        W  645  17.344  40.911  12.907
28331W        W  646  28.367  12.974   2.411
28332W        W  647  36.908  37.339  11.475
28333W        W  648  31.115   4.656   3.690
28334W        W  649  33.503  35.661  13.425
28335W        W  650  40.426   5.037   5.078
28336W        W  651   2.795  38.088   0.715
28337W        W  652   8.909  27.277   3.126
28338W        W  653  11.719  18.327   2.693
28339W        W  654   2.241  13.546  14.388
28340W        W  655  13.610  37.981  11.556
28341W        W  656  31.559  28.918   2.378
28342W        W  657  27.427  15.628   0.885
28343W        W  658  13.291  43.100  13.524
28344W        W  659  24.122  23.054   4.827
28345W        W  660   0.469  38.152   0.752
28346W        W  661  37.612   2.447   4.257
28347W        W  662  17.640  13.618   2.371
28348W        W  663  15.829  16.717  10.580
28349W        W  664  40.846  22.217   4.228
28350W        W  665  31.860  39.391   3.278
28351W        W  666  35.264  33.902   1.548
28352W        W  667   5.618  30.433   2.354
28353W        W  668   9.940  33.483  10.459
28354W        W  669  39.337  40.899  11.007
28355W        W  670  31.475  28.394   2.296
28356W        W  671   8.857  32.665  11.000
28357W        W  672  20.151  44.964   3.923
28358W        W  673  30.588  29.423   4.168
28359W        W  674  34.665  32.998  13.899
28360W        W  675  37.170  27.950   2.474
28361W        W  676   9.376  22.537  11.538
28362W        W  677  26.348  18.228  14.401
28363W        W  678  38.359  22.052   1.039
28364W        W  679  34.044   2.265  14.050
28365W        W  680  22.974  12.091  12.476
28366W        W  681  32.126  11.068   1.492
28367W        W  682  40.303   8.896  11.860
28368W        W  683  30.674  38.449  12.093
28369W        W  684  36.589  25.077   2.569
28370W        W  685  22.110   9.173   4.504
28371W        W  686  27.656  21.129   4.568
28372W        W  687  32.622  43.813  12.936
28373W        W  688  36.335   7.805  12.367
28374W        W  689   6.962  32.409   1.744
28375W        W  690  11.328  19.492   0.805
28376W        W  691   1.380   1.004   0.878
28377W        W  692  25.500  27.224   1.309
28378W        W  693   4.652  17.103  10.453
28379W        W  694  37.491  35.087  11.658
28380W        W  695  11.909  35.443   0.332
28381W        W  696  22.486   4.966   4.491
28382W        W  697  10.782  13.616   3.965
28383W        W  698  18.905   4.185   1.789
28384W        W  699  20.469  42.747   2.015
28385W        W  700  38.290   0.323  13.831
28386W        W  701   4.678  44.191   4.932
28387W        W  702  33.702  36.659   0.939
28388W        W  703  13.347  23.677   2.350
28389W        W  704  15.243  10.097   1.289
28390W        W  705   6.544   3.588   0.997
28391W        W  706  13.832  21.019  10.369
28392W        W  707  27.176  26.356   2.902
28393W        W  708   6.703  14.253   1.335
28394W        W  709   0.710  25.784  11.511
28395W        W  710   7.147  26.659  10.549
28396W        W  711  18.899   5.672   1.412
28397W        W  712  10.825  30.622   2.005
28398W        W  713  24.706  16.067   1.439
28399W        W  714  39.831  26.110  10.269
28400W        W  715  21.810  27.469   0.430
28401W        W  716  14.531  23.103   3.751
28402W        W  717  37.617   0.791   2.813
28403W        W  718  37.941  34.498   3.244
28404W        W  719  40.448  24.043   5.575
28405W        W  720   3.195  39.565   4.180
28406W        W  721   7.311  11.305   1.937
28407W        W  722  22.986  18.992   5.488
28408W        W  723  43.733   1.790   0.621
28409W        W  724  34.413   6.424   4.036
28410W        W  725   7.682  28.035  10.544
28411W        W  726  37.479  30.069  11.569
28412W        W  727   6.294  25.744  12.969
28413W        W  728  24.142   5.359  14.642
28414W        W  729  42.562  31.409   3.167
28415W        W  730  27.054  19.731   3.641
28416W        W  731  37.771  43.854  11.503
28417W        W  732  21.563  11.090   3.979
28418W        W  733  32.523  19.670  10.643
28419W        W  734  18.008   0.038   4.185
28420W        W  735  38.825  21.288  14.855
28421W        W  736   7.814  38.703  13.785
28422W        W  737  37.356  19.769   4.417
28423W        W  738  10.720  29.036   4.692
28424W        W  739  29.975  41.943   2.151
28425W        W  740   1.202  10.382  13.849
28426W        W  741  14.163  17.845  13.442
28427W        W  742  38.590  33.093   1.728
28428W        W  743   3.845  14.490  12.109
28429W        W  744  33.422  30.076  10.532
28430W        W  745  30.852  22.494   0.810
28431W        W  746  15.753  26.776  10.441
28432W        W  747  24.525  36.057   3.242
28433W        W  748  36.318  18.287  11.091
28434W        W  749  20.720  38.650  13.046
28435W        W  750  29.147   7.881  12.442
28436W        W  751  11.777  32.034  11.537
28437W        W  752  13.540  11.681   3.224
28438W        W  753  19.331  24.798  13.264
28439W        W  754  11.353   2.867  13.349
28440W        W  755  24.556  38.394  13.118
28441W        W  756  21.797  19.024  14.389
28442W        W  757  38.618  42.870  10.013
28443W        W  758  24.929  19.208  14.598
28444W        W  759  26.046  31.080  14.673
28445W        W  760  25.516  26.321  13.787
28446W        W  761  26.590  12.673   3.355
28447W        W  762  31.716  33.965  13.443
28448W        W  763   0.434  13.600   0.169
28449W        W  764  35.493  26.728  14.055
28450W        W  765  26.435  17.767  11.973
28451W        W  766  39.768  13.709   1.193
28452W        W  767  29.112  12.637  13.849
28453W        W  768  25.346  37.689   3.704
28454W        W  769  33.820  11.327  13.998
28455W        W  770  16.040  43.549  11.107
28456W        W  771  16.631  36.333  13.933
28457W        W  772  30.945  37.877   1.321
28458W        W  773  27.752  30.823   4.739
28459W        W  774  44.132  43.948  11.573
28460W        W  775  39.369  25.270  11.089
28461W        W  776   8.327  33.717  11.570
28462W        W  777  23.550  11.838  11.996
28463W        W  778  22.068  30.358  11.202
28464W        W  779  29.960   4.008   4.205
28465W        W  780  37.162   3.705  12.978
28466W        W  781  14.822  14.848  11.142
28467W        W  782  23.755  10.675   1.429
28468W        W  783  18.144  15.091   4.078
28469W        W  784  13.061   5.256   1.170
28470W        W  785  29.098   6.861   2.769
28471W        W  786  19.743   8.914  13.803
28472W        W  787  41.693  22.230   3.913
28473W        W  788  31.893  36.945   1.210
28474W        W  789  41.262  14.363  13.188
28475W        W  790  42.301   4.831  12.407
28476W        W  791   4.358   8.149   4.544
28477W        W  792  15.882  44.360  12.934
28478W        W  793  35.607  33.980   4.646
28479W        W  794   5.966  40.051  10.351
28480W        W  795  24.333  16.750  13.509
28481W        W  796  34.333  39.365  11.520
28482W        W  797  33.522  44.829   3.609
28483W        W  798  18.059  16.832   1.645
28484W        W  799  11.237   6.775   3.860
28485W        W  800  30.920  36.352   0.281
28486W        W  801  43.397   1.408  13.535
28487W        W  802  33.493  15.520   4.412
28488W        W  803  18.119   3.310   3.589
28489W        W  804   1.269   2.437   0.348
28490W        W  805  31.404   1.335   0.486
28491W        W  806  30.415  10.686  14.085
28492W        W  807  33.690  25.026   5.031
28493W        W  808  44.398  41.975   0.751
28494W        W  809  11.250   9.145  13.118
28495W        W  810  20.261  11.759   0.270
28496W        W  811  42.797   3.910  13.572
28497W        W  812  17.657  41.751  13.049
28498W        W  813  15.827  17.550   2.833
28499W        W  814   9.513  15.378   3.835
28500W        W  815  20.960   4.336   0.697
28501W        W  816  37.602  15.122   1.882
28502W        W  817  18.646  40.382  13.879
28503W        W  818   4.422  29.000  13.890
28504W        W  819  35.824  35.566  14.903
28505W        W  820  22.143  40.789  13.042
28506W        W  821   9.251  36.346  13.376
28507W        W  822  38.647   9.279  12.880
28508W        W  823  40.887   9.638  10.458
28509W        W  824  12.047  40.925  12.563
28510W        W  825  33.743  41.013  12.442
28511W        W  826  43.572   0.373  14.317
28512W        W  827  24.029  24.210  14.854
28513W        W  828  43.812  18.680   2.785
28514W        W  829  33.893   3.210  14.341
28515W        W  830  17.910   3.436   4.065
28516W        W  831  25.177  26.978   0.973
28517W        W  832   0.259  12.358   4.195
28518W        W  833  21.927  26.699  12.002
28519W        W  834   0.313  29.361   1.825
28520W        W  835  42.739  38.336  13.407
28521W        W  836  39.458  34.582  12.701
28522W        W  837  39.438  10.711  10.612
28523W        W  838  35.588  34.347  13.562
28524W        W  839  21.375  37.028   3.774
28525W        W  840  30.201   2.829   1.579
28526W        W  841  25.977  13.328  12.549
28527W        W  842  18.009   8.255  14.474
28528W        W  843  42.797  27.741  13.986
28529W        W  844  31.827  33.093  11.261
28530W        W  845   8.458  31.664  14.847
28531W        W  846   8.558  44.525  14.430
28532W        W  847   4.931  28.070   2.920
28533W        W  848  38.339  35.611  13.353
28534W        W  849   3.955   2.185   4.478
28535W        W  850  30.744   0.412  12.489
28536W        W  851  32.219   4.327   0.767
28537W        W  852  21.070  34.244  11.209
28538W        W  853   2.373  34.935  14.314
28539W        W  854  43.987  33.545  11.588
28540W        W  855  41.273  13.424   3.954
28541W        W  856   6.512  17.831  10.620
28542W        W  857  33.400  22.580   0.018
28543W        W  858  19.019   4.458   2.374
28544W        W  859  43.800  28.130   1.595
28545W        W  860  33.508   0.653  14.317
28546W        W  861  21.297  25.023  13.588
28547W        W  862   9.172  39.725   4.054
28548W        W  863  37.497  38.378   1.229
28549W        W  864  22.126  22.774  10.268
28550W        W  865  44.881  27.905  12.567
28551W        W  866  28.731  34.050   5.391
28552W        W  867  36.531  16.677  11.430
28553W        W  868  19.757  38.507   4.135
28554W        W  869  38.483  30.443  12.483
28555W        W  870   6.956  17.784   4.546
28556W        W  871  37.314  36.304  12.408
28557W        W  872  36.538  19.099   3.639
28558W        W  873  18.930  12.185  10.076
28559W        W  874  24.511   8.342  11.390
28560W        W  875  22.551  37.810   3.814
28561W        W  876  32.737  36.332  14.142
28562W        W  877   6.648   2.580  10.964
28563W        W  878  26.609  25.697  14.892
28564W        W  879  20.702  10.261   9.451
28565W        W  880  34.879  32.420   2.754
28566W        W  881  35.572  15.060  14.232
28567W        W  882  33.102  11.387   3.730
28568W        W  883  28.245  23.538   1.665
28569W        W  884  16.374  18.103  11.460
28570W        W  885   9.964  19.151  13.663
28571W        W  886  34.890  17.331   0.469
28572W        W  887  39.517  20.100  13.818
28573W        W  888  25.149   2.518  11.018
28574W        W  889   8.652  27.610   0.755
28575W        W  890  34.568   2.931  13.574
28576W        W  891  37.500  20.532   4.785
28577W        W  892  33.834  41.108  14.770
28578W        W  893  37.570  14.678  13.865
28579W        W  894  42.086   2.884   2.301
28580W        W  895  35.531  42.011   3.317
28581W        W  896   1.006  20.210  14.770
28582W        W  897  34.046  41.984   4.499
28583W        W  898  13.150  23.592   3.729
28584W        W  899  30.917  12.555  12.584
28585W        W  900  32.812  27.109  14.297
28586W        W  901  40.505  42.744   4.137
28587W        W  902  31.124  38.862   0.034
28588W        W  903   2.970  27.206  11.947
28589W        W  904  18.186  26.551   0.278
28590W        W  905  25.454  21.343   2.803
28591W        W  906   0.378  22.984  12.001
28592W        W  907  28.192  15.657  11.167
28593W        W  908  42.252  22.224   2.737
28594W        W  909  27.102  44.400  11.667
28595W        W  910  14.102  16.516  12.636
28596W        W  911  10.722  31.978  12.984
28597W        W  912  18.113  41.896  10.020
28598W        W  913  32.202   3.149  13.505
28599W        W  914  35.029   8.772   0.286
28600W        W  915  26.918  25.128   2.262
28601W        W  916  12.670  41.444   1.891
28602W        W  917   2.330  34.979   5.057
28603W        W  918  12.615   5.983  12.782
28604W        W  919   3.294  11.086   3.900
28605W        W  920  39.996   9.429   3.319
28606W        W  921  36.146  29.185  14.350
28607W        W  922  14.676  23.805   3.391
28608W        W  923  22.739  35.376  13.308
28609W        W  924  16.313   2.721   2.867
28610W        W  925  11.879  28.667  10.352
28611W        W  926  25.780  12.880   5.056
28612W        W  927  26.962  40.048  11.012
28613W        W  928  36.814  33.902   1.164
28614W        W  929  21.292  30.145   2.893
28615W        W  930   6.455   6.321   2.303
28616W        W  931  43.389  30.432  13.571
28617W        W  932  34.674  14.279   2.223
28618W        W  933  43.192   3.733  11.121
28619W        W  934  32.824  42.263  13.281
28620W        W  935  44.304  22.717  14.984
28621W        W  936  20.188  20.299   1.232
28622W        W  937  22.531  24.050  10.188
28623W        W  938  21.962   7.800  13.817
28624W        W  939  38.102  12.075  13.850
28625W        W  940  43.383  30.648   2.680
28626W        W  941   1.737  42.769   0.845
28627W        W  942   1.560  27.912   2.630
28628W        W  943  18.164  42.689   0.237
28629W        W  944   4.559  12.787   2.086
28630W        W  945  36.809  44.587   0.598
28631W        W  946   3.543   4.196  11.153
28632W        W  947   7.102  23.509  11.033
28633W        W  948  16.741   5.834   0.384
28634W        W  949  40.738  26.843  12.008
28635W        W  950  13.665  24.134   2.392
28636W        W  951  24.193  17.690  11.620
28637W        W  952   8.642  29.945  12.950
28638W        W  953  34.823  28.113   1.909
28639W        W  954   8.237   5.454  12.909
28640W        W  955  29.608  32.122   1.334
28641W        W  956  26.029  39.354   4.678
28642W        W  957  17.256  38.326  13.473
28643W        W  958   6.049  36.605   1.834
28644W        W  959   5.326  16.464   0.639
28645W        W  960  33.528   2.224   4.973
28646W        W  961  40.079   5.762  13.066
28647W        W  962   0.798  20.234  13.290
28648W        W  963  36.563  17.119   3.824
28649W        W  964  20.508  32.800   3.296
28650W        W  965  39.477   5.310   4.078
28651W        W  966  11.769   9.509  14.432
28652W        W  967  32.433  44.101  10.089
28653W        W  968   4.744  33.507  14.510
28654W        W  969  38.409  21.010   2.675
28655W        W  970  12.187  22.195   4.744
28656W        W  971  43.540  37.312  13.288
28657W        W  972  34.465  29.665  12.447
28658W        W  973   2.494  29.203  11.211
28659W        W  974  35.010   1.350  10.442
28660W        W  975  31.868  24.070  11.050
28661W        W  976  41.069  29.061  11.485
28662W        W  977  42.432   8.089  10.686
28663W        W  978  26.058  33.825  12.945
28664W        W  979  11.887  27.774   3.277
28665W        W  980  14.718  13.394  11.327
28666W        W  981  36.579  31.567   0.966
28667W        W  982   3.284  17.820  10.068
28668W        W  983  23.538  37.321   3.647
28669W        W  984  35.120  37.843   1.815
28670W        W  985  35.379  11.887  11.200
28671W        W  986   1.694  12.876  13.010
28672W        W  987  17.060  13.025  10.289
28673W        W  988  42.970   3.176  14.542
28674W        W  989   0.622   3.520  14.628
28675W        W  990   3.441  34.626  12.501
28676W        W  991   3.763  21.461   2.444
28677W        W  992  44.786   9.704   5.409
28678W        W  993  23.705  44.350   5.084
28679W        W  994  29.187  14.841  11.329
28680W        W  995  37.882  34.978   4.470
28681W        W  996  25.593  13.044   0.852
28682W        W  997   2.240  39.462   3.242
28683W        W  998  24.493  39.775  11.377
28684W        W  999  10.101  32.316   4.580
28685W        W 1000   2.700  28.542   2.296
28686W        W 1001   6.677  29.649  11.125
28687W        W 1002  43.075  40.835  14.816
28688W        W 1003   5.892  31.969   3.398
28689W        W 1004  24.893  26.529   3.296
28690W        W 1005  11.075  39.990   3.855
28691W        W 1006  25.173  32.694  13.097
28692W        W 1007  21.049  15.516  10.753
28693W        W 1008  30.460  39.489  11.145
28694W        W 1009  36.407  44.988   1.299
28695W        W 1010  33.532  18.092  10.795
28696W        W 1011  27.590  19.986  12.484
28697W        W 1012  26.133   1.901  11.236
28698W        W 1013   2.513  38.479   3.980
28699W        W 1014  35.562  39.074  12.517
28700W        W 1015   1.035  44.270  14.767
28701W        W 1016  21.538   2.485  11.227
28702W        W 1017  31.322   3.209   1.229
28703W        W 1018   9.628  10.454  14.311
28704W        W 1019  40.348  44.359  10.681
28705W        W 1020  10.538  28.283  12.493
28706W        W 1021  43.216  35.477   2.282
28707W        W 1022  20.354  13.242   2.321
28708W        W 1023   9.582  19.011   0.376
28709W        W 1024  15.509  20.024   2.726
28710W        W 1025  38.532  38.594   0.737
28711W        W 1026   2.921  38.989   4.038
28712W        W 1027  33.581  35.632  11.147
28713W        W 1028  32.921  15.205   4.811
28714W        W 1029  28.030  29.649   3.247
28715W        W 1030   0.517   4.949   0.725
28716W        W 1031  16.715  23.262  10.989
28717W        W 1032  35.769  16.583   4.148
28718W        W 1033  13.706   8.270  11.562
28719W        W 1034  12.733  19.606   2.899
28720W        W 1035   1.365  14.485  11.122
28721W        W 1036  24.678  17.534   1.620
28722W        W 1037  30.212  40.112  11.650
28723W        W 1038   4.010  32.986  10.598
28724W        W 1039  44.468  37.452   3.389
28725W        W 1040  23.667  39.915  14.819
28726W        W 1041  11.850  28.623  10.872
28727W        W 1042   8.692  42.768  12.604
28728W        W 1043  40.846  27.856  13.398
28729W        W 1044  15.368  34.344   2.662
28730W        W 1045  26.445  23.989  11.199
28731W        W 1046  31.314   0.817  14.293
28732W        W 1047  20.720  35.923   3.162
28733W        W 1048  39.860  26.195  13.498
28734W        W 1049   6.120  42.283   2.620
28735W        W 1050  17.989  37.840   0.324
28736W        W 1051   1.400  10.626  12.483
28737W        W 1052   9.895  28.509   2.697
28738W        W 1053   8.745   4.938  10.339
28739W        W 1054   0.355   9.405  13.366
28740W        W 1055  22.543  23.516   0.835
28741W        W 1056   6.906  35.470  12.120
28742W        W 1057   4.890  10.411   1.505
28743W        W 1058  19.657  14.352  12.971
28744W        W 1059  11.660  25.534   3.396
28745W        W 1060  17.307  39.110   4.578
28746W        W 1061   3.316  37.732  14.778
28747W        W 1062  20.798  44.500   2.322
28748W        W 1063   8.323  25.558  13.571
28749W        W 1064  29.305  16.902   2.466
28750W        W 1065  17.273   6.388   0.295
28751W        W 1066  12.202  17.703   4.261
28752W        W 1067  31.111  18.659   1.883
28753W        W 1068  33.862  35.464  14.474
28754W        W 1069  18.214  36.772  13.315
28755W        W 1070  11.602  35.546  10.742
28756W        W 1071  21.474   9.477  12.923
28757W        W 1072  27.314   0.470   1.895
28758W        W 1073  30.416  32.077   5.030
28759W        W 1074  20.617  22.293   4.038
28760W        W 1075  27.359  29.937  12.725
28761W        W 1076  26.676  12.079   0.330
28762W        W 1077  29.912   5.261  13.392
28763W        W 1078  30.915  17.004  10.565
28764W        W 1079  25.511  15.793  12.062
28765W        W 1080  17.110   1.901  11.138
28766W        W 1081  39.905  30.003  12.462
28767W        W 1082  25.019   3.999  12.587
28768W        W 1083   2.213   0.599  14.052
28769W        W 1084   1.402  32.433  14.450
28770W        W 1085   2.820  15.336   0.004
28771W        W 1086  36.620  42.345   0.174
28772W        W 1087  23.926  25.563   2.745
28773W        W 1088  25.203  22.396  12.829
28774W        W 1089  38.759  24.251   0.917
28775W        W 1090  15.759  44.865  13.517
28776W        W 1091  12.378  39.360   4.201
28777W        W 1092  32.016   4.009   2.191
28778W        W 1093  31.177  30.516  13.134
28779W        W 1094   6.251  32.699   2.214
28780W        W 1095  27.023  44.230  13.072
28781W        W 1096  41.808  42.136  11.632
28782W        W 1097  39.862  11.889   2.176
28783W        W 1098   3.837  19.069   4.889
28784W        W 1099  43.864  33.097  11.831
28785W        W 1100  38.013  43.846   1.921
28786W        W 1101  27.525  16.110   0.795
28787W        W 1102  42.760  39.826   3.580
28788W        W 1103  35.606  13.113   1.446
28789W        W 1104  38.791  39.897   1.512
28790W        W 1105  42.800   9.233   0.316
28791W        W 1106  26.715  33.166  10.458
28792W        W 1107  36.407   9.170   2.803
28793W        W 1108  41.395  30.232   2.828
28794W        W 1109  31.311  26.469  10.143
28795W        W 1110  39.934  28.104   2.687
28796W        W 1111  17.256  34.678   1.386
28797W        W 1112  23.303  25.066   2.342
28798W        W 1113  26.971   1.332  10.663
28799W        W 1114  10.188  37.377   1.863
28800W        W 1115  33.097  30.384  13.050
28801W        W 1116  35.467   1.035  14.634
28802W        W 1117  30.681  29.685  11.105
28803W        W 1118  12.283  29.716  12.906
28804W        W 1119  40.672  44.381   0.620
28805W        W 1120  29.479  19.197   4.534
28806W        W 1121  39.461  43.456  13.603
28807W        W 1122  44.772  20.378  13.602
28808W        W 1123   1.713  40.535  13.825
28809W        W 1124  42.120  34.618   2.305
28810W        W 1125  24.609  27.188  10.955
28811W        W 1126  25.546   0.897  13.524
28812W        W 1127  40.052  22.542  12.015
28813W        W 1128  38.081   0.250   3.656
28814W        W 1129  36.438  18.210   1.311
28815W        W 1130  44.008  34.955  11.517
28816W        W 1131  25.580  12.389   4.701
28817W        W 1132  10.349  32.958   3.161
28818W        W 1133  39.283  29.389   0.593
28819W        W 1134   9.789  24.231  11.134
28820W        W 1135  35.057  21.830  14.904
28821W        W 1136  16.305  21.119  13.293
28822W        W 1137   4.254   6.838  12.143
28823W        W 1138  23.549   5.780   2.709
28824W        W 1139  22.955   9.583  10.627
28825W        W 1140  43.380  17.114  10.312
28826W        W 1141  32.834  24.668  12.544
28827W        W 1142  17.570  42.249  14.182
28828W        W 1143  18.220  31.655   1.363
28829W        W 1144   3.742  14.174   4.879
28830W        W 1145  26.301  27.818   4.212
28831W        W 1146   3.390  28.583  12.424
28832W        W 1147  44.317  13.594  10.859
28833W        W 1148  23.708  42.958  14.760
28834W        W 1149  32.295  11.320   4.106
28835W        W 1150   0.199  24.483  13.395
28836W        W 1151  29.770  23.492   1.968
28837W        W 1152   9.159  25.144  13.900
28838W        W 1153  20.944   4.908   4.588
28839W        W 1154  26.463  42.329   3.646
28840W        W 1155  38.341  20.570   2.943
28841W        W 1156   7.936   7.322  11.465
28842W        W 1157  12.184  43.754   4.296
28843W        W 1158  20.649   6.174   3.937
28844W        W 1159   3.454   1.168   0.755
28845W        W 1160  16.595  11.461   1.168
28846W        W 1161  41.923  34.170  11.577
28847W        W 1162  36.453  37.849   2.015
28848W        W 1163  44.943   2.209  11.968
28849W        W 1164  24.169  26.588  10.991
28850W        W 1165  18.069  28.555   3.205
28851W        W 1166  16.007  29.737  12.944
28852W        W 1167   2.058   4.156  10.906
28853W        W 1168  40.345  40.053  13.971
28854W        W 1169  42.600  30.003   2.508
28855W        W 1170  37.628   6.769   0.332
28856W        W 1171  13.206  40.609  10.314
28857W        W 1172  33.610  23.193  10.545
28858W        W 1173   3.944  30.076   4.886
28859W        W 1174   4.264  18.324   3.256
28860W        W 1175  11.362  15.501  13.883
28861W        W 1176  17.150  34.930  14.560
28862W        W 1177  19.795  21.730  12.612
28863W        W 1178  32.002  16.575   0.398
28864W        W 1179   5.467  44.833   2.232
28865W        W 1180  34.376  35.381  14.495
28866W        W 1181  39.099  41.774  10.523
28867W        W 1182  28.608  37.982  11.613
28868W        W 1183  23.738  43.234  10.994
28869W        W 1184  23.339  40.580  13.490
28870W        W 1185  22.339  12.669   2.453
28871W        W 1186   3.442  19.026  12.875
28872W        W 1187  23.048  37.942   3.175
28873W        W 1188  35.936  43.491  13.502
28874W        W 1189  33.770   5.687  11.055
28875W        W 1190  11.307  40.386  12.500
28876W        W 1191  10.218  25.464   0.331
28877W        W 1192  22.601  41.187   2.346
28878W        W 1193   9.421  14.653   4.310
28879W        W 1194  39.424  31.492  13.976
28880W        W 1195   1.155  43.869  10.508
28881W        W 1196  43.243  31.222  11.572
28882W        W 1197  18.057  27.187  11.003
28883W        W 1198  33.038   2.938   2.701
28884W        W 1199  42.648  20.514  12.499
28885W        W 1200  25.942  37.089  12.950
28886W        W 1201  23.236  25.779   4.214
28887W        W 1202  27.458  24.653  14.297
28888W        W 1203  27.306  27.469   0.483
28889W        W 1204   5.231  11.578   2.656
28890W        W 1205  42.843   9.502  11.131
28891W        W 1206  36.419  26.730   3.612
28892W        W 1207  42.097  24.706   2.589
28893W        W 1208  26.492  16.389   4.518
28894W        W 1209   3.331   9.629  14.002
28895W        W 1210  40.424   6.802   1.695
28896W        W 1211  14.774   1.213   1.839
28897W        W 1212   5.161  15.598  13.358
28898W        W 1213  15.289  10.160  13.942
28899W        W 1214  43.715  40.889   3.601
28900W        W 1215  28.619  25.726   4.652
28901W        W 1216  39.490  43.708   2.598
28902W        W 1217  31.160  42.434  11.254
28903W        W 1218  26.477  29.943  10.741
28904W        W 1219  23.135  12.865   0.920
28905W        W 1220  21.411  18.119   1.440
28906W        W 1221  11.766   2.319   4.978
28907W        W 1222  32.248  32.233   4.106
28908W        W 1223  28.221  17.220  14.981
28909W        W 1224  19.518  12.116   0.498
28910W        W 1225   8.199   5.684  13.945
28911W        W 1226  19.532  10.180  11.864
28912W        W 1227  17.501   0.672  10.740
28913W        W 1228  18.829   9.337   1.502
28914W        W 1229   8.351  18.858  14.443
28915W        W 1230  19.449  34.376   0.356
28916W        W 1231  29.883  29.373   3.146
28917W        W 1232   4.971  27.764  14.246
28918W        W 1233  18.442  39.896  13.317
28919W        W 1234  14.193   5.739  14.486
28920W        W 1235   8.810   0.908   3.400
28921W        W 1236  38.801   6.379  12.037
28922W        W 1237  23.537  28.166   3.307
28923W        W 1238  27.659  25.754  11.113
28924W        W 1239  25.036  11.341   3.754
28925W        W 1240  12.092  36.209  12.002
28926W        W 1241  34.535  42.935   1.509
28927W        W 1242  39.299  44.338  11.420
28928W        W 1243  26.184  38.366   4.825
28929W        W 1244  10.140  22.746   4.183
28930W        W 1245  19.587  28.915   2.360
28931W        W 1246   4.860  32.657  10.532
28932W        W 1247  29.351  37.499   3.202
28933W        W 1248   4.906  11.302   1.324
28934W        W 1249  30.646  23.185   4.030
28935W        W 1250  34.965  43.938  10.479
28936W        W 1251  20.905  28.880  14.044
28937W        W 1252   5.908  13.519  12.941
28938W        W 1253  39.269  22.152   3.317
28939W        W 1254  27.723  36.354  14.890
28940W        W 1255  43.836  39.856  10.767
28941W        W 1256  37.410   5.186   0.269
28942W        W 1257   7.209   2.321   5.106
28943W        W 1258  22.552  26.227   0.677
28944W        W 1259  23.984  32.909   3.109
28945W        W 1260  29.258  36.088  11.039
28946W        W 1261   4.424  27.201  12.370
28947W        W 1262  37.362   2.348  12.992
28948W        W 1263  39.531  13.483   2.892
28949W        W 1264  34.838  26.690  11.432
28950W        W 1265   5.928  36.561  14.138
28951W        W 1266  36.354   4.618   1.492
28952W        W 1267  15.894   2.185   0.124
28953W        W 1268   4.535  36.920   4.625
28954W        W 1269  33.535  21.691   1.473
28955W        W 1270  41.853  42.904   0.171
28956W        W 1271  44.186  21.201   2.772
28957W        W 1272  31.052  29.014  11.511
28958W        W 1273   3.991  36.104   0.814
28959W        W 1274  22.253  31.624  10.970
28960W        W 1275  26.375   2.400  10.543
28961W        W 1276  31.626  33.636  12.647
28962W        W 1277  19.752  36.581   0.678
28963W        W 1278  41.741   3.588  11.082
28964W        W 1279   7.294  23.180  13.807
28965W        W 1280  27.993   7.125  10.608
28966W        W 1281   4.825  21.442   2.330
28967W        W 1282  24.646  31.520   2.338
28968W        W 1283  39.401  10.255   0.401
28969W        W 1284  40.236   9.651   2.865
28970W        W 1285  39.921   5.743   3.035
28971W        W 1286   7.296  23.686  13.827
28972W        W 1287  32.416  22.029   4.551
28973W        W 1288   1.472  18.228   1.789
28974W        W 1289  17.586  37.837   4.624
28975W        W 1290  13.747   0.648   1.323
28976W        W 1291   0.991  19.096   4.165
28977W        W 1292   9.782  37.870  10.950
28978W        W 1293  27.881  36.636  10.751
28979W        W 1294  30.839  29.642   3.522
28980W        W 1295  17.038  31.888  11.845
28981W        W 1296  17.735  44.198   0.744
28982W        W 1297  27.419   8.631   4.265
28983W        W 1298  19.627  27.176   0.019
28984W        W 1299  25.063  23.396  12.940
28985W        W 1300  35.834   8.091  14.011
28986W        W 1301  18.613  15.043   1.390
28987W        W 1302  43.463   5.395   3.662
28988W        W 1303  41.361  18.794  13.405
28989W        W 1304   1.584  19.901  12.430
28990W        W 1305  18.538   4.700   2.640
28991W        W 1306   8.481  30.184  14.978
28992W        W 1307  18.779   0.864   0.478
28993W        W 1308  30.301  19.440   2.963
28994W        W 1309  11.095  12.174  12.659
28995W        W 1310  22.736   4.486  12.876
28996W        W 1311  28.960  18.801   3.197
28997W        W 1312  43.938   0.754   1.652
28998W        W 1313  27.586  19.109  12.823
28999W        W 1314  12.362  39.830  11.071
29000W        W 1315  11.126   6.629  11.462
29001W        W 1316   9.179  18.279   4.782
29002W        W 1317  31.508  33.125   0.443
29003W        W 1318  15.710   4.187   5.193
29004W        W 1319  44.375   2.911   4.556
29005W        W 1320  17.164  24.254   3.274
29006W        W 1321  12.888  38.661  11.531
29007W        W 1322   5.689  38.364  11.526
29008W        W 1323  33.937  32.655  14.547
29009W        W 1324  30.669  33.162   1.867
29010W        W 1325  44.726  12.792  10.630
29011W        W 1326  33.301  29.645   1.901
29012W        W 1327  36.072   5.149  11.091
29013W        W 1328  23.468  21.103  10.737
29014W        W 1329  17.686   9.335   3.711
29015W        W 1330  41.462  30.077   3.617
29016W        W 1331   7.125  21.198  14.224
29017W        W 1332  35.643  42.483   3.096
29018W        W 1333   7.670  36.383  13.028
29019W        W 1334  16.084  29.939  11.108
29020W        W 1335  41.019  17.115   4.846
29021W        W 1336  44.705  31.712   2.331
29022W        W 1337  34.010  34.772  11.226
29023W        W 1338   6.864  23.990   1.015
29024W        W 1339  27.992  16.544   2.175
29025W        W 1340  24.682  30.626   2.893
29026W        W 1341   1.817   3.749   3.674
29027W        W 1342  33.167  13.793   4.911
29028W        W 1343  25.653   6.576  10.881
29029W        W 1344  40.558  15.580   3.696
29030W        W 1345  23.882   8.767   0.942
29031W        W 1346   8.232   8.141   3.749
29032W        W 1347  44.286  15.838   3.713
29033W        W 1348  33.517  37.849   1.372
29034W        W 1349  42.974  37.897   4.778
29035W        W 1350  19.608  42.780   1.865
29036W        W 1351  28.154   1.817   3.670
29037W        W 1352  39.023   6.845   4.555
29038W        W 1353  20.016  16.333  11.936
29039W        W 1354  43.505  23.646   3.691
29040W        W 1355  29.149  31.004  13.348
29041W        W 1356  30.876  38.434  11.638
29042W        W 1357  10.835   6.242   4.172
29043W        W 1358  42.808  11.280  13.877
29044W        W 1359  20.136  35.641   3.118
29045W        W 1360  19.886  28.579  13.940
29046W        W 1361  27.594   1.205  11.445
29047W        W 1362  12.257  31.069  13.271
29048W        W 1363   9.917   6.711   0.287
29049W        W 1364  14.602  24.943   5.141
29050W        W 1365  24.032  26.746  11.483
29051W        W 1366   3.009   3.455  12.645
29052W        W 1367  23.156  44.755  11.311
29053W        W 1368   0.958  35.733   1.414
29054W        W 1369  32.130  17.514   3.149
29055W        W 1370  21.204  31.620  12.007
29056W        W 1371  41.761  32.457  13.561
29057W        W 1372   1.961  34.621   5.087
29058W        W 1373  14.055  32.444   0.703
29059W        W 1374  20.973  30.083   1.293
29060W        W 1375   1.454  30.991  13.122
29061W        W 1376  21.494  36.507   1.695
29062W        W 1377   3.762  39.319  11.913
29063W        W 1378   4.245  32.149   0.010
29064W        W 1379  28.223   4.831  12.845
29065W        W 1380  17.380   7.702  14.355
29066W        W 1381  13.838  41.328  10.409
29067W        W 1382  24.013  34.936  12.818
29068W        W 1383  21.730  41.707   2.822
29069W        W 1384  30.810  15.965  11.571
29070W        W 1385  28.637  31.585   4.649
29071W        W 1386  18.330   0.930   0.757
29072W        W 1387   6.328  40.162  12.452
29073W        W 1388  30.889  30.931   0.906
29074W        W 1389   9.311  15.007  13.908
29075W        W 1390  43.857   3.226  14.739
29076W        W 1391  11.676  10.869   2.181
29077W        W 1392  44.050  21.710  13.924
29078W        W 1393  34.019  34.871  14.718
29079W        W 1394   3.746   7.993   0.283
29080W        W 1395  14.681  35.348   0.887
29081W        W 1396  35.367  27.590   1.242
29082W        W 1397   5.774  43.356   0.890
29083W        W 1398  28.627   0.772  11.131
29084W        W 1399  20.419  17.328  12.452
29085W        W 1400   7.818  19.200  12.076
29086W        W 1401  27.175  44.204  14.773
29087W        W 1402  28.867  40.558  11.560
29088W        W 1403  11.268  26.243   0.824
29089W        W 1404  40.275   3.396   1.327
29090W        W 1405   6.529   2.964   5.226
29091W        W 1406  35.392  18.758  13.802
29092W        W 1407   2.494  13.142   4.538
29093W        W 1408  17.612  20.579   2.766
29094W        W 1409  38.344  39.534  11.495
29095W        W 1410  19.640   2.899  14.785
29096W        W 1411  44.268   7.855  14.324
29097W        W 1412   2.724  26.614   1.733
29098W        W 1413  41.093   4.785  10.775
29099W        W 1414  29.913  14.377   1.485
29100W        W 1415   0.374  22.970   3.063
29101W        W 1416  44.692  33.516  13.532
29102W        W 1417   5.872  35.455   0.211
29103W        W 1418  20.321  14.153   0.793
29104W        W 1419  30.959  14.013  10.206
29105W        W 1420   6.917  36.330  14.346
29106W        W 1421   8.249  31.886  11.966
29107W        W 1422  42.976  29.356   4.464
29108W        W 1423  41.886   5.592  11.127
29109W        W 1424  26.918  22.599   0.398
29110W        W 1425  42.008   7.807  12.866
29111W        W 1426  41.045   2.503  10.677
29112W        W 1427  14.063  11.715   3.270
29113W        W 1428  13.975   2.296  12.842
29114W        W 1429  34.142  26.720   2.758
29115W        W 1430  32.120  37.539   4.079
29116W        W 1431  30.029   3.916   3.207
29117W        W 1432   1.240  16.176  11.907
29118W        W 1433  17.807  41.799   3.855
29119W        W 1434   7.768  41.438   3.187
29120W        W 1435   8.790   4.915  13.812
29121W        W 1436  34.744  31.615   4.138
29122W        W 1437  15.544  17.176  13.017
29123W        W 1438  15.569   8.260  14.929
29124W        W 1439  44.287  11.642   1.735
29125W        W 1440  11.728   2.028  12.086
29126W        W 1441  29.657   3.161   3.131
29127W        W 1442   9.427  31.551   0.215
29128W        W 1443  41.749   1.983  12.980
29129W        W 1444  15.381  32.346  13.917
29130W        W 1445  33.143  25.015  11.251
29131W        W 1446   1.572  13.079  11.756
29132W        W 1447  38.303  15.637  10.095
29133W        W 1448  16.770  28.987   1.948
29134W        W 1449  42.988  27.774  12.454
29135W        W 1450  42.077   1.782  14.744
29136W        W 1451  20.143  24.053  10.988
29137W        W 1452   0.819  22.848   2.364
29138W        W 1453  35.051  30.223  13.974
29139W        W 1454   6.860  38.875  13.352
29140W        W 1455  10.390  26.952   4.088
29141W        W 1456  23.695   1.856   1.814
29142W        W 1457   4.992  30.237   1.653
29143W        W 1458  37.336  39.951   4.748
29144W        W 1459  43.926   6.406  14.130
29145W        W 1460  13.797   5.916   2.253
29146W        W 1461  23.580  20.578   3.228
29147W        W 1462  18.315  17.707   3.138
29148W        W 1463  26.262  44.472   2.518
29149W        W 1464   0.493  13.089   0.286
29150W        W 1465  32.062  40.250  13.819
29151W        W 1466  39.820  23.848   9.961
29152W        W 1467  35.595   9.302  13.124
29153W        W 1468   3.109  25.335   1.397
29154W        W 1469   4.692  34.291  11.257
29155W        W 1470   1.288  18.106   2.757
29156W        W 1471  10.006  35.090   2.419
29157W        W 1472  11.217  33.783  13.980
29158W        W 1473   0.874  44.083  13.021
29159W        W 1474   9.572  33.976  11.982
29160W        W 1475  22.837  44.980  12.071
29161W        W 1476  44.618  18.282  13.980
29162W        W 1477  18.607  13.854   4.606
29163W        W 1478   2.555  41.981   0.886
29164W        W 1479   8.087  39.128  11.111
29165W        W 1480  21.813   4.436  14.750
29166W        W 1481   0.966  17.872  11.980
29167W        W 1482  41.865   8.912   4.645
29168W        W 1483  34.155   8.110  14.325
29169W        W 1484   7.414   2.530  14.391
29170W        W 1485  29.603  38.513  11.137
29171W        W 1486  44.963   5.877   3.104
29172W        W 1487  23.413  25.648   0.723
29173W        W 1488  22.688  33.671  12.811
29174W        W 1489  14.212  24.619   1.833
29175W        W 1490   9.370  19.405   1.728
29176W        W 1491  21.248  44.745  14.515
29177W        W 1492  19.651   5.456   1.810
29178W        W 1493   5.522  32.350   0.392
29179W        W 1494  30.091  33.499   2.905
29180W        W 1495  41.752  25.177  14.441
29181W        W 1496   4.091  33.649   0.944
29182W        W 1497   8.300   5.589  12.019
29183W        W 1498  37.564  32.527   1.430
29184W        W 1499  19.661  13.636   2.900
29185W        W 1500  41.539  38.339   0.478
29186W        W 1501  44.026   0.958  11.198
29187W        W 1502  10.198  14.154  12.493
29188W        W 1503  13.293  19.108  11.388
29189W        W 1504  39.047  40.438  10.871
29190W        W 1505  24.542  16.516  11.519
29191W        W 1506  39.916  36.235  13.787
29192W        W 1507  43.710  11.856   5.440
29193W        W 1508  29.458  34.198  11.119
29194W        W 1509   1.195   9.863  12.895
29195W        W 1510  20.021  26.220   0.275
29196W        W 1511  12.807  35.107  13.031
29197W        W 1512  34.368  30.167  11.008
29198W        W 1513   9.454   5.507  14.802
29199W        W 1514  27.483  30.985   3.686
29200W        W 1515  31.415  18.793  14.254
29201W        W 1516  36.323  24.025   4.463
29202W        W 1517   4.748  23.731   2.950
29203W        W 1518  36.799  12.664   2.807
29204W        W 1519  28.928  14.794   3.681
29205W        W 1520  30.136   0.241  14.902
29206W        W 1521   0.944  10.371   2.745
29207W        W 1522   9.117  32.656   0.828
29208W        W 1523   9.450  24.501  14.517
29209W        W 1524  19.722   1.317   4.412
29210W        W 1525  43.041   2.335  12.602
29211W        W 1526  38.059   6.851  11.032
29212W        W 1527  39.093  26.153   0.051
29213W        W 1528   0.092  38.552   1.882
29214W        W 1529  30.676  35.416  13.320
29215W        W 1530  38.908   1.589   2.303
29216W        W 1531  39.892  26.585   5.173
29217W        W 1532  41.744  41.297   4.210
29218W        W 1533  19.517  14.196   2.201
29219W        W 1534  32.445  16.698   2.304
29220W        W 1535  15.135  11.891   1.191
29221W        W 1536   4.649  23.272   1.463
29222W        W 1537  30.607  37.020   5.062
29223W        W 1538  16.828   9.189  11.166
29224W        W 1539  18.392  39.937  12.446
29225W        W 1540  15.086  35.612   3.287
29226W        W 1541   2.234   0.468   2.807
29227W        W 1542  14.191  23.433  10.269
29228W        W 1543  29.823   9.473   4.209
29229W        W 1544   0.445  39.389  12.467
29230W        W 1545  44.435  34.674  14.341
29231W        W 1546  24.943  38.622  14.853
29232W        W 1547  14.562  11.765   4.257
29233W        W 1548  29.540  40.360   1.763
29234W        W 1549  28.751  22.975   0.375
29235W        W 1550  31.147  14.165   4.179
29236W        W 1551  27.165  27.205  11.562
29237W        W 1552   7.744  32.974  13.843
29238W        W 1553  28.748   1.336   3.902
29239W        W 1554  39.930  32.179  13.408
29240W        W 1555  18.041   4.705  12.443
29241W        W 1556  41.750  28.416  14.394
29242W        W 1557  32.501  18.575  11.531
29243W        W 1558  41.335   0.789   0.977
29244W        W 1559  31.131   6.930  11.005
29245W        W 1560  43.744  19.686  12.895
29246W        W 1561  33.442  39.433  11.581
29247W        W 1562  25.895   3.161  13.894
29248W        W 1563  13.135  35.848   0.050
29249W        W 1564  25.552  24.984   0.447
29250W        W 1565  21.483  19.621  11.663
29251W        W 1566  34.127  40.363  14.503
29252W        W 1567  21.007   3.313  12.659
29253W        W 1568  28.521   3.155  12.447
29254W        W 1569   2.725   4.791   2.178
29255W        W 1570  24.080  43.992  11.961
29256W        W 1571  19.554  39.082  14.322
29257W        W 1572  10.724  40.470   4.700
29258W        W 1573  25.075  35.070   3.791
29259W        W 1574   4.029  44.993  14.577
29260W        W 1575  13.770  22.547  13.768
29261W        W 1576   1.325  29.859   2.299
29262W        W 1577  37.561   3.469  12.087
29263W        W 1578  19.848  13.890   0.896
29264W        W 1579  21.578  11.127   2.750
29265W        W 1580  12.387   5.093  14.780
29266W        W 1581  29.432  27.436   4.622
29267W        W 1582   2.559   6.227   2.203
29268W        W 1583   0.858  42.073  13.013
29269W        W 1584  41.853  42.379   1.486
29270W        W 1585  20.632  26.457   1.098
29271W        W 1586  42.706   8.361   3.105
29272W        W 1587  18.617  26.746  10.684
29273W        W 1588   9.477  17.577  10.762
29274W        W 1589  35.036  31.320   0.785
29275W        W 1590  20.257  40.019   0.210
29276W        W 1591   2.341   6.705  14.745
29277W        W 1592  38.606  38.865  10.377
29278W        W 1593  18.105  20.288  14.756
29279W        W 1594  18.228  24.767  11.290
29280W        W 1595  20.817  29.071  13.293
29281W        W 1596  22.208  42.549   4.105
29282W        W 1597  24.703  35.840  11.577
29283W        W 1598  21.727  12.906  11.978
29284W        W 1599  30.335  43.001  11.325
29285W        W 1600   9.905  40.915  14.338
29286W        W 1601   1.023  11.507  12.804
29287W        W 1602   9.243   0.461  10.638
29288W        W 1603   8.268  17.200   2.628
29289W        W 1604  15.162  39.579   2.210
29290W        W 1605   5.972  35.386  14.705
29291W        W 1606  23.470  15.603   0.938
29292W        W 1607   8.628   5.015  12.514
29293W        W 1608  25.113  20.997  14.948
29294W        W 1609   8.266  25.872   1.778
29295W        W 1610   8.615  24.586  13.406
29296W        W 1611  35.649  26.524   4.139
29297W        W 1612  42.013   5.887  12.184
29298W        W 1613  36.926  22.509  11.147
29299W        W 1614  19.780  25.691  12.434
29300W        W 1615  44.416  10.489   3.307
29301W        W 1616   4.023  25.283  12.342
29302W        W 1617  27.127  20.543  10.639
29303W        W 1618  11.399   3.234   4.945
29304W        W 1619  11.662  17.655  13.365
29305W        W 1620   0.258  14.634   1.410
29306W        W 1621  12.420   7.195   4.157
29307W        W 1622  15.356  32.546  11.745
29308W        W 1623   8.808  15.805  11.171
29309W        W 1624  10.281  39.399  11.493
29310W        W 1625  12.172   4.143  13.037
29311W        W 1626  14.841  31.500  13.908
29312W        W 1627  30.372   7.853   3.665
29313W        W 1628  23.304  42.021  14.881
29314W        W 1629  28.985   8.207   1.237
29315W        W 1630  16.598  17.735  12.041
29316W        W 1631   2.210  21.059  11.209
29317W        W 1632  18.177  14.076  11.092
29318W        W 1633  31.218  41.340  14.752
29319W        W 1634   0.670   9.873   9.874
29320W        W 1635  16.072   1.010  14.926
29321W        W 1636  24.073  27.213  12.608
29322W        W 1637  10.825  19.525   0.971
29323W        W 1638  44.513  29.124   0.217
29324W        W 1639  41.063  20.285  12.072
29325W        W 1640  34.268  16.110  12.674
29326W        W 1641   1.200  37.344   2.188
29327W        W 1642  40.530  37.952   3.394
29328W        W 1643  15.325   1.062   4.506
29329W        W 1644  39.926  14.826   1.867
29330W        W 1645  21.502  23.235  14.462
29331W        W 1646  26.383  38.796  14.984
29332W        W 1647  37.462  44.424   4.608
29333W        W 1648  13.119  43.997   3.348
29334W        W 1649   4.939  26.164   3.719
29335W        W 1650  24.293  29.420  10.766
29336W        W 1651   0.369   3.628  11.973
29337W        W 1652  44.950  44.915   3.766
29338W        W 1653   6.863  29.054   3.577
29339W        W 1654  29.159  36.412   1.242
29340W        W 1655   4.805  11.179  11.034
29341W        W 1656  33.886  30.120  10.756
29342W        W 1657   7.930  23.339  10.901
29343W        W 1658  16.109  11.299  11.322
29344W        W 1659   3.762   9.956   2.096
29345W        W 1660  36.092  20.340  14.895
29346W        W 1661  17.517  11.837  13.312
29347W        W 1662  41.094   8.480  13.753
29348W        W 1663  13.466  15.040   2.946
29349W        W 1664  12.086  17.557   0.206
29350W        W 1665  22.532  11.934   1.780
29351W        W 1666  17.995  24.587   0.372
29352W        W 1667  44.378  17.822  13.746
29353W        W 1668  23.243  30.923   0.993
29354W        W 1669   3.342   5.083  11.988
29355W        W 1670  15.863  37.006  14.276
29356W        W 1671  36.091   8.722  13.319
29357W        W 1672  33.504  39.814   2.442
29358W        W 1673  43.208  24.660  11.242
29359W        W 1674  18.461  12.516   4.280
29360W        W 1675   2.757   2.068   3.934
29361W        W 1676   5.134   7.390   0.174
29362W        W 1677   2.547  29.075   4.940
29363W        W 1678  33.248  44.583   2.255
29364W        W 1679   5.633  35.277  14.173
29365W        W 1680   4.535  32.980  12.952
29366W        W 1681  41.113  44.297   4.516
29367W        W 1682  24.451  21.728   4.198
29368W        W 1683   5.330  44.261  11.071
29369W        W 1684  30.740  13.620   1.968
29370W        W 1685   8.801   4.239  10.955
29371W        W 1686  39.274  20.690  11.922
29372W        W 1687  20.548  37.597   2.646
29373W        W 1688  16.225   9.687  10.975
29374W        W 1689  35.561   4.276  14.023
29375W        W 1690  20.177  42.591   4.771
29376W        W 1691  34.337   0.451   0.317
29377W        W 1692  35.016   1.336   3.166
29378W        W 1693  27.469   6.811  12.941
29379W        W 1694   8.114  41.303   2.461
29380W        W 1695  44.724  39.011   3.366
29381W        W 1696  25.276  40.729  11.181
29382W        W 1697  14.656  24.443   2.046
29383W        W 1698  39.760  19.823  13.430
29384W        W 1699  16.563   0.821   4.649
29385W        W 1700  22.187  16.260  14.429
29386W        W 1701  38.077   6.261   2.090
29387W        W 1702  23.067   4.740   2.737
29388W        W 1703  11.349  24.631   2.348
29389W        W 1704   6.916  16.287  11.668
29390W        W 1705  20.445  29.501  11.150
29391W        W 1706   0.436   4.764  10.436
29392W        W 1707   2.475  21.303  10.853
29393W        W 1708  12.954   9.368  13.408
29394W        W 1709   9.166  26.474   3.383
29395W        W 1710  41.283  31.496   0.936
29396W        W 1711  22.035  44.718  12.513
29397W        W 1712  13.049  18.518   3.675
29398W        W 1713  22.207   4.377  13.131
29399W        W 1714  18.600  38.824  14.537
29400W        W 1715  44.416  19.045   0.714
29401W        W 1716  21.863  42.939   0.830
29402W        W 1717  37.838  26.683   1.426
29403W        W 1718   9.858  12.210   3.896
29404W        W 1719  16.943  44.819   0.489
29405W        W 1720  29.492  44.328   0.868
29406W        W 1721  29.162  36.497   4.669
29407W        W 1722  18.257  31.484   3.413
29408W        W 1723  34.453  38.824  11.965
29409W        W 1724  27.009  33.435  14.805
29410W        W 1725  11.108   5.851  13.353
29411W        W 1726   1.901  34.128   5.186
29412W        W 1727  14.916   3.680   3.433
29413W        W 1728  37.031  24.752   2.618
29414W        W 1729  24.219  17.554  12.548
29415W        W 1730   6.239  40.869   2.836
29416W        W 1731   2.814  23.578   0.141
29417W        W 1732  29.129   0.372   2.449
29418W        W 1733   2.312  37.558   1.413
29419W        W 1734  24.996  36.459   4.197
29420W        W 1735  16.715  25.876   2.464
29421W        W 1736  43.525  40.273   0.398
29422W        W 1737   7.864  32.040  10.729
29423W        W 1738   1.249  10.848   3.688
29424W        W 1739  24.614  24.317  12.380
29425W        W 1740  36.386  30.011   3.920
29426W        W 1741  19.135   9.167   0.020
29427W        W 1742  13.077   1.863   1.531
29428W        W 1743  26.017   7.999   0.227
29429W        W 1744  35.811   6.681   4.908
29430W        W 1745  40.053   9.640  13.440
29431W        W 1746  15.751  28.136  12.002
29432W        W 1747  20.496   7.519  14.535
29433W        W 1748   2.787  37.989  10.828
29434W        W 1749  42.371   9.752   2.418
29435W        W 1750  31.625  34.535  12.124
29436W        W 1751  11.176  21.838  13.859
29437W        W 1752  39.313   3.935   3.202
29438W        W 1753  11.504  22.955   1.861
29439W        W 1754  21.658  18.108   0.491
29440W        W 1755   0.403   2.204   1.916
29441W        W 1756  27.974  14.651  11.856
29442W        W 1757  26.655   4.646   0.400
29443W        W 1758   8.187  36.553  10.635
29444W        W 1759  44.755  40.141  12.412
29445W        W 1760  18.338  10.269  12.443
29446W        W 1761   6.977   7.723   0.783
29447W        W 1762  16.857  14.139   0.807
29448W        W 1763  23.453  10.305   0.361
29449W        W 1764  17.806   3.191   0.904
29450W        W 1765  27.591   3.668  14.983
29451W        W 1766   6.658   3.479  10.663
29452W        W 1767  40.056  32.963  10.711
29453W        W 1768  27.740  18.676  12.515
29454W        W 1769   2.822  36.613  11.111
29455W        W 1770  15.388   2.485  13.788
29456W        W 1771  38.325   7.587   2.193
29457W        W 1772  25.123  33.618  11.384
29458W        W 1773  27.666   9.796   0.962
29459W        W 1774  40.774   4.384  11.506
29460W        W 1775  14.926   9.268  14.074
29461W        W 1776  30.147  14.704  13.815
29462W        W 1777  22.004  36.549  11.081
29463W        W 1778   3.043   1.207  13.972
29464W        W 1779  12.747   9.382  10.667
29465W        W 1780  13.112  25.313  11.996
29466W        W 1781   9.382  29.527  13.175
29467W        W 1782  28.919  29.935  10.657
29468W        W 1783  31.466   0.394   0.723
29469W        W 1784  27.707  33.452  12.661
29470W        W 1785  15.861   0.038   2.254
29471W        W 1786  13.236  19.942  13.431
29472W        W 1787  21.289  15.869  12.898
29473W        W 1788  14.868  43.513  11.523
29474W        W 1789  13.030  24.577  11.605
29475W        W 1790  42.533   9.581  11.629
29476W        W 1791   5.693  35.038   2.401
29477W        W 1792   6.818  27.119  12.128
29478W        W 1793  41.260  33.475  11.986
29479W        W 1794  38.392  34.662  14.458
29480W        W 1795   1.194  44.929   1.564
29481W        W 1796  43.071  30.978   1.810
29482W        W 1797   0.967  25.549  11.139
29483W        W 1798  14.930  13.134  10.481
29484W        W 1799  26.212  40.373  11.499
29485W        W 1800   4.478  22.448  11.140
29486W        W 1801  41.241   3.463   1.244
29487W        W 1802  30.592   7.903  12.187
29488W        W 1803  27.856  37.923   0.402
29489W        W 1804  15.561  34.013   2.273
29490W        W 1805   1.423  30.497  12.941
29491W        W 1806  30.043  40.904   4.958
29492W        W 1807   0.363  38.770   4.730
29493W        W 1808   2.408  40.291   0.053
29494W        W 1809   1.897  26.653   4.552
29495W        W 1810  25.417   2.482   0.423
29496W        W 1811  34.442  20.589  12.832
29497W        W 1812  24.109  12.624  14.917
29498W        W 1813   3.222  36.052   3.921
29499W        W 1814  12.340  17.183   9.750
29500W        W 1815   2.321  16.300   3.359
29501W        W 1816  31.115  18.139  13.835
29502W        W 1817  39.058   1.965  11.543
29503W        W 1818   1.897   4.139   0.774
29504W        W 1819  36.610  36.065  11.172
29505W        W 1820  12.646   0.456   4.945
29506W        W 1821  10.538  16.685  12.902
29507W        W 1822  39.886  13.745   0.271
29508W        W 1823  35.130  42.614   3.841
29509W        W 1824  41.065  29.716  11.922
29510W        W 1825  42.031  34.971  13.011
29511W        W 1826  35.566  31.399   0.919
29512W        W 1827  40.752  19.650   4.092
29513W        W 1828   8.057  25.292  14.826
29514W        W 1829  43.823  26.922   0.868
29515W        W 1830  26.485  21.689  11.096
29516W        W 1831  19.859  15.520  14.371
29517W        W 1832   2.487  25.080  14.401
29518W        W 1833  20.399  37.597  10.684
29519W        W 1834   7.727  11.233  13.747
29520W        W 1835  44.824  20.203   4.228
29521W        W 1836  37.284  38.349  10.773
29522W        W 1837   3.999  25.036   2.144
29523W        W 1838  14.692  37.904   0.312
29524W        W 1839  25.711  22.929   4.198
29525W        W 1840  14.664  31.103   3.795
29526W        W 1841  43.858  39.099   2.830
29527W        W 1842  36.059  19.949  13.899
29528W        W 1843  17.553   6.237  11.926
29529W        W 1844  37.696  13.673   4.946
29530W        W 1845  20.344   1.475  12.802
29531W        W 1846  34.933   8.728   1.514
29532W        W 1847  10.625  36.100  12.974
29533W        W 1848  25.507  19.593  12.827
29534W        W 1849  15.714  13.659   2.730
29535W        W 1850  37.522  36.618  12.966
29536W        W 1851  36.407   2.451  14.864
29537W        W 1852  28.105  15.195  12.561
29538W        W 1853  37.945  14.831   4.307
29539W        W 1854  17.790   2.462   1.266
29540W        W 1855  43.755   2.462  10.704
29541W        W 1856  23.721  21.221  12.031
29542W        W 1857   4.877  28.304   0.968
29543W        W 1858  21.819  23.012   0.341
29544W        W 1859  39.352  14.678   2.698
29545W        W 1860  28.112   8.464  14.918
29546W        W 1861  33.386   5.711  11.945
29547W        W 1862  23.582  34.893   0.992
29548W        W 1863  29.809  29.919  12.337
29549W        W 1864  14.050  12.086  10.597
29550W        W 1865   6.664  22.573  11.460
29551W        W 1866  19.104  13.879  12.379
29552W        W 1867  31.944  22.284   0.249
29553W        W 1868  11.412  16.662   2.868
29554W        W 1869   7.246  24.996  14.381
29555W        W 1870  34.933  26.033   4.593
29556W        W 1871  37.810  29.014  10.327
29557W        W 1872   8.390   6.232   1.303
29558W        W 1873  16.270  16.522   0.457
29559W        W 1874  24.748  32.925  12.934
29560W        W 1875  24.994  26.547   4.129
29561W        W 1876  26.586   5.855  14.529
29562W        W 1877  38.723  38.088  14.480
29563W        W 1878  21.272  12.043   0.748
29564W        W 1879  29.988   1.731  13.609
29565W        W 1880  28.041  21.777   0.558
29566W        W 1881  29.893  22.236  14.010
29567W        W 1882  16.224  35.533  13.974
29568W        W 1883  36.293  15.791  12.447
29569W        W 1884   8.796   7.815   4.544
29570W        W 1885  27.431  19.086   2.442
29571W        W 1886  25.966   3.186  13.075
29572W        W 1887   5.650  44.426  13.031
29573W        W 1888  41.236  41.185   4.150
29574W        W 1889  23.578  23.813   1.924
29575W        W 1890   5.414  35.133  13.242
29576W        W 1891  39.557  22.647   0.843
29577W        W 1892   7.468   4.637   1.295
29578W        W 1893  10.556  22.659   3.299
29579W        W 1894  21.338  25.149   4.076
29580W        W 1895  22.614  27.435  13.821
29581W        W 1896  32.005  35.382   2.325
29582W        W 1897  33.950   3.311   1.466
29583W        W 1898   9.183  27.964   1.733
29584W        W 1899   0.361  18.497  13.053
29585W        W 1900   3.721   4.019   0.726
29586W        W 1901  42.930   9.215  13.284
29587W        W 1902  24.705  11.912  10.689
29588W        W 1903  19.825  31.981   0.574
29589W        W 1904  33.297  16.845  11.142
29590W        W 1905  13.326  33.965   4.126
29591W        W 1906  38.667  11.315   2.300
29592W        W 1907   8.597  20.374  11.842
29593W        W 1908  15.131   5.788  11.116
29594W        W 1909  30.852  23.574  13.984
29595W        W 1910  31.005  31.253   1.341
29596W        W 1911  27.600  17.653   3.176
29597W        W 1912  40.803   5.405  12.497
29598W        W 1913   9.334  23.552  11.451
29599W        W 1914  39.438  35.023  11.910
29600W        W 1915  15.667  27.928   2.283
29601W        W 1916  40.200  43.736  12.622
29602W        W 1917  13.459  23.449   2.867
29603W        W 1918  17.687  27.314  14.406
29604W        W 1919  41.282  12.278   0.542
29605W        W 1920  15.219  10.877  13.265
29606W        W 1921   2.261  14.779  11.881
29607W        W 1922  19.710  32.850  14.172
29608W        W 1923  39.436  15.990   1.932
29609W        W 1924  30.036  13.336  10.392
29610W        W 1925   5.166  36.856  13.015
29611W        W 1926  22.774  12.089   3.134
29612W        W 1927  33.983  17.226   1.906
29613W        W 1928  34.440  32.671   2.674
29614W        W 1929   8.733  22.214   1.996
29615W        W 1930   3.968   8.270   2.757
29616W        W 1931  10.120  41.390  14.340
29617W        W 1932   4.146  10.689  12.947
29618W        W 1933  19.000  29.021   1.328
29619W        W 1934  42.628  34.891  13.083
29620W        W 1935  41.615  24.634   4.972
29621W        W 1936   6.197   6.771  13.421
29622W        W 1937  17.521  30.120   5.050
29623W        W 1938  20.014  32.715   3.184
29624W        W 1939   8.131   3.773   3.582
29625W        W 1940  11.628  23.590  13.494
29626W        W 1941  41.271  35.957   1.498
29627W        W 1942  35.973   2.432  11.875
29628W        W 1943   0.365   6.686  11.982
29629W        W 1944  26.257   3.353  12.213
29630W        W 1945  30.333  19.609   1.136
29631W        W 1946  29.936  40.036   3.722
29632W        W 1947  42.390  37.279  11.465
29633W        W 1948   3.273   8.164  12.061
29634W        W 1949   9.185  15.111   2.900
29635W        W 1950  21.609  43.691   4.702
29636W        W 1951  16.685  20.021  14.575
29637W        W 1952  29.736   8.695  13.417
29638W        W 1953   6.262   8.158   3.299
29639W        W 1954  19.229  25.445  11.946
29640W        W 1955  33.368  33.017  11.234
29641W        W 1956   3.015  16.786   1.423
29642W        W 1957  26.763  22.659   1.475
29643W        W 1958   8.592  26.957   1.231
29644W        W 1959  33.601   2.939  12.679
29645W        W 1960  21.188  16.823   2.204
29646W        W 1961  41.763  23.044  12.472
29647W        W 1962  16.318  44.348  10.904
29648W        W 1963   4.813  42.816   4.584
29649W        W 1964   5.389  35.334   2.746
29650W        W 1965  18.610  27.123  12.161
29651W        W 1966  43.247  30.739  12.563
29652W        W 1967  39.557  39.346  12.855
29653W        W 1968   6.066  21.768  11.433
29654W        W 1969  35.413  37.899   4.261
29655W        W 1970  31.877   3.754  14.175
29656W        W 1971  28.987  13.257   0.858
29657W        W 1972  31.494   0.280   2.901
29658W        W 1973  35.607  23.530  13.475
29659W        W 1974  44.086  26.692  12.028
29660W        W 1975   3.712  13.171  12.922
29661W        W 1976  38.054   4.820   0.232
29662W        W 1977  41.027  12.522   3.731
29663W        W 1978   7.940  27.240   2.813
29664W        W 1979   2.947   7.631  11.222
29665W        W 1980  20.624  44.149   0.039
29666W        W 1981  15.128  27.416   2.729
29667W        W 1982  16.087  43.849   3.349
29668W        W 1983  14.315   8.895  13.304
29669W        W 1984  28.398  27.783  12.921
29670W        W 1985   7.158   2.770   2.616
29671W        W 1986   9.223   0.279  13.324
29672W        W 1987  29.914   6.467  13.772
29673W        W 1988  40.296  10.772   0.109
29674W        W 1989  40.011   6.347   4.328
29675W        W 1990  34.130  14.574   3.716
29676W        W 1991   9.400   2.139  12.967
29677W        W 1992  32.058  23.625   1.825
29678W        W 1993  13.246  12.630   3.673
29679W        W 1994  42.528  11.288  14.342
29680W        W 1995  35.269  43.010   4.196
29681W        W 1996   7.927   6.852  12.049
29682W        W 1997  20.481   3.800  12.876
29683W        W 1998  21.267   4.016  13.491
29684W        W 1999  18.649   9.250  12.392
29685W        W 2000  21.071  44.475   3.088
29686W        W 2001  19.556  31.596  13.180
29687W        W 2002  23.445  27.672   2.592
29688W        W 2003  14.152  11.779   0.928
29689W        W 2004  41.314  22.657   0.295
29690W        W 2005  14.858  44.492  10.593
29691W        W 2006   6.831  31.953   3.738
29692W        W 2007  41.136   1.749  13.754
29693W        W 2008  39.803  25.602  12.322
29694W        W 2009  13.835   3.992  12.592
29695W        W 2010  28.462  21.626   4.230
29696W        W 2011   6.428  27.969  12.402
29697W        W 2012  15.646  12.075   3.695
29698W        W 2013  44.782  23.148  10.712
29699W        W 2014  44.706  26.099   4.465
29700W        W 2015  10.505  25.074  12.061
29701W        W 2016  28.505  24.722  12.951
29702W        W 2017  34.404  34.522   4.397
29703W        W 2018  12.365  24.664   4.116
29704W        W 2019  36.326  16.506   1.940
29705W        W 2020  31.268  34.075   4.010
29706W        W 2021  41.522  11.311   4.408
29707W        W 2022  12.780  21.855   0.317
29708W        W 2023  32.386   5.652   0.588
29709W        W 2024  26.139  29.650  13.092
29710W        W 2025  10.352  37.363  10.059
29711W        W 2026  21.186   9.329  13.920
29712W        W 2027  18.762   9.874  10.070
29713W        W 2028  31.569  42.049   1.612
29714W        W 2029  37.033  21.325   5.039
29715W        W 2030  14.655   1.725   0.418
29716W        W 2031  22.734  33.918   1.756
29717W        W 2032  27.862  11.179   2.169
29718W        W 2033   0.789  32.122  11.607
29719W        W 2034  12.676  30.180  11.114
29720W        W 2035   8.976   1.697  11.957
29721W        W 2036  30.157  26.100  13.359
29722W        W 2037  22.178  16.866   0.703
29723W        W 2038  16.399  27.550   5.080
29724W        W 2039  27.665  34.983   3.363
29725W        W 2040   8.715   0.013   0.343
29726W        W 2041  24.227  20.012   2.233
29727W        W 2042  13.895   0.163   1.028
29728W        W 2043  13.209  37.767   1.762
29729W        W 2044  34.746  15.232  13.077
29730W        W 2045  15.543  17.576  13.349
29731W        W 2046  44.052  22.303   3.112
29732W        W 2047  32.072  25.796  14.523
29733W        W 2048  14.171  16.548  13.977
29734W        W 2049  20.266   1.168  13.561
29735W        W 2050  21.644  43.284   2.905
29736W        W 2051   2.644  29.444  14.897
29737W        W 2052  44.847  16.796   2.726
29738W        W 2053   5.848  25.740   4.637
29739W        W 2054  11.267  30.109   4.083
29740W        W 2055  43.575  33.316   3.816
29741W        W 2056  39.913  25.178  10.567
29742W        W 2057  42.987  24.179  11.107
29743W        W 2058  14.229  35.651  12.888
29744W        W 2059  33.691  24.311   0.441
29745W        W 2060  28.676  36.366  13.567
29746W        W 2061  43.999  11.746  12.852
29747W        W 2062  31.172  24.023   4.198
29748W        W 2063  18.777  41.090   1.708
29749W        W 2064  29.947  36.992   3.719
29750W        W 2065  25.206  39.375   0.488
29751W        W 2066  36.109  18.777  11.096
29752W        W 2067   2.259   7.942  10.632
29753W        W 2068  10.216   4.392   4.291
29754W        W 2069  20.244   2.806   3.125
29755W        W 2070   0.280   3.188   5.065
29756W        W 2071  23.733  20.806  10.399
29757W        W 2072  39.281  41.573  12.607
29758W        W 2073   3.377  29.082  13.873
29759W        W 2074  10.244  34.813   0.776
29760W        W 2075  14.182  21.973   3.558
29761W        W 2076  12.878  19.969   3.721
29762W        W 2077  28.028  39.116   4.602
29763W        W 2078  40.529  20.846   3.807
29764W        W 2079  17.087  36.074  13.987
29765W        W 2080  27.533   2.903   0.451
29766W        W 2081   8.776  17.127  11.734
29767W        W 2082  23.772  36.898  13.381
29768W        W 2083  28.689   0.693   1.341
29769W        W 2084   4.013  23.154  14.378
29770W        W 2085   4.561  11.583  10.734
29771W        W 2086  13.613   8.126   2.861
29772W        W 2087  35.215  12.689  14.415
29773W        W 2088  11.909  14.701  11.512
29774W        W 2089   6.407  42.593   3.831
29775W        W 2090  12.226  42.477  14.804
29776W        W 2091  14.640  14.792  12.617
29777W        W 2092   5.351  26.660   1.521
29778W        W 2093  44.968   7.703   1.209
29779W        W 2094  31.165  26.072  12.869
29780W        W 2095  23.160  29.445  13.388
29781W        W 2096  13.247  20.210  13.892
29782W        W 2097   3.851  40.303  13.285
29783W        W 2098   3.438   5.011   1.615
29784W        W 2099  32.000  15.640   0.379
29785W        W 2100  10.838   5.638   0.477
29786W        W 2101  12.881  14.699  13.626
29787W        W 2102   2.182  21.676   0.236
29788W        W 2103  30.472   7.337  14.473
29789W        W 2104   1.899  11.600   9.711
29790W        W 2105  28.293  44.854  14.468
29791W        W 2106  36.996  26.401  14.332
29792W        W 2107  30.844  34.338   3.322
29793W        W 2108   1.407  35.416  11.949
29794W        W 2109   5.463  29.619   0.511
29795W        W 2110  21.257   2.649   1.707
29796W        W 2111  38.885   9.295   3.796
29797W        W 2112   5.401  22.123  10.505
29798W        W 2113  38.663  36.990   1.188
29799W        W 2114   8.135  44.718   4.157
29800W        W 2115  41.938  21.617  12.788
29801W        W 2116  35.062  43.581  12.928
29802W        W 2117   8.894   9.215  12.675
29803W        W 2118  37.400   3.221   4.612
29804W        W 2119   2.231  13.176  13.961
29805W        W 2120  39.864   5.885   4.523
29806W        W 2121  36.997  13.837  13.349
29807W        W 2122   9.153   4.217   2.559
29808W        W 2123   8.760   9.413   4.134
29809W        W 2124  19.692   7.762  14.860
29810W        W 2125   7.393  42.080  11.594
29811W        W 2126   2.446  19.567  11.240
29812W        W 2127  36.597  16.002  10.896
29813W        W 2128  11.811  33.921   4.120
29814W        W 2129  30.636  44.026  13.858
29815W        W 2130  34.644   3.868  14.993
29816W        W 2131  18.747  37.467   2.093
29817W        W 2132  43.652  40.252   4.639
29818W        W 2133  44.914  27.587   1.699
29819W        W 2134  43.906  24.111   4.177
29820W        W 2135  12.332  12.815   3.492
29821W        W 2136  44.777  21.629   3.548
29822W        W 2137  33.593  39.668  14.438
29823W        W 2138  37.788  16.387  13.760
29824W        W 2139  15.388  11.852  11.887
29825W        W 2140  28.646  22.718   3.305
29826W        W 2141  34.642  36.596   3.603
29827W        W 2142  34.473  42.192  12.783
29828W        W 2143   2.065  16.178  12.571
29829W        W 2144  32.911   8.708  13.380
29830W        W 2145  10.280   8.758  11.664
29831W        W 2146   2.390   7.660  11.200
29832W        W 2147  23.741  41.916   1.830
29833W        W 2148   0.527  26.970   1.090
29834W        W 2149  39.515  23.417   9.699
29835W        W 2150  22.112  37.743  14.817
29836W        W 2151  40.254  25.597  11.298
29837W        W 2152  31.896  15.835   1.890
29838W        W 2153  20.557  28.672  12.349
29839W        W 2154   6.358  15.243  11.112
29840W        W 2155  33.433  23.011   2.354
29841W        W 2156  13.100  40.012  12.370
29842W        W 2157  44.431  16.158   2.196
29843W        W 2158  17.555   2.047   0.002
29844W        W 2159  31.388  40.340  13.334
29845W        W 2160   9.665   2.252   4.161
29846W        W 2161   1.990  28.108  13.878
29847W        W 2162   5.776   1.356   4.275
29848W        W 2163  39.416  29.078  12.287
29849W        W 2164  44.262  29.430   2.353
29850W        W 2165  30.409  18.770  14.461
29851W        W 2166  22.276  32.045   4.314
29852W        W 2167  31.907  15.864   1.217
29853W        W 2168  21.339  26.134   0.364
29854W        W 2169  30.530   8.821   4.612
29855W        W 2170  34.103  19.258   3.228
29856W        W 2171   9.365  43.369  10.423
29857W        W 2172  13.291  43.014   3.610
29858W        W 2173   2.843  23.435  13.952
29859W        W 2174  42.764  17.150   4.142
29860W        W 2175  23.933  42.528  11.900
29861W        W 2176  23.673  37.786   1.286
29862W        W 2177   0.960  40.814   3.737
29863W        W 2178  14.038  33.638  11.585
29864W        W 2179  12.694  14.065   3.370
29865W        W 2180  30.155  16.032  14.062
29866W        W 2181  16.495  41.591   1.192
29867W        W 2182  42.038  14.213   2.770
29868W        W 2183  35.572  42.206   4.630
29869W        W 2184  18.797  31.102   3.700
29870W        W 2185  20.609   8.637   3.671
29871W        W 2186  41.806   4.785   4.762
29872W        W 2187  22.081  36.360   2.443
29873W        W 2188   2.239  20.018  11.993
29874W        W 2189   7.784  43.846   4.535
29875W        W 2190  33.232  17.653   0.844
29876W        W 2191  43.198  20.700  14.058
29877W        W 2192   3.969  15.957   1.418
29878W        W 2193  38.355   0.322  12.838
29879W        W 2194   9.149  20.128  13.294
29880W        W 2195  25.148  20.155   0.514
29881W        W 2196  42.869   4.735   2.608
29882W        W 2197  35.025  22.834  13.384
29883W        W 2198   6.831  38.331   0.988
29884W        W 2199  12.662  11.431  13.928
29885W        W 2200  13.269  10.669  14.894
29886W        W 2201  36.832  25.121  14.240
29887W        W 2202  17.509  36.890   4.545
29888W        W 2203  43.437   1.391   0.835
29889W        W 2204  28.897  26.173  10.721
29890W        W 2205  12.519  37.410   0.265
29891W        W 2206  12.578  19.248   1.285
29892W        W 2207  19.171  31.211   2.239
29893W        W 2208  13.181   1.715   1.035
29894W        W 2209   1.552   7.135   1.301
29895W        W 2210  19.950   0.965  13.932
29896W        W 2211  18.339  41.954  11.111
29897W        W 2212  28.737  22.132  14.836
29898W        W 2213  15.057  42.041  11.472
29899W        W 2214  20.012   6.560   0.765
29900W        W 2215  35.109   8.902  12.074
29901W        W 2216  35.882   9.090   1.185
29902W        W 2217  41.231  23.533   3.839
29903W        W 2218   2.272  16.226  13.546
29904W        W 2219   5.733  30.243   0.750
29905W        W 2220  27.057  32.499  11.365
29906W        W 2221  20.335  20.709  14.107
29907W        W 2222  16.110  12.673   3.270
29908W        W 2223  22.053  11.092  12.468
29909W        W 2224   6.885  26.090   0.757
29910W        W 2225  26.916  10.219   1.844
29911W        W 2226  26.035  37.413  13.405
29912W        W 2227  42.007  10.783   3.871
29913W        W 2228  43.042  27.954  13.575
29914W        W 2229  20.428  23.604  11.104
29915W        W 2230   0.778  11.399   2.025
29916W        W 2231  15.784  16.504   2.681
29917W        W 2232   0.548  15.640   5.158
29918W        W 2233  10.799  43.849  11.634
29919W        W 2234   9.207  19.360  13.997
29920W        W 2235   4.551  40.420   0.364
29921W        W 2236  26.908  43.415  14.339
29922W        W 2237  17.749  40.834   9.825
29923W        W 2238  30.925  27.028   3.422
29924W        W 2239  14.069  27.693  10.628
29925W        W 2240  38.127  14.278  13.600
29926W        W 2241  25.605  15.729  12.962
29927W        W 2242  14.445  16.206  12.925
29928W        W 2243  24.016  24.015   2.791
29929W        W 2244  26.148  30.697  12.812
29930W        W 2245  10.121   3.363  13.369
29931W        W 2246  16.274  21.184   1.306
29932W        W 2247  11.787  25.490   3.935
29933W        W 2248  43.963  32.498   4.570
29934W        W 2249   8.226   9.359   3.366
29935W        W 2250  23.038  40.300  12.869
29936W        W 2251   6.649  26.890  13.468
29937W        W 2252  20.010  27.911  11.628
29938W        W 2253   1.913  36.822  11.584
29939W        W 2254  23.701  42.858  12.762
29940W        W 2255   5.887  23.076  11.593
29941W        W 2256  17.242   5.188  14.740
29942W        W 2257  36.577  44.881  14.263
29943W        W 2258  23.974  34.617   1.771
29944W        W 2259  21.244   1.199  12.398
29945W        W 2260  44.968  22.769   0.800
29946W        W 2261  35.798   8.011   2.315
29947W        W 2262  35.558  15.635   0.963
29948W        W 2263  25.631  29.065  10.510
29949W        W 2264  41.217  31.709  14.411
29950W        W 2265   6.681   6.827  14.897
29951W        W 2266   0.290  31.409  12.549
29952W        W 2267  22.233  17.555  11.511
29953W        W 2268   8.070  32.493   4.900
29954W        W 2269  14.631  38.733   2.462
29955W        W 2270  30.415   8.779   3.779
29956W        W 2271  37.940  40.762  13.354
29957W        W 2272  26.011  44.939  11.649
29958W        W 2273   6.171  23.838   1.984
29959W        W 2274  19.316  33.763   1.691
29960W        W 2275   9.196  22.753   4.341
29961W        W 2276  24.955   5.188  13.059
29962W        W 2277   0.722  11.386  11.521
29963W        W 2278  10.969   3.593   3.185
29964W        W 2279  16.040  42.513  11.141
29965W        W 2280  42.488  38.013   2.417
29966W        W 2281  16.220  12.799  11.609
29967W        W 2282   1.515  14.354   1.923
29968W        W 2283  37.297  23.732   1.356
29969W        W 2284  33.102  40.198  14.954
29970W        W 2285  21.599  25.507  14.429
29971W        W 2286  30.890  24.494  14.953
29972W        W 2287  20.820  40.522  13.406
29973W        W 2288  19.812  25.216  11.471
29974W        W 2289  39.581  34.812  13.444
29975W        W 2290  15.145  42.262   2.179
29976W        W 2291  11.082   5.396   4.342
29977W        W 2292  41.411  36.708   0.143
29978W        W 2293  28.478   4.697  10.242
29979W        W 2294  20.998  13.067  13.960
29980W        W 2295  20.654  33.090  10.738
29981W        W 2296   0.024   5.051  10.244
29982W        W 2297  39.940  23.559  14.642
29983W        W 2298   2.999  30.929  12.409
29984W        W 2299  37.415   8.402  14.890
29985W        W 2300  31.641  24.220  12.441
29986W        W 2301   6.485  44.768  12.530
29987W        W 2302  42.363  38.975   1.397
29988W        W 2303   9.365   9.193  12.453
29989W        W 2304  12.378  39.022  13.508
29990W        W 2305  24.473  34.387   0.784
29991W        W 2306   5.243   4.331   2.616
29992W        W 2307  24.188   1.787  10.657
29993W        W 2308  36.889   4.874   1.275
29994W        W 2309   1.301  32.847  10.682
29995W        W 2310  21.289  10.837   3.635
29996W        W 2311  40.334  15.603   3.226
29997W        W 2312  33.038  10.038  14.803
29998W        W 2313  18.526  29.523  14.559
29999W        W 2314   4.461  33.517   0.303
30000W        W 2315  24.751  25.691   2.323
30001W        W 2316  13.670  37.628  14.296
30002W        W 2317   4.769  43.225   4.902
30003W        W 2318   2.968  29.121   3.616
30004W        W 2319  12.203  32.979  10.685
30005W        W 2320  37.351   5.164  10.513
30006W        W 2321  22.911  19.045   1.339
30007W        W 2322  10.195  37.408  11.071
30008W        W 2323  38.124   0.754   3.671
30009W        W 2324  43.281  26.121  14.299
30010W        W 2325  35.895   5.335   3.744
30011W        W 2326  18.758  10.640  14.854
30012W        W 2327  16.901  12.880   0.583
30013W        W 2328  41.814  36.456  12.488
30014W        W 2329  42.117  27.587   3.692
30015W        W 2330  37.524  29.914   1.697
30016W        W 2331  13.615  37.994   2.900
30017W        W 2332  19.587  26.130  14.122
30018W        W 2333  20.845   8.221   4.314
30019W        W 2334  43.346  17.612   3.472
30020W        W 2335   3.875  33.825   4.762
30021W        W 2336   3.253  11.753   4.592
30022W        W 2337  39.748  18.192  10.940
30023W        W 2338   9.314   3.458  13.351
30024W        W 2339   8.810  31.724   1.778
30025W        W 2340   9.437  25.556   0.096
30026W        W 2341   6.941  13.097  13.987
30027W        W 2342  22.057  12.153   0.431
30028W        W 2343  40.242  19.642  13.548
30029W        W 2344   3.219   0.182  14.763
30030W        W 2345  38.432  41.141   2.257
30031W        W 2346  22.798  23.705  12.843
30032W        W 2347  27.475  36.204  12.982
30033W        W 2348  13.355  15.741   1.782
30034W        W 2349   0.485  37.120   1.795
30035W        W 2350  32.448  19.186  11.926
30036W        W 2351   1.691  28.489  11.071
30037W        W 2352  16.132  43.057  12.596
30038W        W 2353  29.642  13.673   4.745
30039W        W 2354  32.924  14.079  10.597
30040W        W 2355  32.747  41.386   2.159
30041W        W 2356   2.018  12.333  11.186
30042W        W 2357   1.159  36.960  12.035
30043W        W 2358  17.975  40.898   0.281
30044W        W 2359  11.445   8.667  12.355
30045W        W 2360  44.213   8.919   1.235
30046W        W 2361  22.878  28.033  13.509
30047W        W 2362  18.754  25.917  11.173
30048W        W 2363   2.881   2.913   3.639
30049W        W 2364  20.595  16.381   3.743
30050W        W 2365  25.442  17.592  13.545
30051W        W 2366  16.228  28.152   4.518
30052W        W 2367  27.954  18.831  12.059
30053W        W 2368  12.732  28.550  12.472
30054W        W 2369  33.949  36.921  14.312
30055W        W 2370  10.444   1.875   3.424
30056W        W 2371  22.696  28.010   4.471
30057W        W 2372  42.510  41.333   2.325
30058W        W 2373  11.743  43.715   3.349
30059W        W 2374   6.694   8.170   4.916
30060W        W 2375  33.544   4.958   0.413
30061W        W 2376  25.164  37.129  12.940
30062W        W 2377  30.469  26.179   4.621
30063W        W 2378  24.576  35.609   1.179
30064W        W 2379   8.680  18.146   4.093
30065W        W 2380  20.228  37.577   1.303
30066W        W 2381  10.440  43.616  13.943
30067W        W 2382  40.336  25.230  10.285
30068W        W 2383  11.069  17.496  14.668
30069W        W 2384  27.566  40.113   1.030
30070W        W 2385  16.507  32.185   3.344
30071W        W 2386  36.120  32.470  14.070
30072W        W 2387   3.378  10.236  12.898
30073W        W 2388  18.552  19.605   3.760
30074W        W 2389  18.194  35.021   4.589
30075W        W 2390   4.868  42.641  12.067
30076W        W 2391  15.533   7.317   2.728
30077W        W 2392  26.540   9.851  14.807
30078W        W 2393  15.373  38.243  12.933
30079W        W 2394  16.844   4.305   4.102
30080W        W 2395  36.033  44.321   5.366
30081W        W 2396  22.484   4.144  11.034
30082W        W 2397  42.434  13.762  12.052
30083W        W 2398  24.879  26.224   2.150
30084W        W 2399  24.294   2.045  12.054
30085W        W 2400  22.230  41.882   0.724
30086W        W 2401   4.471  38.906   1.206
30087W        W 2402  16.789  31.044  10.750
30088W        W 2403   7.664  36.541  14.882
30089W        W 2404  35.956  22.115   4.886
30090W        W 2405   3.761  20.321   1.560
30091W        W 2406  25.244  13.178   0.470
30092W        W 2407   3.339  38.793   0.879
30093W        W 2408  11.708  44.749   3.121
30094W        W 2409  33.075   3.522  13.046
30095W        W 2410  34.793  11.294   2.249
30096W        W 2411  14.494  20.785   3.338
30097W        W 2412   9.127  16.535  12.998
30098W        W 2413  35.556  27.935   0.098
30099W        W 2414  34.928  22.678  14.332
30100W        W 2415  27.485  39.789   1.459
30101W        W 2416  33.438   3.225  12.283
30102W        W 2417  42.266  28.911   4.151
30103W        W 2418   8.370  41.193  13.652
30104W        W 2419  32.132  44.444  10.425
30105W        W 2420  17.338  42.157   1.394
30106W        W 2421  32.405  35.035   3.258
30107W        W 2422  35.744  21.704  10.766
30108W        W 2423   2.826  34.940   3.129
30109W        W 2424  28.136  31.879   2.615
30110W        W 2425  44.474  39.494   3.326
30111W        W 2426  10.786  17.317  13.364
30112W        W 2427  15.045   1.412   0.903
30113W        W 2428  29.898   6.416  10.462
30114W        W 2429  26.237  44.925  13.359
30115W        W 2430  28.473  31.916  14.421
30116W        W 2431  26.682  36.851  10.785
30117W        W 2432  40.219  44.156   0.894
30118W        W 2433   4.768  19.968  11.039
30119W        W 2434  22.367   4.839  12.980
30120W        W 2435   4.785  14.795  13.565
30121W        W 2436  39.472  38.650   2.257
30122W        W 2437   3.193  30.943  10.666
30123W        W 2438   8.757  43.283  13.187
30124W        W 2439  30.820  38.688  13.496
30125W        W 2440  26.220  28.598  12.313
30126W        W 2441  20.968  15.016  10.630
30127W        W 2442  40.958  43.586   2.082
30128W        W 2443  32.421  20.165  11.298
30129W        W 2444   4.243   8.398   2.191
30130W        W 2445   7.310  16.165  14.856
30131W        W 2446   0.393  44.550  14.040
30132W        W 2447  44.960  11.157  11.021
30133W        W 2448  16.174   0.464   2.610
30134W        W 2449  33.398  42.389   2.246
30135W        W 2450  20.375   5.895   1.269
30136W        W 2451   0.996  18.630  14.015
30137W        W 2452   0.479  31.460  11.130
30138W        W 2453  16.815  10.356  11.090
30139W        W 2454  22.509  21.927   0.440
30140W        W 2455  30.729  28.500   0.125
30141W        W 2456  32.634   1.724   0.845
30142W        W 2457  43.405  10.893  11.237
30143W        W 2458  40.513  17.179   4.606
30144W        W 2459   8.811  14.879  10.826
30145W        W 2460  20.458   9.803  11.391
30146W        W 2461   2.805  36.649  12.055
30147W        W 2462   6.278  42.536  10.744
30148W        W 2463   6.437  23.197  13.149
30149W        W 2464   9.606   1.504  14.556
30150W        W 2465  42.352  38.904  14.175
30151W        W 2466  16.156  32.298   1.234
30152W        W 2467  38.467  44.435   1.900
30153W        W 2468  25.562   8.882   1.792
30154W        W 2469  17.323  28.492   2.891
30155W        W 2470  32.146  14.752   0.255
30156W        W 2471  32.037  21.647   2.840
30157W        W 2472  12.656  25.644  14.445
30158W        W 2473   6.897   9.823   3.188
30159W        W 2474  22.197  35.583   4.465
30160W        W 2475  26.581   5.211   4.544
30161W        W 2476  32.025  21.986   4.902
30162W        W 2477   2.362  41.253   1.839
30163W        W 2478  30.187  15.195   1.759
30164W        W 2479   8.707  17.586   1.260
30165W        W 2480  11.413   7.350   4.216
30166W        W 2481   9.825  42.417   1.259
30167W        W 2482  19.733  21.823   4.213
30168W        W 2483   3.448   2.825  13.789
30169W        W 2484   6.648   0.395   0.967
30170W        W 2485  39.660  26.131  12.476
30171W        W 2486  10.272   3.752   0.575
30172W        W 2487   0.216  29.409   4.169
30173W        W 2488  37.865  34.919  13.854
30174W        W 2489   0.328  36.739   3.762
30175W        W 2490   2.733  22.381   3.985
30176W        W 2491   1.087  42.809  14.108
30177W        W 2492  37.268  37.920   1.351
30178W        W 2493  39.880  10.294  11.601
30179W        W 2494  28.360  21.496   3.660
30180W        W 2495  40.699  18.235  13.270
30181W        W 2496  14.543  33.017  13.364
30182W        W 2497  19.008  20.351   1.823
30183W        W 2498  14.326  12.232   4.110
30184W        W 2499  18.284  41.915  14.811
30185W        W 2500   7.331  18.181   3.636
30186W        W 2501  33.631  19.012  13.600
30187W        W 2502  41.416  28.936  13.551
30188W        W 2503  43.400  13.107  10.750
30189W        W 2504   9.230  15.264  10.619
30190W        W 2505  44.951   6.733   4.164
30191W        W 2506  16.967   9.659   4.197
30192W        W 2507   1.273  38.291   3.694
30193W        W 2508  41.491  40.117  13.533
30194W        W 2509  10.607  15.185   2.004
30195W        W 2510  33.869  31.995  10.438
30196W        W 2511  22.938  29.974   0.530
30197W        W 2512  42.928  38.621   4.114
30198W        W 2513  44.021  37.800  11.054
30199W        W 2514   7.917  27.857   4.449
30200W        W 2515   7.710  37.848   4.666
30201W        W 2516  13.160   5.171   3.755
30202W        W 2517  16.597  32.720   3.387
30203W        W 2518  39.468  38.471  12.441
30204W        W 2519  27.391   3.360   5.080
30205W        W 2520  19.939  32.920   2.650
30206W        W 2521  15.841  40.992  12.068
30207W        W 2522  23.546  36.872  13.862
30208W        W 2523  30.463  31.884  14.379
30209W        W 2524  20.267   0.136   4.417
30210W        W 2525  38.056   6.098  12.369
30211W        W 2526  25.212  22.243   4.394
30212W        W 2527  15.674  21.322   3.307
30213W        W 2528   6.652  15.279   0.399
30214W        W 2529   4.523  22.410   1.382
30215W        W 2530  11.853  19.224   2.747
30216W        W 2531  31.094  22.503  11.277
30217W        W 2532  36.109  37.250   1.827
30218W        W 2533   2.515  35.574   2.824
30219W        W 2534  38.853  21.253  10.636
30220W        W 2535   8.388  13.265   4.711
30221W        W 2536  36.028  13.279   1.188
30222W        W 2537   8.740  10.825   4.381
30223W        W 2538   9.629  32.121  12.994
30224W        W 2539  22.195  38.006  13.930
30225W        W 2540  31.135  42.007  12.790
30226W        W 2541  21.752  20.970   0.954
30227W        W 2542  13.259  29.387  12.612
30228W        W 2543   2.272   6.410   1.751
30229W        W 2544  14.524   4.657  11.171
30230W        W 2545  40.768   2.394  12.078
30231W        W 2546  16.375  25.750  11.155
30232W        W 2547  18.248  13.240   1.191
30233W        W 2548   4.694  13.796   3.724
30234W        W 2549   2.880   5.155  12.902
30235W        W 2550  11.346  18.750   4.567
30236W        W 2551  31.387  31.066  10.658
30237W        W 2552   5.290  36.343   4.270
30238W        W 2553  43.877  43.586   0.415
30239W        W 2554  36.573  37.093  11.168
30240W        W 2555  26.253  13.247   0.330
30241W        W 2556  20.730  35.914  12.091
30242W        W 2557   6.931   4.709   2.730
30243W        W 2558  39.494   9.739   0.252
30244W        W 2559   0.526  44.817   1.069
30245W        W 2560  39.930  33.911  13.136
30246W        W 2561  36.330  16.397  11.058
30247W        W 2562   3.800  27.373   1.714
30248W        W 2563  11.438  17.890   1.405
30249W        W 2564   4.104  37.798  13.586
30250W        W 2565   4.147  37.102  13.806
30251W        W 2566  32.064  20.217   2.800
30252W        W 2567   9.289  44.419   2.582
30253W        W 2568   2.409  31.888  14.068
30254W        W 2569   6.554   7.778   2.603
30255W        W 2570  18.382  19.146   3.611
30256W        W 2571  30.525  18.171  14.749
30257W        W 2572   7.225  27.139   1.414
30258W        W 2573  31.965  37.857   2.777
30259W        W 2574  11.809  16.036   2.458
30260W        W 2575   1.010  20.694  12.037
30261W        W 2576  24.750  27.400  11.912
30262W        W 2577   2.817  34.386   1.844
30263W        W 2578  38.808  35.848   1.240
30264W        W 2579   9.707  16.216   3.408
30265W        W 2580   1.580  43.414   3.879
30266W        W 2581  39.568   1.821   0.895
30267W        W 2582  15.249   9.615   2.250
30268W        W 2583  31.231   4.804  10.649
30269W        W 2584  33.992  13.698   0.542
30270W        W 2585  32.417   4.288   0.235
30271W        W 2586  43.995   7.236  13.516
30272W        W 2587  12.580  34.698   0.809
30273W        W 2588  34.280  21.730  11.936
30274W        W 2589   5.693   3.868   4.727
30275W        W 2590  14.650  11.731   1.019
30276W        W 2591  21.452  37.774   4.165
30277W        W 2592  27.264  42.076  10.774
30278W        W 2593  22.694  34.239   3.403
30279W        W 2594   6.893  24.822   3.665
30280W        W 2595   0.395  41.808  12.887
30281W        W 2596  41.858  34.939   4.597
30282W        W 2597  20.572  29.190  13.777
30283W        W 2598  13.157  17.548  12.884
30284W        W 2599  33.845  14.363   1.884
30285W        W 2600  38.139   0.753  11.698
30286W        W 2601  24.152   9.150  14.905
30287W        W 2602  30.221  25.203  14.834
30288W        W 2603   4.200  33.690  12.806
30289W        W 2604  27.720  10.460  12.136
30290W        W 2605  34.449  21.943  11.010
30291W        W 2606   0.821  24.943   3.737
30292W        W 2607  28.664  11.873  10.683
30293W        W 2608   7.849  35.107   4.592
30294W        W 2609   6.909  24.606   2.708
30295W        W 2610  20.019   0.739   3.191
30296W        W 2611  24.422  30.464   0.988
30297W        W 2612  23.462   9.763  13.126
30298W        W 2613  28.473   6.850   9.878
30299W        W 2614   0.717  26.551   0.845
30300W        W 2615  24.659  34.609   1.220
30301W        W 2616  31.404  31.203   4.376
30302W        W 2617  31.588  42.067  12.979
30303W        W 2618   0.781  32.855  11.843
30304W        W 2619  28.045   7.612  10.443
30305W        W 2620   4.734  30.268  13.380
30306W        W 2621   7.208  16.042  10.459
30307W        W 2622  29.655  35.942  14.502
30308W        W 2623  24.186   7.753   2.948
30309W        W 2624  22.656  35.853   0.700
30310W        W 2625  19.998  16.666  10.618
30311W        W 2626  40.755  24.215   1.778
30312W        W 2627  21.443  28.826  10.731
30313W        W 2628   5.313   9.942  12.376
30314W        W 2629   6.688  25.542  12.175
30315W        W 2630   3.321   3.693   0.560
30316W        W 2631   2.600  23.724   4.188
30317W        W 2632   2.532  14.659   1.707
30318W        W 2633  24.911  40.897  10.870
30319W        W 2634   9.336  15.590  11.010
30320W        W 2635  39.650   6.126   2.680
30321W        W 2636  18.288   3.702   4.783
30322W        W 2637   5.701   9.652  14.888
30323W        W 2638   6.324  42.609  12.129
30324W        W 2639  11.341   8.192   4.621
30325W        W 2640   2.868   4.658  13.065
30326W        W 2641  43.010  14.904  12.460
30327W        W 2642   6.277   1.726   1.859
30328W        W 2643  22.868   1.196   0.372
30329W        W 2644  26.038   6.542   3.294
30330W        W 2645   8.689  17.112   4.266
30331W        W 2646  29.746   7.168  11.581
30332W        W 2647  37.792  15.236  11.724
30333W        W 2648  17.159  38.879   0.884
30334W        W 2649  11.221  27.751  12.730
30335W        W 2650  22.975   2.732  11.166
30336W        W 2651   2.920  27.118  11.446
30337W        W 2652  19.031   9.351   3.433
30338W        W 2653   8.286   9.877  14.901
30339W        W 2654  12.906   7.631  12.120
30340W        W 2655  23.793   3.470   1.340
30341W        W 2656   2.228  13.949   2.711
30342W        W 2657  36.087  43.732   4.533
30343W        W 2658   6.513   4.757   4.527
30344W        W 2659  15.809  10.554  10.623
30345W        W 2660  41.659   6.177  14.416
30346W        W 2661  19.819  11.157   4.733
30347W        W 2662  44.380  44.524   0.805
30348W        W 2663   1.398  38.339   4.708
30349W        W 2664   5.720  32.572   2.192
30350W        W 2665  44.343  22.026  14.441
30351W        W 2666  32.381  24.701   4.082
30352W        W 2667  38.715  14.142  11.130
30353W        W 2668  23.126  39.364  13.974
30354W        W 2669  40.559  24.933   1.235
30355W        W 2670  35.626  43.970   4.585
30356W        W 2671  13.254  22.009   0.455
30357W        W 2672  29.724   1.483  11.700
30358W        W 2673  25.170  18.766  12.489
30359W        W 2674  42.029  16.554  14.949
30360W        W 2675   0.385  40.229  14.937
30361W        W 2676  14.755  43.960  14.981
30362W        W 2677   5.771  26.891   2.790
30363W        W 2678  32.189  40.726   2.661
30364W        W 2679  26.923  36.092  11.550
30365W        W 2680  26.412  18.130   3.133
30366W        W 2681  17.863   5.181  13.265
30367W        W 2682  18.394  13.365   2.774
30368W        W 2683  32.157  32.920   3.656
30369W        W 2684   4.697  25.094  12.865
30370W        W 2685   3.035   7.766   0.781
30371W        W 2686  26.553  41.505   4.724
30372W        W 2687  38.226  27.644  14.800
30373W        W 2688  22.838  40.280   4.397
30374W        W 2689   1.629  22.704   4.690
30375W        W 2690   5.175  34.386   3.226
30376W        W 2691   8.656   9.192  11.355
30377W        W 2692   7.683  11.828   1.399
30378W        W 2693   9.713  16.117   1.419
30379W        W 2694   4.232  21.880  13.414
30380W        W 2695  39.565  38.407  11.085
30381W        W 2696  28.163  16.160  11.919
30382W        W 2697  33.037   6.899  13.681
30383W        W 2698  31.177  32.987   4.599
30384W        W 2699  23.957  28.474   0.119
30385W        W 2700   4.274  13.889   0.482
30386W        W 2701  18.847  23.165   3.625
30387W        W 2702  22.580  41.694   3.266
30388W        W 2703   2.137  27.619  11.498
30389W        W 2704  28.653  44.487   3.828
30390W        W 2705   7.391  15.629  10.715
30391W        W 2706  26.662   8.641  12.524
30392W        W 2707  28.518  20.759   1.053
30393W        W 2708  12.685  39.467  14.393
30394W        W 2709  27.713   9.717   3.640
30395W        W 2710  44.149  25.136   1.774
30396W        W 2711   1.794  31.418  14.483
30397W        W 2712  34.529  34.984   4.625
30398W        W 2713  43.064  11.362   3.260
30399W        W 2714   9.586   2.294  11.991
30400W        W 2715  38.342  11.256   1.211
30401W        W 2716  39.990  42.453  13.902
30402W        W 2717  33.051  11.411  10.403
30403W        W 2718  25.226  33.445   3.121
30404W        W 2719  28.659   5.871   3.090
30405W        W 2720  27.544  12.772  11.656
30406W        W 2721   6.333  20.263   2.680
30407W        W 2722   9.574  29.674   1.250
30408W        W 2723   6.331  42.804  11.203
30409W        W 2724   5.382  31.713  11.550
30410W        W 2725  22.697  35.898   1.809
30411W        W 2726  40.373  26.551   1.557
30412W        W 2727  29.578  43.916  13.543
30413W        W 2728  12.228   7.325   4.647
30414W        W 2729  37.790  11.916  14.832
30415W        W 2730  13.192  32.013  10.411
30416W        W 2731  36.750  36.919   3.830
30417W        W 2732   3.257  19.597   2.372
30418W        W 2733  39.717   8.198   0.917
30419W        W 2734  16.668  31.453  14.317
30420W        W 2735  33.455   1.563   4.149
30421W        W 2736  31.115  34.968  10.683
30422W        W 2737  10.793   5.772  13.787
30423W        W 2738  18.549  20.147  13.139
30424W        W 2739  36.511  30.201   1.009
30425W        W 2740  38.470   3.475  11.965
30426W        W 2741   6.102  18.513  11.069
30427W        W 2742  19.494  10.681  11.204
30428W        W 2743  11.874  24.721   2.366
30429W        W 2744  10.269   9.900   1.947
30430W        W 2745  28.110  31.374   3.676
30431W        W 2746   9.276  33.954   1.209
30432W        W 2747   0.439  13.149  12.767
30433W        W 2748   6.479  20.305   4.407
30434W        W 2749  29.961  23.464   1.297
30435W        W 2750  42.816  21.105  12.648
30436W        W 2751  29.736  26.456  13.843
30437W        W 2752   2.010  15.567   5.371
30438W        W 2753   0.296  33.555   5.339
30439W        W 2754  34.037  16.609  10.546
30440W        W 2755  36.623   1.568  14.969
30441W        W 2756  34.591  42.117   0.934
30442W        W 2757   2.806   4.858  14.940
30443W        W 2758  26.969  39.496  12.082
30444W        W 2759  31.227  32.879  13.949
30445W        W 2760  34.499  35.142  13.011
30446W        W 2761  29.179  16.716   4.457
30447W        W 2762  23.133  10.582  14.008
30448W        W 2763  38.101   7.821  14.725
30449W        W 2764  32.813  27.198   3.669
30450W        W 2765   8.374  32.460   4.466
30451W        W 2766  11.406  12.804   2.673
30452W        W 2767  30.865   8.289   1.283
30453W        W 2768  10.897  26.474   2.125
30454W        W 2769  41.263  17.004  13.858
30455W        W 2770  43.865  38.516  12.929
30456W        W 2771  42.333   4.930  14.239
30457W        W 2772  23.931  15.165   3.785
30458W        W 2773  26.284  33.944  10.172
30459W        W 2774  32.925  25.406  10.997
30460W        W 2775  24.604  21.617   0.933
30461W        W 2776  31.200  15.740   4.596
30462W        W 2777   4.335  36.093   2.636
30463W        W 2778  20.213  20.777   3.734
30464W        W 2779  12.238  10.683   1.327
30465W        W 2780  30.109  28.386  12.931
30466W        W 2781  18.554  28.894   2.342
30467W        W 2782  27.179  11.271   1.042
30468W        W 2783  17.658  43.277   4.287
30469W        W 2784  43.793  32.544   3.212
30470W        W 2785  11.549  14.414  14.405
30471W        W 2786  17.185  38.787  10.612
30472W        W 2787  22.494  43.372   3.061
30473W        W 2788   7.672  17.046  11.187
30474W        W 2789  11.123   3.359  10.745
30475W        W 2790  36.925  29.451   1.247
30476W        W 2791  41.006   3.953  13.308
30477W        W 2792  27.024   6.532  12.864
30478W        W 2793  24.307   9.645  14.843
30479W        W 2794  20.530   5.041  14.411
30480W        W 2795  35.093  27.020  12.861
30481W        W 2796  14.332  42.334  12.604
30482W        W 2797  31.648  14.192  12.393
30483W        W 2798  16.572  12.672   1.593
30484W        W 2799  11.238  31.918   3.702
30485W        W 2800  23.709   2.675   2.387
30486W        W 2801  33.441  37.597   1.867
30487W        W 2802  43.467  30.695  10.848
30488W        W 2803  23.972  34.480  14.989
30489W        W 2804  16.301  25.072   5.128
30490W        W 2805   7.575  41.360  12.104
30491W        W 2806  38.512  13.072  11.188
30492W        W 2807  31.370  28.260  12.175
30493W        W 2808  10.767  10.231  13.035
30494W        W 2809   3.909  12.683  12.844
30495W        W 2810   1.006   3.418   2.514
30496W        W 2811  11.848  23.208  11.266
30497W        W 2812   6.649  16.605   0.890
30498W        W 2813  33.017   9.446   0.814
30499W        W 2814   5.158  19.840  14.559
30500W        W 2815   0.321   0.794   4.587
30501W        W 2816  19.693  25.294  14.413
30502W        W 2817  11.900  30.688  13.335
30503W        W 2818  25.185  13.304   2.613
30504W        W 2819  44.961  12.818   0.384
30505W        W 2820  16.301  36.369   2.388
30506W        W 2821  38.754  24.588   1.344
30507W        W 2822  44.199  42.482  12.544
30508W        W 2823  23.774   9.765  14.058
30509W        W 2824   4.725  22.601   0.887
30510W        W 2825  10.404  43.183  12.385
30511W        W 2826  15.655  35.536   2.612
30512W        W 2827  19.643  12.328   2.728
30513W        W 2828   4.902  37.947  14.112
30514W        W 2829  31.093  29.216  14.565
30515W        W 2830  19.466  17.649   2.930
30516W        W 2831  43.458   9.637  12.035
30517W        W 2832  32.038   4.539   3.742
30518W        W 2833  15.226  28.194   2.165
30519W        W 2834  14.313  31.593  13.825
30520W        W 2835  41.728  28.457   1.242
30521W        W 2836  40.536  37.090  12.125
30522W        W 2837   6.363  35.653   0.303
30523W        W 2838   1.777   8.515  10.927
30524W        W 2839  12.573  27.542   1.806
30525W        W 2840  16.026  42.807  14.765
30526W        W 2841   8.820  31.539  12.954
30527W        W 2842   2.746  31.648  14.400
30528W        W 2843   2.282  24.026   3.235
30529W        W 2844   1.341   2.008   0.029
30530W        W 2845  36.542  32.100   1.727
30531W        W 2846  28.959   4.767   5.038
30532W        W 2847  15.561  25.658   1.809
30533W        W 2848  18.827  19.379   5.051
30534W        W 2849  24.672  39.823   1.885
30535W        W 2850  15.835  15.366   9.775
30536W        W 2851  18.823   8.804  14.775
30537W        W 2852  10.868  17.763  12.391
30538W        W 2853  37.110  23.231   1.441
30539W        W 2854   8.504  30.136  13.970
30540W        W 2855  21.719  42.490  13.303
30541W        W 2856  29.603  25.113   4.252
30542W        W 2857  20.866  22.954   2.725
30543W        W 2858  38.718  23.012  11.961
30544W        W 2859   7.488  31.494  14.732
30545W        W 2860   9.325  28.515  12.958
30546W        W 2861   0.816  16.536  11.930
30547W        W 2862  21.343  32.904  14.178
30548W        W 2863  40.789  26.026   1.847
30549W        W 2864   3.943  41.783   2.608
30550W        W 2865   0.041  13.607   0.972
30551W        W 2866  27.009  28.890   3.777
30552W        W 2867  25.489  19.273   5.042
30553W        W 2868  31.890   5.181  14.771
30554W        W 2869  16.051  37.773   3.225
30555W        W 2870  20.687  19.953  13.705
30556W        W 2871   0.416  25.582   4.906
30557W        W 2872   5.964  23.682  10.054
30558W        W 2873  38.167  14.095  11.063
30559W        W 2874  22.695   5.980   0.920
30560W        W 2875  26.453  42.658  11.380
30561W        W 2876  31.869  20.978  11.222
30562W        W 2877  24.632  20.777  10.374
30563W        W 2878  18.745  22.657   3.797
30564W        W 2879  11.213   7.671  10.972
30565W        W 2880  24.312  18.106   2.792
30566W        W 2881  35.570  19.869   4.357
30567W        W 2882  30.094  38.318  11.105
30568W        W 2883  22.163  23.666  11.221
30569W        W 2884  26.522  32.623  12.117
30570W        W 2885   6.887  36.749  12.168
30571W        W 2886  19.778   0.460  10.323
30572W        W 2887  23.769  21.342   0.225
30573W        W 2888  24.470  27.002   2.123
30574W        W 2889   4.997   1.932   1.269
30575W        W 2890  34.855  23.517   0.332
30576W        W 2891  43.564   3.179   1.211
30577W        W 2892  14.299  33.943   2.721
30578W        W 2893  42.463   1.577  13.544
30579W        W 2894  13.859  34.092   4.146
30580W        W 2895  28.677   5.606   4.034
30581W        W 2896  40.307  34.016   1.425
30582W        W 2897   9.412   6.799  14.458
30583W        W 2898  31.014   3.427   4.677
30584W        W 2899  41.350  41.388   0.989
30585W        W 2900  13.471  25.805  11.942
30586W        W 2901  37.358  27.244  14.612
30587W        W 2902  43.692   1.223   2.926
30588W        W 2903  15.650   5.839  13.003
30589W        W 2904  11.106  12.167   0.492
30590W        W 2905  26.171   3.534  12.686
30591W        W 2906  26.059  11.825   4.132
30592W        W 2907  40.111  24.687   2.466
30593W        W 2908  33.454  22.390   4.162
30594W        W 2909   8.774   2.250  11.128
30595W        W 2910   6.487  24.143   2.255
30596W        W 2911  13.204  10.689  12.026
30597W        W 2912  38.635  27.770   3.951
30598W        W 2913  44.757   8.380  13.583
30599W        W 2914   8.894  36.885   1.984
30600W        W 2915  43.346  40.451  12.046
30601W        W 2916  41.958   0.557   0.176
30602W        W 2917  40.101  36.056  11.127
30603W        W 2918   8.282  16.477   0.122
30604W        W 2919  20.985  34.181  14.497
30605W        W 2920  15.212   7.531   2.251
30606W        W 2921  10.218  29.959  12.418
30607W        W 2922  10.941  35.958   4.996
30608W        W 2923  29.414  22.482  11.127
30609W        W 2924  20.178  19.055   0.296
30610W        W 2925  37.236  43.266   1.340
30611W        W 2926  27.023   1.597   0.224
30612W        W 2927  15.255  29.682   5.421
30613W        W 2928  37.797  17.747   2.887
30614W        W 2929   7.796  20.523   3.290
30615W        W 2930  37.697   1.412   0.604
30616W        W 2931  31.520  44.341  14.565
30617W        W 2932  34.721  26.266  14.095
30618W        W 2933  35.371  15.733  13.922
30619W        W 2934  35.858  21.203  11.603
30620W        W 2935  24.662  11.196   0.857
30621W        W 2936  21.977  13.083  11.520
30622W        W 2937  35.927   7.991   2.821
30623W        W 2938   6.753   1.572   1.957
30624W        W 2939  36.258  22.953   4.776
30625W        W 2940   7.448  42.672   2.100
30626W        W 2941   3.925   5.707  14.947
30627W        W 2942   2.536  11.271  11.158
30628W        W 2943   4.147  35.464  11.470
30629W        W 2944  26.207  12.247   1.746
30630W        W 2945   7.654   6.849   3.384
30631W        W 2946  11.340   6.790   1.782
30632W        W 2947   6.692  26.015  13.713
30633W        W 2948  18.405   8.403   1.310
30634W        W 2949  12.905  32.449  10.933
30635W        W 2950  36.593  39.109  11.301
30636W        W 2951  18.005   0.648  14.939
30637W        W 2952   1.203  23.554  12.057
30638W        W 2953   2.421  24.061  10.701
30639W        W 2954  19.100   2.466   1.820
30640W        W 2955  32.959  27.981   1.411
30641W        W 2956  12.039  27.595  14.949
30642W        W 2957  12.827   5.187   4.165
30643W        W 2958   9.827   2.829   3.521
30644W        W 2959  20.075  39.128  10.659
30645W        W 2960  13.518  29.468   1.967
30646W        W 2961  41.578  15.722   2.336
30647W        W 2962  11.189   3.729   4.070
30648W        W 2963   3.822  13.813  13.378
30649W        W 2964  31.541  37.632  13.973
30650W        W 2965  30.112  41.897  12.429
30651W        W 2966  43.081  38.827   0.988
30652W        W 2967   1.975   9.269  12.930
30653W        W 2968  18.282  10.816   1.772
30654W        W 2969  36.307  38.865   4.164
30655W        W 2970  37.342  44.424  13.419
30656W        W 2971  23.244  34.990  11.697
30657W        W 2972  24.917  33.313   0.412
30658W        W 2973  19.113  36.897  14.046
30659W        W 2974  18.668  24.421  14.896
30660W        W 2975  21.281  17.204   4.420
30661W        W 2976   6.170   8.917   4.684
30662W        W 2977  22.205  14.806   1.477
30663W        W 2978   7.112  13.277  13.473
30664W        W 2979   0.491   8.322  12.523
30665W        W 2980   3.366  29.421   2.703
30666W        W 2981  19.797  24.187  12.602
30667W        W 2982  27.537  17.632   1.748
30668W        W 2983  33.301  16.648   0.894
30669W        W 2984   3.553  32.884  14.461
30670W        W 2985  22.787   6.097  11.667
30671W        W 2986   6.752  28.149   1.831
30672W        W 2987  13.682  22.313   0.146
30673W        W 2988   9.239  18.235  12.015
30674W        W 2989  21.772  37.488   1.904
30675W        W 2990  11.215  34.975  11.195
30676W        W 2991  35.479  40.092  14.770
30677W        W 2992  26.754   3.312  12.070
30678W        W 2993   5.260  28.562   1.200
30679W        W 2994   8.296  27.948  11.179
30680W        W 2995  18.669  30.187  13.881
30681W        W 2996   6.395  34.399  12.891
30682W        W 2997  24.740  12.603   4.141
30683W        W 2998  11.287  43.752  12.515
30684W        W 2999  15.796  13.896  11.086
30685W        W 3000  34.980   9.869  11.119
30686W        W 3001  12.253  38.869   2.119
30687W        W 3002  38.430  19.165  12.906
30688W        W 3003  10.762  25.952  12.515
30689W        W 3004  30.926   3.667   4.033
30690W        W 3005   4.429  14.039   4.584
30691W        W 3006  35.592  23.970   3.318
30692W        W 3007  26.157  33.415  10.309
30693W        W 3008   8.844  34.881   3.761
30694W        W 3009  23.181  41.810  14.253
30695W        W 3010  41.567  42.892   3.224
30696W        W 3011  33.873  41.762  13.870
30697W        W 3012   3.766  24.747  12.814
30698W        W 3013  33.065  35.865   3.025
30699W        W 3014  32.894  27.941  13.310
30700W        W 3015  35.010  35.884   0.992
30701W        W 3016  13.411  31.884  14.436
30702W        W 3017  38.287  12.991  13.030
30703W        W 3018  25.947  27.559   2.864
30704W        W 3019  15.200   2.312   3.447
30705W        W 3020  39.086  24.093   1.273
30706W        W 3021  34.770   5.230  12.866
30707W        W 3022  35.602  40.727  12.048
30708W        W 3023  22.240   2.744   4.837
30709W        W 3024   2.323  34.554   3.550
30710W        W 3025  40.853  28.486  14.446
30711W        W 3026  42.354   5.902   4.172
30712W        W 3027  23.266   5.284  14.325
30713W        W 3028  43.640  39.241  13.394
30714W        W 3029  12.312  33.580   0.494
30715W        W 3030   1.785   6.431   0.342
30716W        W 3031  32.960   2.515  10.890
30717W        W 3032  34.283  35.357   2.815
30718W        W 3033  38.508  39.132   3.167
30719W        W 3034   3.787  40.639  11.071
30720W        W 3035   5.304  36.960  12.060
30721W        W 3036  36.174   1.318  14.991
30722W        W 3037   8.086  28.111  13.162
30723W        W 3038   3.793  30.941  11.611
30724W        W 3039  25.619   2.078  14.294
30725W        W 3040  19.700   2.668  13.816
30726W        W 3041  39.788   7.681  13.313
30727W        W 3042  18.045   9.920   0.864
30728W        W 3043  43.308  25.905  12.881
30729W        W 3044   6.865   0.003  13.512
30730W        W 3045  30.879  44.461  14.810
30731W        W 3046  35.524  30.115   1.257
30732W        W 3047  16.567  13.928   1.828
30733W        W 3048  17.558  29.093  14.325
30734W        W 3049  35.114  42.755   0.813
30735W        W 3050  11.248   2.858  10.664
30736W        W 3051  12.839  10.087  10.197
30737W        W 3052  24.704   9.643   4.007
30738W        W 3053  25.615   7.716   4.336
30739W        W 3054  24.476  35.446  12.969
30740W        W 3055  33.694   7.982   4.228
30741W        W 3056  44.973  29.108   3.604
30742W        W 3057  33.057   7.168  13.123
30743W        W 3058  15.128  35.597   0.794
30744W        W 3059   6.027  25.643   1.278
30745W        W 3060  10.307  31.819   4.544
30746W        W 3061  28.204  10.794  14.735
30747W        W 3062  27.810  33.980   2.798
30748W        W 3063  43.085  24.126  14.743
30749W        W 3064  15.863  40.896   4.603
30750W        W 3065   3.423  39.966  13.876
30751W        W 3066  40.944   0.797   4.110
30752W        W 3067  11.549  40.429   4.996
30753W        W 3068  10.341  23.187   3.177
30754W        W 3069  18.808  35.423   2.823
30755W        W 3070  29.360   1.520   1.948
30756W        W 3071  24.734  14.265   4.646
30757W        W 3072  39.614  20.987  14.555
30758W        W 3073  10.433   3.946   2.425
30759W        W 3074  12.313   7.144   1.361
30760W        W 3075  34.134  13.052   1.766
30761W        W 3076  42.272  33.453  13.909
30762W        W 3077   2.485  37.019  14.556
30763W        W 3078  28.807  37.333  11.980
30764W        W 3079  23.137  23.080   4.662
30765W        W 3080  21.497  11.386   3.570
30766W        W 3081  23.609  37.528  11.647
30767W        W 3082  11.807  36.403   2.381
30768W        W 3083  32.994   9.828   1.805
30769W        W 3084  10.745  19.839  11.031
30770W        W 3085  13.035   1.869   0.384
30771W        W 3086  21.098   4.827   3.839
30772W        W 3087  33.479   8.634  13.971
30773W        W 3088  14.066  21.177  13.086
30774W        W 3089  35.056  14.232   3.590
30775W        W 3090  24.652   4.891   0.273
30776W        W 3091  25.442  29.453   2.210
30777W        W 3092  43.874   5.762  14.819
30778W        W 3093  40.535  23.697   0.437
30779W        W 3094  41.221   0.443   1.346
30780W        W 3095  16.365  22.330   4.294
30781W        W 3096  39.332  17.405  10.352
30782W        W 3097  35.376  38.338   2.851
30783W        W 3098  20.278  26.804  13.976
30784W        W 3099  32.420   4.438  14.706
30785W        W 3100  21.334  35.851  12.109
30786W        W 3101   4.753  16.138  12.810
30787W        W 3102  11.723   6.228  14.570
30788W        W 3103  23.597  16.530  10.385
30789W        W 3104  33.520  43.491  13.665
30790W        W 3105  36.911  30.659  11.112
30791W        W 3106  43.400  16.206   2.737
30792W        W 3107   1.959  24.198   1.722
30793W        W 3108  15.747   3.417  10.731
30794W        W 3109   0.361   7.358  13.379
30795W        W 3110  11.151  28.624   3.320
30796W        W 3111  15.728  11.535   3.672
30797W        W 3112  24.503  14.685   4.374
30798W        W 3113  19.292  31.553  11.422
30799W        W 3114  35.878  26.083   3.662
30800W        W 3115  11.906   6.308   0.435
30801W        W 3116  19.051  33.403  13.850
30802W        W 3117  37.126   4.823  13.622
30803W        W 3118  33.170  41.438  10.765
30804W        W 3119   4.886  10.450  11.603
30805W        W 3120  27.494  11.527  13.418
30806W        W 3121  44.424  21.512   0.242
30807W        W 3122  35.785   5.318  12.873
30808W        W 3123  29.566   1.697  13.903
30809W        W 3124  36.078  30.812   2.284
30810W        W 3125  38.008  11.597   2.746
30811W        W 3126  38.927  31.282   2.336
30812W        W 3127  37.372  37.118  14.321
30813W        W 3128   8.049  33.627   4.324
30814W        W 3129  39.984  28.110  13.375
30815W        W 3130   9.892  42.001   1.962
30816W        W 3131   7.123  12.519  11.074
30817W        W 3132  11.677  18.157   0.770
30818W        W 3133  21.652  25.964   0.751
30819W        W 3134   1.508   3.799  12.812
30820W        W 3135  20.575  31.312   2.342
30821W        W 3136   1.445  20.381   3.778
30822W        W 3137  43.392   4.034   2.348
30823W        W 3138  14.284  28.483   1.868
30824W        W 3139  20.799  11.092   1.351
30825W        W 3140   2.690   4.602  11.135
30826W        W 3141   7.511  23.794  11.220
30827W        W 3142  16.474  11.637   4.324
30828W        W 3143  13.277  21.673  12.645
30829W        W 3144  11.742  10.381   1.403
30830W        W 3145  43.881  15.118  11.988
30831W        W 3146  22.754  34.654   4.221
30832W        W 3147  17.043   0.740  13.882
30833W        W 3148  32.042  22.762  14.306
30834W        W 3149  12.147  17.142   1.871
30835W        W 3150   1.996   9.957  10.947
30836W        W 3151  32.980  22.695  14.354
30837W        W 3152  37.327  24.222   0.594
30838W        W 3153  26.604  43.444  13.128
30839W        W 3154  30.382  33.374   1.439
30840W        W 3155  21.805  10.920   2.279
30841W        W 3156  32.248  22.726   0.583
30842W        W 3157  40.034  36.936   4.211
30843W        W 3158  30.157  25.093   2.812
30844W        W 3159  42.430   9.286   3.223
30845W        W 3160  30.857  31.086   2.918
30846W        W 3161  15.848  39.829  12.062
30847W        W 3162  26.900   6.842  10.093
30848W        W 3163  34.418  31.836  12.453
30849W        W 3164   7.927   6.790   4.838
30850W        W 3165  24.428  23.143   4.062
30851W        W 3166  28.702   1.128   2.683
30852W        W 3167  15.703  30.932  13.947
30853W        W 3168  43.608   2.368  13.445
30854W        W 3169  43.878  20.527   0.821
30855W        W 3170  26.087  26.101  12.644
30856W        W 3171  28.049   6.699  10.132
30857W        W 3172  24.223   4.844   4.228
30858W        W 3173  23.802  15.584  14.794
30859W        W 3174  44.781  30.216  11.726
30860W        W 3175  22.231  39.491   2.907
30861W        W 3176  44.296  25.744  12.926
30862W        W 3177  28.276  24.019  14.275
30863W        W 3178  33.416  13.311  12.513
30864W        W 3179   6.660  43.806   0.598
30865W        W 3180  24.779  14.779  14.424
30866W        W 3181  22.721  31.801  13.818
30867W        W 3182  13.762  37.011   0.799
30868W        W 3183   7.839  14.726   2.860
30869W        W 3184   7.359  41.771  10.743
30870W        W 3185  33.934  36.810   1.865
30871W        W 3186  26.664  41.070  13.060
30872W        W 3187  16.743  44.224   4.680
30873W        W 3188  11.727  43.115   4.003
30874W        W 3189  29.389  30.600   3.306
30875W        W 3190   3.002  13.844  10.813
30876W        W 3191   2.773   0.261   2.321
30877W        W 3192  19.590  41.368   2.675
30878W        W 3193   0.128  29.833   1.144
30879W        W 3194   8.420  44.469   1.377
30880W        W 3195  11.825   3.938   0.706
30881W        W 3196   2.399  31.502   0.830
30882W        W 3197  37.888  30.098  14.426
30883W        W 3198  24.147  35.605   3.536
30884W        W 3199  29.206  35.336   4.084
30885W        W 3200   9.607  14.716  12.999
30886W        W 3201  29.436   6.106   4.156
30887W        W 3202  16.291  16.868  14.086
30888W        W 3203   9.289  29.038  12.983
30889W        W 3204   3.177  25.662  11.463
30890W        W 3205  13.515  21.710   4.373
30891W        W 3206   8.862  39.759  12.182
30892W        W 3207  23.910  23.307  14.835
30893W        W 3208  35.960   7.344   4.054
30894W        W 3209  20.094  15.771  13.951
30895W        W 3210  20.991   9.845   4.099
30896W        W 3211  31.376  29.542   0.027
30897W        W 3212  41.768  26.051  11.965
30898W        W 3213  26.534  37.274   3.804
30899W        W 3214   3.022   5.890  10.787
30900W        W 3215  13.236  30.182   4.147
30901W        W 3216  42.209  10.820   2.557
30902W        W 3217   6.237   9.554  13.373
30903W        W 3218  35.285  21.012   0.848
30904W        W 3219  18.883   6.112   3.703
30905W        W 3220   7.933  43.855   0.919
30906W        W 3221  36.348  25.972  14.296
30907W        W 3222  32.925  19.698  14.564
30908W        W 3223  43.424  27.590   2.214
30909W        W 3224  10.394   8.307  14.872
30910W        W 3225   6.236  14.736   1.824
30911W        W 3226  40.463  36.992   2.852
30912W        W 3227  11.103   4.955   4.077
30913W        W 3228  35.960   9.766   2.230
30914W        W 3229   0.222  42.468   4.169
30915W        W 3230  38.913  25.858  10.156
30916W        W 3231  18.196  25.502  10.579
30917W        W 3232  15.160  27.554  13.298
30918W        W 3233  36.268  20.292   0.823
30919W        W 3234   1.994   3.730   2.778
30920W        W 3235  31.141   1.800  12.039
30921W        W 3236  26.769  39.301  14.306
30922W        W 3237  29.063  20.506   2.276
30923W        W 3238  23.168   3.954  14.087
30924W        W 3239  34.908  32.013  12.562
30925W        W 3240  25.410   5.845   0.296
30926W        W 3241  18.004  18.644  13.422
30927W        W 3242  43.049  28.385  11.110
30928W        W 3243  23.575  31.540   3.069
30929W        W 3244   8.069   5.291   0.261
30930W        W 3245  33.567  19.600   3.760
30931W        W 3246   0.852   4.237  13.473
30932W        W 3247  18.209  25.883  14.949
30933W        W 3248  33.105  19.819   3.833
30934W        W 3249  12.053  11.069   3.798
30935W        W 3250  12.666   2.160   1.671
30936W        W 3251  17.555  11.178   0.369
30937W        W 3252  22.069  10.781  12.045
30938W        W 3253  31.295  28.022  13.598
30939W        W 3254   2.781  17.207   2.743
30940W        W 3255   5.862  41.530   1.129
30941W        W 3256  13.316  15.793  11.950
30942W        W 3257  34.161   2.029   4.214
30943W        W 3258  43.776   5.694  11.825
30944W        W 3259  17.147  13.625   4.572
30945W        W 3260  36.360  20.497   1.821
30946W        W 3261  37.319   0.440   1.661
30947W        W 3262  22.101  41.862  13.846
30948W        W 3263   7.464   8.940  13.075
30949W        W 3264   7.872  27.454   3.625
30950W        W 3265  11.849   7.016   1.710
30951W        W 3266   7.639  12.948  13.122
30952W        W 3267  11.560  22.904   0.822
30953W        W 3268  23.626   8.852   4.898
30954W        W 3269  22.638  18.534  12.889
30955W        W 3270  12.174  25.622   1.193
30956W        W 3271  10.368  42.260  13.391
30957W        W 3272  30.683  27.510  11.043
30958W        W 3273   9.642  20.178  10.355
30959W        W 3274  27.957   4.869  13.825
30960W        W 3275  34.517  27.212  14.265
30961W        W 3276  15.668  28.000  12.849
30962W        W 3277  12.659  38.595  14.860
30963W        W 3278  38.071   7.363   2.611
30964W        W 3279  43.037   6.176  12.373
30965W        W 3280  18.738   0.397  12.405
30966W        W 3281  25.678  31.107  11.159
30967W        W 3282  35.625  25.830   0.352
30968W        W 3283  24.930   8.738   2.869
30969W        W 3284   6.856  22.084   2.224
30970W        W 3285  43.504  14.843  10.695
30971W        W 3286  14.853  42.248  13.314
30972W        W 3287  17.093  40.472  12.815
30973W        W 3288  12.582  15.042   1.546
30974W        W 3289  44.577  35.411  12.502
30975W        W 3290   0.395  18.983  13.354
30976W        W 3291  15.074  19.610  13.179
30977W        W 3292  32.477  22.078  10.932
30978W        W 3293  38.829  41.535   1.153
30979W        W 3294   3.754  10.222  14.404
30980W        W 3295  19.042   6.875  12.151
30981W        W 3296  25.624  43.114   5.055
30982W        W 3297   6.193  15.344   3.060
30983W        W 3298  28.648  25.377   4.118
30984W        W 3299  31.365  40.057  14.010
30985W        W 3300  12.386  21.562  13.577
30986W        W 3301  39.912  32.610   2.835
30987W        W 3302  44.603  13.685   2.255
30988W        W 3303  34.058  29.656  10.704
30989W        W 3304  30.307  24.303  13.077
30990W        W 3305  25.012  20.763  11.178
30991W        W 3306  15.159  13.250   0.541
30992W        W 3307   4.934  14.827  12.127
30993W        W 3308  29.131  39.079   3.603
30994W        W 3309  34.318  43.953   2.820
30995W        W 3310  24.733  14.687  11.482
30996W        W 3311  27.294   7.164   5.001
30997W        W 3312  40.755   8.110  13.922
30998W        W 3313  10.591  28.121  11.032
30999W        W 3314   9.248   4.227  14.000
31000W        W 3315   2.229  32.320  13.817
31001W        W 3316  28.026  25.626   4.802
31002W        W 3317  42.327  11.126  12.552
31003W        W 3318  10.447   0.247   0.921
31004W        W 3319  18.691  32.935   1.602
31005W        W 3320  27.120   4.151  10.495
31006W        W 3321  19.484   9.865   3.256
31007W        W 3322  30.416  41.380  11.881
31008W        W 3323   6.667  23.138   2.004
31009W        W 3324  35.687  16.833   1.282
31010W        W 3325  27.564   6.646  13.401
31011W        W 3326  35.630  24.588  11.431
31012W        W 3327  18.648  20.614   4.868
31013W        W 3328   3.690  23.269  11.152
31014W        W 3329   6.709  36.357  14.849
31015W        W 3330  17.475  18.740  14.329
31016W        W 3331  40.018   4.516  14.300
31017W        W 3332   8.754   3.252  14.963
31018W        W 3333  34.528  13.871  13.880
31019W        W 3334  44.047  41.481  12.582
31020W        W 3335   7.266  34.616  13.381
31021W        W 3336  19.622  26.107   3.853
31022W        W 3337   8.342  33.416   2.715
31023W        W 3338   8.548  26.354  11.141
31024W        W 3339  18.105  22.481  11.442
31025W        W 3340  16.056   3.958   4.098
31026W        W 3341  41.817  28.799  11.054
31027W        W 3342  31.394  38.788   4.135
31028W        W 3343   1.015  24.483  12.512
31029W        W 3344   8.740  26.730  14.968
31030W        W 3345  14.055   1.346  10.647
31031W        W 3346  24.484  39.156   3.725
31032W        W 3347  33.932  21.856  10.981
31033W        W 3348   9.380  28.458  13.810
31034W        W 3349  25.162  43.980  14.444
31035W        W 3350  40.561   1.029  11.071
31036W        W 3351  44.213  43.974  13.334
31037W        W 3352  20.397  39.919   4.212
31038W        W 3353   0.889   1.630   2.440
31039W        W 3354  19.002  37.924   0.416
31040W        W 3355  20.660  26.703   1.575
31041W        W 3356  27.619  12.727   1.789
31042W        W 3357  21.199  17.116   3.930
31043W        W 3358   5.946  17.627   4.202
31044W        W 3359  38.656  26.709   0.833
31045W        W 3360  13.878  21.906   4.008
31046W        W 3361  25.231   2.334   3.737
31047W        W 3362  42.616  40.294   2.215
31048W        W 3363   4.931   8.570   1.411
31049W        W 3364   0.794  20.605   4.316
31050W        W 3365  19.244  24.227  10.477
31051W        W 3366  23.577  21.510  11.635
31052W        W 3367  26.583  33.182   3.149
31053W        W 3368   6.139  40.932   0.925
31054W        W 3369  20.161  38.832   2.894
31055W        W 3370  26.133   3.412   3.588
31056W        W 3371  16.129  14.859  11.556
31057W        W 3372  40.472   5.836   2.739
31058W        W 3373   4.312  23.680   2.186
31059W        W 3374  33.592  29.404   3.643
31060W        W 3375  35.511  41.975   1.863
31061W        W 3376  33.298  25.069   0.238
31062W        W 3377  12.464   5.825  10.582
31063W        W 3378  17.729   9.474   2.828
31064W        W 3379   5.204  25.128   3.731
31065W        W 3380  38.028   3.242  14.378
31066W        W 3381   1.819   7.874  13.561
31067W        W 3382  11.783  34.880   2.188
31068W        W 3383  17.095  19.288  11.133
31069W        W 3384  44.328   5.964   0.868
31070W        W 3385  30.155   9.192   2.940
31071W        W 3386  30.858  19.136   4.632
31072W        W 3387   2.376  11.590  11.534
31073W        W 3388   0.668  30.538  12.549
31074W        W 3389  22.482  25.767  11.946
31075W        W 3390  29.496  27.829  12.500
31076W        W 3391  15.333  27.979   1.703
31077W        W 3392  30.549  33.404  14.618
31078W        W 3393   3.440  13.508   1.333
31079W        W 3394  38.115  36.503  14.934
31080W        W 3395   7.436  10.648  14.389
31081W        W 3396  20.979  15.695   0.195
31082W        W 3397   7.315   5.605   0.448
31083W        W 3398  12.394  42.205   0.683
31084W        W 3399  25.715  24.054  14.348
31085W        W 3400  20.570   3.266  12.911
31086W        W 3401  32.283  10.429   4.097
31087W        W 3402   6.197  27.277   3.996
31088W        W 3403  41.456  13.415   0.400
31089W        W 3404   3.352  17.188  12.352
31090W        W 3405  30.409  21.666  14.748
31091W        W 3406   0.003  15.883   5.121
31092W        W 3407  16.076  42.468   0.897
31093W        W 3408  40.884  28.197  14.887
31094W        W 3409  25.538  10.229   0.834
31095W        W 3410  31.033  33.853  12.309
31096W        W 3411  34.087   4.776  11.648
31097W        W 3412  38.063  20.696  12.425
31098W        W 3413  15.455  25.235  14.877
31099W        W 3414  31.920  19.585   1.714
31100W        W 3415   7.413  15.838  13.865
31101W        W 3416  41.202   3.453   0.280
31102W        W 3417  19.749  16.156  12.482
31103W        W 3418  28.208  16.613   4.079
31104W        W 3419  30.523  19.998  14.968
31105W        W 3420   2.562  13.959  11.906
31106W        W 3421  40.314  23.024   4.072
31107W        W 3422  43.215   8.795  11.559
31108W        W 3423  21.624  23.958  12.321
31109W        W 3424  24.821  40.235   2.182
31110W        W 3425  42.681   5.121   0.957
31111W        W 3426  34.665  33.824   1.646
31112W        W 3427  32.035  31.220   3.362
31113W        W 3428  32.379  44.322  12.316
31114W        W 3429  20.980   3.853   3.392
31115W        W 3430  36.347  34.044  12.772
31116W        W 3431   6.486  35.869  10.603
31117W        W 3432   9.791   9.640  12.014
31118W        W 3433   0.505  10.758  10.166
31119W        W 3434  22.076  36.797   4.446
31120W        W 3435  35.820  22.683   0.390
31121W        W 3436   1.857   7.101   3.146
31122W        W 3437  41.535  31.028   0.925
31123W        W 3438  29.742  26.603   4.772
31124W        W 3439  17.349  41.763   3.196
31125W        W 3440  18.699   4.093  14.265
31126W        W 3441  28.742  26.616   4.537
31127W        W 3442  30.864   7.427  10.135
31128W        W 3443  23.754  31.057   1.889
31129W        W 3444  22.477  37.767  11.655
31130W        W 3445  25.896  19.079   3.197
31131W        W 3446  24.132  31.701   4.685
31132W        W 3447  19.269  26.084   4.326
31133W        W 3448  23.577  13.130  13.947
31134W        W 3449  38.908  37.092  13.454
31135W        W 3450  29.182  26.794  12.493
31136W        W 3451  31.312  31.553   3.909
31137W        W 3452  41.328   8.907   2.795
31138W        W 3453  35.615  15.866   3.603
31139W        W 3454  28.297  11.346  13.380
31140W        W 3455  41.081  44.366   1.447
31141W        W 3456  36.341  15.170   2.612
31142W        W 3457  40.743   9.204   0.236
31143W        W 3458  28.555  11.597   1.970
31144W        W 3459  17.708   2.250   1.739
31145W        W 3460   3.515  18.196   2.209
31146W        W 3461  32.406  38.090  12.471
31147W        W 3462  27.968  39.232  10.443
31148W        W 3463  29.644  15.096  12.451
31149W        W 3464  17.906  16.591   4.207
31150W        W 3465  21.294  40.402   0.990
31151W        W 3466  16.282  27.714   4.200
31152W        W 3467   5.400  19.582  14.956
31153W        W 3468  15.038   3.349   4.672
31154W        W 3469  25.792  27.687  11.921
31155W        W 3470  17.859  22.720   4.852
31156W        W 3471  33.827   7.400   0.464
31157W        W 3472  39.122  33.716   3.731
31158W        W 3473  27.444  30.371  11.465
31159W        W 3474  12.779  36.644  14.017
31160W        W 3475  42.873   1.885   0.312
31161W        W 3476   4.016  29.978   2.358
31162W        W 3477  38.092   5.900  13.403
31163W        W 3478  35.471  33.871  10.629
31164W        W 3479   1.302  23.499   1.478
31165W        W 3480  27.722  15.887  12.046
31166W        W 3481   5.934  35.455   2.626
31167W        W 3482  37.981  12.369   4.171
31168W        W 3483  17.731  25.503  12.393
31169W        W 3484  21.155  23.725   1.862
31170W        W 3485  35.306  42.453  12.574
31171W        W 3486  30.220  22.524  11.536
31172W        W 3487  19.413  39.235  12.437
31173W        W 3488  35.425   8.024  10.460
31174W        W 3489  18.591  31.584  14.325
31175W        W 3490   9.611  37.112   2.213
31176W        W 3491  15.228  22.752  11.885
31177W        W 3492   0.209  13.608  10.965
31178W        W 3493  29.990  40.114   1.933
31179W        W 3494  17.591  40.602   3.050
31180W        W 3495   6.796  44.575  11.034
31181W        W 3496  13.271   6.131   3.295
31182W        W 3497   9.190  33.047  12.942
31183W        W 3498  18.560  18.173  10.281
31184W        W 3499  16.405  42.582   2.776
31185W        W 3500  43.118   5.375   0.840
31186W        W 3501  30.658  21.205   1.992
31187W        W 3502  37.608  14.866   2.337
31188W        W 3503   6.705   0.357   4.612
31189W        W 3504  26.145  22.214  13.500
31190W        W 3505   4.406  17.789   3.233
31191W        W 3506  27.021   2.278   4.861
31192W        W 3507  10.346  18.956  14.594
31193W        W 3508  44.143  20.379  13.781
31194W        W 3509  19.332  44.799  12.987
31195W        W 3510  18.473  31.349  14.773
31196W        W 3511  31.009  37.844  11.045
31197W        W 3512  10.713  22.158  11.375
31198W        W 3513  31.892  41.774  13.934
31199W        W 3514  34.876   1.450   4.109
31200W        W 3515  33.001  36.498  11.196
31201W        W 3516  24.406   2.685   2.153
31202W        W 3517  18.089  15.778  11.210
31203W        W 3518   0.960  23.995  11.968
31204W        W 3519   4.577  12.513   3.339
31205W        W 3520  22.044  17.247   2.203
31206W        W 3521  18.559  21.068  10.745
31207W        W 3522   0.397  22.750   4.383
31208W        W 3523  31.604  25.241   1.325
31209W        W 3524   1.784   6.653   1.987
31210W        W 3525  25.686  11.199  13.020
31211W        W 3526  34.839  44.947  11.538
31212W        W 3527  34.012  14.649  10.822
31213W        W 3528  35.969  11.465   2.849
31214W        W 3529  32.171   0.258  13.977
31215W        W 3530   5.694  44.003   0.226
31216W        W 3531  21.215  27.409   0.782
31217W        W 3532   0.934  21.139  14.727
31218W        W 3533   8.843   6.572  11.114
31219W        W 3534  15.318   7.232   1.307
31220W        W 3535  29.124  43.868   4.289
31221W        W 3536  23.920   0.331  11.477
31222W        W 3537  13.851  29.980  10.621
31223W        W 3538  11.230   1.414  13.445
31224W        W 3539  24.284  42.014  11.979
31225W        W 3540  42.270  28.149  11.485
31226W        W 3541   8.676   8.359   2.192
31227W        W 3542  42.517  28.792   3.328
31228W        W 3543  29.108  16.647   3.961
31229W        W 3544   4.239  13.068   1.302
31230W        W 3545  42.534  37.619  12.105
31231W        W 3546  32.402  34.085   2.119
31232W        W 3547  17.432  19.290  10.730
31233W        W 3548  43.995  10.583  13.855
31234W        W 3549  33.452  15.083   4.759
31235W        W 3550  42.756  36.854  12.930
31236W        W 3551  18.550  14.800  14.822
31237W        W 3552  11.343  30.385  12.624
31238W        W 3553  14.107   3.481   0.399
31239W        W 3554  31.474  22.517  13.388
31240W        W 3555  34.148   6.619   1.312
31241W        W 3556  24.833  34.366   4.091
31242W        W 3557  29.707  33.992  13.810
31243W        W 3558  40.999  27.011   3.387
31244W        W 3559  35.624  30.733   3.633
31245W        W 3560  38.993   6.180  11.611
31246W        W 3561  24.937  15.330  12.485
31247W        W 3562  32.136  17.837  13.534
31248W        W 3563  30.154  40.344  11.182
31249W        W 3564  44.612  13.730   4.099
31250W        W 3565  29.625  12.709  10.944
31251W        W 3566  14.871  20.322  12.454
31252W        W 3567  43.492  37.546   1.346
31253W        W 3568   0.776  27.392  14.106
31254W        W 3569  42.489  34.633  10.916
31255W        W 3570   3.148  21.999  11.153
31256W        W 3571  17.241  11.275  10.374
31257W        W 3572  27.763  15.692   1.785
31258W        W 3573  37.353  41.335   4.929
31259W        W 3574  43.112  34.373   0.720
31260W        W 3575  24.011  27.881   4.865
31261W        W 3576  21.103   7.700  11.816
31262W        W 3577   3.939  17.714   1.437
31263W        W 3578  14.888  22.684  11.184
31264W        W 3579  38.837   1.819   3.684
31265W        W 3580  33.186  33.906  12.416
31266W        W 3581   6.783   5.642   0.635
31267W        W 3582   1.522  11.679   0.301
31268W        W 3583  14.238  17.339   0.364
31269W        W 3584  34.342   7.885  14.842
31270W        W 3585  23.812  14.295  11.062
31271W        W 3586  31.096  19.154   1.993
31272W        W 3587  28.130   6.846  11.040
31273W        W 3588   9.064  12.829   5.120
31274W        W 3589  19.049   0.862   4.709
31275W        W 3590  27.165  22.947  11.097
31276W        W 3591  11.148  27.645   1.864
31277W        W 3592  37.504  17.547   1.704
31278W        W 3593  30.111  24.589  13.480
31279W        W 3594   8.235   5.096  11.902
31280W        W 3595  10.673   6.401   1.916
31281W        W 3596  11.776   1.549  12.993
31282W        W 3597  15.872   5.839  10.635
31283W        W 3598  13.321  32.546   0.283
31284W        W 3599   7.588  28.005  13.037
31285W        W 3600  32.493   5.745   0.014
31286W        W 3601  39.827  12.260   0.372
31287W        W 3602  17.075   5.734   4.666
31288W        W 3603  42.537   2.416  12.581
31289W        W 3604   4.890   3.666  13.271
31290W        W 3605   3.702   5.984   0.334
31291W        W 3606   8.455   1.488   4.701
31292W        W 3607   5.129  12.617  12.439
31293W        W 3608  15.290  34.511  12.804
31294W        W 3609  16.427  37.632   2.903
31295W        W 3610  39.500  31.885   1.643
31296W        W 3611  42.986  37.636  13.913
31297W        W 3612  12.655  13.198  14.410
31298W        W 3613  13.327  21.089  10.360
31299W        W 3614   5.341  41.493   1.965
31300W        W 3615  44.352  42.369   1.654
31301W        W 3616   6.343  43.290  14.911
31302W        W 3617  11.387  11.526  12.986
31303W        W 3618  23.626  18.090   3.549
31304W        W 3619  17.259  11.683  11.176
31305W        W 3620  24.590  14.367  13.769
31306W        W 3621  22.131  24.349  13.060
31307W        W 3622  34.937  43.214   5.066
31308W        W 3623  23.175  21.787  10.743
31309W        W 3624  25.599   8.284   3.123
31310W        W 3625  42.058   2.269  10.674
31311W        W 3626  30.493  26.028   0.575
31312W        W 3627   8.657  23.812   2.472
31313W        W 3628   8.209  31.528   4.634
31314W        W 3629   8.943   4.375  13.103
31315W        W 3630   6.153  25.300   3.250
31316W        W 3631  38.157  10.160  10.283
31317W        W 3632  18.846  38.386   4.094
31318W        W 3633   5.432  12.021  14.474
31319W        W 3634  43.371  28.953   1.874
31320W        W 3635  32.121  13.126  14.297
31321W        W 3636  11.781  10.417  14.913
31322W        W 3637  40.017  29.454  10.706
31323W        W 3638   8.824  20.871   9.948
31324W        W 3639   6.922   8.314  13.997
31325W        W 3640   1.519  36.286  12.878
31326W        W 3641  28.149  43.765   4.127
31327W        W 3642  22.707  28.354  11.596
31328W        W 3643  14.748   2.323  10.704
31329W        W 3644  20.305  41.859   2.079
31330W        W 3645  39.945  43.871   2.371
31331W        W 3646  40.158  17.079   3.737
31332W        W 3647   5.799  14.435   5.059
31333W        W 3648  44.046   5.825   4.661
31334W        W 3649   7.964  26.349  10.482
31335W        W 3650   7.434  21.208   3.342
31336W        W 3651   5.037  11.683  14.786
31337W        W 3652  16.295  25.343  13.915
31338W        W 3653   6.243  23.040   4.613
31339W        W 3654  14.920   1.196   4.165
31340W        W 3655  19.743   8.210   9.873
31341W        W 3656  17.029   4.719  10.640
31342W        W 3657  13.834  23.278   2.555
31343W        W 3658   3.716  17.089  11.553
31344W        W 3659  30.677  18.327  12.471
31345W        W 3660   1.225  13.287   4.159
31346W        W 3661   7.385  30.929   3.850
31347W        W 3662   9.872  34.114   5.044
31348W        W 3663  23.066  16.391   3.612
31349W        W 3664  12.570  24.746  10.681
31350W        W 3665   8.368  26.058   2.254
31351W        W 3666  34.069   6.156   3.077
31352W        W 3667   4.619  22.970  11.111
31353W        W 3668  15.865  12.403  12.896
31354W        W 3669  20.013   9.960  10.671
31355W        W 3670   0.542  18.484  14.846
31356W        W 3671  22.794  10.660  12.606
31357W        W 3672  15.558  41.809  11.509
31358W        W 3673   6.398  12.912  10.738
31359W        W 3674   8.628  37.831  14.378
31360W        W 3675  36.055  34.442  12.594
31361W        W 3676  10.634  17.040  10.603
31362W        W 3677  42.604   4.782  11.440
31363W        W 3678   8.126  22.524   4.249
31364W        W 3679  43.786  40.791   4.668
31365W        W 3680  34.082  43.789  11.109
31366W        W 3681  42.917   0.812   3.882
31367W        W 3682  38.294  10.973  12.119
31368W        W 3683  36.510  37.526  13.516
31369W        W 3684  32.948   5.255   1.335
31370W        W 3685  36.808  36.340  12.391
31371W        W 3686  37.253  12.372   1.887
31372W        W 3687   5.974  13.206   2.871
31373W        W 3688   9.436  18.383  10.290
31374W        W 3689  29.383  27.446  14.989
31375W        W 3690   2.205  10.074   2.898
31376W        W 3691  42.369   7.786  11.666
31377W        W 3692  33.364  14.832   2.731
31378W        W 3693  42.023  44.879   1.401
31379W        W 3694   2.571   8.853  10.400
31380W        W 3695   5.103  37.953  11.915
31381W        W 3696   6.102  37.389  13.071
31382W        W 3697  31.423  11.207   1.984
31383W        W 3698  16.564  37.056   4.190
31384W        W 3699   9.576  17.707  14.973
31385W        W 3700  30.198   2.652  14.768
31386W        W 3701   9.685   8.434  10.560
31387W        W 3702  44.068  40.010   3.206
31388W        W 3703  42.351   0.707   2.098
31389W        W 3704  18.694  22.467  13.554
31390W        W 3705   4.178  32.900   1.669
31391W        W 3706   6.253   1.488   0.419
31392W        W 3707  36.699  22.483  11.606
31393W        W 3708  32.561  21.410   2.470
31394W        W 3709  25.636  36.121   3.161
31395W        W 3710  30.946   7.865   3.689
31396W        W 3711  22.743  34.720  12.002
31397W        W 3712  40.338  32.438   1.480
31398W        W 3713  21.197  19.028  12.600
31399W        W 3714  24.722  36.981   4.739
31400W        W 3715   7.758  25.483  13.782
31401W        W 3716  33.720   6.333   1.297
31402W        W 3717   0.697  13.609  14.662
31403W        W 3718  41.069   6.313   2.863
31404W        W 3719  17.778  34.818   1.768
31405W        W 3720  43.787  14.065  11.542
31406W        W 3721  41.198  10.081  14.329
31407W        W 3722  24.599  36.615   3.247
31408W        W 3723   7.167  36.815   3.260
31409W        W 3724  28.476   6.613   4.116
31410W        W 3725  14.741   1.087  10.185
31411W        W 3726   8.798  33.608   1.704
31412W        W 3727  37.900  14.658  11.054
31413W        W 3728   1.958  10.887  10.442
31414W        W 3729  27.435  21.513  14.875
31415W        W 3730  15.668   4.865  12.956
31416W        W 3731  19.238  14.692  14.223
31417W        W 3732   6.442  28.513  13.334
31418W        W 3733  22.254  41.800   3.731
31419W        W 3734  30.424  13.345   4.489
31420W        W 3735   0.879  25.736   1.477
31421W        W 3736  22.498  29.597  12.029
31422W        W 3737  16.345  22.053   3.224
31423W        W 3738   8.721  16.558  14.342
31424W        W 3739  18.312  29.106   4.245
31425W        W 3740  30.486   7.456   0.911
31426W        W 3741  29.024   4.362   4.397
31427W        W 3742  27.879  35.433   3.201
31428W        W 3743  26.685  14.379  10.937
31429W        W 3744  38.964  37.463   0.442
31430W        W 3745  31.225   4.411  14.370
31431W        W 3746  31.705   0.433   2.435
31432W        W 3747   6.219  10.919  14.965
31433W        W 3748  14.834  18.977  13.451
31434W        W 3749  27.245  38.926   1.946
31435W        W 3750  17.738  29.213   3.920
31436W        W 3751  17.804   1.122  10.875
31437W        W 3752   8.393  39.895  14.485
31438W        W 3753  21.106  12.614   4.556
31439W        W 3754  17.163   9.210  11.559
31440W        W 3755   8.374  22.119  11.162
31441W        W 3756   2.988  20.507   3.810
31442W        W 3757  25.237  15.809  11.637
31443W        W 3758   3.751  41.040   1.464
31444W        W 3759  24.145  31.910  11.550
31445W        W 3760  23.061  31.910   3.679
31446W        W 3761  12.383  11.757   1.744
31447W        W 3762  16.002  13.798   0.809
31448W        W 3763   7.166  30.624   1.701
31449W        W 3764   1.834  30.991   4.719
31450W        W 3765  19.701  30.767   3.717
31451W        W 3766  30.884   9.476  11.141
31452W        W 3767  12.795  37.551  10.551
31453W        W 3768   8.203   0.702  11.487
31454W        W 3769  31.996  11.644   4.683
31455W        W 3770   9.397  37.066  14.460
31456W        W 3771  12.272  24.055   3.724
31457W        W 3772   5.828  33.073  14.501
31458W        W 3773   8.092  16.782  12.965
31459W        W 3774   1.719  17.585   4.646
31460W        W 3775  38.508  37.777  11.534
31461W        W 3776   4.351  43.312  11.919
31462W        W 3777  18.235  42.916   2.640
31463W        W 3778  29.380  42.351  13.492
31464W        W 3779   7.894  36.920   4.665
31465W        W 3780  25.439  28.042  12.043
31466W        W 3781  19.816  28.647   1.953
31467W        W 3782  11.597  35.593   2.861
31468W        W 3783   7.938  16.481   2.875
31469W        W 3784  35.936  10.765  13.526
31470W        W 3785  19.129  37.741   2.818
31471W        W 3786  37.064  34.354   1.012
31472W        W 3787   6.746  42.895  11.940
31473W        W 3788  11.087  23.993   1.282
31474W        W 3789   9.799  21.106   3.640
31475W        W 3790  24.046  27.088   1.777
31476W        W 3791  44.316  39.022  11.423
31477W        W 3792  15.298  40.255   4.706
31478W        W 3793  22.052   9.132   1.857
31479W        W 3794  13.654  25.502   0.976
31480W        W 3795  40.775  40.333   4.623
31481W        W 3796  44.938  27.463   2.749
31482W        W 3797  39.475  11.874   4.780
31483W        W 3798  44.515  28.891   3.325
31484W        W 3799  44.185  23.441   0.805
31485W        W 3800  19.261   7.588  13.430
31486W        W 3801  36.518   5.775  12.925
31487W        W 3802  19.243  41.997   0.798
31488W        W 3803   0.243   5.273   0.400
31489W        W 3804  39.285  36.924   0.373
31490W        W 3805  27.165  16.178  14.833
31491W        W 3806   7.322  22.708  12.878
31492W        W 3807  12.710  35.641  14.849
31493W        W 3808  38.870  13.000   0.832
31494W        W 3809  13.149   9.125   1.870
31495W        W 3810  41.792  10.974   4.850
31496W        W 3811  44.163  28.525   3.462
31497W        W 3812   4.339  21.302   2.144
31498W        W 3813  32.495  22.985  13.036
31499W        W 3814  22.655  26.668   3.667
31500W        W 3815   8.149  43.417   0.711
31501W        W 3816  10.270  22.018   3.672
31502W        W 3817  33.548  25.292  14.812
31503W        W 3818  15.259   7.364  13.027
31504W        W 3819  43.437  34.508   2.062
31505W        W 3820  38.091  35.871  11.152
31506W        W 3821  37.790  16.303   3.317
31507W        W 3822  19.282   6.270  11.543
31508W        W 3823  27.945   7.769   4.057
31509W        W 3824  25.074  15.284  10.678
31510W        W 3825  36.042  34.447   3.949
31511W        W 3826  13.847  34.515  13.948
31512W        W 3827  25.164   0.650   4.794
31513W        W 3828   3.367  15.340   2.896
31514W        W 3829  39.835  26.671   3.699
31515W        W 3830   5.675  33.407   3.830
31516W        W 3831  30.156  18.826   5.135
31517W        W 3832   2.800  25.230   0.986
31518W        W 3833   8.589  26.509   1.493
31519W        W 3834  38.358  10.918   2.459
31520W        W 3835   9.668  41.785   4.211
31521W        W 3836  16.207  10.327  14.021
31522W        W 3837   6.128  37.104  11.521
31523W        W 3838  12.592   2.836   0.823
31524W        W 3839  32.214   3.725  12.031
31525W        W 3840  39.822  14.530   2.843
31526W        W 3841  17.590  32.932   2.694
31527W        W 3842  29.647  20.692   4.512
31528W        W 3843   1.719  12.693   0.060
31529W        W 3844  20.013  13.315  10.683
31530W        W 3845  39.283  24.227   0.806
31531W        W 3846  41.996  29.034   1.242
31532W        W 3847  25.153  26.042  14.024
31533W        W 3848  12.879  40.001   3.265
31534W        W 3849  13.668   8.964  10.967
31535W        W 3850  33.229  25.584  13.335
31536W        W 3851   2.612  29.682  11.591
31537W        W 3852  25.783  34.784  12.073
31538W        W 3853  32.502  17.713   4.291
31539W        W 3854  40.891  31.299  14.677
31540W        W 3855  31.674   7.231   2.333
31541W        W 3856   7.576  27.303   3.206
31542W        W 3857  14.845  16.798   2.332
31543W        W 3858  13.094  30.406  11.541
31544W        W 3859  16.377  28.501  13.105
31545W        W 3860  14.342  36.546  13.529
31546W        W 3861  31.012   7.257   4.047
31547W        W 3862  31.969  23.843   1.311
31548W        W 3863  27.922  21.326  14.876
31549W        W 3864  38.990  25.361  10.262
31550W        W 3865   7.311   8.203  14.331
31551W        W 3866  16.528  21.662  12.163
31552W        W 3867  13.673  38.510   4.528
31553W        W 3868  10.763  29.608   1.899
31554W        W 3869   8.157  36.450   4.702
31555W        W 3870  40.903  41.691   0.264
31556W        W 3871  37.487   1.835   3.588
31557W        W 3872  17.943  14.814  12.491
31558W        W 3873  34.359   7.854   4.527
31559W        W 3874  22.298  31.150  14.391
31560W        W 3875  44.518  17.541   2.969
31561W        W 3876  39.535   7.144   4.642
31562W        W 3877  38.039  29.370  11.532
31563W        W 3878  29.491  13.423   0.864
31564W        W 3879  39.501  44.566   1.404
31565W        W 3880  16.727  36.521  11.633
31566W        W 3881  12.454   5.107  12.585
31567W        W 3882  33.615  23.960  12.011
31568W        W 3883  16.088  43.277  11.945
31569W        W 3884  22.538  24.713   2.299
31570W        W 3885  20.090  28.879   0.762
31571W        W 3886  24.465  18.653   4.924
31572W        W 3887   2.250   2.706  14.378
31573W        W 3888  38.532  27.419   4.321
31574W        W 3889  16.480  37.582  10.595
31575W        W 3890  19.020  40.224  12.419
31576W        W 3891   9.320  19.284   4.610
31577W        W 3892  10.858  38.279   1.224
31578W        W 3893  30.533  43.172  11.856
31579W        W 3894  37.459  20.475  13.483
31580W        W 3895   6.272   6.987  12.949
31581W        W 3896  20.243   8.443   1.008
31582W        W 3897  36.780   2.233  11.696
31583W        W 3898  38.909  44.805  13.953
31584W        W 3899  21.051  15.372   2.315
31585W        W 3900  28.346  28.467  14.943
31586W        W 3901  31.726  20.483   3.087
31587W        W 3902  23.798  38.632   4.222
31588W        W 3903  34.490  36.330  12.424
31589W        W 3904  43.025   1.380   1.702
31590W        W 3905  38.419  28.541   1.490
31591W        W 3906   9.665  28.434   0.806
31592W        W 3907  14.181   8.943  13.790
31593W        W 3908  22.731  41.975  12.079
31594W        W 3909   4.161  39.245   2.034
31595W        W 3910  38.406   4.540  12.074
31596W        W 3911  28.530  32.066   4.768
31597W        W 3912  20.048  33.574   3.349
31598W        W 3913  28.620   0.383   1.765
31599W        W 3914  25.920  30.877   3.406
31600W        W 3915  13.177  17.159   0.990
31601W        W 3916  10.816  26.488   0.770
31602W        W 3917  36.343  13.638   3.336
31603W        W 3918   0.229  25.513  10.626
31604W        W 3919   1.011  36.598   4.102
31605W        W 3920   8.967  36.351  14.434
31606W        W 3921  23.803  39.932  12.968
31607W        W 3922  14.048  23.578   4.228
31608W        W 3923  13.738  27.083  11.659
31609W        W 3924  43.991  20.978   4.223
31610W        W 3925   7.996  20.236  14.069
31611W        W 3926  29.029  27.699  11.557
31612W        W 3927  36.552   9.304  14.460
31613W        W 3928  43.022  29.427  10.683
31614W        W 3929   3.778  27.234   2.625
31615W        W 3930   9.734  15.865  13.186
31616W        W 3931  35.230  10.185   2.584
31617W        W 3932   4.613  40.425   4.618
31618W        W 3933   3.407  13.300   4.545
31619W        W 3934  40.619   7.446   2.412
31620W        W 3935  41.987   5.313  14.331
31621W        W 3936  32.592  20.746   0.370
31622W        W 3937   0.865   6.052   3.694
31623W        W 3938   8.620  15.027  14.522
31624W        W 3939  21.777  36.832  12.882
31625W        W 3940   9.573  27.426  12.575
31626W        W 3941  26.176   3.479  11.156
31627W        W 3942  22.695  17.621   1.316
31628W        W 3943  24.472   3.997   0.359
31629W        W 3944  11.116  31.619  12.072
31630W        W 3945  13.398  11.968   5.035
31631W        W 3946  29.115  11.020   3.320
31632W        W 3947  38.258   1.231  11.521
31633W        W 3948   8.666  43.387   0.840
31634W        W 3949  31.919   2.634   1.514
31635W        W 3950   8.628  21.537   2.346
31636W        W 3951  38.950   4.497   2.322
31637W        W 3952  36.375  21.626   0.393
31638W        W 3953  22.502  12.721  12.019
31639W        W 3954   9.857  19.065   2.782
31640W        W 3955  19.646  16.896  14.245
31641W        W 3956  10.166   4.219   3.190
31642W        W 3957   1.806  37.835   3.588
31643W        W 3958   0.404  44.692   1.957
31644W        W 3959  10.591  43.102   0.320
31645W        W 3960  24.156  38.803   4.962
31646W        W 3961  38.242  25.770   0.802
31647W        W 3962  37.246   0.038   9.925
31648W        W 3963  22.963  12.900  13.366
31649W        W 3964  17.159  12.898   2.862
31650W        W 3965  19.993  37.323  13.997
31651W        W 3966  16.935  27.930  14.300
31652W        W 3967  41.705  18.822  11.490
31653W        W 3968  25.377  19.505  12.039
31654W        W 3969   9.116  39.756   2.720
31655W        W 3970  24.455  18.154  14.376
31656W        W 3971   1.499  12.291  14.859
31657W        W 3972  25.123  41.785   0.359
31658W        W 3973   2.043  23.985  13.444
31659W        W 3974  44.773  42.537  10.714
31660W        W 3975  37.116   9.904   1.660
31661W        W 3976   5.467  36.625   3.688
31662W        W 3977  19.276   5.923  11.930
31663W        W 3978  20.017  44.289   1.335
31664W        W 3979   4.186  21.228  14.969
31665W        W 3980  27.439   8.708   0.447
31666W        W 3981  37.066   6.932   2.643
31667W        W 3982  19.680  28.451  12.025
31668W        W 3983  30.412   8.641   0.331
31669W        W 3984  12.611  24.621   0.493
31670W        W 3985  36.656  39.486   1.234
31671W        W 3986  44.016  15.588   2.337
31672W        W 3987  14.227  24.561  10.979
31673W        W 3988  13.353  38.390  13.148
31674W        W 3989  12.717  10.613   0.971
31675W        W 3990  11.739   3.400   3.627
31676W        W 3991  21.226  12.564  10.294
31677W        W 3992  37.462  21.648  14.305
31678W        W 3993   1.816  38.833   1.027
31679W        W 3994  27.441   2.708   4.004
31680W        W 3995   9.337  44.819  14.572
31681W        W 3996  10.674   2.419  13.351
31682W        W 3997  12.752  20.814   0.294
31683W        W 3998  22.570  11.198  10.903
31684W        W 3999  14.191   1.247   2.398
31685W        W 4000  17.246   5.735   3.335
31686W        W 4001  44.520  33.479  12.339
31687W        W 4002  14.583  36.471  11.181
31688W        W 4003  44.538  16.652   2.330
31689W        W 4004  30.393   2.644   3.460
31690W        W 4005  18.021  24.517  12.646
31691W        W 4006  29.461   4.452   4.644
31692W        W 4007  44.531  36.919   4.760
31693W        W 4008  31.498  31.972  12.779
31694W        W 4009   0.738  40.601   4.551
31695W        W 4010  32.640  37.277  13.364
31696W        W 4011  28.390  38.634  11.568
31697W        W 4012  22.545   4.190   2.255
31698W        W 4013   1.332   6.770   2.246
31699W        W 4014  29.962  15.834   2.460
31700W        W 4015   6.795   3.276  14.990
31701W        W 4016   4.980  42.978   4.096
31702W        W 4017   6.209  39.886  13.767
31703W        W 4018  31.052  30.443   0.941
31704W        W 4019   4.461  17.508   0.720
31705W        W 4020  26.693   6.276   0.314
31706W        W 4021   8.850  29.525   0.764
31707W        W 4022   1.236  22.585   5.020
31708W        W 4023  26.647   3.518   3.766
31709W        W 4024  29.454  11.727   0.697
31710W        W 4025  34.061  33.584  12.604
31711W        W 4026   3.266  22.140  11.627
31712W        W 4027  41.804   1.860   0.192
31713W        W 4028  41.628   6.771   3.046
31714W        W 4029  20.926  26.559   4.929
31715W        W 4030  18.201  23.622  12.961
31716W        W 4031  27.461  11.651   0.854
31717W        W 4032  18.501  34.413  11.986
31718W        W 4033  38.367   5.377   0.788
31719W        W 4034  13.919  22.181  13.426
31720W        W 4035  20.527  37.117  14.770
31721W        W 4036  22.574  21.078  13.446
31722W        W 4037  37.493  29.262  12.084
31723W        W 4038  25.719  24.957   2.506
31724W        W 4039   2.447   3.103   2.471
31725W        W 4040  41.118   2.234   1.684
31726W        W 4041  21.175  19.548  12.714
31727W        W 4042  30.599  33.053  10.569
31728W        W 4043  24.655  32.117  11.472
31729W        W 4044  44.552  30.406   3.181
31730W        W 4045  41.628  13.353  10.224
31731W        W 4046   4.712   3.195  13.350
31732W        W 4047  14.222  40.105  13.661
31733W        W 4048  36.302  16.999  13.016
31734W        W 4049   6.808  12.578  10.680
31735W        W 4050   5.810  32.378  12.554
31736W        W 4051  28.147  43.094   0.829
31737W        W 4052  17.104  42.342  10.157
31738W        W 4053  24.192  10.098  13.359
31739W        W 4054   7.653  23.770  10.731
31740W        W 4055  24.866  32.591   1.441
31741W        W 4056  13.807  17.706  14.331
31742W        W 4057  33.145  16.851   3.574
31743W        W 4058  20.099   8.950   2.851
31744W        W 4059   2.950  13.682  11.503
31745W        W 4060  23.832   7.465   3.688
31746W        W 4061  12.350   6.348   1.870
31747W        W 4062  13.587  44.268  12.989
31748W        W 4063  30.246  30.611  12.935
31749W        W 4064  27.088   7.179   1.238
31750W        W 4065  34.420  24.636  10.650
31751W        W 4066   3.285  12.920  11.195
31752W        W 4067   6.829  24.209  14.398
31753W        W 4068  39.885  42.849   4.565
31754W        W 4069   9.215  28.106   4.709
31755W        W 4070  36.822  43.280  13.116
31756W        W 4071  29.979  43.340  14.994
31757W        W 4072   4.524  16.271  14.354
31758W        W 4073  40.050  35.409  13.985
31759W        W 4074   8.339   6.422   0.824
31760W        W 4075  30.996  30.337   4.165
31761W        W 4076  24.991  36.715  14.780
31762W        W 4077  21.318  25.075  11.631
31763W        W 4078   7.688  23.321  14.928
31764W        W 4079  36.980  11.776   1.217
31765W        W 4080  12.794  33.101  11.891
31766W        W 4081  38.265  34.105   4.095
31767W        W 4082  29.123  19.071   2.345
31768W        W 4083  18.704   8.180   5.037
31769W        W 4084  38.259  19.625  13.140
31770W        W 4085  30.135  15.608   0.945
31771W        W 4086  38.282  37.425  10.745
31772W        W 4087  26.725  42.543   4.492
31773W        W 4088  31.556  26.987   0.804
31774W        W 4089  12.422  34.018   1.291
31775W        W 4090  26.579  20.299   1.226
31776W        W 4091   2.994  17.643  13.991
31777W        W 4092  22.482   9.694   0.888
31778W        W 4093   3.549  38.356  13.034
31779W        W 4094  14.796  26.098   2.659
31780W        W 4095  40.115  17.318  13.306
31781W        W 4096  44.963  27.114   1.257
31782W        W 4097  32.396   9.325   4.759
31783W        W 4098  10.339  16.261  13.754
31784W        W 4099  16.301  44.879  13.609
31785W        W 4100  10.115   6.220  14.361
31786W        W 4101  17.796  26.708   4.570
31787W        W 4102  11.418  33.524   4.610
31788W        W 4103   1.914  26.480  11.541
31789W        W 4104  18.734  39.512   3.709
31790W        W 4105  24.539  29.123  14.407
31791W        W 4106  13.299  18.058   3.707
31792W        W 4107  14.550  21.095  14.502
31793W        W 4108  28.004   6.172   0.342
31794W        W 4109  38.761  41.693   0.228
31795W        W 4110  12.732  32.027  12.699
31796W        W 4111  22.055  19.781   1.251
31797W        W 4112  44.338   1.678  10.726
31798W        W 4113   7.117  38.860   3.215
31799W        W 4114  18.216  41.062   9.721
31800W        W 4115   3.937  44.534  14.338
31801W        W 4116  38.395  26.276   0.667
31802W        W 4117  12.108  38.492   4.635
31803W        W 4118  13.048   4.512   0.472
31804W        W 4119  14.756  18.269  12.610
31805W        W 4120   3.524  25.018  14.316
31806W        W 4121  17.061  10.476  10.221
31807W        W 4122  41.358  30.839   5.094
31808W        W 4123   0.497   5.744   0.259
31809W        W 4124  22.328  14.678   0.479
31810W        W 4125   6.298  33.698   3.253
31811W        W 4126  43.563   7.747   3.211
31812W        W 4127   2.164   4.495  12.601
31813W        W 4128  40.344  29.418   4.891
31814W        W 4129  42.636  33.796  11.081
31815W        W 4130  22.191  11.755   3.723
31816W        W 4131  27.190  21.571   1.818
31817W        W 4132  33.905  10.404  13.926
31818W        W 4133  10.678  44.381  12.009
31819W        W 4134  17.780  10.056   4.224
31820W        W 4135  37.442  26.343   5.032
31821W        W 4136  20.992  37.419  13.505
31822W        W 4137   2.391   2.482  13.435
31823W        W 4138  28.955  10.774   4.259
31824W        W 4139  19.705  13.268  11.542
31825W        W 4140  15.585  35.454   3.149
31826W        W 4141  35.885  31.108   0.379
31827W        W 4142  25.249  28.913  12.026
31828W        W 4143  23.500  21.274  13.905
31829W        W 4144  41.846  24.268  14.349
31830W        W 4145  32.043  35.732   4.203
31831W        W 4146   0.345  18.626   2.720
31832W        W 4147   5.987   2.512  11.593
31833W        W 4148   4.510  39.439  12.030
31834W        W 4149  11.044  16.341   9.705
31835W        W 4150   5.450   1.774  11.978
31836W        W 4151  26.703  18.140   4.106
31837W        W 4152  24.247  18.563  13.481
31838W        W 4153  11.302   3.681   3.568
31839W        W 4154  29.628   1.857  14.918
31840W        W 4155  38.625  29.984  12.034
31841W        W 4156  43.845   8.348  14.946
31842W        W 4157   8.266  27.897   1.861
31843W        W 4158  35.108  28.722   2.715
31844W        W 4159  31.352   5.787   0.986
31845W        W 4160  40.321  15.126   3.408
31846W        W 4161  30.462  15.835   2.304
31847W        W 4162   5.777   3.507  11.075
31848W        W 4163  19.832  42.789  14.903
31849W        W 4164  31.591  37.424   1.181
31850W        W 4165   2.152  19.716  12.496
31851W        W 4166  39.602  16.877  11.149
31852W        W 4167  14.665   4.546  14.875
31853W        W 4168  30.028  32.905   3.639
31854W        W 4169   7.578  32.188  10.309
31855W        W 4170   0.045  34.977  11.727
31856W        W 4171  42.775  35.107  11.852
31857W        W 4172   1.239   0.291   2.175
31858W        W 4173  36.962  31.889   5.009
31859W        W 4174  16.348  11.281  10.867
31860W        W 4175  42.461  19.436  13.238
31861W        W 4176   9.393  15.896  10.392
31862W        W 4177  16.944  36.140   0.328
31863W        W 4178  21.817  19.185   2.865
31864W        W 4179  44.295   8.179  11.142
31865W        W 4180  27.676  38.364   4.346
31866W        W 4181  28.802  27.164  13.806
31867W        W 4182  21.161  23.536   0.837
31868W        W 4183  39.721  30.362   3.051
31869W        W 4184   1.955  38.538   2.391
31870W        W 4185  18.081  13.249  10.446
31871W        W 4186  10.172  15.336   2.904
31872W        W 4187  39.662  30.329   1.796
31873W        W 4188  21.787  27.924   1.860
31874W        W 4189  18.398  16.497  11.609
31875W        W 4190  31.843  44.359  13.108
31876W        W 4191  37.856  29.530   1.106
31877W        W 4192   6.390  15.370  12.247
31878W        W 4193  34.857  38.573   0.332
31879W        W 4194  13.234  21.004   0.245
31880W        W 4195   1.829  37.145  13.894
31881W        W 4196  28.860  32.927   4.936
31882W        W 4197  16.061  29.945   1.129
31883W        W 4198   1.932  20.664  12.218
31884W        W 4199   0.979  41.859   4.152
31885W        W 4200  33.826   9.519  12.030
31886W        W 4201  41.608   0.489  13.147
31887W        W 4202  15.319  19.047  10.639
31888W        W 4203  19.063  25.928  13.981
31889W        W 4204  37.350   2.742  14.337
31890W        W 4205   1.510   5.285   0.953
31891W        W 4206  43.779   3.261   0.246
31892W        W 4207  20.337  27.086   4.208
31893W        W 4208  23.579  16.652  13.484
31894W        W 4209   1.841  11.385  14.755
31895W        W 4210   7.784  33.611  14.297
31896W        W 4211  24.432   2.807   1.234
31897W        W 4212  29.553   9.962  14.057
31898W        W 4213  27.763  14.220  11.552
31899W        W 4214   6.175  44.522  13.005
31900W        W 4215  15.341  30.890   4.438
31901W        W 4216  32.448  17.661  11.583
31902W        W 4217  16.183  35.438  12.163
31903W        W 4218  22.038  18.346   0.748
31904W        W 4219   8.157   0.431  14.446
31905W        W 4220   0.682  25.765  13.523
31906W        W 4221  37.823  21.641  13.900
31907W        W 4222  28.557  30.113   3.611
31908W        W 4223  12.765  17.693   2.376
31909W        W 4224  15.854  29.909  13.863
31910W        W 4225  29.168  21.032   3.783
31911W        W 4226  13.689  20.786  14.442
31912W        W 4227  44.796   0.493   1.869
31913W        W 4228  39.337  11.796  13.477
31914W        W 4229  12.695  17.259   1.329
31915W        W 4230  17.188  19.376   1.250
31916W        W 4231   5.721  30.556  10.727
31917W        W 4232  25.021  35.028  12.484
31918W        W 4233  42.332  10.444   1.101
31919W        W 4234  35.089   9.218  13.012
31920W        W 4235  16.225  25.824  12.202
31921W        W 4236  35.462  43.033   0.463
31922W        W 4237  13.386  42.790   1.008
31923W        W 4238  32.775  36.446   1.089
31924W        W 4239  34.047  24.660   2.818
31925W        W 4240  21.528  25.909  13.472
31926W        W 4241  44.911  15.993   2.376
31927W        W 4242  22.653   5.957  14.279
31928W        W 4243  30.644   9.219   2.666
31929W        W 4244  35.936   5.632  11.156
31930W        W 4245  12.240   6.652  11.100
31931W        W 4246  10.162  13.089  12.535
31932W        W 4247   4.895  30.601   5.141
31933W        W 4248  28.859  28.048   4.923
31934W        W 4249  21.349  32.478  13.595
31935W        W 4250  27.079  20.632  13.315
31936W        W 4251  31.947  39.598   1.024
31937W        W 4252  14.357  35.396  11.934
31938W        W 4253  14.243  35.547  11.122
31939W        W 4254  34.976   4.201   1.263
31940W        W 4255  34.510   0.974   1.436
31941W        W 4256  24.714  24.067  11.848
31942W        W 4257  18.138  30.932   0.210
31943W        W 4258  18.872  14.235   0.950
31944W        W 4259  23.595  39.823   3.340
31945W        W 4260  40.940  30.200   3.598
31946W        W 4261  39.749  36.273   2.709
31947W        W 4262  14.571  25.955  10.750
31948W        W 4263  38.359  19.087   2.605
31949W        W 4264   6.406   8.651  13.557
31950W        W 4265  18.099  38.358   3.322
31951W        W 4266   7.973  36.638   2.356
31952W        W 4267  37.968  44.428   3.237
31953W        W 4268  34.651  10.664  11.614
31954W        W 4269  12.248   7.872  13.947
31955W        W 4270  36.564  19.585   2.755
31956W        W 4271  43.156  19.055  12.386
31957W        W 4272  28.187   5.210   5.555
31958W        W 4273   4.194   4.843  14.572
31959W        W 4274   5.209  26.071  13.292
31960W        W 4275   4.441  18.849   1.402
31961W        W 4276   9.596  34.317   0.389
31962W        W 4277  16.667  20.741   2.588
31963W        W 4278  13.681   4.016  14.252
31964W        W 4279  26.467   2.079  13.900
31965W        W 4280  13.343  36.091  12.595
31966W        W 4281  11.316   3.270   3.890
31967W        W 4282  25.578   2.889  10.963
31968W        W 4283   3.833  16.594  12.973
31969W        W 4284  27.527   9.664   2.752
31970W        W 4285  22.233   1.068  11.097
31971W        W 4286   0.826   8.147   0.787
31972W        W 4287  37.566  36.108   3.684
31973W        W 4288  29.154  12.179  14.504
31974W        W 4289  22.543  25.624  13.276
31975W        W 4290  24.601  23.633   4.051
31976W        W 4291  36.775  28.774  11.567
31977W        W 4292  37.624  29.536   4.679
31978W        W 4293  33.645  21.523   4.382
31979W        W 4294  42.959  40.377  11.677
31980W        W 4295  42.172  15.699  11.295
31981W        W 4296  29.158  34.591   0.156
31982W        W 4297   4.606  37.804   1.749
31983W        W 4298  29.076  29.680  14.999
31984W        W 4299  30.127  38.268   2.284
31985W        W 4300   1.567  26.080  11.581
31986W        W 4301   5.281  10.824   3.647
31987W        W 4302  34.289  43.766   1.881
31988W        W 4303   2.394   9.869   2.433
31989W        W 4304  13.016  34.531  11.422
31990W        W 4305  11.950  15.120   1.892
31991W        W 4306  34.145  29.527   3.170
31992W        W 4307  40.400  37.610  12.075
31993W        W 4308   4.341  35.063  10.587
31994W        W 4309   8.335  21.224  14.762
31995W        W 4310  19.562   2.222   1.723
31996W        W 4311  14.711  35.453   2.670
31997W        W 4312  16.805   5.140   0.007
31998W        W 4313  23.161  30.443  13.624
31999W        W 4314  33.932   5.230  11.360
32000W        W 4315  10.793  39.831   4.907
32001W        W 4316   2.696  25.681   4.933
32002W        W 4317  13.503  23.971  13.000
32003W        W 4318  33.955  43.842   3.612
32004W        W 4319  35.061  44.243  13.062
32005W        W 4320   9.629  44.862  14.990
32006W        W 4321  25.276  36.584   0.206
32007W        W 4322  42.564  42.883   2.749
32008W        W 4323  28.134  18.767   3.797
32009W        W 4324  17.658  21.581   1.935
32010W        W 4325  28.929  43.554  13.847
32011W        W 4326  27.923  20.034   0.607
32012W        W 4327  19.021  27.647  12.880
32013W        W 4328  23.825  32.335  11.619
32014W        W 4329  31.837  37.538   5.025
32015W        W 4330  27.017   1.393   3.845
32016W        W 4331  32.285  29.960   1.840
32017W        W 4332   1.222  42.825  11.572
32018W        W 4333   4.209  39.859  11.981
32019W        W 4334  35.039  22.587  10.218
32020W        W 4335  10.678  44.413   4.169
32021W        W 4336  31.619  27.673   4.901
32022W        W 4337  34.141  11.287   0.448
32023W        W 4338  38.168   7.698  11.325
32024W        W 4339  17.583   0.994   3.366
32025W        W 4340  11.915  18.776  12.475
32026W        W 4341  40.924  42.839  14.990
32027W        W 4342  23.748  34.155   1.696
32028W        W 4343  23.481   5.223   2.196
32029W        W 4344  23.253  31.169   1.909
32030W        W 4345   6.683  33.998  12.109
32031W        W 4346   0.690  40.226   3.726
32032W        W 4347   8.242  23.944  12.694
32033W        W 4348  44.336  20.674   3.678
32034W        W 4349  14.941  30.112   0.526
32035W        W 4350  19.238  35.712   4.432
32036W        W 4351  24.058  16.762   1.834
32037W        W 4352  12.350  11.277  13.089
32038W        W 4353  43.775  39.895  12.419
32039W        W 4354  26.724  16.529   1.907
32040W        W 4355  35.492  14.552   3.351
32041W        W 4356  26.656  10.935  12.972
32042W        W 4357   2.834  22.751  11.093
32043W        W 4358  38.084  22.324  14.263
32044W        W 4359  42.767  28.962  11.895
32045W        W 4360   1.799   3.202  13.863
32046W        W 4361   0.459  25.666  13.968
32047W        W 4362  11.550   8.675   2.199
32048W        W 4363  42.068  21.908   4.653
32049W        W 4364  18.780  21.141   2.903
32050W        W 4365  27.635  44.579   3.689
32051W        W 4366  16.704  22.532  11.615
32052W        W 4367  16.242   7.127   2.424
32053W        W 4368  24.704  33.071   1.262
32054W        W 4369   1.825  30.967   1.376
32055W        W 4370  19.004   7.881   3.108
32056W        W 4371   2.349  22.736   0.859
32057W        W 4372  21.959  14.483  13.830
32058W        W 4373  12.920   5.968   3.640
32059W        W 4374  28.427   0.428  11.979
32060W        W 4375  16.323  13.659  13.895
32061W        W 4376  27.697  27.629  13.401
32062W        W 4377  39.923  39.019  11.518
32063W        W 4378  24.613  37.143   4.227
32064W        W 4379  42.347   1.287  11.640
32065W        W 4380  40.364  16.580  14.534
32066W        W 4381  41.038  10.414   3.275
32067W        W 4382  22.539  39.463   0.265
32068W        W 4383   8.674  12.745  13.579
32069W        W 4384  37.547  27.254   0.267
32070W        W 4385  18.568  42.441   1.843
32071W        W 4386   6.434  35.397  13.016
32072W        W 4387  44.495  23.567  14.040
32073W        W 4388  21.574  16.121   4.210
32074W        W 4389  26.141  13.709   3.621
32075W        W 4390   3.485   1.883   1.248
32076W        W 4391  18.208   5.672   1.877
32077W        W 4392  35.562  39.281   0.232
32078W        W 4393  11.862  28.275  12.390
32079W        W 4394  37.272  44.514  10.887
32080W        W 4395  16.973  13.730   3.107
32081W        W 4396  31.130  28.651  12.957
32082W        W 4397   4.429   6.640   0.418
32083W        W 4398   5.779  36.741  14.686
32084W        W 4399  41.877  11.889  13.529
32085W        W 4400  11.624  24.803  12.513
32086W        W 4401  13.553  34.962   0.864
32087W        W 4402  31.784  15.574  12.841
32088W        W 4403  13.172  22.663   4.084
32089W        W 4404  38.198  35.395  12.792
32090W        W 4405  23.220  26.695  11.182
32091W        W 4406  36.836   3.031  13.561
32092W        W 4407  32.479  10.314   3.614
32093W        W 4408   3.848   9.821  11.691
32094W        W 4409  10.142  16.889   0.491
32095W        W 4410  18.810  13.330  13.017
32096W        W 4411  18.356  35.453   3.120
32097W        W 4412  22.171  36.056  10.751
32098W        W 4413  26.986  35.100   1.429
32099W        W 4414  38.871  27.205   0.789
32100W        W 4415  37.561  26.672  12.294
32101W        W 4416  31.803  34.559   1.604
32102W        W 4417   7.331  25.840   4.198
32103W        W 4418  11.408  26.054  14.001
32104W        W 4419  24.027  30.214  10.523
32105W        W 4420  11.053  16.366   2.095
32106W        W 4421   0.802  17.271   1.026
32107W        W 4422   9.047  23.538   1.637
32108W        W 4423  27.158  44.239   2.138
32109W        W 4424   2.893  16.332   4.285
32110W        W 4425  44.938  39.569  13.481
32111W        W 4426  16.190  13.793   4.794
32112W        W 4427  40.331  11.626  12.461
32113W        W 4428   5.129   6.368   1.119
32114W        W 4429   0.457  23.735   4.813
32115W        W 4430  31.296  38.518  14.677
32116W        W 4431  35.889   3.903   0.767
32117W        W 4432  21.953  14.204   4.710
32118W        W 4433   8.813   2.426   2.263
32119W        W 4434  15.761  43.303  12.327
32120W        W 4435  33.404  38.335   2.313
32121W        W 4436  30.097  25.703   3.626
32122W        W 4437  31.174   0.891   1.760
32123W        W 4438   8.707  17.483   2.768
32124W        W 4439  12.818   0.502   0.869
32125W        W 4440  39.279  19.694   3.200
32126W        W 4441  10.491  15.151   0.004
32127W        W 4442  30.484  26.204   1.500
32128W        W 4443   5.868  37.953  11.242
32129W        W 4444  35.839   7.882   4.544
32130W        W 4445  31.636  39.866  10.607
32131W        W 4446  39.595   4.280  14.114
32132W        W 4447   8.200  21.647  14.047
32133W        W 4448  44.524  20.752   4.857
32134W        W 4449   1.042  18.122  11.510
32135W        W 4450  10.891  43.023  12.245
32136W        W 4451   1.449  39.105   0.780
32137W        W 4452   2.604  12.511   0.770
32138W        W 4453  28.677  18.987   2.086
32139W        W 4454  12.135  24.223  10.737
32140W        W 4455  36.841  17.278  14.192
32141W        W 4456  37.370  39.431  11.624
32142W        W 4457  21.718  11.846   3.556
32143W        W 4458  44.347   7.810  12.154
32144W        W 4459  40.947  31.139  11.355
32145W        W 4460  36.596  44.476  11.967
32146W        W 4461  21.013  13.699   1.699
32147W        W 4462  11.707  10.174   4.224
32148W        W 4463  23.734   8.354   4.668
32149W        W 4464  30.055   8.140  10.612
32150W        W 4465  31.032  17.089  11.055
32151W        W 4466   7.418  35.946   3.851
32152W        W 4467  31.466  18.582  12.884
32153W        W 4468  35.296  29.239   2.793
32154W        W 4469  21.272  38.539   2.476
32155W        W 4470  17.613  13.923   4.616
32156W        W 4471  42.781  22.511  13.832
32157W        W 4472  21.015  21.071  14.941
32158W        W 4473  11.381   9.918   2.812
32159W        W 4474  35.425  40.570   1.862
32160W        W 4475   1.337  39.884   2.251
32161W        W 4476  10.688  38.256   1.737
32162W        W 4477  42.339  12.233   3.778
32163W        W 4478   3.751  11.561   4.926
32164W        W 4479  23.006  29.275   4.078
32165W        W 4480  30.492  20.550  10.720
32166W        W 4481  36.567   7.075   1.858
32167W        W 4482  39.961  28.580   2.456
32168W        W 4483  25.690  13.159  14.472
32169W        W 4484   6.673   3.086  14.386
32170W        W 4485  39.483  32.355  12.117
32171W        W 4486   7.286  39.851   2.116
32172W        W 4487  42.400   8.874   1.301
32173W        W 4488  25.500  18.130   3.128
32174W        W 4489  18.775   2.006   4.101
32175W        W 4490  39.744  12.644  13.798
32176W        W 4491  22.238  22.737   0.542
32177W        W 4492  41.844  35.107  13.809
32178W        W 4493  35.154   6.609  12.625
32179W        W 4494  22.541  14.278  11.133
32180W        W 4495  38.270   9.123   0.360
32181W        W 4496  19.321  30.037  13.081
32182W        W 4497  12.375  12.842   2.983
32183W        W 4498  22.097  40.966   4.688
32184W        W 4499  26.528  27.236  11.146
32185W        W 4500  23.101  30.363   3.141
32186W        W 4501  10.697   3.678   1.677
32187W        W 4502   0.036  12.326   9.805
32188W        W 4503  17.220  15.134  11.058
32189W        W 4504  21.509   0.834  12.080
32190W        W 4505   2.822  22.886   3.844
32191W        W 4506   3.764  17.849  14.386
32192W        W 4507  17.037  44.888   4.816
32193W        W 4508  26.108  26.941  12.685
32194W        W 4509  43.575  42.557  13.333
32195W        W 4510  14.297   0.830   5.096
32196W        W 4511  10.381  27.185  12.448
32197W        W 4512   1.960  25.682   0.757
32198W        W 4513  26.605   3.351   4.702
32199W        W 4514  44.511  20.978   4.075
32200W        W 4515  39.090  29.437   0.080
32201W        W 4516   5.373  30.997   4.593
32202W        W 4517   8.651  40.248  10.752
32203W        W 4518   3.762  19.552  12.503
32204W        W 4519  33.195   1.621   5.064
32205W        W 4520  38.882   3.721  11.788
32206W        W 4521  31.977   9.790   0.836
32207W        W 4522   0.448  34.039   3.640
32208W        W 4523  29.883  33.317   1.574
32209W        W 4524  38.868  27.968   3.536
32210W        W 4525   8.772  21.463  14.900
32211W        W 4526  34.637   8.361   2.802
32212W        W 4527   4.002  27.095   0.834
32213W        W 4528  13.304  34.984  14.478
32214W        W 4529  17.350  34.415  14.454
32215W        W 4530  41.051  31.118  11.876
32216W        W 4531   0.704  34.660  14.836
32217W        W 4532  33.469  43.967   3.406
32218W        W 4533  19.985  12.736  12.484
32219W        W 4534   0.754   3.121  14.969
32220W        W 4535  27.289   0.292  12.091
32221W        W 4536  11.539   6.301  11.527
32222W        W 4537  40.712   8.485   1.736
32223W        W 4538   9.495  20.994   1.470
32224W        W 4539   5.250  13.602  13.409
32225W        W 4540  24.633   8.463   0.679
32226W        W 4541  42.201  19.729  10.663
32227W        W 4542  28.907  16.738  14.744
32228W        W 4543  35.481   2.589  14.440
32229W        W 4544  11.154  18.783   0.255
32230W        W 4545  24.079  14.041   0.266
32231W        W 4546  25.913  44.033   0.971
32232W        W 4547  43.561  34.731   1.156
32233W        W 4548   5.190   9.242  14.853
32234W        W 4549   2.209   9.738  12.860
32235W        W 4550  10.682  26.005  13.584
32236W        W 4551  12.682  17.181  10.642
32237W        W 4552  19.859  30.125   1.924
32238W        W 4553  38.657  11.823   3.734
32239W        W 4554  19.216   5.750   4.869
32240W        W 4555  39.638  19.453  11.635
32241W        W 4556  41.273   1.516   4.089
32242W        W 4557   4.291   5.916   1.000
32243W        W 4558  40.251   0.171   3.861
32244W        W 4559  36.674  29.305  14.368
32245W        W 4560  42.784  44.594  10.835
32246W        W 4561   3.255  29.938   0.240
32247W        W 4562  15.267   8.691   0.296
32248W        W 4563  14.334  10.140   3.673
32249W        W 4564  44.332  27.767   4.606
32250W        W 4565  36.622  29.673   4.603
32251W        W 4566   6.666   6.765   0.833
32252W        W 4567  15.867  30.088   1.616
32253W        W 4568  27.715   7.708  13.574
32254W        W 4569  15.516   7.777  12.856
32255W        W 4570  23.283  32.373  12.913
32256W        W 4571   5.754  43.001   1.709
32257W        W 4572  31.972  22.662   4.104
32258W        W 4573  10.099  20.533   0.837
32259W        W 4574   5.791  15.066   4.211
32260W        W 4575  20.245  24.298   9.953
32261W        W 4576  29.035   6.200  10.705
32262W        W 4577  17.618  15.720  10.444
32263W        W 4578  26.827  34.047   2.772
32264W        W 4579  22.512  18.603  12.357
32265W        W 4580  43.949  14.209  14.885
32266W        W 4581  29.233  22.074  15.000
32267W        W 4582  37.511   9.575  11.630
32268W        W 4583  26.588  34.047  10.595
32269W        W 4584   7.402  25.144  14.869
32270W        W 4585   0.956  20.737  13.351
32271W        W 4586  43.844   2.644  12.834
32272W        W 4587  32.519   6.143  11.912
32273W        W 4588  42.770  23.084   4.934
32274W        W 4589  19.751   8.092  14.461
32275W        W 4590  11.746  28.119  14.225
32276W        W 4591   9.682  29.929  13.318
32277W        W 4592  44.015  12.598   1.146
32278W        W 4593  44.815  25.583  12.837
32279W        W 4594   5.886   4.274  12.102
32280W        W 4595   7.409  29.993   2.758
32281W        W 4596   7.774  39.709   2.807
32282W        W 4597  35.795  17.627  12.875
32283W        W 4598  39.123  30.969  12.998
32284W        W 4599   4.476  26.487   4.634
32285W        W 4600  15.539  20.824   3.299
32286W        W 4601  22.512   7.701  11.534
32287W        W 4602  28.465   0.428   2.270
32288W        W 4603  35.828  23.239  11.538
32289W        W 4604  40.306   8.496  11.192
32290W        W 4605  13.278   3.350  11.588
32291W        W 4606  36.493  11.801  12.481
32292W        W 4607  44.695  24.317  13.578
32293W        W 4608  23.216   4.902   0.920
32294W        W 4609  42.323  25.798   2.664
32295W        W 4610   3.466  43.416  13.605
32296W        W 4611  21.747  24.664  14.085
32297W        W 4612   6.247  36.582  14.888
32298W        W 4613  34.817  18.749   2.282
32299W        W 4614  41.429  25.493   1.177
32300W        W 4615  32.300  38.010   4.164
32301W        W 4616  27.260  16.112  12.104
32302W        W 4617  18.219  38.784  14.920
32303W        W 4618  40.633  16.548  11.628
32304W        W 4619   3.985   0.324   1.740
32305W        W 4620  43.878  19.281  13.565
32306W        W 4621  18.210  23.496   2.620
32307W        W 4622  36.842   1.820  12.020
32308W        W 4623  12.571  14.806   2.948
32309W        W 4624  19.943  44.957   0.776
32310W        W 4625   4.662  17.466  11.442
32311W        W 4626   5.283  40.032   3.358
32312W        W 4627   1.031  41.632   3.687
32313W        W 4628  41.897  24.735  12.794
32314W        W 4629  38.366   7.673   1.310
32315W        W 4630  22.578  43.401  11.570
32316W        W 4631  11.027  24.762   2.908
32317W        W 4632  22.913  38.372   0.898
32318W        W 4633   6.181  20.629   3.614
32319W        W 4634  29.914  15.811  12.594
32320W        W 4635  40.926  34.225   3.640
32321W        W 4636  33.115   5.334  10.589
32322W        W 4637  19.562  28.355   3.058
32323W        W 4638   1.329  40.538  13.456
32324W        W 4639   2.396   1.658   3.326
32325W        W 4640   1.810  40.882  12.840
32326W        W 4641  21.693  15.648   3.313
32327W        W 4642  41.476   4.332   4.598
32328W        W 4643  25.770  42.581   1.267
32329W        W 4644  31.419  28.438   0.654
32330W        W 4645   7.978  34.464  12.096
32331W        W 4646  29.487  11.177   1.872
32332W        W 4647   8.613  41.487  12.854
32333W        W 4648  44.731  40.511  10.688
32334W        W 4649  11.720  43.223   3.500
32335W        W 4650   3.865   3.130  12.030
32336W        W 4651  35.047   6.688  13.564
32337W        W 4652  40.022  15.604   2.809
32338W        W 4653  28.108  41.802   9.912
32339W        W 4654  31.020  16.837   3.338
32340W        W 4655   4.204  28.711  10.579
32341W        W 4656  20.556  35.225   9.851
32342W        W 4657  43.836  30.341   0.259
32343W        W 4658  30.666  31.274  13.593
32344W        W 4659  27.999  18.724   0.920
32345W        W 4660  36.466  41.398   3.575
32346W        W 4661   6.182  34.924  14.895
32347W        W 4662  28.116   4.739   3.493
32348W        W 4663  38.876   1.656  11.180
32349W        W 4664  31.620   2.514   0.562
32350W        W 4665  17.981  28.434   5.590
32351W        W 4666  16.181   3.766  13.792
32352W        W 4667  34.586  27.685   0.039
32353W        W 4668  23.530   5.468   3.732
32354W        W 4669  38.441   0.004  11.074
32355W        W 4670  24.548  40.038  11.981
32356W        W 4671  28.649  19.442  10.495
32357W        W 4672  17.596  31.159   3.847
32358W        W 4673  33.336  43.533   2.243
32359W        W 4674  36.067  30.980  10.795
32360W        W 4675  26.076   9.382  13.897
32361W        W 4676  33.899  37.368   3.607
32362W        W 4677  22.171   6.610  12.886
32363W        W 4678  27.607  15.171   1.778
32364W        W 4679  19.408  23.804   0.239
32365W        W 4680  37.159  25.980   2.295
32366W        W 4681  38.414  15.612   5.248
32367W        W 4682  41.239  39.228  11.586
32368W        W 4683  36.072  26.698   2.787
32369W        W 4684   9.383  10.737  14.982
32370W        W 4685  12.786   0.834   3.764
32371W        W 4686   6.393  15.859  12.058
32372W        W 4687  27.508   3.175   3.104
32373W        W 4688  20.652  43.845   4.769
32374W        W 4689   1.307   7.125  14.497
32375W        W 4690  13.445   6.283   0.478
32376W        W 4691   1.446   8.598  12.521
32377W        W 4692  32.454  38.393   0.925
32378W        W 4693  31.303  19.578  13.019
32379W        W 4694  22.489  21.178   3.810
32380W        W 4695  26.271  28.259  10.551
32381W        W 4696  34.459  28.983  14.859
32382W        W 4697   8.201  37.361  12.100
32383W        W 4698  23.643  17.059  14.905
32384W        W 4699  29.531  16.971   4.128
32385W        W 4700  43.932  30.446  10.730
32386W        W 4701  14.107  13.706  14.010
32387W        W 4702  28.072  16.083   0.398
32388W        W 4703  44.468  23.153  12.876
32389W        W 4704   4.187  37.520  10.699
32390W        W 4705  19.460  42.286  13.068
32391W        W 4706  28.859  43.180  12.525
32392W        W 4707  28.362  41.960   1.431
32393W        W 4708   1.280  20.569   1.244
32394W        W 4709  41.853  26.379   4.231
32395W        W 4710  19.283   9.736  12.083
32396W        W 4711  32.016  34.113   3.409
32397W        W 4712  31.449  31.943  13.779
32398W        W 4713   6.775  39.188   1.355
32399W        W 4714  31.398   7.386  14.019
32400W        W 4715  26.960  17.972  12.677
32401W        W 4716   2.931  21.066  10.980
32402W        W 4717  24.992  40.422   0.828
32403W        W 4718   1.414  39.230  11.302
32404W        W 4719  40.553  29.077  11.487
32405W        W 4720  25.995  28.190  12.048
32406W        W 4721  14.808  23.175   4.190
32407W        W 4722   1.810  22.623  11.964
32408W        W 4723   1.767  14.660  13.417
32409W        W 4724  43.447   6.641   0.953
32410W        W 4725  13.575   6.890  12.251
32411W        W 4726  31.131  20.550   1.918
32412W        W 4727  28.442  26.184   4.507
32413W        W 4728  25.690  29.802   2.511
32414W        W 4729  18.050  20.643  11.639
32415W        W 4730  30.674  43.018  12.955
32416W        W 4731   7.225  28.413   1.798
32417W        W 4732  19.898  18.370   3.145
32418W        W 4733  22.093  17.431  11.021
32419W        W 4734  38.634   3.531   3.588
32420W        W 4735  21.439  44.706   0.753
32421W        W 4736  21.436   9.859  11.374
32422W        W 4737  39.990   1.813   2.252
32423W        W 4738  20.756  20.996  13.925
32424W        W 4739  22.775  14.274   4.164
32425W        W 4740   8.669  26.740  10.751
32426W        W 4741   4.276   2.998  13.486
32427W        W 4742  32.713  40.890  13.411
32428W        W 4743  35.958  19.739   4.704
32429W        W 4744  36.542  25.425   4.139
32430W        W 4745   6.263  28.512   2.628
32431W        W 4746   9.136  16.118   2.742
32432W        W 4747  39.801  14.317  12.338
32433W        W 4748   8.750  24.020   0.356
32434W        W 4749  21.517  13.961  13.617
32435W        W 4750  18.044  26.574   0.778
32436W        W 4751  42.891  12.625   1.846
32437W        W 4752   4.186  42.853  11.506
32438W        W 4753  39.345  23.548  10.159
32439W        W 4754  23.201  28.462   1.341
32440W        W 4755  39.359   6.009   1.805
32441W        W 4756  11.654   3.679   4.898
32442W        W 4757   6.856  14.670   0.125
32443W        W 4758   9.870  13.611   1.446
32444W        W 4759  23.973  26.880   2.236
32445W        W 4760  11.464   2.422   4.582
32446W        W 4761  40.816  35.034   2.205
32447W        W 4762  42.899   1.266  13.484
32448W        W 4763   3.499  32.871   2.372
32449W        W 4764  33.887  16.268  13.090
32450W        W 4765   9.289  43.220  12.445
32451W        W 4766  41.501  43.116  11.669
32452W        W 4767  32.074  16.993  12.400
32453W        W 4768  27.013  14.276   1.895
32454W        W 4769  10.075  14.332   0.411
32455W        W 4770  24.335   5.900  13.529
32456W        W 4771  13.349  43.442   2.353
32457W        W 4772   1.270  16.764   4.589
32458W        W 4773  36.815  30.453  13.849
32459W        W 4774  10.814  11.144  13.335
32460W        W 4775  10.470   2.212   2.823
32461W        W 4776  44.400   9.510  12.600
32462W        W 4777  24.236  11.806   1.442
32463W        W 4778  33.807  17.494  14.665
32464W        W 4779  23.792  16.394   4.255
32465W        W 4780  27.969  10.284   5.123
32466W        W 4781  27.614   6.044   1.534
32467W        W 4782  42.346  40.178   4.071
32468W        W 4783  11.388  40.936  13.258
32469W        W 4784   1.823  40.998   1.275
32470W        W 4785   6.694  38.896  14.911
32471W        W 4786  22.021   7.890  11.421
32472W        W 4787  21.190   7.684  13.346
32473W        W 4788  21.500  33.411  14.032
32474W        W 4789  41.824  28.334  11.297
32475W        W 4790  41.456  15.533  12.150
32476W        W 4791  26.376  44.022  11.386
32477W        W 4792   4.134   3.995   0.417
32478W        W 4793   4.477  42.358   0.326
32479W        W 4794   6.121  30.917  10.866
32480W        W 4795  17.626   6.652  13.852
32481W        W 4796  24.077   2.298  12.542
32482W        W 4797   6.874  10.136  13.129
32483W        W 4798  32.880  38.303  12.828
32484W        W 4799  15.188   8.804   4.756
32485W        W 4800   4.684  37.405   2.182
32486W        W 4801  14.522   1.305  12.955
32487W        W 4802  15.655   7.646   1.253
32488W        W 4803  31.197  35.075   2.527
32489W        W 4804  20.038  33.336  14.763
32490W        W 4805  11.869  44.221  14.462
32491W        W 4806  29.113   4.914   2.700
32492W        W 4807  20.765  28.365  14.034
32493W        W 4808  42.234  36.012   1.250
32494W        W 4809  44.345  37.821  10.634
32495W        W 4810  44.029  18.511  14.867
32496W        W 4811  26.985  10.363  10.591
32497W        W 4812   3.366  42.515  11.596
32498W        W 4813  31.897  41.747  11.727
32499W        W 4814  32.814  14.572  11.150
32500W        W 4815  22.016  18.013  11.598
32501W        W 4816  21.060   2.139  14.123
32502W        W 4817  23.650  37.315  14.104
32503W        W 4818  12.115  27.750   2.652
32504W        W 4819   7.110   6.047  13.435
32505W        W 4820  37.386  13.352   2.497
32506W        W 4821  13.058  21.445  11.149
32507W        W 4822  18.722  28.488  13.492
32508W        W 4823  29.053  32.331   2.209
32509W        W 4824  12.866  31.330  13.551
32510W        W 4825  18.029  29.658  13.167
32511W        W 4826  15.634  31.355  14.853
32512W        W 4827  17.578  26.820  10.412
32513W        W 4828  30.628  26.517  14.392
32514W        W 4829   1.454  32.369  10.797
32515W        W 4830  14.984  32.870  11.561
32516W        W 4831  33.680   5.844   2.837
32517W        W 4832  38.110   1.522   0.879
32518W        W 4833   2.254  28.702   0.427
32519W        W 4834  28.506  36.483  12.571
32520W        W 4835  31.670  44.216  11.190
32521W        W 4836   1.477   9.244   4.553
32522W        W 4837  41.880  18.885   2.699
32523W        W 4838  30.466   0.605   4.983
32524W        W 4839  20.268  16.654   2.620
32525W        W 4840  27.868  13.513   0.296
32526W        W 4841  16.140  43.733   0.170
32527W        W 4842   1.323  19.153  14.813
32528W        W 4843  16.018   6.874  13.056
32529W        W 4844  32.575  27.682  12.545
32530W        W 4845   7.743   6.613  13.999
32531W        W 4846  25.507  23.263  13.891
32532W        W 4847  15.469  34.414  14.764
32533W        W 4848  20.435  17.579   0.369
32534W        W 4849  15.564   6.350  13.242
32535W        W 4850  30.387  44.228   2.751
32536W        W 4851  22.672   0.747   2.900
32537W        W 4852  43.984   1.561   1.590
32538W        W 4853  12.581  41.870   1.602
32539W        W 4854  21.586  14.833  13.861
32540W        W 4855   8.890  38.072  13.966
32541W        W 4856   7.802   3.755   3.136
32542W        W 4857  16.439  15.278  13.576
32543W        W 4858  43.967  32.223  13.385
32544W        W 4859  13.681   3.964  11.211
32545W        W 4860   5.711  23.525   2.712
32546W        W 4861  16.206  31.464   2.141
32547W        W 4862   2.458  20.705   2.191
32548W        W 4863  21.742  17.134   0.247
32549W        W 4864  39.898  17.993   2.456
32550W        W 4865  19.163   0.963   3.833
32551W        W 4866   0.441  14.731  10.709
32552W        W 4867  38.188  31.067  14.851
32553W        W 4868  43.506  31.225   4.189
32554W        W 4869  21.305   4.094  10.416
32555W        W 4870   0.870  23.563  10.415
32556W        W 4871  17.044   4.244   0.302
32557W        W 4872  23.880   9.993  12.981
32558W        W 4873  10.566  33.961  11.543
32559W        W 4874  41.458  43.802   4.801
32560W        W 4875  38.545   6.510   0.754
32561W        W 4876   4.923  43.325  13.119
32562W        W 4877  40.596   8.442  12.585
32563W        W 4878  20.166   2.867   0.962
32564W        W 4879  38.624   5.664   5.051
32565W        W 4880   9.736   0.444  13.131
32566W        W 4881  31.652  19.979   1.464
32567W        W 4882   9.758  39.976   0.625
32568W        W 4883  41.462   1.906  10.680
32569W        W 4884  14.973  33.851  11.653
32570W        W 4885  42.468  37.364   1.147
32571W        W 4886   3.000  11.888   3.788
32572W        W 4887  39.945  18.506   2.404
32573W        W 4888   3.325   0.379   2.672
32574W        W 4889  33.928  24.157   2.585
32575W        W 4890  41.416  44.807  14.899
32576W        W 4891   8.807  27.368   4.645
32577W        W 4892  32.840  23.297  11.086
32578W        W 4893  19.275  21.145  11.896
32579W        W 4894  31.964   7.225   1.752
32580W        W 4895   9.546  26.537  12.707
32581W        W 4896  39.918  33.042   4.699
32582W        W 4897  38.549  11.838  13.974
32583W        W 4898  31.048   1.910   0.817
32584W        W 4899  31.128   5.636  14.961
32585W        W 4900  37.080  33.615  14.947
32586W        W 4901  12.597  33.025  12.860
32587W        W 4902  31.573   3.974  13.840
32588W        W 4903  44.476  30.795  13.833
32589W        W 4904   4.266  24.995  12.007
32590W        W 4905   2.823  12.873   3.617
32591W        W 4906   6.405  39.799  12.111
32592W        W 4907  19.127   3.862   2.764
32593W        W 4908  44.772  14.326  11.491
32594W        W 4909   0.306  29.900   1.639
32595W        W 4910  44.308   0.958   3.710
32596W        W 4911  12.431   6.437   4.641
32597W        W 4912   0.752   1.384  11.649
32598W        W 4913  28.143  11.925  11.447
32599W        W 4914  13.466  21.875   3.679
32600W        W 4915  35.546  42.586  11.269
32601W        W 4916  44.664   4.743  13.062
32602W        W 4917  41.806   1.396  14.938
32603W        W 4918   7.288  37.031  14.967
32604W        W 4919  17.656  31.500   4.778
32605W        W 4920   5.111   8.772   0.186
32606W        W 4921  26.276  19.062  11.295
32607W        W 4922  20.120  39.604  13.954
32608W        W 4923  23.092  42.232   2.747
32609W        W 4924   1.799  27.988   1.301
32610W        W 4925  37.663  44.888   2.754
32611W        W 4926  12.197  24.475  13.282
32612W        W 4927  43.658  36.340   3.325
32613W        W 4928  18.209  19.124   4.109
32614W        W 4929  44.217   0.934   0.702
32615W        W 4930  16.061   7.227   4.065
32616W        W 4931  38.918  36.351   1.353
32617W        W 4932  29.861  23.521  14.301
32618W        W 4933   3.695  16.230  10.655
32619W        W 4934  23.711   4.494   3.795
32620W        W 4935  34.435  42.195   4.176
32621W        W 4936  21.831  19.494  13.339
32622W        W 4937  32.049   9.353   4.262
32623W        W 4938   5.236  13.232   2.124
32624W        W 4939  44.028   8.394  11.521
32625W        W 4940   0.418   7.889   0.434
32626W        W 4941   7.690   0.197  14.498
32627W        W 4942  13.662  19.795   1.282
32628W        W 4943  44.227  36.489   3.299
32629W        W 4944  40.752  17.698   2.498
32630W        W 4945  16.671   0.024  14.498
32631W        W 4946  11.022  28.441  14.967
32632W        W 4947  18.089  38.130  10.285
32633W        W 4948  38.016   8.616   2.784
32634W        W 4949  17.539  14.294   1.788
32635W        W 4950   4.660  41.767  11.149
32636W        W 4951  15.088  19.678  11.650
32637W        W 4952  30.847   6.630  10.678
32638W        W 4953  27.672  42.100   1.778
32639W        W 4954  23.473  22.326   0.393
32640W        W 4955  17.532   8.318   0.230
32641W        W 4956  41.456  42.107   2.909
32642W        W 4957   4.851  29.040   2.809
32643W        W 4958  12.823  20.541  13.991
32644W        W 4959  40.239  25.695   3.701
32645W        W 4960  40.304   3.227  12.766
32646W        W 4961  20.839  17.309   0.678
32647W        W 4962   1.844  40.762   1.861
32648W        W 4963  33.148  10.154   3.155
32649W        W 4964  40.568  23.550  13.000
32650W        W 4965  11.124  17.788  13.435
32651W        W 4966  42.375  31.068   0.502
32652W        W 4967  14.728  37.102  11.604
32653W        W 4968  27.653  29.118   0.391
32654W        W 4969   7.215  34.027   4.041
32655W        W 4970   8.874  39.493  11.171
32656W        W 4971   5.911  12.653  10.818
32657W        W 4972  25.638  38.666  14.332
32658W        W 4973  17.281  30.826  10.832
32659W        W 4974  35.975  10.448   2.790
32660W        W 4975  18.046  39.294  14.929
32661W        W 4976  12.784  36.909   1.924
32662W        W 4977  15.192   5.803   3.146
32663W        W 4978  42.443  26.736  11.490
32664W        W 4979  38.059   6.887  13.684
32665W        W 4980  42.273  10.926   4.677
32666W        W 4981  22.981  43.991   0.325
32667W        W 4982  19.043  44.703  10.333
32668W        W 4983   7.208   4.212  11.549
32669W        W 4984   0.244  25.063   1.784
32670W        W 4985  28.981  35.542  11.429
32671W        W 4986  34.240  12.688  12.464
32672W        W 4987   6.605  31.328  13.363
32673W        W 4988  27.468   3.698   0.851
32674W        W 4989  15.848  22.705   0.303
32675W        W 4990  26.741  41.889  11.639
32676W        W 4991  43.028   1.408  10.375
32677W        W 4992  10.794  13.595  12.096
32678W        W 4993  37.427  25.498  12.417
32679W        W 4994  18.237   7.719   0.013
32680W        W 4995  10.183  12.853  11.154
32681W        W 4996  17.722  38.067   1.348
32682W        W 4997  32.329   3.145   3.716
32683W        W 4998  37.029  32.980   2.696
32684W        W 4999   3.515  44.543  13.866
32685W        W 5000  20.890  18.681  12.193
32686W        W 5001  44.706   4.914   4.116
32687W        W 5002  21.761  38.516  14.562
32688W        W 5003  30.335  25.240   3.657
32689W        W 5004  39.325   6.232   3.068
32690W        W 5005  18.183  14.114  14.727
32691W        W 5006  19.168   8.849   4.649
32692W        W 5007   1.382   6.193  12.440
32693W        W 5008  37.985   9.204   3.474
32694W        W 5009   6.647  34.702   0.019
32695W        W 5010  28.679  32.227   0.519
32696W        W 5011  24.652  14.034   2.051
32697W        W 5012  29.925  16.078   1.838
32698W        W 5013   9.782  11.265  11.243
32699W        W 5014  30.856  16.820   3.862
32700W        W 5015  21.057  26.454   1.382
32701W        W 5016  25.724  24.231  13.044
32702W        W 5017   0.796  10.083  13.713
32703W        W 5018   2.523  40.193   2.709
32704W        W 5019  25.558  36.954  14.028
32705W        W 5020  10.809  37.861  14.038
32706W        W 5021  33.922  25.827   4.647
32707W        W 5022  44.508  20.987   0.301
32708W        W 5023  21.660  22.438  12.595
32709W        W 5024   1.388   9.090   1.989
32710W        W 5025   5.128  23.509   0.365
32711W        W 5026  43.928  39.541  12.831
32712W        W 5027  30.510  25.910  11.089
32713W        W 5028  32.549  30.714  11.067
32714W        W 5029  24.858  36.985  11.133
32715W        W 5030  40.559  10.634   3.491
32716W        W 5031   9.660  28.931   5.139
32717W        W 5032  37.952  11.441   3.323
32718W        W 5033  36.285  23.405  11.594
32719W        W 5034  20.181   8.428  13.585
32720W        W 5035  30.608  39.102   1.309
32721W        W 5036   5.969  43.790   4.061
32722W        W 5037  19.719   4.387   0.236
32723W        W 5038  16.761  39.098  13.398
32724W        W 5039   0.005   6.228  11.174
32725W        W 5040   0.034  16.485   2.345
32726W        W 5041  36.666  20.264   1.455
32727W        W 5042  20.696  25.048   4.488
32728W        W 5043  30.966  31.077   2.424
32729W        W 5044   2.223   0.410   0.566
32730W        W 5045   9.754   0.230   1.318
32731W        W 5046  38.869  10.843  11.124
32732W        W 5047   9.714  31.182  14.347
32733W        W 5048  37.897  39.560   1.898
32734W        W 5049  40.579  28.038   1.826
32735W        W 5050  33.970   2.054   1.891
32736W        W 5051  36.884   0.928   3.444
32737W        W 5052  33.492  25.639   4.196
32738W        W 5053  13.202   5.924  13.518
32739W        W 5054  22.909  40.574   4.833
32740W        W 5055  38.890  12.369  12.898
32741W        W 5056  44.728   0.342   4.121
32742W        W 5057  42.315  44.404   4.649
32743W        W 5058  43.444  16.396   1.180
32744W        W 5059  42.492  15.180  11.739
32745W        W 5060   9.979   5.869  11.598
32746W        W 5061  44.426  39.571  13.962
32747W        W 5062  44.920  39.423  13.988
32748W        W 5063  10.721  35.865   3.312
32749W        W 5064  36.561  18.249  10.640
32750W        W 5065   3.270  31.710   4.936
32751W        W 5066  14.783  35.030   4.062
32752W        W 5067  13.632  10.274  10.724
32753W        W 5068  35.113  28.021  13.781
32754W        W 5069  19.596  26.021   0.498
32755W        W 5070  26.199   1.013   1.460
32756W        W 5071  26.661  18.957  12.584
32757W        W 5072  18.570  32.115  10.684
32758W        W 5073  16.251   3.444  14.820
32759W        W 5074  41.459  12.825  10.702
32760W        W 5075  44.700  34.559   3.253
32761W        W 5076  26.107  31.259   1.278
32762W        W 5077  26.559  12.699   0.916
32763W        W 5078  32.585  13.194  10.620
32764W        W 5079  25.076  42.410   4.299
32765W        W 5080   4.337  38.207   3.101
32766W        W 5081   4.249  14.550   4.500
32767W        W 5082  42.021  31.048   1.873
32768W        W 5083  21.272  39.099  13.865
32769W        W 5084   1.880   1.666  13.363
32770W        W 5085  30.124   9.646   2.185
32771W        W 5086  40.484  26.142   5.092
32772W        W 5087  26.451  34.847  10.525
32773W        W 5088  19.332  42.516   2.212
32774W        W 5089   3.434   0.173  10.900
32775W        W 5090  20.058  29.975  11.215
32776W        W 5091  33.585  28.235   4.275
32777W        W 5092  40.484  39.493  12.928
32778W        W 5093   2.190  31.028  13.516
32779W        W 5094  12.797  43.376  11.528
32780W        W 5095  28.688  15.080   4.090
32781W        W 5096  11.059  18.046   3.763
32782W        W 5097  28.412  44.032   3.776
32783W        W 5098   0.905  40.417  14.936
32784W        W 5099   9.359  40.326   1.854
32785W        W 5100   8.308  29.724   4.106
32786W        W 5101  40.846  28.737  14.939
32787W        W 5102  23.563  20.988  11.597
32788W        W 5103  38.972  23.213   0.882
32789W        W 5104  15.203  39.064   2.121
32790W        W 5105   1.044   6.881  11.551
32791W        W 5106  23.790  18.112   2.658
32792W        W 5107  33.657  36.179  11.216
32793W        W 5108   2.338  37.711   1.927
32794W        W 5109  15.086  39.893  13.574
32795W        W 5110  29.868  11.648   3.714
32796W        W 5111  23.114   5.494   3.421
32797W        W 5112  17.016  10.202  11.598
32798W        W 5113  22.845  27.487  11.328
32799W        W 5114  27.731  35.942  12.567
32800W        W 5115  25.049  44.449  13.459
32801W        W 5116  17.443  35.993   0.300
32802W        W 5117  29.323  19.599   2.329
32803W        W 5118   8.906   5.254  13.407
32804W        W 5119  28.651  21.056   3.761
32805W        W 5120   9.223  24.657   3.597
32806W        W 5121  15.632  21.399  13.961
32807W        W 5122  33.022  37.135  14.338
32808W        W 5123  41.434  20.105   3.748
32809W        W 5124  30.350  17.408  12.083
32810W        W 5125   2.168  41.186  12.632
32811W        W 5126  24.607   5.656  12.339
32812W        W 5127   3.200  40.739  13.344
32813W        W 5128   9.200  11.258  12.895
32814W        W 5129  41.609  17.296   0.834
32815W        W 5130   3.896  11.682   1.271
32816W        W 5131  27.517  13.858  14.253
32817W        W 5132  37.173  12.307   4.808
32818W        W 5133  21.656  32.627  12.656
32819W        W 5134  16.565   4.220  12.616
32820W        W 5135  13.352  27.718   2.256
32821W        W 5136  26.511  22.052   2.974
32822W        W 5137   5.106   6.744  11.972
32823W        W 5138  13.476  18.090   4.309
32824W        W 5139  23.151  19.766   2.898
32825W        W 5140  24.514  29.032   4.089
32826W        W 5141   2.114  12.683   4.070
32827W        W 5142  28.594   7.171  11.969
32828W        W 5143   3.349   4.647   3.763
32829W        W 5144  25.990  23.162   3.691
32830W        W 5145  32.604  29.659  11.146
32831W        W 5146   7.019  11.541  14.806
32832W        W 5147   2.557  32.142  14.505
32833W        W 5148   7.363  11.813  10.544
32834W        W 5149   8.925  26.235   4.642
32835W        W 5150  34.836  35.992   4.623
32836W        W 5151  43.497  21.200  10.743
32837W        W 5152  12.820  37.947  11.097
32838W        W 5153  36.354  40.868   4.668
32839W        W 5154  36.353  13.361   3.791
32840W        W 5155  19.258  25.514   1.224
32841W        W 5156  28.241   3.396   0.393
32842W        W 5157  30.762  21.485  12.951
32843W        W 5158  40.503  37.834  11.586
32844W        W 5159  16.830   4.250  11.646
32845W        W 5160  43.154  11.738   3.658
32846W        W 5161  39.091   5.918   0.020
32847W        W 5162  23.439  30.594   0.652
32848W        W 5163  12.148  44.092   3.379
32849W        W 5164  39.319  41.331  11.692
32850W        W 5165   3.027  42.018  13.354
32851W        W 5166   0.245  29.664  10.988
32852W        W 5167  43.770   5.489   0.256
32853W        W 5168  25.995   6.258   9.715
32854W        W 5169  32.382   4.193  12.008
32855W        W 5170  20.357  28.016   0.769
32856W        W 5171  19.069   6.251  14.884
32857W        W 5172  29.981  17.128   4.514
32858W        W 5173  15.122  30.204  13.115
32859W        W 5174   8.079   4.046   0.943
32860W        W 5175   3.663  40.149   3.696
32861W        W 5176  28.561  14.031   0.729
32862W        W 5177  32.721  35.720   3.603
32863W        W 5178   4.831  31.483   4.223
32864W        W 5179  27.934   5.273   0.369
32865W        W 5180   7.735  34.542   1.811
32866W        W 5181  35.164  30.864  12.357
32867W        W 5182   5.662   8.317  11.711
32868W        W 5183  43.241  27.946  11.686
32869W        W 5184  43.408   4.651  13.958
32870W        W 5185  41.551  17.991   2.488
32871W        W 5186   9.785   3.941   5.017
32872W        W 5187  39.456  44.403  11.906
32873W        W 5188  20.291  17.633  12.838
32874W        W 5189  23.903  30.159   2.882
32875W        W 5190   5.754   7.845  11.464
32876W        W 5191  39.928  33.510  14.705
32877W        W 5192   9.109  23.629   4.170
32878W        W 5193  29.454  40.262   0.359
32879W        W 5194  40.300  27.719   2.692
32880W        W 5195   9.704  19.100  12.136
32881W        W 5196   7.183  19.078  13.455
32882W        W 5197  19.575  14.767  11.517
32883W        W 5198  16.646   2.547   0.819
32884W        W 5199  44.572  28.046  11.647
32885W        W 5200  36.145  42.059  12.403
32886W        W 5201  11.288  17.203  14.005
32887W        W 5202  19.987   9.836   1.751
32888W        W 5203  19.084   1.700  14.270
32889W        W 5204   5.324  25.672  11.990
32890W        W 5205  42.063  21.258   3.168
32891W        W 5206  10.623   9.491  11.484
32892W        W 5207  23.342   0.397  13.907
32893W        W 5208  23.080  19.477  12.278
32894W        W 5209  35.163  39.376  11.866
32895W        W 5210  22.422  27.147   3.550
32896W        W 5211   6.168   4.332   1.817
32897W        W 5212   0.654   1.814   2.903
32898W        W 5213  11.860   3.192  11.059
32899W        W 5214   3.846  24.231  11.907
32900W        W 5215  34.071   1.564   0.280
32901W        W 5216   7.907  38.748   2.626
32902W        W 5217  11.577  32.881   1.323
32903W        W 5218  18.474  12.566  12.557
32904W        W 5219  25.029  24.005  14.936
32905W        W 5220   9.282  30.527   3.191
32906W        W 5221  42.349   8.910   4.408
32907W        W 5222   8.268  31.844  11.103
32908W        W 5223  22.615   7.099  11.213
32909W        W 5224   9.431  44.066  10.680
32910W        W 5225  15.722  24.242   2.460
32911W        W 5226  32.041   0.804   4.646
32912W        W 5227  10.252  12.942  14.546
32913W        W 5228  12.651  24.935   0.929
32914W        W 5229  14.583  13.179  12.345
32915W        W 5230  21.325  30.982   3.327
32916W        W 5231  37.152  42.542  11.880
32917W        W 5232  24.599  22.060   3.179
32918W        W 5233  42.470   6.693   4.614
32919W        W 5234  35.038   7.158  11.969
32920W        W 5235  13.225  24.173  11.974
32921W        W 5236   3.515  12.575  10.567
32922W        W 5237  16.509  15.263  12.347
32923W        W 5238  43.017  14.289  12.953
32924W        W 5239  17.896   0.738  13.529
32925W        W 5240  15.621  17.885   0.289
32926W        W 5241  37.819   2.790  14.583
32927W        W 5242  37.335  22.452   2.166
32928W        W 5243  36.313  17.953  11.932
32929W        W 5244  12.239   2.197   1.386
32930W        W 5245   8.283  31.061   1.954
32931W        W 5246  32.222  21.410   1.189
32932W        W 5247  29.709  28.439  14.986
32933W        W 5248  13.641  12.113   0.234
32934W        W 5249  15.286  13.380  14.016
32935W        W 5250  20.552   3.993   3.137
32936W        W 5251  42.184  26.038  13.401
32937W        W 5252  41.080  10.070   4.195
32938W        W 5253  32.927  23.547   4.570
32939W        W 5254  31.497  15.823   0.423
32940W        W 5255  26.007   9.848   3.194
32941W        W 5256  41.432  28.390  13.615
32942W        W 5257  31.455  32.717  11.320
32943W        W 5258  27.245   0.888  13.678
32944W        W 5259  33.461  23.274   3.251
32945W        W 5260  10.616  14.828  11.961
32946W        W 5261  21.003  28.526  12.832
32947W        W 5262   9.869  16.997   0.924
32948W        W 5263   2.294  13.361   0.728
32949W        W 5264  10.233  18.154  12.459
32950W        W 5265  34.079   0.274   2.011
32951W        W 5266  23.563   0.417  12.327
32952W        W 5267  13.051   9.112  12.967
32953W        W 5268   3.985  29.795  11.664
32954W        W 5269   1.566   6.769  11.548
32955W        W 5270  40.225  11.224   3.776
32956W        W 5271  26.712  38.927   1.942
32957W        W 5272  16.308  24.080  10.559
32958W        W 5273  32.110  42.497   4.074
32959W        W 5274  17.658  21.175   4.040
32960W        W 5275  20.067  10.413  12.615
32961W        W 5276  36.113  11.767   2.326
32962W        W 5277   5.412  41.287   2.425
32963W        W 5278  27.591  10.475   3.320
32964W        W 5279  21.542   3.702  11.665
32965W        W 5280  21.191  25.148  13.106
32966W        W 5281  38.011  14.736   0.282
32967W        W 5282  36.762  17.805  14.325
32968W        W 5283   2.477  23.499   0.961
32969W        W 5284  25.195  10.052   3.347
32970W        W 5285  11.732  16.066  12.114
32971W        W 5286   2.563  27.094  13.085
32972W        W 5287  29.015  10.058   3.060
32973W        W 5288  11.209  20.304   2.705
32974W        W 5289  22.677   6.381  13.970
32975W        W 5290  34.429  31.400   1.344
32976W        W 5291  20.772  27.066  11.123
32977W        W 5292  34.519  14.318   5.049
32978W        W 5293  27.607  14.889  14.318
32979W        W 5294  23.004  12.298   3.700
32980W        W 5295  10.923  36.519   0.485
32981W        W 5296   0.002  23.295   3.207
32982W        W 5297  33.627  14.711  13.143
32983W        W 5298  18.487  28.911   3.789
32984W        W 5299   6.094  16.505  11.154
32985W        W 5300  44.825  13.923   1.852
32986W        W 5301  34.055  24.353   4.629
32987W        W 5302  21.988  18.727  12.269
32988W        W 5303   9.514  26.920  14.913
32989W        W 5304  34.948  21.324  14.921
32990W        W 5305  21.380  15.627  10.358
32991W        W 5306  25.252  31.836  13.449
32992W        W 5307  22.983  23.687   0.588
32993W        W 5308  33.595   6.936   2.825
32994W        W 5309  20.744  40.409  11.359
32995W        W 5310  15.671  22.183   3.470
32996W        W 5311  27.563  38.432  10.604
32997W        W 5312   0.373   2.072   3.261
32998W        W 5313  23.047  21.258   0.869
32999W        W 5314  24.543  13.839  14.479
33000W        W 5315   2.017  14.354   1.730
33001W        W 5316   8.445  18.652   3.216
33002W        W 5317  39.328  14.781  14.449
33003W        W 5318  18.237  26.415   4.525
33004W        W 5319  41.009   4.861   3.337
33005W        W 5320  33.118  15.191  11.965
33006W        W 5321  12.081  17.928   5.090
33007W        W 5322  10.234  42.053   5.046
33008W        W 5323  18.243  39.994   0.246
33009W        W 5324  13.848  18.285   0.187
33010W        W 5325  17.629  35.137  14.747
33011W        W 5326  25.757  14.644   0.351
33012W        W 5327  13.359   1.915   3.865
33013W        W 5328  27.518  39.646  14.963
33014W        W 5329  10.267  25.636   4.663
33015W        W 5330  21.496  29.868  12.112
33016W        W 5331  31.702   8.352   3.599
33017W        W 5332  42.938  22.981  12.911
33018W        W 5333  25.570   4.693   2.330
33019W        W 5334  23.311  38.633  13.439
33020W        W 5335  41.542  29.182   4.502
33021W        W 5336  14.633  17.222  14.030
33022W        W 5337  20.612   4.599   4.949
33023W        W 5338   2.865  10.893   0.036
33024W        W 5339  16.154  35.875   4.580
33025W        W 5340  32.280   1.262   4.700
33026W        W 5341   5.308  14.201   5.095
33027W        W 5342  20.632  37.468  11.646
33028W        W 5343  22.734  34.828  13.479
33029W        W 5344  19.553  31.219  10.864
33030W        W 5345  22.358  33.876  12.054
33031W        W 5346  27.139  43.372   0.717
33032W        W 5347  21.111  14.249  10.732
33033W        W 5348   1.808  35.549  11.224
33034W        W 5349   4.773  22.238  13.568
33035W        W 5350  19.743  44.984  11.587
33036W        W 5351  20.338  19.441  12.406
33037W        W 5352  35.185  36.369  12.975
33038W        W 5353  24.941   8.959  10.735
33039W        W 5354   3.220  18.783  12.044
33040W        W 5355  10.505  36.176  14.623
33041W        W 5356   7.487  34.560  11.336
33042W        W 5357  32.494  39.000  13.945
33043W        W 5358  27.142  10.100   4.562
33044W        W 5359  36.083   7.095  14.347
33045W        W 5360  27.099  29.398  10.994
33046W        W 5361  14.798  13.310   3.702
33047W        W 5362  41.726  25.041  10.395
33048W        W 5363   1.491  17.147  14.545
33049W        W 5364   7.364  16.190  11.987
33050W        W 5365  41.611  44.265   4.553
33051W        W 5366  43.012  32.106  13.735
33052W        W 5367  17.610   1.431   3.093
33053W        W 5368  33.649  20.151  14.218
33054W        W 5369  38.197  20.354   1.370
33055W        W 5370  36.855  36.838  11.544
33056W        W 5371   7.950  12.550  11.480
33057W        W 5372  36.087  33.640   4.558
33058W        W 5373   5.413  10.491  13.345
33059W        W 5374  25.384  29.486   4.051
33060W        W 5375  16.022  21.128  12.865
33061W        W 5376   2.084  17.088  12.017
33062W        W 5377  27.963   2.699   3.722
33063W        W 5378  27.356  23.030  13.857
33064W        W 5379  44.817  41.429   3.225
33065W        W 5380  34.375  23.624  13.970
33066W        W 5381  31.364  12.032  13.324
33067W        W 5382  24.252   2.911   0.740
33068W        W 5383  43.364   8.618   1.149
33069W        W 5384   2.314  35.038   3.225
33070W        W 5385  40.531  13.415   2.321
33071W        W 5386  28.910  27.260  12.549
33072W        W 5387   4.811  35.145  11.518
33073W        W 5388  44.226   1.816  14.723
33074W        W 5389  18.958  28.227   3.266
33075W        W 5390  40.141  37.833   2.712
33076W        W 5391  36.309  41.936   2.849
33077W        W 5392  34.298   9.284  12.040
33078W        W 5393  23.777   3.259  10.806
33079W        W 5394   1.898  14.607   4.784
33080W        W 5395  18.679   5.011  14.009
33081W        W 5396  29.055  25.074   4.236
33082W        W 5397  37.008  12.592   3.297
33083W        W 5398   1.747  15.030  14.992
33084W        W 5399   3.442  37.221  14.706
33085W        W 5400  13.855  42.968   5.139
33086W        W 5401  11.185  31.828  10.806
33087W        W 5402  30.181   7.080  11.883
33088W        W 5403  20.105  12.094   0.856
33089W        W 5404  26.112  42.762  12.596
33090W        W 5405  43.825   5.505  14.322
33091W        W 5406  34.616  17.115  10.808
33092W        W 5407   3.837  28.010   0.999
33093W        W 5408  38.665  37.266  11.597
33094W        W 5409  34.906   2.279   3.453
33095W        W 5410  16.987  12.650  13.600
33096W        W 5411  24.687   9.702  14.486
33097W        W 5412  33.972  28.028   4.588
33098W        W 5413  17.569  11.255   3.640
33099W        W 5414  13.992  17.017   1.739
33100W        W 5415  28.906  33.512  13.805
33101W        W 5416  29.613   8.224   1.698
33102W        W 5417  11.206  26.557  10.782
33103W        W 5418  41.758  42.847  12.043
33104W        W 5419  42.014  12.765   4.317
33105W        W 5420  22.295  44.930   0.973
33106W        W 5421  42.221  40.074  12.474
33107W        W 5422  34.488   0.219   0.788
33108W        W 5423  24.553  23.717  11.489
33109W        W 5424  15.562  34.135  11.115
33110W        W 5425   9.920  23.815   0.741
33111W        W 5426  23.458  24.652   0.414
33112W        W 5427  15.334  26.890  14.194
33113W        W 5428  19.966  11.796   3.758
33114W        W 5429  20.837  20.809  11.013
33115W        W 5430  42.361  25.129  14.984
33116W        W 5431  30.000  33.784   1.362
33117W        W 5432  11.331  24.460   1.320
33118W        W 5433  29.987  10.291  14.932
33119W        W 5434  32.576  40.953   3.348
33120W        W 5435   9.185  41.533   4.471
33121W        W 5436  37.927  38.175  12.626
33122W        W 5437  25.146   0.254  12.115
33123W        W 5438  16.281  36.415   3.408
33124W        W 5439  30.856  44.214   9.972
33125W        W 5440  43.552   8.882  14.069
33126W        W 5441   7.377   9.265   0.731
33127W        W 5442  22.443  15.234   2.034
33128W        W 5443  43.322  29.681   1.195
33129W        W 5444  27.595   6.218   4.780
33130W        W 5445  35.740  31.666   2.605
33131W        W 5446  25.213  40.588   1.482
33132W        W 5447   9.025  40.062   1.092
33133W        W 5448   9.174  25.902   1.929
33134W        W 5449   2.447  43.566   4.657
33135W        W 5450   3.153   2.722  12.051
33136W        W 5451  25.522  27.708   4.593
33137W        W 5452  31.873   7.410   4.597
33138W        W 5453  15.939   6.368  12.870
33139W        W 5454  25.076  44.221  10.973
33140W        W 5455  13.300  43.869  13.140
33141W        W 5456  23.200  30.188   4.242
33142W        W 5457  18.125  23.221  11.109
33143W        W 5458  36.083  43.804  12.581
33144W        W 5459  30.628   7.667  14.083
33145W        W 5460  37.328  14.306  14.095
33146W        W 5461   6.494  23.346   0.301
33147W        W 5462  13.298   7.627   0.457
33148W        W 5463  30.976  35.906   3.370
33149W        W 5464   2.835  35.961   0.845
33150W        W 5465  30.880   6.819  13.479
33151W        W 5466  24.030  26.136   1.823
33152W        W 5467  18.377  31.107  12.682
33153W        W 5468  29.768  27.648   0.418
33154W        W 5469   3.808  25.994   4.087
33155W        W 5470   0.991  23.138  13.915
33156W        W 5471  42.900  44.382  14.125
33157W        W 5472   2.376  24.983  11.114
33158W        W 5473   6.092  44.735  11.026
33159W        W 5474  29.009  19.215  11.408
33160W        W 5475   0.120   5.111   4.368
33161W        W 5476  10.122   7.821  13.932
33162W        W 5477  39.373  18.519   1.778
33163W        W 5478  13.324  42.858  12.183
33164W        W 5479  33.994  24.769  10.898
33165W        W 5480  11.431  30.908  13.315
33166W        W 5481  41.546  35.969   1.931
33167W        W 5482  44.440  34.156  14.406
33168W        W 5483  16.670  28.574   2.738
33169W        W 5484  31.058  14.804   4.672
33170W        W 5485  19.174  30.119   0.074
33171W        W 5486  39.786  34.641   1.824
33172W        W 5487  31.043   1.234   1.419
33173W        W 5488  36.980  12.275  13.499
33174W        W 5489  19.585   9.365  11.908
33175W        W 5490  43.238  40.130   2.167
33176W        W 5491  13.937  18.334   4.391
33177W        W 5492  27.469   0.975  11.895
33178W        W 5493  24.220   4.745   1.849
33179W        W 5494  25.488  24.012  13.491
33180W        W 5495  23.434  23.827   0.947
33181W        W 5496  13.687  24.000  11.656
33182W        W 5497  16.554  17.744  13.481
33183W        W 5498  42.549  29.655  10.719
33184W        W 5499   5.822  31.452   1.489
33185W        W 5500  27.301   7.369  14.882
33186W        W 5501   4.873  30.400  10.383
33187W        W 5502   4.712  41.437  10.736
33188W        W 5503  15.023  27.093   0.465
33189W        W 5504  29.665  40.953  10.525
33190W        W 5505  28.562   4.283  13.880
33191W        W 5506  32.902  41.816   2.791
33192W        W 5507  14.724  44.474  11.513
33193W        W 5508  30.381  21.659   0.936
33194W        W 5509  20.376  35.434   2.666
33195W        W 5510  44.218   3.328  12.366
33196W        W 5511  27.618  26.716   2.644
33197W        W 5512  26.196  29.392   0.447
33198W        W 5513  16.364  28.187   0.592
33199W        W 5514   8.090  32.375  13.814
33200W        W 5515  29.680   1.442   2.769
33201W        W 5516  31.633  19.235  11.478
33202W        W 5517   8.940   8.575   1.802
33203W        W 5518  25.045   6.623  10.138
33204W        W 5519  15.535  19.386  14.063
33205W        W 5520  24.253   5.182  14.159
33206W        W 5521  35.410   3.260  10.683
33207W        W 5522  28.171  37.529  14.715
33208W        W 5523  20.018  39.258   0.774
33209W        W 5524  24.177  16.232  12.064
33210W        W 5525  37.459  42.456   1.749
33211W        W 5526  17.368  25.008  10.808
33212W        W 5527  25.896  37.432  12.542
33213W        W 5528   6.436   1.716   9.844
33214W        W 5529  40.511  39.333   1.477
33215W        W 5530  28.119  22.070   0.985
33216W        W 5531  40.637  28.893   0.477
33217W        W 5532  41.793  13.336  10.745
33218W        W 5533  22.109  37.553   3.167
33219W        W 5534  38.374   2.722   0.701
33220W        W 5535  38.351   4.536   1.859
33221W        W 5536   7.567   4.450   0.061
33222W        W 5537  21.675  35.144  13.108
33223W        W 5538  18.186  27.259   1.880
33224W        W 5539  43.879  35.626   3.810
33225W        W 5540  21.030  31.919  14.391
33226W        W 5541   7.867  34.835   4.125
33227W        W 5542  13.174   4.664  13.835
33228W        W 5543   1.791  27.260  11.176
33229W        W 5544  29.848  14.243  10.715
33230W        W 5545  30.419  35.479   2.783
33231W        W 5546  25.081  37.638   0.697
33232W        W 5547   9.680  23.613  12.377
33233W        W 5548  25.006  41.472  14.962
33234W        W 5549   2.357   0.455   4.631
33235W        W 5550  34.381  39.767   2.394
33236W        W 5551  26.307   9.547   4.776
33237W        W 5552  37.998  27.736   2.786
33238W        W 5553   6.189  25.483   4.946
33239W        W 5554  32.697  23.366   2.792
33240W        W 5555   0.294  24.671   2.206
33241W        W 5556  28.603  37.466   2.466
33242W        W 5557  43.759  24.622  12.103
33243W        W 5558  26.521   2.913   5.007
33244W        W 5559  30.719   7.444   2.736
33245W        W 5560  21.245  11.301   4.344
33246W        W 5561  36.416  37.873   0.995
33247W        W 5562  44.535  41.893  11.629
33248W        W 5563  40.703   3.418   0.518
33249W        W 5564  22.951   1.485  11.639
33250W        W 5565  37.014   4.757   1.759
33251W        W 5566  15.446  18.354   0.435
33252W        W 5567  18.785  14.905  13.999
33253W        W 5568  30.582  28.098   0.914
33254W        W 5569  24.261  43.730   4.159
33255W        W 5570  11.639  29.471   2.271
33256W        W 5571  34.031  33.875  14.915
33257W        W 5572  32.625  24.207  12.650
33258W        W 5573  43.212  42.410  14.493
33259W        W 5574  22.604  31.803  12.571
33260W        W 5575   2.751  16.084  13.752
33261W        W 5576   8.398  18.164  12.862
33262W        W 5577   3.548  23.984  13.153
33263W        W 5578   1.592  41.860  11.766
33264W        W 5579  44.345   1.349   3.373
33265W        W 5580   1.360  21.127   4.351
33266W        W 5581  34.662  16.680  10.560
33267W        W 5582  24.001   1.595   5.082
33268W        W 5583  22.946  25.228  12.536
33269W        W 5584  33.914  19.390  10.711
33270W        W 5585  21.315   4.210   1.692
33271W        W 5586   3.706  35.316   3.179
33272W        W 5587  25.779   2.064  12.561
33273W        W 5588  20.538  13.218  10.743
33274W        W 5589  17.179  44.725   3.448
33275W        W 5590  38.248  44.263  10.705
33276W        W 5591   4.226   4.168   2.706
33277W        W 5592   1.695   7.742   0.402
33278W        W 5593  14.768  33.127  10.294
33279W        W 5594  37.928  34.477   0.178
33280W        W 5595   7.968  11.418   0.690
33281W        W 5596   6.838  19.374   0.347
33282W        W 5597  27.474   7.738   3.739
33283W        W 5598  11.142  37.961  11.726
33284W        W 5599   3.915  43.420  10.553
33285W        W 5600  32.913   8.877   4.227
33286W        W 5601  14.699  15.459   3.705
33287W        W 5602  27.396  25.581  14.440
33288W        W 5603  29.587   9.137  11.845
33289W        W 5604   3.029  36.466   0.668
33290W        W 5605  20.953  29.217   1.496
33291W        W 5606   9.621   1.877   4.689
33292W        W 5607   6.341  16.502   3.323
33293W        W 5608  12.892  42.467   4.333
33294W        W 5609   4.991  27.688  10.979
33295W        W 5610  14.237  22.109  14.451
33296W        W 5611  25.165  41.301   3.670
33297W        W 5612  32.367  36.067  12.915
33298W        W 5613  23.175  19.995  11.110
33299W        W 5614  22.551  19.726   9.975
33300W        W 5615  39.486  29.234   3.853
33301W        W 5616  43.826   5.011   0.506
33302W        W 5617  36.370  26.089  11.877
33303W        W 5618  17.838  28.495   1.898
33304W        W 5619  10.838  18.233  11.083
33305W        W 5620  36.781  26.041  13.275
33306W        W 5621  25.652  13.014   2.787
33307W        W 5622  40.516  36.341   0.022
33308W        W 5623  44.545  23.109   3.564
33309W        W 5624  32.740  10.229   0.213
33310W        W 5625  35.667  40.924  11.582
33311W        W 5626  33.514  33.525  11.474
33312W        W 5627  39.497  28.674   3.830
33313W        W 5628  32.161  30.016  14.706
33314W        W 5629   6.203  16.378   4.591
33315W        W 5630  13.077  40.728  10.797
33316W        W 5631  15.287  41.617   0.426
33317W        W 5632  24.883   3.726   2.809
33318W        W 5633  10.942  40.959   0.938
33319W        W 5634  43.263  10.146  12.580
33320W        W 5635   8.175  14.491  14.981
33321W        W 5636  36.812  21.216   4.187
33322W        W 5637   6.704  27.487  14.841
33323W        W 5638  32.877  14.796  14.481
33324W        W 5639  39.685  30.025   2.228
33325W        W 5640  29.740  36.301  11.084
33326W        W 5641  42.404  17.456   0.469
33327W        W 5642  34.514   1.732   3.304
33328W        W 5643   2.565  30.385   4.716
33329W        W 5644  16.841  43.917   2.979
33330W        W 5645  14.600   7.406  11.595
33331W        W 5646  17.996  34.340  13.750
33332W        W 5647  25.682  11.814   0.402
33333W        W 5648  30.601  10.767   2.092
33334W        W 5649  18.305  16.637   1.242
33335W        W 5650  38.222  37.244   4.839
33336W        W 5651  37.523   6.694   2.706
33337W        W 5652  36.851  22.707   1.437
33338W        W 5653  44.524  23.983   3.558
33339W        W 5654  39.410  10.221  11.344
33340W        W 5655  14.233  22.340  14.931
33341W        W 5656  29.576  40.039  14.859
33342W        W 5657   4.869   1.697   2.957
33343W        W 5658   5.220  35.951  12.094
33344W        W 5659   1.501  37.412   2.634
33345W        W 5660  44.010  38.619  14.072
33346W        W 5661   5.956   8.808  14.963
33347W        W 5662  36.382  19.787   1.240
33348W        W 5663  26.610   1.672   3.678
33349W        W 5664  31.420   6.715   0.830
33350W        W 5665  38.267  31.370   3.459
33351W        W 5666  11.240  16.994  11.712
33352W        W 5667   6.790  24.714  14.296
33353W        W 5668   7.108  42.321   0.354
33354W        W 5669  30.976  18.543   0.721
33355W        W 5670  30.939  40.337  10.605
33356W        W 5671   9.154   4.873   1.443
33357W        W 5672  41.683  10.147   5.085
33358W        W 5673  33.854  22.603  11.466
33359W        W 5674  38.583   2.284   0.933
33360W        W 5675  14.680  18.524   1.852
33361W        W 5676  40.968  37.879   2.449
33362W        W 5677   9.727   3.515  13.685
33363W        W 5678  25.562  33.839  14.034
33364W        W 5679  11.710  23.359   3.233
33365W        W 5680  41.440  23.537   2.413
33366W        W 5681  14.352   5.277   1.834
33367W        W 5682  16.093  34.577  14.343
33368W        W 5683  13.079  43.936   0.879
33369W        W 5684   8.297   9.384  14.001
33370W        W 5685  44.479  20.202   2.753
33371W        W 5686  43.965  27.747  11.113
33372W        W 5687  26.983  20.042  11.433
33373W        W 5688  10.857   5.704   2.681
33374W        W 5689   2.352  25.535   1.063
33375W        W 5690  19.533  37.004  12.461
33376W        W 5691  10.553  33.745  13.868
33377W        W 5692  14.074  27.229  10.412
33378W        W 5693  31.656  25.755  10.972
33379W        W 5694  14.756   6.324   1.671
33380W        W 5695   2.191  41.704  13.959
33381W        W 5696  14.105  29.639  11.046
33382W        W 5697  43.990   8.673  11.086
33383W        W 5698  19.265  40.506   3.117
33384W        W 5699  15.287  33.185   2.915
33385W        W 5700  44.859  29.487   0.788
33386W        W 5701   2.570   0.997  13.997
33387W        W 5702  10.763  14.661   3.882
33388W        W 5703  32.425   8.221  14.996
33389W        W 5704  14.188   6.427  13.324
33390W        W 5705  42.153   6.126   3.768
33391W        W 5706   2.114  33.046  12.286
33392W        W 5707   8.909  29.792   1.788
33393W        W 5708  28.978  40.975  14.307
33394W        W 5709  13.724  19.621  12.568
33395W        W 5710  26.596  23.918  11.676
33396W        W 5711  34.476  32.682   1.686
33397W        W 5712  32.707  22.486   4.550
33398W        W 5713   3.299  21.570  11.467
33399W        W 5714  30.949  42.513   4.999
33400W        W 5715  20.240  43.724   2.372
33401W        W 5716  14.520  13.078   2.309
33402W        W 5717  28.769  12.677   0.961
33403W        W 5718  15.735  34.198  12.055
33404W        W 5719  44.077  16.112  14.830
33405W        W 5720  24.858  29.274  11.153
33406W        W 5721   4.671  28.966   3.286
33407W        W 5722  27.640  11.836   2.213
33408W        W 5723  17.168  30.921  14.117
33409W        W 5724  27.565  28.450   4.817
33410W        W 5725  35.862  38.586  11.611
33411W        W 5726  36.451  42.316   1.750
33412W        W 5727  12.238  36.763  12.028
33413W        W 5728  38.906  34.102  13.874
33414W        W 5729  20.483   3.838  12.033
33415W        W 5730  24.961   0.417   0.733
33416W        W 5731  35.630  30.515  11.483
33417W        W 5732   1.602   3.988   0.209
33418W        W 5733   1.183  15.797   0.343
33419W        W 5734  38.064  24.186   1.434
33420W        W 5735  30.384   4.841  14.381
33421W        W 5736  10.817  26.614   3.183
33422W        W 5737  44.383  14.862   0.873
33423W        W 5738  28.150  20.525   0.272
33424W        W 5739  37.983  26.237   2.702
33425W        W 5740   3.848  38.018   3.589
33426W        W 5741  14.524  41.858   4.587
33427W        W 5742  12.506   0.335  14.232
33428W        W 5743  42.989  32.991  12.813
33429W        W 5744  33.642   1.480   0.930
33430W        W 5745  38.350  11.706   1.447
33431W        W 5746  13.430  26.736  12.459
33432W        W 5747  41.757  44.310  10.657
33433W        W 5748  34.346  40.979   3.851
33434W        W 5749  22.436  42.796  12.571
33435W        W 5750  28.613  13.584  14.759
33436W        W 5751  32.118  26.648   1.705
33437W        W 5752  28.105  36.817   0.442
33438W        W 5753  21.797  21.737  14.878
33439W        W 5754   5.215  28.223  13.026
33440W        W 5755  32.036  21.204  13.417
33441W        W 5756   6.241  34.497   2.750
33442W        W 5757  15.896  10.256   4.488
33443W        W 5758   8.806  41.990   2.212
33444W        W 5759  14.954   8.519   0.741
33445W        W 5760  38.092  44.346   4.602
33446W        W 5761  35.577  16.272  14.831
33447W        W 5762  10.249  15.957  13.351
33448W        W 5763  17.270  16.233  11.025
33449W        W 5764  11.289  27.901   2.839
33450W        W 5765  42.282  20.571  11.726
33451W        W 5766   3.811  27.655   2.916
33452W        W 5767   1.968  44.395  12.632
33453W        W 5768   2.505  28.719   4.078
33454W        W 5769  13.153  40.435  12.037
33455W        W 5770   3.914  38.425   2.838
33456W        W 5771  12.210  30.560  12.471
33457W        W 5772   9.567  19.534   2.893
33458W        W 5773  24.322  32.796   1.483
33459W        W 5774  28.002   2.342   1.836
33460W        W 5775   1.252  17.457   3.552
33461W        W 5776   7.162  23.595   0.739
33462W        W 5777  33.414   7.256   3.713
33463W        W 5778  33.872  22.964   4.046
33464W        W 5779  38.319   7.455   4.287
33465W        W 5780  25.610   5.004   4.987
33466W        W 5781  41.438  31.455  13.442
33467W        W 5782  31.054  43.996   4.928
33468W        W 5783  30.078  22.058   1.515
33469W        W 5784  10.838  10.912  13.815
33470W        W 5785  22.480   8.567  11.147
33471W        W 5786  42.812   1.769   4.222
33472W        W 5787  36.545  44.514   4.891
33473W        W 5788   7.451  12.693  11.514
33474W        W 5789  27.058   3.824  12.009
33475W        W 5790  10.600  24.741   3.680
33476W        W 5791  27.164  30.071  14.531
33477W        W 5792  38.837  37.613  11.201
33478W        W 5793  20.693  39.876  12.876
33479W        W 5794  28.681   4.460   9.792
33480W        W 5795  32.966  29.883  13.932
33481W        W 5796  13.307  30.510  13.494
33482W        W 5797   6.565  10.658   0.853
33483W        W 5798  31.679  39.493  12.044
33484W        W 5799  39.378  22.333   4.148
33485W        W 5800  29.477  13.783  12.535
33486W        W 5801  20.779  11.345  10.265
33487W        W 5802  28.750  13.052   0.394
33488W        W 5803  36.474   6.113  10.744
33489W        W 5804  24.254   3.523   0.311
33490W        W 5805  33.106  43.219   4.314
33491W        W 5806   3.434  40.900   3.882
33492W        W 5807  22.306  30.861   0.731
33493W        W 5808  41.468   0.345   2.735
33494W        W 5809  22.052  31.835  11.391
33495W        W 5810  28.180  20.897   4.645
33496W        W 5811  14.135   4.202   3.784
33497W        W 5812  41.982  33.839   0.825
33498W        W 5813  38.931  21.275   5.005
33499W        W 5814  18.996  31.785   4.178
33500W        W 5815  17.380  37.030   0.397
33501W        W 5816  35.101   1.454  13.390
33502W        W 5817  12.505  18.131   4.887
33503W        W 5818   0.974   4.959  12.979
33504W        W 5819  10.716  24.642   1.981
33505W        W 5820  33.529  38.094   1.851
33506W        W 5821  22.505  23.737   0.336
33507W        W 5822  33.076  42.270   4.398
33508W        W 5823  32.913   4.736  10.570
33509W        W 5824   3.922  33.631  11.539
33510W        W 5825  30.509  26.966  11.883
33511W        W 5826   9.822  31.951  10.714
33512W        W 5827  15.992   9.754  10.170
33513W        W 5828   4.908  42.803   1.003
33514W        W 5829  14.924  23.569   0.073
33515W        W 5830   4.054  21.571   0.767
33516W        W 5831  35.001  32.992  11.831
33517W        W 5832   7.377  31.181   1.382
33518W        W 5833  31.481  15.565   1.250
33519W        W 5834  14.306  15.049   2.371
33520W        W 5835   2.919  14.336   4.819
33521W        W 5836  11.218  14.747  14.713
33522W        W 5837  30.769  10.971   1.224
33523W        W 5838  30.003  38.866  13.072
33524W        W 5839  11.624  29.632   0.295
33525W        W 5840  41.006   3.241   3.108
33526W        W 5841  21.578  24.741   4.289
33527W        W 5842  23.612  26.002  12.654
33528W        W 5843  10.325   9.154  14.756
33529W        W 5844  26.531  33.617  14.966
33530W        W 5845  41.332   0.906   1.979
33531W        W 5846  33.410  25.879   4.666
33532W        W 5847  41.371  11.716   4.751
33533W        W 5848  23.082  33.507   1.216
33534W        W 5849  35.486  10.324   3.004
33535W        W 5850  30.929  14.224  13.049
33536W        W 5851  37.994   6.347  11.870
33537W        W 5852  36.565  40.220   1.711
33538W        W 5853  41.543  14.106   4.205
33539W        W 5854  12.631  35.105   2.173
33540W        W 5855   7.755  20.032   1.426
33541W        W 5856  34.830  34.488   0.855
33542W        W 5857  38.442   4.574   0.826
33543W        W 5858  19.744   2.385   1.251
33544W        W 5859  30.931   6.441  14.744
33545W        W 5860   6.643   9.190  13.504
33546W        W 5861  19.768   9.815   0.112
33547W        W 5862   2.649   4.839   3.133
33548W        W 5863  17.068  13.691   0.976
33549W        W 5864  22.477  17.140  14.527
33550W        W 5865  24.130   4.834  14.535
33551W        W 5866  20.798  16.734  12.884
33552W        W 5867  25.653   3.972  13.268
33553W        W 5868  20.120  42.809   5.247
33554W        W 5869   8.565   2.022  13.896
33555W        W 5870  31.077  42.247  14.937
33556W        W 5871   6.045  30.650   0.827
33557W        W 5872  33.599  16.221   0.976
33558W        W 5873  12.218   4.171   0.205
33559W        W 5874  22.480   7.787  13.893
33560W        W 5875  20.703  21.538   0.525
33561W        W 5876  24.639   1.715  12.873
33562W        W 5877  38.757  36.491   3.833
33563W        W 5878  37.922  24.822   0.246
33564W        W 5879  42.532  26.126   2.295
33565W        W 5880  33.559  32.414   3.815
33566W        W 5881  37.746  26.575  10.851
33567W        W 5882  19.161  40.560   2.256
33568W        W 5883   5.871   6.690   0.308
33569W        W 5884  32.879  36.100   0.401
33570W        W 5885  11.982  23.739   3.080
33571W        W 5886  17.237   9.324   0.764
33572W        W 5887  33.655  10.509  13.487
33573W        W 5888   8.795  27.123   1.671
33574W        W 5889  36.852  39.094   2.809
33575W        W 5890  20.184   9.383   1.943
33576W        W 5891   5.709  42.252   4.229
33577W        W 5892  13.538   0.559   4.963
33578W        W 5893   4.317   2.497   4.769
33579W        W 5894   1.815  25.087  12.089
33580W        W 5895   9.780  29.142  10.624
33581W        W 5896  10.748  25.209   1.129
33582W        W 5897   6.358  39.038   4.123
33583W        W 5898   2.697  33.961  14.422
33584W        W 5899  14.357   5.876   1.387
33585W        W 5900  12.632   0.376  12.004
33586W        W 5901  42.928  20.938   0.828
33587W        W 5902  21.516  11.353   1.807
33588W        W 5903  26.059   3.528  14.796
33589W        W 5904   2.944   5.395   3.763
33590W        W 5905   0.194  41.327  13.760
33591W        W 5906   1.217  38.575  12.935
33592W        W 5907  31.411  27.448  13.991
33593W        W 5908  26.623  36.773   3.738
33594W        W 5909  27.660  24.588   0.547
33595W        W 5910   6.196  28.683   0.704
33596W        W 5911  17.177  15.992  10.587
33597W        W 5912  32.722  44.944   1.807
33598W        W 5913  36.405  25.588  13.956
33599W        W 5914  12.617  16.586  14.432
33600W        W 5915  34.910   4.804   5.109
33601W        W 5916  39.487   5.718   1.392
33602W        W 5917   5.830  25.227   4.629
33603W        W 5918  37.543  30.984   2.234
33604W        W 5919  16.246   8.504  14.022
33605W        W 5920  20.406  43.058  11.555
33606W        W 5921  37.882  10.835  13.327
33607W        W 5922   5.873  42.713   3.573
33608W        W 5923   6.218  10.787  13.846
33609W        W 5924  18.015  38.492  11.140
33610W        W 5925  30.517  31.133   4.391
33611W        W 5926  37.935   3.014  11.220
33612W        W 5927  28.687  41.481   4.003
33613W        W 5928  38.322  24.528  14.444
33614W        W 5929   9.195   8.221  10.582
33615W        W 5930  42.281  12.531  14.848
33616W        W 5931  44.185  12.611   3.745
33617W        W 5932  15.247  22.523   3.539
33618W        W 5933  26.039   6.001   0.756
33619W        W 5934   8.209   1.440  14.576
33620W        W 5935  18.558   6.638   1.390
33621W        W 5936  20.279  44.996  11.510
33622W        W 5937  44.815  36.217  13.110
33623W        W 5938  36.616  39.484   4.571
33624W        W 5939  24.193  33.517  12.866
33625W        W 5940  10.402  44.771  14.351
33626W        W 5941  38.323   6.748  11.727
33627W        W 5942   1.030  37.636   4.229
33628W        W 5943  30.572  16.044  13.251
33629W        W 5944   6.141  33.498   1.558
33630W        W 5945  27.091  11.824  13.289
33631W        W 5946  41.089   8.707   1.447
33632W        W 5947   1.883  31.785  14.102
33633W        W 5948  19.353  28.230  11.083
33634W        W 5949  14.659  40.993  11.647
33635W        W 5950  35.101   9.712   4.058
33636W        W 5951  33.804  28.548  11.229
33637W        W 5952  25.469  21.950  12.572
33638W        W 5953   6.389   4.314   3.476
33639W        W 5954  41.276  30.732  12.537
33640W        W 5955  19.264  12.583   0.410
33641W        W 5956  37.615   1.898   4.096
33642W        W 5957  29.258  42.317   3.333
33643W        W 5958  23.633   0.978  10.760
33644W        W 5959  27.256  19.255   0.929
33645W        W 5960  19.174  44.532   2.817
33646W        W 5961  41.883  31.064  11.116
33647W        W 5962  25.231   4.888  13.969
33648W        W 5963  27.638  36.937  11.486
33649W        W 5964  33.791   8.486   4.232
33650W        W 5965   7.683  26.184  11.498
33651W        W 5966  15.556  36.397   0.431
33652W        W 5967  19.743  34.319  12.532
33653W        W 5968   5.526  32.877   0.354
33654W        W 5969  22.790  18.875   2.585
33655W        W 5970  38.519   8.484   3.089
33656W        W 5971  15.792  40.993  14.793
33657W        W 5972  10.159  28.138   0.076
33658W        W 5973  34.298  22.516  14.780
33659W        W 5974  25.759  31.728   0.585
33660W        W 5975  39.999  34.108   4.224
33661W        W 5976   8.348  42.036   0.830
33662W        W 5977   0.912  38.115   0.111
33663W        W 5978   4.322  36.373  11.697
33664W        W 5979  22.558  32.426   3.223
33665W        W 5980  18.745  41.006   0.045
33666W        W 5981  19.654  16.920  11.440
33667W        W 5982  14.835  14.183   0.863
33668W        W 5983   1.210  14.367   5.081
33669W        W 5984  41.082  44.147  14.408
33670W        W 5985  32.121   5.369  14.339
33671W        W 5986  15.554   7.374   1.821
33672W        W 5987  17.856  26.112  11.640
33673W        W 5988  28.319  38.806  12.465
33674W        W 5989   1.524  13.027  11.054
33675W        W 5990   8.960  21.631  14.417
33676W        W 5991  11.813  32.938   0.239
33677W        W 5992   0.030  29.512   2.673
33678W        W 5993  26.494  37.735   2.171
33679W        W 5994  41.532   1.452  10.995
33680W        W 5995  38.194  39.838  13.510
33681W        W 5996   0.501   1.368  12.099
33682W        W 5997  18.272  20.207  11.854
33683W        W 5998  19.760   3.433   0.304
33684W        W 5999   3.518   4.379   2.217
33685W        W 6000   1.928  20.698  13.200
33686W        W 6001   3.781   1.795  12.579
33687W        W 6002  30.212  18.098   3.085
33688W        W 6003  25.480  33.372  11.640
33689W        W 6004   4.706  36.839   3.327
33690W        W 6005  20.113  27.507   4.450
33691W        W 6006  14.735  44.064  14.025
33692W        W 6007   6.606  22.609   4.588
33693W        W 6008  20.746  10.776  12.094
33694W        W 6009  23.269  16.276   0.305
33695W        W 6010  35.801   5.634   0.896
33696W        W 6011  12.867  20.939   1.206
33697W        W 6012  20.718  16.208   2.714
33698W        W 6013  23.879  24.514   2.678
33699W        W 6014  11.053  28.111  13.236
33700W        W 6015   9.276  44.484   1.295
33701W        W 6016  19.198  17.747  11.823
33702W        W 6017  36.902   2.688   2.382
33703W        W 6018  17.668  16.843  11.986
33704W        W 6019  16.733   8.349  12.423
33705W        W 6020  25.133  37.552   2.556
33706W        W 6021  11.349  27.092   0.444
33707W        W 6022  34.342  21.126   1.723
33708W        W 6023   9.671  17.529   1.851
33709W        W 6024  37.095  25.808   0.345
33710W        W 6025  23.972  39.798   1.358
33711W        W 6026  26.388  19.714  10.292
33712W        W 6027  15.535  12.180   4.179
33713W        W 6028   5.632  29.420   3.920
33714W        W 6029   4.762  38.687  12.921
33715W        W 6030  19.518  17.830   3.820
33716W        W 6031   3.706   0.339  14.811
33717W        W 6032  21.587   7.760   4.341
33718W        W 6033  32.520  11.350  13.047
33719W        W 6034  22.498   8.661  12.470
33720W        W 6035  13.341   3.954  10.781
33721W        W 6036  36.593   2.288  14.382
33722W        W 6037  35.322  22.448   1.447
33723W        W 6038  25.144  20.201  13.352
33724W        W 6039  36.345  40.276   4.176
33725W        W 6040  31.340  29.661   3.617
33726W        W 6041   3.714  30.589  14.751
33727W        W 6042   1.720  13.574  14.412
33728W        W 6043  35.886  27.871  13.877
33729W        W 6044  28.025  35.535   0.688
33730W        W 6045  34.852   3.154   2.840
33731W        W 6046   8.363  27.467   0.358
33732W        W 6047  11.601   4.677  11.080
33733W        W 6048  16.186  22.457  10.481
33734W        W 6049  24.602   3.271   2.795
33735W        W 6050  16.667  24.001  12.084
33736W        W 6051   7.431  24.473  10.799
33737W        W 6052  32.954  42.427   0.292
33738W        W 6053   8.268  26.049  10.779
33739W        W 6054  18.223  27.507  14.236
33740W        W 6055  22.102  21.022   5.486
33741W        W 6056  41.699   6.053   1.802
33742W        W 6057   1.724  11.523   3.648
33743W        W 6058  27.404  19.016   1.398
33744W        W 6059  18.340   3.822  14.983
33745W        W 6060  41.929  44.997   3.670
33746W        W 6061  28.611  35.450   0.427
33747W        W 6062  13.557   8.351   0.919
33748W        W 6063  16.520  34.203   1.435
33749W        W 6064  20.682  14.778   3.507
33750W        W 6065   0.020  14.054   4.140
33751W        W 6066   8.260   8.483   3.366
33752W        W 6067  30.837  44.535  13.855
33753W        W 6068  44.460  44.599   4.107
33754W        W 6069   5.620   7.893   2.174
33755W        W 6070   1.968  42.487   4.049
33756W        W 6071  27.124  33.135  14.378
33757W        W 6072  41.365  38.685  12.432
33758W        W 6073  28.592  43.962  13.651
33759W        W 6074  12.889   8.636   2.730
33760W        W 6075  37.469   3.140   0.284
33761W        W 6076   4.597  15.717  12.551
33762W        W 6077  16.124  27.453   4.618
33763W        W 6078  37.776  39.315  12.428
33764W        W 6079  14.178  39.003  10.436
33765W        W 6080   8.626  10.182   0.853
33766W        W 6081  19.091   5.483  12.781
33767W        W 6082   9.840  27.103  13.518
33768W        W 6083  14.680  12.898  11.408
33769W        W 6084  18.470   9.390   1.953
33770W        W 6085  20.241   0.571   4.753
33771W        W 6086  43.925  44.786   0.982
33772W        W 6087   8.651  28.567   0.736
33773W        W 6088  40.349  18.231   4.522
33774W        W 6089  32.391  13.002  13.311
33775W        W 6090  40.497  35.869   4.266
33776W        W 6091  30.082  13.896   1.330
33777W        W 6092  37.114   5.301   1.459
33778W        W 6093  10.368  29.140  13.507
33779W        W 6094  19.122  14.101  12.869
33780W        W 6095  14.668  21.554   4.160
33781W        W 6096   0.350  31.742   3.066
33782W        W 6097  10.878  38.287   4.735
33783W        W 6098  14.589  41.924  10.648
33784W        W 6099  25.447  16.077   4.298
33785W        W 6100  40.737  27.393  13.564
33786W        W 6101  35.935  30.086  11.372
33787W        W 6102  16.176  43.227   0.021
33788W        W 6103  43.913  13.722  10.410
33789W        W 6104   0.737  33.001   5.034
33790W        W 6105  16.073   5.154  14.604
33791W        W 6106  10.857  23.074   3.218
33792W        W 6107  26.941  27.752   1.455
33793W        W 6108  11.651   8.725   0.821
33794W        W 6109   5.159  42.360   1.183
33795W        W 6110  22.533   5.303  12.821
33796W        W 6111  19.136  22.264  13.083
33797W        W 6112  12.033  29.609  13.952
33798W        W 6113  21.618  18.339  11.796
33799W        W 6114  28.172  25.949  14.652
33800W        W 6115  22.625  14.285  13.533
33801W        W 6116  39.879  36.634  11.679
33802W        W 6117   9.846  14.757  14.590
33803W        W 6118  27.747  34.771   4.132
33804W        W 6119   0.908  35.951   3.201
33805W        W 6120  24.676  10.547   4.601
33806W        W 6121  17.155  37.412   1.033
33807W        W 6122  39.538  24.006   4.479
33808W        W 6123   3.157  30.739  13.497
33809W        W 6124   9.727  37.814   2.932
33810W        W 6125  14.598  26.013  13.454
33811W        W 6126  15.214  26.562  11.894
33812W        W 6127  36.979   7.206   2.219
33813W        W 6128  39.023   0.004   4.558
33814W        W 6129  37.987  42.438   1.827
33815W        W 6130  32.914   5.960   4.069
33816W        W 6131  32.911  14.185   2.180
33817W        W 6132  17.501   1.508  12.471
33818W        W 6133  19.873  25.432  11.010
33819W        W 6134  44.019  27.978   3.782
33820W        W 6135  22.258  26.158  14.349
33821W        W 6136  23.228  18.197   1.842
33822W        W 6137  38.991  38.951  12.334
33823W        W 6138  11.545   0.276  13.306
33824W        W 6139   9.145   3.956   0.024
33825W        W 6140  13.731  14.505   1.519
33826W        W 6141  14.784  40.764   2.836
33827W        W 6142  25.153  20.305   5.575
33828W        W 6143  17.213  13.860  13.490
33829W        W 6144  13.829  35.892   1.813
33830W        W 6145   8.567  19.407   2.185
33831W        W 6146  24.660  13.394  12.164
33832W        W 6147  26.292   1.579  13.956
33833W        W 6148  43.496  37.025   4.519
33834W        W 6149  24.064  16.086  11.575
33835W        W 6150   0.842   3.016   1.405
33836W        W 6151  36.679   5.453   4.540
33837W        W 6152  43.319   7.253  12.969
33838W        W 6153  16.249  26.032  14.832
33839W        W 6154  29.960  21.164   2.747
33840W        W 6155  44.043  34.746  11.045
33841W        W 6156   5.195  33.674  14.283
33842W        W 6157   5.116  20.970  13.360
33843W        W 6158  39.898  22.976  12.932
33844W        W 6159  13.223  42.026   3.407
33845W        W 6160  14.452  15.339  11.912
33846W        W 6161  17.319  42.198  12.435
33847W        W 6162  34.599  11.835  10.669
33848W        W 6163  22.647   4.927   1.738
33849W        W 6164  21.385  25.133   3.573
33850W        W 6165  30.954  25.487   4.072
33851W        W 6166   0.455  40.275  12.938
33852W        W 6167   8.605   9.165  14.368
33853W        W 6168   3.029  38.096  13.021
33854W        W 6169  28.956  33.535   2.408
33855W        W 6170  12.881  17.726   4.902
33856W        W 6171  36.968  41.953   0.232
33857W        W 6172  15.972   2.839  12.466
33858W        W 6173  16.117  25.607  14.394
33859W        W 6174   0.875   0.915   4.892
33860W        W 6175  30.131  31.437   0.751
33861W        W 6176  21.709   2.927   1.769
33862W        W 6177  42.268   3.451  10.405
33863W        W 6178  25.121  43.686   3.848
33864W        W 6179  38.460  36.310   0.625
33865W        W 6180   5.275  17.174   1.153
33866W        W 6181  40.421  27.368  14.764
33867W        W 6182  29.148   0.829  10.670
33868W        W 6183   1.159  27.433  11.803
33869W        W 6184  10.070   4.657   0.934
33870W        W 6185  34.132  35.072  10.779
33871W        W 6186  34.062  33.666  10.395
33872W        W 6187  36.101  36.868   4.743
33873W        W 6188  38.821  28.109   1.026
33874W        W 6189   4.859  28.675  11.977
33875W        W 6190  15.119  20.645  13.752
33876W        W 6191   6.898  32.321   0.249
33877W        W 6192   0.444  33.588  12.856
33878W        W 6193  28.488   8.863   5.050
33879W        W 6194  21.438   2.904   3.712
33880W        W 6195  44.909  21.714  13.282
33881W        W 6196  43.528  17.595  13.333
33882W        W 6197  26.344  41.496  13.043
33883W        W 6198  30.942  15.595  14.004
33884W        W 6199  12.626  15.115  10.439
33885W        W 6200  26.946   1.335   1.382
33886W        W 6201  24.225  44.277  11.428
33887W        W 6202  22.789   3.354   1.303
33888W        W 6203  34.324  23.023   4.360
33889W        W 6204  24.507  31.544   1.829
33890W        W 6205  42.350  28.621   2.727
33891W        W 6206  25.986  20.265  14.424
33892W        W 6207  24.473  11.115  12.454
33893W        W 6208   9.767  39.020   0.950
33894W        W 6209   9.348  37.832  10.636
33895W        W 6210   4.326  40.848  12.404
33896W        W 6211   9.161  36.952   2.441
33897W        W 6212   1.008  24.597  11.141
33898W        W 6213   5.655  33.581   0.871
33899W        W 6214  33.851   5.430   1.699
33900W        W 6215   8.620  13.166  14.840
33901W        W 6216  37.409  10.191   5.442
33902W        W 6217  11.820   6.656  13.761
33903W        W 6218  38.843  35.257   0.856
33904W        W 6219  21.508  23.140  10.872
33905W        W 6220  40.484  37.432   0.231
33906W        W 6221  29.985  12.527   0.932
33907W        W 6222  16.739  13.297   4.491
33908W        W 6223  14.448  32.615  12.135
33909W        W 6224  30.960  10.871   3.820
33910W        W 6225  44.410  18.128   1.791
33911W        W 6226   7.921  28.050   0.790
33912W        W 6227  21.686   2.012   4.110
33913W        W 6228  42.988  17.793   1.222
33914W        W 6229  25.745  19.118   0.836
33915W        W 6230   7.804  35.175  12.896
33916W        W 6231  26.897  13.119   1.531
33917W        W 6232   5.718  28.063  13.053
33918W        W 6233  26.624   2.441   5.201
33919W        W 6234  23.899  36.949   1.301
33920W        W 6235   5.241  27.941  13.465
33921W        W 6236  37.837  31.387  13.944
33922W        W 6237   6.501  43.118   2.123
33923W        W 6238  44.078  31.098  13.956
33924W        W 6239  16.004   4.829   2.862
33925W        W 6240  40.640   3.425  11.949
33926W        W 6241  39.879  18.188   0.081
33927W        W 6242  23.309   6.097   1.700
33928W        W 6243  12.618   1.821   1.237
33929W        W 6244   6.435  15.145   0.847
33930W        W 6245  17.120   1.437  10.478
33931W        W 6246  15.070   1.792   3.339
33932W        W 6247   4.952  24.256   3.811
33933W        W 6248  13.016  29.821   0.712
33934W        W 6249  40.008   1.501  12.421
33935W        W 6250   9.913  23.398   2.417
33936W        W 6251  22.175   9.704   4.560
33937W        W 6252  40.465  13.935  10.772
33938W        W 6253  19.944   6.178   1.123
33939W        W 6254  31.410  20.843   4.109
33940W        W 6255   4.831  12.900  14.444
33941W        W 6256  44.530   6.698   5.161
33942W        W 6257  17.077  22.705   3.088
33943W        W 6258   4.247  40.605  13.872
33944W        W 6259  42.808  40.988  11.075
33945W        W 6260  26.161   2.537   3.932
33946W        W 6261  10.331   7.137   0.936
33947W        W 6262  21.661  37.265   1.391
33948W        W 6263  17.829  34.361  14.251
33949W        W 6264  44.986  39.402  10.950
33950W        W 6265  38.970  31.661  11.079
33951W        W 6266  22.968  40.769   3.017
33952W        W 6267  28.371  39.706  14.900
33953W        W 6268  11.831  21.226   4.174
33954W        W 6269  37.616  16.849   3.196
33955W        W 6270   3.446  26.402  11.934
33956W        W 6271  32.828   9.577  11.505
33957W        W 6272   7.869  34.503   3.127
33958W        W 6273  25.964  43.727   1.398
33959W        W 6274  13.929  30.114  12.491
33960W        W 6275  40.925  40.269   3.181
33961W        W 6276   0.742  34.626  11.938
33962W        W 6277  44.119  33.270  10.188
33963W        W 6278  16.669  17.141   0.833
33964W        W 6279  35.517  13.642   2.196
33965W        W 6280  24.936  36.240  13.283
33966W        W 6281   5.644  31.508   3.428
33967W        W 6282  39.042   8.217  13.405
33968W        W 6283  17.160  27.542   1.005
33969W        W 6284  13.329  24.707  13.414
33970W        W 6285  26.481  20.103  14.369
33971W        W 6286  11.348  13.398  13.520
33972W        W 6287   8.940  22.375   4.578
33973W        W 6288  19.529  41.205  11.929
33974W        W 6289   0.799   4.960  14.407
33975W        W 6290  20.102  25.460  14.137
33976W        W 6291  41.024  29.915   1.852
33977W        W 6292  41.366  38.832   1.252
33978W        W 6293  43.386  38.525  14.813
33979W        W 6294   4.395  30.690  13.368
33980W        W 6295  26.788   8.059  11.236
33981W        W 6296  36.018  39.001   1.398
33982W        W 6297  41.853  35.837  13.205
33983W        W 6298  24.004  26.980   4.590
33984W        W 6299  21.729   0.937   1.001
33985W        W 6300  13.803  15.096   2.190
33986W        W 6301   5.593   5.926  12.605
33987W        W 6302  18.682  30.000   4.337
33988W        W 6303  17.698  38.702   0.117
33989W        W 6304   3.528  13.677   4.900
33990W        W 6305  30.576  22.804   3.057
33991W        W 6306  33.570  29.066  12.867
33992W        W 6307   9.732  19.621  12.004
33993W        W 6308  37.485  19.322   2.644
33994W        W 6309   3.391  42.805  11.179
33995W        W 6310  32.044  27.942  11.700
33996W        W 6311  35.115  27.516   1.697
33997W        W 6312  28.590  26.130  13.821
33998W        W 6313   7.545  11.748   1.868
33999W        W 6314  13.137  33.928  11.916
34000W        W 6315  36.070   6.176   2.636
34001W        W 6316   3.874  31.360  13.730
34002W        W 6317   3.362   5.956  10.344
34003W        W 6318  25.103  27.674  12.466
34004W        W 6319   7.276  25.579   2.987
34005W        W 6320  18.186  28.051  10.504
34006W        W 6321  28.667   6.566   2.907
34007W        W 6322  37.835  34.145  10.635
34008W        W 6323  28.465  34.809  13.835
34009W        W 6324  33.469  42.582   4.247
34010W        W 6325  41.358  15.663  11.669
34011W        W 6326  14.863  39.487  10.702
34012W        W 6327  15.645  26.629   0.074
34013W        W 6328   8.777  17.795  10.763
34014W        W 6329   7.871  37.546   2.260
34015W        W 6330  21.678  21.455   4.154
34016W        W 6331   2.488   5.947   1.772
34017W        W 6332   3.725  26.446  10.608
34018W        W 6333  10.730  35.681   2.028
34019W        W 6334  30.446  38.309  13.878
34020W        W 6335  27.059  43.062  11.524
34021W        W 6336  36.391   0.910   3.578
34022W        W 6337   0.193  37.550   1.794
34023W        W 6338   3.959  38.514  14.580
34024W        W 6339  35.803  37.013   1.457
34025W        W 6340  15.618  33.848  13.134
34026W        W 6341  27.119  17.705  13.677
34027W        W 6342  38.740  26.329   4.633
34028W        W 6343  40.347  10.104   4.651
34029W        W 6344  31.676  33.833   3.742
34030W        W 6345   3.826   3.281  14.363
34031W        W 6346  42.828  24.980   1.810
34032W        W 6347  13.664  12.782  14.559
34033W        W 6348  18.566  35.789  14.534
34034W        W 6349  40.933  36.272  13.450
34035W        W 6350  28.211   5.684   0.222
34036W        W 6351  41.041   7.159   1.647
34037W        W 6352  43.067  23.654  11.121
34038W        W 6353  22.943  19.946  12.001
34039W        W 6354   2.335  26.926   0.317
34040W        W 6355  28.204   8.284   2.707
34041W        W 6356  23.205  26.704   4.548
34042W        W 6357   6.045  21.102  14.292
34043W        W 6358  24.652  24.690  11.223
34044W        W 6359   0.292  18.605   3.633
34045W        W 6360   6.620   9.711   2.191
34046W        W 6361  32.825  34.868  12.827
34047W        W 6362  27.619  32.869  14.277
34048W        W 6363   8.902  16.024  13.509
34049W        W 6364  11.097  25.094  14.062
34050W        W 6365  37.882  19.873  10.968
34051W        W 6366  10.529  21.264   4.099
34052W        W 6367   1.778  36.479   0.815
34053W        W 6368  25.693  32.929  14.552
34054W        W 6369  17.080  21.736  14.766
34055W        W 6370  29.597  15.051  11.132
34056W        W 6371  32.097  20.905   4.549
34057W        W 6372  37.285  43.904   4.598
34058W        W 6373  20.603  42.746  12.506
34059W        W 6374  38.606  39.214  14.948
34060W        W 6375  16.619  20.676  11.965
34061W        W 6376   6.856  41.309  14.713
34062W        W 6377  13.718  36.806   4.345
34063W        W 6378  32.168  26.432   5.005
34064W        W 6379  26.985  24.766  12.471
34065W        W 6380   6.496  23.858   0.223
34066W        W 6381  44.309  14.235  10.169
34067W        W 6382  13.647  33.143   3.726
34068W        W 6383  12.766  20.015  13.974
34069W        W 6384  26.925  43.287  11.060
34070W        W 6385   4.461   7.649  13.090
34071W        W 6386  18.709  42.520  12.566
34072W        W 6387  17.011  11.978   0.134
34073W        W 6388  14.088  39.911  10.674
34074W        W 6389  41.448   3.340   1.739
34075W        W 6390  25.385  20.243   4.690
34076W        W 6391  38.838  32.776  13.178
34077W        W 6392  36.304  35.927  10.735
34078W        W 6393  25.904  26.508   0.476
34079W        W 6394  14.262   4.999   0.462
34080W        W 6395   8.120  17.726  12.920
34081W        W 6396  38.441  25.835   1.294
34082W        W 6397  43.973   1.169  11.871
34083W        W 6398  32.509  25.474   1.891
34084W        W 6399   7.339  40.546   2.775
34085W        W 6400   3.387   0.614   1.180
34086W        W 6401  31.604  15.865  12.433
34087W        W 6402   5.406  15.795   9.950
34088W        W 6403  28.573  13.387   2.634
34089W        W 6404  21.047  21.014  12.364
34090W        W 6405  41.957   3.323   3.416
34091W        W 6406  27.231  12.356  14.520
34092W        W 6407  26.918   3.527   5.530
34093W        W 6408  24.086  39.268  14.101
34094W        W 6409   8.471  22.191   4.461
34095W        W 6410  25.215  42.867  12.539
34096W        W 6411  13.054  34.133   3.268
34097W        W 6412  30.333  39.068  10.846
34098W        W 6413  25.765  33.013  10.844
34099W        W 6414  12.136  24.699   2.803
34100W        W 6415   0.524  44.217  10.735
34101W        W 6416   7.787  23.378   2.575
34102W        W 6417  14.229  41.864  13.254
34103W        W 6418  26.909  26.559  11.659
34104W        W 6419  12.090   8.181   3.854
34105W        W 6420   2.511  32.971  12.614
34106W        W 6421  18.076  18.481   4.260
34107W        W 6422  14.175  34.393   3.656
34108W        W 6423  21.040  16.590  14.892
34109W        W 6424  32.581  12.815  14.920
34110W        W 6425  13.712  19.810  14.306
34111W        W 6426  29.166  15.501   5.057
34112W        W 6427  29.910  34.521   2.163
34113W        W 6428   5.520  18.231   4.762
34114W        W 6429  13.686   2.742  12.910
34115W        W 6430  22.304  17.434   4.559
34116W        W 6431  37.292  17.826  14.406
34117W        W 6432   2.737  44.405   1.768
34118W        W 6433  32.447  35.053  13.761
34119W        W 6434  40.021  28.053  12.473
34120W        W 6435  17.806  15.481   2.925
34121W        W 6436  33.880  15.853  14.029
34122W        W 6437  29.131  42.702   3.711
34123W        W 6438   6.284  34.636   0.374
34124W        W 6439  43.521  38.003   1.614
34125W        W 6440  29.450  20.139   2.296
34126W        W 6441  32.427  11.653   0.385
34127W        W 6442  21.507  28.546  13.004
34128W        W 6443  36.555  32.968   2.929
34129W        W 6444  26.562  13.861  10.991
34130W        W 6445  25.195  19.072  11.148
34131W        W 6446  35.882  43.461  11.577
34132W        W 6447   0.841  17.543   0.550
34133W        W 6448  39.437  38.926   3.233
34134W        W 6449   6.121  25.243   1.590
34135W        W 6450   7.648  42.961  14.794
34136W        W 6451  29.836  32.134  10.650
34137W        W 6452  42.671  19.719  10.452
34138W        W 6453  17.623  18.135  14.101
34139W        W 6454  29.504   4.216   5.103
34140W        W 6455  22.018  29.403  14.911
34141W        W 6456  22.117  24.189  12.568
34142W        W 6457  15.113  24.538   0.258
34143W        W 6458   4.546   0.635  10.501
34144W        W 6459  33.880  37.137   0.801
34145W        W 6460  41.144  42.344   1.954
34146W        W 6461   5.316  34.099   2.224
34147W        W 6462   2.359  23.100  14.660
34148W        W 6463   0.441  32.246   0.655
34149W        W 6464  11.714  13.625  10.586
34150W        W 6465  38.234   3.788   3.431
34151W        W 6466  42.375  11.813  11.810
34152W        W 6467  44.364   6.222  10.561
34153W        W 6468   8.801  38.420  13.517
34154W        W 6469  13.423  39.258   0.644
34155W        W 6470  10.868  18.998   1.769
34156W        W 6471  29.924   4.226  11.450
34157W        W 6472   6.708  42.826   3.073
34158W        W 6473   4.742  31.592  14.893
34159W        W 6474  20.879   1.092  14.262
34160W        W 6475  13.571  20.647  12.495
34161W        W 6476  36.309  17.583  12.973
34162W        W 6477  31.623  29.532   1.492
34163W        W 6478   3.508  37.359   0.186
34164W        W 6479  41.363  11.897  10.484
34165W        W 6480   7.474   4.074  13.378
34166W        W 6481   6.130   0.713  12.565
34167W        W 6482   0.508  31.461  12.077
34168W        W 6483  10.836  27.291   1.154
34169W        W 6484  20.306  25.761  12.451
34170W        W 6485   0.578   7.631  14.988
34171W        W 6486  30.138  39.157  12.105
34172W        W 6487  10.793  22.925  10.926
34173W        W 6488  23.468  13.349   3.190
34174W        W 6489  38.126   0.715  13.544
34175W        W 6490  28.101  10.782  12.897
34176W        W 6491  23.094   9.596   0.253
34177W        W 6492  24.475  24.889   4.134
34178W        W 6493  23.010  16.740   0.290
34179W        W 6494  24.576  14.443   2.337
34180W        W 6495   8.258  26.509  11.541
34181W        W 6496   1.444   2.469  13.431
34182W        W 6497   7.602  31.374   3.707
34183W        W 6498  38.498  13.098  13.507
34184W        W 6499  37.383  26.585   2.229
34185W        W 6500  36.398  25.551  12.681
34186W        W 6501  41.946   9.700   1.173
34187W        W 6502  37.410  43.708   3.219
34188W        W 6503  19.146  10.168  10.254
34189W        W 6504  32.620  10.123  10.244
34190W        W 6505   4.766   2.165   2.135
34191W        W 6506  16.316  11.781  12.123
34192W        W 6507  38.866  41.268   4.134
34193W        W 6508  35.008  34.002  10.824
34194W        W 6509  22.267  30.964  13.497
34195W        W 6510  25.944  42.283  12.445
34196W        W 6511   8.842  24.123  11.613
34197W        W 6512  44.336  30.359   0.922
34198W        W 6513  28.480   0.230  10.506
34199W        W 6514  44.290   0.821  14.825
34200W        W 6515  12.688  21.365  13.090
34201W        W 6516  16.775   4.674   2.481
34202W        W 6517  41.999  43.936   0.304
34203W        W 6518   5.744  21.138   4.252
34204W        W 6519   7.390  11.633   3.231
34205W        W 6520  30.188   8.312   2.901
34206W        W 6521  23.970   5.736   3.590
34207W        W 6522  28.829   1.680  11.590
34208W        W 6523  41.368  15.751  10.791
34209W        W 6524  12.365   1.465  14.041
34210W        W 6525  21.182  28.381   3.258
34211W        W 6526   2.804  32.660  13.827
34212W        W 6527  33.606   3.106   0.644
34213W        W 6528  26.152  36.583   4.152
34214W        W 6529  30.969  25.011   1.755
34215W        W 6530  32.993  44.991   4.747
34216W        W 6531  29.711  29.875   2.983
34217W        W 6532   8.446   8.398   4.173
34218W        W 6533  37.007  19.505  12.489
34219W        W 6534   0.342   6.146  13.257
34220W        W 6535  39.301   7.700  13.529
34221W        W 6536   5.900  10.939  12.865
34222W        W 6537  16.802   7.371   1.479
34223W        W 6538  39.933  19.768   1.928
34224W        W 6539  34.036  38.471  11.932
34225W        W 6540   5.170  11.761   0.406
34226W        W 6541  10.081  30.723  10.241
34227W        W 6542  40.754  42.963   1.285
34228W        W 6543  27.987   9.639   1.464
34229W        W 6544   4.166  41.532  13.970
34230W        W 6545  11.382   5.054   3.419
34231W        W 6546  12.158  25.219  11.043
34232W        W 6547  20.201  14.759   1.979
34233W        W 6548   0.897  39.898  11.374
34234W        W 6549  11.790   2.535  12.168
34235W        W 6550   5.462   9.313   1.612
34236W        W 6551  44.992  43.789   4.997
34237W        W 6552   5.422  35.330   3.282
34238W        W 6553  17.284  39.939  14.997
34239W        W 6554  13.932  21.137   5.070
34240W        W 6555  29.910  36.374  14.409
34241W        W 6556  29.719   4.844   0.137
34242W        W 6557  42.744  15.188  10.434
34243W        W 6558   1.828  13.384  12.984
34244W        W 6559  33.927  18.816   4.055
34245W        W 6560   2.421  42.673  11.063
34246W        W 6561  39.799  22.174   3.348
34247W        W 6562  34.476   8.423   1.413
34248W        W 6563  42.141  20.697  13.724
34249W        W 6564  38.823   2.322  11.839
34250W        W 6565  15.439  26.146   0.257
34251W        W 6566  15.236  17.549   0.232
34252W        W 6567  40.577  21.838   1.908
34253W        W 6568  20.114  39.481  13.452
34254W        W 6569  28.952   9.672  14.718
34255W        W 6570   5.489  23.072   1.008
34256W        W 6571  22.991  38.133  14.874
34257W        W 6572  33.558  22.230  11.618
34258W        W 6573  20.257  34.052  10.771
34259W        W 6574  32.649  17.182  13.725
34260W        W 6575  30.890  34.378  11.441
34261W        W 6576  32.884  30.149   2.669
34262W        W 6577  14.336  35.111  14.616
34263W        W 6578  36.131  18.032   4.164
34264W        W 6579  16.208   2.534   3.748
34265W        W 6580  19.789   9.781  12.132
34266W        W 6581  31.526  19.611   0.788
34267W        W 6582   1.235  35.415  13.810
34268W        W 6583   8.948   7.274   0.844
34269W        W 6584  19.045  32.492   2.814
34270W        W 6585   3.984   4.775  12.466
34271W        W 6586  17.143  25.740   0.532
34272W        W 6587  25.549   9.303  11.107
34273W        W 6588  37.007   9.482  11.587
34274W        W 6589  31.457  22.364  12.527
34275W        W 6590  28.628   8.351  14.031
34276W        W 6591  20.749  21.316  10.998
34277W        W 6592  26.640   1.165  11.627
34278W        W 6593  31.669  35.866   4.554
34279W        W 6594  29.176  16.383  12.040
34280W        W 6595  37.199  21.063  11.461
34281W        W 6596  12.772  35.023  12.147
34282W        W 6597  19.706  13.169  12.477
34283W        W 6598   3.761   3.478   2.298
34284W        W 6599   8.805  24.965   4.539
34285W        W 6600  39.949  24.938   1.864
34286W        W 6601  28.664  30.593   3.769
34287W        W 6602  33.665   8.539   3.151
34288W        W 6603   1.504  16.543   2.331
34289W        W 6604  24.501  21.565   4.684
34290W        W 6605  13.405  39.848  13.784
34291W        W 6606  29.925  27.989   4.898
34292W        W 6607   8.736  27.587   4.159
34293W        W 6608  35.579  35.977  14.413
34294W        W 6609  13.055  37.976   0.772
34295W        W 6610  23.052  21.362  13.493
34296W        W 6611  42.908   6.499   2.497
34297W        W 6612  42.904  15.192   2.625
34298W        W 6613   2.841  20.366   2.253
34299W        W 6614  10.363   9.302  12.928
34300W        W 6615   3.430  36.480   4.503
34301W        W 6616  23.123  35.606   0.539
34302W        W 6617  43.782  40.111  14.504
34303W        W 6618   7.522  23.300   1.808
34304W        W 6619  22.278   1.347   4.099
34305W        W 6620  18.698  43.695  13.060
34306W        W 6621  26.726  40.010  12.199
34307W        W 6622   7.975   0.391  11.151
34308W        W 6623  44.894  23.897  14.203
34309W        W 6624  30.218  28.954   0.829
34310W        W 6625  19.635  36.764  12.894
34311W        W 6626  30.607  29.264   2.915
34312W        W 6627   0.236  30.579  11.104
34313W        W 6628   6.860  13.685  11.364
34314W        W 6629  13.374  24.990  11.658
34315W        W 6630  44.305  33.150  10.666
34316W        W 6631  39.317   3.748  12.640
34317W        W 6632  42.231  11.225   1.411
34318W        W 6633  10.252  11.443   1.653
34319W        W 6634  21.015  28.704  11.079
34320W        W 6635  32.877  44.556  12.942
34321W        W 6636  14.467  16.502   2.148
34322W        W 6637  14.221   6.902   4.263
34323W        W 6638  15.350  25.737  11.195
34324W        W 6639  44.359  29.495   4.706
34325W        W 6640  28.501   8.216   1.977
34326W        W 6641  10.741  15.699   1.976
34327W        W 6642   4.131  18.194  13.845
34328W        W 6643   5.691   2.621   4.196
34329W        W 6644  21.810  36.763   2.706
34330W        W 6645  20.310  39.366   2.278
34331W        W 6646  25.995   2.494  10.896
34332W        W 6647   7.727   3.887  12.044
34333W        W 6648   6.951   3.346  14.037
34334W        W 6649  38.330  22.198  11.059
34335W        W 6650  28.701  41.706  13.880
34336W        W 6651   5.495  10.987  13.428
34337W        W 6652  38.336  18.993   1.208
34338W        W 6653  37.561   3.011  12.311
34339W        W 6654  40.030   9.379  14.405
34340W        W 6655  10.171   8.654  10.649
34341W        W 6656  10.850  38.818   4.649
34342W        W 6657  14.049   0.292   0.288
34343W        W 6658  43.438  43.640   3.098
34344W        W 6659  43.472  30.641  13.043
34345W        W 6660  18.640   2.574  11.218
34346W        W 6661  17.712  14.527   1.210
34347W        W 6662  27.063  11.216  11.532
34348W        W 6663  34.091   1.473  11.994
34349W        W 6664  34.362  17.738  14.013
34350W        W 6665  40.055  21.794   4.590
34351W        W 6666  20.034  40.840   3.204
34352W        W 6667   8.703  40.735   2.817
34353W        W 6668  22.730   0.804   0.791
34354W        W 6669  24.959  32.485  14.813
34355W        W 6670  14.118  22.049  11.167
34356W        W 6671  28.333   4.334   0.367
34357W        W 6672   4.252  10.856   2.215
34358W        W 6673  17.980   8.155   1.167
34359W        W 6674  32.873  39.484   4.100
34360W        W 6675  23.555  26.626  13.848
34361W        W 6676   6.819   8.628   0.214
34362W        W 6677  13.629   1.343   4.689
34363W        W 6678   8.022  16.646   1.262
34364W        W 6679  34.003  39.203   3.345
34365W        W 6680  23.997  18.569  11.274
34366W        W 6681   9.774  13.073  13.300
34367W        W 6682   4.002  12.244   0.854
34368W        W 6683  32.454  16.248  13.371
34369W        W 6684  34.595   1.287  13.393
34370W        W 6685  25.543  17.749  11.243
34371W        W 6686  11.920  12.564   2.765
34372W        W 6687  20.088  26.659   4.362
34373W        W 6688   4.356  27.863  11.137
34374W        W 6689  18.165   5.972  11.214
34375W        W 6690   5.915   6.999   3.747
34376W        W 6691  38.731  32.915   0.291
34377W        W 6692  23.407  24.454  11.118
34378W        W 6693  13.621  25.677  10.569
34379W        W 6694  22.683  35.875  13.126
34380W        W 6695  28.887  28.473   2.845
34381W        W 6696  13.652  41.514   2.820
34382W        W 6697  43.194  17.051   5.121
34383W        W 6698  32.014  33.890   2.398
34384W        W 6699  34.317  34.642  12.985
34385W        W 6700  37.491  40.967  13.459
34386W        W 6701  28.672   1.533  14.802
34387W        W 6702  38.298  15.781  13.974
34388W        W 6703   8.366   5.203  13.886
34389W        W 6704  42.026  17.381   2.752
34390W        W 6705  41.915  41.332  11.220
34391W        W 6706   1.321   0.357   2.700
34392W        W 6707  39.039  27.465  12.865
34393W        W 6708  13.355  36.589   4.060
34394W        W 6709  44.431  36.072  12.013
34395W        W 6710  29.166  12.694  10.636
34396W        W 6711  23.074  25.160  13.439
34397W        W 6712   4.281  30.877  14.339
34398W        W 6713   3.931  18.603   0.926
34399W        W 6714  18.789  37.520   3.962
34400W        W 6715  40.134  20.150   0.689
34401W        W 6716  30.519  23.513   4.414
34402W        W 6717  40.431   7.939   0.411
34403W        W 6718   8.686  17.939   0.867
34404W        W 6719  20.105  38.482   3.742
34405W        W 6720  17.719  15.062   0.537
34406W        W 6721  22.055  21.110   4.139
34407W        W 6722  15.612  38.867  13.434
34408W        W 6723   5.364  14.647   0.598
34409W        W 6724  11.348   3.160   1.427
34410W        W 6725  32.336  42.046  12.628
34411W        W 6726  35.827  42.850   3.407
34412W        W 6727   5.414   6.828  13.022
34413W        W 6728  38.963  14.270   3.648
34414W        W 6729   8.184  15.579  13.448
34415W        W 6730  40.914  17.829  10.718
34416W        W 6731   5.661  14.651   2.927
34417W        W 6732  25.239  40.993  12.509
34418W        W 6733  12.170   7.345  13.880
34419W        W 6734   7.072  15.091   2.756
34420W        W 6735  31.434  40.004   0.390
34421W        W 6736  38.091  10.089  14.043
34422W        W 6737   0.897  27.991   5.073
34423W        W 6738  12.711  36.013   3.876
34424W        W 6739  38.374   4.144  11.129
34425W        W 6740  22.563  20.890   2.467
34426W        W 6741   4.983  39.459   4.580
34427W        W 6742  18.854  36.966   0.469
34428W        W 6743   1.309  13.095  14.281
34429W        W 6744  16.981  37.422  10.720
34430W        W 6745  33.960  16.209  10.879
34431W        W 6746   5.825  17.670   1.498
34432W        W 6747  43.916   8.258  14.419
34433W        W 6748  19.247  19.825   4.312
34434W        W 6749  32.885   3.581   0.581
34435W        W 6750  12.294  22.232  11.479
34436W        W 6751  31.870   8.528   3.139
34437W        W 6752  36.007   8.769   1.991
34438W        W 6753  33.519  17.624   1.274
34439W        W 6754  34.606  23.557  10.951
34440W        W 6755   9.130   9.746   2.222
34441W        W 6756  42.539  13.926   0.785
34442W        W 6757  40.395  41.387  10.692
34443W        W 6758  28.645   5.127   2.737
34444W        W 6759   9.226  36.056   0.538
34445W        W 6760  37.788  42.337   1.345
34446W        W 6761  30.152  10.215   4.706
34447W        W 6762  41.291  36.391  12.593
34448W        W 6763  43.528  44.253  12.377
34449W        W 6764  29.938  36.606  14.882
34450W        W 6765  30.765   4.847   2.349
34451W        W 6766  22.723  16.875  10.897
34452W        W 6767  43.888   7.757   1.419
34453W        W 6768   1.148  11.733  13.813
34454W        W 6769  38.079  44.384   2.729
34455W        W 6770  39.021   9.474   1.357
34456W        W 6771  44.893  17.758   0.805
34457W        W 6772  11.925   0.552   2.380
34458W        W 6773  35.784  39.492   3.616
34459W        W 6774  25.900  36.755  14.377
34460W        W 6775  13.642  41.100  12.545
34461W        W 6776  16.278  43.458  13.525
34462W        W 6777   9.447  33.597  10.631
34463W        W 6778  35.826  14.749   1.909
34464W        W 6779   4.173  21.652  11.892
34465W        W 6780  30.931  36.364  14.258
34466W        W 6781  35.351   8.295  13.995
34467W        W 6782  36.370  28.457  11.479
34468W        W 6783  11.683   6.900   4.140
34469W        W 6784  27.653  15.262   0.293
34470W        W 6785  39.428  44.041   3.097
34471W        W 6786  25.134  40.277   3.787
34472W        W 6787  44.696  23.751  11.690
34473W        W 6788  27.133   0.941  11.514
34474W        W 6789   2.438  37.284   0.773
34475W        W 6790   3.276  23.709   0.350
34476W        W 6791  22.973  21.448   3.809
34477W        W 6792  19.122  30.177   3.230
34478W        W 6793  29.504  39.059   4.550
34479W        W 6794  12.287  27.396  14.546
34480W        W 6795  19.835  40.166  12.516
34481W        W 6796  13.035   0.736  10.997
34482W        W 6797  10.448  34.830   2.335
34483W        W 6798  24.120  27.495  14.258
34484W        W 6799  41.421  36.840  12.423
34485W        W 6800  10.867  43.477   3.923
34486W        W 6801  24.728  33.837  14.848
34487W        W 6802  33.657  18.222  11.274
34488W        W 6803  20.101  43.736  12.657
34489W        W 6804  19.289  22.235   2.265
34490W        W 6805   2.371  28.704  13.412
34491W        W 6806  23.135  11.456   0.869
34492W        W 6807  24.582   1.963   3.026
34493W        W 6808  21.055  16.129   1.147
34494W        W 6809  23.642  41.588   3.433
34495W        W 6810  37.504  11.836   0.426
34496W        W 6811  41.815  40.429   1.833
34497W        W 6812  31.636   3.881  11.417
34498W        W 6813   0.977  33.662   1.799
34499W        W 6814  15.715   3.025   4.142
34500W        W 6815   3.632  14.422  14.961
34501W        W 6816   0.417  32.187   4.519
34502W        W 6817  38.006  41.901   1.741
34503W        W 6818  43.868   4.417   3.706
34504W        W 6819   9.368  10.260   3.398
34505W        W 6820  28.743  21.802   3.851
34506W        W 6821  26.497   5.921  11.437
34507W        W 6822  40.552  27.563  12.104
34508W        W 6823  41.538  41.351  13.241
34509W        W 6824  13.104  15.926   0.787
34510W        W 6825  34.002  25.198   2.832
34511W        W 6826  43.837  23.560   2.514
34512W        W 6827   8.338  14.594   4.774
34513W        W 6828  21.496  34.167  12.976
34514W        W 6829  42.454  32.646  10.725
34515W        W 6830  41.385  40.544  12.900
34516W        W 6831   3.441  31.143  14.918
34517W        W 6832   5.492   3.264  10.249
34518W        W 6833  14.802  15.587  11.617
34519W        W 6834   5.161  14.665   1.091
34520W        W 6835  26.004  35.412   4.780
34521W        W 6836  19.359  40.337   3.590
34522W        W 6837  19.907  20.312  14.596
34523W        W 6838  36.999  28.469   1.272
34524W        W 6839  42.187  20.815   2.908
34525W        W 6840  15.134  33.462   0.735
34526W        W 6841   8.499  31.511   2.135
34527W        W 6842  29.410  43.342   2.616
34528W        W 6843  23.726  35.908  13.985
34529W        W 6844  11.959  40.294   4.192
34530W        W 6845  31.070  26.906  14.828
34531W        W 6846  36.775  35.837   0.419
34532W        W 6847   6.863  35.777  13.686
34533W        W 6848  11.810   6.600   0.841
34534W        W 6849  42.995  43.331  11.464
34535W        W 6850  11.427  18.677  12.500
34536W        W 6851  21.766  27.657  14.389
34537W        W 6852  23.077  20.039   4.584
34538W        W 6853  21.514  11.381   0.833
34539W        W 6854  40.432   4.756  12.791
34540W        W 6855  25.767   9.209  14.898
34541W        W 6856  38.542   7.733  14.997
34542W        W 6857   7.317  30.496  14.410
34543W        W 6858  26.030  38.807  10.273
34544W        W 6859  28.972   4.127  12.888
34545W        W 6860  36.727  18.637   3.736
34546W        W 6861  32.554   5.507  12.435
34547W        W 6862  10.155  18.602   2.395
34548W        W 6863   3.702  34.516  14.913
34549W        W 6864  24.473  14.608   4.922
34550W        W 6865  13.233  24.226   0.983
34551W        W 6866   1.246   6.188   4.673
34552W        W 6867  25.582   2.844  12.944
34553W        W 6868   9.590  43.236  13.766
34554W        W 6869  22.799  29.683   4.292
34555W        W 6870  24.688  22.072   5.533
34556W        W 6871  39.186   3.878   1.898
34557W        W 6872   0.958  31.648   2.595
34558W        W 6873  24.697  21.510  12.637
34559W        W 6874  21.302  33.278  12.793
34560W        W 6875  31.694  10.876  14.392
34561W        W 6876  32.645   6.699  13.374
34562W        W 6877  41.104   5.368  14.356
34563W        W 6878   0.112  23.217   2.236
34564W        W 6879  16.893  32.839  12.527
34565W        W 6880  13.483   8.733  12.484
34566W        W 6881  21.766  12.375  11.886
34567W        W 6882   2.887  10.387   1.829
34568W        W 6883  27.540  40.084  14.070
34569W        W 6884   8.817  44.764   1.231
34570W        W 6885  37.373  36.965   2.925
34571W        W 6886   1.577   4.206   3.635
34572W        W 6887  12.404  35.520  11.543
34573W        W 6888  36.646  22.565   0.918
34574W        W 6889  27.872  44.858   1.367
34575W        W 6890  12.982  11.749   0.928
34576W        W 6891   1.509  18.514   3.676
34577W        W 6892  27.652  42.293  14.316
34578W        W 6893  17.634  36.339   1.781
34579W        W 6894  36.756  35.472  13.780
34580W        W 6895  19.076  32.634   3.318
34581W        W 6896  18.577  16.518   0.338
34582W        W 6897  39.946  37.820   4.131
34583W        W 6898  30.347  13.852   2.218
34584W        W 6899  36.353  39.502  10.586
34585W        W 6900   3.435  22.119   1.215
34586W        W 6901   0.515  38.271   1.257
34587W        W 6902  33.026  15.017   0.950
34588W        W 6903  20.744  23.220  11.933
34589W        W 6904  33.031  13.374   4.116
34590W        W 6905  26.085  34.977  14.421
34591W        W 6906  13.909  25.526   3.070
34592W        W 6907  28.028  25.469  13.911
34593W        W 6908  25.160  20.908   2.815
34594W        W 6909  36.108  25.590  14.560
34595W        W 6910  19.802  36.365   4.048
34596W        W 6911  44.354  43.510   2.711
34597W        W 6912  16.571  25.015   2.440
34598W        W 6913  19.132  43.011  12.076
34599W        W 6914  36.031  38.613   4.602
34600W        W 6915   2.417   2.447   1.694
34601W        W 6916  36.031  31.386   4.577
34602W        W 6917  10.063  42.784  10.698
34603W        W 6918  36.851  10.632  12.811
34604W        W 6919  29.686  25.535   1.186
34605W        W 6920  27.002   8.420   0.535
34606W        W 6921  26.071   8.419  14.311
34607W        W 6922  28.927  37.512  11.516
34608W        W 6923  41.057  12.735   1.756
34609W        W 6924   1.678   5.339   1.901
34610W        W 6925  28.627  29.687  11.661
34611W        W 6926  29.604   1.713  12.405
34612W        W 6927  34.968   9.170  10.298
34613W        W 6928   1.482  11.680  11.457
34614W        W 6929   6.326   9.093   3.347
34615W        W 6930  11.342  20.729   1.289
34616W        W 6931  32.918  20.424   1.389
34617W        W 6932  24.483  10.161  11.287
34618W        W 6933   3.045  39.078  12.855
34619W        W 6934  39.250  23.666   0.773
34620W        W 6935  20.826  26.388  14.669
34621W        W 6936  18.668  10.927   0.864
34622W        W 6937   1.768  21.332   4.048
34623W        W 6938  37.056  17.841   4.160
34624W        W 6939  10.840  44.868  12.064
34625W        W 6940  19.022  13.414  10.712
34626W        W 6941   8.712  10.137   1.733
34627W        W 6942  42.900  25.666  13.126
34628W        W 6943   9.136  31.485   3.377
34629W        W 6944  40.631  21.119  10.918
34630W        W 6945  17.210  35.620   1.902
34631W        W 6946   4.413  31.682  12.500
34632W        W 6947  40.360  34.378   3.990
34633W        W 6948  13.811  35.924   2.715
34634W        W 6949   2.409  20.422  13.914
34635W        W 6950  11.824   5.048   4.722
34636W        W 6951  29.198  12.854   2.723
34637W        W 6952  44.100  21.223   1.254
34638W        W 6953  27.041  20.120   1.463
34639W        W 6954  21.006   8.892  13.449
34640W        W 6955  28.917  17.790   2.605
34641W        W 6956  11.150   1.715   3.902
34642W        W 6957  33.422  31.654   2.105
34643W        W 6958  31.114  32.594  11.691
34644W        W 6959   1.681  27.977  14.268
34645W        W 6960   7.837  14.322   3.611
34646W        W 6961  20.615  20.176   0.948
34647W        W 6962   2.229  39.487   1.402
34648W        W 6963   4.719  24.582   0.970
34649W        W 6964  21.241  32.803  12.972
34650W        W 6965  12.341  32.451   1.270
34651W        W 6966  35.384   0.292   0.802
34652W        W 6967  44.225  19.536  11.142
34653W        W 6968   7.316  17.757   1.020
34654W        W 6969  20.143   8.525  11.895
34655W        W 6970  33.218   1.408  14.708
34656W        W 6971  12.617  16.509  11.465
34657W        W 6972   4.815   9.070  12.596
34658W        W 6973  22.562  20.618   2.935
34659W        W 6974   3.233   9.456  10.646
34660W        W 6975   5.343  43.426  10.921
34661W        W 6976   7.819  18.684   2.115
34662W        W 6977  36.932  41.928   2.732
34663W        W 6978   1.838  39.529  11.428
34664W        W 6979  42.541  38.354  11.596
34665W        W 6980  30.398  27.747   1.300
34666W        W 6981  40.508  21.150  11.474
34667W        W 6982  16.031  10.429   2.778
34668W        W 6983  21.337  43.540   1.469
34669W        W 6984  19.570  39.957  10.146
34670W        W 6985   1.034  44.346  10.677
34671W        W 6986  32.497   7.933   4.865
34672W        W 6987  24.542  33.601   1.306
34673W        W 6988  25.590  29.553   4.795
34674W        W 6989   6.939   6.460   2.356
34675W        W 6990  15.617  27.647  14.043
34676W        W 6991  44.885  32.087  11.801
34677W        W 6992  34.425  14.675  13.764
34678W        W 6993  27.009  11.397   4.218
34679W        W 6994  29.439  14.140  12.901
34680W        W 6995   7.247   4.852   4.615
34681W        W 6996  13.372  24.293   3.242
34682W        W 6997  42.069  17.419  10.848
34683W        W 6998  10.789  29.287  11.419
34684W        W 6999  27.454  15.622   2.789
34685W        W 7000  15.489   9.063  12.583
34686W        W 7001  18.774  20.215   2.698
34687W        W 7002  23.945   0.317   3.084
34688W        W 7003  22.004   3.960  12.889
34689W        W 7004  43.089  43.223  13.232
34690W        W 7005  41.078  23.022   3.917
34691W        W 7006   2.672  33.736  11.248
34692W        W 7007   4.339  12.882   4.228
34693W        W 7008  29.659  25.933   3.805
34694W        W 7009  10.439  38.169   4.018
34695W        W 7010  22.832  43.820  10.738
34696W        W 7011  30.680  30.410  13.101
34697W        W 7012  19.340  35.164  11.072
34698W        W 7013  27.972  16.632  12.511
34699W        W 7014  16.846   4.721  14.026
34700W        W 7015  12.713  41.331   3.359
34701W        W 7016  32.927  30.133  10.348
34702W        W 7017   9.836   8.742   3.761
34703W        W 7018   0.345  23.140   1.688
34704W        W 7019  18.131   4.806   2.325
34705W        W 7020  25.404  36.680  14.488
34706W        W 7021   8.866  10.684   0.880
34707W        W 7022  29.843   3.201  10.401
34708W        W 7023  25.421  37.787  13.907
34709W        W 7024  42.550  24.262   3.633
34710W        W 7025  39.785  42.515   3.652
34711W        W 7026  30.890  25.167  14.005
34712W        W 7027  22.248  28.958   4.634
34713W        W 7028  24.643  43.932  14.357
34714W        W 7029  42.065  15.725   0.513
34715W        W 7030  30.225   0.312  11.644
34716W        W 7031   6.400   4.187  13.491
34717W        W 7032  26.174   4.966  14.375
34718W        W 7033  30.895  15.713   4.164
34719W        W 7034  28.417  14.352  12.771
34720W        W 7035  19.086  19.329   0.821
34721W        W 7036  18.347   8.803   3.131
34722W        W 7037  30.817  19.377   2.896
34723W        W 7038  12.615  12.918  12.053
34724W        W 7039   3.851  25.575   4.407
34725W        W 7040  11.846  23.717  10.674
34726W        W 7041   8.197  26.664   0.880
34727W        W 7042  18.773  40.330   1.305
34728W        W 7043  20.056  41.018   2.685
34729W        W 7044  30.033  11.837  11.721
34730W        W 7045   3.820   7.936  11.895
34731W        W 7046  21.151  43.248   0.561
34732W        W 7047  26.593   5.206  11.129
34733W        W 7048  41.263  43.527   2.873
34734W        W 7049  31.390  13.769  10.959
34735W        W 7050  24.692  20.283   2.259
34736W        W 7051   2.716  17.599   1.787
34737W        W 7052  24.154   5.741  12.076
34738W        W 7053  42.945  39.372  11.641
34739W        W 7054  30.444  27.701   4.630
34740W        W 7055   9.929  32.986  12.172
34741W        W 7056   5.959  25.513   2.748
34742W        W 7057  28.990  23.499   2.334
34743W        W 7058  22.410  14.309  14.000
34744W        W 7059   5.699  32.243   1.719
34745W        W 7060  26.615  31.533   3.159
34746W        W 7061   3.320   0.699  14.837
34747W        W 7062   9.181   2.104   4.046
34748W        W 7063  37.794   3.976   3.263
34749W        W 7064   2.689  41.182  11.453
34750W        W 7065   0.503  30.926   4.346
34751W        W 7066  18.488   0.811  12.179
34752W        W 7067  13.280  40.723   2.778
34753W        W 7068  43.947   0.167  12.529
34754W        W 7069  41.656  38.453  12.796
34755W        W 7070  18.543  11.602   4.306
34756W        W 7071   0.017  12.838   4.246
34757W        W 7072  44.322  29.425   3.249
34758W        W 7073  36.086  15.603   0.976
34759W        W 7074  36.416  11.363  10.800
34760W        W 7075  17.222  27.984  13.869
34761W        W 7076  44.988  38.012   0.971
34762W        W 7077  27.257  35.916   0.889
34763W        W 7078  33.052  22.008  12.419
34764W        W 7079  12.213   8.529  12.389
34765W        W 7080  34.617  19.258   3.171
34766W        W 7081  40.265  21.448  12.468
34767W        W 7082  33.158   7.199   3.235
34768W        W 7083  30.553   5.870  12.241
34769W        W 7084   5.287   9.796   1.787
34770W        W 7085  19.048  34.921   4.110
34771W        W 7086  42.033  36.473  11.967
34772W        W 7087  13.119  24.433   3.663
34773W        W 7088  16.276  22.970   0.433
34774W        W 7089   9.229  11.290  11.906
34775W        W 7090   8.911  16.292  11.336
34776W        W 7091  24.444   3.939  11.997
34777W        W 7092  32.090  30.610   1.988
34778W        W 7093  28.168   4.380  12.553
34779W        W 7094  29.945  42.926   3.194
34780W        W 7095  37.494  15.103  13.538
34781W        W 7096  27.875  31.517   5.109
34782W        W 7097  19.736  24.608  10.658
34783W        W 7098  15.792  37.952  12.835
34784W        W 7099  14.482  32.770   2.398
34785W        W 7100  18.891   6.495   2.828
34786W        W 7101   3.701  18.571   1.857
34787W        W 7102  42.879  21.947  12.967
34788W        W 7103  24.997  21.323   5.353
34789W        W 7104  19.467  40.462   4.578
34790W        W 7105  27.725   3.902  14.053
34791W        W 7106   8.403  12.108   4.233
34792W        W 7107  32.885  16.311   0.291
34793W        W 7108  33.717   5.978   0.006
34794W        W 7109  39.866  30.567  11.315
34795W        W 7110  37.539  17.758   0.712
34796W        W 7111  22.701  17.396   2.998
34797W        W 7112   2.848  10.868  10.333
34798W        W 7113   8.806  40.285   4.694
34799W        W 7114  10.278   1.294   1.655
34800W        W 7115  14.600   3.630   4.524
34801W        W 7116   4.913  23.295   4.193
34802W        W 7117   2.937  30.019  13.689
34803W        W 7118  40.974  14.810   0.284
34804W        W 7119   5.090  17.125  11.436
34805W        W 7120  32.181  31.261   0.591
34806W        W 7121  23.279  12.663  13.803
34807W        W 7122  37.348  39.023  14.797
34808W        W 7123  10.361  40.064  11.021
34809W        W 7124   0.365  25.148  12.447
34810W        W 7125  44.568  17.191   1.327
34811W        W 7126  18.707  44.378   3.334
34812W        W 7127  22.585   5.253   2.219
34813W        W 7128  28.037  27.476  13.756
34814W        W 7129  10.768  40.847   2.821
34815W        W 7130  14.600   3.528   2.817
34816W        W 7131  32.684  25.386  11.871
34817W        W 7132  39.008  32.528  11.918
34818W        W 7133  19.241  35.891  14.891
34819W        W 7134   6.960  28.917   1.332
34820W        W 7135  30.463  22.134   1.147
34821W        W 7136  13.863   4.337  13.889
34822W        W 7137  29.966  13.782  11.215
34823W        W 7138  15.698   8.244   2.429
34824W        W 7139  12.190  39.516  11.859
34825W        W 7140  38.698  40.531  14.894
34826W        W 7141  13.360  22.452  10.263
34827W        W 7142  23.679  38.888  12.713
34828W        W 7143  23.409  35.891   3.162
34829W        W 7144  12.279  16.402   3.175
34830W        W 7145  28.593  18.507  13.089
34831W        W 7146  26.710  26.605  12.129
34832W        W 7147  29.135   2.535  13.898
34833W        W 7148  16.258  32.463   3.700
34834W        W 7149  18.057  15.551  10.704
34835W        W 7150  32.508  31.086   3.162
34836W        W 7151  23.920  36.500  11.631
34837W        W 7152  15.086  44.500   3.706
34838W        W 7153  10.883  16.296  14.934
34839W        W 7154  40.311  10.869  10.658
34840W        W 7155  14.578  17.069   3.904
34841W        W 7156  19.295  38.480  10.120
34842W        W 7157  18.284  42.768  13.878
34843W        W 7158  23.042  41.031  12.509
34844W        W 7159  22.596  38.092   0.532
34845W        W 7160  34.467   4.950   0.483
34846W        W 7161  35.799  21.739  11.585
34847W        W 7162  42.368  15.975   2.310
34848W        W 7163   6.244  39.306  11.161
34849W        W 7164  23.493  42.728   1.953
34850W        W 7165  44.329  26.102  13.903
34851W        W 7166   4.290  21.117  11.206
34852W        W 7167  28.140  40.397  10.988
34853W        W 7168  29.177  39.389  13.538
34854W        W 7169  24.271  18.165  13.852
34855W        W 7170   6.173  37.172  13.547
34856W        W 7171  27.707   5.905   1.030
34857W        W 7172  12.011  23.542  12.833
34858W        W 7173  10.121  12.869   0.315
34859W        W 7174  14.604   1.962   2.308
34860W        W 7175   7.368   4.269   3.853
34861W        W 7176  39.038  28.501  14.367
34862W        W 7177   9.720  33.990  11.503
34863W        W 7178  18.742  21.558  12.455
34864W        W 7179  16.441  44.548  12.363
34865W        W 7180  27.624  36.620  12.065
34866W        W 7181  37.015  35.446  13.315
34867W        W 7182  14.603   1.203   0.420
34868W        W 7183  18.562  14.590  11.592
34869W        W 7184  12.916  14.826   2.166
34870W        W 7185  41.414   2.874  12.327
34871W        W 7186  18.613   0.914  11.674
34872W        W 7187  36.390  34.313   2.706
34873W        W 7188  39.792  11.966  13.310
34874W        W 7189  12.528   8.761   5.016
34875W        W 7190   4.877  26.962  12.618
34876W        W 7191  37.688  15.406   2.395
34877W        W 7192  43.786   5.637   1.670
34878W        W 7193  23.413  14.903   2.403
34879W        W 7194  28.574  11.067  14.252
34880W        W 7195  36.329   2.726  14.365
34881W        W 7196  26.649  42.817   3.637
34882W        W 7197  18.734  26.704  12.525
34883W        W 7198  25.787   4.865  13.638
34884W        W 7199  21.577  36.782   1.224
34885W        W 7200  39.956  20.290   4.547
34886W        W 7201  17.601  43.351   3.336
34887W        W 7202  15.703  14.184   1.810
34888W        W 7203  15.692  18.720  10.471
34889W        W 7204  28.040  23.999  11.854
34890W        W 7205  41.042  41.013  11.580
34891W        W 7206   1.016  40.587  14.438
34892W        W 7207  44.780  36.401  11.764
34893W        W 7208   8.259  44.723  13.985
34894W        W 7209  28.143  15.025  14.391
34895W        W 7210  16.221  23.540  14.492
34896W        W 7211  28.008  24.887   3.619
34897W        W 7212  36.612  10.387   0.909
34898W        W 7213  41.903  39.103  13.981
34899W        W 7214  17.495   4.899  10.767
34900W        W 7215  13.422  44.792   4.209
34901W        W 7216  14.362  34.291  13.261
34902W        W 7217  42.498  43.715  14.014
34903W        W 7218  21.153  35.110  10.843
34904W        W 7219  35.596  27.262   4.666
34905W        W 7220  15.085  14.807   4.262
34906W        W 7221  43.833  10.088  13.879
34907W        W 7222   2.900  27.192  12.464
34908W        W 7223   3.801   5.347   3.838
34909W        W 7224  11.460  35.941   3.709
34910W        W 7225  43.155   6.043   5.004
34911W        W 7226  43.916  24.530   3.890
34912W        W 7227  33.213  35.208   2.033
34913W        W 7228  38.787  39.288  11.588
34914W        W 7229   7.136  44.358   2.440
34915W        W 7230  37.129  39.448   4.663
34916W        W 7231  14.423  22.295   2.316
34917W        W 7232   6.694   2.058   0.306
34918W        W 7233  23.767  19.768   2.182
34919W        W 7234  43.038  13.116   2.739
34920W        W 7235   5.670  28.506   3.938
34921W        W 7236  39.287   6.795  12.815
34922W        W 7237   3.849  27.986  12.893
34923W        W 7238  37.500  40.137  12.192
34924W        W 7239  22.481  23.183  11.120
34925W        W 7240  12.965  28.350   2.712
34926W        W 7241  34.492   1.500   1.403
34927W        W 7242  40.553  38.413   1.244
34928W        W 7243  35.876  29.629  14.288
34929W        W 7244  36.027  22.490  12.050
34930W        W 7245  35.442  40.018   1.928
34931W        W 7246  43.576  31.439  12.011
34932W        W 7247  37.046  36.096   1.841
34933W        W 7248  27.375  42.939   0.229
34934W        W 7249  21.323  42.455   2.930
34935W        W 7250  37.831  13.529   2.330
34936W        W 7251   6.369   7.685   4.239
34937W        W 7252  33.372  42.838  14.520
34938W        W 7253  25.915   5.716   0.337
34939W        W 7254   6.141  29.858  13.544
34940W        W 7255  13.720  26.519   2.408
34941W        W 7256   9.097  14.591   0.228
34942W        W 7257  21.766  33.142   9.947
34943W        W 7258  40.936  35.433  14.969
34944W        W 7259  12.064  30.021   2.239
34945W        W 7260  12.761  23.977  14.930
34946W        W 7261  24.980   7.363  13.827
34947W        W 7262  10.654  19.178   1.343
34948W        W 7263  29.438  37.202  10.949
34949W        W 7264   1.067  36.099   0.491
34950W        W 7265   5.392   7.322  14.744
34951W        W 7266  42.248  10.338  10.725
34952W        W 7267  13.600  38.480  14.715
34953W        W 7268  37.675  38.164  10.436
34954W        W 7269   7.198  39.355   4.848
34955W        W 7270   5.216   7.780   0.498
34956W        W 7271   8.992  34.875  14.266
34957W        W 7272  13.835  36.102  11.416
34958W        W 7273   7.756  24.643   2.057
34959W        W 7274  10.811  34.972   3.602
34960W        W 7275  39.936   9.969   1.287
34961W        W 7276  21.018  29.126   3.703
34962W        W 7277  28.519   5.736  11.368
34963W        W 7278  19.679  35.330   1.255
34964W        W 7279  14.261   9.585  14.899
34965W        W 7280  21.044  15.635   1.202
34966W        W 7281  37.394  11.586  14.835
34967W        W 7282  16.150  18.539  11.613
34968W        W 7283   5.892  23.957  10.520
34969W        W 7284  35.163  22.185   4.257
34970W        W 7285  23.481  43.048  11.415
34971W        W 7286  30.683  19.648   4.550
34972W        W 7287  22.929  28.498   0.881
34973W        W 7288  18.653  10.842   5.415
34974W        W 7289  22.116  44.903  11.388
34975W        W 7290   3.956  22.643   3.148
34976W        W 7291  27.035  21.069  11.252
34977W        W 7292  29.984  40.464  12.545
34978W        W 7293  33.150   2.029  13.617
34979W        W 7294  28.418  28.713   0.497
34980W        W 7295  40.355   2.765  12.491
34981W        W 7296  40.868   6.845  11.154
34982W        W 7297  35.653   9.805  11.930
34983W        W 7298  28.257  41.081   3.098
34984W        W 7299   4.035  41.327   3.344
34985W        W 7300  35.454  26.386   3.639
34986W        W 7301  42.878  26.187  13.953
34987W        W 7302   5.240  18.658  11.587
34988W        W 7303  39.209  15.741  11.604
34989W        W 7304  29.919  37.335  14.295
34990W        W 7305   4.372  27.929   3.788
34991W        W 7306   7.741  36.201   0.908
34992W        W 7307  25.826  33.410  12.023
34993W        W 7308  13.220  17.321   0.494
34994W        W 7309  34.530   7.846  10.510
34995W        W 7310  32.543  19.757   1.840
34996W        W 7311  36.596  44.997  11.950
34997W        W 7312   8.888  41.321   3.401
34998W        W 7313  18.477  21.649  14.803
34999W        W 7314  20.742  19.508  13.974
35000W        W 7315  16.387   7.909   0.824
35001W        W 7316   9.180   3.237   0.362
35002W        W 7317  28.883  34.076  14.403
35003W        W 7318  32.880  21.253   2.848
35004W        W 7319  24.856  28.266   0.799
35005W        W 7320   2.084  44.386   3.738
35006W        W 7321  41.121  44.775  10.848
35007W        W 7322  18.545  20.280   0.477
35008W        W 7323  17.056  27.099   2.924
35009W        W 7324   9.695  34.975  10.540
35010W        W 7325  10.327  40.913  10.346
35011W        W 7326  19.085  44.430  11.756
35012W        W 7327  18.294  27.623  13.283
35013W        W 7328  14.352   4.898   1.267
35014W        W 7329  13.618  33.924  12.906
35015W        W 7330  25.998  17.587   4.269
35016W        W 7331   2.877  39.459  10.873
35017W        W 7332   4.010  16.583   3.810
35018W        W 7333  40.001  31.330   3.218
35019W        W 7334   7.418   0.904  12.866
35020W        W 7335  12.469  14.206  13.571
35021W        W 7336  24.703  15.325  13.770
35022W        W 7337  37.340  22.284  13.075
35023W        W 7338   9.302  40.975   0.945
35024W        W 7339  24.857  35.103   5.185
35025W        W 7340  29.986   3.224  12.596
35026W        W 7341  31.092  42.408   1.620
35027W        W 7342   8.631  36.841   0.523
35028W        W 7343  10.408  43.249  13.355
35029W        W 7344   1.446  36.310  13.827
35030W        W 7345  36.854  27.988  14.469
35031W        W 7346  25.463  25.935   0.769
35032W        W 7347  41.756  23.293   0.260
35033W        W 7348   1.437  12.419  12.970
35034W        W 7349  41.100  13.726  13.943
35035W        W 7350  29.934  28.786  12.019
35036W        W 7351   3.146  36.994   4.598
35037W        W 7352  37.965  44.955  11.321
35038W        W 7353  15.792  36.817   4.577
35039W        W 7354  34.829  39.864   2.141
35040W        W 7355  30.679  37.832  13.771
35041W        W 7356  37.366  25.732  10.246
35042W        W 7357   4.502  15.618   0.545
35043W        W 7358  25.585  30.414   1.819
35044W        W 7359   1.218  40.042  13.559
35045W        W 7360   3.709  39.802  12.130
35046W        W 7361  43.845  17.629  14.616
35047W        W 7362  31.643  41.918   4.779
35048W        W 7363  10.218  10.563  10.564
35049W        W 7364  31.131  33.346  14.773
35050W        W 7365  30.606   7.688  13.482
35051W        W 7366  20.935  18.616   5.034
35052W        W 7367   8.719  38.835   0.893
35053W        W 7368  43.829   5.653   3.358
35054W        W 7369  31.685  29.437   3.299
35055W        W 7370   0.074  33.793   4.951
35056W        W 7371   2.796  22.768  12.533
35057W        W 7372  16.095  22.125  14.540
35058W        W 7373  36.799  32.590   1.877
35059W        W 7374  13.200  39.587   3.311
35060W        W 7375  43.663  22.061  14.068
35061W        W 7376  25.040  25.919   4.724
35062W        W 7377  31.137   9.339   1.736
35063W        W 7378   7.452  11.279  10.580
35064W        W 7379  42.316  18.124  13.769
35065W        W 7380  10.717  25.313  14.310
35066W        W 7381   6.123  44.038  14.950
35067W        W 7382  29.468  21.045  12.436
35068W        W 7383  26.432   1.859   0.707
35069W        W 7384  21.716  24.171  14.216
35070W        W 7385  37.620  21.595   4.218
35071W        W 7386  34.381  13.585   0.910
35072W        W 7387  37.491  22.730  12.005
35073W        W 7388  13.780  23.220  12.046
35074W        W 7389   9.917  16.043  14.932
35075W        W 7390  40.810  40.241  13.966
35076W        W 7391  26.748  36.623  14.730
35077W        W 7392  31.956  29.421   1.094
35078W        W 7393   6.707  34.664  10.845
35079W        W 7394  13.676  15.649   3.593
35080W        W 7395  30.885  39.942   2.229
35081W        W 7396  29.186  21.770  14.510
35082W        W 7397   7.758  37.413   4.358
35083W        W 7398   5.944  13.163  10.621
35084W        W 7399  24.952   7.435  11.547
35085W        W 7400   9.739   8.946  10.600
35086W        W 7401  19.133   3.721   1.746
35087W        W 7402   0.389  24.131  12.924
35088W        W 7403   6.632  29.930  13.351
35089W        W 7404  33.990  12.957   3.166
35090W        W 7405  41.875  29.433  14.318
35091W        W 7406  38.522   6.760   3.685
35092W        W 7407  30.324  27.343  12.704
35093W        W 7408   9.862   5.964   1.888
35094W        W 7409  39.974  35.606  11.761
35095W        W 7410   6.899  16.168  12.656
35096W        W 7411  33.306  44.293  10.112
35097W        W 7412  29.403  29.987   3.798
35098W        W 7413   6.782  24.492  12.850
35099W        W 7414  29.866  38.571  10.695
35100W        W 7415  15.195  33.695   4.677
35101W        W 7416  38.235  26.660   5.497
35102W        W 7417  13.394  29.447  14.855
35103W        W 7418  12.335  30.899  10.731
35104W        W 7419  12.234   1.397   4.419
35105W        W 7420  38.608  26.069  14.718
35106W        W 7421  27.985  17.832  11.940
35107W        W 7422  18.107   2.000  13.013
35108W        W 7423  41.493  25.511   3.344
35109W        W 7424  30.415  26.462   2.279
35110W        W 7425  41.328  39.210  12.484
35111W        W 7426  42.859  16.375  13.485
35112W        W 7427  25.364  28.363   0.819
35113W        W 7428   8.787  13.171  11.514
35114W        W 7429  29.812  34.057   2.415
35115W        W 7430  17.270   5.323   1.400
35116W        W 7431  23.528   7.425   0.316
35117W        W 7432  36.325  44.817   2.229
35118W        W 7433   2.784  19.006   1.295
35119W        W 7434   5.161  44.427  12.062
35120W        W 7435  40.725   3.943   0.569
35121W        W 7436  12.601  22.464   2.334
35122W        W 7437  19.631  17.056  14.762
35123W        W 7438  39.347  11.959  14.424
35124W        W 7439   9.827  32.139   3.671
35125W        W 7440  31.269  31.817   3.472
35126W        W 7441  29.995  35.513  11.490
35127W        W 7442   8.809   5.142   1.846
35128W        W 7443  21.916  10.220  12.371
35129W        W 7444   8.923  16.008   2.267
35130W        W 7445  11.676  36.566   4.782
35131W        W 7446   8.691  41.470   2.398
35132W        W 7447   9.758  41.941   0.876
35133W        W 7448  10.246  13.606   4.541
35134W        W 7449  14.615  22.222   2.802
35135W        W 7450   3.489   0.765   3.004
35136W        W 7451  21.024  14.917   3.116
35137W        W 7452  20.807  25.742  12.009
35138W        W 7453  12.806  44.741   1.318
35139W        W 7454  18.644  10.607  10.578
35140W        W 7455  35.442  17.024  14.351
35141W        W 7456  31.372  13.584  11.443
35142W        W 7457  16.659  27.490   1.206
35143W        W 7458  43.496  39.909   3.876
35144W        W 7459  21.761   6.431   1.618
35145W        W 7460  35.009  41.303   4.658
35146W        W 7461  30.022  35.004  11.382
35147W        W 7462  35.562  28.175   2.352
35148W        W 7463  36.017  17.887  11.115
35149W        W 7464  29.252   9.751   1.995
35150W        W 7465  25.087   4.673   2.774
35151W        W 7466   0.537  12.676  11.068
35152W        W 7467  30.690  15.553  13.332
35153W        W 7468  20.538  33.098   1.785
35154W        W 7469  35.774  18.309  14.427
35155W        W 7470  21.259  12.177  13.594
35156W        W 7471  12.862  44.432   0.777
35157W        W 7472  21.547  13.189  12.837
35158W        W 7473  18.219  19.001  12.072
35159W        W 7474  12.014  24.708  11.578
35160W        W 7475  14.326  25.546  12.350
35161W        W 7476  18.834  38.311  11.479
35162W        W 7477   2.276  43.741  11.015
35163W        W 7478  25.012  33.820   1.244
35164W        W 7479  20.054  42.603   0.417
35165W        W 7480  19.624  18.986   4.305
35166W        W 7481  22.293  43.379   2.416
35167W        W 7482   2.154  43.844  10.518
35168W        W 7483  14.121   6.234  14.845
35169W        W 7484   1.056  34.447   1.279
35170W        W 7485  10.433  32.832  10.128
35171W        W 7486   1.250   4.579  13.341
35172W        W 7487  23.286  15.674   3.917
35173W        W 7488  24.040  40.644   3.140
35174W        W 7489   7.176  27.525   1.010
35175W        W 7490  30.165  30.544  11.057
35176W        W 7491  23.618  35.095  11.219
35177W        W 7492  39.556   1.748   4.093
35178W        W 7493  23.086  23.063  11.934
35179W        W 7494   5.863  35.623   4.707
35180W        W 7495   5.328  37.006  14.939
35181W        W 7496  26.206  18.163   0.280
35182W        W 7497  25.039  20.589  11.684
35183W        W 7498  37.787  33.597   2.783
35184W        W 7499  38.925  31.481   1.836
35185W        W 7500  13.914  16.604   5.044
35186W        W 7501  21.667  32.987  12.294
35187W        W 7502  14.807  43.154   2.798
35188W        W 7503  14.105  12.006  12.494
35189W        W 7504  14.593   6.504  11.126
35190W        W 7505  24.119  19.038  10.208
35191W        W 7506  11.297  21.634  14.449
35192W        W 7507  26.581  34.503   1.183
35193W        W 7508  35.372  40.038   4.370
35194W        W 7509  44.794  39.780   2.844
35195W        W 7510  19.015  29.884   3.630
35196W        W 7511  20.760  35.508   0.719
35197W        W 7512  28.446   8.373  10.347
35198W        W 7513   3.353  41.023   2.195
35199W        W 7514  12.029  26.459  14.774
35200W        W 7515  14.136  19.304  11.774
35201W        W 7516  27.943  42.056   4.872
35202W        W 7517  44.421  18.370  10.634
35203W        W 7518  43.071  13.463  13.839
35204W        W 7519  34.641   1.215  14.360
35205W        W 7520   6.422   5.767   3.902
35206W        W 7521  36.527   3.608   0.313
35207W        W 7522  44.304  18.122  12.360
35208W        W 7523  38.143   0.707   1.804
35209W        W 7524  16.870  20.225  11.258
35210W        W 7525  33.257  29.382   3.230
35211W        W 7526   8.971  40.820   3.260
35212W        W 7527  40.101   3.244   5.035
35213W        W 7528   9.727  32.638   2.725
35214W        W 7529  26.689  13.597  14.218
35215W        W 7530  14.778  26.632  10.273
35216W        W 7531  20.841  40.589   0.170
35217W        W 7532  19.002  36.128  11.027
35218W        W 7533  34.038  15.272  14.870
35219W        W 7534  22.611  28.709  14.360
35220W        W 7535  23.455   5.351   0.912
35221W        W 7536  29.459  19.692   5.060
35222W        W 7537  26.323  11.116  10.628
35223W        W 7538  29.145   1.927   1.737
35224W        W 7539   6.403   4.300  11.876
35225W        W 7540  41.226  28.555   1.279
35226W        W 7541   3.888  34.882   1.326
35227W        W 7542  26.929   7.812   1.848
35228W        W 7543  43.973   1.765  12.568
35229W        W 7544  31.036  11.697  13.562
35230W        W 7545  17.221  22.164  14.420
35231W        W 7546   5.415  10.733  12.033
35232W        W 7547   2.715  37.354   4.577
35233W        W 7548  38.386  31.636   0.042
35234W        W 7549   4.487  43.516  13.881
35235W        W 7550  26.269  28.451   0.176
35236W        W 7551  33.347  21.927   2.346
35237W        W 7552  25.613  27.194  11.978
35238W        W 7553  38.117  16.683   3.207
35239W        W 7554  13.060   7.949   2.291
35240W        W 7555  11.142  43.223   0.322
35241W        W 7556  14.677  43.982  11.551
35242W        W 7557  20.683  22.638   0.980
35243W        W 7558  27.113  28.483   2.338
35244W        W 7559  40.765  28.015  12.893
35245W        W 7560  20.793  15.399  13.502
35246W        W 7561  34.095  42.317  11.118
35247W        W 7562  40.477  32.843  11.539
35248W        W 7563  44.294  28.025   1.798
35249W        W 7564   9.398  44.655   0.416
35250W        W 7565  22.982   0.053   2.282
35251W        W 7566   0.200  29.656  10.476
35252W        W 7567  38.034  42.595  13.941
35253W        W 7568  34.789  44.307   3.708
35254W        W 7569  10.814   5.763   5.010
35255W        W 7570   4.285  18.011   2.737
35256W        W 7571  25.019  44.741   0.442
35257W        W 7572   5.421  36.647  14.278
35258W        W 7573   6.315   6.314   4.127
35259W        W 7574   7.743   2.229   1.344
35260W        W 7575  14.267  27.847   4.201
35261W        W 7576  20.692  27.469  11.448
35262W        W 7577   4.387  20.764   3.867
35263W        W 7578  21.456   5.132   2.575
35264W        W 7579  31.919   3.537   3.815
35265W        W 7580  32.307   8.983  11.115
35266W        W 7581  15.584  39.018   0.835
35267W        W 7582   7.398   3.910   4.590
35268W        W 7583  34.168  28.928   3.168
35269W        W 7584  22.220  36.121   0.813
35270W        W 7585  22.621  31.543   4.894
35271W        W 7586  24.373  16.294   2.902
35272W        W 7587  11.654  28.433   2.241
35273W        W 7588  18.787  19.497  14.237
35274W        W 7589   5.960   5.015   3.726
35275W        W 7590  44.173   4.741  14.923
35276W        W 7591  28.388  42.046   2.246
35277W        W 7592  38.840  19.877  10.546
35278W        W 7593  21.073  35.895  13.531
35279W        W 7594  17.058  35.008   2.250
35280W        W 7595  29.053  41.339  10.911
35281W        W 7596  38.887  43.882  12.531
35282W        W 7597  18.720  37.847  12.916
35283W        W 7598   8.311  12.503  13.884
35284W        W 7599  44.866   6.311   3.869
35285W        W 7600   9.691  36.295   0.035
35286W        W 7601  28.960  17.348  12.090
35287W        W 7602  37.528  23.956  10.317
35288W        W 7603  11.223  26.587   0.429
35289W        W 7604  30.128  34.586   0.002
35290W        W 7605  38.735   7.306   1.442
35291W        W 7606  18.766  21.757  13.896
35292W        W 7607   0.481  25.607   2.738
35293W        W 7608  34.578  10.759   1.444
35294W        W 7609   5.175  26.082   0.319
35295W        W 7610  25.628  23.530  12.587
35296W        W 7611  10.970  12.476   3.339
35297W        W 7612   4.430  14.160  11.697
35298W        W 7613   8.347  14.051  14.790
35299W        W 7614  44.271  22.690   5.117
35300W        W 7615  21.015  12.206  14.033
35301W        W 7616  38.621  16.021   2.295
35302W        W 7617  13.160  32.999   0.680
35303W        W 7618  41.841  32.387   4.696
35304W        W 7619   5.866  13.343   0.015
35305W        W 7620  30.099  14.108   0.472
35306W        W 7621  36.661  36.501   2.711
35307W        W 7622  13.704  44.664   1.003
35308W        W 7623  37.358  13.320  14.797
35309W        W 7624  10.418  15.583  12.429
35310W        W 7625  22.185  24.125   1.391
35311W        W 7626   6.004  13.651   1.174
35312W        W 7627  12.840  35.387  11.791
35313W        W 7628   0.808   1.813   0.682
35314W        W 7629  13.906   4.163  11.661
35315W        W 7630  19.553  26.633   4.194
35316W        W 7631  24.525  42.892  10.685
35317W        W 7632  12.865  32.551  12.828
35318W        W 7633  42.041   6.438   2.783
35319W        W 7634  10.603  17.561  11.017
35320W        W 7635  13.278  36.899   2.151
35321W        W 7636  10.755  32.487   4.665
35322W        W 7637  23.240  18.258  13.605
35323W        W 7638  39.519  25.269  12.954
35324W        W 7639  30.146  18.344  13.483
35325W        W 7640  27.216  31.686  11.262
35326W        W 7641  27.167  27.117   0.859
35327W        W 7642  30.599  12.941   4.757
35328W        W 7643  26.761   9.185   4.657
35329W        W 7644  28.277   3.810   4.492
35330W        W 7645   4.125   0.399  13.827
35331W        W 7646   3.431  34.434  13.341
35332W        W 7647  25.756   0.915   1.221
35333W        W 7648  27.700  19.026   3.733
35334W        W 7649  37.861   6.989  14.753
35335W        W 7650  15.368  24.685  13.043
35336W        W 7651   8.687   8.767  12.893
35337W        W 7652  15.692  20.460  11.596
35338W        W 7653  37.570  22.042   1.501
35339W        W 7654  37.379   9.086   0.559
35340W        W 7655  36.501   5.147  11.868
35341W        W 7656   8.258   9.222  10.629
35342W        W 7657  25.967  37.558   1.438
35343W        W 7658  40.726  33.428  12.948
35344W        W 7659  14.611  39.910   1.254
35345W        W 7660   1.361  43.867   3.774
35346W        W 7661  22.583  15.592  14.350
35347W        W 7662  20.016  31.576  12.934
35348W        W 7663  17.580   2.072  12.431
35349W        W 7664  19.243  13.757  14.346
35350W        W 7665  23.591  40.176  11.213
35351W        W 7666   1.274  20.378   1.758
35352W        W 7667   3.443   7.223   1.187
35353W        W 7668  14.571  33.918   3.160
35354W        W 7669  27.246   9.753  11.843
35355W        W 7670  13.754  11.337   2.370
35356W        W 7671  34.098  21.261   3.690
35357W        W 7672  35.181  34.651  13.471
35358W        W 7673   8.295   9.429   2.352
35359W        W 7674  38.565  36.764  11.863
35360W        W 7675  21.080  40.417   2.752
35361W        W 7676  10.792  26.293  10.632
35362W        W 7677  12.782   4.742  12.369
35363W        W 7678   3.729  41.470  12.984
35364W        W 7679  20.673   5.367   3.385
35365W        W 7680   0.191  30.662  14.790
35366W        W 7681  15.276   7.166  11.427
35367W        W 7682   6.713   8.037   1.239
35368W        W 7683  37.152  25.924  11.469
35369W        W 7684   2.790   8.869  13.949
35370W        W 7685   7.076  44.424  13.039
35371W        W 7686  41.242  44.043  13.142
35372W        W 7687  35.707  22.375   4.114
35373W        W 7688  23.521   6.902   1.693
35374W        W 7689  26.685  25.050   3.696
35375W        W 7690  24.044   8.454   1.335
35376W        W 7691   5.924  25.895   3.761
35377W        W 7692   5.269  25.235   1.918
35378W        W 7693   3.466  24.719  11.047
35379W        W 7694  25.509   9.699   1.970
35380W        W 7695  39.101  24.559   2.394
35381W        W 7696  38.406  13.038   1.718
35382W        W 7697  24.051  36.775   0.419
35383W        W 7698  26.462  11.791   0.838
35384W        W 7699  28.542   7.407  12.445
35385W        W 7700   3.800  12.758   0.223
35386W        W 7701  18.157  25.555   2.700
35387W        W 7702  43.948  40.360  11.678
35388W        W 7703   9.674  29.369   3.944
35389W        W 7704  26.420   6.030   4.352
35390W        W 7705  32.585  37.878  12.925
35391W        W 7706   8.815   8.164  11.221
35392W        W 7707   6.572  23.429  11.024
35393W        W 7708   8.834  21.454   4.678
35394W        W 7709   8.692  28.568  14.819
35395W        W 7710  18.050  12.901   1.991
35396W        W 7711   7.372  23.791   1.743
35397W        W 7712  44.827  39.064   2.407
35398W        W 7713  38.912  10.432   0.444
35399W        W 7714   5.861  13.769  13.765
35400W        W 7715  42.503  21.106  14.998
35401W        W 7716  11.396  10.926  12.350
35402W        W 7717  26.525  25.504   2.215
35403W        W 7718  39.081  28.097  14.966
35404W        W 7719  33.078  16.242  12.991
35405W        W 7720  42.290  12.752   0.320
35406W        W 7721  11.254  44.776   3.376
35407W        W 7722  21.133  34.641  14.286
35408W        W 7723  42.432   1.787  14.351
35409W        W 7724  17.061  14.201   3.296
35410W        W 7725   0.941   4.439  12.953
35411W        W 7726   5.234  15.520   1.552
35412W        W 7727  40.800  14.072   0.398
35413W        W 7728   9.677  23.789   3.410
35414W        W 7729  30.124   2.782   1.080
35415W        W 7730  31.614  21.430   1.328
35416W        W 7731   1.233  15.924   0.874
35417W        W 7732  22.949  17.989   3.113
35418W        W 7733  30.500  24.984   3.235
35419W        W 7734  34.649  20.175  14.087
35420W        W 7735  22.347  19.624   5.491
35421W        W 7736  44.936  17.580  10.670
35422W        W 7737  10.360  39.294   3.905
35423W        W 7738   9.234  42.060  14.830
35424W        W 7739  44.834   6.868  13.006
35425W        W 7740  26.185  31.871  13.792
35426W        W 7741   9.208  34.062  13.849
35427W        W 7742  38.329   9.826   0.793
35428W        W 7743  38.168  11.797  11.260
35429W        W 7744   3.062  24.008   3.854
35430W        W 7745  36.149  23.119   0.591
35431W        W 7746  27.537  42.622   2.653
35432W        W 7747  42.983  23.692   4.290
35433W        W 7748  42.792  44.543   0.407
35434W        W 7749  10.430  43.975  11.310
35435W        W 7750  32.676  16.567  14.325
35436W        W 7751  14.480   2.787  12.421
35437W        W 7752   9.109  20.549  14.794
35438W        W 7753  34.497  34.571   1.872
35439W        W 7754  14.275  40.983  13.878
35440W        W 7755   2.951  41.472   1.004
35441W        W 7756  16.171   2.672   0.990
35442W        W 7757  33.047  17.805   2.669
35443W        W 7758  24.559  35.064  10.958
35444W        W 7759  11.819   8.944   1.282
35445W        W 7760  19.681  33.658   5.090
35446W        W 7761   1.735  26.128   3.754
35447W        W 7762   1.240  22.224   4.589
35448W        W 7763  41.063  22.094   4.707
35449W        W 7764  25.040  29.035   0.255
35450W        W 7765   1.690  31.087  13.552
35451W        W 7766  19.526  26.103   4.770
35452W        W 7767   1.729  31.890   3.315
35453W        W 7768  39.797   2.399  12.034
35454W        W 7769  22.174  39.733  14.951
35455W        W 7770  36.004  35.370   2.254
35456W        W 7771  42.159   8.212   3.969
35457W        W 7772  11.838   7.187  12.623
35458W        W 7773  22.611   0.306   0.271
35459W        W 7774  40.458  28.753  13.191
35460W        W 7775  41.239  27.515  13.490
35461W        W 7776  19.459  20.725   0.289
35462W        W 7777  36.008  15.213   2.223
35463W        W 7778   5.239   3.000   0.361
35464W        W 7779  23.737  22.488   5.369
35465W        W 7780  16.285  44.380   4.337
35466W        W 7781   1.420  22.187  14.711
35467W        W 7782  20.420   0.555   1.608
35468W        W 7783  17.927  28.025   4.598
35469W        W 7784  11.702  43.778   1.708
35470W        W 7785  21.133  28.677   2.818
35471W        W 7786   9.310  16.257  12.112
35472W        W 7787  12.727  19.053   2.736
35473W        W 7788   4.124  20.848   3.385
35474W        W 7789   0.446   2.308  13.092
35475W        W 7790   1.313  27.198  12.445
35476W        W 7791  38.977  37.304   3.236
35477W        W 7792   1.895  27.097  10.708
35478W        W 7793  40.498  29.206   2.911
35479W        W 7794  14.847  40.369   2.395
35480W        W 7795  33.020  17.530  13.575
35481W        W 7796  27.042   6.813   5.771
35482W        W 7797  12.311  42.936   4.999
35483W        W 7798  42.095  10.496   2.151
35484W        W 7799  22.123   7.640   4.530
35485W        W 7800  24.258  21.375  12.921
35486W        W 7801  11.446  15.366   3.582
35487W        W 7802  20.900  24.521   4.815
35488W        W 7803  17.772  42.885   1.729
35489W        W 7804  38.503  36.897  14.869
35490W        W 7805  35.540  15.238  13.720
35491W        W 7806  16.301   7.693   4.184
35492W        W 7807  20.152  42.331  12.260
35493W        W 7808  12.176  26.805   2.779
35494W        W 7809  16.810   5.888   4.237
35495W        W 7810  24.149  41.835   2.761
35496W        W 7811   3.395  44.738  10.563
35497W        W 7812  11.798  22.761  12.562
35498W        W 7813  32.994  30.954   4.302
35499W        W 7814  42.408  14.739   1.368
35500W        W 7815  44.281  26.103  13.299
35501W        W 7816  16.797  42.666   0.603
35502W        W 7817  29.735  40.742   0.330
35503W        W 7818   3.400  19.861  11.057
35504W        W 7819   2.265  18.346   2.810
35505W        W 7820   1.744  20.819   4.976
35506W        W 7821  14.023   0.313  13.726
35507W        W 7822  16.703   6.900   4.144
35508W        W 7823   8.831  36.948   4.776
35509W        W 7824  38.404  25.380   1.603
35510W        W 7825  33.538  32.132   1.940
35511W        W 7826  39.075  32.230   4.527
35512W        W 7827   7.309  31.541   2.792
35513W        W 7828  33.211  12.691   3.836
35514W        W 7829  42.382   2.195   0.787
35515W        W 7830  12.721  35.006   1.229
35516W        W 7831  37.009  37.346  12.345
35517W        W 7832  35.040  36.535   0.214
35518W        W 7833  17.676  14.032   1.386
35519W        W 7834  28.412   7.898   0.172
35520W        W 7835  30.031   6.283  14.311
35521W        W 7836  28.341  17.348   0.478
35522W        W 7837  27.926  10.752   2.468
35523W        W 7838  22.016  30.879  14.766
35524W        W 7839  15.030  37.549  10.749
35525W        W 7840  25.134  16.222  10.802
35526W        W 7841  13.144  38.492   0.030
35527W        W 7842  10.123  43.298   2.219
35528W        W 7843  13.953  25.975   4.454
35529W        W 7844  26.431  38.481   1.953
35530W        W 7845  29.361  38.269  13.052
35531W        W 7846   6.189  34.535   3.989
35532W        W 7847  40.078  42.343   4.577
35533W        W 7848  34.848  22.797  12.554
35534W        W 7849  15.282  35.567  14.795
35535W        W 7850  43.450  32.167   3.096
35536W        W 7851  36.494  31.996  12.565
35537W        W 7852  13.224  18.028   1.399
35538W        W 7853  18.236  38.005   1.149
35539W        W 7854  23.748  21.744  13.915
35540W        W 7855   5.172  20.113   0.665
35541W        W 7856  16.849  15.293   0.527
35542W        W 7857  14.727  37.298  12.970
35543W        W 7858   1.008  23.120  11.052
35544W        W 7859  30.112  21.671   4.556
35545W        W 7860   9.300  31.578   1.310
35546W        W 7861  24.994  27.144  11.374
35547W        W 7862  29.937  33.591  10.970
35548W        W 7863   0.309   8.619   4.677
35549W        W 7864  21.328   2.893  14.390
35550W        W 7865  35.929   1.275  12.043
35551W        W 7866  43.836   2.064   3.195
35552W        W 7867  41.610  24.298  11.464
35553W        W 7868  23.004  31.866   0.887
35554W        W 7869  10.503  25.774  11.903
35555W        W 7870  22.097  31.321  11.364
35556W        W 7871   7.376  43.561  12.810
35557W        W 7872  24.758   5.380   1.367
35558W        W 7873   6.318  12.427  11.430
35559W        W 7874   9.397   1.338   2.731
35560W        W 7875   9.845   3.292   4.533
35561W        W 7876  16.287  36.399  14.913
35562W        W 7877  35.651  15.072  14.763
35563W        W 7878  10.691  35.026   1.236
35564W        W 7879  17.693   5.902  14.422
35565W        W 7880   0.005  35.679  12.416
35566W        W 7881  23.328  19.269  14.603
35567W        W 7882   1.469  22.767   3.769
35568W        W 7883  11.672  29.548  10.364
35569W        W 7884  40.756  34.967  11.104
35570W        W 7885  34.202   3.940   4.304
35571W        W 7886  39.587  14.544   1.570
35572W        W 7887  11.663   1.794  11.101
35573W        W 7888   6.742  25.326   3.706
35574W        W 7889   8.735   3.766   4.536
35575W        W 7890  35.021  39.837   1.661
35576W        W 7891   8.809   7.816   2.367
35577W        W 7892   8.669  32.214   3.260
35578W        W 7893  23.733  15.653  11.526
35579W        W 7894   4.287  21.954   1.299
35580W        W 7895  32.686  12.495  14.504
35581W        W 7896  24.200  20.562   0.505
35582W        W 7897  19.289   0.210   3.335
35583W        W 7898  27.702  17.583   4.401
35584W        W 7899   1.022   2.267  11.003
35585W        W 7900  37.588  26.975  13.042
35586W        W 7901  35.890  27.548   2.152
35587W        W 7902  41.451   2.864  14.342
35588W        W 7903  10.093  31.117  10.591
35589W        W 7904   5.333  38.756  11.572
35590W        W 7905   5.834  22.549  12.129
35591W        W 7906  26.760  22.030  12.863
35592W        W 7907  29.943   5.955   0.718
35593W        W 7908  16.466  13.307  11.455
35594W        W 7909  14.374   1.175   4.195
35595W        W 7910  21.933   6.411  13.360
35596W        W 7911   7.122  43.321   4.787
35597W        W 7912  19.636   8.691   2.917
35598W        W 7913  14.086  44.242   1.305
35599W        W 7914  21.385  29.350   0.588
35600W        W 7915  42.362  44.487   1.455
35601W        W 7916   4.064  38.354  12.457
35602W        W 7917  29.660  24.006  14.428
35603W        W 7918  22.718  33.014   2.827
35604W        W 7919  30.212   3.785   4.646
35605W        W 7920   2.262  23.498  13.557
35606W        W 7921  23.677  18.235   4.396
35607W        W 7922  28.970  43.533   3.570
35608W        W 7923  26.030  26.515  12.927
35609W        W 7924   2.343   1.951  13.364
35610W        W 7925  29.436  42.832   4.141
35611W        W 7926  24.057  35.112  13.284
35612W        W 7927  43.983  14.249  11.102
35613W        W 7928  19.140  19.707  10.715
35614W        W 7929   3.119  29.070   0.203
35615W        W 7930  24.764   8.681  12.886
35616W        W 7931   1.165   5.156   3.729
35617W        W 7932  12.304  40.995   3.672
35618W        W 7933  13.070  25.715   3.363
35619W        W 7934  19.251  31.469   2.850
35620W        W 7935   8.338  43.311   1.733
35621W        W 7936   1.660  14.012  11.552
35622W        W 7937  37.432   0.422  13.373
35623W        W 7938  22.457   3.932  14.582
35624W        W 7939  44.933   2.421   0.748
35625W        W 7940   4.116  43.018  12.580
35626W        W 7941  38.529  34.417   1.365
35627W        W 7942   7.717   8.692  12.120
35628W        W 7943   0.723  43.189  13.973
35629W        W 7944  13.625   2.712   0.451
35630W        W 7945  26.568  24.293  13.845
35631W        W 7946  20.162   8.877   4.569
35632W        W 7947   7.194   9.140  13.495
35633W        W 7948  13.870  17.833   4.510
35634W        W 7949  33.880   5.249   1.217
35635W        W 7950   8.981  34.639  12.210
35636W        W 7951  36.924  36.719   1.678
35637W        W 7952  44.959   3.454  10.462
35638W        W 7953  33.621  18.114   3.718
35639W        W 7954   5.628  40.845   0.850
35640W        W 7955  26.239  33.513  11.708
35641W        W 7956  22.783  11.028   4.529
35642W        W 7957  23.002  15.878   3.544
35643W        W 7958  44.380  10.213  12.067
35644W        W 7959  40.050  34.475   1.414
35645W        W 7960  37.255  14.269  14.938
35646W        W 7961   7.144  26.350   4.546
35647W        W 7962  33.681   1.021  12.472
35648W        W 7963  29.484  24.976  11.204
35649W        W 7964  40.993  40.364   4.122
35650W        W 7965   5.194  26.053  14.755
35651W        W 7966   5.421  28.483   2.185
35652W        W 7967  27.651   7.846  10.833
35653W        W 7968  25.374  34.065   3.393
35654W        W 7969  44.965  23.471   1.811
35655W        W 7970  42.403  40.581  12.210
35656W        W 7971   0.605  37.915  14.749
35657W        W 7972  44.738   1.843  14.781
35658W        W 7973  18.021  25.553   0.334
35659W        W 7974  37.341   9.094  11.478
35660W        W 7975  31.118  13.090  10.291
35661W        W 7976   9.321  36.952  10.971
35662W        W 7977  14.290  33.616  12.050
35663W        W 7978   7.206  16.522  12.840
35664W        W 7979   5.763  44.925  12.782
35665W        W 7980  16.586   4.829  13.551
35666W        W 7981   9.345  30.992   4.761
35667W        W 7982   3.868   8.658   2.418
35668W        W 7983  16.676  14.809   0.485
35669W        W 7984  35.474  17.675   2.691
35670W        W 7985  24.152  13.710  14.853
35671W        W 7986  25.487  35.046   2.632
35672W        W 7987  20.731  16.652   1.401
35673W        W 7988   4.150   0.829  13.484
35674W        W 7989  25.358   9.136   0.849
35675W        W 7990  30.493  35.160  11.465
35676W        W 7991  28.160   1.848  10.318
35677W        W 7992  35.571  28.488   1.003
35678W        W 7993  30.032  11.328   0.007
35679W        W 7994   4.822  43.827   3.544
35680W        W 7995  17.370  39.249  11.457
35681W        W 7996  12.192  42.823  10.467
35682W        W 7997   6.690  14.557   3.379
35683W        W 7998  23.632   3.384   1.842
35684W        W 7999  12.159  32.056   9.862
35685W        W 8000  42.370   8.321   5.217
35686W        W 8001  15.189  44.098   2.873
35687W        W 8002  35.457  43.995   0.196
35688W        W 8003   6.356  37.970   1.104
35689W        W 8004  22.963   8.882  14.009
35690W        W 8005  35.583  20.109  13.062
35691W        W 8006   4.469  36.867  11.524
35692W        W 8007  38.149  36.782   3.567
35693W        W 8008  40.540  40.086   4.219
35694W        W 8009  25.016  18.262  14.902
35695W        W 8010  17.753  39.620   3.359
35696W        W 8011  15.351  30.550  11.025
35697W        W 8012  29.057  13.537   2.194
35698W        W 8013  30.456  17.882  11.195
35699W        W 8014  26.091  13.260   1.919
35700W        W 8015  36.945  32.638  10.786
35701W        W 8016   4.874  10.667   3.019
35702W        W 8017   9.604  13.409  10.647
35703W        W 8018  27.087  17.256   5.009
35704W        W 8019  18.553  29.139  12.926
35705W        W 8020   5.352  33.472   3.311
35706W        W 8021  20.583  27.333   1.463
35707W        W 8022  17.234  28.236  13.399
35708W        W 8023   0.930   4.489   1.345
35709W        W 8024  12.928  12.109   0.131
35710W        W 8025   4.117  13.577  14.784
35711W        W 8026  28.732   1.065   4.709
35712W        W 8027  21.773  21.235   3.052
35713W        W 8028   3.139  39.542   2.838
35714W        W 8029  38.035   0.952   4.139
35715W        W 8030   0.403  27.376   0.368
35716W        W 8031  28.306  10.583   2.790
35717W        W 8032  38.523  19.069  13.411
35718W        W 8033  44.818  23.502  12.502
35719W        W 8034  14.695   7.206   4.289
35720W        W 8035  30.645   3.371   2.920
35721W        W 8036  15.780  26.113  13.863
35722W        W 8037  30.686  28.344   3.262
35723W        W 8038  33.833  34.977   3.851
35724W        W 8039  21.196  39.905  12.559
35725W        W 8040  17.740  18.623   0.541
35726W        W 8041  16.779  15.928  10.975
35727W        W 8042  34.509  38.069   3.289
35728W        W 8043   5.373  26.549   0.551
35729W        W 8044  37.296  26.975  10.624
35730W        W 8045  21.995  36.865  11.500
35731W        W 8046   5.800  12.706   2.812
35732W        W 8047  20.572  13.589  13.600
35733W        W 8048  40.886   7.719  11.569
35734W        W 8049   1.748  11.402   0.713
35735W        W 8050   0.334  31.512   4.463
35736W        W 8051   4.645   6.170   2.786
35737W        W 8052  21.542   7.327   4.625
35738W        W 8053   3.784  19.627  13.418
35739W        W 8054  11.213   8.898   1.846
35740W        W 8055  19.057  17.651  12.293
35741W        W 8056  13.576  21.073   1.648
35742W        W 8057  25.879  19.906  14.065
35743W        W 8058  11.747   3.420  13.994
35744W        W 8059  32.909  16.156  13.985
35745W        W 8060   5.269  10.848   2.219
35746W        W 8061   7.260  44.106   2.949
35747W        W 8062  22.213  43.484   3.752
35748W        W 8063  14.867  41.389  13.378
35749W        W 8064  34.918  24.289  13.536
35750W        W 8065  41.416  14.198  11.171
35751W        W 8066  39.084  38.693   3.778
35752W        W 8067   4.723  39.579  10.373
35753W        W 8068  23.299  43.987   4.234
35754W        W 8069  42.592   4.157   0.850
35755W        W 8070  42.727  25.673  12.162
35756W        W 8071  29.299  35.821   4.294
35757W        W 8072   3.734  41.298  13.479
35758W        W 8073  21.907  12.851   4.933
35759W        W 8074  32.560   7.268  12.967
35760W        W 8075  11.686   4.597   4.447
35761W        W 8076  13.814  44.505  13.384
35762W        W 8077  10.927   6.818  13.343
35763W        W 8078  10.358  25.886   2.382
35764W        W 8079  38.828   1.749  13.678
35765W        W 8080  25.146  39.564   1.846
35766W        W 8081  26.522  41.817   3.646
35767W        W 8082   8.315  16.194   1.452
35768W        W 8083   2.166   8.365   2.281
35769W        W 8084  19.664  14.833  13.887
35770W        W 8085  43.551   4.681  11.101
35771W        W 8086  17.316  40.025  14.077
35772W        W 8087  43.059  22.234   3.306
35773W        W 8088  30.033  39.847   1.485
35774W        W 8089  25.626  43.304  13.119
35775W        W 8090  13.109   8.866   2.326
35776W        W 8091  17.335   1.784  10.099
35777W        W 8092  43.496   2.295   2.868
35778W        W 8093  43.521  35.222   1.314
35779W        W 8094   3.474   4.088  12.102
35780W        W 8095  41.896  13.427  11.231
35781W        W 8096  35.352  19.371  10.815
35782W        W 8097  10.160  35.897  12.068
35783W        W 8098  27.115  11.197  10.031
35784W        W 8099   0.486  37.644  13.567
35785W        W 8100  10.283   6.903  14.984
35786W        W 8101  29.641   7.772   1.945
35787W        W 8102   5.414  39.113  10.820
35788W        W 8103   0.965  23.942   0.757
35789W        W 8104   1.440  27.782  13.636
35790W        W 8105  29.633  10.648  14.713
35791W        W 8106  23.638  13.342   0.707
35792W        W 8107  13.407  14.326  14.262
35793W        W 8108  13.315   3.281   0.785
35794W        W 8109  13.013   8.948  12.473
35795W        W 8110  43.710  42.844   4.213
35796W        W 8111  14.557  40.272  14.710
35797W        W 8112  40.337  15.164   4.500
35798W        W 8113  21.153  39.532  12.194
35799W        W 8114  40.072   4.927  10.574
35800W        W 8115  16.866  33.913   1.798
35801W        W 8116   1.566  12.428   2.861
35802W        W 8117  30.973  10.386  13.956
35803W        W 8118  26.716  31.061  11.959
35804W        W 8119  32.758  35.969   1.816
35805W        W 8120  38.960  11.120  11.547
35806W        W 8121  11.956  23.773   2.591
35807W        W 8122   8.956  27.670  13.743
35808W        W 8123  19.137   8.644  12.018
35809W        W 8124   2.352  34.579   0.531
35810W        W 8125   5.201  31.689   0.923
35811W        W 8126  39.535  26.288   3.511
35812W        W 8127  33.098  24.123  11.329
35813W        W 8128  39.295  36.101  14.504
35814W        W 8129  33.143  29.895   1.373
35815W        W 8130   4.447  38.935   2.880
35816W        W 8131   2.491  18.161   1.763
35817W        W 8132  10.190  32.931   0.253
35818W        W 8133  11.210  34.856  12.615
35819W        W 8134  42.275  37.937  11.138
35820W        W 8135   9.932  30.790  12.235
35821W        W 8136   0.906   6.751  12.041
35822W        W 8137  38.824   8.906   3.129
35823W        W 8138  17.007  30.402   4.090
35824W        W 8139  21.689  24.057  12.832
35825W        W 8140   9.754  14.854   4.698
35826W        W 8141   7.881  36.434   3.201
35827W        W 8142   4.990  25.478   4.068
35828W        W 8143   4.272  30.898  10.941
35829W        W 8144   6.835   6.047   5.133
35830W        W 8145   1.644  37.931  12.231
35831W        W 8146   0.393  18.899   4.240
35832W        W 8147  44.791  32.341   1.832
35833W        W 8148   3.393  29.092  12.522
35834W        W 8149  13.774   6.945  11.215
35835W        W 8150  37.381   8.505  10.333
35836W        W 8151  36.423   4.644   3.941
35837W        W 8152  22.902  32.519   0.218
35838W        W 8153   7.065  36.523   1.683
35839W        W 8154  42.304  14.329   3.682
35840W        W 8155   3.444  12.396  14.934
35841W        W 8156  13.319  11.694   4.598
35842W        W 8157  23.718   6.083  11.165
35843W        W 8158  28.747  37.888   0.859
35844W        W 8159  32.991  14.267   0.259
35845W        W 8160  42.020   8.918   0.461
35846W        W 8161  24.986  12.053  11.165
35847W        W 8162  32.836  21.155   4.288
35848W        W 8163   0.683   3.226  13.287
35849W        W 8164  40.576   6.284   3.019
35850W        W 8165  35.830  18.156   4.565
35851W        W 8166  24.242   0.233  14.415
35852W        W 8167  22.479  20.645   3.875
35853W        W 8168  35.608   8.932   2.281
35854W        W 8169   1.697   5.435  13.317
35855W        W 8170  17.751  11.079  14.897
35856W        W 8171  15.712  10.837  12.876
35857W        W 8172  10.359  38.856  10.675
35858W        W 8173  40.012  41.345   1.158
35859W        W 8174  16.997  39.267   2.285
35860W        W 8175  17.984  31.095   2.496
35861W        W 8176  15.691  13.246  14.325
35862W        W 8177  34.505  31.945   2.119
35863W        W 8178  27.529  31.519   2.436
35864W        W 8179  36.803   5.116   4.079
35865W        W 8180  39.878   3.484   0.883
35866W        W 8181  17.734  30.603  10.881
35867W        W 8182  30.811  34.670  14.290
35868W        W 8183  29.287  39.779  13.181
35869W        W 8184  24.273  37.013  11.991
35870W        W 8185  21.163  22.084  12.126
35871W        W 8186  18.660  13.352  12.143
35872W        W 8187  39.575  18.680   3.227
35873W        W 8188   0.478   7.877   4.212
35874W        W 8189  44.202  29.182  11.099
35875W        W 8190  43.748  37.989   1.155
35876W        W 8191  36.945   0.031  12.470
35877W        W 8192  34.776   9.802   1.734
35878W        W 8193  24.669  44.428   4.615
35879W        W 8194  22.031  15.195   4.009
35880W        W 8195  12.675  34.598   2.148
35881W        W 8196  31.022   0.001   1.964
35882W        W 8197  44.439  27.646  11.321
35883W        W 8198  16.609  16.892  12.924
35884W        W 8199   6.182  43.998  14.090
35885W        W 8200  40.980  22.555   2.418
35886W        W 8201  18.271   2.926  11.116
35887W        W 8202  40.511  11.050  13.025
35888W        W 8203  43.479  33.843  13.932
35889W        W 8204  17.138  29.023   0.337
35890W        W 8205  21.508  38.048  14.569
35891W        W 8206  42.968  22.461  10.658
35892W        W 8207   0.415  14.373   4.040
35893W        W 8208  19.985  23.008  10.999
35894W        W 8209   1.180  17.777   1.770
35895W        W 8210  11.364  21.093  10.567
35896W        W 8211   2.645  24.412   3.200
35897W        W 8212  38.765   6.286   3.770
35898W        W 8213  40.367  33.534  14.991
35899W        W 8214  22.603  12.434  11.579
35900W        W 8215  35.285  28.627  11.487
35901W        W 8216  28.908   7.043  11.565
35902W        W 8217  24.633  20.272  12.194
35903W        W 8218  27.201  33.909  11.424
35904W        W 8219   8.396  11.856  13.420
35905W        W 8220   4.184  33.380   1.870
35906W        W 8221  28.010  34.956   3.747
35907W        W 8222  29.639  24.725  10.106
35908W        W 8223  13.198  38.007   2.608
35909W        W 8224  21.015  34.480  13.779
35910W        W 8225  39.058  34.484   4.216
35911W        W 8226  10.653  31.465   2.363
35912W        W 8227  43.663   7.424  11.493
35913W        W 8228  44.426  42.454  12.070
35914W        W 8229  28.271  18.627   0.227
35915W        W 8230  25.681   9.307   3.758
35916W        W 8231  21.189   4.222   1.188
35917W        W 8232  22.170  30.146   1.811
35918W        W 8233  41.550  11.545   3.815
35919W        W 8234  34.426  28.082   1.538
35920W        W 8235   8.383  16.057  13.558
35921W        W 8236  28.040   7.908   5.062
35922W        W 8237  24.784  25.658  12.743
35923W        W 8238  11.441  22.593   3.558
35924W        W 8239  24.428  43.938   0.208
35925W        W 8240  21.432  30.847   2.436
35926W        W 8241  21.251  41.232  13.153
35927W        W 8242  17.304   8.704  10.558
35928W        W 8243   3.654  11.810   0.205
35929W        W 8244  22.588  33.507  11.120
35930W        W 8245  20.447   3.191   3.783
35931W        W 8246  31.465  20.034  11.164
35932W        W 8247  21.420  32.931   2.650
35933W        W 8248  25.430  40.226  11.037
35934W        W 8249  36.902  43.289  14.055
35935W        W 8250  35.404  27.021   0.038
35936W        W 8251  25.671  35.382  10.691
35937W        W 8252   5.665  16.094  13.844
35938W        W 8253  37.920  41.911   0.215
35939W        W 8254  39.885  43.882   2.870
35940W        W 8255   5.876  12.189   4.519
35941W        W 8256  40.273   6.257  13.140
35942W        W 8257   6.118  13.372  11.042
35943W        W 8258   0.792  35.397   1.034
35944W        W 8259  26.642  23.103   0.743
35945W        W 8260  31.138  34.808  12.069
35946W        W 8261   8.612  11.293   4.539
35947W        W 8262   8.315  34.988  14.251
35948W        W 8263  31.604   9.551   2.990
35949W        W 8264   9.066  19.547  14.508
35950W        W 8265  36.900  12.412  11.985
35951W        W 8266  24.033   0.258  13.607
35952W        W 8267  13.684   8.860  12.012
35953W        W 8268   1.674  24.310   1.312
35954W        W 8269   6.703   6.313  14.438
35955W        W 8270   1.411  40.988  10.599
35956W        W 8271  26.650  30.660   4.132
35957W        W 8272  33.475  23.689  13.518
35958W        W 8273  40.966  37.408   5.103
35959W        W 8274  21.655  30.406   1.750
35960W        W 8275  40.500  19.244  10.922
35961W        W 8276   2.739   5.915  12.099
35962W        W 8277  20.143  15.311  11.960
35963W        W 8278  11.105  26.944   0.011
35964W        W 8279  33.165  38.037  11.843
35965W        W 8280  12.104   2.964   0.864
35966W        W 8281   0.530   2.596   3.229
35967W        W 8282   9.200  13.795  11.857
35968W        W 8283  26.087  26.962  13.182
35969W        W 8284  37.914  27.600   3.483
35970W        W 8285  14.203  19.141   4.643
35971W        W 8286  25.693  23.644  11.623
35972W        W 8287  26.275   6.758  14.792
35973W        W 8288  27.441  23.650   1.287
35974W        W 8289   7.829  41.535  10.777
35975W        W 8290  43.908  25.326  14.078
35976W        W 8291  10.239  28.160   3.726
35977W        W 8292  37.313   2.137  10.556
35978W        W 8293   5.018   6.755   1.891
35979W        W 8294  15.095  32.269   1.135
35980W        W 8295   5.317  31.636  12.459
35981W        W 8296  11.675  38.541  13.244
35982W        W 8297   5.760  11.147  10.408
35983W        W 8298  35.116   6.287   2.325
35984W        W 8299  41.347  18.732  14.429
35985W        W 8300  29.500  30.167   1.977
35986W        W 8301  21.094  30.193   3.689
35987W        W 8302  25.689  40.830   4.247
35988W        W 8303  23.676  17.655  12.549
35989W        W 8304  10.881  10.179   4.514
35990W        W 8305  32.449  17.349  12.165
35991W        W 8306  30.703  21.614  12.178
35992W        W 8307  13.294  11.378   1.201
35993W        W 8308  41.358  16.209  13.812
35994W        W 8309  25.053  39.431  10.449
35995W        W 8310  29.911   6.597  13.266
35996W        W 8311  19.651  29.158   0.781
35997W        W 8312  23.560  40.072   2.316
35998W        W 8313  10.263  29.824   1.947
35999W        W 8314  39.465  25.097  14.255
36000W        W 8315  16.244  29.545   2.154
36001W        W 8316   0.063  31.226  14.036
36002W        W 8317  31.201  27.852  12.457
36003W        W 8318  22.906  17.176   1.506
36004W        W 8319   5.350  40.674  11.569
36005W        W 8320  35.033   8.951  11.045
36006W        W 8321  38.932   8.791  14.047
36007W        W 8322  11.233  43.264   4.298
36008W        W 8323  40.354   4.880  11.480
36009W        W 8324  23.608  37.866  12.986
36010W        W 8325   3.496  33.371   4.156
36011W        W 8326  42.509  21.710   1.822
36012W        W 8327   5.119  41.263   5.196
36013W        W 8328  19.429  28.793   2.846
36014W        W 8329   5.823  21.026  12.932
36015W        W 8330  11.180  40.525  10.590
36016W        W 8331   3.868  31.436   0.735
36017W        W 8332  13.097   3.292   1.256
36018W        W 8333  40.833  33.125   3.191
36019W        W 8334  42.392  35.353  13.062
36020W        W 8335  16.188  33.555   3.763
36021W        W 8336   2.383   1.810  14.459
36022W        W 8337  12.751  34.093  14.989
36023W        W 8338  10.805  24.194  12.758
36024W        W 8339  28.466  41.565  11.701
36025W        W 8340  19.754   8.460   0.822
36026W        W 8341  26.532   2.160   3.799
36027W        W 8342  28.305  19.731  13.533
36028W        W 8343  11.397  28.655  10.611
36029W        W 8344   4.472  40.978  10.618
36030W        W 8345  14.070  29.005  12.127
36031W        W 8346  40.788  24.009  11.944
36032W        W 8347  32.526  31.391   4.455
36033W        W 8348  27.403  18.261  14.517
36034W        W 8349  18.607  34.608   3.163
36035W        W 8350   3.833  15.150   1.852
36036W        W 8351   5.527   6.758   1.865
36037W        W 8352  23.410  28.160   2.773
36038W        W 8353   0.345   0.780  11.020
36039W        W 8354  20.202  30.089   4.141
36040W        W 8355  17.356  15.624  14.230
36041W        W 8356  41.939  31.473   4.980
36042W        W 8357   0.496  43.285  12.143
36043W        W 8358  18.822  10.857  11.845
36044W        W 8359  30.571  12.244   2.460
36045W        W 8360   3.303   6.666  12.085
36046W        W 8361   6.249  16.764  12.873
36047W        W 8362  23.198  24.871   4.914
36048W        W 8363  22.995  37.794  11.602
36049W        W 8364  24.006  28.430  13.019
36050W        W 8365  27.980  34.644  14.663
36051W        W 8366  11.341   8.427   2.645
36052W        W 8367  16.781  36.823  11.195
36053W        W 8368  40.605  20.661  14.977
36054W        W 8369   4.056   7.807  14.803
36055W        W 8370  27.103   7.682  10.560
36056W        W 8371  18.068  39.317  10.742
36057W        W 8372  27.392  40.196  11.251
36058W        W 8373  27.993  22.850   2.760
36059W        W 8374  30.489  11.587   2.620
36060W        W 8375   1.610  44.289   3.625
36061W        W 8376  32.173  38.330   4.541
36062W        W 8377   2.554  23.943  13.409
36063W        W 8378  33.887  33.140  14.382
36064W        W 8379  26.685  12.174  12.407
36065W        W 8380  38.069  36.939   4.456
36066W        W 8381   0.775   1.801  14.761
36067W        W 8382  12.349  10.114   3.635
36068W        W 8383  35.531  28.227   4.345
36069W        W 8384  32.426   6.169   4.237
36070W        W 8385  28.104  22.761  14.923
36071W        W 8386  39.319  28.947  12.779
36072W        W 8387  44.890  15.321   0.307
36073W        W 8388  16.628   2.243  14.587
36074W        W 8389  11.713  13.317  11.486
36075W        W 8390  18.510  31.725   0.264
36076W        W 8391  17.087  35.314  13.508
36077W        W 8392   8.827  31.197   1.777
36078W        W 8393  38.261  18.551   0.939
36079W        W 8394  39.968  25.449  12.774
36080W        W 8395  17.880  25.611  11.517
36081W        W 8396  23.746  12.778   1.429
36082W        W 8397  36.579  20.955  13.250
36083W        W 8398  21.342  29.588  13.587
36084W        W 8399  13.658  24.372   1.282
36085W        W 8400  13.054  33.455  13.487
36086W        W 8401   9.621  19.861  12.449
36087W        W 8402  36.491  28.140  10.582
36088W        W 8403  44.401  17.687   4.359
36089W        W 8404   1.864  30.115  14.806
36090W        W 8405  18.551   4.564   3.158
36091W        W 8406  33.624   3.169   3.299
36092W        W 8407  34.550  38.913  11.432
36093W        W 8408  40.503  12.611  12.195
36094W        W 8409  35.797  34.495  12.148
36095W        W 8410  44.272  43.418   3.220
36096W        W 8411  41.545  39.045   4.914
36097W        W 8412  16.619  11.825   3.470
36098W        W 8413   8.357  29.297   3.780
36099W        W 8414   2.317  41.438   0.368
36100W        W 8415  39.870  16.061  12.972
36101W        W 8416  10.966  17.109   2.756
36102W        W 8417   5.416  11.577   1.155
36103W        W 8418  15.419  41.308  11.950
36104W        W 8419   8.352  14.153   2.293
36105W        W 8420   7.873   4.318   1.399
36106W        W 8421  42.535  23.262   1.772
36107W        W 8422  30.434  26.693   1.305
36108W        W 8423  16.609  24.977   1.919
36109W        W 8424  40.367  23.232  12.641
36110W        W 8425   6.937  41.029   1.849
36111W        W 8426  22.644  42.500   3.864
36112W        W 8427  10.109   6.912   9.568
36113W        W 8428   7.459  41.861  12.056
36114W        W 8429  10.662  14.824   4.783
36115W        W 8430  35.024   2.327  10.969
36116W        W 8431  10.587  41.321   0.858
36117W        W 8432   8.696   7.914   3.678
36118W        W 8433  43.953  38.479   1.035
36119W        W 8434   2.339   3.815  12.186
36120W        W 8435  40.745  38.670   0.837
36121W        W 8436  29.454   3.058   1.423
36122W        W 8437  11.847  30.416   3.385
36123W        W 8438  21.554   6.796   0.837
36124W        W 8439  14.222  20.211   0.917
36125W        W 8440   0.610  10.324  13.088
36126W        W 8441  37.508  30.613   0.371
36127W        W 8442  39.592  18.165  12.106
36128W        W 8443  16.833  28.515   1.717
36129W        W 8444  22.450   8.432  12.018
36130W        W 8445   4.743  12.598  11.163
36131W        W 8446  29.049  11.193  12.319
36132W        W 8447   8.010  21.046  12.532
36133W        W 8448  41.909  23.108  14.334
36134W        W 8449  27.854  15.668  13.396
36135W        W 8450  43.922  10.164   2.655
36136W        W 8451  16.195  40.080   1.249
36137W        W 8452  34.663  13.605   1.368
36138W        W 8453   6.256   2.133   4.757
36139W        W 8454  12.974   6.431  10.292
36140W        W 8455   1.344   6.969   4.339
36141W        W 8456  27.050  31.027   1.324
36142W        W 8457   0.474  39.204  12.942
36143W        W 8458  30.101  43.832   3.906
36144W        W 8459  30.798  11.816   2.246
36145W        W 8460  24.741  41.971   0.028
36146W        W 8461  12.832  15.573  13.113
36147W        W 8462  16.892  34.012   0.047
36148W        W 8463   7.773   1.716  14.463
36149W        W 8464  38.396  31.121  12.590
36150W        W 8465   9.004   6.740  13.710
36151W        W 8466  10.358   0.765   3.645
36152W        W 8467  10.362   6.400  12.072
36153W        W 8468  44.406  40.679   0.923
36154W        W 8469  18.017   8.822  13.473
36155W        W 8470  33.473  41.529  11.584
36156W        W 8471  41.780  42.975   2.378
36157W        W 8472  39.011  41.351  14.935
36158W        W 8473  37.416   9.600   4.256
36159W        W 8474   6.354  33.917  14.757
36160W        W 8475   8.728  26.220   0.079
36161W        W 8476  41.317  17.570  13.795
36162W        W 8477  10.294  42.224   3.659
36163W        W 8478  36.798  34.099  10.884
36164W        W 8479  41.267   6.734  13.592
36165W        W 8480  21.149  15.346  14.266
36166W        W 8481  17.839  30.230  14.408
36167W        W 8482  22.981  21.299  10.694
36168W        W 8483   8.809  15.786  11.690
36169W        W 8484  38.383  43.052   2.093
36170W        W 8485  12.346  23.141  14.300
36171W        W 8486   0.256   1.762  13.840
36172W        W 8487  19.892  22.870   2.473
36173W        W 8488  11.167  12.119   4.314
36174W        W 8489   6.224  15.560   0.259
36175W        W 8490  25.285  23.105  11.140
36176W        W 8491   5.999  13.434   4.174
36177W        W 8492  18.608   2.148  13.018
36178W        W 8493  21.575  43.804   2.699
36179W        W 8494  16.234  40.534  10.181
36180W        W 8495  35.140  17.130   0.883
36181W        W 8496  30.361   1.010   1.375
36182W        W 8497  42.238  28.018  13.932
36183W        W 8498  43.376  38.891  10.810
36184W        W 8499  14.187   7.649  11.866
36185W        W 8500  29.380  27.996   4.981
36186W        W 8501   2.583  35.337  12.799
36187W        W 8502  26.153  36.053  13.105
36188W        W 8503   9.937  31.178  13.820
36189W        W 8504  27.448   9.475   1.305
36190W        W 8505  13.175  19.634  11.708
36191W        W 8506  18.201  37.917  14.832
36192W        W 8507  43.409   0.023   1.852
36193W        W 8508  15.793  40.406  13.283
36194W        W 8509  33.428   5.994   4.230
36195W        W 8510  17.060  32.725  14.473
36196W        W 8511   7.100  32.297  13.886
36197W        W 8512   8.275  30.607  14.121
36198W        W 8513  19.291  21.186   2.879
36199W        W 8514  34.643   3.396   0.249
36200W        W 8515  19.887  27.951   0.976
36201W        W 8516  38.306  13.866   4.057
36202W        W 8517  20.093  23.188   0.012
36203W        W 8518  16.591  12.603   3.097
36204W        W 8519   2.017  38.259  12.120
36205W        W 8520  43.300  32.113   3.989
36206W        W 8521  44.024  25.601  13.342
36207W        W 8522  10.879   0.676  14.677
36208W        W 8523  22.524   6.026   3.877
36209W        W 8524   3.938  25.212  14.822
36210W        W 8525  30.813  17.151  13.873
36211W        W 8526  32.360  40.268   4.680
36212W        W 8527  38.569   1.829  10.717
36213W        W 8528   9.886  38.279   1.378
36214W        W 8529  36.993  24.043   3.221
36215W        W 8530  30.424  27.947   4.141
36216W        W 8531  36.341  12.064   3.103
36217W        W 8532  18.230   2.241   3.197
36218W        W 8533  35.498  44.435   1.997
36219W        W 8534  12.433  14.957   2.038
36220W        W 8535   7.226  21.714   2.150
36221W        W 8536  12.066  26.271   1.873
36222W        W 8537  24.038  21.647   5.608
36223W        W 8538  31.951  33.074  10.720
36224W        W 8539  35.675  36.958   1.970
36225W        W 8540  26.106  33.839   5.546
36226W        W 8541  21.131  13.061   0.836
36227W        W 8542   9.812  24.525  11.937
36228W        W 8543  32.859   3.709   2.318
36229W        W 8544  36.329  17.670  13.474
36230W        W 8545  35.850  23.784   2.138
36231W        W 8546  26.131  41.094   3.721
36232W        W 8547  10.679  20.348   3.877
36233W        W 8548   0.403  19.580  11.156
36234W        W 8549   6.956  18.460  11.578
36235W        W 8550  33.696  42.652   4.730
36236W        W 8551  27.683  34.910  13.430
36237W        W 8552  25.729   4.932  14.129
36238W        W 8553  11.284  22.070  12.945
36239W        W 8554  40.514  39.858   0.308
36240W        W 8555  17.462  37.053   1.447
36241W        W 8556  21.213  33.359   4.627
36242W        W 8557  26.876  33.620  11.103
36243W        W 8558  40.727  26.023  10.198
36244W        W 8559  14.168  41.006  14.835
36245W        W 8560  41.764  30.795  11.529
36246W        W 8561  41.338  35.062   2.273
36247W        W 8562  11.402   1.193  12.970
36248W        W 8563  40.426   7.506  11.424
36249W        W 8564  40.778  13.431  12.459
36250W        W 8565  35.325  30.952  11.488
36251W        W 8566  41.569   0.397  14.357
36252W        W 8567   0.296  43.932   3.643
36253W        W 8568   4.813  35.486   3.968
36254W        W 8569  42.023   0.213  10.714
36255W        W 8570  24.414  19.126  13.300
36256W        W 8571  22.769  33.110   1.329
36257W        W 8572  13.591  29.507  10.621
36258W        W 8573  39.275  26.461   9.694
36259W        W 8574  36.126   6.635   2.900
36260W        W 8575  41.496  41.051   3.385
36261W        W 8576  18.075  39.215  10.231
36262W        W 8577  30.964   0.320  13.590
36263W        W 8578  29.181  42.837  14.264
36264W        W 8579  23.500  26.979   3.791
36265W        W 8580  20.134   3.263   2.281
36266W        W 8581  29.187   1.842   2.852
36267W        W 8582  20.748  29.274   1.970
36268W        W 8583  17.514  10.658   1.205
36269W        W 8584  36.472  13.800   4.705
36270W        W 8585  22.125   2.859   3.797
36271W        W 8586  36.902  10.071   0.422
36272W        W 8587  34.811  12.380  14.438
36273W        W 8588  21.565  16.610  11.628
36274W        W 8589   4.094  26.517   0.545
36275W        W 8590  29.551   5.131  14.164
36276W        W 8591  22.726  18.561   1.268
36277W        W 8592  10.591  33.910  10.715
36278W        W 8593  22.351  19.536  13.375
36279W        W 8594  31.552  38.980  14.755
36280W        W 8595  21.152  23.678   4.279
36281W        W 8596  30.997  16.131   1.850
36282W        W 8597   3.498  41.854   2.338
36283W        W 8598  13.032  42.884  11.773
36284W        W 8599  40.429  42.056   3.244
36285W        W 8600  16.550  40.392   1.807
36286W        W 8601  12.794  21.234   3.987
36287W        W 8602  40.433  20.070   3.269
36288W        W 8603  36.974  19.845   0.186
36289W        W 8604  38.065  32.897   0.505
36290W        W 8605   0.922  23.158   1.180
36291W        W 8606  24.648  15.281  12.075
36292W        W 8607   1.784   2.470  14.409
36293W        W 8608   0.485  25.241   3.117
36294W        W 8609  23.440  30.646   4.185
36295W        W 8610  17.393   2.482   0.346
36296W        W 8611   5.115  29.513  13.555
36297W        W 8612  33.139  42.362   3.911
36298W        W 8613  35.528  37.853  11.805
36299W        W 8614  34.380  37.506  11.962
36300W        W 8615  16.178   4.703   4.596
36301W        W 8616  10.228  37.662   5.034
36302W        W 8617   9.811  15.160   1.475
36303W        W 8618   4.903  36.630   4.098
36304W        W 8619  13.321  12.619  12.665
36305W        W 8620  29.012  37.417  14.200
36306W        W 8621  44.843  44.062  12.878
36307W        W 8622  43.330  44.022  11.954
36308W        W 8623  34.140  10.842   3.744
36309W        W 8624   3.284  34.880  13.030
36310W        W 8625  22.347  18.126  12.458
36311W        W 8626  41.034   0.273  11.584
36312W        W 8627   7.054  12.922   0.742
36313W        W 8628  17.683   9.184  13.619
36314W        W 8629   8.214   5.372   4.176
36315W        W 8630  31.026  22.749  14.389
36316W        W 8631  36.686  30.533  10.371
36317W        W 8632  30.516  21.482   0.234
36318W        W 8633  32.441   4.794   1.946
36319W        W 8634  22.539  41.093  13.828
36320W        W 8635  21.235   8.388   3.992
36321W        W 8636  41.612  26.787  11.668
36322W        W 8637  23.134  35.009   2.661
36323W        W 8638  30.643  12.154   1.443
36324W        W 8639  34.366   3.540  12.229
36325W        W 8640   8.037  41.212  11.989
36326W        W 8641  38.744   2.263  13.289
36327W        W 8642   0.053  10.230   0.451
36328W        W 8643   2.810   2.414  11.865
36329W        W 8644  30.654  34.911   2.187
36330W        W 8645  40.318  34.600  10.867
36331W        W 8646  42.696  40.876  12.553
36332W        W 8647  20.714   3.524  14.241
36333W        W 8648   4.467  37.518  13.835
36334W        W 8649  44.932  15.711   4.217
36335W        W 8650  25.275  39.532   2.400
36336W        W 8651  22.174  38.397  12.485
36337W        W 8652  26.981  42.385  12.519
36338W        W 8653  36.259  44.064   2.266
36339W        W 8654  16.683  21.357   4.853
36340W        W 8655  30.505   0.383  13.383
36341W        W 8656   3.804  13.311  11.584
36342W        W 8657   5.160   6.863   4.466
36343W        W 8658  38.657  22.780   0.818
36344W        W 8659   8.455  15.829  10.641
36345W        W 8660  16.684   6.710   0.665
36346W        W 8661  13.610  21.319  14.330
36347W        W 8662  30.427  23.208   2.756
36348W        W 8663  21.232  42.472   3.826
36349W        W 8664  31.687   9.044   3.116
36350W        W 8665  19.030  37.069  12.478
36351W        W 8666   5.904  22.155  11.754
36352W        W 8667   3.381  18.350   4.316
36353W        W 8668  11.134  25.600  14.414
36354W        W 8669  33.582  27.912  10.785
36355W        W 8670  26.951  36.347   3.719
36356W        W 8671  16.038  12.604  11.151
36357W        W 8672  18.458  24.798   3.530
36358W        W 8673  36.279  32.161  11.238
36359W        W 8674  14.894   7.883   3.675
36360W        W 8675   7.907  30.554   1.062
36361W        W 8676  22.962  11.739   1.997
36362W        W 8677  24.665  20.374   0.353
36363W        W 8678   2.803  22.249   4.500
36364W        W 8679  43.935  35.581  14.942
36365W        W 8680  10.559  35.366   2.401
36366W        W 8681   0.432  21.273   4.795
36367W        W 8682  27.228  37.580  12.998
36368W        W 8683   2.859  40.616   1.871
36369W        W 8684  20.312  16.729   1.101
36370W        W 8685  28.690   9.348   3.239
36371W        W 8686  44.022  24.260  12.432
36372W        W 8687  25.589  10.669   2.974
36373W        W 8688   5.208   8.633   0.945
36374W        W 8689  40.332  21.919   0.820
36375W        W 8690   7.740  29.796  12.470
36376W        W 8691  44.271  41.524   1.787
36377W        W 8692  30.535   9.726   1.356
36378W        W 8693  35.484  20.732   3.096
36379W        W 8694  27.388  25.652   2.645
36380W        W 8695  43.496  26.530  13.364
36381W        W 8696  28.675   0.432  14.825
36382W        W 8697  23.672  32.589  12.052
36383W        W 8698   0.418  13.312   9.567
36384W        W 8699  40.394  21.042   1.702
36385W        W 8700   5.958   6.444  11.083
36386W        W 8701  18.663  15.997   0.491
36387W        W 8702  13.774  25.092   0.697
36388W        W 8703  20.680   9.814   0.490
36389W        W 8704  29.776  33.094   2.806
36390W        W 8705  21.585  24.035   1.862
36391W        W 8706  16.060  42.403  11.999
36392W        W 8707  19.675   6.173  13.603
36393W        W 8708  30.134  16.269   4.131
36394W        W 8709  30.102   6.379   0.983
36395W        W 8710  27.613  11.771  11.440
36396W        W 8711  36.483   1.523   4.814
36397W        W 8712  42.446  28.930   1.902
36398W        W 8713  18.741  18.679   0.419
36399W        W 8714  37.991  22.129  13.795
36400W        W 8715  33.669   1.580  14.507
36401W        W 8716  34.899  37.746  12.448
36402W        W 8717  22.584  40.701  11.521
36403W        W 8718  38.981  26.029   2.625
36404W        W 8719  10.810   0.874   3.872
36405W        W 8720  15.089  36.853   2.135
36406W        W 8721  21.711  42.484   2.245
36407W        W 8722  27.200  13.720   3.744
36408W        W 8723  40.377   5.058   4.575
36409W        W 8724   0.278  18.712  12.599
36410W        W 8725   7.333   1.397   2.577
36411W        W 8726  19.125  25.448  10.509
36412W        W 8727  18.970  12.617   4.259
36413W        W 8728  35.789  32.297   4.122
36414W        W 8729  14.537  12.181  12.971
36415W        W 8730  40.757   3.906  12.144
36416W        W 8731  13.261   4.762  11.453
36417W        W 8732  12.373  31.501  13.536
36418W        W 8733  24.697  18.092  11.954
36419W        W 8734   5.699   2.030  11.538
36420W        W 8735   7.816  34.633  12.950
36421W        W 8736  13.567  34.241   0.981
36422W        W 8737  27.021  27.700  10.586
36423W        W 8738  37.953  14.355  11.455
36424W        W 8739   2.271  30.763   1.196
36425W        W 8740  28.677  26.650  10.769
36426W        W 8741   2.976  42.743  14.281
36427W        W 8742  35.995  41.312   3.817
36428W        W 8743  20.760  15.827  12.894
36429W        W 8744  19.684  17.782  11.670
36430W        W 8745  37.077  30.365  10.681
36431W        W 8746  24.160  41.414  11.293
36432W        W 8747  20.135   6.524   1.689
36433W        W 8748  19.277  21.907  11.091
36434W        W 8749  31.437   1.700   4.676
36435W        W 8750  40.346   0.931   1.387
36436W        W 8751  22.537  43.816   1.719
36437W        W 8752  11.235  16.750   3.871
36438W        W 8753  33.195  39.113   4.985
36439W        W 8754  24.239  12.836   2.731
36440W        W 8755  43.419  36.569   3.750
36441W        W 8756  14.782  21.585  14.576
36442W        W 8757   2.855  29.211  13.913
36443W        W 8758  18.602  30.347   1.367
36444W        W 8759  26.384  32.008   3.077
36445W        W 8760  24.017  28.111  11.103
36446W        W 8761   3.915  11.855  13.368
36447W        W 8762  41.377  37.532   4.272
36448W        W 8763   8.886  30.394  11.480
36449W        W 8764   5.695  26.418   2.577
36450W        W 8765   2.883  34.439  13.361
36451W        W 8766  30.570  26.768  12.655
36452W        W 8767   4.690  14.653   3.768
36453W        W 8768  27.695  12.356  12.870
36454W        W 8769   8.439  23.072  12.129
36455W        W 8770  14.207  33.547  10.708
36456W        W 8771  12.406  27.157   3.779
36457W        W 8772  10.097  10.624  12.210
36458W        W 8773  19.032  24.067   2.406
36459W        W 8774  19.824  29.520  14.467
36460W        W 8775  39.260  27.239  10.129
36461W        W 8776  22.764  35.942   5.071
36462W        W 8777   0.396  35.519   0.276
36463W        W 8778  10.635  44.816   3.846
36464W        W 8779   4.351  29.963  11.359
36465W        W 8780  25.988  27.500   3.733
36466W        W 8781   7.404  15.498  12.926
36467W        W 8782  26.726   1.050   0.770
36468W        W 8783  18.924  28.111   1.198
36469W        W 8784  42.399  20.558   1.232
36470W        W 8785  17.064  32.403  11.974
36471W        W 8786  14.703   9.540   2.739
36472W        W 8787  25.409  21.521   5.075
36473W        W 8788  11.644   7.882  11.191
36474W        W 8789  42.214  13.904  11.614
36475W        W 8790  34.857  31.879   5.004
36476W        W 8791  20.430  19.120  14.178
36477W        W 8792  39.588   2.485   3.395
36478W        W 8793  20.592  17.377  11.560
36479W        W 8794  37.987  42.256  10.969
36480W        W 8795  38.586   2.990   4.801
36481W        W 8796  19.675   4.311  10.904
36482W        W 8797  31.102  36.380  10.821
36483W        W 8798   6.911  31.239   2.638
36484W        W 8799  32.447  44.947   2.676
36485W        W 8800  43.764  18.682  13.790
36486W        W 8801  39.433  44.871  14.073
36487W        W 8802  23.529  10.230  13.787
36488W        W 8803  23.301  13.261   1.905
36489W        W 8804  35.903  40.423  11.499
36490W        W 8805  11.353  33.443  10.615
36491W        W 8806   9.200   1.963   0.449
36492W        W 8807  29.064   2.993  14.251
36493W        W 8808   2.715   9.482   4.345
36494W        W 8809  25.993  25.605  12.544
36495W        W 8810   5.340  34.037   4.590
36496W        W 8811  42.848   3.632   3.706
36497W        W 8812  43.969  36.591  14.760
36498W        W 8813  28.394  21.475   0.888
36499W        W 8814  22.207   8.480   0.265
36500W        W 8815  40.602  21.987  13.848
36501W        W 8816  26.428  41.831  11.196
36502W        W 8817  35.086  28.818   3.623
36503W        W 8818  43.016   7.282   3.624
36504W        W 8819  35.620  19.045   3.193
36505W        W 8820  18.554  37.377   0.289
36506W        W 8821  41.580   3.332  12.160
36507W        W 8822  41.439  41.296  10.614
36508W        W 8823  43.831   6.333   2.458
36509W        W 8824  33.872   6.313  13.339
36510W        W 8825  15.561  38.606   4.198
36511W        W 8826  26.353  34.281   5.434
36512W        W 8827  33.475   9.774  10.741
36513W        W 8828  20.202  10.729  10.188
36514W        W 8829   9.918  34.797   1.757
36515W        W 8830   8.790  21.981  11.425
36516W        W 8831  21.059  14.052  13.849
36517W        W 8832  25.148  39.103   2.078
36518W        W 8833   0.750  28.559  13.443
36519W        W 8834   2.165   9.693  11.907
36520W        W 8835   6.962  31.750   4.191
36521W        W 8836  31.431  40.292  10.801
36522W        W 8837  19.818  12.911   0.892
36523W        W 8838  36.095  36.206   1.923
36524W        W 8839  24.021  10.402  11.215
36525W        W 8840  44.355  41.342   4.111
36526W        W 8841  34.627  37.581   3.131
36527W        W 8842  24.487  25.105  13.406
36528W        W 8843  39.989  10.468  13.273
36529W        W 8844  41.753  36.054  10.314
36530W        W 8845   3.113  18.167  13.854
36531W        W 8846   9.354  39.495  10.996
36532W        W 8847  25.185  28.967  10.813
36533W        W 8848   7.134  28.634   4.304
36534W        W 8849  25.871   9.285   0.878
36535W        W 8850  15.998   1.375  10.770
36536W        W 8851  41.165  12.675   2.778
36537W        W 8852  21.514  27.659   1.428
36538W        W 8853   3.004   3.852   1.482
36539W        W 8854  20.111  28.386  12.569
36540W        W 8855   6.727   0.491  11.022
36541W        W 8856  34.126  13.107  11.517
36542W        W 8857  37.445  16.203   3.700
36543W        W 8858  38.779   0.212   1.311
36544W        W 8859   1.657  20.425  11.413
36545W        W 8860  29.471  20.586  13.287
36546W        W 8861  19.802  17.367  14.355
36547W        W 8862  39.408  16.219  11.698
36548W        W 8863  11.287  10.225  10.258
36549W        W 8864  32.557  25.692   1.263
36550W        W 8865  39.057  13.751   3.712
36551W        W 8866   8.399  10.620  14.185
36552W        W 8867   4.444  11.873  12.648
36553W        W 8868  18.299   8.450  14.073
36554W        W 8869   9.927  43.761   2.082
36555W        W 8870  22.729   3.679  13.943
36556W        W 8871  25.128   0.524  14.930
36557W        W 8872   3.871  13.114   1.973
36558W        W 8873  21.045  32.366  13.188
36559W        W 8874  32.436   6.996  11.118
36560W        W 8875  11.590  28.102  13.734
36561W        W 8876  28.161  20.772  10.669
36562W        W 8877  35.576  11.748   2.132
36563W        W 8878  17.313  17.916   5.052
36564W        W 8879  41.965  41.376   1.388
36565W        W 8880  23.077  39.711   1.312
36566W        W 8881  17.190   3.401  11.159
36567W        W 8882  15.473  20.737   1.976
36568W        W 8883  26.304  17.299  12.943
36569W        W 8884  29.233  35.134   3.297
36570W        W 8885  39.090  24.355  13.639
36571W        W 8886  30.856  27.999   1.372
36572W        W 8887  33.967  24.670  12.116
36573W        W 8888  12.566  35.083   4.355
36574W        W 8889  21.633  10.314  11.474
36575W        W 8890  24.668   4.450   0.523
36576W        W 8891   8.258  25.596   1.341
36577W        W 8892  10.616  30.794  11.154
36578W        W 8893  39.888  18.663   4.687
36579W        W 8894  20.578  40.241  10.896
36580W        W 8895   4.797  38.449   0.174
36581W        W 8896   9.178  35.342  12.887
36582W        W 8897  25.104   1.033   0.024
36583W        W 8898   3.349   2.184   3.271
36584W        W 8899  16.892  28.145   4.653
36585W        W 8900  28.190  32.554   1.367
36586W        W 8901   2.953  17.702   1.341
36587W        W 8902  44.535  37.127   2.756
36588W        W 8903  40.979  13.524   4.485
36589W        W 8904  28.922  44.271  11.070
36590W        W 8905  24.056  34.169  13.559
36591W        W 8906  38.500  40.815  12.925
36592W        W 8907  10.115   7.815  14.844
36593W        W 8908  35.665   3.495  14.259
36594W        W 8909  12.199  31.532   2.107
36595W        W 8910  26.426   0.539   2.248
36596W        W 8911  19.650   3.486   3.208
36597W        W 8912  30.818  39.372  11.546
36598W        W 8913  27.217  40.456  14.812
36599W        W 8914  12.832  21.047  14.063
36600W        W 8915  22.720  26.529  12.628
36601W        W 8916   7.708  13.937   0.518
36602W        W 8917  40.345   5.457   1.427
36603W        W 8918  22.029  42.896  10.918
36604W        W 8919  17.650   1.679   0.775
36605W        W 8920  44.536  36.793   0.435
36606W        W 8921  17.181  39.051   0.393
36607W        W 8922  29.506  15.336   1.303
36608W        W 8923  17.479  37.281  10.631
36609W        W 8924   9.260  14.588   4.786
36610W        W 8925   7.208   2.355   2.249
36611W        W 8926   9.320  26.049  14.386
36612W        W 8927  12.162  15.721   4.226
36613W        W 8928  13.504   6.608   4.122
36614W        W 8929  29.591  41.772  13.400
36615W        W 8930  40.092  38.996   1.889
36616W        W 8931  40.922  16.365  12.030
36617W        W 8932  14.796  18.263   1.377
36618W        W 8933   5.968  39.400  12.046
36619W        W 8934  23.221  21.462  12.060
36620W        W 8935  33.959   6.650  10.688
36621W        W 8936  26.940   8.113   2.313
36622W        W 8937  42.450  44.774   2.352
36623W        W 8938  41.869  28.182  13.413
36624W        W 8939   3.274  38.067  12.077
36625W        W 8940  20.495  39.802   3.235
36626W        W 8941   8.845  19.197   4.866
36627W        W 8942  13.012   9.121   0.005
36628W        W 8943  18.182  23.978   3.637
36629W        W 8944  13.895  25.046   2.263
36630W        W 8945  44.973  18.039  14.953
36631W        W 8946  38.870  29.699  13.119
36632W        W 8947  33.129  32.390  13.864
36633W        W 8948  39.525  29.250   2.639
36634W        W 8949  44.484  13.065   2.671
36635W        W 8950  40.811  29.715   2.293
36636W        W 8951  36.333  30.126   4.981
36637W        W 8952  21.956  39.341  11.552
36638W        W 8953  36.875  33.636  12.068
36639W        W 8954   1.508  22.202  11.638
36640W        W 8955  35.001   0.554  12.993
36641W        W 8956  40.979  11.123   2.412
36642W        W 8957  41.375  30.514   0.948
36643W        W 8958  28.336  34.528  11.323
36644W        W 8959  10.776  22.367  12.778
36645W        W 8960   2.118  12.620  13.242
36646W        W 8961   1.016  38.062  11.567
36647W        W 8962  10.282  19.538  11.124
36648W        W 8963  28.150  32.130   3.096
36649W        W 8964   9.623  41.928   2.807
36650W        W 8965  37.360  25.123   3.775
36651W        W 8966  43.562  17.751  11.128
36652W        W 8967  23.207   8.366  13.918
36653W        W 8968  16.801  13.318   3.650
36654W        W 8969  43.447  23.434  12.040
36655W        W 8970   5.883   3.023  10.505
36656W        W 8971  10.086  36.498  10.535
36657W        W 8972  34.654  37.079  12.034
36658W        W 8973  24.272  41.233   0.344
36659W        W 8974   1.254  19.019   2.837
36660W        W 8975  39.298  34.323   0.505
36661W        W 8976   0.251  35.986   0.021
36662W        W 8977  41.863   1.500   2.237
36663W        W 8978  30.487   9.699   2.559
36664W        W 8979   2.441  39.347  10.595
36665W        W 8980  36.516  33.546  14.910
36666W        W 8981  36.005  33.396   3.244
36667W        W 8982  32.919  22.014   4.756
36668W        W 8983  13.516  24.668  10.519
36669W        W 8984  34.913  24.747  10.819
36670W        W 8985   5.391  37.491  11.915
36671W        W 8986  20.315  38.392   3.110
36672W        W 8987  32.597  40.527   2.441
36673W        W 8988  32.895  39.370  11.700
36674W        W 8989  39.139   9.170   4.287
36675W        W 8990  22.580   4.223   4.022
36676W        W 8991  17.478  37.631  14.737
36677W        W 8992   9.624  44.267  12.071
36678W        W 8993  13.144  37.509   2.712
36679W        W 8994  31.162   2.875  11.991
36680W        W 8995  28.053  16.625  13.878
36681W        W 8996   9.661   2.177  12.517
36682W        W 8997  21.813  29.780  14.299
36683W        W 8998  28.927  25.042   1.760
36684W        W 8999  14.263  42.755   4.797
36685W        W 9000  44.278   7.111   4.135
36686W        W 9001  13.212   5.815   4.464
36687W        W 9002  40.858  42.063  10.701
36688W        W 9003  11.411  17.691  13.855
36689W        W 9004   3.647  44.758   1.363
36690W        W 9005  43.348  23.215  14.512
36691W        W 9006  44.830  16.769   3.720
36692W        W 9007  21.473   9.001   1.952
36693W        W 9008   3.843   5.174   0.007
36694W        W 9009  44.208  13.705   1.233
36695W        W 9010  13.938  36.997  14.717
36696W        W 9011  25.766  13.329  13.964
36697W        W 9012  19.571   1.407  13.487
36698W        W 9013  41.572  21.079   0.805
36699W        W 9014  19.840  38.554   3.240
36700W        W 9015  17.607  41.302  14.558
36701W        W 9016   7.887  34.115  15.000
36702W        W 9017  34.191  13.062   0.887
36703W        W 9018   7.904  37.965  11.495
36704W        W 9019  18.718   7.483   3.672
36705W        W 9020  28.981  34.510  14.140
36706W        W 9021  32.051  28.707   1.724
36707W        W 9022  17.293   3.188   0.932
36708W        W 9023  31.527  41.283  11.592
36709W        W 9024  20.722  33.980  10.475
36710W        W 9025  26.246  14.539   3.692
36711W        W 9026   8.561  10.690  12.391
36712W        W 9027  44.242   1.821  13.010
36713W        W 9028   7.171   5.748  13.864
36714W        W 9029  35.123  21.003  13.074
36715W        W 9030  10.588  33.540   3.373
36716W        W 9031  12.804  31.987  11.192
36717W        W 9032   2.979  22.258   1.990
36718W        W 9033  23.077  17.232   3.340
36719W        W 9034  26.675   6.146  12.827
36720W        W 9035  37.589  15.647   4.615
36721W        W 9036  35.155  19.712   2.186
36722W        W 9037  16.564  44.230  13.321
36723W        W 9038  29.987   6.806   0.698
36724W        W 9039  15.278  36.414   2.320
36725W        W 9040  19.587   5.974   0.768
36726W        W 9041  41.647  37.491  13.512
36727W        W 9042  19.300  31.522  13.809
36728W        W 9043  10.616   6.501  14.981
36729W        W 9044   6.386  15.183  14.351
36730W        W 9045  27.091   2.718   3.565
36731W        W 9046   8.205  43.786   1.923
36732W        W 9047  16.121   3.037   3.783
36733W        W 9048   1.775   6.728  12.468
36734W        W 9049  34.106  30.403   4.607
36735W        W 9050  35.034  13.900   2.213
36736W        W 9051  25.934  25.518   3.748
36737W        W 9052  32.737   1.380  14.949
36738W        W 9053  36.927  18.116   3.047
36739W        W 9054  18.886  44.840   0.377
36740W        W 9055  11.649  35.466   2.321
36741W        W 9056  10.012  12.560   3.138
36742W        W 9057  37.917  39.335   3.116
36743W        W 9058  20.220  35.886  12.810
36744W        W 9059  29.626  13.154  10.666
36745W        W 9060  34.150  29.459   4.491
36746W        W 9061   2.992  13.337  14.458
36747W        W 9062  11.358   1.133   2.697
36748W        W 9063  13.270   1.519   1.919
36749W        W 9064  15.131  21.073  11.643
36750W        W 9065  33.119  11.365   2.783
36751W        W 9066  31.391   4.867  14.180
36752W        W 9067  24.152  14.837  10.628
36753W        W 9068   3.569  41.920  11.976
36754W        W 9069  37.448   6.143  11.165
36755W        W 9070  39.818  12.111  11.812
36756W        W 9071  31.310  27.181   4.179
36757W        W 9072  31.280  18.827  14.774
36758W        W 9073  36.545  26.486  10.431
36759W        W 9074  17.390  17.752   1.146
36760W        W 9075  31.329  25.015   3.347
36761W        W 9076  15.057  15.122   2.766
36762W        W 9077  38.413  23.696   0.642
36763W        W 9078   2.987  15.178  11.675
36764W        W 9079   4.492  27.995  11.670
36765W        W 9080   4.160  16.357   1.718
36766W        W 9081  24.677  18.118   4.218
36767W        W 9082  44.888  19.943  12.433
36768W        W 9083  41.196  29.407   1.812
36769W        W 9084  38.524  35.375  10.594
36770W        W 9085  44.209  22.737   2.912
36771W        W 9086  12.090  37.441   3.151
36772W        W 9087   1.675   8.108   3.256
36773W        W 9088  27.745  33.099  13.799
36774W        W 9089  13.810  34.874  12.884
36775W        W 9090  28.373  28.902   2.588
36776W        W 9091   2.515  11.226  14.795
36777W        W 9092  20.847  31.904  13.039
36778W        W 9093   2.010  11.222   4.472
36779W        W 9094  42.291  15.782  13.891
36780W        W 9095  32.641  33.373  11.691
36781W        W 9096  36.056  20.864  10.247
36782W        W 9097   9.123  24.560  13.503
36783W        W 9098  28.987  42.468   0.967
36784W        W 9099  10.288  39.812   1.984
36785W        W 9100  18.109  39.003   1.407
36786W        W 9101  39.818  17.566   4.722
36787W        W 9102   5.472  36.025  13.491
36788W        W 9103  34.969  28.060  11.113
36789W        W 9104   4.186  24.244   0.384
36790W        W 9105  41.213   8.350   0.913
36791W        W 9106  13.887  12.831  11.990
36792W        W 9107   3.479  14.649  11.011
36793W        W 9108  30.118   5.210  12.926
36794W        W 9109   5.893  15.750  14.426
36795W        W 9110  39.094  10.888   1.347
36796W        W 9111  10.719  39.058   0.852
36797W        W 9112  13.325   9.212   3.598
36798W        W 9113  27.858  28.789  14.812
36799W        W 9114   6.307   8.848   1.404
36800W        W 9115  32.977  38.805  14.718
36801W        W 9116  14.227  11.801   0.368
36802W        W 9117   4.806  32.644  14.929
36803W        W 9118   6.992  41.464   2.127
36804W        W 9119   9.292   9.823  14.895
36805W        W 9120  31.914   8.380  13.183
36806W        W 9121  43.423  36.350  11.619
36807W        W 9122   4.847   8.191  13.998
36808W        W 9123   5.993  14.292   3.767
36809W        W 9124   4.793  36.004   2.862
36810W        W 9125  11.751  35.896  14.400
36811W        W 9126   1.407   4.150  13.907
36812W        W 9127  17.648   7.671   2.356
36813W        W 9128  25.367   5.699   9.991
36814W        W 9129  25.213  32.991   1.464
36815W        W 9130   0.796   0.706  12.966
36816W        W 9131  20.314   7.360   3.315
36817W        W 9132  18.006  43.308   0.826
36818W        W 9133  18.125   8.580   1.709
36819W        W 9134  31.393  25.276  14.028
36820W        W 9135  26.868  11.397  13.079
36821W        W 9136  31.598  38.357   3.827
36822W        W 9137   4.427  14.797   2.339
36823W        W 9138  43.446   2.169   4.720
36824W        W 9139   6.852  44.870   4.207
36825W        W 9140  39.599  39.542   1.304
36826W        W 9141  36.829  33.654  10.592
36827W        W 9142   9.087  13.376  14.947
36828W        W 9143   7.871   5.839  12.982
36829W        W 9144   9.888  29.001  12.405
36830W        W 9145  29.595  38.867  10.248
36831W        W 9146   2.920  36.028   4.885
36832W        W 9147   5.260  27.166   2.740
36833W        W 9148  35.906  16.039   2.093
36834W        W 9149  34.862  42.701  12.509
36835W        W 9150  36.339  29.599  14.054
36836W        W 9151   6.400  36.429   0.849
36837W        W 9152  38.186  17.499   4.258
36838W        W 9153   5.002   7.570   5.003
36839W        W 9154   1.783  33.352  14.093
36840W        W 9155  11.065  29.826  13.384
36841W        W 9156  15.753   3.190  13.468
36842W        W 9157  12.054  17.812   3.280
36843W        W 9158  40.972   8.229   3.582
36844W        W 9159  18.502   0.653  11.245
36845W        W 9160  34.471  34.120   3.597
36846W        W 9161   0.081   8.163   4.539
36847W        W 9162  34.973  31.467  13.265
36848W        W 9163  33.813  26.489   2.440
36849W        W 9164   8.916  35.895  11.525
36850W        W 9165  23.295  14.307  10.729
36851W        W 9166  29.288  29.101   1.062
36852W        W 9167  39.906  17.483   2.435
36853W        W 9168  21.679  24.979  11.203
36854W        W 9169  11.671  17.019   1.202
36855W        W 9170  29.154  23.023   2.420
36856W        W 9171  26.742  11.821   1.263
36857W        W 9172  30.194  10.923  10.573
36858W        W 9173  37.786  41.635   5.014
36859W        W 9174  19.695  32.885   0.688
36860W        W 9175  28.457   6.330  11.633
36861W        W 9176  32.472  17.510  12.820
36862W        W 9177  37.916  26.258   5.581
36863W        W 9178  42.039  13.839   3.247
36864W        W 9179  22.706  15.958  11.703
36865W        W 9180  16.752  30.123  11.064
36866W        W 9181  21.065  41.300   0.035
36867W        W 9182  42.960  36.319   3.645
36868W        W 9183   9.926  36.371  12.009
36869W        W 9184   5.871   1.396   1.915
36870W        W 9185  35.989  25.178   3.809
36871W        W 9186  38.007   6.449   2.587
36872W        W 9187  39.599  14.621  14.020
36873W        W 9188  14.079  16.350  11.035
36874W        W 9189  36.921  21.025  11.895
36875W        W 9190  32.481  20.486   2.662
36876W        W 9191  18.572  14.647   2.680
36877W        W 9192   2.507  14.147   1.765
36878W        W 9193   2.706   4.249   1.337
36879W        W 9194  16.492  40.482   2.658
36880W        W 9195  15.342  23.780  14.829
36881W        W 9196   8.410   0.717   1.695
36882W        W 9197  12.971  22.564  12.044
36883W        W 9198   4.240  34.449   3.906
36884W        W 9199  23.540  43.779  10.142
36885W        W 9200  42.845  20.776   1.416
36886W        W 9201   3.803  33.334   4.600
36887W        W 9202  29.409   5.142  11.317
36888W        W 9203  18.057   3.026  13.782
36889W        W 9204  39.461  10.722   3.486
36890W        W 9205  39.473  36.077   3.460
36891W        W 9206  26.737   0.460  12.284
36892W        W 9207   3.958  23.135   2.847
36893W        W 9208   5.669  15.141  12.036
36894W        W 9209   5.159  37.294  10.853
36895W        W 9210  41.019  41.006  10.647
36896W        W 9211   5.987  40.415   4.931
36897W        W 9212  11.776  40.464  10.326
36898W        W 9213  25.782  23.735   1.891
36899W        W 9214  11.173  20.878  12.031
36900W        W 9215  28.137  27.446   3.626
36901W        W 9216  42.030  35.995  12.199
36902W        W 9217  34.628   4.995   1.410
36903W        W 9218  27.589   9.596   1.801
36904W        W 9219  38.894  23.961   0.509
36905W        W 9220  37.358  26.012   1.658
36906W        W 9221   3.743  26.064  11.069
36907W        W 9222   7.931  20.169   4.490
36908W        W 9223  31.891  33.919  14.940
36909W        W 9224   3.205  18.926   1.595
36910W        W 9225  11.641  25.097   4.231
36911W        W 9226   0.883  32.034   1.339
36912W        W 9227  32.361  39.966  11.182
36913W        W 9228  27.518  25.570   3.636
36914W        W 9229  29.082   9.113  11.543
36915W        W 9230  44.806  28.588   4.667
36916W        W 9231  20.015   4.800  11.516
36917W        W 9232  20.385  24.758  13.502
36918W        W 9233   2.490  23.926  14.918
36919W        W 9234   2.955  36.521   2.561
36920W        W 9235  39.356  44.926  12.107
36921W        W 9236   1.888  37.585   0.239
36922W        W 9237  24.667  32.936   0.661
36923W        W 9238   5.999  25.465  13.434
36924W        W 9239  40.060   9.626   0.925
36925W        W 9240   1.024   5.304   0.007
36926W        W 9241  10.227  19.714   0.268
36927W        W 9242  40.961  38.848  12.732
36928W        W 9243  20.279   0.308  10.400
36929W        W 9244   9.321  44.444   3.987
36930W        W 9245  33.135   2.923  10.611
36931W        W 9246  39.771   2.969   0.846
36932W        W 9247  20.099  44.349   4.214
36933W        W 9248  19.648  25.204   4.764
36934W        W 9249   3.988   8.381  10.851
36935W        W 9250  14.203  31.615  13.293
36936W        W 9251  25.747  30.459   3.687
36937W        W 9252  39.568  42.468   4.410
36938W        W 9253  18.356  34.089   1.926
36939W        W 9254  36.806  21.520   4.603
36940W        W 9255  24.657   3.947  10.996
36941W        W 9256   9.876  24.207   0.405
36942W        W 9257   3.069  30.035  11.575
36943W        W 9258  39.372  14.911   3.769
36944W        W 9259  24.184  36.919   3.187
36945W        W 9260  44.467   6.764   2.809
36946W        W 9261  25.016  22.635   0.958
36947W        W 9262  37.240  18.673   3.645
36948W        W 9263  39.616  22.947   1.845
36949W        W 9264  24.165  20.469  11.091
36950W        W 9265  37.608  11.203  13.560
36951W        W 9266   2.721  15.783   1.350
36952W        W 9267  22.029  30.900   1.200
36953W        W 9268  28.110  25.515  11.120
36954W        W 9269  25.127  12.696   1.673
36955W        W 9270   9.149  43.549   2.193
36956W        W 9271  42.984   1.694  14.361
36957W        W 9272  11.834   0.948  12.195
36958W        W 9273   3.795  15.683   3.938
36959W        W 9274  38.552  22.435   3.199
36960W        W 9275  39.873   9.420  11.150
36961W        W 9276  36.774  36.398  13.384
36962W        W 9277  13.543   7.326  14.026
36963W        W 9278  43.187  38.287  13.024
36964W        W 9279  28.701  37.497  10.626
36965W        W 9280  27.063   5.743  12.287
36966W        W 9281   3.550  27.062  13.004
36967W        W 9282   9.714  12.116   0.473
36968W        W 9283  19.992  15.079  14.608
36969W        W 9284  38.039   8.270   4.087
36970W        W 9285  35.292   8.148   2.266
36971W        W 9286   1.678  39.539   1.344
36972W        W 9287   2.639   2.180   2.710
36973W        W 9288  14.918   8.031   1.697
36974W        W 9289  38.826  15.843  13.971
36975W        W 9290  17.368  18.279   0.406
36976W        W 9291  32.134  29.504   0.593
36977W        W 9292  31.542  43.002   1.134
36978W        W 9293  13.708  35.018  13.838
36979W        W 9294   3.773  33.994  13.324
36980W        W 9295  35.602  41.044   1.984
36981W        W 9296  44.426  15.128  12.509
36982W        W 9297  43.679  28.390  12.496
36983W        W 9298   6.400  24.065   0.716
36984W        W 9299  37.626  23.213   3.482
36985W        W 9300   6.205  43.092   0.764
36986W        W 9301  11.706  14.654   3.981
36987W        W 9302  25.667  23.169   1.208
36988W        W 9303   5.913  39.262  12.548
36989W        W 9304  10.246   7.150  14.486
36990W        W 9305  34.096  27.594  14.335
36991W        W 9306  17.272   9.361   2.549
36992W        W 9307  12.361   7.308   3.275
36993W        W 9308  34.091   6.619  11.574
36994W        W 9309  44.530  30.387   2.404
36995W        W 9310  20.695  10.320   3.380
36996W        W 9311   4.698  20.462   1.329
36997W        W 9312  28.763  16.617   4.747
36998W        W 9313  26.254  18.264  12.873
36999W        W 9314   3.701   8.033   1.409
37000W        W 9315  39.953  39.111   0.255
37001W        W 9316  40.000  21.150  14.050
37002W        W 9317  37.443   6.190  13.937
37003W        W 9318  22.102  12.894  11.079
37004W        W 9319  33.557  27.743   4.479
37005W        W 9320   4.749  29.811   2.918
37006W        W 9321  20.264  31.138   0.484
37007W        W 9322  19.560  33.386   1.445
37008W        W 9323  40.598  14.278   9.856
37009W        W 9324  22.736  13.076   4.814
37010W        W 9325  35.008  22.308  13.441
37011W        W 9326  33.983  32.373  14.990
37012W        W 9327  30.635  15.568   0.748
37013W        W 9328  35.735   4.317   2.428
37014W        W 9329  16.860  24.293  11.708
37015W        W 9330   2.333  28.095   3.142
37016W        W 9331  34.899  15.539  12.511
37017W        W 9332  33.866  22.085   4.276
37018W        W 9333  11.225  16.153   4.471
37019W        W 9334  39.373  33.395   1.861
37020W        W 9335  18.695   7.927  14.890
37021W        W 9336  42.234   5.795  13.414
37022W        W 9337   4.800   8.419   4.513
37023W        W 9338  19.803  15.655  12.449
37024W        W 9339  31.939  44.428   2.743
37025W        W 9340  14.046  40.992   3.254
37026W        W 9341  26.690  36.169   3.292
37027W        W 9342  40.504  36.065  10.778
37028W        W 9343  20.169  40.850  12.430
37029W        W 9344  26.506  19.788  14.775
37030W        W 9345  11.120   7.254   1.655
37031W        W 9346  23.607  43.445  10.528
37032W        W 9347  24.394  24.040   4.731
37033W        W 9348  19.650  14.242  11.566
37034W        W 9349  18.998  40.854   0.462
37035W        W 9350  13.783  39.862   2.956
37036W        W 9351  20.018  19.496   4.653
37037W        W 9352  17.761   1.963   3.116
37038W        W 9353  35.272  15.859  14.828
37039W        W 9354  11.682  28.145  10.050
37040W        W 9355  28.603  20.485   3.272
37041W        W 9356  32.589  42.464   3.310
37042W        W 9357  39.928  28.982  14.369
37043W        W 9358   8.784  32.898  11.515
37044W        W 9359  18.249  28.426   3.668
37045W        W 9360  27.418   5.324   0.484
37046W        W 9361   6.263   2.869   3.380
37047W        W 9362  38.878  43.613  11.222
37048W        W 9363  36.665   8.464  14.887
37049W        W 9364  43.499  25.459  13.782
37050W        W 9365  36.606  40.541   5.039
37051W        W 9366  21.008   0.436   2.209
37052W        W 9367   2.459   4.441  14.001
37053W        W 9368   1.698   3.442  12.095
37054W        W 9369  38.601  35.531   4.765
37055W        W 9370  16.809   3.376  11.503
37056W        W 9371  28.532  41.267  14.906
37057W        W 9372  23.761  39.818  10.427
37058W        W 9373   6.702   2.069   1.863
37059W        W 9374  29.939  12.167   4.227
37060W        W 9375  33.085  39.835   0.930
37061W        W 9376  12.715  28.490   1.791
37062W        W 9377   2.900  37.695  12.047
37063W        W 9378  12.932  44.147  13.379
37064W        W 9379  40.881  12.261  13.280
37065W        W 9380   1.452   5.882   2.611
37066W        W 9381   9.973  16.590   2.727
37067W        W 9382  19.470  44.870  11.169
37068W        W 9383  19.075  16.789   0.435
37069W        W 9384  29.961  30.632  13.385
37070W        W 9385  27.275  30.649   2.268
37071W        W 9386  27.976  27.930   3.663
37072W        W 9387  24.779  40.118   3.456
37073W        W 9388  25.677  13.103  11.593
37074W        W 9389  31.103  21.683   2.609
37075W        W 9390   8.368  39.998   4.708
37076W        W 9391   4.782   0.823   2.131
37077W        W 9392  10.472  29.054   1.270
37078W        W 9393  44.836  15.699  13.569
37079W        W 9394  28.419  39.802   2.535
37080W        W 9395  12.757  41.570  14.007
37081W        W 9396  23.848   6.193   3.246
37082W        W 9397  40.566  25.706  11.686
37083W        W 9398   1.246  26.824  13.042
37084W        W 9399  15.069  31.428   0.684
37085W        W 9400  19.064  19.577   3.902
37086W        W 9401  40.901   8.659  11.168
37087W        W 9402   6.343  44.415   4.593
37088W        W 9403   0.343  27.720  12.417
37089W        W 9404  23.707  35.972  13.050
37090W        W 9405  13.738  22.806   2.823
37091W        W 9406  39.442  43.765   1.766
37092W        W 9407  34.901   1.021   1.779
37093W        W 9408   8.247   0.436   3.148
37094W        W 9409   6.508  11.101   3.596
37095W        W 9410  12.125  20.549   2.563
37096W        W 9411  32.357   9.491  11.121
37097W        W 9412  10.353  21.932  14.868
37098W        W 9413  20.072  22.979  14.541
37099W        W 9414  10.283  15.175   2.428
37100W        W 9415  28.880  13.039   2.250
37101W        W 9416  29.127  44.535   2.159
37102W        W 9417   6.671  18.096   4.246
37103W        W 9418  44.316   4.375  10.740
37104W        W 9419  22.402  44.025  13.316
37105W        W 9420  23.655  30.117  14.905
37106W        W 9421   4.205  22.175   3.253
37107W        W 9422   2.442  33.569  14.751
37108W        W 9423   7.233  42.345  13.968
37109W        W 9424  26.181  33.102  14.395
37110W        W 9425   2.402   3.403  13.271
37111W        W 9426  13.549   4.832   3.887
37112W        W 9427  25.714   5.286  11.668
37113W        W 9428  12.831  23.638   4.133
37114W        W 9429  37.023  43.475   4.491
37115W        W 9430   8.893  10.328  10.720
37116W        W 9431  17.030  44.050   0.933
37117W        W 9432  25.445  39.075   3.435
37118W        W 9433  37.024  27.263  12.076
37119W        W 9434   1.853  14.035  14.771
37120W        W 9435  15.082  33.372  11.482
37121W        W 9436   7.367  15.596   2.794
37122W        W 9437  19.013  11.299  14.363
37123W        W 9438  23.073  11.071  12.407
37124W        W 9439  29.434  43.965   1.277
37125W        W 9440  16.512  42.163  13.754
37126W        W 9441   9.127  21.191  13.384
37127W        W 9442  34.789  11.832  11.146
37128W        W 9443  11.419  21.690   2.201
37129W        W 9444  11.264  12.550   2.255
37130W        W 9445  35.932  29.491   2.198
37131W        W 9446  26.832  35.922  14.231
37132W        W 9447  15.649   9.672   1.761
37133W        W 9448   7.927  18.879   1.640
37134W        W 9449  24.651  21.064   4.047
37135W        W 9450  22.393   2.312  10.819
37136W        W 9451   0.951   8.090   1.313
37137W        W 9452   4.890  18.262   0.721
37138W        W 9453  44.941  23.032   1.330
37139W        W 9454   9.328  23.226   0.718
37140W        W 9455  36.433  29.906  11.245
37141W        W 9456   6.952   8.258   0.815
37142W        W 9457   8.547  39.408  13.346
37143W        W 9458   3.884  36.845   2.343
37144W        W 9459   8.371  40.502   4.889
37145W        W 9460  13.370  36.533   1.821
37146W        W 9461   4.858  28.972  10.678
37147W        W 9462  36.080  41.358  14.430
37148W        W 9463  38.966  35.861   3.338
37149W        W 9464  20.716   8.479  13.295
37150W        W 9465   3.806   1.127   4.612
37151W        W 9466   7.015   4.032   1.735
37152W        W 9467  30.525  36.836   4.588
37153W        W 9468  16.430  38.537   2.811
37154W        W 9469  16.597  28.681  13.914
37155W        W 9470  24.073  32.513   1.050
37156W        W 9471  11.328   2.655   1.315
37157W        W 9472  39.922   4.836  11.977
37158W        W 9473  26.460   9.294  14.386
37159W        W 9474   8.293  38.925  13.122
37160W        W 9475   6.211  32.099  12.299
37161W        W 9476   0.428  14.136   3.102
37162W        W 9477   5.776  25.535  12.978
37163W        W 9478   5.697  16.850  11.076
37164W        W 9479  19.825  24.179  13.838
37165W        W 9480  30.099   4.720   1.686
37166W        W 9481   4.406  26.935  12.814
37167W        W 9482   7.487  39.539  13.331
37168W        W 9483  20.582   3.988   1.195
37169W        W 9484  33.586  16.051  14.405
37170W        W 9485   3.425  20.938   1.922
37171W        W 9486  22.662  26.397   4.525
37172W        W 9487  41.308   6.047  11.540
37173W        W 9488  21.765   1.418  14.006
37174W        W 9489  15.791  43.318   2.661
37175W        W 9490  15.332  40.811  11.049
37176W        W 9491  21.509  30.979  14.779
37177W        W 9492  12.171  38.839   4.212
37178W        W 9493  20.059  20.246  10.802
37179W        W 9494  18.265   6.000  11.719
37180W        W 9495  41.475   0.793  13.545
37181W        W 9496   6.709  29.486  14.300
37182W        W 9497  12.659  30.591   1.953
37183W        W 9498  15.044  24.030  11.687
37184W        W 9499  34.913  16.666   0.847
37185W        W 9500  40.979  17.258  13.523
37186W        W 9501  25.556  24.134  11.479
37187W        W 9502  41.834   2.858  13.921
37188W        W 9503  42.668  24.302   2.625
37189W        W 9504  12.589   5.471   2.092
37190W        W 9505  30.653  25.004   4.043
37191W        W 9506  34.395  36.369  10.683
37192W        W 9507  18.116  28.981   0.474
37193W        W 9508  10.306   5.295  14.479
37194W        W 9509  16.080   4.167   2.697
37195W        W 9510  40.894  39.891   3.905
37196W        W 9511  34.857  39.918   2.650
37197W        W 9512  19.952   1.861  12.381
37198W        W 9513  38.562  32.641   1.454
37199W        W 9514  33.633  23.646  10.784
37200W        W 9515  37.433  20.993   3.114
37201W        W 9516  24.591  35.426   4.843
37202W        W 9517   5.310   9.844   2.321
37203W        W 9518  36.932  37.806   3.885
37204W        W 9519  34.390  20.167  11.550
37205W        W 9520   1.759  26.156   4.548
37206W        W 9521  32.978   7.603  12.783
37207W        W 9522  23.713  28.524   1.988
37208W        W 9523   8.158  12.677   3.922
37209W        W 9524   1.165  18.544  14.540
37210W        W 9525  31.441  21.683   0.748
37211W        W 9526  32.997  24.013   2.335
37212W        W 9527   7.119  22.582   4.514
37213W        W 9528  17.243   0.225  13.752
37214W        W 9529   3.989  17.695  13.926
37215W        W 9530  22.645  41.346  12.987
37216W        W 9531   0.544  32.941   2.590
37217W        W 9532  30.847  41.793  14.843
37218W        W 9533  36.796  14.276   3.766
37219W        W 9534  12.677  28.647  13.551
37220W        W 9535  28.373  18.641   2.353
37221W        W 9536   4.965  41.799   4.607
37222W        W 9537  32.208  19.206   4.265
37223W        W 9538  23.672  39.977   1.793
37224W        W 9539  42.684   2.568  13.574
37225W        W 9540   1.969  18.785   4.594
37226W        W 9541   8.392  30.967  13.744
37227W        W 9542   2.842   5.744  11.241
37228W        W 9543  34.601  12.400   0.244
37229W        W 9544  26.429  25.214  14.984
37230W        W 9545  21.194  38.501   3.004
37231W        W 9546  35.027  37.944  13.701
37232W        W 9547  30.071   0.048   4.574
37233W        W 9548   9.462  28.968   4.271
37234W        W 9549  36.498  21.771  12.876
37235W        W 9550   9.852  21.060  10.848
37236W        W 9551   9.726  33.450  14.384
37237W        W 9552  27.144   4.380  11.305
37238W        W 9553  34.972  23.629  12.122
37239W        W 9554   1.160  25.101  14.031
37240W        W 9555  41.906  39.323   3.239
37241W        W 9556  24.227   2.908  12.146
37242W        W 9557   8.412   2.289   4.673
37243W        W 9558  25.675  21.018   4.204
37244W        W 9559  13.391  16.846   0.632
37245W        W 9560  20.774  30.230   1.756
37246W        W 9561   3.477  27.566  14.604
37247W        W 9562  38.892   3.215  10.771
37248W        W 9563  40.102  26.629   4.140
37249W        W 9564   7.440  33.863  14.957
37250W        W 9565   3.040  32.935  12.909
37251W        W 9566  18.201  20.765  13.412
37252W        W 9567   5.424  39.543   3.220
37253W        W 9568  14.723  43.832   2.864
37254W        W 9569  39.031  27.477   4.132
37255W        W 9570   4.793  38.124  12.987
37256W        W 9571  42.136  40.755   2.607
37257W        W 9572  29.569  37.082  11.414
37258W        W 9573  43.948  14.571   4.843
37259W        W 9574  11.538  40.916  10.442
37260W        W 9575  16.592  24.216  13.438
37261W        W 9576  38.432   2.227   1.453
37262W        W 9577  29.985   1.981  14.071
37263W        W 9578  14.147  44.885  14.261
37264W        W 9579  43.317  31.130  10.596
37265W        W 9580   8.757  22.157  10.323
37266W        W 9581  27.175   4.019   2.037
37267W        W 9582  14.324  28.126   3.746
37268W        W 9583  25.505  19.199   2.342
37269W        W 9584  39.019   0.373   3.270
37270W        W 9585  29.665   5.475  12.831
37271W        W 9586  40.835   5.914  12.432
37272W        W 9587  16.171  40.029   5.520
37273W        W 9588  11.096  38.802  11.100
37274W        W 9589  22.300   4.497  13.935
37275W        W 9590  41.476  21.770   1.763
37276W        W 9591  39.846  22.309   2.847
37277W        W 9592  13.016   4.898  11.018
37278W        W 9593  16.860  34.869   3.390
37279W        W 9594  19.328  14.297   0.637
37280W        W 9595  28.242  27.725  10.291
37281W        W 9596  43.284   0.345   0.430
37282W        W 9597  25.566  41.479  10.758
37283W        W 9598  21.221  14.149   0.809
37284W        W 9599  10.968  32.741   4.269
37285W        W 9600   1.886   3.904   1.889
37286W        W 9601   8.740   5.824  14.988
37287W        W 9602  30.952  30.142  10.976
37288W        W 9603  13.313  12.364  11.430
37289W        W 9604  21.151  18.373  11.163
37290W        W 9605  31.103  24.668   4.551
37291W        W 9606   4.832  20.635  10.671
37292W        W 9607  32.705  40.126   0.747
37293W        W 9608  17.580  26.711   0.953
37294W        W 9609  15.849  15.675  14.481
37295W        W 9610  25.121   7.302  11.054
37296W        W 9611  24.497  36.075   1.358
37297W        W 9612  42.315  29.639  12.530
37298W        W 9613  24.692  28.316  12.943
37299W        W 9614  41.721  39.756  13.212
37300W        W 9615   2.924  16.550  12.885
37301W        W 9616  24.237   8.607  12.843
37302W        W 9617  43.436   9.956   1.838
37303W        W 9618  38.016  27.476   0.245
37304W        W 9619  23.646  21.605  10.757
37305W        W 9620  20.687  22.960   3.678
37306W        W 9621  41.560  26.054   1.380
37307W        W 9622   9.512  14.840   0.001
37308W        W 9623  39.122   9.704  12.518
37309W        W 9624   1.746  32.531  13.030
37310W        W 9625  29.868  15.746   2.951
37311W        W 9626   1.644  15.027   0.896
37312W        W 9627  32.369  35.168  12.850
37313W        W 9628  34.348  32.805  14.263
37314W        W 9629  28.058  28.187   3.214
37315W        W 9630  28.644   6.215  11.173
37316W        W 9631  23.660   4.098  14.020
37317W        W 9632  21.094  19.501  11.313
37318W        W 9633  24.038  28.606  11.252
37319W        W 9634  27.979  42.074  12.457
37320W        W 9635   7.435  44.754  10.930
37321W        W 9636  44.512  39.126   1.666
37322W        W 9637  14.476  24.053  13.393
37323W        W 9638  17.538  35.304   2.789
37324W        W 9639  22.071  14.260   3.777
37325W        W 9640  41.127  39.861  13.832
37326W        W 9641  24.036  36.443   1.956
37327W        W 9642  23.573  19.061   0.029
37328W        W 9643  11.167  27.196   4.738
37329W        W 9644  16.181  30.235  11.505
37330W        W 9645  38.398  20.473   4.086
37331W        W 9646  16.594  13.159   0.295
37332W        W 9647  39.574   2.879  12.121
37333W        W 9648  21.778   5.665   1.210
37334W        W 9649  20.007  30.992   4.430
37335W        W 9650  18.680  36.760   3.276
37336W        W 9651  39.097  37.372   4.272
37337W        W 9652  20.850  36.984   3.785
37338W        W 9653  39.389  22.508   4.791
37339W        W 9654  33.485  20.999   1.479
37340W        W 9655  18.565   4.793   0.490
37341W        W 9656   8.330  29.716   4.627
37342W        W 9657  28.059  18.802   4.667
37343W        W 9658  11.287  15.192   4.461
37344W        W 9659   9.615  32.262   4.231
37345W        W 9660  35.282  42.625   4.556
37346W        W 9661  35.307   0.166  11.614
37347W        W 9662  32.977  41.332   2.636
37348W        W 9663  26.894  36.067  13.693
37349W        W 9664   0.786  35.928   0.907
37350W        W 9665  16.561  20.005   0.958
37351W        W 9666   1.221  40.932   4.166
37352W        W 9667   7.469   7.092   1.177
37353W        W 9668  30.930  15.264   1.046
37354W        W 9669  15.876  17.910  11.590
37355W        W 9670  36.797  38.949   1.874
37356W        W 9671  33.890   0.434   4.543
37357W        W 9672  25.184   8.962   2.472
37358W        W 9673  41.260   5.253   4.099
37359W        W 9674  24.172  43.918   1.630
37360W        W 9675  21.824  42.804  14.947
37361W        W 9676   7.500  29.084  11.253
37362W        W 9677   4.060  13.747   4.794
37363W        W 9678  16.773  26.573   1.390
37364W        W 9679  13.268  18.987  14.710
37365W        W 9680  41.789  14.228  14.225
37366W        W 9681  28.342  30.636  14.272
37367W        W 9682  43.953  19.176   0.512
37368W        W 9683  33.458  35.129  11.137
37369W        W 9684  40.823  29.437   4.692
37370W        W 9685  35.411   1.063  12.137
37371W        W 9686   6.966  24.431   0.234
37372W        W 9687  14.606  40.936  13.482
37373W        W 9688  30.516  21.144  13.403
37374W        W 9689  42.411  38.891  13.290
37375W        W 9690  20.127  16.670   2.112
37376W        W 9691   4.466  25.584   0.350
37377W        W 9692  38.363   3.583   4.650
37378W        W 9693   5.753  31.319   4.454
37379W        W 9694  25.903   1.405  14.929
37380W        W 9695   3.807  26.489   1.939
37381W        W 9696   5.719  18.116   2.746
37382W        W 9697   7.853   9.457  14.461
37383W        W 9698  27.694   4.782  12.962
37384W        W 9699   8.754  24.736  13.881
37385W        W 9700  29.682  27.327   3.639
37386W        W 9701  13.308  35.033   5.035
37387W        W 9702  33.664  34.338  11.036
37388W        W 9703  43.498  33.460  11.681
37389W        W 9704   0.770   9.617   2.893
37390W        W 9705  39.273  34.436   2.742
37391W        W 9706  20.141  13.815  13.426
37392W        W 9707  32.113  32.423  11.654
37393W        W 9708  43.306  43.591   4.245
37394W        W 9709  18.969   9.763  11.158
37395W        W 9710   1.270   9.469   4.142
37396W        W 9711  22.435  30.369   0.635
37397W        W 9712  11.176  20.146  14.416
37398W        W 9713  30.441   4.234  12.061
37399W        W 9714  14.779  18.784   3.241
37400W        W 9715  16.089  36.841   3.089
37401W        W 9716  43.842  29.449  12.428
37402W        W 9717  44.394   5.913   1.418
37403W        W 9718   1.538  24.097  14.299
37404W        W 9719  20.701   7.861   1.166
37405W        W 9720  33.601   2.393   1.804
37406W        W 9721  18.860  17.678   3.184
37407W        W 9722  15.540  40.076  11.661
37408W        W 9723   4.442  22.204   2.272
37409W        W 9724  33.870  41.255  14.027
37410W        W 9725  14.874  38.886  12.101
37411W        W 9726  28.060   2.263  11.614
37412W        W 9727  21.591  21.996   1.423
37413W        W 9728  33.067   8.661   4.659
37414W        W 9729  18.462  39.519  10.390
37415W        W 9730   0.803  27.123  13.102
37416W        W 9731  22.189  23.790   4.027
37417W        W 9732   9.282  10.771  10.623
37418W        W 9733  25.285  11.780  13.748
37419W        W 9734   9.290  22.029  11.647
37420W        W 9735  26.985   0.519  14.391
37421W        W 9736  19.556  18.622  13.321
37422W        W 9737   5.340  34.297   2.724
37423W        W 9738  37.821  25.895   1.875
37424W        W 9739  22.050   1.304  11.517
37425W        W 9740  26.600  38.405  11.083
37426W        W 9741  16.034  16.656   3.615
37427W        W 9742  41.001  39.409   1.363
37428W        W 9743  33.077  17.057  12.465
37429W        W 9744  22.506  37.097   1.440
37430W        W 9745   5.692   9.863   0.422
37431W        W 9746  11.202  38.520  13.452
37432W        W 9747  36.522  30.681  11.796
37433W        W 9748  31.016   4.346   4.587
37434W        W 9749  44.487  22.053  10.211
37435W        W 9750  29.420   2.647  11.191
37436W        W 9751  24.611   9.819   2.943
37437W        W 9752  27.068  31.452   0.295
37438W        W 9753  25.703  39.991  10.589
37439W        W 9754  31.819  39.069   2.403
37440W        W 9755  18.151  11.756   2.536
37441W        W 9756  28.513  14.543   1.694
37442W        W 9757  15.267  13.429  14.548
37443W        W 9758  44.810  24.967   0.024
37444W        W 9759   6.376  37.607  10.027
37445W        W 9760  24.114  26.279   0.248
37446W        W 9761  37.298  27.754  14.570
37447W        W 9762  14.447  34.452   2.746
37448W        W 9763  39.336  24.897  12.167
37449W        W 9764   9.979  39.442   2.256
37450W        W 9765  31.886  13.807  14.980
37451W        W 9766  27.116   2.979   1.896
37452W        W 9767  14.088   8.651  11.023
37453W        W 9768  42.917  18.611   1.133
37454W        W 9769  17.597  29.590  11.301
37455W        W 9770  40.250  40.936   4.349
37456W        W 9771   3.913  13.332  13.579
37457W        W 9772  32.009   0.702  13.008
37458W        W 9773  26.488  35.266   4.650
37459W        W 9774   2.244  26.389   1.652
37460W        W 9775   8.967  37.864   4.838
37461W        W 9776  32.682  31.650   4.874
37462W        W 9777  12.925  32.901   1.142
37463W        W 9778  42.540  16.510  11.176
37464W        W 9779  25.010   9.256  14.448
37465W        W 9780   2.134  29.200   4.091
37466W        W 9781  28.410  13.582  12.342
37467W        W 9782  28.946  25.653  12.921
37468W        W 9783   7.337   8.459   3.325
37469W        W 9784  40.751   0.350   3.897
37470W        W 9785  13.735   9.787   2.151
37471W        W 9786  31.159  26.961  10.424
37472W        W 9787   0.477  30.941   0.765
37473W        W 9788  38.496  35.880  13.831
37474W        W 9789  24.272  17.661  13.851
37475W        W 9790  43.410   1.192  14.913
37476W        W 9791  14.051  36.575  14.437
37477W        W 9792  33.058  10.650   0.279
37478W        W 9793  25.154  21.108   0.444
37479W        W 9794  43.732  35.955  10.555
37480W        W 9795  34.974  39.727  11.087
37481W        W 9796   7.646  33.897  12.447
37482W        W 9797  14.998  42.956   0.473
37483W        W 9798  26.684   5.025  14.386
37484W        W 9799  16.966  38.040   0.387
37485W        W 9800  35.661  18.651   3.708
37486W        W 9801  28.070   3.995  11.479
37487W        W 9802  33.174  27.979   0.938
37488W        W 9803  26.942   8.879   1.919
37489W        W 9804   4.885   2.356   4.057
37490W        W 9805  23.944  11.794  12.496
37491W        W 9806  36.274  39.102  12.636
37492W        W 9807  40.163   6.096  10.282
37493W        W 9808  16.490  39.489   4.540
37494W        W 9809  17.236  13.105   4.541
37495W        W 9810  38.453  26.653   0.282
37496W        W 9811   5.264   1.447   0.176
37497W        W 9812   0.541  26.165  12.759
37498W        W 9813   2.856  25.264   3.474
37499W        W 9814   1.424  38.769   3.837
37500W        W 9815  25.052   4.719  12.072
37501W        W 9816   6.582  25.027   3.304
37502W        W 9817  27.643  39.606   0.991
37503W        W 9818  20.678  13.543  11.820
37504W        W 9819  36.443  14.102   1.400
37505W        W 9820  11.362  23.290   0.249
37506W        W 9821   9.810  37.652   3.850
37507W        W 9822   3.432   2.460  11.272
37508W        W 9823  42.076  35.903  14.500
37509W        W 9824  37.479  41.072  12.494
37510W        W 9825  44.250  23.975   0.989
37511W        W 9826  43.913   2.340   4.603
37512W        W 9827  33.050   7.909  13.827
37513W        W 9828  42.317  16.958  12.088
37514W        W 9829  13.915   8.413  11.991
37515W        W 9830  20.077  31.836   1.222
37516W        W 9831   3.802  18.260   4.625
37517W        W 9832  19.683  13.752   2.394
37518W        W 9833  30.115  24.717   0.521
37519W        W 9834   7.651  18.158  13.369
37520W        W 9835   0.061  26.993  13.815
37521W        W 9836  24.965  11.833   3.672
37522W        W 9837  30.724  35.400  11.860
37523W        W 9838  10.638  22.812   0.863
37524W        W 9839   1.127  33.374   5.018
37525W        W 9840  39.439   2.333   0.243
37526W        W 9841  10.125  36.836  11.943
37527W        W 9842   8.298  22.242  10.672
37528W        W 9843  37.264  20.258   5.180
37529W        W 9844  20.208   2.179  13.546
37530W        W 9845  38.571   5.213  14.762
37531W        W 9846   6.872  34.656  12.901
37532W        W 9847  13.198   7.836  14.999
37533W        W 9848  12.684  35.575   1.458
37534W        W 9849  36.934  42.531   1.727
37535W        W 9850   5.105   6.718  11.261
37536W        W 9851  38.477   6.681  14.021
37537W        W 9852  22.304  21.001   0.336
37538W        W 9853   7.845  21.704  13.084
37539W        W 9854   1.974  35.726   3.802
37540W        W 9855   0.660  32.104   3.801
37541W        W 9856  31.916  10.074  13.949
37542W        W 9857  30.375  43.846  11.394
37543W        W 9858  34.928  19.736   1.414
37544W        W 9859  28.080  41.383   1.125
37545W        W 9860  27.164  10.798   0.096
37546W        W 9861   1.357  14.710   4.705
37547W        W 9862  21.101  34.257   1.649
37548W        W 9863   3.694  12.172   1.260
37549W        W 9864  22.887  18.114   2.244
37550W        W 9865  35.896  34.678   4.787
37551W        W 9866  18.631  10.116   2.162
37552W        W 9867  33.564  28.528   0.707
37553W        W 9868  23.210  23.072   1.362
37554W        W 9869  38.438  38.267  12.589
37555W        W 9870  36.562   1.648   1.654
37556W        W 9871  38.489  43.271   0.317
37557W        W 9872  38.995   6.019   5.069
37558W        W 9873  42.072  42.284  13.827
37559W        W 9874  24.044  23.682  11.548
37560W        W 9875  37.631   0.768   1.930
37561W        W 9876  39.638  32.896  14.288
37562W        W 9877  41.578  33.130  12.361
37563W        W 9878  21.041   4.306   3.134
37564W        W 9879  22.153  10.337   3.714
37565W        W 9880  39.290  42.494  14.479
37566W        W 9881  12.108   8.451   0.779
37567W        W 9882  44.310  37.451  12.639
37568W        W 9883  34.323   3.590   2.195
37569W        W 9884  31.575  29.003   1.470
37570W        W 9885  38.824   2.238   5.029
37571W        W 9886  17.280  15.144   0.820
37572W        W 9887   0.355  16.200   1.756
37573W        W 9888   2.884  20.597  12.321
37574W        W 9889   9.217   9.125   4.180
37575W        W 9890  27.236   2.320  13.491
37576W        W 9891  13.209  20.021   0.509
37577W        W 9892   9.407  37.309   3.878
37578W        W 9893   9.897  26.059   3.624
37579W        W 9894   4.553  34.200   1.470
37580W        W 9895  37.293  18.523   1.813
37581W        W 9896   4.314  44.466   4.531
37582W        W 9897  30.051  32.875   0.238
37583W        W 9898  43.762  43.749  13.449
37584W        W 9899  10.526  19.161  10.555
37585W        W 9900  17.684  18.605   3.755
37586W        W 9901   7.967  17.685   2.240
37587W        W 9902  32.662  33.589   2.823
37588W        W 9903  39.036  17.761  12.841
37589W        W 9904  42.481  35.112   3.058
37590W        W 9905   6.161  24.586  10.331
37591W        W 9906   9.253  31.438  14.321
37592W        W 9907  39.879  30.673  10.822
37593W        W 9908  26.998  25.737   1.638
37594W        W 9909  41.008  32.098  14.820
37595W        W 9910   3.777  14.611  12.622
37596W        W 9911   9.155  22.100  14.494
37597W        W 9912  35.137  23.448   4.059
37598W        W 9913  34.175  14.299   2.276
37599W        W 9914  30.551   6.727   2.279
37600W        W 9915  23.273  18.656   2.776
37601W        W 9916  40.706   4.457   1.329
37602W        W 9917  26.943  12.747  11.198
37603W        W 9918  29.720  33.318   4.657
37604W        W 9919  20.948  26.110  13.039
37605W        W 9920   5.046  14.652  14.719
37606W        W 9921  24.042   1.344   4.627
37607W        W 9922  15.898   5.768   2.910
37608W        W 9923   1.817   4.449   0.286
37609W        W 9924  22.617  28.172  14.351
37610W        W 9925  17.570  39.880   1.367
37611W        W 9926  22.006  30.007  12.504
37612W        W 9927   4.453   8.251  10.994
37613W        W 9928  24.542  21.028  13.353
37614W        W 9929  41.473  17.083  12.062
37615W        W 9930   0.686  24.976   4.589
37616W        W 9931   9.954  12.161   4.952
37617W        W 9932  26.967  22.715  11.511
37618W        W 9933  18.797  28.384   5.819
37619W        W 9934   4.232   7.437  10.794
37620W        W 9935  42.494  11.292  13.452
37621W        W 9936   5.832  16.605  13.630
37622W        W 9937  25.522  29.534  13.938
37623W        W 9938  24.242  35.864  13.921
37624W        W 9939   9.367   3.209   4.716
37625W        W 9940  17.665  30.062  11.078
37626W        W 9941  37.499  19.533  12.619
37627W        W 9942   1.775  28.581   4.531
37628W        W 9943  36.536  44.888  10.960
37629W        W 9944  13.465  29.351  11.099
37630W        W 9945  16.720  16.224  10.543
37631W        W 9946  40.009   0.833   1.006
37632W        W 9947  15.388  30.765  11.997
37633W        W 9948   7.275  13.637   0.435
37634W        W 9949   1.397  36.996   4.470
37635W        W 9950   9.899  22.549   0.375
37636W        W 9951  35.073  43.214  14.511
37637W        W 9952   5.342  30.667  10.401
37638W        W 9953   4.705   7.962  11.511
37639W        W 9954   3.269  39.609  11.953
37640W        W 9955  43.671  27.761  13.608
37641W        W 9956   5.754  13.341   1.501
37642W        W 9957  42.019   3.626  11.490
37643W        W 9958  30.903   7.282  13.236
37644W        W 9959  37.708  31.978  13.047
37645W        W 9960   8.307  43.012   4.612
37646W        W 9961  35.367   1.520   2.404
37647W        W 9962  35.031   1.753   2.700
37648W        W 9963  35.844   7.329   0.329
37649W        W 9964  25.076  33.653   0.766
37650W        W 9965  42.882  44.338   4.911
37651W        W 9966   2.453  34.594  12.383
37652W        W 9967  12.111  40.331  10.711
37653W        W 9968   1.543  15.138   1.385
37654W        W 9969  40.835  18.514  12.754
37655W        W 9970  31.172  24.935   4.108
37656W        W 9971  40.340  19.752  12.131
37657W        W 9972  31.118  28.446   1.848
37658W        W 9973  20.050  17.737   0.732
37659W        W 9974  19.350  29.693   3.148
37660W        W 9975  40.373  11.750  11.617
37661W        W 9976  44.467  44.387  12.707
37662W        W 9977  19.072  15.673   0.886
37663W        W 9978  14.587  41.228  11.184
37664W        W 9979  11.267  18.505   3.650
37665W        W 9980  44.462  35.468  14.917
37666W        W 9981  17.652  19.159   1.379
37667W        W 9982  39.255  23.441  11.166
37668W        W 9983  11.782   1.429   4.671
37669W        W 9984  23.240  28.668   0.449
37670W        W 9985  21.708  27.726  12.427
37671W        W 9986   4.201   2.037  12.400
37672W        W 9987   1.856   1.799  14.274
37673W        W 9988  15.371  43.482  11.493
37674W        W 9989  12.192  33.499  10.632
37675W        W 9990  18.053  24.264  13.487
37676W        W 9991   5.384  38.990   4.505
37677W        W 9992   9.300  40.527   2.776
37678W        W 9993  28.072  14.728  11.350
37679W        W 9994   1.949  15.324   0.396
37680W        W 9995  32.353  23.463  12.960
37681W        W 9996   6.590   3.035  11.606
37682W        W 9997  10.388  36.982   4.550
37683W        W 9998  42.833  26.375  11.479
37684W        W 9999  29.194  43.386   3.115
37685W        W10000  16.641  40.732  14.756
37686W        W10001   6.632  43.591  10.927
37687W        W10002  22.750  38.020  12.019
37688W        W10003   8.593   2.767  11.317
37689W        W10004  28.448   9.183  14.492
37690W        W10005  13.678  43.424  14.393
37691W        W10006  40.025  33.138   0.057
37692W        W10007   0.220  33.155  13.996
37693W        W10008  31.149  11.682  14.466
37694W        W10009   3.249  34.732   1.683
37695W        W10010  11.737  23.225   4.130
37696W        W10011  41.245   6.331   1.753
37697W        W10012  20.991   8.562  14.410
37698W        W10013  34.582  10.209  11.035
37699W        W10014  19.838  18.710  12.901
37700W        W10015  22.136  22.114   4.663
37701W        W10016  14.562  13.907   5.033
37702W        W10017  14.537  11.281  11.141
37703W        W10018   5.906  15.961   9.869
37704W        W10019  33.603  27.762  14.278
37705W        W10020  19.139  42.018   3.345
37706W        W10021  22.965   9.881  14.467
37707W        W10022  16.221  38.640   5.522
37708W        W10023   6.958  12.082  14.869
37709W        W10024  41.165  17.565   0.732
37710W        W10025  30.623  16.201  12.765
37711W        W10026  34.554  29.161   3.953
37712W        W10027  20.612  20.115  14.964
37713W        W10028   8.893  34.340   3.302
37714W        W10029  38.063  16.279  10.737
37715W        W10030  33.888  19.494  13.540
37716W        W10031   6.855  19.580   2.695
37717W        W10032  13.865  19.334   3.262
37718W        W10033   2.435   5.378  12.988
37719W        W10034  42.443  38.163  12.064
37720W        W10035  34.796  16.046  12.605
37721W        W10036  19.347  22.970   3.154
37722W        W10037   6.599  35.942  14.093
37723W        W10038  30.015  27.946  12.434
37724W        W10039  27.546  26.516  10.544
37725W        W10040  34.014  25.543  11.516
37726W        W10041  20.143  34.547   1.709
37727W        W10042  10.121  40.476  13.459
37728W        W10043  21.845  25.195   1.853
37729W        W10044  10.904  18.553  13.850
37730W        W10045  33.559  36.170  13.285
37731W        W10046  18.349  18.702  11.029
37732W        W10047  37.745  32.486   0.441
37733W        W10048  26.577  16.908  14.796
37734W        W10049  34.962  34.991  10.395
37735W        W10050  35.033  28.441   4.006
37736W        W10051  33.596   9.185  13.080
37737W        W10052  26.232  35.881   1.825
37738W        W10053  22.095  11.374  12.956
37739W        W10054  13.040   2.500   2.702
37740W        W10055  39.106  25.132   4.208
37741W        W10056  14.769  32.763   1.161
37742W        W10057  15.521  23.161  11.877
37743W        W10058  31.669  19.685   0.270
37744W        W10059  24.649  10.183   4.228
37745W        W10060  39.693  28.123   1.168
37746W        W10061  42.714  37.101   2.754
37747W        W10062   9.100  39.534  13.402
37748W        W10063  27.676  20.718  13.826
37749W        W10064   3.815   5.449  11.917
37750W        W10065  32.199  18.107  11.626
37751W        W10066  40.769  34.432  10.662
37752W        W10067   1.866  12.822   0.542
37753W        W10068   3.818  17.001   3.312
37754W        W10069  26.271  44.390  13.881
37755W        W10070  34.968  35.970   2.885
37756W        W10071  16.307  11.736   1.761
37757W        W10072  26.437  42.639   4.076
37758W        W10073  29.516  43.357  14.752
37759W        W10074  11.910  18.753   2.916
37760W        W10075  21.948  41.454   0.644
37761W        W10076  26.123  31.964   1.906
37762W        W10077  25.547   6.210  11.536
37763W        W10078  44.219  40.360  10.707
37764W        W10079   3.893  44.785  13.590
37765W        W10080  26.414  22.675   0.539
37766W        W10081  29.317   8.392  12.520
37767W        W10082  27.608  19.629  12.100
37768W        W10083   1.045   2.553   1.276
37769W        W10084  39.503   2.048  10.532
37770W        W10085   8.253   4.485   1.691
37771W        W10086  43.366  14.769  13.931
37772W        W10087  11.141   2.048   1.891
37773W        W10088  37.065  21.104   0.934
37774W        W10089   5.625   6.905   0.718
37775W        W10090  31.848  38.401  14.431
37776W        W10091  25.753  24.029  11.967
37777W        W10092   1.400  12.617   0.460
37778W        W10093  26.055   7.640  14.837
37779W        W10094  24.568  25.280   0.859
37780W        W10095   6.663  31.460  14.289
37781W        W10096  35.144   0.979  11.695
37782W        W10097  24.259   4.135  10.722
37783W        W10098  12.659   4.814   3.875
37784W        W10099  32.085  31.988   2.477
37785W        W10100  26.204  36.378  11.161
37786W        W10101  17.129  22.133   0.921
37787W        W10102   0.444  44.923   2.419
37788W        W10103  42.813  24.135  14.308
37789W        W10104  28.158  22.535  11.249
37790W        W10105  24.411  34.192  10.380
37791W        W10106  35.657  23.719   2.826
37792W        W10107  21.320  19.599  12.196
37793W        W10108  40.370  38.077  13.368
37794W        W10109  38.312   9.080   3.866
37795W        W10110  26.016  10.828   3.226
37796W        W10111   1.270  33.607  13.378
37797W        W10112   9.848  36.593  12.990
37798W        W10113  18.174  36.873  14.798
37799W        W10114  27.996   7.936  14.869
37800W        W10115  38.127  16.169   2.167
37801W        W10116   0.820  43.784  10.889
37802W        W10117  25.004  11.077  14.911
37803W        W10118  30.757  20.280   0.967
37804W        W10119   1.995   9.649  14.435
37805W        W10120  13.753   1.728  14.407
37806W        W10121  18.545  21.567  13.472
37807W        W10122  13.754  18.765   4.666
37808W        W10123  28.942  37.657   1.536
37809W        W10124   8.425   1.389   0.471
37810W        W10125  24.953  31.824  11.152
37811W        W10126  36.842  30.996  14.450
37812W        W10127  31.735  27.549   2.489
37813W        W10128  28.474  43.685  14.081
37814W        W10129  23.131  27.396  14.325
37815W        W10130   9.341  28.717   1.256
37816W        W10131   5.231  29.446  12.441
37817W        W10132  26.753  10.706  12.535
37818W        W10133  25.059  18.987   1.368
37819W        W10134  32.573   6.621  12.128
37820W        W10135   2.823  26.997   4.207
37821W        W10136  42.792   2.054   1.553
37822W        W10137   5.048  34.840  13.046
37823W        W10138  11.218  42.011  14.646
37824W        W10139  15.338  40.459  10.627
37825W        W10140  36.682  18.827   2.659
37826W        W10141  10.914  12.710   1.888
37827W        W10142  36.409  27.973   4.158
37828W        W10143  24.213  14.870  14.353
37829W        W10144  42.986  37.218  12.614
37830W        W10145  10.388  20.023  14.009
37831W        W10146  12.885  42.798  13.744
37832W        W10147  26.106  42.487   3.324
37833W        W10148  34.804  24.436   4.176
37834W        W10149   2.897  38.448  12.353
37835W        W10150  27.614  41.537   1.793
37836W        W10151  35.519  39.064   2.307
37837W        W10152  34.899  30.537  12.026
37838W        W10153  24.084  22.957  12.338
37839W        W10154  25.018  31.294  10.662
37840W        W10155  35.544  26.920  11.231
37841W        W10156  39.870  12.279  12.837
37842W        W10157  27.891  19.745   4.057
37843W        W10158  11.646  24.826  14.518
37844W        W10159  26.197  26.724   0.840
37845W        W10160  42.727  44.751  12.840
37846W        W10161   4.933  33.942  12.206
37847W        W10162  12.153  16.627  11.658
37848W        W10163  17.132   0.668   2.295
37849W        W10164  35.005  34.123  14.317
37850W        W10165  39.069  22.466   0.697
37851W        W10166  13.875   5.497  12.502
37852W        W10167  23.616   2.696   4.630
37853W        W10168  20.923   4.457  12.611
37854W        W10169  42.438  30.848  12.061
37855W        W10170  21.572  35.184   2.458
37856W        W10171   7.699  25.940   2.398
37857W        W10172  38.660  29.392  12.328
37858W        W10173  16.156   9.140   2.239
37859W        W10174  20.303  19.814   2.437
37860W        W10175  15.865  14.291   0.737
37861W        W10176  26.190  37.430   3.408
37862W        W10177  22.285  39.002   0.437
37863W        W10178  26.548   8.133   0.481
37864W        W10179  10.346  41.564  10.995
37865W        W10180  35.002  39.284   4.528
37866W        W10181  24.112   6.250  12.140
37867W        W10182   9.871   5.002  12.996
37868W        W10183   4.368  38.021  10.686
37869W        W10184  30.110   2.402  11.495
37870W        W10185  17.726   6.842   0.274
37871W        W10186  27.063  24.724   5.116
37872W        W10187  21.995   8.814  11.062
37873W        W10188  31.697  34.566   0.690
37874W        W10189   6.714  41.141  11.469
37875W        W10190  11.604  37.504   4.625
37876W        W10191  21.299  35.152   4.471
37877W        W10192  29.049  36.540   0.270
37878W        W10193  34.961  14.696   3.383
37879W        W10194  38.646  34.437  13.523
37880W        W10195  41.849  44.572  12.739
37881W        W10196  31.400  35.433   3.641
37882W        W10197  22.288  17.921  12.925
37883W        W10198  17.437  15.268  14.885
37884W        W10199  38.528  27.260   3.818
37885W        W10200  19.698   3.868   5.045
37886W        W10201  12.192  25.795  13.050
37887W        W10202  26.147  32.049  14.341
37888W        W10203  23.359   8.779  10.759
37889W        W10204  29.695  22.656   3.197
37890W        W10205   0.398  37.352   2.994
37891W        W10206   3.473   3.369   2.716
37892W        W10207  17.266  43.002   4.885
37893W        W10208  15.919  35.028   4.974
37894W        W10209  13.334  11.523  14.410
37895W        W10210   2.298   3.722  10.790
37896W        W10211   6.337  17.793  14.905
37897W        W10212  18.322  12.956   2.456
37898W        W10213  35.838   2.747   1.736
37899W        W10214  32.296  39.021  12.576
37900W        W10215  40.224  41.466   1.785
37901W        W10216  25.905  10.340   1.700
37902W        W10217  41.788   1.191  11.681
37903W        W10218   6.848  18.277   4.708
37904W        W10219  22.109  27.637   2.764
37905W        W10220  32.412   1.479  13.113
37906W        W10221  43.737   0.051   3.196
37907W        W10222  29.955  32.066  14.449
37908W        W10223  34.210  27.223   3.501
37909W        W10224  11.798  42.818   1.158
37910W        W10225  22.235  39.488   3.402
37911W        W10226  40.927  23.558  14.449
37912W        W10227  20.558  13.656   2.553
37913W        W10228  23.186  36.999  10.611
37914W        W10229   8.806  16.339  14.863
37915W        W10230  30.941  23.725   9.893
37916W        W10231  42.455  19.719  11.877
37917W        W10232  37.537  39.015  10.304
37918W        W10233   7.395  43.960  12.442
37919W        W10234  39.495  18.675  14.479
37920W        W10235  21.328  16.594  13.991
37921W        W10236  31.321  17.231  13.830
37922W        W10237  16.714  14.731  12.090
37923W        W10238  30.884  11.951  13.120
37924W        W10239  41.355  38.653  10.766
37925W        W10240  28.246   7.027   5.458
37926W        W10241  17.200  22.688   4.601
37927W        W10242  37.358  44.991   3.194
37928W        W10243  21.006  40.930  10.503
37929W        W10244  12.623  39.337   0.413
37930W        W10245  28.068  31.552  10.938
37931W        W10246   2.510   6.101  11.066
37932W        W10247  20.953  20.594   3.194
37933W        W10248   0.922  34.627  14.159
37934W        W10249  18.046  29.642   1.479
37935W        W10250   7.682   0.895   0.390
37936W        W10251  43.672  13.872   4.113
37937W        W10252   1.266  29.494  13.849
37938W        W10253  37.762   6.323   1.640
37939W        W10254  33.409  21.952   4.535
37940W        W10255  31.926  14.225   4.630
37941W        W10256  43.358  27.910   3.392
37942W        W10257  28.722  14.309   3.593
37943W        W10258   0.515  16.084   0.746
37944W        W10259  23.682  23.422  13.068
37945W        W10260   0.642  15.100   0.791
37946W        W10261  16.754  10.003   1.314
37947W        W10262  16.660  26.361  14.605
37948W        W10263  21.611  26.281  11.920
37949W        W10264  44.683  25.672   3.140
37950W        W10265  19.537  33.386  14.921
37951W        W10266  33.950   7.393  11.081
37952W        W10267  26.384  11.544   2.162
37953W        W10268  36.991  29.333  12.130
37954W        W10269  18.597  37.949   2.215
37955W        W10270  21.694  40.528  14.816
37956W        W10271  37.320  17.972   4.603
37957W        W10272   5.183  35.039   2.291
37958W        W10273  24.267   3.354  13.038
37959W        W10274  16.860  10.050  10.633
37960W        W10275  14.355  39.914   4.733
37961W        W10276  11.012  11.100  12.050
37962W        W10277  29.163  41.009  11.601
37963W        W10278  36.750   7.247  13.278
37964W        W10279  11.595   3.287  12.479
37965W        W10280   9.154   5.190   4.518
37966W        W10281  10.968  32.884  14.053
37967W        W10282  11.392  27.479  14.010
37968W        W10283  39.478  39.850  14.004
37969W        W10284  38.443   6.847  12.569
37970W        W10285  31.074  22.334  12.123
37971W        W10286  11.702  40.824   1.282
37972W        W10287  14.772  19.606   1.755
37973W        W10288   3.998  13.119   0.512
37974W        W10289  28.189  10.275   0.265
37975W        W10290  34.124  24.550   2.290
37976W        W10291  41.312  13.674   2.705
37977W        W10292  41.283  21.091   2.749
37978W        W10293  42.461  40.225  13.600
37979W        W10294  30.132  24.563   2.959
37980W        W10295  36.637  43.874   1.945
37981W        W10296  37.553  14.195  10.354
37982W        W10297   2.959   1.500   0.692
37983W        W10298  36.382   1.801   0.782
37984W        W10299  31.542   3.996  10.934
37985W        W10300  40.032  38.143  14.901
37986W        W10301   0.943   5.292  11.112
37987W        W10302  26.851   1.777  14.779
37988W        W10303  17.506   0.452  13.373
37989W        W10304  43.781   8.680   1.453
37990W        W10305  36.843  18.586  11.427
37991W        W10306   8.368   6.689   4.555
37992W        W10307  23.754  23.192  11.531
37993W        W10308  37.505  42.737   4.223
37994W        W10309  15.024  11.820   2.489
37995W        W10310  20.180  34.605   3.221
37996W        W10311  42.879  37.053   4.509
37997W        W10312   4.045  14.599  13.071
37998W        W10313   9.340  12.449   0.678
37999W        W10314  24.899  11.722  12.833
38000W        W10315  40.969  44.947   1.346
38001W        W10316  10.341  24.988  14.412
38002W        W10317   3.540  26.569   3.731
38003W        W10318  27.820  11.652   4.589
38004W        W10319  18.632   1.857  10.356
38005W        W10320  32.492  31.391   1.946
38006W        W10321   4.856  24.054   1.587
38007W        W10322  42.476  23.744  10.499
38008W        W10323  26.888  41.718  14.072
38009W        W10324  41.795  22.065   2.582
38010W        W10325  42.449  14.434   0.932
38011W        W10326  39.840   1.421  13.797
38012W        W10327  12.259   5.208   1.705
38013W        W10328  36.826   1.637   2.233
38014W        W10329   6.393  17.216   2.608
38015W        W10330   9.639  29.089  13.362
38016W        W10331  34.917  16.287   1.379
38017W        W10332  16.975  33.218  11.576
38018W        W10333  12.670   9.599  13.766
38019W        W10334  23.047  43.966   1.763
38020W        W10335  40.459  35.191  14.861
38021W        W10336  33.527  42.890   0.012
38022W        W10337  19.666  33.096   3.088
38023W        W10338  39.796  39.376  10.715
38024W        W10339  27.948   2.946   2.841
38025W        W10340  37.397  39.416   4.129
38026W        W10341  22.664  33.947  14.241
38027W        W10342   8.218  34.690   2.425
38028W        W10343  34.456  40.389  10.592
38029W        W10344   7.938  20.767  11.459
38030W        W10345  15.692  38.106   3.382
38031W        W10346  38.519  12.291  11.874
38032W        W10347  18.693  41.768   4.027
38033W        W10348  24.758  11.563  12.346
38034W        W10349   3.240  13.591  14.065
38035W        W10350  32.342  39.180   2.323
38036W        W10351  44.963  23.134   3.845
38037W        W10352  22.162  18.968   3.203
38038W        W10353  11.893  21.156   1.037
38039W        W10354   8.935  11.788   1.557
38040W        W10355  27.230  10.727  12.328
38041W        W10356  31.956  28.644   2.711
38042W        W10357  15.024  16.854  13.969
38043W        W10358   5.719   0.389  12.500
38044W        W10359   1.539  17.302   3.152
38045W        W10360  14.139  17.722  14.747
38046W        W10361  44.964  19.028   0.078
38047W        W10362  20.664  23.037   0.281
38048W        W10363  40.674  30.657   2.832
38049W        W10364   2.825  20.433   0.137
38050W        W10365  33.033  24.687  12.064
38051W        W10366   2.721  21.579   0.841
38052W        W10367  17.797  23.698  12.658
38053W        W10368  43.314  10.413   1.490
38054W        W10369  18.939  33.904  10.511
38055W        W10370  18.647  33.105  13.558
38056W        W10371  10.149   9.150  10.360
38057W        W10372  16.384  43.232  11.546
38058W        W10373  26.935  37.317   0.644
38059W        W10374  31.455  15.344   3.214
38060W        W10375  32.380  21.533   2.001
38061W        W10376   0.680  25.388  14.335
38062W        W10377  32.003  26.497   4.534
38063W        W10378  28.359   5.267  12.579
38064W        W10379   3.239   1.456  13.512
38065W        W10380  43.714  34.609   3.459
38066W        W10381  38.414  36.762  14.268
38067W        W10382   2.863  40.484   0.222
38068W        W10383  38.723   5.443   3.781
38069W        W10384   7.245  43.306  11.091
38070W        W10385  19.157  19.821   1.797
38071W        W10386  35.253  27.485  14.400
38072W        W10387  14.940  44.187  12.711
38073W        W10388  17.074  31.169  14.568
38074W        W10389  15.485  16.206   3.725
38075W        W10390  40.512  41.827   4.425
38076W        W10391   2.214  43.072   1.692
38077W        W10392   1.099  19.712   0.870
38078W        W10393  31.411  43.360   3.787
38079W        W10394  41.776  29.014  12.861
38080W        W10395  18.804  16.199   1.809
38081W        W10396  13.032  32.973  11.425
38082W        W10397   3.954   2.738   3.784
38083W        W10398   3.676  38.977  14.564
38084W        W10399  13.883   9.232   0.595
38085W        W10400  12.782   3.479  11.734
38086W        W10401  26.564  28.475  14.752
38087W        W10402  28.608  36.386   4.613
38088W        W10403  10.240  19.344   9.773
38089W        W10404  15.583  19.716   0.375
38090W        W10405  38.771  42.388  14.536
38091W        W10406   1.395  10.363  14.352
38092W        W10407  17.215  30.705   1.410
38093W        W10408  27.937   6.616  10.627
38094W        W10409  28.103  32.731  13.829
38095W        W10410  36.012  13.044   0.380
38096W        W10411  31.628  20.035   4.261
38097W        W10412  15.193  11.896  13.460
38098W        W10413  37.309  14.558   1.307
38099W        W10414  26.485   1.022  14.984
38100W        W10415  29.054  17.187   4.241
38101W        W10416  41.585  23.532  12.124
38102W        W10417  17.861  12.106   3.239
38103W        W10418  12.573   1.360  14.511
38104W        W10419  36.427  12.772   1.951
38105W        W10420  23.677  32.688  14.915
38106W        W10421   3.794  35.331   2.333
38107W        W10422   2.061  34.441   5.570
38108W        W10423  18.895   5.703   4.039
38109W        W10424  42.440  42.269  11.131
38110W        W10425  35.355  18.290   0.525
38111W        W10426  28.197   1.372   4.022
38112W        W10427  38.335  38.724  12.819
38113W        W10428   2.720  10.809   2.076
38114W        W10429   1.041  38.817   0.846
38115W        W10430  28.785  18.424  10.751
38116W        W10431  22.659  27.577   0.729
38117W        W10432  24.529  18.922   1.358
38118W        W10433   8.378   7.911  11.082
38119W        W10434  29.699  25.487   0.662
38120W        W10435  39.824  11.237  14.475
38121W        W10436  15.844  15.667   0.364
38122W        W10437  41.299  20.593   0.936
38123W        W10438   4.663   0.865  13.365
38124W        W10439  32.792  37.046   3.237
38125W        W10440  33.466  34.891   0.343
38126W        W10441  26.491   4.319  10.632
38127W        W10442   7.228  22.484   1.546
38128W        W10443  24.101  41.298  13.123
38129W        W10444  11.648  36.012  13.905
38130W        W10445  40.400  34.477  13.619
38131W        W10446  40.625  26.078  12.873
38132W        W10447  44.476  18.033   0.878
38133W        W10448  36.516   7.638   1.887
38134W        W10449  31.917   9.487   4.733
38135W        W10450  10.192  26.485   3.553
38136W        W10451  41.356  12.215   2.388
38137W        W10452  20.215  24.073   1.609
38138W        W10453  13.137  27.412   0.758
38139W        W10454  33.296  12.696  12.409
38140W        W10455  43.889  35.363   1.699
38141W        W10456  24.221  11.337   1.769
38142W        W10457  38.711   6.383   1.242
38143W        W10458  17.355  37.584  13.865
38144W        W10459  20.681  12.647   4.885
38145W        W10460  43.817  18.250   1.665
38146W        W10461  22.123  20.452  14.492
38147W        W10462  18.061  42.772  11.546
38148W        W10463  32.570  26.673   3.433
38149W        W10464  24.524  42.542   0.541
38150W        W10465  42.316  32.426   0.188
38151W        W10466  19.226  23.897  11.466
38152W        W10467  18.038  18.676   1.906
38153W        W10468  24.939  27.133   1.970
38154W        W10469  43.484  19.917  14.311
38155W        W10470  20.731  11.355   4.230
38156W        W10471  24.206  11.438  14.602
38157W        W10472  17.593  43.101  12.556
38158W        W10473  38.578   7.970  14.523
38159W        W10474  42.816  26.045   4.330
38160W        W10475  11.567  29.697   1.814
38161W        W10476  42.501  14.225  11.308
38162W        W10477  43.405  25.971  13.818
38163W        W10478  33.374  39.094   1.832
38164W        W10479  18.542  25.880  12.789
38165W        W10480   3.402   6.780   4.557
38166W        W10481  18.027  41.109  13.358
38167W        W10482  10.166   2.378   4.154
38168W        W10483  34.949  32.133   0.472
38169W        W10484  32.907  30.354  11.644
38170W        W10485  24.700  40.228  11.487
38171W        W10486  21.098  35.554  10.543
38172W        W10487  29.950   2.707  12.487
38173W        W10488  32.721  37.579  14.342
38174W        W10489  42.941   0.837   4.419
38175W        W10490  33.362  33.867   1.384
38176W        W10491  34.043   5.357   2.175
38177W        W10492  37.351  21.661   0.302
38178W        W10493  14.616   6.354  14.811
38179W        W10494  34.297   4.162   1.923
38180W        W10495  18.552  37.385  13.067
38181W        W10496  22.206  28.878  13.429
38182W        W10497  25.677  38.157   3.167
38183W        W10498  42.553  36.069  14.443
38184W        W10499   8.245  42.953  13.413
38185W        W10500  40.960  25.011  11.140
38186W        W10501  42.988  17.352  10.577
38187W        W10502  41.797   1.522  12.075
38188W        W10503  18.635  23.661   2.867
38189W        W10504  24.369   2.679   4.797
38190W        W10505  42.810  41.318  11.868
38191W        W10506  43.063  11.149  14.819
38192W        W10507  28.354  34.767  12.929
38193W        W10508   8.152  35.177   2.297
38194W        W10509  22.222  34.084   2.662
38195W        W10510  17.810  29.002   4.395
38196W        W10511  13.157  13.379   3.165
38197W        W10512  25.994   1.404  10.630
38198W        W10513   5.280  43.575   0.894
38199W        W10514  21.552   6.379   4.185
38200W        W10515  32.990  19.512  11.591
38201W        W10516  23.531   5.845   4.598
38202W        W10517  13.352  43.730   1.310
38203W        W10518  15.552  15.040  12.450
38204W        W10519  16.287   8.232  13.103
38205W        W10520  26.532  34.526   2.256
38206W        W10521  37.216  19.721  13.027
38207W        W10522  18.294  37.793  10.675
38208W        W10523   6.388  16.810   4.342
38209W        W10524  20.752  10.213  11.288
38210W        W10525  42.745   4.459  14.728
38211W        W10526  43.498  44.830   1.366
38212W        W10527  27.255  23.811   3.788
38213W        W10528  18.185  23.223  14.521
38214W        W10529  27.598  43.554  11.893
38215W        W10530  23.433  32.542   4.124
38216W        W10531  38.556  15.059  11.168
38217W        W10532  23.223   4.321   1.448
38218W        W10533  37.026  27.057   5.371
38219W        W10534  38.814  39.229  10.082
38220W        W10535  44.166  13.775  11.309
38221W        W10536  34.804  17.481  12.962
38222W        W10537  17.678  20.035  12.619
38223W        W10538  40.757  14.712  14.758
38224W        W10539  24.229  38.580   4.508
38225W        W10540  40.695  29.682   2.813
38226W        W10541  27.249  27.445  12.022
38227W        W10542  10.041   3.022   1.230
38228W        W10543  29.032  37.568   4.681
38229W        W10544   1.474  40.762   3.742
38230W        W10545  12.896  14.305   3.792
38231W        W10546  31.734  39.576   4.629
38232W        W10547  42.226   3.195   5.288
38233W        W10548  21.567   7.181   3.682
38234W        W10549  22.419  34.447   0.948
38235W        W10550  35.856  36.595  14.921
38236W        W10551  26.359  25.921  11.487
38237W        W10552   0.903   8.366  14.863
38238W        W10553  39.777  37.295  12.781
38239W        W10554  10.513  20.242   3.094
38240W        W10555   3.341  27.593  13.152
38241W        W10556   0.352  31.232   3.150
38242W        W10557  14.990  18.592   0.404
38243W        W10558  26.986  11.667  10.791
38244W        W10559  28.062  27.093  11.078
38245W        W10560   3.513  11.626  13.678
38246W        W10561  31.463  32.000  14.823
38247W        W10562  11.028  15.844   0.508
38248W        W10563  43.393  33.605  12.158
38249W        W10564  10.745  28.114   0.742
38250W        W10565  36.311  31.949  13.467
38251W        W10566  22.020  43.435  12.847
38252W        W10567  33.435  22.617   1.214
38253W        W10568  43.564  33.577  11.119
38254W        W10569  36.803  22.646  14.093
38255W        W10570  27.452   1.887   2.128
38256W        W10571  26.001  31.965   3.430
38257W        W10572  23.241  37.542  12.800
38258W        W10573  22.279   3.967   3.638
38259W        W10574  20.267   2.312   3.379
38260W        W10575  10.177   7.500   3.236
38261W        W10576  42.316  18.456  13.360
38262W        W10577   7.113  25.783   3.424
38263W        W10578   4.379   0.650   1.813
38264W        W10579  19.494  15.235  12.323
38265W        W10580  32.918  27.006  13.295
38266W        W10581  37.528  42.008   0.967
38267W        W10582  13.611  37.205  10.495
38268W        W10583  35.009   9.596   2.164
38269W        W10584   7.784  20.511   3.818
38270W        W10585  11.829  43.387  11.438
38271W        W10586   0.872  24.963  12.552
38272W        W10587  19.197  34.899  12.865
38273W        W10588  30.834  10.182   4.061
38274W        W10589  44.975   5.393  14.904
38275W        W10590  14.812  43.463  14.725
38276W        W10591  44.449  36.173  14.605
38277W        W10592  28.695  10.098  11.181
38278W        W10593  11.498  28.133   3.283
38279W        W10594  39.911  23.587   5.197
38280W        W10595  23.628  21.875  10.317
38281W        W10596  26.485  12.097   2.753
38282W        W10597  37.754  34.659   2.002
38283W        W10598  15.727   6.119  10.150
38284W        W10599  17.141  18.096  13.328
38285W        W10600  35.402  34.058  12.093
38286W        W10601  13.067  24.671   5.061
38287W        W10602  35.604  11.941  13.914
38288W        W10603  12.166  13.541   4.176
38289W        W10604  22.425   8.845   0.976
38290W        W10605   6.460  28.134  11.145
38291W        W10606  19.731  43.820   2.135
38292W        W10607  25.047  26.521  13.866
38293W        W10608   6.442   5.488   4.356
38294W        W10609   8.821  31.370  14.597
38295W        W10610  30.687   8.150  13.931
38296W        W10611  16.347  35.435  13.002
38297W        W10612  12.584   9.351  12.967
38298W        W10613  23.542  28.623   4.399
38299W        W10614  38.002  18.884   2.909
38300W        W10615  14.813   8.428  11.085
38301W        W10616  10.652  39.581   0.944
38302W        W10617   7.565  15.651   4.570
38303W        W10618   7.901  42.789   4.899
38304W        W10619  32.848   4.325  11.862
38305W        W10620  43.731  40.231  14.014
38306W        W10621   9.034  13.288   4.574
38307W        W10622  19.462  19.695  11.133
38308W        W10623   1.951  30.928  14.403
38309W        W10624  11.039   9.163  12.248
38310W        W10625  13.579  14.026  11.074
38311W        W10626   3.556  11.989  12.541
38312W        W10627  10.370  26.163  12.799
38313W        W10628   1.166   9.400  14.096
38314W        W10629  35.651  36.459   2.724
38315W        W10630  40.066  25.207   0.450
38316W        W10631  28.571  33.972  11.200
38317W        W10632  16.562  41.759   4.583
38318W        W10633  33.487  10.266  14.865
38319W        W10634  41.915  38.829   3.123
38320W        W10635  13.063   7.407   0.881
38321W        W10636  16.175  22.908   2.314
38322W        W10637  37.953  36.638  10.669
38323W        W10638  10.066  36.541  11.090
38324W        W10639  24.497   2.412  13.946
38325W        W10640  12.769  11.679  11.327
38326W        W10641  39.441  34.595  12.168
38327W        W10642   6.495  16.766   2.878
38328W        W10643   2.427  41.449   0.899
38329W        W10644   2.941   5.290  13.918
38330W        W10645  41.374  29.143  12.548
38331W        W10646  15.209  26.896   0.904
38332W        W10647  18.064  14.668  10.848
38333W        W10648  17.271  31.173   0.433
38334W        W10649  39.363  26.562   1.948
38335W        W10650  18.425  12.562  13.469
38336W        W10651   9.768  31.392  14.817
38337W        W10652  31.793  25.233  10.877
38338W        W10653  26.953  38.285  12.329
38339W        W10654  42.519  21.056  11.641
38340W        W10655  27.107  27.872  14.432
38341W        W10656  12.253   4.664  12.396
38342W        W10657  24.719  32.395  11.907
38343W        W10658  10.116  17.803   1.762
38344W        W10659  17.531  34.380  11.898
38345W        W10660  10.792  19.338  11.122
38346W        W10661   9.088   3.967   0.830
38347W        W10662  44.981  25.200   1.358
38348W        W10663  13.200   2.360  13.293
38349W        W10664   2.267   9.775  10.520
38350W        W10665  41.044  18.728   0.739
38351W        W10666   7.741  26.422  14.928
38352W        W10667  14.611  40.496  11.981
38353W        W10668  13.029  15.428   0.836
38354W        W10669  21.177  10.807   2.767
38355W        W10670  21.263  35.346   2.829
38356W        W10671   1.025  34.878   3.777
38357W        W10672  16.675   1.758   3.767
38358W        W10673   9.278   5.003  14.819
38359W        W10674  18.548   3.793   2.910
38360W        W10675  22.119  24.187   4.343
38361W        W10676  12.254  18.732   4.314
38362W        W10677  20.107   6.305  12.968
38363W        W10678  10.283  17.140   4.509
38364W        W10679  23.232  22.517   3.130
38365W        W10680  24.043  35.917   4.506
38366W        W10681   8.781  24.013   4.652
38367W        W10682   5.294   2.919  12.642
38368W        W10683  36.405  44.442   2.585
38369W        W10684  37.840  37.056  13.069
38370W        W10685   0.266  40.843  12.498
38371W        W10686  27.936  16.938  10.714
38372W        W10687  42.595  40.376  12.647
38373W        W10688   7.211   9.285   4.568
38374W        W10689  42.855  29.711  14.329
38375W        W10690   7.913   1.628   0.853
38376W        W10691   3.226  14.052   0.027
38377W        W10692  20.110   7.420   2.855
38378W        W10693  28.432  44.450  13.097
38379W        W10694  37.534  43.744  14.107
38380W        W10695  44.694   4.731   1.506
38381W        W10696  18.534  24.409  12.548
38382W        W10697   9.263  36.940  13.332
38383W        W10698  30.604  23.072  10.707
38384W        W10699   1.427  25.417  13.716
38385W        W10700  22.070   3.614  14.452
38386W        W10701  31.475  30.514   4.104
38387W        W10702  23.043   9.661  12.854
38388W        W10703  36.645  19.359   4.074
38389W        W10704  30.619  11.145  13.978
38390W        W10705   1.724  29.952   0.380
38391W        W10706   8.807   0.471  13.967
38392W        W10707  19.245  23.224  11.614
38393W        W10708  11.076   3.422  14.485
38394W        W10709  29.120   0.303  13.334
38395W        W10710  20.964  41.985  12.905
38396W        W10711  28.508  34.435   2.313
38397W        W10712  31.614  30.639   1.770
38398W        W10713  36.459   8.300  12.470
38399W        W10714   4.615   9.781  13.715
38400W        W10715  33.350   9.452  11.665
38401W        W10716  22.490  25.518   9.980
38402W        W10717  41.294  10.875   1.709
38403W        W10718  42.787  26.197   0.868
38404W        W10719  11.874  37.914   4.108
38405W        W10720   8.854  29.070   3.121
38406W        W10721  31.498  40.378  11.849
38407W        W10722  26.452  40.139  11.106
38408W        W10723  25.582  44.498   3.125
38409W        W10724   2.988  24.495   4.150
38410W        W10725  10.908  15.883   2.448
38411W        W10726   7.941  17.739   0.438
38412W        W10727   2.258  18.830  12.982
38413W        W10728   2.457  10.137   0.557
38414W        W10729  20.820  14.121   1.423
38415W        W10730   7.151   7.334   0.413
38416W        W10731  40.721  23.168  11.856
38417W        W10732  19.266  43.531   1.464
38418W        W10733  20.249   3.148   0.509
38419W        W10734  41.486  23.625   0.559
38420W        W10735  44.932  10.785  13.584
38421W        W10736  17.577  11.698   3.356
38422W        W10737  23.218   4.273  13.642
38423W        W10738  30.520   6.489   2.750
38424W        W10739  19.165  22.331   3.708
38425W        W10740  10.837  27.681   2.976
38426W        W10741  12.475  26.587  14.978
38427W        W10742  44.404  39.241  12.719
38428W        W10743  39.854  44.501  14.824
38429W        W10744   7.910   3.531   0.940
38430W        W10745   6.119  23.650   0.482
38431W        W10746   8.936  31.960   1.335
38432W        W10747  28.926  24.454  11.501
38433W        W10748   4.263  25.724   4.131
38434W        W10749  19.068  41.542   1.843
38435W        W10750  25.960  26.022   0.303
38436W        W10751   7.829  25.606   1.694
38437W        W10752  25.707  11.196   0.743
38438W        W10753   8.413  42.290  12.424
38439W        W10754  34.133  19.292  11.177
38440W        W10755   3.528  28.317   1.795
38441W        W10756  39.073  44.141  13.406
38442W        W10757  32.433  31.090  13.014
38443W        W10758  43.356   5.734   0.482
38444W        W10759   1.874  23.730  13.863
38445W        W10760  20.146   2.714  12.653
38446W        W10761  28.165  28.616   0.936
38447W        W10762   3.462  26.424  14.484
38448W        W10763   4.239  25.621   1.734
38449W        W10764  19.649  10.340  12.322
38450W        W10765  17.695  35.374   1.893
38451W        W10766   8.241  25.691  14.562
38452W        W10767  37.648  25.487  14.423
38453W        W10768  14.219  15.746  12.865
38454W        W10769   3.454   4.770  11.604
38455W        W10770  20.979  15.372   0.769
38456W        W10771  23.446   2.224   3.251
38457W        W10772  41.030  42.018   3.213
38458W        W10773  14.729   4.435  10.736
38459W        W10774  39.839  22.130   4.255
38460W        W10775  42.213   2.609   2.927
38461W        W10776  28.428  43.223  13.841
38462W        W10777  44.579  27.254  12.633
38463W        W10778  18.154  10.974   0.850
38464W        W10779  29.167  34.903   0.825
38465W        W10780  32.540  21.635   2.960
38466W        W10781  33.841  33.375   1.786
38467W        W10782  40.363   5.397  13.365
38468W        W10783  27.547  30.672   4.263
38469W        W10784  37.919  17.249   3.063
38470W        W10785   5.427  21.720  11.960
38471W        W10786  21.126  22.297   2.170
38472W        W10787   5.580  19.594  12.910
38473W        W10788  25.666  28.457   2.637
38474W        W10789  12.655  14.786   3.867
38475W        W10790  18.941  34.528   0.315
38476W        W10791   4.955  41.029  11.591
38477W        W10792  11.218   5.386  14.042
38478W        W10793   0.045  43.414   2.206
38479W        W10794   3.328  31.960   2.788
38480W        W10795  21.546   2.987   3.141
38481W        W10796   0.372  27.895   4.784
38482W        W10797  28.538  29.159  10.417
38483W        W10798  17.641  19.003  12.641
38484W        W10799  37.985   5.370  10.920
38485W        W10800   9.706  25.015  10.674
38486W        W10801  41.746   7.709   1.511
38487W        W10802   7.010  21.450   3.158
38488W        W10803  32.661  29.499   0.718
38489W        W10804  25.858  34.979   2.256
38490W        W10805  36.223   3.416   2.743
38491W        W10806   8.859  14.285  13.865
38492W        W10807  36.066   8.645  13.859
38493W        W10808   5.010  37.499  13.845
38494W        W10809  43.685  43.271   0.023
38495W        W10810  22.645  43.384   4.021
38496W        W10811   2.338  33.519   3.789
38497W        W10812  22.052  20.549   1.194
38498W        W10813  27.520   0.660  11.291
38499W        W10814  17.034  31.877   1.736
38500W        W10815  43.792  27.727   4.252
38501W        W10816  42.557  26.134  12.300
38502W        W10817  18.977  26.750  12.018
38503W        W10818   1.195  35.758   0.143
38504W        W10819  23.536  24.017  14.158
38505W        W10820  18.462  26.637  12.074
38506W        W10821  25.308  38.327  10.582
38507W        W10822  28.343  18.585  10.958
38508W        W10823  24.919  40.389  11.047
38509W        W10824  38.528  41.907  13.456
38510W        W10825  31.809  36.877  12.274
38511W        W10826  32.661   9.337  13.070
38512W        W10827  15.097  33.857  13.989
38513W        W10828  16.742  27.481  14.810
38514W        W10829  34.089  43.423   0.855
38515W        W10830  21.040  13.789  13.382
38516W        W10831  10.752   9.310  13.256
38517W        W10832  26.427   6.939   4.149
38518W        W10833   1.753  15.237   2.713
38519W        W10834   6.719  12.876  14.428
38520W        W10835  37.122  29.166  11.650
38521W        W10836   4.654  32.912   0.543
38522W        W10837  35.389  12.800   4.641
38523W        W10838   2.663  20.104   0.547
38524W        W10839  37.758  21.927   3.286
38525W        W10840  37.504  35.636   3.327
38526W        W10841  36.146  21.045   0.252
38527W        W10842  17.262   4.203   3.184
38528W        W10843  41.280  25.141   1.741
38529W        W10844  37.094  42.425   2.589
38530W        W10845  39.346  23.706   0.268
38531W        W10846   9.724  38.353   2.817
38532W        W10847   2.852  11.385   4.428
38533W        W10848  13.937   0.767   2.248
38534W        W10849   9.365  40.499  11.977
38535W        W10850  19.743  31.296  13.649
38536W        W10851  28.923  35.510   3.163
38537W        W10852   0.030  26.996  10.939
38538W        W10853  34.866   0.146   1.366
38539W        W10854  31.321  13.503   3.184
38540W        W10855  28.444   4.785  12.390
38541W        W10856  10.649  28.560   1.902
38542W        W10857  19.086   3.044   0.953
38543W        W10858   7.912  24.377   4.110
38544W        W10859  29.897  22.521   1.712
38545W        W10860  38.572  37.731   1.892
38546W        W10861  36.421  23.816  12.876
38547W        W10862  42.050  44.384   0.603
38548W        W10863  43.022  36.258   4.544
38549W        W10864  27.522  42.222  13.812
38550W        W10865  41.015  36.881  12.100
38551W        W10866  10.811  21.118   2.104
38552W        W10867  20.172  35.163   2.267
38553W        W10868   8.952  36.085  12.966
38554W        W10869  16.531  36.402  14.448
38555W        W10870  22.051  33.609   1.405
38556W        W10871   1.927  19.167  12.012
38557W        W10872  26.254  38.338   0.364
38558W        W10873  41.985  27.161  13.924
38559W        W10874   3.341  27.131   0.420
38560W        W10875  23.542   1.502  10.709
38561W        W10876  40.285  37.978   4.892
38562W        W10877   7.326  28.846   0.788
38563W        W10878   7.185  36.146   1.175
38564W        W10879   4.785  34.126  10.763
38565W        W10880  31.170  25.545   1.226
38566W        W10881  27.001   4.283   5.065
38567W        W10882   6.288  16.253  12.922
38568W        W10883  23.735   2.880   0.709
38569W        W10884  24.891  15.752  10.811
38570W        W10885   7.273  38.582   0.809
38571W        W10886  31.090  12.247  12.182
38572W        W10887  22.175  37.450   1.260
38573W        W10888  11.527  13.108   4.346
38574W        W10889  32.518  32.479   4.447
38575W        W10890  33.546   1.271   5.192
38576W        W10891   0.857  15.589   0.772
38577W        W10892   0.368  35.620  13.255
38578W        W10893  23.447   1.449  11.566
38579W        W10894   9.930  21.565   1.747
38580W        W10895  39.781   8.902   1.667
38581W        W10896  18.685  12.844   4.628
38582W        W10897   4.673  25.158   3.376
38583W        W10898  16.830  36.084  13.510
38584W        W10899  11.301  19.538   2.168
38585W        W10900  32.940  44.877  14.417
38586W        W10901  32.825  33.467  10.711
38587W        W10902  38.843  19.104  10.701
38588W        W10903  40.127  31.470   4.081
38589W        W10904  26.368  25.007  13.321
38590W        W10905   2.903   1.715   1.483
38591W        W10906  25.452  40.441  13.846
38592W        W10907   6.687  12.094  14.002
38593W        W10908  25.546  40.350   4.123
38594W        W10909  18.163  24.940   2.286
38595W        W10910  32.392  29.467   1.964
38596W        W10911  39.999  20.220  12.066
38597W        W10912  11.593  27.390   2.334
38598W        W10913  30.672  38.994  14.792
38599W        W10914  25.518  43.950   4.768
38600W        W10915  14.252  16.614  11.737
38601W        W10916   5.495   4.718   2.334
38602W        W10917  33.190  16.788   4.521
38603W        W10918  33.147  39.976  14.472
38604W        W10919  43.925  26.968   3.667
38605W        W10920  25.363  17.104   4.529
38606W        W10921   4.968  25.753   2.570
38607W        W10922  12.563  15.521   5.143
38608W        W10923  18.695  13.055  11.673
38609W        W10924  32.399   4.507   3.273
38610W        W10925  26.462   5.374   0.780
38611W        W10926  10.687  13.726   1.840
38612W        W10927   5.615  32.010  13.923
38613W        W10928  11.470  37.324  11.150
38614W        W10929   7.964  26.702  13.635
38615W        W10930  11.377  16.807   0.821
38616W        W10931  33.170  10.331  13.473
38617W        W10932  42.052  26.279  12.895
38618W        W10933  37.613   7.443  12.462
38619W        W10934  25.074  13.748   4.704
38620W        W10935  11.777  28.250   0.908
38621W        W10936   5.988  31.414   0.633
38622W        W10937  37.814  23.765   2.222
38623W        W10938   3.204  35.325   3.279
38624W        W10939   1.846  43.822  13.365
38625W        W10940  34.547  29.498   3.553
38626W        W10941   4.990  35.511   2.410
38627W        W10942  32.922  22.143   0.783
38628W        W10943  32.570   4.344   4.604
38629W        W10944  18.628  18.148   1.407
38630W        W10945  27.008   8.747   2.753
38631W        W10946  26.391  21.335  13.420
38632W        W10947  12.467  10.792   1.868
38633W        W10948  11.223  15.742   1.718
38634W        W10949   3.869  11.931  13.897
38635W        W10950  38.082   3.247  13.846
38636W        W10951  26.376  35.916  14.436
38637W        W10952  12.322  16.917   3.246
38638W        W10953  26.078  27.198  14.434
38639W        W10954  18.323  11.149   1.299
38640W        W10955  32.180  18.619  11.926
38641W        W10956   5.896  11.156   4.710
38642W        W10957   2.440  17.330  12.924
38643W        W10958   8.125  41.903   1.891
38644W        W10959  33.857  18.274   3.269
38645W        W10960  11.111  20.855   1.726
38646W        W10961  33.715  42.963  10.596
38647W        W10962  35.872  25.053  11.191
38648W        W10963  31.449  24.621   1.750
38649W        W10964  10.979  35.967   2.388
38650W        W10965  13.724  31.341  13.311
38651W        W10966  20.571  30.534  12.285
38652W        W10967  27.599  43.996   1.890
38653W        W10968   4.284  16.832  13.022
38654W        W10969  38.260  38.254  13.080
38655W        W10970  38.077  23.053  14.017
38656W        W10971  35.855   0.025  13.504
38657W        W10972  39.002   6.376  12.899
38658W        W10973  38.217  34.380  13.174
38659W        W10974  43.409   4.003   2.881
38660W        W10975  20.184   0.698  12.468
38661W        W10976  33.234  26.505  12.484
38662W        W10977  35.947   4.380  13.017
38663W        W10978  18.328  23.806  13.453
38664W        W10979  40.015   8.402   3.167
38665W        W10980  15.270   0.253  11.213
38666W        W10981  11.594  24.280  12.470
38667W        W10982  17.041  16.751  13.170
38668W        W10983  42.366  39.676  14.514
38669W        W10984  44.679  13.739  13.621
38670W        W10985   7.828  12.434   2.253
38671W        W10986   5.208  25.778  11.506
38672W        W10987   6.763  42.911   2.566
38673W        W10988  16.820  34.920   1.785
38674W        W10989  25.216  29.180   3.682
38675W        W10990  27.266  36.658  14.817
38676W        W10991  31.453  19.686  14.397
38677W        W10992  36.264  21.553   2.069
38678W        W10993  34.173  18.705  12.954
38679W        W10994  19.828  11.126   1.392
38680W        W10995   1.027  10.609   4.100
38681W        W10996  29.833  32.569  14.019
38682W        W10997   6.848  19.477   1.239
38683W        W10998  33.166   1.569  12.026
38684W        W10999   0.359  19.176   2.886
38685W        W11000  36.960  29.243   2.762
38686W        W11001  26.656   1.281  14.543
38687W        W11002  23.163  13.787  11.470
38688W        W11003  12.319  13.398   0.790
38689W        W11004   0.080  16.573   4.121
38690W        W11005   6.363  32.378   4.064
38691W        W11006  40.986  13.264  14.236
38692W        W11007  23.310  17.181   1.163
38693W        W11008  26.005  38.047   4.171
38694W        W11009  40.841  35.851   0.282
38695W        W11010  37.942  19.860   1.360
38696W        W11011  29.160  40.934   4.555
38697W        W11012  38.335  40.941  14.957
38698W        W11013   5.809  41.105   2.694
38699W        W11014  42.904  20.372  14.956
38700W        W11015  20.060  28.676   1.241
38701W        W11016  15.882  40.408  10.621
38702W        W11017   8.444  37.936  11.661
38703W        W11018  30.412   4.453  12.520
38704W        W11019  40.759  38.024  14.364
38705W        W11020  39.944  34.657   4.168
38706W        W11021  19.750  29.246  12.454
38707W        W11022  23.098  34.422   3.113
38708W        W11023  31.643  23.121  14.495
38709W        W11024  23.259  34.406  11.114
38710W        W11025  29.606   7.346   3.800
38711W        W11026  31.968  20.312  13.273
38712W        W11027  16.241  22.196   0.937
38713W        W11028  31.901  27.053   1.231
38714W        W11029  20.651  36.901   3.324
38715W        W11030   6.768   2.763   3.281
38716W        W11031  10.903  27.004   0.703
38717W        W11032  39.909  36.985   4.719
38718W        W11033  35.720  18.442  11.195
38719W        W11034  20.758  23.962  12.886
38720W        W11035  17.761  34.314   2.924
38721W        W11036  33.478  10.182   2.380
38722W        W11037  13.800  15.150  13.178
38723W        W11038  34.919  27.373  10.712
38724W        W11039  28.178  28.906  12.479
38725W        W11040  36.785  34.661  12.003
38726W        W11041  29.230  11.149   4.028
38727W        W11042  32.675  44.665   1.368
38728W        W11043  13.391  43.348  13.045
38729W        W11044  26.600  25.848   0.758
38730W        W11045  35.828  32.127  13.393
38731W        W11046   6.164  31.165   4.136
38732W        W11047  38.383   9.084   4.726
38733W        W11048   8.685   1.876  14.412
38734W        W11049  23.221  37.896   2.163
38735W        W11050  11.348  33.997  13.505
38736W        W11051  31.691  13.686  13.750
38737W        W11052  41.470  16.018  13.335
38738W        W11053  27.898  33.626  13.942
38739W        W11054  38.053  28.155  13.536
38740W        W11055  10.431  35.025  11.979
38741W        W11056   0.501  41.136  11.017
38742W        W11057  30.075  30.013  14.487
38743W        W11058  41.885   0.719   4.733
38744W        W11059  34.130  31.591  12.102
38745W        W11060  23.678  36.781  11.980
38746W        W11061   5.338  13.783  11.002
38747W        W11062  39.444  14.978   1.870
38748W        W11063  24.160  38.999   0.949
38749W        W11064  39.120   0.300   0.458
38750W        W11065   0.393  37.772   3.283
38751W        W11066  43.832  16.878  13.243
38752W        W11067  43.428  42.900  12.954
38753W        W11068  23.117  29.427   3.068
38754W        W11069   3.324  40.114  11.977
38755W        W11070  38.153  37.108  11.827
38756W        W11071   8.787  29.174  12.528
38757W        W11072   9.801  29.393   4.941
38758W        W11073  14.978  26.499  14.178
38759W        W11074  42.354  11.331  12.059
38760W        W11075  37.407  22.461  12.484
38761W        W11076  30.795  22.531  11.693
38762W        W11077  43.924  21.717   1.279
38763W        W11078  32.046  11.590   1.349
38764W        W11079  19.959  30.693   9.765
38765W        W11080  43.010  17.049  14.899
38766W        W11081  24.868   5.147   2.760
38767W        W11082  39.529  37.964   3.316
38768W        W11083  15.848  35.349   4.580
38769W        W11084  37.317  15.650   4.164
38770W        W11085  24.962   8.246   1.433
38771W        W11086  20.321   2.365   3.884
38772W        W11087   1.477  37.878   4.388
38773W        W11088   2.349  11.568   4.605
38774W        W11089   4.290  13.652  10.465
38775W        W11090  13.818  25.575  12.277
38776W        W11091  30.712  35.788   4.333
38777W        W11092  30.993  28.978  12.555
38778W        W11093  16.003  27.707   3.767
38779W        W11094  25.362  29.183   0.991
38780W        W11095  30.479  21.690   1.841
38781W        W11096  15.115  14.846  14.756
38782W        W11097   4.677  10.688  13.658
38783W        W11098  26.942  25.263  12.410
38784W        W11099  29.437  20.647  12.773
38785W        W11100  12.149  41.071   3.162
38786W        W11101  31.115  18.128   3.629
38787W        W11102   5.714  38.644   2.973
38788W        W11103  10.473  17.095   3.681
38789W        W11104  14.514  44.090   2.435
38790W        W11105   0.886  20.033   5.071
38791W        W11106  37.049  11.625  12.424
38792W        W11107  38.912  18.419  11.872
38793W        W11108  39.387  20.632   0.492
38794W        W11109  12.723  24.408   0.961
38795W        W11110   7.137  29.914   2.296
38796W        W11111   0.492  14.800  14.520
38797W        W11112  17.735  25.981   4.128
38798W        W11113  12.775  29.074   0.903
38799W        W11114  18.783   8.835   2.871
38800W        W11115   2.339  30.437  12.995
38801W        W11116  10.202  33.430   0.426
38802W        W11117  33.913  44.890   4.418
38803W        W11118  21.908   2.040  11.132
38804W        W11119  44.056  28.528  14.054
38805W        W11120  15.855  35.999   2.817
38806W        W11121   8.391  22.667   4.661
38807W        W11122  25.417  42.599  10.618
38808W        W11123  31.972  25.616   1.986
38809W        W11124  14.818   5.533  14.839
38810W        W11125  15.446  22.146   4.521
38811W        W11126  42.398  44.368  14.345
38812W        W11127  18.518  35.946  11.676
38813W        W11128  14.713   5.329  12.864
38814W        W11129  10.815   1.856   5.257
38815W        W11130  24.640  16.331   4.009
38816W        W11131  28.472  30.641  11.616
38817W        W11132  19.689  28.382  13.471
38818W        W11133   5.297  10.781  14.763
38819W        W11134  38.812  29.108  11.103
38820W        W11135   5.321  37.442   4.525
38821W        W11136  21.597  39.652   1.639
38822W        W11137  39.515   5.608  14.917
38823W        W11138  29.966  26.211   4.525
38824W        W11139  32.907  20.159   2.400
38825W        W11140  39.543  15.658   3.041
38826W        W11141  25.196  37.838   4.835
38827W        W11142  33.429  21.193  12.408
38828W        W11143   0.165  33.869   1.325
38829W        W11144  34.868   3.065  14.459
38830W        W11145  30.038  43.072  12.026
38831W        W11146  44.514  27.251  13.139
38832W        W11147  21.194  44.947   2.918
38833W        W11148  14.165  19.227  11.261
38834W        W11149  44.343  28.681   0.417
38835W        W11150  40.141  36.202  12.044
38836W        W11151  22.124  25.648   1.594
38837W        W11152  11.603  22.791  10.494
38838W        W11153   3.251  10.739  12.952
38839W        W11154  19.526  31.408   3.326
38840W        W11155  34.106  19.243  14.373
38841W        W11156  42.616  26.537  10.581
38842W        W11157  39.295  27.406   1.560
38843W        W11158  27.170  24.994   0.872
38844W        W11159  40.607  33.788  14.609
38845W        W11160  44.306  22.389  12.973
38846W        W11161   3.719  24.176   3.305
38847W        W11162  18.761  22.077   0.507
38848W        W11163  40.524  28.492   4.420
38849W        W11164   7.020  30.589  11.186
38850W        W11165  35.359  10.966   4.155
38851W        W11166  15.125  34.165   0.364
38852W        W11167  21.452   5.393   2.105
38853W        W11168  25.083  38.480  11.895
38854W        W11169   6.168  11.058  11.086
38855W        W11170  15.132   3.831   0.211
38856W        W11171   2.724   7.236   0.806
38857W        W11172  20.206  13.470   4.848
38858W        W11173  32.519  44.524  13.838
38859W        W11174   5.796   8.246   2.502
38860W        W11175  44.873  40.409   0.901
38861W        W11176  40.889  10.232   2.152
38862W        W11177  35.290  24.278   4.290
38863W        W11178  32.937  40.803   4.080
38864W        W11179   2.422  23.244  10.862
38865W        W11180  36.142  29.696   4.792
38866W        W11181  39.520  29.405   1.972
38867W        W11182   3.960  26.490  13.443
38868W        W11183  37.020  19.249  13.001
38869W        W11184  24.707  18.238  13.033
38870W        W11185   6.764   7.845  13.806
38871W        W11186  32.909   3.321   4.603
38872W        W11187  12.734  13.607  14.740
38873W        W11188   3.877  21.078  10.903
38874W        W11189  34.868  25.052  12.896
38875W        W11190  15.761  23.785  14.481
38876W        W11191  33.173  19.716  10.279
38877W        W11192  32.728  29.597   2.379
38878W        W11193  13.096  28.168   0.346
38879W        W11194  27.088  33.656  14.324
38880W        W11195  43.382  25.460  11.890
38881W        W11196  11.713  37.203  10.669
38882W        W11197  10.671  25.471   0.691
38883W        W11198  19.819  37.190  14.545
38884W        W11199  27.170  44.420  10.702
38885W        W11200  20.662  37.993  10.411
38886W        W11201  19.664  22.092   3.744
38887W        W11202   0.821  18.045   0.429
38888W        W11203   8.939  24.245  13.003
38889W        W11204  39.355   6.162   0.458
38890W        W11205  14.774  18.850  14.414
38891W        W11206  32.029  12.618   0.333
38892W        W11207  42.722   7.364  11.635
38893W        W11208  17.260   0.425  14.226
38894W        W11209  14.604  14.635  11.576
38895W        W11210  28.409  28.664   3.683
38896W        W11211  11.346  11.839  11.760
38897W        W11212  12.449  41.335  11.816
38898W        W11213  15.229  42.756   2.234
38899W        W11214  22.840  10.697   4.135
38900W        W11215   5.757   5.706   1.353
38901W        W11216   4.855  31.414  12.405
38902W        W11217  20.781  15.839   5.312
38903W        W11218  17.140  34.589   4.554
38904W        W11219  15.693  41.277  13.543
38905W        W11220  25.902  44.326   2.129
38906W        W11221   2.013  17.720  10.524
38907W        W11222   9.570  15.170  12.392
38908W        W11223  11.784  13.096  13.869
38909W        W11224   1.709   0.385  10.594
38910W        W11225  33.601  28.138  13.923
38911W        W11226  40.633  13.160   0.137
38912W        W11227   7.804  11.293   2.123
38913W        W11228  42.058  19.846   0.265
38914W        W11229  26.209  18.228  11.979
38915W        W11230  16.109  13.925   2.969
38916W        W11231  23.094  22.322   9.875
38917W        W11232   9.825  24.040  13.141
38918W        W11233  28.099  11.887   3.339
38919W        W11234  18.615   3.183   2.216
38920W        W11235  43.926  28.545   1.218
38921W        W11236  10.453  17.089  11.180
38922W        W11237  28.421  40.810  11.000
38923W        W11238   5.466  11.501  10.707
38924W        W11239  37.301  30.911   0.757
38925W        W11240  20.805  18.763   1.279
38926W        W11241  16.764  14.655  10.625
38927W        W11242  18.553   7.089   2.222
38928W        W11243  27.676  28.049  11.146
38929W        W11244  25.341  18.013   4.688
38930W        W11245  35.347  21.312   1.743
38931W        W11246  13.798  30.399   3.632
38932W        W11247  41.479  30.462  12.147
38933W        W11248  28.354   7.287  11.187
38934W        W11249  35.576  12.380   2.897
38935W        W11250  22.100  23.020   1.466
38936W        W11251  26.455  29.069   9.725
38937W        W11252  15.108   1.797   0.161
38938W        W11253  21.684  39.777  14.294
38939W        W11254  37.566  20.760  10.599
38940W        W11255  13.177  25.918  12.985
38941W        W11256  40.294  18.220   3.650
38942W        W11257  43.229   8.263   0.768
38943W        W11258   0.679  28.782   3.797
38944W        W11259  11.360  13.789  14.974
38945W        W11260  29.504  30.887   2.901
38946W        W11261  34.944  27.280   0.009
38947W        W11262  35.972  33.602  11.566
38948W        W11263  11.741   9.368  12.870
38949W        W11264  42.552  27.548   1.423
38950W        W11265   6.840   7.367  13.606
38951W        W11266   9.082  40.451  13.517
38952W        W11267  44.291  31.379  10.242
38953W        W11268  18.145   5.913   0.202
38954W        W11269   3.676   8.827   2.876
38955W        W11270  28.938  20.972  13.920
38956W        W11271  12.224  18.810   0.901
38957W        W11272  17.844  25.102  11.576
38958W        W11273  36.090   7.884   4.099
38959W        W11274  32.093  39.202   3.723
38960W        W11275   1.861   0.796   0.720
38961W        W11276  37.775  36.413   1.225
38962W        W11277  34.044   1.305   1.238
38963W        W11278  12.224  29.134  14.114
38964W        W11279  20.067  15.568  10.142
38965W        W11280  17.278  43.891   0.020
38966W        W11281  44.779  23.834  13.700
38967W        W11282   7.346  37.022  12.136
38968W        W11283  22.698   8.508   0.714
38969W        W11284   9.873  44.819  14.353
38970W        W11285   7.258  32.870  14.859
38971W        W11286  40.114   4.892   0.474
38972W        W11287  30.117  29.926   2.635
38973W        W11288  37.359  14.828   0.867
38974W        W11289  18.649   1.863   0.012
38975W        W11290   2.326   8.370   0.215
38976W        W11291  36.311  24.719   2.841
38977W        W11292  25.229  36.334   5.153
38978W        W11293  33.486   1.153  14.296
38979W        W11294  25.332  15.523   1.451
38980W        W11295  38.416   5.884   3.748
38981W        W11296   1.862  43.917   2.866
38982W        W11297  15.759   3.709   0.864
38983W        W11298   1.041  38.454  14.710
38984W        W11299  42.489  13.249  12.803
38985W        W11300  10.602  33.781  12.988
38986W        W11301  12.723  12.533  14.934
38987W        W11302  12.049  19.021  12.041
38988W        W11303  39.821  11.835   3.166
38989W        W11304  17.268  10.082   4.269
38990W        W11305   1.941  21.792   3.011
38991W        W11306  17.120  20.094  14.876
38992W        W11307  33.193  19.312   2.148
38993W        W11308  39.735  15.705   4.978
38994W        W11309  38.369  44.893  12.054
38995W        W11310  26.718  21.594  12.458
38996W        W11311  35.507  19.952   2.765
38997W        W11312  36.869  29.423  13.025
38998W        W11313   5.977   5.236   3.231
38999W        W11314  38.317  22.233  13.392
39000W        W11315  34.417   9.884  13.204
39001W        W11316  15.201  37.880   0.667
39002W        W11317  23.935  16.408  11.187
39003W        W11318  29.602  23.225   4.136
39004W        W11319  11.856  24.997   3.736
39005W        W11320  42.522   0.510  11.613
39006W        W11321  44.223  37.980   4.205
39007W        W11322  27.693  10.219   0.382
39008W        W11323  12.811  11.409  10.608
39009W        W11324  26.898  20.673   1.386
39010W        W11325   9.459  25.876   1.476
39011W        W11326  42.801  39.556  12.098
39012W        W11327  18.651  17.764   3.654
39013W        W11328  37.080  19.503  10.462
39014W        W11329  17.294  29.007   2.706
39015W        W11330   6.341  40.223   0.223
39016W        W11331  20.855  21.502  14.665
39017W        W11332  14.086   5.737   1.821
39018W        W11333  29.590  30.798  14.552
39019W        W11334  24.450  28.991   3.193
39020W        W11335  28.970  23.477  13.088
39021W        W11336  44.894   3.432   3.149
39022W        W11337  13.123  42.846   4.068
39023W        W11338  11.705  16.524   2.287
39024W        W11339  43.503  30.033  12.036
39025W        W11340  12.320  30.337  14.810
39026W        W11341   4.506  25.581  10.905
39027W        W11342   1.864  23.485   2.252
39028W        W11343  20.174  41.654  13.026
39029W        W11344  15.620   1.332   2.742
39030W        W11345  42.759  41.080  13.462
39031W        W11346   3.356  12.599   0.414
39032W        W11347  25.601  31.948  11.911
39033W        W11348  11.771  33.929   2.303
39034W        W11349   1.315   5.707   1.209
39035W        W11350  43.549  41.453   2.276
39036W        W11351   7.656  43.463   1.151
39037W        W11352  34.520  30.178  12.141
39038W        W11353   4.488   9.834  10.401
39039W        W11354  31.143  35.571  13.202
39040W        W11355  34.477  37.695  14.826
39041W        W11356   5.477  15.664  11.901
39042W        W11357   7.286  30.943  10.464
39043W        W11358  37.061  25.944   3.951
39044W        W11359  40.322  11.034  13.842
39045W        W11360  21.239  35.455  13.298
39046W        W11361  10.220  17.565  13.033
39047W        W11362  30.029  35.643  10.487
39048W        W11363  42.499   1.864   2.478
39049W        W11364  17.082  23.302   2.336
39050W        W11365  35.983   8.159  12.640
39051W        W11366  32.476   2.361  13.523
39052W        W11367  20.552   6.775  13.436
39053W        W11368  16.762  35.431   1.726
39054W        W11369   7.855  36.041  10.903
39055W        W11370  35.099   9.720   0.354
39056W        W11371   8.237  39.428  14.341
39057W        W11372  32.934  18.275  11.991
39058W        W11373  36.297  22.669  13.936
39059W        W11374   9.701   0.876   1.215
39060W        W11375  17.310  25.418   1.315
39061W        W11376   8.368  22.215   4.987
39062W        W11377  34.931  35.302  11.236
39063W        W11378  42.541  31.008   1.841
39064W        W11379  19.204   0.729   3.362
39065W        W11380  23.583   8.264   0.783
39066W        W11381   3.896   3.583  12.912
39067W        W11382  39.421  12.281  13.096
39068W        W11383   1.234  26.587   0.860
39069W        W11384  39.374  30.738  11.035
39070W        W11385  24.497   3.641   3.190
39071W        W11386   7.309   5.479  12.445
39072W        W11387   4.272  20.343   0.433
39073W        W11388   0.817   0.752   3.285
39074W        W11389  30.847  19.816  11.130
39075W        W11390   5.946  21.512  12.846
39076W        W11391  27.505  15.968   3.220
39077W        W11392  18.760  19.721   4.679
39078W        W11393  35.365  12.121   3.318
39079W        W11394  15.641  19.486   5.054
39080W        W11395  10.633  43.370   1.295
39081W        W11396  31.586  20.541  11.173
39082W        W11397  27.511  34.589   4.544
39083W        W11398  12.569  28.580   4.736
39084W        W11399  20.194  44.843  10.644
39085W        W11400  38.079  41.953  11.642
39086W        W11401  21.192  42.813   5.084
39087W        W11402   3.442  12.112   3.698
39088W        W11403  15.312   7.150  10.911
39089W        W11404  28.870  44.823   3.123
39090W        W11405   3.011  32.226   4.957
39091W        W11406  41.426  23.841   3.469
39092W        W11407  16.346  15.649  11.189
39093W        W11408  44.420  30.976  14.343
39094W        W11409  42.994   8.629  12.128
39095W        W11410  43.437   9.059   3.063
39096W        W11411   2.462  25.891   1.707
39097W        W11412  15.762  22.367  11.299
39098W        W11413  40.015  16.841  11.973
39099W        W11414  30.163  38.878  10.373
39100W        W11415  28.174  15.591  14.119
39101W        W11416  36.463  42.025  14.008
39102W        W11417  40.075  24.057   3.775
39103W        W11418  34.094  27.538  12.162
39104W        W11419  25.933  28.342  13.420
39105W        W11420  21.430  21.087  13.148
39106W        W11421  43.944   1.455  10.440
39107W        W11422   4.504  42.406  12.407
39108W        W11423  36.066  35.299  14.499
39109W        W11424  30.188  20.242  12.765
39110W        W11425  12.418  40.808   1.045
39111W        W11426   4.645  42.409   1.211
39112W        W11427  34.919  41.692  12.272
39113W        W11428  23.591  11.660   4.601
39114W        W11429  28.493  25.190  11.215
39115W        W11430   9.039  27.838  12.034
39116W        W11431  40.238   1.239  14.791
39117W        W11432   2.417  37.436  12.009
39118W        W11433  12.500  27.562   4.720
39119W        W11434   9.624   9.914   3.125
39120W        W11435  18.400  21.030  11.711
39121W        W11436  42.746  21.313   4.463
39122W        W11437   3.961  44.238  13.861
39123W        W11438  17.960  42.537  13.459
39124W        W11439   9.122  27.653   4.966
39125W        W11440  11.566  36.661  13.603
39126W        W11441  17.868  10.305   5.573
39127W        W11442  38.500  29.452   0.886
39128W        W11443   1.987  32.180  12.739
39129W        W11444  15.789  35.601  14.774
39130W        W11445   1.609  21.772   3.830
39131W        W11446  41.301  12.220  10.869
39132W        W11447  19.594  15.672   0.020
39133W        W11448  26.736  35.909   0.910
39134W        W11449  11.644  29.521  10.888
39135W        W11450  15.428  36.692  12.952
39136W        W11451  36.488   0.232  12.393
39137W        W11452  10.880  23.808   0.821
39138W        W11453   1.857  39.883  12.893
39139W        W11454  20.127  20.837  11.393
39140W        W11455  34.489   8.164  13.058
39141W        W11456   9.733   7.201   1.252
39142W        W11457  40.963  32.301  12.846
39143W        W11458   9.658  20.150  13.470
39144W        W11459  37.842  36.861  11.424
39145W        W11460  41.284  36.139  13.843
39146W        W11461  39.029  10.236  14.990
39147W        W11462  32.551  39.945   5.041
39148W        W11463  34.023  16.269  12.118
39149W        W11464  34.013  34.046   3.886
39150W        W11465   7.379  33.322  14.013
39151W        W11466  16.982  26.589   0.007
39152W        W11467  25.219  14.289   2.947
39153W        W11468  43.981  34.501  12.283
39154W        W11469  39.706  25.084  12.496
39155W        W11470   9.193   9.345  13.644
39156W        W11471  19.696  30.536   2.834
39157W        W11472  41.766  40.458  12.489
39158W        W11473  42.529  30.044   3.782
39159W        W11474  37.395  10.370   3.325
39160W        W11475  19.237  26.007  11.351
39161W        W11476  35.551  18.089  13.060
39162W        W11477  36.547  37.753  11.655
39163W        W11478  27.518  34.374   9.848
39164W        W11479  26.832  35.366   3.068
39165W        W11480  31.533  36.956   2.725
39166W        W11481  20.053  43.250   1.075
39167W        W11482  38.083  25.594   4.272
39168W        W11483  11.472  15.220  14.840
39169W        W11484  32.501  39.871  12.831
39170W        W11485  20.333  32.118  12.108
39171W        W11486  39.912  25.953  11.149
39172W        W11487  42.269  26.331   2.677
39173W        W11488  42.539   9.845  12.074
39174W        W11489  43.828   1.548   3.311
39175W        W11490  40.093  31.231  13.007
39176W        W11491  30.486  10.108  14.881
39177W        W11492  31.086  35.586  12.670
39178W        W11493  21.008  25.509  11.463
39179W        W11494  35.904   9.173  13.514
39180W        W11495   0.876   6.292  13.940
39181W        W11496  32.076  38.543  12.479
39182W        W11497  15.185  12.832  13.881
39183W        W11498  39.539  24.666   0.948
39184W        W11499  30.817   0.206   1.477
39185W        W11500   2.573  17.136   0.751
39186W        W11501  29.593  39.834   1.794
39187W        W11502   8.840  36.025   4.127
39188W        W11503  39.442  26.426   1.234
39189W        W11504  38.999  10.144  13.973
39190W        W11505  19.982  36.938   1.856
39191W        W11506  31.578  33.079  12.137
39192W        W11507  25.369   9.994  13.827
39193W        W11508  15.711  25.758  12.149
39194W        W11509  21.218  41.396  14.108
39195W        W11510  42.889  19.338  12.750
39196W        W11511  18.859  10.824   0.351
39197W        W11512   3.270  23.597   2.292
39198W        W11513   5.250  42.338  12.916
39199W        W11514   5.391  10.267  14.666
39200W        W11515   2.371  19.259   3.036
39201W        W11516  32.471  12.713  14.071
39202W        W11517  28.653  20.111   2.891
39203W        W11518   8.830   0.484  12.607
39204W        W11519  35.946  43.208  14.422
39205W        W11520  38.004  28.475   0.746
39206W        W11521  28.442   9.922   1.355
39207W        W11522  15.856   0.774  14.472
39208W        W11523   5.498  28.378  13.428
39209W        W11524  40.964  15.710  12.086
39210W        W11525   9.626  14.332  10.750
39211W        W11526  42.494   9.179   0.861
39212W        W11527  24.619  12.875  13.700
39213W        W11528  43.572   7.530  13.334
39214W        W11529  23.104   1.956  13.963
39215W        W11530  14.654  12.798   3.613
39216W        W11531  27.011  42.091   2.233
39217W        W11532  28.908  27.009  12.997
39218W        W11533   8.849  30.220   3.271
39219W        W11534  33.970  36.896  13.789
39220W        W11535  11.665  19.590  12.857
39221W        W11536   3.421  44.018   2.581
39222W        W11537  42.674  18.343  14.063
39223W        W11538  32.793  27.021   0.896
39224W        W11539   8.905   5.782  12.827
39225W        W11540  35.546  36.339   0.407
39226W        W11541  35.569  28.876  13.672
39227W        W11542  35.092  27.053   0.466
39228W        W11543   4.539   3.250  10.480
39229W        W11544  21.485   4.346   0.699
39230W        W11545   6.680  13.896  14.229
39231W        W11546  30.428   7.420   1.847
39232W        W11547  43.463  19.474  10.543
39233W        W11548   0.602   0.435   0.774
39234W        W11549  28.173  12.068  10.674
39235W        W11550  27.005  30.088   0.869
39236W        W11551   4.677  18.623   3.198
39237W        W11552   3.381  28.922   2.752
39238W        W11553   7.385  24.983   2.801
39239W        W11554  28.054  16.768   3.602
39240W        W11555   6.207  25.179  14.977
39241W        W11556  23.990  43.705   0.148
39242W        W11557  26.897  38.006  13.039
39243W        W11558  22.089  19.948  14.393
39244W        W11559  15.705  26.140   1.449
39245W        W11560  29.434  13.148   4.779
39246W        W11561  35.447   8.709  11.757
39247W        W11562  42.416   9.815  11.196
39248W        W11563  23.075  19.493   3.326
39249W        W11564  29.043   7.620  14.802
39250W        W11565  13.797   7.912  12.071
39251W        W11566  27.134  10.324   0.357
39252W        W11567  33.507  30.509   1.742
39253W        W11568  16.315   2.321  13.796
39254W        W11569  41.828  31.478  11.611
39255W        W11570   0.942  26.721   1.291
39256W        W11571   3.233  23.196  11.937
39257W        W11572  34.952  40.367   0.401
39258W        W11573  36.491   2.807   3.119
39259W        W11574  38.880  21.961   0.261
39260W        W11575  41.484  37.198  14.928
39261W        W11576   1.737  38.139  13.590
39262W        W11577  18.732  33.828  14.288
39263W        W11578   7.737  21.267  12.154
39264W        W11579  20.158   1.579   4.525
39265W        W11580  37.542  39.850   0.651
39266W        W11581   5.717  28.460  14.929
39267W        W11582  32.031  38.478   3.525
39268W        W11583  17.601  30.118  12.394
39269W        W11584  19.796  23.730   1.584
39270W        W11585  33.425  44.731   4.568
39271W        W11586  17.602  23.331  13.002
39272W        W11587  12.398  11.812  12.143
39273W        W11588  20.000  22.001  13.465
39274W        W11589   2.569  23.944   1.294
39275W        W11590  20.994  43.313   4.170
39276W        W11591   7.778  29.945  11.165
39277W        W11592  33.836  42.458  13.382
39278W        W11593  23.762  14.640  12.907
39279W        W11594  25.744  21.084   1.262
39280W        W11595  20.704  10.372   0.444
39281W        W11596  28.209   0.910  10.223
39282W        W11597   4.590  30.434  13.842
39283W        W11598  29.390  15.387  11.513
39284W        W11599  39.100   3.621  14.794
39285W        W11600   0.283  33.996  13.768
39286W        W11601  10.161  13.231   2.704
39287W        W11602  30.406  20.206   0.496
39288W        W11603   0.090   2.007   4.441
39289W        W11604  37.387  24.103   5.595
39290W        W11605  26.608  34.074  11.145
39291W        W11606  37.577   6.772   3.331
39292W        W11607  40.558   6.870   4.834
39293W        W11608  38.590   5.402   4.572
39294W        W11609   4.251   2.944   1.678
39295W        W11610   1.674  42.456   2.138
39296W        W11611  15.795   2.237   3.682
39297W        W11612  10.721  39.649  13.976
39298W        W11613  14.149  27.748  14.358
39299W        W11614  10.623  23.721  10.285
39300W        W11615  20.211   5.288  11.070
39301W        W11616  11.960  29.862   1.494
39302W        W11617   1.473   2.283   3.154
39303W        W11618  28.907  40.158   3.741
39304W        W11619   8.726   1.748  10.618
39305W        W11620  34.872  32.932   2.770
39306W        W11621  12.386  20.264   4.555
39307W        W11622  22.651  35.358   2.703
39308W        W11623  38.074  11.690  14.186
39309W        W11624  36.751   8.388  11.592
39310W        W11625   3.039   0.876   0.242
39311W        W11626  43.982  40.086   3.712
39312W        W11627  36.978   9.896   2.151
39313W        W11628  12.158   5.917  12.560
39314W        W11629   6.293  20.312  13.235
39315W        W11630  41.194  24.405   2.446
39316W        W11631  32.881  40.372   4.366
39317W        W11632   9.959   8.983   1.249
39318W        W11633  41.223  25.341  13.330
39319W        W11634  36.009  26.915  12.913
39320W        W11635  26.700  21.743   4.551
39321W        W11636  37.043  15.232  11.182
39322W        W11637  13.285  44.939  11.962
39323W        W11638  35.523  37.389   1.200
39324W        W11639  41.915  16.342   4.681
39325W        W11640   7.215   2.228  11.683
39326W        W11641  19.226  44.271   3.258
39327W        W11642   9.961  38.816   2.689
39328W        W11643  14.263  30.501   3.413
39329W        W11644  36.454  30.159   2.061
39330W        W11645   1.856   8.281   1.825
39331W        W11646  30.426   4.205   4.906
39332W        W11647   2.373   7.434  12.602
39333W        W11648  42.319  43.580  11.999
39334W        W11649   5.856   0.691  11.074
39335W        W11650  38.515   4.168   3.775
39336W        W11651  14.642  22.203   0.222
39337W        W11652  41.918  39.678  14.774
39338W        W11653  41.944  12.901  14.912
39339W        W11654  16.646  34.470   0.789
39340W        W11655  31.657   5.265  10.386
39341W        W11656   2.200  19.460   5.056
39342W        W11657  14.798   2.992  13.279
39343W        W11658  43.442   1.071   4.554
39344W        W11659   6.735  13.426  12.895
39345W        W11660  13.760   8.829  14.720
39346W        W11661   5.848  11.844   4.114
39347W        W11662  32.925  26.054   4.642
39348W        W11663  25.636   7.683  13.064
39349W        W11664  10.652  15.290  10.419
39350W        W11665  29.126  24.050   1.156
39351W        W11666   5.695  24.171  10.963
39352W        W11667  14.164  10.425   0.976
39353W        W11668  35.331   2.082  14.537
39354W        W11669  39.838  30.622   4.699
39355W        W11670  24.252  16.029   2.160
39356W        W11671  20.570  40.524   2.695
39357W        W11672  34.914  43.429   4.219
39358W        W11673  19.583  41.194  10.958
39359W        W11674  30.947   2.429   0.803
39360W        W11675  38.029  34.437  13.667
39361W        W11676   8.113  43.721  11.197
39362W        W11677  17.376  15.182   1.862
39363W        W11678  22.381  24.158  11.060
39364W        W11679  42.454  17.595   2.954
39365W        W11680  24.945  27.982  13.820
39366W        W11681  30.226   4.301   1.954
39367W        W11682  41.482  28.573  13.135
39368W        W11683  16.032  30.633   1.779
39369W        W11684  33.107  18.691   3.642
39370W        W11685  22.955  31.139   2.311
39371W        W11686  28.130  25.975  14.106
39372W        W11687  21.851  31.862   2.423
39373W        W11688  36.402   6.956   4.235
39374W        W11689   0.477  37.848   0.307
39375W        W11690   6.346  28.440   1.605
39376W        W11691  11.061  19.146  12.297
39377W        W11692  13.859  37.415  13.788
39378W        W11693   3.036   2.430   3.611
39379W        W11694  10.455  44.969  10.554
39380W        W11695  29.110  27.764  13.386
39381W        W11696  18.804  43.933   4.143
39382W        W11697  12.594  30.142   2.254
39383W        W11698  24.523   8.309   1.160
39384W        W11699   7.177   2.212  14.814
39385W        W11700  25.608  27.212  11.479
39386W        W11701  15.823   7.769  14.055
39387W        W11702  33.473  31.203   4.372
39388W        W11703  36.704   4.617   3.171
39389W        W11704  23.308  20.777   0.272
39390W        W11705   4.023  26.001  10.642
39391W        W11706  39.854  44.315  10.566
39392W        W11707   5.725   9.062  12.512
39393W        W11708  10.765   7.801  11.220
39394W        W11709  10.988  39.011   2.716
39395W        W11710   2.930   5.632   2.857
39396W        W11711  36.899  44.743  10.565
39397W        W11712   8.254  36.655  13.841
39398W        W11713  43.841  20.242  13.386
39399W        W11714  42.879  33.665  13.369
39400W        W11715   6.838  23.191   1.060
39401W        W11716  14.617  39.587   3.351
39402W        W11717  13.071  27.507   3.777
39403W        W11718  14.934  44.952   2.151
39404W        W11719  14.841  31.196  12.547
39405W        W11720  40.100  41.332  11.493
39406W        W11721   5.405   6.745  14.362
39407W        W11722   5.779   7.198   2.736
39408W        W11723  10.228  20.732   1.845
39409W        W11724  41.496  23.181  14.030
39410W        W11725  41.898  36.631   1.373
39411W        W11726  15.749  14.464  11.999
39412W        W11727  44.744   6.759  11.171
39413W        W11728  10.816   3.706  13.603
39414W        W11729  17.241  33.018   1.343
39415W        W11730   5.099  20.619   0.929
39416W        W11731  31.397  41.547  12.075
39417W        W11732  18.054   1.278   0.471
39418W        W11733  27.667  34.474   2.662
39419W        W11734  38.577  23.215   5.333
39420W        W11735   3.388   7.686   4.634
39421W        W11736  31.066   9.690  14.879
39422W        W11737  21.753   3.974   1.871
39423W        W11738  42.382   0.293   2.485
39424W        W11739   5.692  38.937  11.919
39425W        W11740  26.609   1.982   1.195
39426W        W11741   1.501  37.385  12.098
39427W        W11742   3.190  36.585  13.388
39428W        W11743  10.716  43.941  13.185
39429W        W11744  39.894  39.753   3.879
39430W        W11745  14.655  27.706   4.811
39431W        W11746  19.209  42.155   4.947
39432W        W11747  43.876  36.770  10.969
39433W        W11748   0.128  33.559  10.371
39434W        W11749  16.713  41.688  12.888
39435W        W11750  16.331  19.055   2.313
39436W        W11751  23.450   9.420  14.287
39437W        W11752  20.702  33.243   3.071
39438W        W11753  21.775   3.368   2.685
39439W        W11754  37.334  34.095  13.803
39440W        W11755  17.641  33.849   3.149
39441W        W11756   7.970   8.361  12.406
39442W        W11757  17.992  36.457  14.040
39443W        W11758  21.891  38.471  11.169
39444W        W11759   7.490   0.202  11.201
39445W        W11760  15.351  11.331  10.726
39446W        W11761  38.477  40.240   1.761
39447W        W11762  18.303  18.074   4.020
39448W        W11763   7.250  33.163   4.239
39449W        W11764  28.634  31.086   4.627
39450W        W11765  21.485  30.414   3.296
39451W        W11766  20.995  42.343   1.775
39452W        W11767  13.357  27.094  13.943
39453W        W11768  43.208  17.081  12.196
39454W        W11769  23.419   3.674  13.168
39455W        W11770  16.805  38.350   2.452
39456W        W11771  16.517  10.845  14.825
39457W        W11772  18.346  10.926  14.067
39458W        W11773   2.353  17.899  11.919
39459W        W11774  26.776  34.278   4.559
39460W        W11775  14.735   5.927   2.403
39461W        W11776  18.276  43.458   2.784
39462W        W11777   7.896  29.001   3.799
39463W        W11778   8.511  21.029   1.474
39464W        W11779   1.009  14.726  11.440
39465W        W11780  25.190  20.101   1.376
39466W        W11781   4.114  34.248  12.534
39467W        W11782  15.717  26.510  12.789
39468W        W11783  35.089  38.094  11.537
39469W        W11784   6.354  44.275  12.570
39470W        W11785   9.614   6.467   3.665
39471W        W11786  32.197  22.094  13.547
39472W        W11787  28.200   5.893  11.727
39473W        W11788  27.805  31.693   0.678
39474W        W11789  11.125  36.899  11.067
39475W        W11790  13.314  29.018   4.992
39476W        W11791   1.054  28.393   9.974
39477W        W11792  20.048  38.741   0.743
39478W        W11793   0.532  23.306  13.778
39479W        W11794  29.013  22.532   0.437
39480W        W11795  35.468  10.627   3.768
39481W        W11796   3.484   9.254  12.836
39482W        W11797  19.908  26.002   3.412
39483W        W11798   3.461  29.187   4.506
39484W        W11799  20.669  19.686  11.068
39485W        W11800  41.668   4.951   3.882
39486W        W11801  32.894  36.078  12.922
39487W        W11802  21.126   4.688   1.821
39488W        W11803  36.521  23.778  12.026
39489W        W11804   2.508  16.773  12.013
39490W        W11805  14.195   0.458  12.688
39491W        W11806  33.540  18.636   4.995
39492W        W11807  11.296  43.198  12.601
39493W        W11808  36.420  44.425  14.017
39494W        W11809  27.632  39.090  13.017
39495W        W11810  40.243  39.041   4.228
39496W        W11811  31.524  35.855   0.358
39497W        W11812   3.310  32.445   2.619
39498W        W11813  16.074   7.845  10.737
39499W        W11814  10.701  22.303   0.718
39500W        W11815  36.069  26.405  12.965
39501W        W11816  27.918   7.556  13.104
39502W        W11817   6.938   4.027   3.997
39503W        W11818  25.471   6.118   9.686
39504W        W11819   0.764  27.302  13.574
39505W        W11820  10.051   3.149   4.090
39506W        W11821  42.036  29.971   3.854
39507W        W11822  24.538  33.195  11.249
39508W        W11823  22.274   6.923   0.233
39509W        W11824   2.695  13.471  11.901
39510W        W11825  19.666  16.602  12.242
39511W        W11826  41.496   7.775  12.914
39512W        W11827   8.194  43.440   1.222
39513W        W11828  32.374   7.777   3.627
39514W        W11829  18.322  43.221  11.557
39515W        W11830   1.221   3.267  11.981
39516W        W11831  18.993   8.324  14.713
39517W        W11832  36.152  20.967  12.916
39518W        W11833  14.713   5.918  14.501
39519W        W11834  43.134  38.012  10.350
39520W        W11835  15.375  39.887   3.854
39521W        W11836   7.616  16.362   0.719
39522W        W11837  44.038  10.143   0.353
39523W        W11838   9.215   0.175  13.822
39524W        W11839   4.183  41.564   3.796
39525W        W11840  26.213   6.489   4.272
39526W        W11841  13.878  17.739   3.587
39527W        W11842  18.789   0.271  11.034
39528W        W11843  21.624  28.745   2.181
39529W        W11844  37.038  42.097   0.745
39530W        W11845  40.967  19.073   1.710
39531W        W11846   8.459   9.268  12.378
39532W        W11847  24.269  29.507  11.641
39533W        W11848  29.412  20.056   1.394
39534W        W11849   9.411  14.275  12.113
39535W        W11850  15.701   8.758  14.902
39536W        W11851  26.413  13.364  13.310
39537W        W11852  20.767  18.991  12.977
39538W        W11853  26.921  38.960  14.778
39539W        W11854  27.919  33.911  12.706
39540W        W11855   3.090  44.292   4.790
39541W        W11856  27.094  28.000  11.059
39542W        W11857  29.488  36.180   3.717
39543W        W11858  33.096  35.722  11.649
39544W        W11859   6.064  15.927  11.673
39545W        W11860  28.114  20.658   2.350
39546W        W11861  23.268  11.841  13.046
39547W        W11862   9.184   8.915   1.457
39548W        W11863   5.391  31.214   2.765
39549W        W11864  35.940  19.098  12.984
39550W        W11865  14.375  16.236  12.043
39551W        W11866  28.647  19.444   1.174
39552W        W11867   3.387   0.429   0.269
39553W        W11868   5.141  15.012   2.817
39554W        W11869   2.343   1.032  11.058
39555W        W11870   2.895   7.133  11.393
39556W        W11871  33.340  11.457   2.307
39557W        W11872  21.581   3.414   4.430
39558W        W11873   1.554   0.846  12.444
39559W        W11874   5.383  34.112  12.425
39560W        W11875  12.180  36.780   2.302
39561W        W11876  13.858  29.546  12.434
39562W        W11877  33.077   2.246   1.936
39563W        W11878  37.347  11.875  13.526
39564W        W11879   4.718  31.012   0.346
39565W        W11880  33.364  17.164  10.748
39566W        W11881  21.525  30.339  13.840
39567W        W11882  22.044  40.491   2.095
39568W        W11883  12.545  29.998  13.261
39569W        W11884  38.397  24.499   4.120
39570W        W11885   0.404  31.642  13.914
39571W        W11886   6.974  20.470  12.824
39572W        W11887  10.311  20.691   1.311
39573W        W11888  41.888  18.616   3.456
39574W        W11889  34.357  27.431  10.631
39575W        W11890  36.074   7.695  12.853
39576W        W11891  28.464  35.778  11.470
39577W        W11892  31.377  39.307   2.349
39578W        W11893  39.249  30.167   3.099
39579W        W11894   8.925   0.713   1.588
39580W        W11895  19.502  37.444  13.469
39581W        W11896   4.687  34.925  12.077
39582W        W11897  28.068  19.535   1.283
39583W        W11898   9.491  22.589  10.761
39584W        W11899  18.070  10.665  12.633
39585W        W11900   5.898  36.809  13.321
39586W        W11901  37.045  35.117  11.944
39587W        W11902  36.015  44.060   3.677
39588W        W11903  21.600  27.622  12.918
39589W        W11904  35.063  27.713  13.198
39590W        W11905   8.493  40.519  11.927
39591W        W11906  20.033  36.889  11.684
39592W        W11907  39.724  16.321   4.164
39593W        W11908  37.949  21.832  14.355
39594W        W11909  11.059   6.219   1.033
39595W        W11910  42.548   3.861   0.403
39596W        W11911  33.273  17.730   3.687
39597W        W11912   6.692  28.672   0.358
39598W        W11913  21.031  37.740   0.792
39599W        W11914  37.971  28.076  14.898
39600W        W11915  36.788  21.751  13.633
39601W        W11916  39.419  11.114  12.977
39602W        W11917  38.822  11.168   0.988
39603W        W11918  16.083   4.399   3.784
39604W        W11919  25.607  12.037   1.795
39605W        W11920  42.990  32.184  12.366
39606W        W11921  23.283  12.260  12.067
39607W        W11922  36.526  13.812  13.967
39608W        W11923  31.193  23.086  14.780
39609W        W11924   6.842  39.028   3.667
39610W        W11925  30.500   5.971   3.696
39611W        W11926   8.190   5.006   4.578
39612W        W11927  39.285  29.723  13.464
39613W        W11928  21.583  16.256   4.700
39614W        W11929  30.961   7.363   1.344
39615W        W11930  41.841  10.297  13.626
39616W        W11931   8.740   3.249   4.610
39617W        W11932   6.805  40.027  11.634
39618W        W11933  21.806  43.569  11.994
39619W        W11934  26.647  43.460  14.862
39620W        W11935  34.315  11.394  13.027
39621W        W11936   7.726  35.365  13.597
39622W        W11937  25.543  40.063  12.008
39623W        W11938  42.824  44.937   0.735
39624W        W11939  23.284  11.394   3.255
39625W        W11940   1.235  10.298   1.260
39626W        W11941   7.739  43.579  12.448
39627W        W11942  35.060  43.152  12.641
39628W        W11943   2.629  35.663   5.619
39629W        W11944  42.812  25.137   2.302
39630W        W11945  27.257   3.464   4.168
39631W        W11946  42.356  34.556   4.113
39632W        W11947  36.545  42.943   4.540
39633W        W11948  44.369  14.723   4.145
39634W        W11949  17.061  38.570  12.023
39635W        W11950  10.790  29.013  11.840
39636W        W11951  25.022  15.756   0.825
39637W        W11952  11.229  36.807   2.689
39638W        W11953  34.496  22.175  13.503
39639W        W11954   9.886  22.196   2.769
39640W        W11955  44.751  44.777   1.334
39641W        W11956  34.496  34.057  11.598
39642W        W11957   9.178  41.816   4.032
39643W        W11958  19.953  21.740   4.684
39644W        W11959  11.896  42.445  11.108
39645W        W11960  33.008  19.209  12.026
39646W        W11961  41.061   4.402   2.617
39647W        W11962   9.299   9.620  12.192
39648W        W11963  10.048  18.628  14.858
39649W        W11964  39.026  17.813   0.119
39650W        W11965  15.266  35.404  13.746
39651W        W11966  42.715  25.596   0.702
39652W        W11967  26.113   3.784   5.469
39653W        W11968  29.566   2.462   1.863
39654W        W11969  15.169  10.157  11.122
39655W        W11970  27.539  25.738  11.714
39656W        W11971  23.542  38.877  10.843
39657W        W11972   1.878  40.274  14.299
39658W        W11973  11.401  35.076  13.069
39659W        W11974  16.685   7.404   2.397
39660W        W11975  17.511  39.474   4.297
39661W        W11976   2.773  16.184  14.664
39662W        W11977  21.241  42.074  11.945
39663W        W11978  10.848  38.281  14.791
39664W        W11979  18.670   3.695   3.675
39665W        W11980  24.433   5.422   3.417
39666W        W11981   3.206   1.429   1.164
39667W        W11982  29.960  15.545  12.160
39668W        W11983  36.353  33.529   1.769
39669W        W11984  29.603   4.962  12.935
39670W        W11985  44.395  26.323  12.268
39671W        W11986  32.464  13.772  12.879
39672W        W11987  19.595  36.571   3.067
39673W        W11988  40.963  20.817   0.356
39674W        W11989  13.561  24.711  12.522
39675W        W11990  15.045  41.867   4.601
39676W        W11991   8.753  27.873   4.622
39677W        W11992  42.475  28.672  14.880
39678W        W11993  15.415  12.169  12.715
39679W        W11994  30.563  29.569  11.999
39680W        W11995  36.469   7.416  10.852
39681W        W11996  21.963   8.713   3.655
39682W        W11997  44.818  14.870   0.602
39683W        W11998  27.460  23.635  14.482
39684W        W11999  32.947   1.008  10.374
39685W        W12000  32.550  34.846   5.130
39686W        W12001  16.875  23.222  10.342
39687W        W12002  26.398   3.740  14.293
39688W        W12003  11.616  39.681  13.035
39689W        W12004  42.563  36.127   4.039
39690W        W12005  43.058  14.153   2.695
39691W        W12006  23.485   6.805   4.597
39692W        W12007  26.595  34.112   4.096
39693W        W12008  18.372   7.863  14.470
39694W        W12009  42.963   8.674   0.363
39695W        W12010  16.606  40.328  12.007
39696W        W12011  14.583  19.057  14.880
39697W        W12012  10.858  18.027  13.812
39698W        W12013  20.611  34.690   1.417
39699W        W12014  37.917   1.457   4.214
39700W        W12015  29.164  18.389   1.743
39701W        W12016  38.568  23.653  10.611
39702W        W12017  19.754  13.559   4.520
39703W        W12018  18.694  19.580  11.406
39704W        W12019  18.332  36.095  14.194
39705W        W12020  10.460   4.270   3.850
39706W        W12021  28.864   3.972   2.839
39707W        W12022   6.647  23.597   0.721
39708W        W12023  42.328  13.406   0.831
39709W        W12024  41.145   2.904   4.884
39710W        W12025  11.680   5.280  14.486
39711W        W12026  41.499   3.902   0.404
39712W        W12027  29.663   8.899  10.711
39713W        W12028  35.384  36.409  11.457
39714W        W12029  23.761   5.656   2.241
39715W        W12030   4.174  27.588   0.849
39716W        W12031  23.566  34.316  10.694
39717W        W12032   6.223   6.811  13.948
39718W        W12033   5.212  10.653   1.176
39719W        W12034  30.639  31.735  12.367
39720W        W12035  43.910   3.235  11.947
39721W        W12036   3.820  29.581   4.594
39722W        W12037  32.570  33.332  12.531
39723W        W12038  18.551   7.083  12.438
39724W        W12039  10.900   0.053   2.128
39725W        W12040  31.083   9.819   4.553
39726W        W12041   0.661  36.521   9.746
39727W        W12042  14.344   7.680  13.805
39728W        W12043  41.967  26.566  11.237
39729W        W12044  27.441   1.760  11.426
39730W        W12045   4.867   9.254  12.121
39731W        W12046  20.718  41.430   1.371
39732W        W12047  41.040   9.201  10.701
39733W        W12048   8.636  36.456   4.969
39734W        W12049   6.932   1.826   0.758
39735W        W12050  10.353  37.504   0.005
39736W        W12051   3.734  34.998   4.653
39737W        W12052   8.343  29.862  12.059
39738W        W12053  44.426  37.060  14.812
39739W        W12054  44.604  41.351   4.556
39740W        W12055   7.371  21.709   3.472
39741W        W12056  19.316  29.458  12.612
39742W        W12057  37.633  15.648   3.755
39743W        W12058  28.604   4.786  14.607
39744W        W12059  30.786  42.294   1.181
39745W        W12060  18.782  25.113   0.202
39746W        W12061  19.416  32.637   1.210
39747W        W12062  23.915  19.607   1.395
39748W        W12063  13.609  32.372  13.926
39749W        W12064  23.206  26.131   2.870
39750W        W12065  12.850  21.857  10.477
39751W        W12066   2.825  34.992   1.177
39752W        W12067  37.741  35.408  13.876
39753W        W12068   3.732  16.247   4.583
39754W        W12069  19.744  37.094   2.280
39755W        W12070  24.114  14.642   1.673
39756W        W12071  38.017  21.187  12.602
39757W        W12072  44.330   7.441   2.297
39758W        W12073  16.702  35.781  11.134
39759W        W12074   7.790   9.660  12.668
39760W        W12075   8.783  44.306  10.656
39761W        W12076  26.853   2.359   2.773
39762W        W12077  22.948  21.755   4.669
39763W        W12078  14.883  35.319  11.959
39764W        W12079   4.155  41.440  11.526
39765W        W12080  35.071  11.906   3.698
39766W        W12081   2.403  42.471   0.774
39767W        W12082   8.261  30.354  11.980
39768W        W12083  35.909  10.088  12.353
39769W        W12084  27.454  16.478   3.017
39770W        W12085   1.870  11.189   1.191
39771W        W12086  44.442  33.989  11.473
39772W        W12087  15.183  32.700   3.771
39773W        W12088  21.036   1.245   0.674
39774W        W12089  11.209   9.433   4.040
39775W        W12090   3.648   0.973   3.611
39776W        W12091   3.404  24.093  11.659
39777W        W12092  27.805  20.608  14.754
39778W        W12093  31.573   5.270  12.331
39779W        W12094  10.377   8.901   3.744
39780W        W12095   5.462   5.726  11.688
39781W        W12096  37.188   8.466  12.950
39782W        W12097  34.069  11.738  10.561
39783W        W12098  13.897  36.009   0.723
39784W        W12099  27.472  11.402  12.406
39785W        W12100  16.808  42.530  10.704
39786W        W12101  22.123  31.972   3.834
39787W        W12102  28.665  28.675  12.443
39788W        W12103  23.621   6.639   4.128
39789W        W12104  29.152  41.279   0.288
39790W        W12105  32.495  23.978  13.470
39791W        W12106  21.194  37.801  13.091
39792W        W12107  29.179   5.281   1.656
39793W        W12108  21.137  10.322   2.966
39794W        W12109  12.699  25.062   2.624
39795W        W12110   0.545   1.192  13.021
39796W        W12111  41.102  29.424  10.699
39797W        W12112  16.218   5.793  13.381
39798W        W12113  15.756  22.117   1.196
39799W        W12114  24.293  40.057   3.600
39800W        W12115  44.891   2.214   3.303
39801W        W12116  32.139  44.743  14.894
39802W        W12117  11.050  40.006  11.522
39803W        W12118   4.709  44.250  13.268
39804W        W12119   1.463  31.671  11.065
39805W        W12120  41.758  14.604   1.897
39806W        W12121  24.703  44.453  11.248
39807W        W12122  27.456   6.472  10.676
39808W        W12123  33.498  34.855   1.744
39809W        W12124  40.061   2.017   0.850
39810W        W12125   7.816  21.480   3.624
39811W        W12126  11.358  14.901  13.412
39812W        W12127  29.601  36.140   3.206
39813W        W12128  15.033   6.824   4.589
39814W        W12129  11.158  12.782  11.984
39815W        W12130  22.444   8.892   0.460
39816W        W12131  37.078   6.831   0.375
39817W        W12132   3.633  34.938  13.401
39818W        W12133  27.680   4.828   0.354
39819W        W12134  33.592   4.855  11.771
39820W        W12135  19.021  27.522   2.885
39821W        W12136  32.042  34.958  14.059
39822W        W12137   8.634  21.615  12.623
39823W        W12138  41.988   4.725   0.714
39824W        W12139   8.301  21.678  11.391
39825W        W12140  16.091  25.103   3.240
39826W        W12141  20.109   7.218  14.719
39827W        W12142  12.823  18.612   2.485
39828W        W12143  38.442  23.262   0.989
39829W        W12144   9.289  44.339  13.829
39830W        W12145   7.163  26.455   5.077
39831W        W12146  10.759  35.446  13.988
39832W        W12147  14.270   9.593  11.782
39833W        W12148  15.673  30.563  10.612
39834W        W12149  27.487  15.887  14.489
39835W        W12150  29.166  41.052  12.593
39836W        W12151  12.726  17.497  14.202
39837W        W12152   1.925  42.058   0.160
39838W        W12153  32.887  36.516  13.669
39839W        W12154   8.746   2.948   0.913
39840W        W12155  17.637  43.957   1.205
39841W        W12156  30.500  35.428   4.661
39842W        W12157  36.459   6.471  14.738
39843W        W12158  30.114  17.157   2.286
39844W        W12159  13.530  33.385  14.881
39845W        W12160  23.096  27.233  13.847
39846W        W12161  12.301  36.824  12.909
39847W        W12162  29.228   4.234   0.772
39848W        W12163  15.749  26.612   0.589
39849W        W12164  31.978  36.595   3.420
39850W        W12165  21.215  13.868   1.250
39851W        W12166  43.912  23.141  14.896
39852W        W12167  41.283   5.263  14.835
39853W        W12168  15.287  29.200   1.252
39854W        W12169  22.594   7.327   3.051
39855W        W12170   7.286  43.116   5.225
39856W        W12171   9.348   4.679  12.078
39857W        W12172  25.098   6.353   1.748
39858W        W12173   2.462  23.539   3.336
39859W        W12174  10.311  22.703  11.117
39860W        W12175  20.078   7.935   2.801
39861W        W12176   9.195  29.458  14.988
39862W        W12177   6.190  14.172   0.463
39863W        W12178  39.486  39.022  12.433
39864W        W12179   3.845  37.377   3.232
39865W        W12180  37.901  10.545   3.146
39866W        W12181  15.344  44.529   1.912
39867W        W12182  18.210  28.393  12.319
39868W        W12183  14.692  29.465   0.358
39869W        W12184  32.403  11.233   0.993
39870W        W12185   0.485  16.220   2.275
39871W        W12186  30.561  11.369   0.286
39872W        W12187  31.435  44.718   2.263
39873W        W12188  26.642  28.145   1.276
39874W        W12189  34.956  23.138  11.922
39875W        W12190  30.562   1.372  12.160
39876W        W12191   0.514  32.280   3.347
39877W        W12192  36.422   1.304   0.953
39878W        W12193  37.384  35.628  11.980
39879W        W12194  33.450  19.507   1.722
39880W        W12195   8.877  20.263  10.608
39881W        W12196  43.332  43.734  14.270
39882W        W12197   2.357  25.269   5.153
39883W        W12198  22.187  34.100   0.084
39884W        W12199  28.533  32.754  10.667
39885W        W12200  30.528   2.217  13.616
39886W        W12201  34.108  14.291   4.467
39887W        W12202  11.671  10.773   3.084
39888W        W12203  40.135  12.380   1.402
39889W        W12204  38.860  44.949  10.759
39890W        W12205  44.144  36.839  11.681
39891W        W12206  32.088  29.927   0.286
39892W        W12207  23.032  18.924   0.286
39893W        W12208  37.066  25.111  14.935
39894W        W12209  35.548  26.816  12.703
39895W        W12210   9.046  16.610   3.651
39896W        W12211  26.154  23.961   2.381
39897W        W12212  27.668  28.201  13.352
39898W        W12213  12.889  12.646  11.516
39899W        W12214  12.369  42.306  11.283
39900W        W12215   3.700  37.982  10.872
39901W        W12216  42.648  27.534   3.761
39902W        W12217   3.132  23.543  14.368
39903W        W12218  37.927  16.678  14.531
39904W        W12219  39.925   2.017   4.618
39905W        W12220  28.618   1.277  11.026
39906W        W12221  40.959  42.329  11.134
39907W        W12222  18.766  28.782  14.782
39908W        W12223  26.480  21.069   9.918
39909W        W12224  37.474  13.023   4.428
39910W        W12225  36.684   3.200   2.672
39911W        W12226  16.286  33.104   0.886
39912W        W12227   5.967  40.370   4.313
39913W        W12228  34.375  38.855   4.232
39914W        W12229   1.026   2.274  14.721
39915W        W12230  25.062  17.277  11.495
39916W        W12231  42.036  17.929  14.565
39917W        W12232  32.706  32.964   3.591
39918W        W12233  37.467  29.566  11.671
39919W        W12234  37.404  30.930  12.534
39920W        W12235  41.931  43.513  14.327
39921W        W12236  22.532  29.129   1.122
39922W        W12237  14.256  10.830  11.891
39923W        W12238  33.942  30.061  13.077
39924W        W12239  14.327  23.258   0.809
39925W        W12240  22.548  12.681  14.860
39926W        W12241  11.781   2.914   1.310
39927W        W12242  14.338  21.580   3.268
39928W        W12243  27.187   9.951  14.649
39929W        W12244   6.809  39.580   4.541
39930W        W12245  42.321  16.804  12.577
39931W        W12246  26.675  20.795   4.564
39932W        W12247  36.628  37.147  11.886
39933W        W12248  20.280  36.532   1.917
39934W        W12249   1.761  27.593  10.749
39935W        W12250  24.760  18.162  10.954
39936W        W12251  30.032  24.695  11.898
39937W        W12252  23.544   0.218   1.080
39938W        W12253  42.334  26.216  11.464
39939W        W12254  11.433  12.395  14.530
39940W        W12255   5.192  15.103   0.812
39941W        W12256   3.752  42.717   0.340
39942W        W12257  10.460  21.317  10.137
39943W        W12258  26.363  21.981  12.503
39944W        W12259   6.395  34.063   3.632
39945W        W12260   5.202  14.704   3.702
39946W        W12261  30.787  37.426   3.924
39947W        W12262   5.215  21.993  13.440
39948W        W12263  34.462  14.775  11.158
39949W        W12264  36.098  31.335   0.832
39950W        W12265  32.156   2.949  10.700
39951W        W12266   7.034  17.865  10.647
39952W        W12267   5.218  39.572  12.763
39953W        W12268  10.345  28.398   0.484
39954W        W12269  24.687  36.523  11.272
39955W        W12270  35.760  31.801   3.971
39956W        W12271  35.533  44.950  13.124
39957W        W12272  22.188  36.163  12.012
39958W        W12273  20.118  20.309  12.665
39959W        W12274  42.819  34.805  13.824
39960W        W12275  26.567  38.963  10.466
39961W        W12276  37.750  43.984   4.784
39962W        W12277  15.541  15.373  11.168
39963W        W12278   8.437  23.067   1.450
39964W        W12279  19.587  36.522   4.536
39965W        W12280  24.781   9.563  13.008
39966W        W12281   7.254  37.279  14.506
39967W        W12282   2.513   5.870  12.798
39968W        W12283  30.507  23.532  12.093
39969W        W12284  32.807  42.111   3.627
39970W        W12285  29.928  15.163  13.885
39971W        W12286   7.257  10.003   4.528
39972W        W12287  29.305  28.790  13.017
39973W        W12288  12.580  21.713   1.629
39974W        W12289  24.515  34.198  13.323
39975W        W12290  32.145  24.561   4.546
39976W        W12291  16.380   5.303  13.445
39977W        W12292   8.938   2.790  13.572
39978W        W12293  30.542   2.513   1.241
39979W        W12294  21.245  44.507   2.609
39980W        W12295   2.465   0.186   3.155
39981W        W12296  14.668  15.581  13.071
39982W        W12297   3.182   4.901   3.041
39983W        W12298  25.222   5.216   9.864
39984W        W12299   0.459  39.558  13.334
39985W        W12300  34.108  17.091   0.843
39986W        W12301  29.551   7.962   2.407
39987W        W12302  27.984  43.868   0.447
39988W        W12303  32.976  17.324   3.668
39989W        W12304  27.545  32.943   0.854
39990W        W12305  32.336  20.576   0.806
39991W        W12306  24.562  39.621  12.310
39992W        W12307  10.013  26.300  11.028
39993W        W12308   2.422  23.954   1.795
39994W        W12309  43.283  27.365  12.583
39995W        W12310   4.231  10.363   0.361
39996W        W12311  28.407  16.333  11.499
39997W        W12312  27.212  28.938   0.900
39998W        W12313  19.755  26.336   5.183
39999W        W12314  21.903  13.805   3.573
40000W        W12315  30.275  43.079  10.810
40001W        W12316  43.480  14.205  12.166
40002W        W12317  18.029  30.016   0.326
40003W        W12318   5.854  12.237  12.661
40004W        W12319  21.647  29.874  10.761
40005W        W12320  44.227  33.365  13.726
40006W        W12321  19.304  44.246  14.687
40007W        W12322  34.947  14.769  13.828
40008W        W12323  32.215  22.091  12.160
40009W        W12324   1.364  25.506   1.479
40010W        W12325   7.955  39.485   3.238
40011W        W12326   2.150   1.415   0.232
40012W        W12327   7.196  33.136  12.616
40013W        W12328   8.692  44.224  13.029
40014W        W12329  23.994  14.482  10.235
40015W        W12330  34.599  30.714   2.302
40016W        W12331  29.533   3.893   3.752
40017W        W12332  39.305   8.737  14.387
40018W        W12333  42.110  44.889   4.167
40019W        W12334   7.432  34.708   4.585
40020W        W12335   0.137  15.774   3.337
40021W        W12336  37.388  24.559  14.046
40022W        W12337  18.065  41.345   1.848
40023W        W12338  40.551  24.835   3.310
40024W        W12339  30.213  29.729   2.153
40025W        W12340   7.530  25.921  13.844
40026W        W12341  43.542   0.466   0.895
40027W        W12342   2.766  16.665   0.412
40028W        W12343   1.832   4.847   1.833
40029W        W12344  33.431   5.105   0.935
40030W        W12345  13.582  32.996  10.667
40031W        W12346  38.081  21.653   0.852
40032W        W12347  19.101   1.453   1.746
40033W        W12348  25.033  22.727   4.567
40034W        W12349  17.541   5.543   2.207
40035W        W12350   2.937  26.692   1.254
40036W        W12351  12.556  33.241   1.291
40037W        W12352   7.753  25.202  11.127
40038W        W12353  35.856  29.193  11.292
40039W        W12354  21.030  44.429  11.585
40040W        W12355  37.425  40.014   1.381
40041W        W12356   4.002  20.167   1.991
40042W        W12357  10.992  11.654  11.099
40043W        W12358  32.248  14.727   3.313
40044W        W12359  15.508  16.206  13.388
40045W        W12360   8.621  25.745  14.891
40046W        W12361   5.412  24.225   4.211
40047W        W12362  43.989  29.409  10.670
40048W        W12363   8.887  27.061  13.130
40049W        W12364  31.486  29.060  14.870
40050W        W12365  37.343   6.792   2.209
40051W        W12366  44.510   5.933  12.196
40052W        W12367   7.725  41.533   0.345
40053W        W12368  22.749   8.273   3.470
40054W        W12369   1.298   2.428   2.693
40055W        W12370   0.981  43.313  13.422
40056W        W12371  36.766  14.623   1.925
40057W        W12372   4.488  35.001   3.483
40058W        W12373  42.020  13.833   4.177
40059W        W12374   4.410  39.032  11.560
40060W        W12375  34.766  30.965  13.278
40061W        W12376  38.440  27.641   4.770
40062W        W12377  27.632  37.618   2.453
40063W        W12378   0.005  20.758   0.512
40064W        W12379  29.075  40.079   4.558
40065W        W12380   3.678  36.517  12.052
40066W        W12381   1.117  20.126   2.679
40067W        W12382  31.095  40.403  14.339
40068W        W12383   2.836  39.935   4.091
40069W        W12384  16.244  16.718   0.937
40070W        W12385  29.483   8.117   4.254
40071W        W12386  25.019  14.213   2.468
40072W        W12387  41.425  24.672  10.608
40073W        W12388   7.620  34.584   2.677
40074W        W12389  38.529  34.457  10.724
40075W        W12390  24.031  35.942   2.197
40076W        W12391  19.173  26.285   2.306
40077W        W12392  32.343  37.361   0.012
40078W        W12393   6.369  44.221  11.683
40079W        W12394  25.044  42.371   2.213
40080W        W12395  26.541   2.318  14.368
40081W        W12396  10.239   7.218  12.429
40082W        W12397   7.608  10.206  14.129
40083W        W12398  43.987   6.370   1.008
40084W        W12399  37.552  16.192   1.358
40085W        W12400  21.429  10.375  12.819
40086W        W12401  16.577   3.783  14.120
40087W        W12402  11.259  15.251   2.637
40088W        W12403  26.328   5.881   3.540
40089W        W12404  40.292  35.110   3.386
40090W        W12405  29.185  24.361   2.906
40091W        W12406   6.856  42.178  11.612
40092W        W12407  32.026  37.893   2.217
40093W        W12408  39.949   7.210   0.453
40094W        W12409   0.918  15.785  11.182
40095W        W12410  25.012   9.685  11.861
40096W        W12411   1.896  32.635  14.543
40097W        W12412   2.819  38.574  14.846
40098W        W12413  18.694  10.349   5.085
40099W        W12414  35.501  28.020  10.715
40100W        W12415   9.159   0.217   4.521
40101W        W12416  27.672  22.226  11.202
40102W        W12417   1.290  21.354   3.856
40103W        W12418   9.226  27.177   1.271
40104W        W12419  23.130  44.622  14.322
40105W        W12420  14.273  12.272   3.123
40106W        W12421  21.864   4.646   0.468
40107W        W12422  19.027  22.552   3.238
40108W        W12423   9.843   9.160  14.878
40109W        W12424  27.572  41.818  14.717
40110W        W12425  23.305  15.844   2.189
40111W        W12426  43.449  26.460   3.182
40112W        W12427  32.670  25.746   0.283
40113W        W12428   5.220  35.603  14.308
40114W        W12429  38.607   4.123   1.083
40115W        W12430  13.318  12.282  14.857
40116W        W12431  24.758  19.256   1.060
40117W        W12432  34.098  26.042  12.354
40118W        W12433  25.569  22.284  10.129
40119W        W12434  12.271  19.360   3.049
40120W        W12435  36.888  23.112  12.880
40121W        W12436  30.666   0.397   3.269
40122W        W12437  21.592  19.563   2.600
40123W        W12438   4.441  16.194   1.266
40124W        W12439  13.115  31.453   2.349
40125W        W12440  19.169   4.806   4.550
40126W        W12441  22.533  22.504  11.478
40127W        W12442  29.563  32.301  11.559
40128W        W12443  23.256  33.041  10.699
40129W        W12444  24.792   4.376  14.600
40130W        W12445   4.769  29.732  11.180
40131W        W12446   7.601  24.923  12.100
40132W        W12447  40.882  14.450  11.085
40133W        W12448  31.058   5.980  13.009
40134W        W12449  27.946  28.480  11.144
40135W        W12450   4.524  17.778  10.725
40136W        W12451  14.737  34.886  14.880
40137W        W12452  23.089   7.710   0.543
40138W        W12453  17.186  23.991  12.779
40139W        W12454  24.257   0.585   1.473
40140W        W12455   7.424   4.310  12.013
40141W        W12456   4.960  18.789   2.810
40142W        W12457   3.367  32.551  11.135
40143W        W12458  11.183  29.505  12.164
40144W        W12459   0.424  44.370  12.634
40145W        W12460  43.569  31.713   3.287
40146W        W12461   7.821  29.642  14.709
40147W        W12462  30.522  18.819   0.667
40148W        W12463  43.729   2.849   3.640
40149W        W12464  11.386  33.110   4.263
40150W        W12465  37.780  38.515  10.827
40151W        W12466  38.604  25.984  10.525
40152W        W12467   7.991  35.005   1.830
40153W        W12468   5.078   6.595   3.232
40154W        W12469  20.361  11.835  11.619
40155W        W12470  33.885  26.701  11.220
40156W        W12471  37.545  44.939  11.042
40157W        W12472   9.961   6.469   4.679
40158W        W12473  27.635  24.965  10.660
40159W        W12474  13.329  34.264  10.702
40160W        W12475  18.592  18.144   3.319
40161W        W12476  25.060  14.257  10.627
40162W        W12477  17.182  11.216  11.403
40163W        W12478  36.371  41.386  13.943
40164W        W12479  27.291   6.280   1.148
40165W        W12480  41.395  20.023  12.381
40166W        W12481   0.728  18.110   2.275
40167W        W12482  19.159  43.253   2.809
40168W        W12483  28.066  38.910   0.928
40169W        W12484  23.916  17.039   3.650
40170W        W12485  22.755  14.186   2.127
40171W        W12486   1.265  37.305  11.051
40172W        W12487  14.258  10.766   4.345
40173W        W12488  13.410  37.652   2.258
40174W        W12489  20.792  22.511  12.616
40175W        W12490   4.356   9.917  11.571
40176W        W12491   8.877  31.936  10.740
40177W        W12492  12.145   0.646   1.852
40178W        W12493  40.081   0.465  11.458
40179W        W12494  13.354  32.116   1.826
40180W        W12495  38.900  19.823   0.979
40181W        W12496   8.279  31.341   1.148
40182W        W12497  37.873  38.265   3.121
40183W        W12498   1.129  22.561  13.967
40184W        W12499  23.152  17.171   4.679
40185W        W12500  31.827  27.950   1.420
40186W        W12501   7.971  35.257   0.406
40187W        W12502  28.034   9.657   4.825
40188W        W12503  20.541  16.888   3.900
40189W        W12504   0.775  16.326  11.293
40190W        W12505  31.092  15.126  11.857
40191W        W12506  26.730   4.066  11.625
40192W        W12507  31.412  33.622  11.919
40193W        W12508  32.835  15.651  13.875
40194W        W12509   9.370  11.508   1.701
40195W        W12510   9.172  18.656   0.491
40196W        W12511  32.342  24.194  13.933
40197W        W12512   3.719  40.769   2.997
40198W        W12513  23.909  43.876   2.075
40199W        W12514  34.080  34.065   0.395
40200W        W12515  21.871  14.837   0.655
40201W        W12516   8.588  22.028  13.557
40202W        W12517  37.959  35.629   0.955
40203W        W12518   8.748  26.984   4.316
40204W        W12519  31.656   6.701   0.331
40205W        W12520  32.741   8.206  11.505
40206W        W12521  40.299  24.957  11.926
40207W        W12522   9.319  42.343   2.625
40208W        W12523  33.135   1.489   4.559
40209W        W12524  32.875   5.381  14.908
40210W        W12525   8.270   2.807  11.717
40211W        W12526  18.708  39.013   1.700
40212W        W12527  32.487  21.287  12.491
40213W        W12528  41.453  24.568  13.049
40214W        W12529  39.823   8.102   2.774
40215W        W12530  24.110  13.072  13.937
40216W        W12531  10.757  21.610  12.392
40217W        W12532   4.775  22.267   2.753
40218W        W12533   4.185  24.773   0.517
40219W        W12534  21.878  31.368  14.891
40220W        W12535  26.169  23.151   4.197
40221W        W12536  25.109  20.694  12.170
40222W        W12537  35.461  22.036   0.958
40223W        W12538  34.577  43.879   0.504
40224W        W12539  32.373  34.482   3.368
40225W        W12540  36.553  44.360   0.051
40226W        W12541   4.268  28.378   2.714
40227W        W12542  18.498  41.770  14.385
40228W        W12543  28.062  23.226   4.498
40229W        W12544  20.526  29.469   0.430
40230W        W12545  36.464  26.475  12.645
40231W        W12546  30.912  32.440   1.317
40232W        W12547  38.845  22.456   0.223
40233W        W12548  16.945  19.682  11.577
40234W        W12549   4.588  44.423   9.713
40235W        W12550  38.174  23.672  14.558
40236W        W12551   5.679  11.836  11.975
40237W        W12552  16.790  25.166  13.908
40238W        W12553  25.746   1.366  13.407
40239W        W12554  30.976  40.864  12.529
40240W        W12555  35.547  41.381  10.729
40241W        W12556  38.606  28.734  11.493
40242W        W12557  41.762  16.219   1.268
40243W        W12558  36.657  25.547  13.111
40244W        W12559  41.987   1.189   4.546
40245W        W12560  14.737  11.365  14.023
40246W        W12561  27.017   7.056  12.872
40247W        W12562  37.655  24.026  13.380
40248W        W12563  15.093   9.715   0.340
40249W        W12564  28.998  33.476  10.527
40250W        W12565   6.850  32.278   2.739
40251W        W12566   3.016  32.213   3.643
40252W        W12567  29.895  31.173  10.831
40253W        W12568  37.524  35.445   0.167
40254W        W12569   1.452  30.531  12.030
40255W        W12570  30.579  32.085   1.174
40256W        W12571  37.615   1.693  12.536
40257W        W12572  14.103  30.640   1.768
40258W        W12573  38.306  22.966   1.402
40259W        W12574  38.357  32.563   1.918
40260W        W12575  23.763  42.043  12.046
40261W        W12576  10.578  28.457   3.271
40262W        W12577   5.478  23.813   3.237
40263W        W12578  39.949  21.271  11.505
40264W        W12579  17.524  28.600  11.501
40265W        W12580   5.446  16.699   0.185
40266W        W12581   5.885   1.696   1.250
40267W        W12582  17.772  11.094   4.085
40268W        W12583  21.553  20.213  12.805
40269W        W12584  28.505  39.407   0.333
40270W        W12585  30.759  34.109  12.660
40271W        W12586  10.134  26.824   2.116
40272W        W12587  37.776  10.701   0.650
40273W        W12588  32.651  40.447   1.917
40274W        W12589   6.672  31.985  13.819
40275W        W12590   2.341  43.261  14.848
40276W        W12591   4.390  12.146  13.128
40277W        W12592  36.606   3.953   2.184
40278W        W12593   1.203  13.778  10.642
40279W        W12594  33.099  21.449   1.316
40280W        W12595   3.686  27.553   4.216
40281W        W12596  42.971  12.271   4.734
40282W        W12597   8.701   2.430   3.134
40283W        W12598  41.945  36.786  14.177
40284W        W12599  18.742  15.231  11.049
40285W        W12600  25.459  43.807  14.048
40286W        W12601  39.322   8.239   4.675
40287W        W12602  34.419  33.184   2.744
40288W        W12603  36.811  20.120  12.210
40289W        W12604  38.842  11.694   1.137
40290W        W12605  33.958  21.273  10.137
40291W        W12606  23.238  11.641  11.585
40292W        W12607   3.771  12.277   0.391
40293W        W12608  41.059  27.939   3.315
40294W        W12609  44.523   6.271  11.054
40295W        W12610   3.331  11.850  12.058
40296W        W12611  35.036  16.776   0.366
40297W        W12612  14.778  34.424  12.935
40298W        W12613   7.440  42.302   3.265
40299W        W12614  33.117  43.739   4.174
40300W        W12615  15.373  40.499   3.244
40301W        W12616   5.841  35.976   0.396
40302W        W12617  33.967   3.229  12.958
40303W        W12618  34.994  14.676  12.077
40304W        W12619  14.817  22.192  13.391
40305W        W12620  16.495  31.953  10.960
40306W        W12621  37.219  21.830  13.333
40307W        W12622  23.231  38.517   2.571
40308W        W12623  40.575  44.919   3.575
40309W        W12624  12.905  22.303  13.422
40310W        W12625   0.894   5.984   5.014
40311W        W12626   0.340   8.367   4.158
40312W        W12627   6.111  20.454   1.358
40313W        W12628  38.193  20.243  11.134
40314W        W12629  36.026  31.516  10.643
40315W        W12630  17.115   8.319   2.457
40316W        W12631   0.848  28.647   3.319
40317W        W12632  19.672  37.452   1.250
40318W        W12633  14.573  31.376   0.757
40319W        W12634  28.397  21.534  13.020
40320W        W12635  22.663   1.884   1.823
40321W        W12636   1.967   4.437   4.451
40322W        W12637  16.615  27.539  14.295
40323W        W12638  32.438  29.581  12.438
40324W        W12639  29.385   7.443  12.842
40325W        W12640  25.586  44.476  12.134
40326W        W12641   0.874  32.686  13.271
40327W        W12642   7.825  44.623   3.076
40328W        W12643  34.140  10.732  11.615
40329W        W12644  33.499  34.929   4.661
40330W        W12645  38.826   3.200  14.725
40331W        W12646  16.854  29.240   3.429
40332W        W12647  41.928  24.677   3.083
40333W        W12648  26.119   1.507   3.772
40334W        W12649  37.435  41.030   2.737
40335W        W12650  10.792  17.820   4.763
40336W        W12651  19.998  29.212   0.387
40337W        W12652  37.973  36.994  14.928
40338W        W12653  32.992  35.944   2.298
40339W        W12654  25.613  43.053   2.188
40340W        W12655  42.061  31.191  13.790
40341W        W12656  31.561  10.309   2.332
40342W        W12657   8.568  34.016   0.744
40343W        W12658   4.497  36.853   3.788
40344W        W12659   6.590  11.589   1.877
40345W        W12660  27.453  27.020   4.585
40346W        W12661  18.013  23.261   0.891
40347W        W12662  43.430  27.551   1.690
40348W        W12663  29.504  44.559  12.743
40349W        W12664  43.856  17.325   4.151
40350W        W12665  21.202  44.461  13.831
40351W        W12666  33.018  33.978  13.823
40352W        W12667  20.008   6.060   4.977
40353W        W12668  25.516  33.385   1.805
40354W        W12669  30.948  43.360  12.627
40355W        W12670  23.530  18.964  13.355
40356W        W12671  23.534  35.348  10.772
40357W        W12672  25.686   5.718  10.392
40358W        W12673  18.995   9.070  13.365
40359W        W12674   8.348  28.374  11.459
40360W        W12675  24.505   4.286   0.977
40361W        W12676  33.428  24.963   2.174
40362W        W12677  26.821  30.237   4.983
40363W        W12678  23.656  16.977   0.820
40364W        W12679  25.996   8.665  11.611
40365W        W12680   2.744  20.293  12.877
40366W        W12681  32.890  16.098   4.209
40367W        W12682  44.403  34.934  12.463
40368W        W12683  40.936  27.989   2.751
40369W        W12684  23.968  42.981   2.166
40370W        W12685  17.722  10.353  12.375
40371W        W12686  21.052  19.630   3.863
40372W        W12687  14.189   3.931   1.311
40373W        W12688  29.405  10.344   4.677
40374W        W12689   2.449  18.337   0.853
40375W        W12690   2.289   8.037  13.867
40376W        W12691  25.155  11.369  14.023
40377W        W12692  39.986  26.231   2.792
40378W        W12693  21.992  21.040  12.363
40379W        W12694  34.362  38.515  10.580
40380W        W12695  40.914  10.710  12.975
40381W        W12696  19.259   8.157  14.306
40382W        W12697  43.006  42.457  14.968
40383W        W12698  25.768   2.915   0.840
40384W        W12699  14.655  23.147  11.102
40385W        W12700  14.324  36.988  12.907
40386W        W12701  15.162  21.421   2.223
40387W        W12702  42.834  24.707  12.183
40388W        W12703   2.349  38.501  13.993
40389W        W12704  16.567  35.073   2.416
40390W        W12705  16.557  11.456   3.846
40391W        W12706  12.305  34.370  12.993
40392W        W12707  21.381  17.402   2.818
40393W        W12708  10.094  14.789  12.845
40394W        W12709  37.728  16.617   0.019
40395W        W12710  24.644  29.508  13.450
40396W        W12711   7.248  28.743   2.307
40397W        W12712  11.218  25.265  11.944
40398W        W12713  35.915  31.603   1.265
40399W        W12714  42.889  40.005   2.942
40400W        W12715  31.257  14.611   0.556
40401W        W12716  14.945  44.551   2.840
40402W        W12717  15.170  27.482  11.986
40403W        W12718  40.335  13.787  11.635
40404W        W12719  34.198   5.814   2.715
40405W        W12720  20.979  17.047  11.592
40406W        W12721  35.317  21.480  12.610
40407W        W12722  29.477  36.807  14.737
40408W        W12723   7.359   9.464  11.138
40409W        W12724  39.759   2.826  13.984
40410W        W12725  25.032  22.237  14.420
40411W        W12726  40.513  36.598  13.093
40412W        W12727  34.080  34.489   2.633
40413W        W12728  32.914  32.615  12.119
40414W        W12729  14.818   2.739   0.430
40415W        W12730  28.574   4.703  13.576
40416W        W12731  18.549   8.096   2.363
40417W        W12732  22.197  18.686   3.624
40418W        W12733  26.114  30.535   2.568
40419W        W12734  28.856   2.196  14.991
40420W        W12735   5.221  13.191  11.227
40421W        W12736  25.135  11.221  12.174
40422W        W12737  10.396  21.763   2.011
40423W        W12738  44.908  17.399  12.380
40424W        W12739   3.198  13.400   0.850
40425W        W12740  34.561  39.895  12.345
40426W        W12741   5.707  38.311   3.348
40427W        W12742   6.974  31.379   0.676
40428W        W12743  42.945   3.855   2.161
40429W        W12744  18.224  38.811  13.511
40430W        W12745  25.361  37.192  13.440
40431W        W12746  16.171  40.799   1.857
40432W        W12747  44.739  34.870  13.325
40433W        W12748  11.839  20.330  10.502
40434W        W12749   3.870  20.586   4.673
40435W        W12750  27.125  34.994   2.830
40436W        W12751   2.602  36.082  14.975
40437W        W12752   0.416  14.570   2.808
40438W        W12753  33.732  11.019  13.559
40439W        W12754  14.685   2.904   1.338
40440W        W12755   6.457  24.364   0.274
40441W        W12756  34.349  12.716  10.551
40442W        W12757  35.354   1.455   1.495
40443W        W12758  24.846  41.311   2.214
40444W        W12759  24.364  24.204  13.905
40445W        W12760  13.184  12.287   2.349
40446W        W12761  15.352  18.617   2.307
40447W        W12762  17.038  11.593   5.072
40448W        W12763   0.737  36.920   0.642
40449W        W12764  24.935  11.411  13.542
40450W        W12765  36.906  43.793   0.353
40451W        W12766  12.783  10.574  11.060
40452W        W12767  11.850  21.452   3.175
40453W        W12768  33.143   2.047   2.415
40454W        W12769  13.582   4.215   1.256
40455W        W12770   9.753  40.805   3.773
40456W        W12771   6.429  13.731   0.207
40457W        W12772  17.155  12.128  12.968
40458W        W12773  44.932  35.331  13.202
40459W        W12774  38.031  24.293  11.146
40460W        W12775  19.746  40.337   5.017
40461W        W12776  24.200  10.776   3.777
40462W        W12777  29.992  31.448   1.766
40463W        W12778  37.858  29.987  12.496
40464W        W12779  32.669  44.786  10.613
40465W        W12780  15.092  22.253   0.495
40466W        W12781  29.689   7.720  12.470
40467W        W12782  20.093  24.329  13.390
40468W        W12783  25.817  42.088   2.615
40469W        W12784  20.552   2.768   2.685
40470W        W12785  21.291  41.791  13.280
40471W        W12786   6.236  38.582  11.647
40472W        W12787  22.503   0.322   2.182
40473W        W12788  28.022  34.814   0.162
40474W        W12789  31.993  22.653  13.412
40475W        W12790  37.339  23.502  14.368
40476W        W12791  19.178  34.196   4.675
40477W        W12792  36.577  25.895   3.268
40478W        W12793  19.202   7.745  12.039
40479W        W12794  22.920  41.444   0.880
40480W        W12795  27.591  25.052   4.067
40481W        W12796  10.722  29.534  11.939
40482W        W12797  43.478  23.197   2.678
40483W        W12798   7.196  17.808  11.986
40484W        W12799  10.353   5.768   2.844
40485W        W12800   1.015  18.646  11.479
40486W        W12801   0.354  17.486   0.817
40487W        W12802  20.809   1.780   1.319
40488W        W12803  10.135  44.324  12.069
40489W        W12804  33.088  22.252   0.301
40490W        W12805  15.837  10.771   3.162
40491W        W12806  10.371  40.917  13.419
40492W        W12807  21.012  12.169  10.582
40493W        W12808  31.737  41.795   4.277
40494W        W12809   0.936  26.591  11.170
40495W        W12810  15.113   0.729  11.061
40496W        W12811  22.586  14.168   0.920
40497W        W12812  22.482  19.489  11.474
40498W        W12813  20.710  33.946  10.984
40499W        W12814  16.195  12.110   4.686
40500W        W12815  18.273   1.516  10.556
40501W        W12816  26.166   6.128  14.400
40502W        W12817  19.744  34.849  11.996
40503W        W12818   6.267  41.459   1.421
40504W        W12819   7.885  21.271   4.501
40505W        W12820  11.583  32.162   0.797
40506W        W12821   1.449  21.958   3.187
40507W        W12822  37.120  18.352   0.513
40508W        W12823  38.621   8.459  14.317
40509W        W12824   3.734   3.915   2.005
40510W        W12825  30.177   8.338   3.841
40511W        W12826  23.474  13.576  10.583
40512W        W12827   9.958  13.084   3.182
40513W        W12828   2.622  34.305   4.343
40514W        W12829  11.634   8.710   3.154
40515W        W12830   9.869  33.095  13.808
40516W        W12831  36.730  22.555   3.873
40517W        W12832  31.469  14.067  13.302
40518W        W12833  16.223  13.565  11.060
40519W        W12834  24.350  39.333  11.158
40520W        W12835  18.919   8.307   1.337
40521W        W12836   1.844  43.351  11.841
40522W        W12837  32.507   8.233   0.493
40523W        W12838   4.320  32.566   2.906
40524W        W12839  19.816  17.579   1.368
40525W        W12840  31.541   1.168  11.537
40526W        W12841  15.808  38.409  13.572
40527W        W12842   1.775  18.624   2.000
40528W        W12843   0.291  41.466   1.835
40529W        W12844  33.653  12.696   0.348
40530W        W12845  24.660  19.448  10.074
40531W        W12846   3.839  20.164   0.689
40532W        W12847  28.762   9.222  14.938
40533W        W12848  28.578   3.664  11.563
40534W        W12849  13.494  40.511   0.789
40535W        W12850  40.680   5.172   0.712
40536W        W12851  36.276  21.566  11.529
40537W        W12852  28.198  34.814   2.737
40538W        W12853  41.054   1.459  14.550
40539W        W12854  10.475   2.900   0.275
40540W        W12855  24.551   5.305  14.961
40541W        W12856   2.225  22.070  14.079
40542W        W12857  44.899   6.216  12.450
40543W        W12858   7.259  21.063   0.662
40544W        W12859  35.527  39.878  10.440
40545W        W12860  20.267  20.788  14.624
40546W        W12861  24.943  38.479  12.771
40547W        W12862  34.411  19.738   1.438
40548W        W12863   8.120  11.833   2.696
40549W        W12864  40.100  42.815  13.061
40550W        W12865   8.780  20.711   2.086
40551W        W12866  35.835   4.133  13.463
40552W        W12867  28.448   4.785   0.089
40553W        W12868   9.979  43.855   0.828
40554W        W12869  13.561  25.314  14.322
40555W        W12870  29.579  30.571   0.976
40556W        W12871  17.004  22.224  14.882
40557W        W12872   5.724   4.284   0.852
40558W        W12873   7.075  18.786   1.187
40559W        W12874  30.553   0.784   2.745
40560W        W12875  20.584   5.001   1.222
40561W        W12876   0.180  18.058  11.343
40562W        W12877  16.513  37.309   1.750
40563W        W12878  40.897  41.029  12.566
40564W        W12879  39.497  27.922   1.834
40565W        W12880  33.041  33.468   1.097
40566W        W12881  26.325  34.167   2.578
40567W        W12882   4.369  39.877  14.263
40568W        W12883   4.943  30.618  11.615
40569W        W12884  25.185  39.974  13.828
40570W        W12885  35.017  39.085   2.452
40571W        W12886  20.533  27.621  12.070
40572W        W12887   7.662  37.621  14.956
40573W        W12888  25.970  38.802  11.052
40574W        W12889  11.928   9.931   1.673
40575W        W12890  41.072  10.586   4.169
40576W        W12891  34.624  43.433   3.351
40577W        W12892   9.304  26.927   1.737
40578W        W12893  31.336  35.546   2.669
40579W        W12894  20.801  43.537   0.801
40580W        W12895  19.179  36.715   4.285
40581W        W12896  34.508  18.018  10.612
40582W        W12897  41.894  39.053   0.369
40583W        W12898  41.809  33.758   3.182
40584W        W12899  16.108  10.157   4.968
40585W        W12900  28.676  14.619   4.922
40586W        W12901  44.505  12.838   4.155
40587W        W12902   6.299  37.425   0.306
40588W        W12903   2.316  21.674   4.599
40589W        W12904   3.322   9.787   1.322
40590W        W12905  21.618   2.114  13.257
40591W        W12906  30.314  42.505   4.211
40592W        W12907   1.836   5.887  14.253
40593W        W12908  30.564  41.758  13.395
40594W        W12909  33.634  27.030   3.603
40595W        W12910  15.790  26.129   1.962
40596W        W12911  31.891   7.613  11.438
40597W        W12912  35.341   5.010   0.537
40598W        W12913  24.224  14.585   0.679
40599W        W12914   5.201  39.055   1.937
40600W        W12915  27.368   0.418   2.768
40601W        W12916  24.197   1.379   0.397
40602W        W12917   9.297  41.031   3.608
40603W        W12918  42.023  38.944   2.386
40604W        W12919  13.697   2.342  11.646
40605W        W12920  22.907  34.647   2.129
40606W        W12921   6.758  24.324   4.912
40607W        W12922  13.138   6.698   0.450
40608W        W12923  42.898  34.078   4.679
40609W        W12924  19.414  40.370  10.558
40610W        W12925   9.899  31.598  12.399
40611W        W12926  32.127   6.106   2.045
40612W        W12927  33.408  35.432   4.683
40613W        W12928  34.953  38.817   4.264
40614W        W12929  32.704  14.843   3.137
40615W        W12930  37.023  39.887   2.399
40616W        W12931   6.318  38.785  11.182
40617W        W12932   3.757  34.510  10.906
40618W        W12933   6.265  44.495  13.955
40619W        W12934  25.164  34.454  13.048
40620W        W12935  10.269   7.255   0.395
40621W        W12936  21.193  43.850   1.869
40622W        W12937  42.110  27.390  13.379
40623W        W12938  18.543  42.379  14.830
40624W        W12939  30.656  42.993   2.700
40625W        W12940  24.563  42.403   4.278
40626W        W12941  38.557   9.280   2.891
40627W        W12942  19.916  27.318   0.422
40628W        W12943  21.181  32.916  11.521
40629W        W12944  20.225   6.407   3.126
40630W        W12945   1.367   4.450  12.094
40631W        W12946  40.073  12.915   3.616
40632W        W12947  24.649   6.693   2.275
40633W        W12948  40.099  24.783  12.634
40634W        W12949  39.723  17.188   3.436
40635W        W12950  26.122  27.040   1.677
40636W        W12951  15.498  30.017  12.119
40637W        W12952  10.949  32.159  11.150
40638W        W12953  38.741  17.175   5.049
40639W        W12954  43.340  10.983   4.044
40640W        W12955  34.452   7.085  11.211
40641W        W12956  15.808  36.174  14.751
40642W        W12957   6.602  18.517  13.938
40643W        W12958  39.377  11.858  12.160
40644W        W12959  43.368  19.252   0.478
40645W        W12960  38.852   5.769  14.511
40646W        W12961  21.155  30.394   2.473
40647W        W12962  27.047  11.212  10.556
40648W        W12963  42.072  32.433  11.582
40649W        W12964  12.390  34.392   2.767
40650W        W12965   8.646  22.460   0.741
40651W        W12966  25.749   8.786   0.937
40652W        W12967  31.422   8.262   2.185
40653W        W12968   8.373  30.202   3.911
40654W        W12969  29.799  37.559   2.925
40655W        W12970  42.078  14.516   4.993
40656W        W12971  19.976  32.563   0.018
40657W        W12972  19.839  32.022  11.184
40658W        W12973  43.329  33.367  13.510
40659W        W12974  17.753  14.294   3.858
40660W        W12975  10.436  23.740  13.974
40661W        W12976  18.667  28.602   3.432
40662W        W12977   8.628   9.200   2.677
40663W        W12978   0.545  41.237  12.315
40664W        W12979  40.505   1.908   2.196
40665W        W12980  15.158  25.269   1.836
40666W        W12981   4.265  13.774   4.179
40667W        W12982  21.266  43.699   0.978
40668W        W12983   1.265  22.115  13.071
40669W        W12984  23.676  15.332   2.201
40670W        W12985  35.596   0.439  13.338
40671W        W12986  31.421   4.693   4.564
40672W        W12987  12.115  12.371   0.834
40673W        W12988  43.806  28.252  13.412
40674W        W12989   1.385  17.303   0.050
40675W        W12990  22.000  20.235   1.923
40676W        W12991  43.520  32.194  11.633
40677W        W12992  32.185  19.613   2.181
40678W        W12993  20.546  22.554   4.829
40679W        W12994  37.831  23.340  14.379
40680W        W12995  15.219   6.496   1.964
40681W        W12996   2.105  15.718  12.335
40682W        W12997  39.446   2.239  12.442
40683W        W12998   1.955  34.929  13.503
40684W        W12999  24.066  39.146   2.731
40685W        W13000  24.990  29.175   4.835
40686W        W13001  32.210  38.314   0.013
40687W        W13002  34.080   1.690   2.215
40688W        W13003  12.759  22.287  11.232
40689W        W13004  41.096  25.802   1.441
40690W        W13005  40.277  16.158   2.465
40691W        W13006   6.628  20.040   2.305
40692W        W13007   4.260  24.608  10.621
40693W        W13008  34.532  20.612  11.814
40694W        W13009  26.074  34.926   2.745
40695W        W13010  28.704  42.508  11.453
40696W        W13011   3.845   2.812   1.402
40697W        W13012  20.117  13.887   2.756
40698W        W13013   5.860  44.446   2.791
40699W        W13014  29.714  21.321   4.585
40700W        W13015  14.744  41.415  12.452
40701W        W13016   7.394  14.258  13.797
40702W        W13017  17.543  11.430  12.166
40703W        W13018  15.076  29.453  10.723
40704W        W13019  26.890   7.539   3.005
40705W        W13020  31.478  42.425   4.890
40706W        W13021  16.938  12.825   1.249
40707W        W13022  43.997   1.367   3.764
40708W        W13023  11.037  31.522  13.858
40709W        W13024  22.123  19.527  10.260
40710W        W13025   7.265  34.106  13.377
40711W        W13026  18.787  39.522  12.971
40712W        W13027  41.153   1.423   1.308
40713W        W13028   7.715  28.199  11.575
40714W        W13029   1.282  12.099   3.166
40715W        W13030  39.925   2.875   1.705
40716W        W13031   3.471  12.358  12.928
40717W        W13032  13.749  25.859   1.325
40718W        W13033  26.437  27.458   2.834
40719W        W13034  41.462  28.053   3.655
40720W        W13035  44.366  42.761  13.902
40721W        W13036  14.191  37.069   1.580
40722W        W13037  15.088  37.364   4.112
40723W        W13038  10.470  24.517  11.129
40724W        W13039  38.580   8.401   3.987
40725W        W13040  22.048  20.482   5.347
40726W        W13041  30.076  37.103   0.783
40727W        W13042  14.198  23.532  11.116
40728W        W13043  27.201  27.783  13.485
40729W        W13044  39.859  15.128   3.706
40730W        W13045  28.339   4.363  14.834
40731W        W13046  30.964  37.872   4.154
40732W        W13047  35.445  33.404   3.225
40733W        W13048   1.806  14.129   3.902
40734W        W13049  22.479  23.112  14.037
40735W        W13050  35.833   2.940   1.197
40736W        W13051   0.818  22.263  12.387
40737W        W13052  15.948   6.114   4.802
40738W        W13053  25.267  38.808   4.828
40739W        W13054  11.757  35.504  13.778
40740W        W13055  29.172   4.878   4.594
40741W        W13056  33.498  17.863   3.261
40742W        W13057   7.319  36.334   3.099
40743W        W13058  33.983  16.814   1.285
40744W        W13059  14.084  10.158   2.341
40745W        W13060   0.966  28.732   1.260
40746W        W13061  14.102  26.151  11.626
40747W        W13062  19.826   4.878   4.241
40748W        W13063  32.603  14.906  10.782
40749W        W13064  38.900   1.962   4.586
40750W        W13065  35.360  23.766  14.957
40751W        W13066   1.665   7.981   2.213
40752W        W13067  11.546  27.488   3.748
40753W        W13068  25.535  40.198   1.662
40754W        W13069  37.848  39.605   0.313
40755W        W13070  38.239  13.748   1.273
40756W        W13071  42.398  25.484  11.847
40757W        W13072   6.887   1.084   1.985
40758W        W13073   0.521   3.695  12.873
40759W        W13074  40.496  41.261   1.396
40760W        W13075  32.173  28.047   1.017
40761W        W13076  16.728  21.661   4.429
40762W        W13077   6.947  14.629   2.462
40763W        W13078  27.143   6.329   5.046
40764W        W13079  37.958   4.909  11.122
40765W        W13080  29.865  28.459  13.999
40766W        W13081  11.161  37.466   1.449
40767W        W13082  36.153  23.737  12.436
40768W        W13083  12.776  36.151  14.818
40769W        W13084   5.843  11.691   1.435
40770W        W13085  24.769  26.955  12.239
40771W        W13086  25.170  42.309  11.955
40772W        W13087   9.228  35.846   0.992
40773W        W13088  38.131  44.748  14.465
40774W        W13089  17.511  44.336   3.608
40775W        W13090  40.460   8.719  10.396
40776W        W13091  41.120  34.839  10.765
40777W        W13092   5.518   7.958   3.726
40778W        W13093   9.343  30.326   0.832
40779W        W13094   6.567  43.638  14.112
40780W        W13095  28.928  23.932  11.539
40781W        W13096  41.886  22.456  14.195
40782W        W13097  33.270  36.357  13.956
40783W        W13098  10.795  21.928   3.675
40784W        W13099  39.121  43.876  12.054
40785W        W13100  24.931  28.495  10.723
40786W        W13101  38.386  14.394   3.671
40787W        W13102  10.240  23.295   1.154
40788W        W13103   1.495  44.258   3.129
40789W        W13104   9.199  13.571   3.188
40790W        W13105  32.062  18.731  14.018
40791W        W13106   5.560  23.683  12.205
40792W        W13107  22.708  34.878   0.919
40793W        W13108  21.717  36.042   1.785
40794W        W13109  12.279  40.298   4.572
40795W        W13110   1.925   3.630  14.960
40796W        W13111  42.445   8.721  14.674
40797W        W13112   2.306  21.481   1.150
40798W        W13113  13.398   4.296  11.644
40799W        W13114  44.165  24.204   3.220
40800W        W13115  35.952   6.135   0.982
40801W        W13116  29.546  18.748  12.936
40802W        W13117   6.440  21.421   3.288
40803W        W13118  26.609  26.012   4.406
40804W        W13119   7.979  12.965  11.151
40805W        W13120  39.802  42.419   0.308
40806W        W13121   8.816  44.757  11.026
40807W        W13122  23.015   0.602  13.547
40808W        W13123  20.002  36.913   2.723
40809W        W13124  29.611  29.895  14.910
40810W        W13125  19.261  39.343   0.444
40811W        W13126  13.710  29.996  12.997
40812W        W13127  15.948   2.403  11.431
40813W        W13128  13.883  19.021   3.698
40814W        W13129  19.503  10.358   3.940
40815W        W13130  12.314   1.927  10.883
40816W        W13131  25.075  42.169  11.462
40817W        W13132  43.364  41.483   4.282
40818W        W13133  42.446   3.222   0.834
40819W        W13134  13.353  30.435  14.007
40820W        W13135  10.106   0.287   2.413
40821W        W13136  16.876  26.944  13.279
40822W        W13137  18.712   0.348   0.362
40823W        W13138  21.022  17.268   2.469
40824W        W13139  33.505   9.405  14.468
40825W        W13140  28.569  32.947   4.509
40826W        W13141  38.101   1.865  12.438
40827W        W13142  28.427  43.535   3.599
40828W        W13143  36.095  42.810  11.672
40829W        W13144   7.901  20.576  12.840
40830W        W13145   1.364  15.300  10.705
40831W        W13146  32.049   1.267  12.101
40832W        W13147  20.579  38.014   0.779
40833W        W13148  17.604   2.194   3.743
40834W        W13149  23.013   5.802   4.577
40835W        W13150  19.085   0.229  12.037
40836W        W13151  43.072  33.089   3.261
40837W        W13152   4.683  37.820   3.138
40838W        W13153  40.910  36.880   3.155
40839W        W13154  37.435  18.866   2.429
40840W        W13155  12.711  39.501   3.127
40841W        W13156  15.774  21.990   4.955
40842W        W13157   6.320  40.013  14.251
40843W        W13158   1.839  27.448  13.419
40844W        W13159  19.736   7.726   4.114
40845W        W13160  16.431   5.340   1.709
40846W        W13161   8.372   7.786   0.487
40847W        W13162  32.338  17.583   1.682
40848W        W13163  28.721   1.793  14.046
40849W        W13164  14.209   3.830  14.943
40850W        W13165  12.882  37.079   3.346
40851W        W13166  43.025  19.635   0.510
40852W        W13167   0.703  44.850  13.379
40853W        W13168  10.419  20.455  10.616
40854W        W13169  27.986  30.005  12.108
40855W        W13170   1.730  12.789  13.604
40856W        W13171  35.015  34.826  11.386
40857W        W13172  19.089  14.376   3.892
40858W        W13173  19.536   0.533  13.308
40859W        W13174  35.313   4.186  13.578
40860W        W13175  32.332  23.671  13.885
40861W        W13176  44.905  28.066   0.924
40862W        W13177  12.329  34.895  13.085
40863W        W13178  29.698   7.978  13.794
40864W        W13179  30.018   8.992   0.412
40865W        W13180  11.119  12.919  13.494
40866W        W13181  28.719   9.663   3.747
40867W        W13182  16.989  44.064  11.614
40868W        W13183  34.939  21.454   4.710
40869W        W13184  12.828  41.433   0.453
40870W        W13185  41.414  26.464   4.497
40871W        W13186  44.882  31.602   4.156
40872W        W13187   4.772  32.116  13.797
40873W        W13188  35.567  14.247  10.740
40874W        W13189  10.624  32.965   2.698
40875W        W13190   0.547  40.835  10.574
40876W        W13191   6.577   3.711   3.698
40877W        W13192  27.015  13.813  10.496
40878W        W13193  43.542   6.687   0.144
40879W        W13194  15.203  30.639  11.531
40880W        W13195  27.076  25.510  13.286
40881W        W13196  20.154  35.816   0.781
40882W        W13197  34.153   0.752   3.177
40883W        W13198  41.994  19.242  11.536
40884W        W13199  21.982  12.638  10.631
40885W        W13200  38.497  32.548  12.808
40886W        W13201   7.194  30.073  12.458
40887W        W13202  22.589  37.657  13.384
40888W        W13203  11.134  19.085  11.406
40889W        W13204  26.460  32.438   4.780
40890W        W13205  26.797  10.719   1.638
40891W        W13206   6.385  42.418   0.023
40892W        W13207  23.195  28.219  11.042
40893W        W13208  43.972  22.164  10.430
40894W        W13209  16.048  35.926  11.399
40895W        W13210  27.682  39.848  11.533
40896W        W13211  13.149  31.518   0.689
40897W        W13212   4.490  16.291   2.109
40898W        W13213  15.170  40.791   1.007
40899W        W13214  41.442   9.259   4.744
40900W        W13215   1.815  25.190   2.846
40901W        W13216  10.125  26.402   4.049
40902W        W13217  43.320  18.687  11.547
40903W        W13218  13.689  36.464   4.755
40904W        W13219  28.074   8.777   2.678
40905W        W13220  25.251  15.821  14.288
40906W        W13221  19.793  24.907  14.806
40907W        W13222  12.613  27.890  13.957
40908W        W13223  16.305  18.311   2.821
40909W        W13224  38.242  33.050  11.064
40910W        W13225  26.962  10.799   2.863
40911W        W13226   5.106  33.612   2.297
40912W        W13227  13.284  25.521  11.543
40913W        W13228  14.532  41.431  13.911
40914W        W13229   1.011  24.007  14.341
40915W        W13230   6.930  40.198   2.795
40916W        W13231  34.613  12.157   3.687
40917W        W13232  18.327  27.939   2.376
40918W        W13233  21.759  37.104   2.291
40919W        W13234  18.121  44.401   2.740
40920W        W13235  30.796   0.811  14.358
40921W        W13236  24.641  44.328  10.733
40922W        W13237  34.942  44.297  13.590
40923W        W13238  23.084  10.130   2.911
40924W        W13239  11.846  39.669  11.119
40925W        W13240  14.183   4.294  13.478
40926W        W13241  25.477   6.912   4.669
40927W        W13242  14.143  31.125  14.973
40928W        W13243  22.662   8.800  14.413
40929W        W13244  19.688   2.810  11.032
40930W        W13245  16.621  36.483  12.507
40931W        W13246  39.491  25.606   4.325
40932W        W13247  15.807  33.716  11.950
40933W        W13248  43.800   0.844  14.101
40934W        W13249  24.015  34.929   1.317
40935W        W13250  25.963  25.165   0.211
40936W        W13251  39.116  30.008  14.857
40937W        W13252  26.514   7.646  14.538
40938W        W13253   3.204  41.286   3.604
40939W        W13254  25.037   9.119   0.420
40940W        W13255   8.261  18.527   4.635
40941W        W13256  15.033   7.159   2.655
40942W        W13257  19.648  25.460   2.378
40943W        W13258  12.219   8.344  11.352
40944W        W13259  15.355  23.567  12.505
40945W        W13260  39.983   2.345  13.888
40946W        W13261   8.923  30.928  13.452
40947W        W13262  27.199   3.277  11.849
40948W        W13263  13.747  25.731   1.818
40949W        W13264  40.616   7.343   3.898
40950W        W13265   0.191  32.670   3.293
40951W        W13266   7.757   2.536  14.007
40952W        W13267   7.972  26.027  12.910
40953W        W13268   0.889  30.079   2.414
40954W        W13269  11.827  41.272   0.019
40955W        W13270  31.369   1.813   3.193
40956W        W13271  36.464  26.070   0.994
40957W        W13272  41.486  10.351  11.190
40958W        W13273  42.436   0.611   3.486
40959W        W13274  35.287  29.589  10.550
40960W        W13275   2.932  41.962   5.130
40961W        W13276  44.409  10.695  12.456
40962W        W13277   7.979  40.186   3.476
40963W        W13278  21.125  31.988   4.538
40964W        W13279  17.638  35.482  13.338
40965W        W13280  11.715  43.266  14.555
40966W        W13281  24.512  39.513  11.805
40967W        W13282  26.827  16.848   2.725
40968W        W13283  17.630   5.258  12.151
40969W        W13284  32.856   8.663   3.736
40970W        W13285   3.659   8.323   4.082
40971W        W13286   7.692  32.943   4.771
40972W        W13287   3.879   5.909  14.464
40973W        W13288  35.318  33.558  12.133
40974W        W13289  16.959  24.179   5.273
40975W        W13290  18.230  42.865   0.734
40976W        W13291  36.049  12.337  10.700
40977W        W13292  43.834  15.879   1.878
40978W        W13293  22.142   2.718   4.317
40979W        W13294   8.319  17.528  10.724
40980W        W13295  34.437  38.431   2.916
40981W        W13296  34.620  13.618   3.179
40982W        W13297  40.457   9.267  13.470
40983W        W13298  36.590  30.176   0.481
40984W        W13299  41.796  26.652   3.800
40985W        W13300  43.214  35.413   3.655
40986W        W13301   1.755  38.930  13.434
40987W        W13302  39.022   0.789   1.791
40988W        W13303  30.550  27.949   2.334
40989W        W13304  44.798   6.783   3.240
40990W        W13305  18.060  18.591  11.493
40991W        W13306   0.738   1.309   3.316
40992W        W13307  17.054  24.751   1.707
40993W        W13308  34.206  12.532   0.981
40994W        W13309  32.756  12.892   2.362
40995W        W13310  30.936  28.497   2.819
40996W        W13311  20.216  29.471  13.512
40997W        W13312  39.624  44.287   4.911
40998W        W13313   2.696  17.677  11.527
40999W        W13314   6.953   0.766  14.979
41000W        W13315  42.929  13.037  13.584
41001W        W13316  43.386   5.772   1.014
41002W        W13317   7.666  40.919   3.164
41003W        W13318  23.131  28.701  10.746
41004W        W13319  11.553   6.346   2.886
41005W        W13320   5.433   7.710   4.730
41006W        W13321  37.423   3.729  10.865
41007W        W13322   9.868   9.611   1.426
41008W        W13323  24.170  17.752   0.998
41009W        W13324   1.351  32.022  12.206
41010W        W13325  15.840   2.402  13.995
41011W        W13326  29.957  15.391  14.847
41012W        W13327  14.184  20.104   2.342
41013W        W13328   1.662  36.843  12.071
41014W        W13329   2.161   2.928   1.715
41015W        W13330  29.128  11.679  12.501
41016W        W13331  17.547  16.209   2.751
41017W        W13332  18.252  17.672  13.995
41018W        W13333  40.556  34.896   5.459
41019W        W13334  17.826  22.922  11.433
41020W        W13335  30.379  16.862  13.821
41021W        W13336  40.282  42.698   2.587
41022W        W13337  19.151  25.912   0.805
41023W        W13338  39.259  27.103   1.113
41024W        W13339  39.459   7.351   3.680
41025W        W13340  37.746  41.426  10.739
41026W        W13341  19.591  17.873   0.962
41027W        W13342  36.551  36.800   0.303
41028W        W13343  35.684  11.716   1.226
41029W        W13344  13.640  32.113   3.785
41030W        W13345  41.616  37.463   0.354
41031W        W13346  13.474  38.543   0.996
41032W        W13347  11.836  15.635  12.400
41033W        W13348  24.705  37.428  14.437
41034W        W13349  21.190  28.516  13.784
41035W        W13350  43.517  24.331   1.608
41036W        W13351  24.973   5.389   0.350
41037W        W13352  23.749  40.577   1.201
41038W        W13353  36.593  11.709   4.220
41039W        W13354   9.461   7.270   0.810
41040W        W13355   6.566   1.597  11.609
41041W        W13356  33.414   1.668   3.318
41042W        W13357  10.973  17.498   4.409
41043W        W13358  33.035  11.874  10.630
41044W        W13359  23.462  17.592  12.050
41045W        W13360  40.444   5.847  10.670
41046W        W13361  16.302  37.299   3.281
41047W        W13362  27.528  15.100  14.800
41048W        W13363  28.203  30.473  12.878
41049W        W13364  38.594  15.126  12.391
41050W        W13365  29.601  30.038   4.714
41051W        W13366  13.418  22.293  13.472
41052W        W13367   2.153  22.678  13.862
41053W        W13368   7.423  14.651   1.580
41054W        W13369  31.632  29.698   4.705
41055W        W13370  15.286   2.510   4.906
41056W        W13371  38.549  16.078  10.189
41057W        W13372  25.810  37.873  10.895
41058W        W13373  35.795  25.142  13.008
41059W        W13374  31.809  11.647   3.707
41060W        W13375  42.220   1.790  11.956
41061W        W13376  23.601   1.168  11.995
41062W        W13377   3.457  12.801  13.190
41063W        W13378  44.930  29.942  12.638
41064W        W13379  12.429  38.370   4.236
41065W        W13380  20.349  39.332  12.465
41066W        W13381  16.085  14.759   4.066
41067W        W13382  34.652  30.456   3.624
41068W        W13383  27.180   6.447   0.343
41069W        W13384  42.048  13.483   1.301
41070W        W13385  44.086  23.516  11.195
41071W        W13386  43.167  18.594   3.257
41072W        W13387  29.641  43.756   0.039
41073W        W13388   2.019  39.367  13.557
41074W        W13389  42.383  35.309   2.587
41075W        W13390  30.937  24.202   0.433
41076W        W13391  32.109  43.440   2.886
41077W        W13392  37.106  10.197  13.127
41078W        W13393   5.737  28.683  12.211
41079W        W13394  39.270  24.587   1.398
41080W        W13395  34.373  28.442   3.209
41081W        W13396  24.040  31.833   2.304
41082W        W13397   0.970   2.615  12.600
41083W        W13398  11.824  34.942   0.380
41084W        W13399  35.462  17.717  11.889
41085W        W13400   2.703  24.682  14.622
41086W        W13401  42.917  23.690   1.329
41087W        W13402  43.342  24.110   4.556
41088W        W13403  39.116  16.353   2.246
41089W        W13404  35.886  42.207   1.425
41090W        W13405  39.865  31.136   4.601
41091W        W13406  10.199  35.647  11.369
41092W        W13407   4.655   0.451   9.831
41093W        W13408  40.181   0.096  12.958
41094W        W13409   7.223  17.972  14.793
41095W        W13410  34.331  15.342  10.733
41096W        W13411  12.896  28.268   4.480
41097W        W13412  22.973  44.677  13.697
41098W        W13413   5.366  13.746   2.383
41099W        W13414  24.218   6.658  13.117
41100W        W13415   7.000  35.647   3.680
41101W        W13416  19.919  17.444  12.510
41102W        W13417  25.755  38.386   1.217
41103W        W13418   1.337  38.795  14.320
41104W        W13419  20.615  10.864   4.254
41105W        W13420   2.753  23.478  13.432
41106W        W13421  28.472  41.843  10.875
41107W        W13422  27.559  38.350   2.859
41108W        W13423   8.643   2.361  13.395
41109W        W13424  38.481  14.660   2.539
41110W        W13425   0.472  39.762  12.847
41111W        W13426  21.085   8.774  11.158
41112W        W13427   5.769  30.071  10.934
41113W        W13428  42.434  18.432   0.897
41114W        W13429   6.405  30.466  12.099
41115W        W13430  26.487  32.225   2.632
41116W        W13431  28.563  41.213  13.990
41117W        W13432  44.577   8.355   4.503
41118W        W13433  31.302  32.374  14.005
41119W        W13434  19.230  13.195   1.890
41120W        W13435  20.130   0.305  14.672
41121W        W13436  10.191  42.512   0.326
41122W        W13437   3.958  36.361  12.495
41123W        W13438  23.533  17.607   1.785
41124W        W13439  44.764   4.066  14.733
41125W        W13440  42.317  19.260  12.034
41126W        W13441  24.520  35.536  11.181
41127W        W13442   0.295  39.808   2.936
41128W        W13443  20.071  10.086   2.232
41129W        W13444  24.722  43.328  11.905
41130W        W13445   9.129  39.336   0.520
41131W        W13446  23.213  38.028  13.889
41132W        W13447   3.029  26.500   3.703
41133W        W13448   6.470  26.489  12.380
41134W        W13449  21.675  32.886  10.392
41135W        W13450  42.585  25.699  13.875
41136W        W13451  22.678   9.849   2.781
41137W        W13452   8.183  11.448  12.166
41138W        W13453  38.344  31.005   1.681
41139W        W13454   2.361  20.211  14.395
41140W        W13455   1.515   8.911  12.932
41141W        W13456  34.898  16.437   3.139
41142W        W13457  13.188  36.881   4.458
41143W        W13458  31.366  19.628   3.228
41144W        W13459   4.319  38.266   3.633
41145W        W13460  40.359  38.493   4.138
41146W        W13461  16.217   8.240  13.591
41147W        W13462  15.262  31.611  11.862
41148W        W13463   6.290  19.819  13.279
41149W        W13464  33.038   2.294   0.129
41150W        W13465  44.395  28.937  12.837
41151W        W13466  11.881   2.908   2.340
41152W        W13467  29.069  14.407  11.084
41153W        W13468  34.951  37.622  10.643
41154W        W13469  24.315   8.175  10.653
41155W        W13470   7.267  22.103  12.055
41156W        W13471  10.352   0.351  10.923
41157W        W13472  22.013   0.831   0.550
41158W        W13473  16.149  33.802  13.740
41159W        W13474  43.535   1.670  14.737
41160W        W13475  28.946  31.935   1.907
41161W        W13476  22.030  39.425  14.051
41162W        W13477  41.262   0.319   2.242
41163W        W13478   8.017   9.122  11.999
41164W        W13479  43.493   0.923   2.569
41165W        W13480   2.833  12.689  12.333
41166W        W13481   4.565   2.471  14.315
41167W        W13482  30.616   7.381  12.141
41168W        W13483   8.087  33.944  12.146
41169W        W13484  43.887  24.279  13.959
41170W        W13485   6.253  34.152  11.900
41171W        W13486   7.461  32.683  11.750
41172W        W13487  11.252  41.628   1.422
41173W        W13488  44.891  38.454  11.021
41174W        W13489  29.652   8.788  10.176
41175W        W13490  25.255  41.101   4.153
41176W        W13491  31.711  38.841   3.694
41177W        W13492  15.747   6.114  11.932
41178W        W13493   7.842  19.734  12.035
41179W        W13494   2.006  31.936   3.766
41180W        W13495  32.388  42.479  13.417
41181W        W13496  14.685   4.165  11.180
41182W        W13497  24.094   0.911   2.873
41183W        W13498   6.897   5.159  12.990
41184W        W13499  43.136  44.338  11.588
41185W        W13500   3.718   4.707  12.034
41186W        W13501  27.454  41.538  13.288
41187W        W13502   9.656   1.735   0.426
41188W        W13503   6.196  36.517  12.207
41189W        W13504  28.758  24.037  14.469
41190W        W13505  42.958  23.201   4.439
41191W        W13506  34.546  39.070   1.793
41192W        W13507  31.083  22.049   0.764
41193W        W13508  21.930   6.605   2.307
41194W        W13509   4.114  21.539  10.987
41195W        W13510  19.581   3.140   2.251
41196W        W13511  10.912   9.334   4.867
41197W        W13512   9.251  13.810  13.318
41198W        W13513  18.145   1.489   1.884
41199W        W13514   0.751  37.517  11.565
41200W        W13515   2.592  42.346  10.714
41201W        W13516  25.387  42.363   2.628
41202W        W13517  43.974  41.139   5.022
41203W        W13518   7.717  40.804  10.339
41204W        W13519  26.162  28.160  12.979
41205W        W13520  39.188  33.090  14.415
41206W        W13521   0.076  16.792  14.266
41207W        W13522  37.834  28.767   2.701
41208W        W13523  25.977  18.963   2.271
41209W        W13524  11.342  25.760  12.482
41210W        W13525  41.163  29.090   0.757
41211W        W13526   6.876   3.970   4.510
41212W        W13527  16.932  31.769  12.425
41213W        W13528  25.961  20.412   3.434
41214W        W13529  26.386  20.050   2.088
41215W        W13530   0.757  17.201   2.112
41216W        W13531  32.044  13.611  12.613
41217W        W13532  26.682   4.720  12.935
41218W        W13533  18.771  43.759   1.695
41219W        W13534  34.322  16.616  12.497
41220W        W13535  12.088  33.625  12.341
41221W        W13536  20.504   5.286   0.814
41222W        W13537  16.813   6.618   3.711
41223W        W13538  28.936   0.076  10.661
41224W        W13539  13.137   0.064   3.230
41225W        W13540  25.270  24.639  13.845
41226W        W13541  10.427  43.746   2.206
41227W        W13542  44.498  38.667  13.970
41228W        W13543   6.170  23.620   1.514
41229W        W13544   3.566  37.261   2.460
41230W        W13545  24.120   4.224  11.703
41231W        W13546  12.767  26.237   1.417
41232W        W13547  22.016   4.164   0.547
41233W        W13548  18.279  44.929   2.692
41234W        W13549  42.401  21.753  12.958
41235W        W13550  12.322  41.471   1.319
41236W        W13551  32.867  40.781   0.796
41237W        W13552  40.511   4.452   2.724
41238W        W13553  36.549  34.448   0.458
41239W        W13554  31.494  13.542  13.290
41240W        W13555  12.618  40.471  12.029
41241W        W13556  10.593  37.379  12.134
41242W        W13557  33.347  16.172   2.309
41243W        W13558  17.300  18.067  12.382
41244W        W13559  23.497  20.899   2.803
41245W        W13560  25.494   1.951   3.103
41246W        W13561  35.068  22.366  14.748
41247W        W13562  36.635  15.605   1.022
41248W        W13563  11.052  22.825   1.638
41249W        W13564  22.223  34.028  14.569
41250W        W13565  36.957  27.586  12.487
41251W        W13566  36.932  40.858   1.904
41252W        W13567  37.606  27.079  11.046
41253W        W13568  12.865  33.925  10.750
41254W        W13569  13.173  38.293   3.676
41255W        W13570  18.574  21.276   1.025
41256W        W13571  20.166  21.800   3.797
41257W        W13572  14.434  44.971   2.271
41258W        W13573  33.120   2.334  12.624
41259W        W13574   6.449   3.253  12.827
41260W        W13575  41.512  27.654   3.337
41261W        W13576  26.301  22.223   3.642
41262W        W13577   1.980   2.786   3.684
41263W        W13578  32.140  33.410  14.871
41264W        W13579  28.184  35.045   0.716
41265W        W13580  27.641   0.563   0.831
41266W        W13581  11.873  31.598   4.660
41267W        W13582  32.566  17.042  12.615
41268W        W13583  36.394  11.226   3.550
41269W        W13584  13.386  12.996   0.398
41270W        W13585  37.598  38.857  11.609
41271W        W13586   4.687   4.374  12.484
41272W        W13587  34.580  26.995   0.286
41273W        W13588  41.990  43.486   0.754
41274W        W13589  32.905  27.644  13.871
41275W        W13590  36.029  37.747  12.669
41276W        W13591  12.367   4.460   4.125
41277W        W13592   1.940  39.068   1.461
41278W        W13593   9.635  10.920  14.544
41279W        W13594  20.056   5.767   1.703
41280W        W13595  19.829  22.522  13.850
41281W        W13596  19.265  36.003   2.230
41282W        W13597  29.950  28.556   3.664
41283W        W13598  44.608  18.601  10.199
41284W        W13599  18.994  33.064   3.865
41285W        W13600   9.333  37.422   2.929
41286W        W13601  15.130   7.034   2.181
41287W        W13602  39.400   7.365  13.941
41288W        W13603  19.015  24.082   1.541
41289W        W13604   3.156  21.263   0.765
41290W        W13605  10.994  10.659  13.365
41291W        W13606   0.270  42.346   1.689
41292W        W13607  14.324  24.710  13.741
41293W        W13608  21.056  19.185   1.012
41294W        W13609  16.614  43.932   3.435
41295W        W13610   5.912  37.845   3.252
41296W        W13611   2.795  31.608  13.286
41297W        W13612   9.185  32.902   3.718
41298W        W13613  43.173  20.347   3.359
41299W        W13614  29.286   5.790   9.708
41300W        W13615  13.730  17.159   0.396
41301W        W13616  13.611  21.277  13.404
41302W        W13617   5.672   0.720  13.416
41303W        W13618  13.616   2.343   3.698
41304W        W13619  43.966  13.577   3.763
41305W        W13620   9.117  21.537  12.466
41306W        W13621  23.007  43.749  11.591
41307W        W13622  43.629  14.672  13.486
41308W        W13623   3.382  15.806  12.047
41309W        W13624  26.421   7.439  11.490
41310W        W13625  38.056  29.514   4.309
41311W        W13626  18.723  36.925   4.158
41312W        W13627   3.184  38.404   2.661
41313W        W13628  41.937  42.239   2.796
41314W        W13629   1.875  13.840   3.477
41315W        W13630   9.709   6.413  11.499
41316W        W13631  33.391  44.461  12.479
41317W        W13632  14.683  10.541  11.934
41318W        W13633  22.830   3.345   4.191
41319W        W13634   0.282  13.257   4.083
41320W        W13635  12.827  14.337   2.916
41321W        W13636  13.819  21.124   0.734
41322W        W13637  34.963  40.148  14.022
41323W        W13638  33.837  23.699  13.870
41324W        W13639  36.857  16.328  11.184
41325W        W13640   9.462   5.853  14.410
41326W        W13641  29.926  39.601  11.954
41327W        W13642   4.721  22.833   0.014
41328W        W13643  44.393  36.489  13.915
41329W        W13644  13.087  24.421  12.452
41330W        W13645  17.044  40.316   5.328
41331W        W13646  36.152  42.397  12.004
41332W        W13647  39.339  37.893   0.414
41333W        W13648  10.093  41.006   0.175
41334W        W13649  43.249   3.484  10.675
41335W        W13650  10.954  26.424  12.436
41336W        W13651   6.279   7.932  11.434
41337W        W13652   0.415  20.967  12.082
41338W        W13653  33.198  19.282  13.849
41339W        W13654  35.804   4.529   4.242
41340W        W13655  30.721  27.257  13.532
41341W        W13656  26.713  22.786   3.129
41342W        W13657  40.925  13.102  11.664
41343W        W13658  24.022  37.917  11.588
41344W        W13659  43.749  28.476   3.795
41345W        W13660  31.334  39.606   3.392
41346W        W13661   6.480  12.916   3.644
41347W        W13662   9.283  35.949   0.064
41348W        W13663  33.112  12.892   4.340
41349W        W13664  22.200  33.038   4.543
41350W        W13665  35.305  27.512   0.322
41351W        W13666  12.727  32.308  13.644
41352W        W13667   0.699  12.040   4.595
41353W        W13668  15.793  44.997  14.937
41354W        W13669  22.298  10.619   1.457
41355W        W13670   8.790  18.973  12.565
41356W        W13671  12.598   2.720   3.196
41357W        W13672  25.568  34.661   1.300
41358W        W13673  19.107  27.854   0.773
41359W        W13674  28.567   7.372   4.820
41360W        W13675  32.540  23.925  10.449
41361W        W13676  22.198   3.192   0.380
41362W        W13677   3.912  39.731  11.160
41363W        W13678  13.757  29.088   0.729
41364W        W13679  15.826  16.585   1.685
41365W        W13680  22.256  35.915   2.648
41366W        W13681   4.544  26.095  10.691
41367W        W13682  14.798  32.107   2.784
41368W        W13683  23.488  38.534   1.857
41369W        W13684  20.129   2.134   0.384
41370W        W13685   2.351  24.526   0.855
41371W        W13686  18.008  26.608  11.831
41372W        W13687  19.778  41.340   0.463
41373W        W13688   1.924   7.082   2.261
41374W        W13689  32.999  12.411  10.553
41375W        W13690  24.157  44.455   0.927
41376W        W13691  30.464  22.134  10.779
41377W        W13692  38.486  16.388  12.089
41378W        W13693  26.664   7.441   1.335
41379W        W13694  13.684   9.694   0.754
41380W        W13695   4.298  33.938   2.373
41381W        W13696  24.906  12.171  12.072
41382W        W13697   0.241  42.358  14.200
41383W        W13698  44.889  38.852   2.899
41384W        W13699  31.549  15.415   1.752
41385W        W13700  35.864  44.250   0.699
41386W        W13701  33.033   3.998  14.700
41387W        W13702  10.147  26.502  11.918
41388W        W13703  17.166  30.806  11.339
41389W        W13704  32.054   6.302  11.605
41390W        W13705  19.451   6.798   4.102
41391W        W13706  33.394   0.736  12.799
41392W        W13707  44.703  39.424   1.247
41393W        W13708  19.443   8.734  13.411
41394W        W13709  30.678  16.641  13.025
41395W        W13710   9.742  44.710   1.319
41396W        W13711  17.622  26.300  14.470
41397W        W13712  42.012  40.898   1.690
41398W        W13713  34.094  21.207   1.265
41399W        W13714  42.991  12.865   0.729
41400W        W13715  43.869  14.583  12.902
41401W        W13716  20.487  37.506  13.385
41402W        W13717  18.404  15.814   3.749
41403W        W13718  41.858  25.282   0.961
41404W        W13719   8.745  36.078   4.647
41405W        W13720  12.462  38.885  10.652
41406W        W13721  28.158  15.550   1.353
41407W        W13722  42.763  22.304   2.873
41408W        W13723  17.095  39.053  13.973
41409W        W13724  39.524  36.953   0.831
41410W        W13725  33.068  44.219  13.744
41411W        W13726  30.100   5.431   1.264
41412W        W13727  30.928  20.906   1.597
41413W        W13728   8.635   0.707   2.922
41414W        W13729   0.202  33.359   1.281
41415W        W13730  29.570   0.773  10.966
41416W        W13731  12.416  38.614  12.686
41417W        W13732  15.524  24.210  11.666
41418W        W13733   3.216  12.876   0.832
41419W        W13734   0.748  33.910  12.505
41420W        W13735  41.237  38.428  13.101
41421W        W13736  44.620  29.387  12.033
41422W        W13737  37.106  38.483  12.095
41423W        W13738  34.881  10.313  11.974
41424W        W13739  12.809  32.159   2.867
41425W        W13740   2.502  13.065  12.163
41426W        W13741   1.520  27.560  14.559
41427W        W13742  27.675  23.106  14.283
41428W        W13743  12.862  27.195  11.969
41429W        W13744  28.580  22.436   4.843
41430W        W13745  36.335  25.319  13.517
41431W        W13746  34.643  33.394  10.972
41432W        W13747  26.457  11.393   1.178
41433W        W13748   0.907  14.721   2.908
41434W        W13749  14.134  36.544   4.115
41435W        W13750  17.385  43.512  12.797
41436W        W13751  10.467  20.110   2.184
41437W        W13752  40.346   7.792   4.681
41438W        W13753  12.274  30.232   1.273
41439W        W13754  27.502  32.361  14.527
41440W        W13755  21.958  20.482   9.630
41441W        W13756  11.376   8.362  11.652
41442W        W13757  15.119  39.549   3.533
41443W        W13758  15.377  14.093  13.089
41444W        W13759  12.756  40.862  14.755
41445W        W13760   5.074   0.029   4.024
41446W        W13761  40.465  39.985  13.100
41447W        W13762   5.638   6.829  14.822
41448W        W13763  44.947  22.801   3.352
41449W        W13764  27.227  27.750   4.095
41450W        W13765  39.785  14.734  13.253
41451W        W13766  44.714   9.787   1.309
41452W        W13767   4.560   1.664  13.319
41453W        W13768  13.452  34.402  14.967
41454W        W13769  17.683   0.132   1.682
41455W        W13770  31.932  13.422  11.597
41456W        W13771  35.835  27.180  12.495
41457W        W13772  13.560  11.672   2.690
41458W        W13773  30.227  34.826  14.381
41459W        W13774  10.181  32.031   0.364
41460W        W13775  32.654   6.005  11.062
41461W        W13776  10.875  19.500   1.761
41462W        W13777  13.289  32.380   2.813
41463W        W13778  15.023  21.272  12.971
41464W        W13779  30.136  16.283  11.644
41465W        W13780  11.102  22.942  10.500
41466W        W13781  36.976  19.157   2.380
41467W        W13782  40.358  43.069  11.059
41468W        W13783  16.878   5.242  13.365
41469W        W13784  16.850   3.421   4.098
41470W        W13785  11.917   4.128  11.577
41471W        W13786   3.004  30.817  14.840
41472W        W13787  43.492  25.532  11.381
41473W        W13788  24.269  34.928  11.881
41474W        W13789  26.997  27.007  12.009
41475W        W13790   9.876  39.726   1.655
41476W        W13791  42.043   1.953  13.421
41477W        W13792   3.871   9.608  12.474
41478W        W13793  23.077  21.820   4.186
41479W        W13794  33.100   8.212   3.744
41480W        W13795  31.611  35.513  11.855
41481W        W13796  23.154  16.391  12.872
41482W        W13797  30.342  41.628   3.263
41483W        W13798   3.914  10.171  10.742
41484W        W13799  24.772  19.330   9.595
41485W        W13800  42.921   6.998   2.662
41486W        W13801  27.281  39.354  14.332
41487W        W13802   1.412  13.079   1.254
41488W        W13803  44.314  34.338  11.917
41489W        W13804  18.770  31.845  12.522
41490W        W13805  38.328  43.834  13.925
41491W        W13806  35.468   1.619   3.324
41492W        W13807  11.115   4.374   2.787
41493W        W13808   0.994  36.233   1.284
41494W        W13809  43.892  40.031   4.217
41495W        W13810  35.450  43.480  14.266
41496W        W13811  27.720  36.309   1.293
41497W        W13812  30.399  25.972   2.371
41498W        W13813  41.057  35.548   3.713
41499W        W13814  14.142  27.497   1.692
41500W        W13815   2.532  18.762   3.727
41501W        W13816  41.784  32.626   4.227
41502W        W13817   1.929   9.361  11.604
41503W        W13818  28.553  31.874   4.244
41504W        W13819  14.788   4.353   1.801
41505W        W13820  17.091  12.985  11.960
41506W        W13821  41.446  35.753   0.520
41507W        W13822  27.028  26.862   2.824
41508W        W13823  12.702  31.015  14.996
41509W        W13824  28.935  19.743   1.662
41510W        W13825  17.705  23.661   0.232
41511W        W13826  36.181   3.710  13.437
41512W        W13827   5.525  13.554   4.331
41513W        W13828  40.449   6.358   0.241
41514W        W13829  10.406  18.647  12.552
41515W        W13830   1.879  24.686   0.631
41516W        W13831  33.612   5.679   4.612
41517W        W13832  21.647   0.711  14.533
41518W        W13833  11.097  32.748  11.016
41519W        W13834   6.805   1.015  11.083
41520W        W13835   9.382  29.826  11.090
41521W        W13836  30.916  44.259  12.466
41522W        W13837  43.936   3.166  12.938
41523W        W13838  32.328  14.694  14.773
41524W        W13839  40.007  15.019   2.864
41525W        W13840  29.797  32.913  11.595
41526W        W13841   4.476   5.975  10.955
41527W        W13842  11.334  34.290  13.985
41528W        W13843   7.224  18.123   0.665
41529W        W13844  32.490   9.140   2.692
41530W        W13845  29.128   6.085  10.209
41531W        W13846  10.342   8.951  13.348
41532W        W13847  34.653   1.999  10.782
41533W        W13848   4.734  27.277  14.387
41534W        W13849  19.250  35.350  14.952
41535W        W13850  15.092  42.308  14.894
41536W        W13851   3.343  26.052  12.287
41537W        W13852  43.767  34.366  11.286
41538W        W13853  42.951  21.463   2.658
41539W        W13854  12.303  17.123   2.748
41540W        W13855  16.700  22.123   1.203
41541W        W13856  40.808  44.065   1.805
41542W        W13857  11.783  39.326  12.147
41543W        W13858   1.188  14.196   2.345
41544W        W13859  12.798  10.628  13.494
41545W        W13860   1.340  17.969   3.673
41546W        W13861  14.585  36.412  12.475
41547W        W13862   0.250  10.789   0.687
41548W        W13863  43.725  42.347   4.422
41549W        W13864  16.605   0.807   1.746
41550W        W13865  36.246  18.209   0.717
41551W        W13866  33.208  11.801  10.087
41552W        W13867   6.681  20.414   0.059
41553W        W13868  38.880  33.405  10.405
41554W        W13869  44.501   4.854  10.909
41555W        W13870  11.716  29.542  14.387
41556W        W13871  43.877  20.999   1.774
41557W        W13872  41.543   1.795  14.718
41558W        W13873  21.794  29.192  13.543
41559W        W13874  34.407  36.874   4.288
41560W        W13875  31.910  40.524  14.729
41561W        W13876   2.279  14.627   3.237
41562W        W13877  35.544  44.429  14.920
41563W        W13878  19.372  39.968  13.405
41564W        W13879  44.441   0.279  12.609
41565W        W13880  26.976  40.841  13.451
41566W        W13881  18.744   9.549  13.241
41567W        W13882  32.115  12.333  11.925
41568W        W13883  15.687   2.743   3.685
41569W        W13884  42.554   8.341  14.219
41570W        W13885   8.301   4.675  14.752
41571W        W13886   0.807  13.851   2.156
41572W        W13887  15.051  35.414   1.293
41573W        W13888  35.480  38.673   1.897
41574W        W13889   3.306  20.073  13.776
41575W        W13890  24.228  41.136  12.357
41576W        W13891  37.486   8.792  13.793
41577W        W13892  31.068  28.341   1.031
41578W        W13893  12.884  19.039  12.553
41579W        W13894   3.791   2.150  11.009
41580W        W13895  23.974   7.196   4.107
41581W        W13896  26.742  35.966  11.070
41582W        W13897  29.551   9.385  10.818
41583W        W13898  36.498  40.922  11.009
41584W        W13899  30.909  14.635   4.211
41585W        W13900  12.584  43.531  12.798
41586W        W13901   1.958  33.535  12.184
41587W        W13902  15.467  30.128   4.268
41588W        W13903  35.862  24.218   2.761
41589W        W13904  25.512  19.717   2.465
41590W        W13905   7.643  38.128   3.788
41591W        W13906  38.436  25.221  12.363
41592W        W13907  11.620  17.550   3.305
41593W        W13908   7.145  26.101   1.638
41594W        W13909  25.647  28.633   1.627
41595W        W13910  17.218  23.081  12.742
41596W        W13911   4.259  35.243   1.370
41597W        W13912  18.239  39.123  13.090
41598W        W13913  23.489  32.507  13.915
41599W        W13914   6.160   4.762   1.502
41600W        W13915  10.005  37.767  14.322
41601W        W13916  34.022  40.645  14.958
41602W        W13917   6.481  14.631   0.485
41603W        W13918  37.862   0.842   4.618
41604W        W13919  19.754  35.150  13.881
41605W        W13920  38.627  29.990  13.893
41606W        W13921   3.580  33.581   0.828
41607W        W13922   2.508  21.696  13.299
41608W        W13923  41.985  22.975  13.362
41609W        W13924  38.382  14.806   4.016
41610W        W13925   3.239  22.679   1.792
41611W        W13926  37.637  12.692  11.043
41612W        W13927  39.969  35.889   3.670
41613W        W13928   3.740  32.506   0.827
41614W        W13929  36.997   3.700  11.213
41615W        W13930   5.417  24.637   4.563
41616W        W13931  41.763  37.765  14.715
41617W        W13932   9.049   1.925  13.996
41618W        W13933  19.476  14.806  10.643
41619W        W13934  41.064  24.233   3.624
41620W        W13935  39.986   6.902   1.418
41621W        W13936  37.890  17.803  10.742
41622W        W13937  39.023  23.245  14.956
41623W        W13938  31.167  23.184   0.981
41624W        W13939  18.045  42.869   2.163
41625W        W13940  29.125  34.015   1.876
41626W        W13941  37.875  27.938  11.924
41627W        W13942   2.034  22.562   2.351
41628W        W13943  13.604   3.479  10.846
41629W        W13944  28.572  30.850   4.182
41630W        W13945  23.533  16.231  14.455
41631W        W13946   1.549  10.245  13.456
41632W        W13947  15.154  43.341  11.976
41633W        W13948  20.811  21.519  12.513
41634W        W13949  25.693  39.241  11.041
41635W        W13950  41.171   0.368  12.884
41636W        W13951  25.087   4.719   4.147
41637W        W13952  18.083  33.434  11.957
41638W        W13953  15.852  24.132  10.808
41639W        W13954  26.014  28.760   3.384
41640W        W13955  34.321  22.485  10.935
41641W        W13956  37.579  29.547   0.450
41642W        W13957  33.892  22.913  11.064
41643W        W13958  30.570   8.651  13.902
41644W        W13959  17.778  26.552  11.361
41645W        W13960   1.748   8.854   2.745
41646W        W13961   4.767  41.931   0.475
41647W        W13962  39.430  12.167   2.233
41648W        W13963  26.374  33.575  11.186
41649W        W13964  22.835  36.750   2.787
41650W        W13965  24.782  15.558  11.678
41651W        W13966  24.183  34.162   2.762
41652W        W13967  39.535   6.865   3.787
41653W        W13968  27.713  23.586   0.837
41654W        W13969  26.739  13.062  13.005
41655W        W13970   7.870  30.979  13.808
41656W        W13971  24.060  13.197  14.836
41657W        W13972  18.613   8.854   4.596
41658W        W13973  29.951  25.111  11.535
41659W        W13974   1.231  24.024   1.233
41660W        W13975  15.101  35.923  14.049
41661W        W13976  40.815   8.939   2.837
41662W        W13977  28.247  33.557  12.918
41663W        W13978  41.859  43.725  12.947
41664W        W13979   5.085  24.487  13.904
41665W        W13980  32.919   9.417  11.996
41666W        W13981   9.496  36.385  14.538
41667W        W13982   6.703  17.839  14.386
41668W        W13983  37.508  21.730   2.888
41669W        W13984  15.319  19.653  13.634
41670W        W13985  42.435  23.415  11.805
41671W        W13986  18.271  22.243  13.377
41672W        W13987  23.201  37.037  12.890
41673W        W13988   0.281   3.890  14.804
41674W        W13989  37.100  44.353   2.237
41675W        W13990  36.523  20.908   9.934
41676W        W13991   5.518   0.305   4.080
41677W        W13992  33.844  35.609   2.887
41678W        W13993  37.446  39.344   0.697
41679W        W13994  43.033   0.873   1.799
41680W        W13995  21.512  11.622  13.949
41681W        W13996   4.331  42.760   0.939
41682W        W13997  23.215  28.454  11.613
41683W        W13998  25.401  44.590  11.104
41684W        W13999  18.491  13.036   3.261
41685W        W14000  39.034  36.005  11.984
41686W        W14001   3.150  26.446  10.688
41687W        W14002  25.087   5.939   3.082
41688W        W14003  13.109  27.094   3.163
41689W        W14004  33.293  33.894  14.512
41690W        W14005  41.681   8.428   4.571
41691W        W14006  29.409   1.312  12.095
41692W        W14007   9.172   0.242   3.611
41693W        W14008  28.920  24.604  10.577
41694W        W14009  34.155  18.956   4.498
41695W        W14010  30.620  20.525   3.686
41696W        W14011  42.485  44.148   0.438
41697W        W14012  34.530  27.903   0.509
41698W        W14013  15.053  17.704  13.430
41699W        W14014  39.447  42.812   1.660
41700W        W14015  27.714  34.573  11.991
41701W        W14016  41.201  38.720  11.689
41702W        W14017  14.786  42.311   4.472
41703W        W14018   3.252  24.434  10.668
41704W        W14019  10.825   7.917   0.653
41705W        W14020   8.888  26.864   4.834
41706W        W14021  44.217  41.337  12.123
41707W        W14022  38.794  40.987  14.628
41708W        W14023  37.905  39.924  12.774
41709W        W14024  34.334  24.205   2.913
41710W        W14025  30.882   0.499   1.905
41711W        W14026  42.048   8.061  13.342
41712W        W14027  27.138  30.411  11.054
41713W        W14028   2.329   2.263   2.320
41714W        W14029   0.214  13.625  13.382
41715W        W14030   2.306  43.822  11.869
41716W        W14031  22.177  27.944   1.021
41717W        W14032  12.085  32.050   0.944
41718W        W14033   6.612  44.430   2.418
41719W        W14034  34.500  44.378   0.324
41720W        W14035  37.641  32.334  11.710
41721W        W14036  30.777  41.600  10.224
41722W        W14037   3.231   8.621  13.938
41723W        W14038  26.101  32.981   2.926
41724W        W14039  43.247   5.995  13.478
41725W        W14040  11.174   8.772  11.941
41726W        W14041   2.214  34.171  13.528
41727W        W14042  34.311  33.667   4.355
41728W        W14043  38.506  24.702   0.864
41729W        W14044  21.275  11.123   3.193
41730W        W14045  27.899  11.430  12.125
41731W        W14046   0.951  35.344  12.453
41732W        W14047  10.377   6.490   3.183
41733W        W14048  42.729  35.534   0.217
41734W        W14049   5.099  21.500  11.627
41735W        W14050   4.443  32.491   4.856
41736W        W14051   2.051  10.267  13.573
41737W        W14052  19.095  30.715  14.392
41738W        W14053  42.079  33.848  14.263
41739W        W14054  12.740  26.741   4.110
41740W        W14055  24.530  36.976   0.375
41741W        W14056  16.181  30.845   0.004
41742W        W14057  27.795  33.216   0.485
41743W        W14058  28.593  22.600   0.049
41744W        W14059   4.367  19.468   4.233
41745W        W14060   7.892  18.695   4.961
41746W        W14061  38.867  20.353   2.491
41747W        W14062   4.489   0.946   0.397
41748W        W14063  13.493  16.286   4.315
41749W        W14064  33.414   8.116   3.329
41750W        W14065  41.403  35.629  10.993
41751W        W14066  43.750   8.144   2.812
41752W        W14067   9.391  29.121   4.753
41753W        W14068  19.809  10.647  11.949
41754W        W14069   1.927  33.947  11.891
41755W        W14070  10.825  35.537   4.229
41756W        W14071  24.765  24.114   2.385
41757W        W14072   4.184  40.063   4.500
41758W        W14073   4.049  23.491   3.210
41759W        W14074  27.712  39.517   2.301
41760W        W14075  44.821  10.272  13.612
41761W        W14076   1.593  36.636   5.117
41762W        W14077  20.815  40.552  14.264
41763W        W14078  42.039  19.245   4.129
41764W        W14079  29.047  11.756   2.828
41765W        W14080  43.863  30.199   1.647
41766W        W14081  22.567  41.702   2.339
41767W        W14082  44.488   9.888  11.661
41768W        W14083  27.808   7.702  11.347
41769W        W14084  14.698  25.459  10.649
41770W        W14085  31.550  30.842  11.095
41771W        W14086  10.075  42.763   3.728
41772W        W14087  44.381   9.407   3.175
41773W        W14088  19.905   6.746   2.557
41774W        W14089  41.862  24.754  13.326
41775W        W14090  12.580   0.750  11.169
41776W        W14091   7.367  26.171   3.188
41777W        W14092  23.714  21.324  10.311
41778W        W14093  18.664   0.309  12.930
41779W        W14094  13.888  10.372  11.687
41780W        W14095  33.690  20.064   1.245
41781W        W14096  11.775  32.685  13.527
41782W        W14097  36.584   8.119   1.698
41783W        W14098  32.829   9.818  12.836
41784W        W14099   9.664  21.537  11.028
41785W        W14100  39.850   8.165  14.892
41786W        W14101  17.852  31.151   1.735
41787W        W14102   6.086   8.685  12.525
41788W        W14103   5.102  28.112  14.796
41789W        W14104  13.157  36.150   0.477
41790W        W14105  36.331   5.054  10.235
41791W        W14106  37.547   1.452  13.846
41792W        W14107   7.195   9.184  11.598
41793W        W14108   1.977   2.809  10.949
41794W        W14109  10.580  31.920   4.115
41795W        W14110  21.530  44.013  13.787
41796W        W14111  25.126  19.335   4.072
41797W        W14112  39.941   1.021   0.533
41798W        W14113  34.828  35.002   0.707
41799W        W14114  36.898  27.772  11.924
41800W        W14115  26.628  25.278  14.075
41801W        W14116  13.118  30.052   2.235
41802W        W14117  17.094   3.440   3.657
41803W        W14118  24.448   0.434   0.777
41804W        W14119  21.593  28.210   2.263
41805W        W14120  29.766  42.078   2.607
41806W        W14121  36.668  42.599  11.669
41807W        W14122  23.299  41.880  13.747
41808W        W14123  36.926  36.267   1.375
41809W        W14124  14.334   1.823  10.590
41810W        W14125  27.953  34.306  10.985
41811W        W14126  38.414  24.385  11.996
41812W        W14127  28.979   5.299   0.323
41813W        W14128  43.243   6.656   1.435
41814W        W14129  18.080  38.984   0.370
41815W        W14130  16.561  29.003  13.002
41816W        W14131   3.821  44.499   1.786
41817W        W14132  24.025  12.672   0.980
41818W        W14133  27.181   1.772   5.014
41819W        W14134   8.400  41.431  10.668
41820W        W14135  10.762  42.066   4.648
41821W        W14136   8.255   2.344   2.196
41822W        W14137  11.328  22.829   3.990
41823W        W14138   2.342   3.748   1.729
41824W        W14139  36.768   0.358   3.706
41825W        W14140   4.319  41.991   2.910
41826W        W14141  28.213  34.014   2.277
41827W        W14142  44.354   2.430   4.365
41828W        W14143  32.538  37.302  11.149
41829W        W14144  37.669  12.342   2.738
41830W        W14145  22.513  25.078   2.688
41831W        W14146  41.748  42.650  11.554
41832W        W14147   3.231   1.395   2.446
41833W        W14148  15.799  12.362   2.370
41834W        W14149  33.472  14.325   1.534
41835W        W14150   5.898   5.794   0.284
41836W        W14151  16.762  19.570   1.913
41837W        W14152  14.076  42.052  14.714
41838W        W14153  29.596   8.998  13.948
41839W        W14154   5.119  27.022   1.840
41840W        W14155  24.445  43.450  14.422
41841W        W14156  11.824  16.736   3.214
41842W        W14157  43.469   1.895  13.427
41843W        W14158  43.568   7.369   1.611
41844W        W14159  27.774  12.299   3.157
41845W        W14160   8.803  39.164   1.430
41846W        W14161   3.537  18.607  10.656
41847W        W14162   5.886  18.551   4.519
41848W        W14163   1.900  18.621  11.166
41849W        W14164  43.020  35.223  14.935
41850W        W14165  16.053   9.687   0.070
41851W        W14166  29.925   8.755  12.453
41852W        W14167  15.360   3.515  12.846
41853W        W14168  41.867   0.096   0.006
41854W        W14169  20.606  14.089  13.583
41855W        W14170  13.799  39.621  12.858
41856W        W14171  28.839  14.869  10.928
41857W        W14172  44.437  30.660  10.594
41858W        W14173  17.353   8.862  12.850
41859W        W14174  36.407  44.859   4.159
41860W        W14175  11.731  19.309  11.419
41861W        W14176  43.962  37.272  11.005
41862W        W14177  37.164  12.303  14.039
41863W        W14178  38.296  10.397   3.802
41864W        W14179   9.759  10.453  10.744
41865W        W14180  32.515  33.381   4.217
41866W        W14181   2.235  23.762  14.464
41867W        W14182   1.799  40.735  13.338
41868W        W14183  33.022  29.681   2.823
41869W        W14184  33.611  19.066   1.947
41870W        W14185  38.566   9.570   0.356
41871W        W14186  23.078   7.272  11.060
41872W        W14187  39.171  32.121  11.197
41873W        W14188  40.073  16.649   1.296
41874W        W14189  11.713  30.685  12.415
41875W        W14190  44.395  30.678   4.213
41876W        W14191  32.528  41.902   3.257
41877W        W14192  38.601  37.000   3.891
41878W        W14193  26.121   0.417   3.377
41879W        W14194  16.042  17.776   1.314
41880W        W14195  38.922  33.772  12.999
41881W        W14196  22.329  16.576  13.062
41882W        W14197  21.084   9.414  12.565
41883W        W14198  20.666  34.947  10.670
41884W        W14199  40.555  29.362  13.061
41885W        W14200   0.073  26.520  13.491
41886W        W14201  19.018  35.928  11.520
41887W        W14202  41.397  36.653  10.651
41888W        W14203   3.727  12.260   2.166
41889W        W14204  34.820  23.164   4.381
41890W        W14205  13.955   6.323   0.365
41891W        W14206  42.287  12.740   4.781
41892W        W14207  16.209  15.714  12.159
41893W        W14208   7.935   4.483  13.987
41894W        W14209  37.409  32.971   3.109
41895W        W14210  17.397   2.560   4.163
41896W        W14211  24.612  15.066   4.728
41897W        W14212  43.559  39.547  11.127
41898W        W14213   4.730  25.430   1.601
41899W        W14214  29.721  36.247   2.662
41900W        W14215  35.638  41.553   0.838
41901W        W14216  30.962   8.751   3.706
41902W        W14217  39.789  16.695   3.678
41903W        W14218  20.022  40.352   4.205
41904W        W14219  18.906  17.027  13.531
41905W        W14220  23.196  31.793  12.007
41906W        W14221  12.238   3.896   2.071
41907W        W14222  40.103  36.934   1.085
41908W        W14223  27.685  29.039  12.331
41909W        W14224   8.444  40.022  12.027
41910W        W14225   7.025  12.889  11.716
41911W        W14226  28.014  37.859   3.360
41912W        W14227  41.583  14.373  10.727
41913W        W14228  19.562  13.172   2.684
41914W        W14229  13.601   4.286  12.954
41915W        W14230  22.995   9.198   2.159
41916W        W14231  11.236  44.499  12.084
41917W        W14232  17.699  27.864   4.170
41918W        W14233   1.876   7.574   1.326
41919W        W14234  44.371  25.556  13.918
41920W        W14235  38.603  42.200   0.979
41921W        W14236   2.338   8.890   5.026
41922W        W14237  41.566  43.753  13.402
41923W        W14238  13.218   6.573   4.995
41924W        W14239  29.925  41.436   0.943
41925W        W14240   5.855   3.203   3.985
41926W        W14241  30.898  35.470  14.203
41927W        W14242  13.062  30.491   0.397
41928W        W14243  26.952  21.330   3.091
41929W        W14244  39.020   6.812   1.399
41930W        W14245  26.030  17.772  13.050
41931W        W14246  36.735  17.279  13.063
41932W        W14247  31.018   0.848   4.800
41933W        W14248  17.616  35.644  14.750
41934W        W14249  21.689  16.677   2.382
41935W        W14250  33.830  22.251   1.309
41936W        W14251  29.204  11.278   0.716
41937W        W14252  29.030   6.615   0.164
41938W        W14253  38.374   3.526   0.308
41939W        W14254  11.646  35.987   4.189
41940W        W14255  44.677  20.072   2.263
41941W        W14256  16.132   3.297   1.650
41942W        W14257   6.420  19.515   2.411
41943W        W14258  38.399  26.383  14.255
41944W        W14259  34.339  23.439   3.587
41945W        W14260  36.989   6.450   3.708
41946W        W14261  44.328  35.651   2.181
41947W        W14262  40.270  41.585  14.094
41948W        W14263  25.165  36.200   2.376
41949W        W14264  40.945  21.483  10.770
41950W        W14265  16.377  37.286  14.048
41951W        W14266  43.394  21.504   2.933
41952W        W14267   5.831   5.913   0.780
41953W        W14268  36.990  24.584  11.203
41954W        W14269  23.956  15.857  13.280
41955W        W14270   3.537  32.211  12.357
41956W        W14271   6.172  29.463   4.736
41957W        W14272  26.897  44.833  10.961
41958W        W14273  11.653  28.958   2.248
41959W        W14274  17.810  27.607   5.175
41960W        W14275  43.017  32.434   1.898
41961W        W14276  18.716  26.598   4.439
41962W        W14277   8.193   0.080   3.772
41963W        W14278  41.516   0.376  13.852
41964W        W14279   4.935  35.711   0.744
41965W        W14280   1.473  24.839   2.242
41966W        W14281  43.402  30.152   1.389
41967W        W14282  23.257  17.713  11.564
41968W        W14283  19.237   3.375  13.620
41969W        W14284  22.463  30.692  11.139
41970W        W14285  41.555  33.156  10.508
41971W        W14286  24.206   2.348   3.780
41972W        W14287  43.945  26.934  11.397
41973W        W14288  38.086  36.362   2.681
41974W        W14289  17.149   9.315   3.582
41975W        W14290  40.742   4.416   0.311
41976W        W14291  31.080  36.409   2.243
41977W        W14292  23.386  10.458  11.940
41978W        W14293  26.099  22.727  13.455
41979W        W14294  32.670  33.887  13.322
41980W        W14295  10.926  16.068  11.046
41981W        W14296   6.755   2.670   0.924
41982W        W14297   6.360   1.892   3.192
41983W        W14298  25.173  13.208   1.610
41984W        W14299  17.180  30.176   1.466
41985W        W14300  15.353  20.345  12.812
41986W        W14301  14.639  39.357   1.412
41987W        W14302  17.736  17.333  13.421
41988W        W14303  39.429  23.201  13.069
41989W        W14304  18.236  22.466  12.278
41990W        W14305   3.749  24.560  10.625
41991W        W14306  21.068  36.223   1.713
41992W        W14307  40.860  25.780   9.751
41993W        W14308  43.026  43.971   3.087
41994W        W14309  22.586  27.898   1.669
41995W        W14310  27.707   4.205  12.384
41996W        W14311  13.253  39.029   4.179
41997W        W14312  17.463  37.886   0.384
41998W        W14313  20.325  34.437   2.762
41999W        W14314  25.488  43.581  14.544
42000W        W14315  21.310  29.179   2.821
42001W        W14316  42.955  16.033   2.951
42002W        W14317  28.897  36.562   1.989
42003W        W14318  24.074  18.790   2.051
42004W        W14319   6.885   4.495   4.771
42005W        W14320   2.831  27.690   4.805
42006W        W14321   9.248  39.960   2.264
42007W        W14322  24.184  30.581   2.797
42008W        W14323  31.040  28.726  14.777
42009W        W14324  25.217  25.420  10.659
42010W        W14325  27.871  29.849  12.600
42011W        W14326   2.153  32.980   1.840
42012W        W14327  21.696  27.986   0.275
42013W        W14328  14.800  37.715   2.219
42014W        W14329  14.295  27.796  12.879
42015W        W14330   8.234  13.214   3.369
42016W        W14331   8.371  22.181   3.949
42017W        W14332  34.774  10.433   5.092
42018W        W14333  23.133  27.769   4.579
42019W        W14334  32.050  22.958  13.827
42020W        W14335  34.892   2.568   2.127
42021W        W14336  10.174  16.871   5.607
42022W        W14337  44.693  31.357  10.591
42023W        W14338  25.987  12.114  11.002
42024W        W14339  28.923  29.768  13.923
42025W        W14340  28.032  33.804   1.846
42026W        W14341  21.666  11.401  12.666
42027W        W14342  37.408  23.752   0.826
42028W        W14343   2.823  22.705   0.673
42029W        W14344  13.354  39.953   2.331
42030W        W14345  19.502  19.618  14.452
42031W        W14346  38.830  26.981   4.129
42032W        W14347  28.387  44.477  11.072
42033W        W14348  29.275   2.285  12.047
42034W        W14349  21.392  30.825  12.366
42035W        W14350  32.969   8.790   2.731
42036W        W14351   7.130  29.611   4.569
42037W        W14352  32.172  42.097  11.962
42038W        W14353  31.139  19.985   0.783
42039W        W14354   1.133   3.429  14.766
42040W        W14355  27.119  29.716   2.168
42041W        W14356   5.189   2.010  11.622
42042W        W14357  38.817  39.107  13.850
42043W        W14358  42.011   5.130   1.719
42044W        W14359   7.938  40.691   4.134
42045W        W14360  33.088   4.831  13.689
42046W        W14361  10.871  42.342  14.301
42047W        W14362   2.907  38.380   2.200
42048W        W14363   8.431  14.519  14.031
42049W        W14364  38.481  28.551   0.981
42050W        W14365  33.421   0.493  10.635
42051W        W14366  44.939  24.209   2.226
42052W        W14367  13.071  12.598  11.042
42053W        W14368  35.625  36.525   4.664
42054W        W14369  35.101  22.726  10.697
42055W        W14370  12.415  32.302   4.255
42056W        W14371  39.248  18.244   3.204
42057W        W14372  25.889  14.811  13.543
42058W        W14373  25.944  23.832  13.311
42059W        W14374   2.976   3.133  11.064
42060W        W14375  22.260  27.507  14.524
42061W        W14376  42.052   5.699   0.849
42062W        W14377  34.421  38.133   0.106
42063W        W14378  43.343   6.365   2.246
42064W        W14379   3.900  39.281  11.417
42065W        W14380  22.685  39.382  14.267
42066W        W14381   4.542  35.013  13.072
42067W        W14382  41.321   2.465  11.131
42068W        W14383  11.332  27.607   0.508
42069W        W14384  40.958  22.520  10.651
42070W        W14385  10.167  31.649   2.355
42071W        W14386  10.355  11.872   3.332
42072W        W14387  35.077   9.412  14.922
42073W        W14388   7.427  36.031   4.370
42074W        W14389  44.601  15.634  12.563
42075W        W14390  12.878  31.245  14.406
42076W        W14391  35.679  31.973   3.065
42077W        W14392  29.357  43.818  14.581
42078W        W14393  36.086  28.020   2.376
42079W        W14394  33.090  25.121  12.684
42080W        W14395  27.970   0.439   0.354
42081W        W14396   8.707  15.535  13.491
42082W        W14397  21.960  22.005  11.919
42083W        W14398  32.478  17.137  13.195
42084W        W14399  24.092  13.756  11.695
42085W        W14400  40.381  32.298   0.428
42086W        W14401  12.743  36.100   1.419
42087W        W14402  44.259  22.751  12.607
42088W        W14403  28.177   0.575  14.899
42089W        W14404  25.100   4.938   2.287
42090W        W14405  37.879  32.574  10.792
42091W        W14406  20.787   0.207  12.943
42092W        W14407  26.110  10.202  10.176
42093W        W14408   5.245   9.081  11.813
42094W        W14409  39.855  10.330  12.674
42095W        W14410  26.115  12.843  11.634
42096W        W14411  26.909  27.362  10.209
42097W        W14412   3.707  27.697   2.403
42098W        W14413  24.001   6.815   4.453
42099W        W14414  13.384   6.823  13.876
42100W        W14415  34.558   3.003  10.557
42101W        W14416  31.725  10.809  13.513
42102W        W14417  30.313  31.445   3.537
42103W        W14418  36.331   7.698  13.305
42104W        W14419  39.455   2.291   3.845
42105W        W14420  35.150   1.933  12.091
42106W        W14421  35.742  12.254   0.087
42107W        W14422  22.718  32.378   2.712
42108W        W14423  17.590  34.179  13.430
42109W        W14424  39.694   9.719   2.793
42110W        W14425  39.330  28.094  14.489
42111W        W14426  10.625  19.177  12.021
42112W        W14427  34.025  17.759   2.197
42113W        W14428  40.857  17.546  14.060
42114W        W14429  32.155  26.091  13.851
42115W        W14430  43.365  21.808   3.338
42116W        W14431  32.380  24.997   1.685
42117W        W14432   3.729   8.728   1.855
42118W        W14433  19.703  30.231  11.510
42119W        W14434   0.571  12.581   5.074
42120W        W14435  12.533  41.907  10.754
42121W        W14436   8.930  27.465   2.596
42122W        W14437   4.299  28.152  12.544
42123W        W14438  11.883  37.332  12.425
42124W        W14439  44.984  34.060  11.533
42125W        W14440  27.986  37.027   4.860
42126W        W14441  42.868  31.490   0.956
42127W        W14442  26.921  23.596   0.799
42128W        W14443   7.407  36.418   3.580
42129W        W14444  19.566  37.069  13.886
42130W        W14445  28.064   5.235   4.521
42131W        W14446   4.620  38.057   4.112
42132W        W14447   8.196  38.500   4.433
42133W        W14448  24.930  11.210  12.655
42134W        W14449  38.554  31.616   4.921
42135W        W14450  18.688  39.813  12.050
42136W        W14451  36.591   4.272  11.586
42137W        W14452  20.882  18.251   2.391
42138W        W14453  25.621  24.975   1.993
42139W        W14454  43.810  38.562  10.938
42140W        W14455  13.692  19.651  10.491
42141W        W14456  16.280  33.895  11.855
42142W        W14457  19.671   9.642   0.615
42143W        W14458   1.507  38.771  11.118
42144W        W14459  44.762  14.869   0.081
42145W        W14460  39.462  26.748   4.962
42146W        W14461  13.282  28.755   3.485
42147W        W14462   0.712  18.136  10.668
42148W        W14463  22.791  24.082  13.384
42149W        W14464  24.653  18.931  14.258
42150W        W14465  34.119  35.088  11.644
42151W        W14466  40.824  11.605   2.579
42152W        W14467  27.154  19.066  12.517
42153W        W14468  13.299  35.883  13.065
42154W        W14469  31.155  18.618  11.832
42155W        W14470  28.416   2.876  12.003
42156W        W14471  15.880  11.369  12.788
42157W        W14472   8.225  33.142   3.234
42158W        W14473  42.078  27.465  11.173
42159W        W14474  38.065   7.298   0.800
42160W        W14475  17.152  28.885   3.206
42161W        W14476  32.319  40.574  13.509
42162W        W14477  17.748  12.787  12.003
42163W        W14478   3.351  42.287  11.134
42164W        W14479  18.273  34.951   0.342
42165W        W14480  27.589  29.564  13.079
42166W        W14481  35.875  43.083   5.096
42167W        W14482   0.955  10.418   3.632
42168W        W14483  33.021  34.440   4.190
42169W        W14484  43.579   0.550   3.324
42170W        W14485  24.540  21.291   5.104
42171W        W14486   4.569  10.816   0.295
42172W        W14487   8.921  31.986   2.222
42173W        W14488  35.571  29.206   1.353
42174W        W14489   4.401  40.335  11.898
42175W        W14490  13.158  21.126   3.289
42176W        W14491  36.498  28.514  13.471
42177W        W14492  17.667  35.304  10.648
42178W        W14493  24.513  24.224  11.379
42179W        W14494   6.772   6.840  12.879
42180W        W14495  29.404   3.692   0.729
42181W        W14496  28.631   0.563   3.531
42182W        W14497  21.749  37.575   0.979
42183W        W14498  26.094  10.919  14.478
42184W        W14499  25.090  37.609  12.752
42185W        W14500  19.605  40.944   3.889
42186W        W14501   3.253   1.153   3.314
42187W        W14502  40.484  31.918   2.861
42188W        W14503  41.553  15.224  11.465
42189W        W14504   3.559  42.900   3.823
42190W        W14505   9.281  35.564  11.672
42191W        W14506  12.929  38.490  13.419
42192W        W14507   7.978  44.840   1.737
42193W        W14508  18.629  37.106   3.670
42194W        W14509  19.362  10.769  13.025
42195W        W14510  31.596  14.650  10.662
42196W        W14511   6.228  37.239   4.024
42197W        W14512  11.720   5.800   3.210
42198W        W14513   4.876  28.241   1.494
42199W        W14514  36.085   2.413   3.166
42200W        W14515   9.701  36.065  13.276
42201W        W14516   1.222   4.111   3.216
42202W        W14517  28.571   4.204   4.218
42203W        W14518   0.199  42.825   0.364
42204W        W14519  22.724   3.913   1.836
42205W        W14520  18.763  29.599  11.978
42206W        W14521  40.636   4.266  13.916
42207W        W14522  24.008  37.404  13.741
42208W        W14523  14.187  16.872   3.613
42209W        W14524  15.183   9.610  14.859
42210W        W14525   4.426  21.622  14.724
42211W        W14526  39.255  28.947   3.472
42212W        W14527   3.718  39.921  14.534
42213W        W14528  37.286   5.268  11.487
42214W        W14529  27.395  34.167  12.148
42215W        W14530  32.243  35.820   3.740
42216W        W14531  42.541  28.736  14.006
42217W        W14532   2.455   3.021  11.034
42218W        W14533  32.174  20.766  11.975
42219W        W14534   5.866   8.169   4.345
42220W        W14535  15.690   5.649   0.352
42221W        W14536  29.664  21.501   0.429
42222W        W14537  30.721  40.789  10.681
42223W        W14538  15.390  17.128  11.268
42224W        W14539   1.528  19.740  13.941
42225W        W14540   1.962  40.351   0.317
42226W        W14541  41.386   1.316   0.879
42227W        W14542  14.634   7.889  11.760
42228W        W14543  37.193  23.583  13.569
42229W        W14544   3.508   5.491  14.747
42230W        W14545  36.110   8.300  14.439
42231W        W14546   9.964  28.609  11.487
42232W        W14547  16.178   8.267   0.518
42233W        W14548   6.595  33.454  10.257
42234W        W14549  16.031  19.261  13.959
42235W        W14550  40.351   8.948  14.319
42236W        W14551   8.756  20.948   4.897
42237W        W14552  25.737  10.713  12.478
42238W        W14553  43.080  31.119   5.002
42239W        W14554  34.439  10.780   3.284
42240W        W14555  26.735  35.265  10.548
42241W        W14556  15.909  35.374   1.162
42242W        W14557  20.703   4.993   0.220
42243W        W14558  12.618  44.780   1.817
42244W        W14559  30.606  39.324  13.917
42245W        W14560  27.276  18.645  13.402
42246W        W14561   7.314   4.685   0.463
42247W        W14562  10.361  13.583  12.517
42248W        W14563  35.600   0.782   0.660
42249W        W14564  37.453  27.933   1.960
42250W        W14565  27.149  19.131   2.899
42251W        W14566  39.281  17.299  11.085
42252W        W14567  22.971  20.092  14.526
42253W        W14568  22.669  10.499   4.596
42254W        W14569  19.471  30.317   3.838
42255W        W14570  38.297  15.646  12.583
42256W        W14571  16.033  17.139  11.501
42257W        W14572  22.268  31.865   2.113
42258W        W14573   7.355  15.193  10.997
42259W        W14574  25.599   4.290   0.943
42260W        W14575   9.394  19.607  13.032
42261W        W14576  22.725  24.893  12.181
42262W        W14577  12.854  18.550  12.420
42263W        W14578  30.490  26.289  12.521
42264W        W14579  44.699  38.020   0.047
42265W        W14580  32.058  35.685  13.102
42266W        W14581   8.494  11.139   2.258
42267W        W14582  21.229  31.173   4.230
42268W        W14583  25.394  10.239  14.300
42269W        W14584   9.855  19.653   1.858
42270W        W14585   8.753  41.572   1.879
42271W        W14586  34.308  30.555   2.728
42272W        W14587  17.138   7.678   1.187
42273W        W14588  34.521  15.725  14.324
42274W        W14589  28.510  26.382   1.008
42275W        W14590  14.645  30.759   4.169
42276W        W14591  27.475  29.190  10.535
42277W        W14592  26.988  24.638  14.519
42278W        W14593  26.675  21.539  10.650
42279W        W14594  17.799  32.901  11.115
42280W        W14595  12.553  33.360  11.538
42281W        W14596  27.463  32.618   1.992
42282W        W14597  16.819  33.843  11.092
42283W        W14598   1.231  44.931   2.963
42284W        W14599   3.166  36.793   1.071
42285W        W14600  19.069  14.386  12.313
42286W        W14601  44.783  41.039  12.447
42287W        W14602  42.795  34.160   1.064
42288W        W14603  17.297  18.915   3.679
42289W        W14604  33.025  11.614  13.960
42290W        W14605  43.337  19.649  11.036
42291W        W14606  32.232  38.542  11.110
42292W        W14607  34.564   2.468  14.933
42293W        W14608  21.073  12.797  14.745
42294W        W14609  41.766  41.877  13.871
42295W        W14610  20.714   8.423   3.179
42296W        W14611  31.089  27.170  13.196
42297W        W14612  40.376  11.630   1.280
42298W        W14613  17.281  10.353   4.788
42299W        W14614  15.379  41.016   2.340
42300W        W14615   5.302  21.657   4.699
42301W        W14616   1.821   8.872  11.659
42302W        W14617  44.475   5.319   3.829
42303W        W14618  23.139  17.376  13.897
42304W        W14619  13.086  29.983   1.340
42305W        W14620   4.989  11.789   1.441
42306W        W14621  10.891  35.027  14.307
42307W        W14622  42.585  42.175  13.870
42308W        W14623  33.215  27.953   3.434
42309W        W14624  21.230  19.127  11.619
42310W        W14625  33.491  44.941  13.926
42311W        W14626  17.289   8.224   2.928
42312W        W14627  37.547   3.925  11.858
42313W        W14628   0.412   5.346   4.724
42314W        W14629  16.703  21.916  13.115
42315W        W14630  15.172  12.037   1.686
42316W        W14631  12.994  29.493  11.294
42317W        W14632  31.119  18.023  12.449
42318W        W14633  22.138  39.149  11.101
42319W        W14634  37.159  22.447   0.794
42320W        W14635  40.403  39.426   1.961
42321W        W14636  13.698   6.720  13.251
42322W        W14637   9.826   1.849  12.893
42323W        W14638  11.953   7.386   5.095
42324W        W14639  26.178  29.619   2.423
42325W        W14640   5.625  37.074   2.448
42326W        W14641  42.093  13.606  14.123
42327W        W14642  38.992  17.616   5.225
42328W        W14643   7.326  24.502   3.696
42329W        W14644  40.880  37.077   3.630
42330W        W14645  12.180  34.530   3.270
42331W        W14646  11.083  35.531   4.690
42332W        W14647   0.428   2.552   0.800
42333W        W14648  13.268  25.539   1.973
42334W        W14649  13.758   8.518   3.576
42335W        W14650  30.237  37.961  13.542
42336W        W14651  16.814  28.504  10.985
42337W        W14652  24.520   3.385   0.734
42338W        W14653  19.204  23.725   3.886
42339W        W14654  27.199  35.894   4.595
42340W        W14655  26.582  11.725  12.168
42341W        W14656  30.825  36.202   4.061
42342W        W14657  20.182   3.354   4.195
42343W        W14658  37.315  21.753  13.826
42344W        W14659  34.303  43.204  11.788
42345W        W14660   7.420   6.212  13.858
42346W        W14661  10.843  44.445   0.057
42347W        W14662  42.206  28.505   0.336
42348W        W14663   1.356  27.482   1.938
42349W        W14664   4.747  32.182   1.750
42350W        W14665  10.922  26.929  12.362
42351W        W14666  14.028  44.533   3.115
42352W        W14667  14.153  17.072  13.955
42353W        W14668   8.616  16.787  13.004
42354W        W14669   7.433  28.005   1.022
42355W        W14670   4.914  38.852  12.459
42356W        W14671   5.167  32.434  11.277
42357W        W14672  29.947  17.623   3.095
42358W        W14673  23.018  10.152   3.743
42359W        W14674  38.721  40.912   3.379
42360W        W14675  28.743   7.648  13.778
42361W        W14676   8.586  12.108  11.113
42362W        W14677  41.968   6.821  11.685
42363W        W14678  16.156  11.231   3.607
42364W        W14679  27.999  41.294  13.913
42365W        W14680  31.679  11.608   2.723
42366W        W14681  38.969  13.811  13.614
42367W        W14682  44.700  40.341  14.128
42368W        W14683  30.699  26.451   3.296
42369W        W14684   0.801  42.367  11.467
42370W        W14685  40.804  44.967  11.195
42371W        W14686  21.219   8.956   2.659
42372W        W14687  33.473   7.618  12.995
42373W        W14688  19.803  27.012   3.949
42374W        W14689  39.922  17.076  13.743
42375W        W14690  30.027  12.341  14.965
42376W        W14691  43.970  29.233  12.922
42377W        W14692  33.144  33.541   2.977
42378W        W14693  12.802  13.342   1.764
42379W        W14694   9.134  37.396  14.841
42380W        W14695  29.999  38.780   2.267
42381W        W14696  32.535  27.497  11.204
42382W        W14697  26.002   3.628   1.876
42383W        W14698   0.703  42.857  11.605
42384W        W14699  33.102   2.015  13.036
42385W        W14700  26.506   9.629   0.304
42386W        W14701  27.723  23.505   1.773
42387W        W14702   3.453  27.725  11.064
42388W        W14703  39.007  20.237  12.336
42389W        W14704  24.947  33.861   3.147
42390W        W14705  21.425   2.891   0.349
42391W        W14706   1.702  23.672   4.493
42392W        W14707   8.061  28.661   1.269
42393W        W14708  12.600  11.822  10.342
42394W        W14709  13.075  16.738  11.413
42395W        W14710  22.237  21.285   3.319
42396W        W14711  30.627  25.701  14.438
42397W        W14712  38.109  40.957  11.606
42398W        W14713  44.569  24.149  14.989
42399W        W14714  42.014  24.829   0.807
42400W        W14715  30.965   6.863   2.653
42401W        W14716  43.475  44.362  10.708
42402W        W14717  38.932  41.325  10.728
42403W        W14718  15.013  24.612   2.888
42404W        W14719  21.701  42.587   0.476
42405W        W14720  41.479  20.022  11.869
42406W        W14721  34.332  41.503   3.712
42407W        W14722  14.009   5.403   0.300
42408W        W14723  39.268  24.437   4.659
42409W        W14724  30.117  11.321   1.212
42410W        W14725  35.970  42.502  12.930
42411W        W14726  29.506  36.416   0.823
42412W        W14727  28.472  24.758   3.361
42413W        W14728  26.602  24.536   3.766
42414W        W14729  29.392   7.011   9.907
42415W        W14730  42.257  18.785  11.584
42416W        W14731  13.721  30.425   0.803
42417W        W14732  20.276  23.366   0.454
42418W        W14733  39.514  32.559   4.592
42419W        W14734  18.554  36.979   2.021
42420W        W14735  18.829  32.570  10.680
42421W        W14736  17.186  31.220  10.510
42422W        W14737  35.183   2.818  11.662
42423W        W14738  15.191  29.703   1.205
42424W        W14739  23.796  10.677  13.908
42425W        W14740  31.411  27.163   3.164
42426W        W14741  40.381   9.279   1.163
42427W        W14742  26.175  38.729  12.399
42428W        W14743  15.198  19.316  14.481
42429W        W14744  30.884  22.241   4.207
42430W        W14745   8.360  34.866   2.896
42431W        W14746  28.502  14.630   3.903
42432W        W14747  37.437  15.577  12.008
42433W        W14748  39.430  18.151   4.100
42434W        W14749  21.835  39.576  11.103
42435W        W14750  29.460  11.310   1.364
42436W        W14751  15.775  23.515  14.937
42437W        W14752  12.292   1.925  10.364
42438W        W14753   8.915   9.087  13.236
42439W        W14754   1.801  41.930   1.493
42440W        W14755   3.653  15.270  10.970
42441W        W14756  33.204   3.392   0.981
42442W        W14757   0.892  35.996  14.302
42443W        W14758  29.137   3.136   3.166
42444W        W14759  37.168  25.125   1.770
42445W        W14760  27.517   6.164   0.097
42446W        W14761  29.072  25.910  11.133
42447W        W14762  25.500  40.370   3.050
42448W        W14763  24.626  21.079   3.536
42449W        W14764  11.103  32.999  10.578
42450W        W14765  38.090  32.609   2.378
42451W        W14766  26.083  38.415  11.966
42452W        W14767  38.630   0.712  12.651
42453W        W14768  35.101   4.603  13.768
42454W        W14769  36.139   9.765   3.204
42455W        W14770  30.724  32.161   4.567
42456W        W14771  42.331  25.706  11.383
42457W        W14772  39.955  26.604   4.629
42458W        W14773   4.213  42.844   1.884
42459W        W14774  16.486  41.302   0.763
42460W        W14775  22.322  11.458  13.432
42461W        W14776   9.704  43.289  12.088
42462W        W14777  27.431  41.844   3.098
42463W        W14778  15.149   5.991   1.780
42464W        W14779   8.741  14.233   2.618
42465W        W14780  41.553  21.571  11.858
42466W        W14781  11.241  21.242   2.389
42467W        W14782  29.466  21.615  14.947
42468W        W14783  36.504  40.114  12.541
42469W        W14784   5.247  30.989   0.312
42470W        W14785   4.182   8.874  10.811
42471W        W14786  29.385  40.531  11.611
42472W        W14787  33.512   8.432  12.604
42473W        W14788  13.576   7.967   2.214
42474W        W14789   7.239  44.287  11.101
42475W        W14790  42.386  35.425   1.850
42476W        W14791  38.560   5.746   0.485
42477W        W14792   1.384   9.352   0.995
42478W        W14793  17.072  17.340   3.153
42479W        W14794   1.403  30.025   2.784
42480W        W14795  34.684  38.810   3.820
42481W        W14796   8.954  44.157  11.629
42482W        W14797  41.026  23.047  14.288
42483W        W14798  32.777  27.086  14.812
42484W        W14799  21.732  44.519  12.902
42485W        W14800  31.069  19.642  10.703
42486W        W14801  39.509   9.359  12.590
42487W        W14802  24.802  22.721   3.231
42488W        W14803  43.542  10.135   3.413
42489W        W14804  11.093  14.211  14.526
42490W        W14805   2.300   2.286  12.491
42491W        W14806  29.942  17.276  10.625
42492W        W14807  44.959  10.571  10.764
42493W        W14808  41.925  35.183  11.863
42494W        W14809  16.232   7.225   0.355
42495W        W14810  23.034  29.453  12.901
42496W        W14811  44.352  19.267  14.227
42497W        W14812  31.911   2.645   3.406
42498W        W14813  12.759  16.615   3.652
42499W        W14814  12.407  16.236  13.020
42500W        W14815  31.529  42.472   1.934
42501W        W14816  17.274  21.107   0.459
42502W        W14817  32.621  42.893  13.167
42503W        W14818  30.096   8.437  11.525
42504W        W14819  36.269  25.475   3.249
42505W        W14820  38.557  43.743  14.389
42506W        W14821  30.914  10.329  13.378
42507W        W14822  30.584   4.972   1.674
42508W        W14823  41.847   2.327  13.934
42509W        W14824  28.989  31.867  14.483
42510W        W14825   4.750   6.799  13.946
42511W        W14826  15.796  12.308   0.888
42512W        W14827  23.596  40.631  12.058
42513W        W14828  28.897  14.275  13.486
42514W        W14829  23.753  10.159   1.330
42515W        W14830  16.181   8.228   4.641
42516W        W14831  36.722   9.591   4.711
42517W        W14832  41.911   8.222  10.627
42518W        W14833   6.427  44.307   3.251
42519W        W14834  37.960  16.071  12.956
42520W        W14835   8.811  29.108  13.132
42521W        W14836  24.628  33.633  10.644
42522W        W14837   4.259  16.317  11.963
42523W        W14838   5.935  29.186   2.176
42524W        W14839  38.791  24.889  11.088
42525W        W14840   2.285   0.667  10.263
42526W        W14841  40.510  12.234   4.244
42527W        W14842  14.735  18.779  12.642
42528W        W14843  20.459   0.025   0.874
42529W        W14844   8.469  13.093  11.059
42530W        W14845  11.861   7.783  13.587
42531W        W14846  22.725  38.043  14.088
42532W        W14847  29.002  17.279   2.668
42533W        W14848  26.711   7.961   4.191
42534W        W14849  16.103  44.848   1.835
42535W        W14850  16.426  37.090   0.313
42536W        W14851  18.786   5.883  13.465
42537W        W14852  11.639  17.574  12.027
42538W        W14853   4.873  35.943   3.762
42539W        W14854  36.299  34.506  12.061
42540W        W14855  26.875  16.216  11.181
42541W        W14856   9.668   3.687  10.832
42542W        W14857  38.374  43.420   1.241
42543W        W14858  37.950  23.722   1.704
42544W        W14859   7.607   4.962  13.534
42545W        W14860  36.824  34.044   0.675
42546W        W14861  42.973  43.860   4.678
42547W        W14862   4.392  44.303  10.694
42548W        W14863   4.278  15.450   3.243
42549W        W14864  28.438  30.534   3.313
42550W        W14865  14.574  17.069  11.966
42551W        W14866   9.732  11.418  11.703
42552W        W14867  37.860  43.386  11.939
42553W        W14868  17.508   3.666   0.879
42554W        W14869   9.805  42.329   3.843
42555W        W14870  20.740   8.703   5.063
42556W        W14871  17.789  34.575  11.470
42557W        W14872   7.619  14.830  10.646
42558W        W14873   6.730  30.240  10.694
42559W        W14874  26.614  14.097   2.855
42560W        W14875  40.997  28.335  13.371
42561W        W14876  16.197  41.841   2.035
42562W        W14877  24.232  17.462   1.413
42563W        W14878   1.972  26.423  10.194
42564W        W14879  14.478  38.475   2.051
42565W        W14880   9.902  37.491   0.287
42566W        W14881  21.174   0.641  14.346
42567W        W14882  42.399  36.206  11.025
42568W        W14883   2.182  41.204  14.909
42569W        W14884   0.474  29.246   3.749
42570W        W14885  13.075  39.564  11.961
42571W        W14886  37.687  25.717  12.816
42572W        W14887  19.052  26.461   0.769
42573W        W14888  29.967  34.985   3.368
42574W        W14889  26.451   3.904  12.888
42575W        W14890  15.168   6.990   4.121
42576W        W14891   7.906  37.742  12.885
42577W        W14892  14.300  18.182  14.939
42578W        W14893  33.389  34.354  10.594
42579W        W14894  39.760   1.892  13.980
42580W        W14895  39.340  19.327   0.308
42581W        W14896  28.676  31.347   4.188
42582W        W14897  35.350   6.754   0.865
42583W        W14898  24.159  29.461  14.300
42584W        W14899  40.404  13.247   2.806
42585W        W14900   3.462  34.363  11.574
42586W        W14901  36.918  35.504   4.144
42587W        W14902  10.086  31.832  13.035
42588W        W14903  17.109  15.819  12.192
42589W        W14904   1.386   7.700  12.420
42590W        W14905  10.616  35.045  11.496
42591W        W14906  38.273   2.354  14.800
42592W        W14907   4.936   9.778   2.710
42593W        W14908  25.986  24.215  14.785
42594W        W14909  37.479  21.959   3.818
42595W        W14910  27.160  37.442   2.576
42596W        W14911   1.943   7.350   2.724
42597W        W14912  29.130  29.975   1.673
42598W        W14913   7.394   0.474   1.744
42599W        W14914   5.777  16.888  14.460
42600W        W14915  17.515  11.564   4.217
42601W        W14916  44.068   0.530  14.415
42602W        W14917  43.271   3.265   0.405
42603W        W14918  37.871   6.356   3.123
42604W        W14919  27.995   4.945  14.928
42605W        W14920  31.897   5.474  12.861
42606W        W14921   3.217   4.640   0.242
42607W        W14922  44.528  44.050   2.579
42608W        W14923  37.250  37.900   4.801
42609W        W14924  26.071  32.562  13.434
42610W        W14925  37.805   2.364   4.742
42611W        W14926  31.113  19.093  11.489
42612W        W14927  37.903  22.002   4.137
42613W        W14928  18.586   1.127  13.048
42614W        W14929  32.854  16.555  11.185
42615W        W14930  43.786  12.742  12.478
42616W        W14931  20.097  16.093  11.486
42617W        W14932   0.065  41.467  12.351
42618W        W14933  14.892  41.298   4.223
42619W        W14934  32.173  23.709   0.829
42620W        W14935  35.855  35.906   0.401
42621W        W14936   7.318   6.712   2.129
42622W        W14937  36.342  29.020  13.413
42623W        W14938  17.312  23.728  14.885
42624W        W14939  31.313  39.838  14.905
42625W        W14940  19.171   6.958   0.847
42626W        W14941  28.582  29.919   1.820
42627W        W14942  37.520   7.952   0.211
42628W        W14943   2.195   1.388  14.232
42629W        W14944   1.465  27.107  11.553
42630W        W14945   8.438   6.885  13.981
42631W        W14946  35.916  20.969   3.835
42632W        W14947   8.914  12.253   4.170
42633W        W14948   4.367  33.362  11.524
42634W        W14949  32.711  30.009   3.146
42635W        W14950  10.790   4.924   4.585
42636W        W14951  18.025  34.484   0.650
42637W        W14952  31.787  34.867  11.250
42638W        W14953   3.209   9.239   4.133
42639W        W14954  35.003  14.701  11.226
42640W        W14955   9.771   3.745  11.325
42641W        W14956   4.010   8.063   1.865
42642W        W14957  37.174  21.622   1.264
42643W        W14958  23.139  14.695   1.158
42644W        W14959  12.724  23.035   3.319
42645W        W14960  30.727  25.465  11.163
42646W        W14961  25.758  37.394  13.845
42647W        W14962  19.024  20.428  14.115
42648W        W14963  42.134  37.568  13.374
42649W        W14964   9.362  12.989   2.495
42650W        W14965  42.330  16.655   1.921
42651W        W14966   5.001   3.119  10.278
42652W        W14967   2.826  31.122  14.430
42653W        W14968  30.653   4.437   3.699
42654W        W14969  29.256  29.169  14.332
42655W        W14970  15.522  37.465   0.479
42656W        W14971  26.583   9.713   3.103
42657W        W14972   7.411   9.483  13.833
42658W        W14973  13.083  31.669  12.579
42659W        W14974  41.583  21.991  12.799
42660W        W14975  14.589  21.177   4.501
42661W        W14976  37.471  27.153   2.341
42662W        W14977  44.976   9.865   0.068
42663W        W14978  25.483  26.219   0.344
42664W        W14979  39.999  40.964   1.864
42665W        W14980  29.617  42.074   0.294
42666W        W14981  31.205  44.308  11.444
42667W        W14982  15.078  19.587   3.271
42668W        W14983  43.222  38.936   3.159
42669W        W14984   7.267  40.611  12.432
42670W        W14985  40.339   8.715   2.613
42671W        W14986  41.423  19.766   2.747
42672W        W14987  34.286  24.457   4.162
42673W        W14988  21.896   7.342  14.918
42674W        W14989   9.714  23.487   3.828
42675W        W14990  13.405  24.403   0.379
42676W        W14991   9.622  30.948  10.403
42677W        W14992  20.515  41.722   3.382
42678W        W14993  23.404  41.281   1.429
42679W        W14994  34.537   8.882  11.407
42680W        W14995  26.108  31.385  11.373
42681W        W14996  36.952   3.795  14.820
42682W        W14997  36.602  20.726   0.751
42683W        W14998   3.650  25.654  12.355
42684W        W14999  12.006  40.667  13.920
42685W        W15000  20.574  38.914   4.781
42686W        W15001   1.045  37.943   4.666
42687W        W15002  21.118  29.659   2.891
42688W        W15003  39.276  35.255  13.448
42689W        W15004   9.644  44.414  13.008
42690W        W15005  23.651  16.360  12.993
42691W        W15006  23.200  27.465   2.180
42692W        W15007  31.044   3.986   0.738
42693W        W15008  24.434  20.663   3.232
42694W        W15009  36.648  42.735   2.381
42695W        W15010   0.377   0.952   1.325
42696W        W15011   5.035   4.745  11.124
42697W        W15012  21.181  30.569  14.551
42698W        W15013   9.706  22.642  14.186
42699W        W15014  28.601  24.149   2.680
42700W        W15015  27.537  42.555  13.392
42701W        W15016  28.006  19.574  14.846
42702W        W15017  12.563  22.123  12.469
42703W        W15018  28.236  17.205   1.410
42704W        W15019  13.816  40.139  12.791
42705W        W15020  24.961  30.060  11.526
42706W        W15021   7.651  26.806   2.730
42707W        W15022  37.580  24.985  12.425
42708W        W15023   7.593  22.581   4.872
42709W        W15024  33.246  15.195  12.900
42710W        W15025  16.391  21.744   1.796
42711W        W15026   2.440   0.373  12.090
42712W        W15027  37.830  25.461   4.698
42713W        W15028  29.887  33.916  14.803
42714W        W15029  18.921   4.368   0.820
42715W        W15030  10.302   6.112   1.322
42716W        W15031  30.134  22.289  11.992
42717W        W15032  37.633   0.299  14.969
42718W        W15033  11.166  35.630   0.774
42719W        W15034  28.463  31.548   2.342
42720W        W15035  15.689  22.146  12.339
42721W        W15036   7.347  20.762   2.554
42722W        W15037  25.951  36.529   3.405
42723W        W15038  19.921  38.448  12.407
42724W        W15039   7.845  15.314  11.883
42725W        W15040  10.660  23.322   0.833
42726W        W15041  35.855  30.135  14.250
42727W        W15042  31.808  43.405  14.020
42728W        W15043  15.035  34.031   1.356
42729W        W15044  44.825  11.463  13.345
42730W        W15045  18.286  29.451  12.062
42731W        W15046   7.020  14.249   2.858
42732W        W15047  30.900  29.268  13.542
42733W        W15048  25.614  34.891   0.829
42734W        W15049  29.531  39.688  14.463
42735W        W15050  16.641   8.912   1.476
42736W        W15051  29.661  36.953  10.563
42737W        W15052  44.361   4.003   0.817
42738W        W15053   9.669   1.186  11.435
42739W        W15054  10.337  12.642  10.716
42740W        W15055  36.381  23.896  11.553
42741W        W15056  13.813   9.001   3.737
42742W        W15057  29.361  15.659  10.669
42743W        W15058  44.904  26.943  12.348
42744W        W15059  23.593  39.604  11.992
42745W        W15060  36.193  36.101   3.390
42746W        W15061  22.799   9.698   2.297
42747W        W15062   9.658  28.127  11.430
42748W        W15063   4.273  28.557   2.222
42749W        W15064  14.805  41.831   4.151
42750W        W15065  31.517  40.656   1.622
42751W        W15066  14.684  36.168   0.284
42752W        W15067  19.960  18.599   4.105
42753W        W15068  10.862  13.845  12.977
42754W        W15069  26.360  29.490  14.974
42755W        W15070   6.275  36.476   4.120
42756W        W15071  12.343   4.721   1.005
42757W        W15072  20.378  28.738  14.024
42758W        W15073  11.317  20.769   0.402
42759W        W15074  40.150  44.286   4.792
42760W        W15075  31.368  25.153   0.386
42761W        W15076  36.545  11.247   0.061
42762W        W15077  26.664  16.397  10.758
42763W        W15078  33.428  44.001   2.892
42764W        W15079  18.494  42.554   3.701
42765W        W15080  15.723  17.028   2.686
42766W        W15081  37.125   6.237   2.364
42767W        W15082  40.394  10.606   4.481
42768W        W15083   5.667   2.349  13.494
42769W        W15084   0.840  11.104   3.238
42770W        W15085  16.142  11.803   0.798
42771W        W15086  19.266  29.739   1.807
42772W        W15087  36.860  18.226   1.945
42773W        W15088  23.587  35.507  14.282
42774W        W15089  39.920  29.642  11.191
42775W        W15090  17.639   2.205   0.829
42776W        W15091   3.239   8.304   1.422
42777W        W15092  12.890  26.506   0.917
42778W        W15093  30.038  35.017  13.889
42779W        W15094  29.100  19.684  12.154
42780W        W15095  35.074  14.189  11.991
42781W        W15096  17.133  14.283  14.918
42782W        W15097  14.403  11.350  12.044
42783W        W15098  28.951  37.532   2.854
42784W        W15099  34.590  25.744  12.223
42785W        W15100  39.260   7.191  13.448
42786W        W15101   3.986   1.797   1.365
42787W        W15102  33.303  24.809   2.864
42788W        W15103  34.438  18.518  14.866
42789W        W15104  40.445  31.777   0.378
42790W        W15105   1.767  28.968  10.771
42791W        W15106   0.274  36.529   2.874
42792W        W15107  35.078   3.492   1.010
42793W        W15108  21.925  17.161  12.435
42794W        W15109   8.139  39.111  12.045
42795W        W15110  38.593   4.939  13.481
42796W        W15111   0.833   5.067  10.598
42797W        W15112   7.713  31.999  13.837
42798W        W15113  18.781  31.504   2.613
42799W        W15114  34.842  36.090  10.647
42800W        W15115  27.838  14.872  12.890
42801W        W15116   3.740   6.295   3.570
42802W        W15117  37.807  35.907   1.366
42803W        W15118  36.093  32.544   3.733
42804W        W15119   4.289   7.340   0.912
42805W        W15120   6.273  39.792  10.718
42806W        W15121  42.942   1.980  11.502
42807W        W15122   1.509   5.784   0.172
42808W        W15123  41.059  16.744   2.331
42809W        W15124  18.774  24.735   5.016
42810W        W15125  13.816  27.489   3.345
42811W        W15126  37.060  12.095  10.699
42812W        W15127   3.399  27.536   0.106
42813W        W15128  28.800   1.963  14.529
42814W        W15129  30.044  17.587  13.449
42815W        W15130  31.372  37.175   0.788
42816W        W15131  37.813  41.578  13.036
42817W        W15132  37.021  18.686  13.732
42818W        W15133  13.214   8.723   1.487
42819W        W15134  12.721   4.350   3.690
42820W        W15135   4.761   9.291   2.661
42821W        W15136  39.423  14.644  14.926
42822W        W15137  12.591  15.597   2.307
42823W        W15138  28.209  30.079  11.613
42824W        W15139  15.047  17.531   1.371
42825W        W15140  28.861  38.441  11.586
42826W        W15141  12.627  27.503  14.943
42827W        W15142  36.517  37.075   5.014
42828W        W15143  22.049  28.128  14.072
42829W        W15144  41.440  32.970  12.834
42830W        W15145   3.002  29.933   3.215
42831W        W15146  35.755  34.891   4.245
42832W        W15147   9.325   8.386  11.135
42833W        W15148  15.378  12.723   0.170
42834W        W15149  10.224  14.714   2.156
42835W        W15150  38.423  29.424  13.253
42836W        W15151  35.136  35.294   1.789
42837W        W15152  33.429  29.991  13.000
42838W        W15153  35.539  22.297  12.905
42839W        W15154  38.479  12.278   4.297
42840W        W15155  11.086   1.688   0.314
42841W        W15156  40.807  13.229   3.144
42842W        W15157  36.915  10.180  14.127
42843W        W15158  25.474  20.609   3.593
42844W        W15159  37.642  18.660  10.957
42845W        W15160  10.690  25.178   2.136
42846W        W15161   1.230  43.002  10.703
42847W        W15162  15.575  41.905  13.868
42848W        W15163  29.231  21.816  12.479
42849W        W15164  35.843  17.927  14.794
42850W        W15165   5.430  35.201   0.312
42851W        W15166  16.073  43.012   5.031
42852W        W15167  44.360  34.183  12.864
42853W        W15168  21.370  28.414   0.966
42854W        W15169   4.869  15.109  14.945
42855W        W15170  27.692  35.900  14.305
42856W        W15171  25.420  16.228  13.984
42857W        W15172  12.619  44.451  13.095
42858W        W15173   0.836  31.023  11.166
42859W        W15174  36.864   6.330   0.529
42860W        W15175  18.555  28.634  10.326
42861W        W15176  39.287  19.453   4.526
42862W        W15177  10.626  25.039  12.594
42863W        W15178   5.170  12.243  14.069
42864W        W15179  38.498  11.295   2.800
42865W        W15180  26.152  35.462   1.518
42866W        W15181  13.878  18.511  11.579
42867W        W15182  43.779   9.711   0.500
42868W        W15183  29.219   0.241  11.543
42869W        W15184  22.681  14.851   1.746
42870W        W15185  17.407  24.684   2.464
42871W        W15186  25.465   4.860   0.056
42872W        W15187   8.330  37.891  12.161
42873W        W15188  31.581  22.526  14.359
42874W        W15189  27.052  44.489  14.372
42875W        W15190  21.227  35.042  14.796
42876W        W15191  33.521   3.723  13.245
42877W        W15192   1.155  19.639  10.783
42878W        W15193  39.448  38.553   1.415
42879W        W15194  34.828  44.659   1.199
42880W        W15195  38.805   0.905   2.606
42881W        W15196  13.458  10.623   1.678
42882W        W15197  20.670  40.521  10.465
42883W        W15198  36.850  14.336   1.180
42884W        W15199  21.199  23.008  12.016
42885W        W15200  22.760  19.066  11.601
42886W        W15201  32.067  19.224  11.148
42887W        W15202  37.519  19.788   2.871
42888W        W15203  33.562  15.567   3.710
42889W        W15204  28.757  36.994   2.242
42890W        W15205  15.079  20.834   0.647
42891W        W15206   7.184  25.275  12.954
42892W        W15207  42.484   5.727  12.382
42893W        W15208   0.313  38.289   4.552
42894W        W15209  44.794   7.841   3.630
42895W        W15210  29.433   2.210  12.971
42896W        W15211   9.445  11.277   4.260
42897W        W15212  21.790  18.635   2.347
42898W        W15213   4.814  37.707  11.528
42899W        W15214  40.722  43.728  13.917
42900W        W15215  28.584  19.046   0.242
42901W        W15216  14.040   4.731   3.817
42902W        W15217  30.493   2.133  14.134
42903W        W15218  26.267  43.594   3.186
42904W        W15219  25.668  14.205   3.203
42905W        W15220  36.074  14.029  11.864
42906W        W15221  16.070  21.476  10.789
42907W        W15222  34.048  44.771   1.892
42908W        W15223  18.038  41.518  14.296
42909W        W15224   4.291  26.940  14.399
42910W        W15225   2.166  16.673   1.711
42911W        W15226  27.917  15.162  13.924
42912W        W15227  25.730  19.088   4.609
42913W        W15228  29.877  20.092  10.950
42914W        W15229  37.861  18.209  14.759
42915W        W15230  41.496   5.176   1.852
42916W        W15231  15.848   3.420  13.946
42917W        W15232  35.166  32.191   1.325
42918W        W15233  20.620  15.831   0.965
42919W        W15234  37.167  44.193  11.308
42920W        W15235  13.070   0.794   2.040
42921W        W15236  31.495  15.783  14.510
42922W        W15237  26.655  25.724  13.826
42923W        W15238  15.759  16.720   2.200
42924W        W15239  18.711  22.548  12.515
42925W        W15240   2.933  37.042   1.947
42926W        W15241   5.170  11.786  11.480
42927W        W15242  18.719   8.352   3.310
42928W        W15243  32.457  22.296  12.573
42929W        W15244  34.344   7.335  14.782
42930W        W15245  30.003  16.048  12.106
42931W        W15246  11.818   9.439  11.119
42932W        W15247  30.210  12.871   2.974
42933W        W15248  22.030  21.457   3.759
42934W        W15249  12.682   4.843   2.864
42935W        W15250   8.773  32.338  12.533
42936W        W15251  10.599  32.904  11.557
42937W        W15252  31.641   4.669   4.114
42938W        W15253  36.824   6.424   1.524
42939W        W15254   4.513  22.568   3.140
42940W        W15255  21.254  31.117  10.696
42941W        W15256  36.110   2.510   1.319
42942W        W15257  15.969  42.427   3.762
42943W        W15258  15.569  37.846   1.384
42944W        W15259   6.397  26.685   1.408
42945W        W15260  40.661   0.272  12.816
42946W        W15261   3.674  18.119  10.757
42947W        W15262  37.612   8.658   1.431
42948W        W15263  31.123  44.774   1.478
42949W        W15264  44.469  36.537   0.942
42950W        W15265  16.010   4.279   0.270
42951W        W15266   1.311   3.642   3.500
42952W        W15267  10.729   8.810  14.793
42953W        W15268  12.709  33.317   0.291
42954W        W15269   7.796  42.059  10.756
42955W        W15270  42.842  30.489   0.378
42956W        W15271  34.671  24.542   3.683
42957W        W15272  42.368  44.549  13.421
42958W        W15273   3.327   2.701   2.174
42959W        W15274  27.463  23.038   2.723
42960W        W15275  40.271  43.978  13.897
42961W        W15276  34.715   0.827   3.098
42962W        W15277  20.152  24.258  10.521
42963W        W15278  18.679  13.070  12.586
42964W        W15279   3.350  26.919  12.534
42965W        W15280  19.246   9.908   3.713
42966W        W15281  13.862  31.937   1.875
42967W        W15282  42.190  23.059   0.454
42968W        W15283  25.684   3.858  11.520
42969W        W15284  34.291  11.705  13.422
42970W        W15285  38.048  30.423   3.210
42971W        W15286  26.664  33.583  10.171
42972W        W15287  44.802   2.689   1.509
42973W        W15288  26.964  30.828  13.015
42974W        W15289  18.072  33.198   4.190
42975W        W15290  26.997  29.652   3.075
42976W        W15291   1.643  38.851   2.915
42977W        W15292   2.519  34.536   3.060
42978W        W15293  10.494  14.352   5.008
42979W        W15294   9.696  19.786   4.258
42980W        W15295  35.661  25.958  14.792
42981W        W15296  16.211   5.703   0.375
42982W        W15297   2.207  31.768   1.409
42983W        W15298  38.589  37.819  12.371
42984W        W15299  31.859  30.863   0.765
42985W        W15300  32.651   6.866  10.615
42986W        W15301  28.442  32.192  10.660
42987W        W15302  21.047  22.902  11.500
42988W        W15303  36.400   7.387   3.272
42989W        W15304  25.729  17.639  14.748
42990W        W15305   6.876  10.216   3.753
42991W        W15306  13.245  43.226   1.243
42992W        W15307  33.468  40.998   3.336
42993W        W15308  24.270  12.744   1.423
42994W        W15309  13.850  21.787  14.278
42995W        W15310  21.159  11.051   9.960
42996W        W15311   1.999  28.648   4.074
42997W        W15312   3.904  11.427   0.448
42998W        W15313   2.378  24.590   2.424
42999W        W15314  40.392  24.896  10.664
43000W        W15315  18.693  35.544  13.143
43001W        W15316   7.399  42.525  12.969
43002W        W15317  18.119   4.324   2.125
43003W        W15318  37.588  38.492   1.819
43004W        W15319  34.834  22.574   3.259
43005W        W15320  35.724  41.486  11.628
43006W        W15321  20.539  18.111   1.980
43007W        W15322  31.502  37.441  13.466
43008W        W15323  38.936   4.925   0.011
43009W        W15324  27.515  42.617   1.742
43010W        W15325  42.756  36.115   2.588
43011W        W15326  13.702  31.253  12.781
43012W        W15327   9.199  17.780   3.862
43013W        W15328  38.681  35.558  12.858
43014W        W15329  23.538   7.155   2.716
43015W        W15330  16.564  11.037  12.502
43016W        W15331   9.662  14.104  13.455
43017W        W15332  44.689   9.229   1.532
43018W        W15333  12.388  25.800   0.726
43019W        W15334   5.986  42.760  13.908
43020W        W15335  39.523  32.458  12.992
43021W        W15336  44.895  39.061   4.664
43022W        W15337  13.022   9.889   1.461
43023W        W15338  31.361   4.805   0.998
43024W        W15339  32.830   5.461   0.843
43025W        W15340  35.753  35.432  13.529
43026W        W15341  25.696  22.225   0.906
43027W        W15342  14.633  19.868  14.392
43028W        W15343  39.483  34.450  14.596
43029W        W15344  43.359  26.485  13.897
43030W        W15345  17.130   1.766   2.324
43031W        W15346  14.727  32.941  13.905
43032W        W15347  11.311  16.593  14.875
43033W        W15348  18.082  43.792   1.012
43034W        W15349  17.607   1.224  12.010
43035W        W15350   6.501  27.526   1.764
43036W        W15351  38.793  27.439  11.467
43037W        W15352  30.402  16.508  13.435
43038W        W15353   4.828  40.272   2.602
43039W        W15354  31.626  35.047  14.371
43040W        W15355  33.777  43.625  12.553
43041W        W15356  44.484  17.353  10.569
43042W        W15357  38.304  37.351   0.089
43043W        W15358  44.343   7.362   3.701
43044W        W15359  17.328  33.356   4.653
43045W        W15360  30.402  35.374   2.243
43046W        W15361  39.124  39.508  13.840
43047W        W15362  23.488  10.301  10.549
43048W        W15363   8.226  12.804   2.410
43049W        W15364   5.283   4.818   1.362
43050W        W15365  19.975  41.269   4.161
43051W        W15366  19.631  41.401  11.435
43052W        W15367  19.794  21.709  11.227
43053W        W15368  28.551  16.533   3.703
43054W        W15369  18.529  43.438  12.026
43055W        W15370  25.875  27.253  13.932
43056W        W15371  42.151  30.428   3.704
43057W        W15372  42.330  20.229   3.101
43058W        W15373  33.626  30.773  13.493
43059W        W15374  39.451  23.071  13.669
43060W        W15375  44.386  22.292   1.782
43061W        W15376   5.648   5.419   1.807
43062W        W15377  34.897  25.671   1.412
43063W        W15378  39.472  15.406   3.948
43064W        W15379  11.350  31.105  13.787
43065W        W15380  34.690   4.186   4.687
43066W        W15381   9.971  29.704  13.900
43067W        W15382  22.263   0.479   2.687
43068W        W15383  28.114  34.404  10.501
43069W        W15384  41.106   9.172  14.803
43070W        W15385  35.390  16.720  12.969
43071W        W15386   3.070  11.365  12.100
43072W        W15387   1.263  34.039   0.481
43073W        W15388  21.685  26.772  14.095
43074W        W15389  43.362  26.448  12.851
43075W        W15390  12.747   2.867  12.551
43076W        W15391  22.276  44.304   1.661
43077W        W15392  33.418  38.391   4.751
43078W        W15393  44.282   2.744  14.993
43079W        W15394  15.943  23.797   4.258
43080W        W15395  16.826  17.524   1.864
43081W        W15396  18.236  10.427  13.991
43082W        W15397  42.581  23.412   4.108
43083W        W15398   3.684  26.185   1.259
43084W        W15399  20.212  26.878   3.215
43085W        W15400  30.737   7.819  14.986
43086W        W15401  40.492  40.399   0.338
43087W        W15402  44.910   2.047   1.957
43088W        W15403  28.700  13.390  11.952
43089W        W15404   9.902  16.221  11.107
43090W        W15405   8.421  32.369  11.084
43091W        W15406  38.658  12.808   2.170
43092W        W15407   1.344  41.478  14.748
43093W        W15408  30.049  40.087   2.824
43094W        W15409  35.589  35.080   4.734
43095W        W15410  30.170   4.198  12.897
43096W        W15411  23.913  36.428  14.783
43097W        W15412  41.451  19.605   3.616
43098W        W15413  11.330   6.793   0.786
43099W        W15414  22.108  19.389   4.542
43100W        W15415  40.472   9.906   0.158
43101W        W15416  38.906  18.025   3.896
43102W        W15417  41.343  16.050  12.073
43103W        W15418  15.267  10.333  14.430
43104W        W15419  19.188  19.855   2.703
43105W        W15420   6.624  43.922  11.341
43106W        W15421  11.566  30.576   0.266
43107W        W15422  21.005  31.405  14.330
43108W        W15423  43.737   9.192  11.925
43109W        W15424  40.275   8.261  13.956
43110W        W15425  39.367  12.771   1.505
43111W        W15426   4.978  27.375   4.566
43112W        W15427   9.878   3.247   1.678
43113W        W15428  32.538  30.206   3.598
43114W        W15429  19.115  27.848  14.839
43115W        W15430   5.234  11.044   3.164
43116W        W15431   4.414  36.581   4.247
43117W        W15432  33.714  12.509   0.830
43118W        W15433  33.979  41.250  13.060
43119W        W15434  42.216  39.398  13.269
43120W        W15435  39.336  36.091   2.970
43121W        W15436  17.212  12.664  11.580
43122W        W15437  20.155  12.779   2.128
43123W        W15438   0.385   5.041  10.863
43124W        W15439  42.047  43.941  10.433
43125W        W15440  21.979  26.223  14.786
43126W        W15441   0.246  41.535   0.904
43127W        W15442  41.804  21.069   4.938
43128W        W15443  13.146  23.179   4.025
43129W        W15444  23.183  39.924   4.545
43130W        W15445  32.476  42.124   2.795
43131W        W15446  19.732   5.153   3.808
43132W        W15447  43.538  12.171   2.862
43133W        W15448   4.749  35.764  12.147
43134W        W15449  13.843  29.085   1.740
43135W        W15450  29.814   9.972   1.295
43136W        W15451  11.147  29.562   1.562
43137W        W15452  33.237   7.631  11.093
43138W        W15453  40.509  19.734   0.532
43139W        W15454   4.664  26.050   0.379
43140W        W15455  29.024   8.727   1.243
43141W        W15456  40.168  31.068  13.898
43142W        W15457  27.059   5.743   9.754
43143W        W15458  39.974  43.335   3.192
43144W        W15459  23.149  31.797   3.186
43145W        W15460   7.031   2.383  11.240
43146W        W15461  33.101  18.310   4.620
43147W        W15462  10.133  19.123  10.243
43148W        W15463  30.586  18.157   1.429
43149W        W15464  27.999  40.813  11.539
43150W        W15465  29.252  26.215   3.098
43151W        W15466  10.698  33.209  13.404
43152W        W15467  10.235  39.890  10.025
43153W        W15468  39.329  21.028   1.784
43154W        W15469  12.905  16.997  14.218
43155W        W15470  30.583  37.527   2.389
43156W        W15471  10.320  17.194  14.122
43157W        W15472  41.640  22.309  11.600
43158W        W15473  24.577  16.022  11.641
43159W        W15474  15.734   5.792  14.452
43160W        W15475  28.225  23.028  14.171
43161W        W15476   2.543  11.723   2.251
43162W        W15477   9.220  41.367  11.114
43163W        W15478  37.111   2.273  14.339
43164W        W15479  44.579   4.952   4.619
43165W        W15480  38.377  33.059   1.242
43166W        W15481  32.175  28.147  12.579
43167W        W15482  35.114  14.799  14.312
43168W        W15483  38.799  14.822  14.417
43169W        W15484   5.998  43.569   0.201
43170W        W15485  33.694   1.790   2.848
43171W        W15486  44.717  27.725  13.053
43172W        W15487  33.326  36.874  12.377
43173W        W15488  21.610   4.197  11.469
43174W        W15489   2.719  23.164   1.317
43175W        W15490   0.670  27.993   4.156
43176W        W15491   3.732  23.622   1.734
43177W        W15492   0.509   1.807  14.302
43178W        W15493  21.642   2.000   4.626
43179W        W15494  41.334   6.793   1.252
43180W        W15495  15.527  21.244  12.893
43181W        W15496  23.732  44.564   2.749
43182W        W15497  10.432   0.844   1.864
43183W        W15498  31.604  40.980   4.681
43184W        W15499  24.200  30.319  14.848
43185W        W15500  44.168  23.436  14.426
43186W        W15501  15.649  25.227   3.473
43187W        W15502  36.287  11.824  11.598
43188W        W15503  14.299  25.579  13.440
43189W        W15504   4.154  18.799  13.016
43190W        W15505  35.878  39.732  14.819
43191W        W15506  21.877  14.622   3.390
43192W        W15507  29.739   2.496  12.023
43193W        W15508  33.447  28.894   2.357
43194W        W15509  38.710   3.705   1.957
43195W        W15510  43.975   0.416  14.944
43196W        W15511   3.956  14.190   3.944
43197W        W15512  20.618  24.550   1.930
43198W        W15513  27.240  19.680  13.366
43199W        W15514  24.632  37.583  11.507
43200W        W15515  26.125  29.471  12.607
43201W        W15516  26.914   8.940  13.601
43202W        W15517  19.834   4.166   3.612
43203W        W15518  22.575  19.637  10.479
43204W        W15519   7.892  33.616  12.823
43205W        W15520  18.151   7.997  12.402
43206W        W15521  23.226  34.049   2.647
43207W        W15522   8.623  30.927  14.351
43208W        W15523  28.524  34.332  13.979
43209W        W15524  37.752   1.321  11.450
43210W        W15525  36.519  43.963  14.272
43211W        W15526  36.153  44.722  12.050
43212W        W15527   8.915  13.284  12.979
43213W        W15528  23.404  11.915   0.856
43214W        W15529  16.205  39.679   4.018
43215W        W15530  29.697  20.942   3.768
43216W        W15531  30.176  40.151  12.918
43217W        W15532  38.903  26.852   9.806
43218W        W15533  20.206  24.253   2.666
43219W        W15534  33.967  41.326   0.321
43220W        W15535  39.207  31.169   2.758
43221W        W15536  42.740  30.518   1.785
43222W        W15537  27.131   9.935  10.856
43223W        W15538  20.595   8.647  11.091
43224W        W15539  38.565   3.180  12.977
43225W        W15540  38.965  14.387  10.748
43226W        W15541  27.608   2.969   4.839
43227W        W15542  26.195   1.792  13.048
43228W        W15543  39.528  37.547   4.018
43229W        W15544  20.797  21.815  10.926
43230W        W15545  17.027  20.966  12.085
43231W        W15546   9.276  16.116  10.948
43232W        W15547  38.310  40.432   2.330
43233W        W15548  16.175  30.369   3.220
43234W        W15549  11.757  38.926   1.943
43235W        W15550  25.019  18.858  11.581
43236W        W15551  34.451  36.223  14.808
43237W        W15552  14.756  19.989  13.376
43238W        W15553  21.662  23.306   3.718
43239W        W15554  19.082  42.032  14.432
43240W        W15555  19.538   1.431   2.865
43241W        W15556  21.660   0.868  13.138
43242W        W15557  10.730  20.432   0.542
43243W        W15558   0.523   6.948  11.556
43244W        W15559  40.539   9.773   1.182
43245W        W15560  23.160  24.426  14.302
43246W        W15561  41.748  19.960   1.338
43247W        W15562  38.617  25.580   0.400
43248W        W15563  37.471   9.371  12.589
43249W        W15564  42.954  10.968  10.021
43250W        W15565  29.727  23.721   4.493
43251W        W15566  35.701   1.412   3.743
43252W        W15567  31.864  39.873  12.638
43253W        W15568   9.445  28.564  11.649
43254W        W15569  33.072  12.634  14.810
43255W        W15570   6.297  33.991   4.160
43256W        W15571  18.124  26.157   3.709
43257W        W15572  38.361  35.993   4.755
43258W        W15573  24.860  17.898   2.859
43259W        W15574  36.544  15.695   3.213
43260W        W15575  15.028  31.204   4.181
43261W        W15576  29.008   2.233   3.194
43262W        W15577  30.436  25.175   1.859
43263W        W15578  16.507  17.736   4.462
43264W        W15579  10.976  21.337   3.670
43265W        W15580  10.230   4.913   4.258
43266W        W15581   0.857  27.562  10.935
43267W        W15582   3.148  38.588  12.834
43268W        W15583   2.872  38.497  11.390
43269W        W15584  14.120   3.461   2.640
43270W        W15585  15.592  32.323  14.886
43271W        W15586  37.919  12.801   4.786
43272W        W15587   5.935   9.831  11.619
43273W        W15588  37.454  24.747  10.413
43274W        W15589   7.347  44.710  11.908
43275W        W15590  14.896  19.139  12.961
43276W        W15591  23.297  25.286  13.876
43277W        W15592   2.499   7.739   0.817
43278W        W15593  21.176  10.881  14.936
43279W        W15594  24.100   4.701  14.039
43280W        W15595  37.939   4.273   2.254
43281W        W15596  41.589  10.211   3.330
43282W        W15597  42.333  14.097   1.298
43283W        W15598   8.750   8.613   0.846
43284W        W15599  22.207  25.787  12.420
43285W        W15600  25.677  11.335  12.063
43286W        W15601  38.005  21.130   0.476
43287W        W15602   6.492  18.111   0.283
43288W        W15603   1.870  21.586  12.052
43289W        W15604  28.644  37.845  12.124
43290W        W15605  32.642   7.271   4.150
43291W        W15606  33.020  28.729   3.641
43292W        W15607  41.066  15.654   2.321
43293W        W15608  13.215  21.602   2.320
43294W        W15609  35.928  28.488   4.110
43295W        W15610  40.483  42.318  11.493
43296W        W15611  13.001  27.440   4.694
43297W        W15612  30.049  12.350  10.598
43298W        W15613   7.646  15.834   0.806
43299W        W15614  25.315  16.807  11.158
43300W        W15615  40.396  31.112  12.520
43301W        W15616  22.142  20.582   2.625
43302W        W15617  34.897  19.982  11.506
43303W        W15618  27.742   1.632   1.781
43304W        W15619   1.257  42.272   4.261
43305W        W15620  12.747  13.074   3.309
43306W        W15621  21.605  15.849   5.076
43307W        W15622  14.059  23.087   4.029
43308W        W15623   9.752   4.217   1.249
43309W        W15624  44.388  30.151  10.746
43310W        W15625  43.370   4.467  13.435
43311W        W15626  14.855  18.260   4.646
43312W        W15627  29.644   1.213   2.264
43313W        W15628   1.708  39.435  13.149
43314W        W15629  20.998  12.588  11.569
43315W        W15630   6.685  14.210   0.274
43316W        W15631  26.670  29.053   3.328
43317W        W15632  16.124  41.027  12.510
43318W        W15633  38.545  10.512   0.790
43319W        W15634  13.238  43.451   0.783
43320W        W15635   6.668  12.557   0.747
43321W        W15636  26.995  41.564   3.463
43322W        W15637  36.851  33.060   1.187
43323W        W15638  38.321  15.454  11.599
43324W        W15639  19.171   0.279  13.017
43325W        W15640  33.137  27.851  10.479
43326W        W15641  35.643  23.988  13.703
43327W        W15642   4.795  16.633  10.648
43328W        W15643  22.994   4.838  10.485
43329W        W15644  24.077   8.989  11.199
43330W        W15645  22.711  44.195  12.942
43331W        W15646  28.506  14.710   3.359
43332W        W15647  28.230   9.124   0.978
43333W        W15648   3.762   6.204  14.878
43334W        W15649  33.197  44.564  13.383
43335W        W15650  13.893  30.657   2.237
43336W        W15651  42.497  37.131   4.902
43337W        W15652  32.801   4.966  12.881
43338W        W15653  35.057  30.546  10.096
43339W        W15654  13.435  16.248  13.044
43340W        W15655   0.444  42.112   2.320
43341W        W15656  20.593  28.516  13.157
43342W        W15657  15.036  16.112  14.349
43343W        W15658   1.269   9.323   0.022
43344W        W15659  41.771  44.944  14.541
43345W        W15660  10.225  37.099   3.211
43346W        W15661  33.377  21.733   0.364
43347W        W15662   7.863   4.892  14.955
43348W        W15663  30.080  42.269  10.914
43349W        W15664  11.609  16.638   5.142
43350W        W15665  13.577  33.076   0.381
43351W        W15666  33.586   7.353  14.371
43352W        W15667   7.625  41.728   4.991
43353W        W15668   9.689  35.127  13.715
43354W        W15669   4.170  37.767   4.836
43355W        W15670  17.063   0.737   4.465
43356W        W15671  40.411  32.825   3.220
43357W        W15672  13.813  42.953  14.243
43358W        W15673  23.047  31.274  11.999
43359W        W15674  32.926   0.784  10.840
43360W        W15675  42.389  14.072  13.363
43361W        W15676  24.591  43.037  14.738
43362W        W15677   1.681  41.397  12.843
43363W        W15678  43.623  21.731  10.466
43364W        W15679  44.661   8.856   0.977
43365W        W15680  27.195  25.304  11.535
43366W        W15681  39.467  36.048  14.025
43367W        W15682   5.089  35.995  11.236
43368W        W15683   6.563   2.855   4.312
43369W        W15684  19.484  41.357  13.420
43370W        W15685  16.867   3.380   2.698
43371W        W15686  20.553  12.492   3.296
43372W        W15687  44.884   7.867   1.737
43373W        W15688  43.105  37.495  11.060
43374W        W15689  39.007  19.296   0.904
43375W        W15690  29.844  34.545  11.227
43376W        W15691  31.215   3.004   5.068
43377W        W15692  35.609   2.796  10.698
43378W        W15693  28.079   7.973   2.289
43379W        W15694  44.855   9.137   4.144
43380W        W15695  27.215  33.941   9.789
43381W        W15696  39.527  25.160  10.208
43382W        W15697  28.990  29.805   3.551
43383W        W15698  15.639  43.798  12.422
43384W        W15699   3.425  25.719   0.309
43385W        W15700  21.328   9.866  13.239
43386W        W15701  17.773  20.137  11.722
43387W        W15702  29.373  34.058   4.583
43388W        W15703  40.842  14.068   2.674
43389W        W15704   3.528  36.479   4.007
43390W        W15705  39.496  21.512   3.809
43391W        W15706  24.451   0.344  12.782
43392W        W15707   5.357   0.900  14.862
43393W        W15708  44.268  29.730  12.486
43394W        W15709  34.624  23.554   4.053
43395W        W15710  31.191   8.301   3.615
43396W        W15711  19.983  12.834  11.536
43397W        W15712  19.010  32.375  14.730
43398W        W15713   9.512   9.239   1.263
43399W        W15714  23.544  42.002  11.548
43400W        W15715   3.876  38.846  13.550
43401W        W15716  21.489  16.144   1.419
43402W        W15717   4.632  35.633  11.418
43403W        W15718  32.625   6.795   3.649
43404W        W15719   0.130  15.248   0.770
43405W        W15720   2.123   4.891   3.144
43406W        W15721  30.531  40.526  12.418
43407W        W15722  24.044  41.885   3.715
43408W        W15723   3.953  39.225  10.382
43409W        W15724  39.849  44.825  13.471
43410W        W15725  33.550   3.532  14.781
43411W        W15726  31.405  30.422   3.218
43412W        W15727  29.913  25.490   4.077
43413W        W15728  38.079   5.755   0.262
43414W        W15729  29.679   1.408  13.280
43415W        W15730  26.606  20.347  11.582
43416W        W15731  24.658  26.136  13.809
43417W        W15732   9.280  27.186   4.658
43418W        W15733  42.462  33.118  12.556
43419W        W15734  36.611  38.162   3.485
43420W        W15735  22.681  24.588  14.104
43421W        W15736   2.432  33.424  11.865
43422W        W15737  33.166  38.610  12.474
43423W        W15738   2.003  34.627   3.095
43424W        W15739  26.801  13.205  14.516
43425W        W15740   5.796  20.954  11.305
43426W        W15741  41.005  40.372   1.394
43427W        W15742  30.459  40.055   3.783
43428W        W15743  42.086  17.086   0.816
43429W        W15744   8.849  31.951  13.511
43430W        W15745  20.150   8.399   0.474
43431W        W15746  23.976  24.764   1.347
43432W        W15747  41.203  30.442  10.812
43433W        W15748  38.442   2.933  14.393
43434W        W15749   5.657  22.386  14.868
43435W        W15750  12.259  26.084   0.095
43436W        W15751  11.068  17.795  14.236
43437W        W15752  14.246  32.927  14.246
43438W        W15753  29.620  12.172   0.882
43439W        W15754  43.176  36.511   1.318
43440W        W15755  35.395  26.404   2.243
43441W        W15756  27.475  14.374  11.948
43442W        W15757  13.813  39.389  11.510
43443W        W15758  20.699   7.835   1.701
43444W        W15759  25.602  34.950  11.612
43445W        W15760   2.298   0.931  14.463
43446W        W15761  16.791   8.917  10.724
43447W        W15762  17.740  25.272  10.581
43448W        W15763  13.834  13.578  11.061
43449W        W15764  24.533  27.077   3.616
43450W        W15765  43.837  21.538   2.635
43451W        W15766   5.211   9.757  14.712
43452W        W15767   8.560  25.266   3.228
43453W        W15768  35.745  15.911  11.117
43454W        W15769  28.534  40.747   1.917
43455W        W15770  15.843  23.953  11.954
43456W        W15771   1.692   9.764  12.816
43457W        W15772  40.329  22.015  11.128
43458W        W15773   3.517  32.824   4.102
43459W        W15774  12.546  11.932  13.971
43460W        W15775  36.098  44.055   1.284
43461W        W15776  10.489  44.995  13.876
43462W        W15777  42.286  12.767  11.676
43463W        W15778  34.400  30.343   0.213
43464W        W15779  38.434   4.303  11.600
43465W        W15780  34.289  10.782   1.014
43466W        W15781   9.152   8.858  13.841
43467W        W15782  26.552  39.602  13.889
43468W        W15783   7.659  34.408  12.513
43469W        W15784  20.158   3.803  12.444
43470W        W15785   1.232   7.786  11.532
43471W        W15786   0.554  41.762   3.416
43472W        W15787  30.447   3.896  12.524
43473W        W15788   4.806  29.966  11.629
43474W        W15789  39.193  40.336  14.863
43475W        W15790  25.207  42.805   1.938
43476W        W15791  41.423   8.944  10.466
43477W        W15792  19.147  17.352   2.621
43478W        W15793  12.973  35.612   4.089
43479W        W15794   8.623  32.385   1.350
43480W        W15795  36.071  26.156  10.663
43481W        W15796  24.656  38.407   4.728
43482W        W15797  17.758   4.912  14.020
43483W        W15798  14.677  12.654   2.599
43484W        W15799   5.799  21.311  10.941
43485W        W15800  35.411  17.409   4.223
43486W        W15801   9.838   6.515  12.904
43487W        W15802  36.815   5.782   0.813
43488W        W15803  44.046  40.393   0.344
43489W        W15804  40.489  21.629   3.320
43490W        W15805  43.829   2.542  11.507
43491W        W15806  30.974  30.447  12.679
43492W        W15807  37.473  32.364   4.335
43493W        W15808   1.074  33.374   4.141
43494W        W15809  14.678  19.127  13.959
43495W        W15810  23.602  19.604   3.263
43496W        W15811   7.750   9.257   4.637
43497W        W15812  11.358  33.384  14.937
43498W        W15813  39.846  23.033  11.879
43499W        W15814   3.755  23.664  13.548
43500W        W15815  40.510  41.024   1.860
43501W        W15816  12.305   6.044   4.952
43502W        W15817  35.415   8.452  10.739
43503W        W15818  13.504  17.955   4.869
43504W        W15819   7.826  31.947   0.666
43505W        W15820  41.811   6.853   1.422
43506W        W15821  28.884  26.074   2.749
43507W        W15822   7.116   9.946  11.108
43508W        W15823  23.568  38.492   2.949
43509W        W15824  27.225   6.820  14.996
43510W        W15825   1.204  24.511  14.325
43511W        W15826  29.113  39.472  10.934
43512W        W15827  12.274  33.768  11.881
43513W        W15828  21.534  32.850   1.706
43514W        W15829   9.996  25.512  10.623
43515W        W15830  44.986   9.644   1.728
43516W        W15831  43.248  15.817  12.066
43517W        W15832  41.330   7.157   3.378
43518W        W15833  16.642  36.063  10.711
43519W        W15834   6.940  17.329   0.287
43520W        W15835  19.127   2.949   1.944
43521W        W15836  25.689  39.501   0.257
43522W        W15837  34.990  11.751   5.064
43523W        W15838   3.859  39.711  13.097
43524W        W15839  36.316  31.123  11.691
43525W        W15840  32.959  34.358   0.888
43526W        W15841  13.665  35.365   0.015
43527W        W15842  10.400   9.075   4.222
43528W        W15843  23.493   5.479  12.840
43529W        W15844   9.753  10.118   2.672
43530W        W15845  35.398  39.163   1.777
43531W        W15846  43.918  16.552  11.650
43532W        W15847  26.594  33.219  11.485
43533W        W15848  15.052   2.898  13.733
43534W        W15849  23.729  32.199   0.241
43535W        W15850   8.288  14.693  13.562
43536W        W15851  29.502   7.164   2.956
43537W        W15852  44.401  36.321  13.425
43538W        W15853  19.898   3.283  14.462
43539W        W15854  21.105   0.774   0.459
43540W        W15855  23.676  14.174   4.332
43541W        W15856  20.911   4.182   5.031
43542W        W15857  12.237   0.493  10.748
43543W        W15858  11.312  11.873   2.946
43544W        W15859  10.438  36.645   4.171
43545W        W15860  22.510  24.093   4.661
43546W        W15861  15.191  33.583  13.300
43547W        W15862  11.747  10.712   4.090
43548W        W15863   9.235  15.090  12.955
43549W        W15864   6.781  19.104  10.531
43550W        W15865  26.486  27.149   0.385
43551W        W15866  24.209  11.432  14.065
43552W        W15867  31.730  21.511   4.575
43553W        W15868   0.383  20.134   0.683
43554W        W15869  30.089   3.941   3.704
43555W        W15870  13.158  12.242   0.994
43556W        W15871  44.241  26.053   1.842
43557W        W15872  19.631   3.694   3.689
43558W        W15873   8.772   3.499  14.000
43559W        W15874  23.409  33.496   1.736
43560W        W15875  32.835   5.704   2.323
43561W        W15876  30.567  25.511   2.251
43562W        W15877  30.712  11.574  12.760
43563W        W15878  25.501   5.657  10.862
43564W        W15879  18.170   9.263  13.270
43565W        W15880  34.500  15.157   2.248
43566W        W15881   0.053  33.211   9.985
43567W        W15882  23.014  13.627  14.010
43568W        W15883   5.462  41.445  14.486
43569W        W15884  27.036   0.220   4.568
43570W        W15885  26.153  37.560   5.163
43571W        W15886   2.207  44.903  12.576
43572W        W15887   5.001  39.796   4.108
43573W        W15888  33.055  43.799  14.036
43574W        W15889   6.929   7.250  14.978
43575W        W15890  10.316  18.004  11.108
43576W        W15891   8.551   7.200   4.499
43577W        W15892  23.587  35.115   0.126
43578W        W15893  44.221   0.871  12.999
43579W        W15894  14.729  33.945   4.674
43580W        W15895  36.053   8.504   2.868
43581W        W15896  16.181  15.672  12.687
43582W        W15897  36.083  38.234   0.849
43583W        W15898  30.908  44.860   0.450
43584W        W15899  20.783   2.249   4.086
43585W        W15900  22.268   3.454  12.092
43586W        W15901  33.460  42.042  12.499
43587W        W15902  27.048  35.086  11.719
43588W        W15903  21.215  37.902   3.708
43589W        W15904   2.417  38.461  14.532
43590W        W15905  15.796  37.958  10.783
43591W        W15906  10.714  28.458  13.467
43592W        W15907  25.228  13.287  13.979
43593W        W15908  37.580  32.995   3.601
43594W        W15909  10.700  22.614  10.530
43595W        W15910  35.427  15.688   4.078
43596W        W15911  32.030  30.607  11.082
43597W        W15912  10.419  43.425   3.097
43598W        W15913  27.235   8.596   2.292
43599W        W15914   5.719  39.858   0.780
43600W        W15915  32.549  20.297   3.167
43601W        W15916  10.412  31.584   1.863
43602W        W15917  40.222  40.580   3.534
43603W        W15918  17.091  24.966   1.232
43604W        W15919  10.402  20.330  11.429
43605W        W15920  26.164  22.262  11.655
43606W        W15921  12.760  26.506  13.488
43607W        W15922  12.742  10.639   4.164
43608W        W15923  33.135  14.685  11.710
43609W        W15924  12.960  10.619   1.808
43610W        W15925  19.795  32.058  13.019
43611W        W15926  39.910  13.598  10.717
43612W        W15927  30.820  28.071  12.170
43613W        W15928   2.165   2.689   2.567
43614W        W15929  31.408  11.189  10.955
43615W        W15930   4.674   0.397  11.565
43616W        W15931  42.476  19.234  10.645
43617W        W15932  32.509  15.261  12.362
43618W        W15933  40.329  25.104   2.877
43619W        W15934  19.633  37.443   4.100
43620W        W15935  37.639  38.579   4.701
43621W        W15936   3.716  29.175   1.664
43622W        W15937  39.830   9.692   4.200
43623W        W15938  33.469  39.076  13.336
43624W        W15939  33.930  30.823  11.937
43625W        W15940   3.963  42.935   1.423
43626W        W15941  41.051  17.211  12.429
43627W        W15942   9.966  39.462  12.464
43628W        W15943  43.907  41.970  13.958
43629W        W15944   8.618   4.789  13.322
43630W        W15945  16.361  12.633  14.564
43631W        W15946  28.027  17.152  11.656
43632W        W15947   8.713  37.359  10.407
43633W        W15948   4.724   0.365   4.205
43634W        W15949   8.367  21.825  13.131
43635W        W15950  31.507   8.537   0.955
43636W        W15951  37.449  25.212  11.981
43637W        W15952  17.630  32.167  10.359
43638W        W15953  20.522   1.983   4.627
43639W        W15954  13.842  14.276   0.710
43640W        W15955   0.794  23.627  13.396
43641W        W15956  43.947  12.667  11.113
43642W        W15957  12.372  15.452   1.854
43643W        W15958  26.297   3.889  10.847
43644W        W15959   8.296   4.716   3.050
43645W        W15960   4.645   6.382  12.584
43646W        W15961  27.710  42.884   3.687
43647W        W15962  32.593  12.225  11.619
43648W        W15963   2.345  35.217   4.606
43649W        W15964  22.274  15.807  14.696
43650W        W15965  28.637  28.051  13.508
43651W        W15966   2.029  31.134  14.913
43652W        W15967   1.438  43.225   0.782
43653W        W15968  10.216  24.048  10.365
43654W        W15969  12.726  16.120   3.212
43655W        W15970  42.399  24.241  12.894
43656W        W15971  10.862  30.029   3.751
43657W        W15972  18.918  22.618   2.286
43658W        W15973  22.948   3.802  14.521
43659W        W15974  17.145  41.995   1.855
43660W        W15975   6.771   9.242  12.551
43661W        W15976  40.427   1.114   3.231
43662W        W15977   3.698  25.593  11.450
43663W        W15978  21.024   1.012  10.632
43664W        W15979  27.896  28.229  14.745
43665W        W15980   1.498   6.350   0.769
43666W        W15981   5.114  36.017   3.322
43667W        W15982  37.374  27.101   0.789
43668W        W15983  22.520  28.446  11.126
43669W        W15984  29.619  37.572   4.062
43670W        W15985  19.905  39.937  13.352
43671W        W15986  20.402   0.096  14.253
43672W        W15987  28.390  41.596   3.093
43673W        W15988  20.988  44.638  13.383
43674W        W15989  10.282  33.849   3.712
43675W        W15990  25.168   3.655  14.806
43676W        W15991  22.820  11.653  13.402
43677W        W15992  32.403  32.559  11.252
43678W        W15993  39.109  43.354   1.619
43679W        W15994  11.797  35.916  10.433
43680W        W15995  18.251  42.626   3.216
43681W        W15996  40.290   6.417  14.451
43682W        W15997  42.366  16.630   0.966
43683W        W15998  31.200  38.505  12.086
43684W        W15999   3.141   1.354  11.882
43685W        W16000   0.081  40.260   1.410
43686W        W16001  43.936  11.307   3.821
43687W        W16002  19.331  37.522   3.253
43688W        W16003  14.354  11.537  13.340
43689W        W16004  38.029   9.559   1.316
43690W        W16005  28.044  10.694   4.753
43691W        W16006  44.906  20.634  14.480
43692W        W16007  19.727  38.871   3.655
43693W        W16008  18.797   7.502   1.152
43694W        W16009  10.962  25.584   2.597
43695W        W16010  35.897  35.520  14.040
43696W        W16011  19.696  29.926  10.590
43697W        W16012   5.819  27.499   3.677
43698W        W16013  26.250  40.156  14.402
43699W        W16014   1.798   4.717  12.112
43700W        W16015   5.196   0.946   1.843
43701W        W16016  35.311   2.418  13.187
43702W        W16017  12.774  13.623   0.813
43703W        W16018  44.026   5.303  13.847
43704W        W16019   7.108  40.349  13.425
43705W        W16020  19.050  27.099  12.469
43706W        W16021  31.556  22.525   1.321
43707W        W16022  42.109  30.435  10.751
43708W        W16023   8.308   4.725  13.739
43709W        W16024   6.434  41.266   4.113
43710W        W16025  23.915  36.050  10.356
43711W        W16026  36.421  10.580   1.789
43712W        W16027  30.064  25.980   4.074
43713W        W16028  12.668  13.015   0.774
43714W        W16029  17.311  28.952   0.833
43715W        W16030  20.667   6.963   4.190
43716W        W16031  31.471  44.382   1.872
43717W        W16032  37.960  41.902   0.716
43718W        W16033   1.926  19.241   0.736
43719W        W16034  14.450   9.278  12.701
43720W        W16035  26.045  19.731   1.763
43721W        W16036   1.678  15.805  11.522
43722W        W16037  26.529  26.288   3.537
43723W        W16038  21.242  32.498   3.480
43724W        W16039  37.916  34.480   4.169
43725W        W16040   4.189  28.700   1.311
43726W        W16041   3.717  20.036  14.765
43727W        W16042  20.629  43.277   3.634
43728W        W16043  15.211  23.645   1.699
43729W        W16044  13.118  21.776   4.074
43730W        W16045  42.301  36.436   3.296
43731W        W16046  42.340  23.155  11.390
43732W        W16047  19.027  39.825  10.993
43733W        W16048  22.615  20.371   2.469
43734W        W16049  11.740  12.613   4.170
43735W        W16050  16.267  38.106   3.620
43736W        W16051   2.322   4.880  14.734
43737W        W16052  23.957  37.984  14.792
43738W        W16053  10.446  11.157   4.480
43739W        W16054   8.270  44.962  13.520
43740W        W16055  43.295  25.386  12.895
43741W        W16056  42.051  11.846  14.415
43742W        W16057  18.509  27.603   1.694
43743W        W16058  14.986   6.213  12.349
43744W        W16059  21.545  42.266  12.381
43745W        W16060  29.655  42.852   3.675
43746W        W16061  26.474  40.876  10.603
43747W        W16062  38.149  16.490  11.722
43748W        W16063  15.794  30.908  13.051
43749W        W16064   9.894  14.089   4.174
43750W        W16065  32.009  36.627  13.527
43751W        W16066  31.967   7.712   1.945
43752W        W16067  22.666  30.196  13.467
43753W        W16068  30.004  15.291  12.939
43754W        W16069  40.420  37.512   4.133
43755W        W16070  17.642  14.362  12.953
43756W        W16071  25.744  21.115  11.488
43757W        W16072  20.835  31.991  12.072
43758W        W16073   6.982  35.974   2.912
43759W        W16074  39.768   0.421  11.050
43760W        W16075  16.579  20.310   4.084
43761W        W16076  10.526   2.298  10.442
43762W        W16077  23.523   4.065  12.374
43763W        W16078  11.218  42.050  11.567
43764W        W16079  24.873  25.162   3.267
43765W        W16080  37.886   3.404   1.155
43766W        W16081  24.507  19.238   2.208
43767W        W16082  24.025  32.964   4.069
43768W        W16083  15.801  33.860   3.573
43769W        W16084  36.400   9.255   4.336
43770W        W16085  37.292  16.444   3.260
43771W        W16086  39.665  31.034  13.925
43772W        W16087   0.631  11.794  13.905
43773W        W16088  26.232   8.759  11.151
43774W        W16089  18.775   9.676  13.754
43775W        W16090  32.088   3.781  14.965
43776W        W16091  11.256   1.668   2.364
43777W        W16092  27.221  18.776   3.664
43778W        W16093  33.472   3.981  11.594
43779W        W16094   5.130  42.354  13.849
43780W        W16095  19.618  12.130   1.377
43781W        W16096  12.730  34.813   2.627
43782W        W16097  43.249  26.436   0.746
43783W        W16098  41.897  38.381  14.957
43784W        W16099   9.627  21.002   0.415
43785W        W16100  19.561  41.881  12.747
43786W        W16101   2.202   1.901   0.501
43787W        W16102  13.871   5.733   3.557
43788W        W16103  21.480  28.173  11.518
43789W        W16104  43.297   9.981   3.828
43790W        W16105   2.179  10.182  12.115
43791W        W16106  33.534   2.936   3.865
43792W        W16107  18.751  14.643   2.172
43793W        W16108  44.743  39.885  10.710
43794W        W16109  36.819   0.801  13.860
43795W        W16110   5.917  24.986   2.845
43796W        W16111  34.819  14.189   0.348
43797W        W16112   9.169   9.533   4.547
43798W        W16113  32.239  41.994   4.170
43799W        W16114  16.707   8.762  13.868
43800W        W16115  32.508   2.717   0.210
43801W        W16116  39.427  15.283   3.409
43802W        W16117   2.391  44.934  11.821
43803W        W16118  16.238  14.453   3.664
43804W        W16119  19.611  15.289  11.530
43805W        W16120   1.242   0.041  14.301
43806W        W16121  14.769   4.317   2.839
43807W        W16122  23.223   1.000   0.707
43808W        W16123  31.605  10.566  14.812
43809W        W16124  34.349  18.648  12.452
43810W        W16125   8.811  40.214   0.375
43811W        W16126   9.848  42.494  14.255
43812W        W16127  13.166   7.548  11.450
43813W        W16128  10.074  19.103   5.031
43814W        W16129  22.816  40.429  13.358
43815W        W16130  24.630  13.827   0.030
43816W        W16131  15.822  20.643  14.393
43817W        W16132  26.811  19.605   4.092
43818W        W16133  28.647  40.560   2.371
43819W        W16134  28.702  40.522  14.410
43820W        W16135  29.212  13.219   1.788
43821W        W16136  37.535  33.904   3.171
43822W        W16137  22.119  41.951  12.286
43823W        W16138  29.648   8.159  11.542
43824W        W16139  16.236   2.384  14.310
43825W        W16140  13.720   3.432  11.332
43826W        W16141  26.614  24.600   0.465
43827W        W16142  32.463   7.997  11.086
43828W        W16143  42.535   7.252   4.532
43829W        W16144  27.003  32.005   9.742
43830W        W16145  33.239  21.332   2.417
43831W        W16146  36.502  24.637  10.407
43832W        W16147  16.785  18.244  10.643
43833W        W16148   3.762  18.848  14.260
43834W        W16149   7.680  41.170   2.718
43835W        W16150  32.664  34.599  13.893
43836W        W16151  44.387   8.897  14.255
43837W        W16152  37.015  42.300  14.835
43838W        W16153  28.562  42.735   1.789
43839W        W16154  27.202  39.412  13.356
43840W        W16155  22.714   4.434  12.361
43841W        W16156   0.875   8.650   4.349
43842W        W16157  33.915  20.732  12.614
43843W        W16158   9.922  32.561  13.000
43844W        W16159  35.346  43.529   1.186
43845W        W16160  39.860  12.196   3.559
43846W        W16161   5.307  29.491   0.014
43847W        W16162  42.941   7.369   4.855
43848W        W16163  27.420  15.202  13.910
43849W        W16164  29.052  15.202  10.580
43850W        W16165  33.084  10.942  10.689
43851W        W16166  15.841  39.507  10.518
43852W        W16167  44.677  41.211   2.700
43853W        W16168  38.424  29.082  13.617
43854W        W16169  32.661  13.752  11.545
43855W        W16170  36.397  39.058  13.416
43856W        W16171  26.489   3.328  13.063
43857W        W16172  42.531  37.278  13.971
43858W        W16173  22.028  43.655   0.395
43859W        W16174  37.340  43.303  11.959
43860W        W16175  10.725   5.631  14.618
43861W        W16176  28.012   5.903  11.251
43862W        W16177  30.603  28.115  11.671
43863W        W16178  27.507  12.683   3.892
43864W        W16179  16.824  17.390   0.367
43865W        W16180  13.016  22.279  14.371
43866W        W16181  44.369  17.625   1.969
43867W        W16182   6.091  36.865   2.326
43868W        W16183  20.148  42.061  11.320
43869W        W16184  12.404  38.048  12.026
43870W        W16185  26.709   7.676  12.496
43871W        W16186  41.763  36.459   1.845
43872W        W16187  20.966  44.386   4.103
43873W        W16188  32.540  19.994   2.727
43874W        W16189  29.644  37.435  12.613
43875W        W16190  30.401   2.987   2.625
43876W        W16191  37.651   5.313  12.476
43877W        W16192   9.733  40.246  11.642
43878W        W16193  13.120  14.212  11.717
43879W        W16194   4.830   3.184  12.021
43880W        W16195  31.584  38.635   1.866
43881W        W16196   2.736  26.608  13.999
43882W        W16197  16.240  11.648   2.274
43883W        W16198  20.215  21.048  11.891
43884W        W16199  35.148   5.775  13.544
43885W        W16200  41.531   9.855  11.057
43886W        W16201  11.848   7.886  13.084
43887W        W16202   2.397   0.976   4.647
43888W        W16203   3.729  11.105  12.442
43889W        W16204  38.766  23.090   4.292
43890W        W16205  40.393  15.619  14.901
43891W        W16206  32.962   0.260   4.288
43892W        W16207  29.688  17.293  10.001
43893W        W16208   3.447  20.713   3.890
43894W        W16209  29.122  42.987   1.186
43895W        W16210  33.505  20.649  11.211
43896W        W16211  32.443  27.186  12.473
43897W        W16212  27.060  31.975   0.292
43898W        W16213  44.041  33.422  11.036
43899W        W16214  19.511   2.390  14.795
43900W        W16215  10.793  18.040   0.710
43901W        W16216   5.763  42.828  10.695
43902W        W16217  13.707   2.918  14.973
43903W        W16218   8.096  20.677  14.934
43904W        W16219  35.141  23.079   0.399
43905W        W16220  25.904  43.591  13.937
43906W        W16221   2.022  15.551  13.013
43907W        W16222  14.762  18.834  10.666
43908W        W16223  13.089  34.959   4.332
43909W        W16224  34.389  17.170  11.732
43910W        W16225  28.104   6.745  11.912
43911W        W16226  18.788   1.564  13.875
43912W        W16227  40.753  24.597   0.383
43913W        W16228  12.941  30.993   2.161
43914W        W16229  14.204  20.643  13.837
43915W        W16230  36.954  39.446   3.366
43916W        W16231  42.900  17.718   3.228
43917W        W16232  14.859  19.029   3.812
43918W        W16233  36.950  11.331  14.740
43919W        W16234  18.291  34.590  14.102
43920W        W16235  27.399   7.275  14.125
43921W        W16236  17.141  35.962  10.653
43922W        W16237  39.835  26.882  11.881
43923W        W16238  33.901  25.022   2.356
43924W        W16239   1.701  37.448   2.133
43925W        W16240  40.186  41.409   2.670
43926W        W16241  24.414  17.312   4.365
43927W        W16242   1.953  15.502   3.103
43928W        W16243  30.375  15.592  10.720
43929W        W16244  19.298  31.194  13.415
43930W        W16245  40.317  37.277   0.695
43931W        W16246  33.361  40.933   0.819
43932W        W16247  17.010   2.881  11.499
43933W        W16248   6.239  38.744  10.672
43934W        W16249  21.602  43.106   1.668
43935W        W16250   5.516  27.869   0.717
43936W        W16251  21.599   9.816   0.658
43937W        W16252  38.344  42.856  14.867
43938W        W16253  24.972  23.831   1.775
43939W        W16254  32.530  30.085   4.323
43940W        W16255   0.237  40.545   1.800
43941W        W16256  43.349   8.747  12.477
43942W        W16257  32.733   2.788  11.834
43943W        W16258  19.131  35.872  10.600
43944W        W16259   2.017  25.438  13.775
43945W        W16260   3.486  21.528  14.229
43946W        W16261  35.004   5.664  12.690
43947W        W16262   5.376  44.868  14.258
43948W        W16263   9.446  10.312   4.395
43949W        W16264   5.251   7.917   2.854
43950W        W16265  30.014  44.838  11.651
43951W        W16266   1.277  10.708   0.320
43952W        W16267  30.684  24.149   5.146
43953W        W16268  30.893  19.119   2.471
43954W        W16269   0.503  13.369   1.671
43955W        W16270   4.414  22.200  10.584
43956W        W16271  22.338  30.075  12.105
43957W        W16272  40.142  30.136  13.871
43958W        W16273  32.822  31.382  10.603
43959W        W16274   3.533  32.961  11.699
43960W        W16275  31.372  15.107   0.827
43961W        W16276  19.671  39.512  10.528
43962W        W16277  21.077  15.912   4.505
43963W        W16278   1.455   0.318  13.586
43964W        W16279   8.129  42.074   2.777
43965W        W16280   7.257  13.780  13.587
43966W        W16281  32.535  16.710   0.430
43967W        W16282   7.362  20.265   2.685
43968W        W16283  11.817   7.536  11.550
43969W        W16284  36.139  30.613   4.506
43970W        W16285  30.050  35.492   3.616
43971W        W16286  24.069   8.604  11.544
43972W        W16287   2.877   9.874   0.386
43973W        W16288  16.670  39.064  14.292
43974W        W16289  29.705  28.983   2.643
43975W        W16290  26.639  33.699   3.182
43976W        W16291   1.905  22.503  13.449
43977W        W16292   4.967  28.573  13.329
43978W        W16293  15.078  34.910   3.674
43979W        W16294  26.116   6.752   9.539
43980W        W16295   2.277  27.026   2.770
43981W        W16296  44.569  16.116  14.782
43982W        W16297  11.255  11.921  14.492
43983W        W16298   3.463  22.952   0.715
43984W        W16299  44.748  17.288   1.792
43985W        W16300  24.038  29.904  13.365
43986W        W16301  29.102  36.874  12.061
43987W        W16302  10.403  40.224   1.674
43988W        W16303  16.271  37.548   4.611
43989W        W16304   1.446  18.703  13.603
43990W        W16305  18.131  11.618   5.179
43991W        W16306  14.082   4.519  12.005
43992W        W16307  31.024  34.911   4.736
43993W        W16308  10.827   4.107  11.735
43994W        W16309  26.133  34.480  14.861
43995W        W16310  15.769  42.402  10.700
43996W        W16311   2.986   4.718   1.323
43997W        W16312  25.113  35.316   4.260
43998W        W16313   1.316  23.811  10.675
43999W        W16314  30.530  16.896  12.130
44000W        W16315  25.998  41.397   0.802
44001W        W16316   0.694  20.672  13.832
44002W        W16317  40.672  14.377  10.626
44003W        W16318  23.789  20.018   1.697
44004W        W16319  16.841  18.939  14.445
44005W        W16320  16.627  11.170   0.244
44006W        W16321  33.722  11.406  14.553
44007W        W16322   7.147  11.158  13.473
44008W        W16323   8.838  30.438  14.316
44009W        W16324  42.717  17.222  14.503
44010W        W16325  27.920   3.354  12.799
44011W        W16326   2.375  16.472   4.258
44012W        W16327   2.903   6.735   2.858
44013W        W16328  32.431  43.118   2.548
44014W        W16329  32.019   9.318  10.795
44015W        W16330   7.611  15.679  11.610
44016W        W16331  28.929  33.510   4.172
44017W        W16332  30.492  20.018   1.423
44018W        W16333   4.565  33.788   5.087
44019W        W16334  44.479  37.278   3.863
44020W        W16335  20.019  30.946   0.914
44021W        W16336   7.626  27.571  13.308
44022W        W16337   7.919  42.517  13.402
44023W        W16338   3.715  17.790  13.487
44024W        W16339  31.831  41.426   4.905
44025W        W16340   4.539   2.231  10.498
44026W        W16341  15.893  43.502   5.032
44027W        W16342  41.285  23.313  12.508
44028W        W16343  21.221   3.375   5.146
44029W        W16344  32.353  12.903   2.743
44030W        W16345  22.195  29.174  12.048
44031W        W16346   4.333  36.565   2.913
44032W        W16347  14.738  39.577   4.914
44033W        W16348  28.870  41.243  13.580
44034W        W16349   9.135  17.713  12.061
44035W        W16350  38.588   0.397   0.449
44036W        W16351  37.929  19.724  12.416
44037W        W16352   0.304   5.296  14.501
44038W        W16353   7.835  12.940   2.062
44039W        W16354  36.998  43.378   3.986
44040W        W16355  39.138  30.013  12.061
44041W        W16356  28.683   3.235   2.835
44042W        W16357  10.169  22.137  13.470
44043W        W16358  40.852  13.065   2.607
44044W        W16359  33.639  36.908   1.431
44045W        W16360   1.287   6.252   0.310
44046W        W16361  20.879  24.431   3.772
44047W        W16362  20.543  21.169  12.783
44048W        W16363  43.364  32.153   0.462
44049W        W16364  14.699  40.050  13.872
44050W        W16365  11.904  23.024   4.587
44051W        W16366  21.362   0.343   4.126
44052W        W16367  23.730  29.459  12.541
44053W        W16368   5.927  30.058   1.624
44054W        W16369  16.094   9.334  10.608
44055W        W16370  22.257  32.164   0.456
44056W        W16371  11.776   4.751  13.744
44057W        W16372  23.594   2.833  13.846
44058W        W16373   9.117  39.281   1.840
44059W        W16374  42.854  40.880  11.580
44060W        W16375  20.556  35.465   3.362
44061W        W16376  24.159  16.109   3.983
44062W        W16377   8.437  18.926  12.188
44063W        W16378  32.156  12.146  13.950
44064W        W16379  11.639  37.152  14.798
44065W        W16380   6.229   5.907   3.020
44066W        W16381  19.420   7.678  14.360
44067W        W16382   3.761   8.112  12.700
44068W        W16383  12.472  39.299   1.330
44069W        W16384  39.265   3.959  11.116
44070W        W16385  14.900  13.933  14.927
44071W        W16386   2.223  12.635  13.762
44072W        W16387  41.430  10.184   2.370
44073W        W16388  17.062  25.998  13.771
44074W        W16389  14.388   5.878  10.362
44075W        W16390   0.889  10.938   1.816
44076W        W16391  19.835  37.602   3.240
44077W        W16392  37.816  16.718   4.241
44078W        W16393  24.528  35.014  14.258
44079W        W16394   3.331  21.965   1.709
44080W        W16395  28.063  11.747   1.901
44081W        W16396  15.743   0.165   3.927
44082W        W16397  41.475   0.433  10.714
44083W        W16398  28.475  26.496   3.619
44084W        W16399  43.885   4.138   0.655
44085W        W16400  31.145  33.484   4.427
44086W        W16401  12.259  43.440   0.195
44087W        W16402  43.925  30.868  14.386
44088W        W16403  30.889  31.631   1.695
44089W        W16404   2.841  19.174   2.853
44090W        W16405  26.120   1.880   1.388
44091W        W16406   3.486   8.375  14.464
44092W        W16407  24.622  15.131  14.745
44093W        W16408  21.841  14.559  12.619
44094W        W16409  11.973  33.018  14.333
44095W        W16410   2.622  33.642  10.041
44096W        W16411  36.586  20.368   3.742
44097W        W16412  22.014  24.710   2.831
44098W        W16413  15.930  24.341   3.765
44099W        W16414  27.642  35.601  12.110
44100W        W16415  22.177   3.829  12.422
44101W        W16416   3.230  22.323  10.354
44102W        W16417   4.061  12.688   3.488
44103W        W16418  19.704  34.045  11.638
44104W        W16419  35.391  23.656   2.333
44105W        W16420  24.172  23.679   0.310
44106W        W16421  38.766  23.041   2.368
44107W        W16422   4.407   2.736  13.901
44108W        W16423  34.814  16.569  12.871
44109W        W16424  22.858   4.402  11.274
44110W        W16425  10.525  23.766   3.675
44111W        W16426  15.699  17.817   2.196
44112W        W16427   2.490  28.542  14.997
44113W        W16428  27.918  13.309  13.483
44114W        W16429   4.629  41.269  13.896
44115W        W16430  23.815  21.938   2.681
44116W        W16431  19.073  32.821   4.306
44117W        W16432  43.878   2.127   4.137
44118W        W16433   3.246  43.104  13.966
44119W        W16434  33.502  24.044   1.248
44120W        W16435  44.353  35.422   3.776
44121W        W16436  23.323  12.777  12.995
44122W        W16437  36.332  36.555   0.772
44123W        W16438  40.924  43.896   1.298
44124W        W16439  39.599   5.928  13.369
44125W        W16440  29.623  17.660   0.841
44126W        W16441  20.687  30.547   1.355
44127W        W16442  38.913  43.243  13.822
44128W        W16443   6.949  40.329   4.028
44129W        W16444   9.146  37.961  14.412
44130W        W16445  12.718  20.355  13.030
44131W        W16446  21.220   3.293   1.355
44132W        W16447  23.541  16.008  10.612
44133W        W16448  23.413  38.462  11.143
44134W        W16449   4.112  40.589   4.545
44135W        W16450  11.353  25.734   0.763
44136W        W16451   1.651   6.204  14.886
44137W        W16452  24.505   0.374   1.862
44138W        W16453  27.454  23.993  12.489
44139W        W16454   0.315   3.302  14.081
44140W        W16455   6.239  14.173  14.436
44141W        W16456  27.954   1.132  13.026
44142W        W16457   7.717  33.091  11.054
44143W        W16458  12.838  20.166   2.147
44144W        W16459  19.088  28.390   9.519
44145W        W16460   1.731  24.697   3.785
44146W        W16461  30.732  43.838  12.757
44147W        W16462   0.185   2.733  12.921
44148W        W16463   4.717   6.818   2.301
44149W        W16464  29.163  36.397  13.782
44150W        W16465  16.747  43.356   4.328
44151W        W16466  41.306   9.903  10.596
44152W        W16467  43.827  43.983  14.298
44153W        W16468  31.041   9.834  13.989
44154W        W16469  29.957  44.557  13.551
44155W        W16470  11.920  30.524   2.884
44156W        W16471   3.527  17.258   2.007
44157W        W16472  29.199  20.189  12.873
44158W        W16473  41.433  24.820  14.936
44159W        W16474  33.540  34.132  13.666
44160W        W16475  36.405  25.734   4.543
44161W        W16476  20.170   2.764  10.758
44162W        W16477  44.037   0.304   0.948
44163W        W16478  24.462  20.618   3.732
44164W        W16479  17.773  25.104   4.170
44165W        W16480   4.184   5.274  14.228
44166W        W16481  42.783  21.738   0.241
44167W        W16482  24.544   2.201   0.413
44168W        W16483   3.844  17.614  12.119
44169W        W16484  25.698  16.164  13.535
44170W        W16485  44.168  10.250   4.190
44171W        W16486   6.755  17.718   1.692
44172W        W16487  26.588  33.692  14.033
44173W        W16488  41.067  15.586   3.664
44174W        W16489   4.225  17.602  14.398
44175W        W16490  41.979  16.156  12.638
44176W        W16491  36.018  16.820   2.734
44177W        W16492  43.443  39.363  14.387
44178W        W16493  37.269   5.762  12.148
44179W        W16494  19.701  44.956   2.453
44180W        W16495  11.820   3.796  13.314
44181W        W16496  39.696  19.437  10.802
44182W        W16497  19.638  12.564   3.440
44183W        W16498  32.694   1.145  11.179
44184W        W16499   2.156   1.798  13.848
44185W        W16500  15.079  35.128  10.369
44186W        W16501  30.161  38.032   1.712
44187W        W16502  25.730  39.127  12.990
44188W        W16503  10.352   1.385  14.925
44189W        W16504   9.179   3.831   3.552
44190W        W16505  27.652   8.286   2.354
44191W        W16506  39.628  19.233  14.084
44192W        W16507  35.997  13.887   2.297
44193W        W16508   9.316  40.748  14.893
44194W        W16509  36.002   8.364   3.844
44195W        W16510  15.057  42.522   0.846
44196W        W16511  39.397  17.000   1.789
44197W        W16512  35.423  18.274  14.057
44198W        W16513  21.076  23.055  10.612
44199W        W16514  30.482   9.623   3.520
44200W        W16515  11.951  21.040  11.907
44201W        W16516  15.703  31.848  11.208
44202W        W16517  25.557  27.953  12.561
44203W        W16518  17.364  14.363  13.525
44204W        W16519  10.268   4.758   0.429
44205W        W16520  16.585  16.770   2.263
44206W        W16521  34.687  29.053  11.187
44207W        W16522  41.852  17.778  11.602
44208W        W16523  27.192  16.595  10.983
44209W        W16524  14.497  31.120  12.004
44210W        W16525   0.377  29.727   3.618
44211W        W16526  15.782   3.908  10.432
44212W        W16527  17.059  28.475  13.887
44213W        W16528  34.496  19.202  13.049
44214W        W16529   1.988  31.091  12.560
44215W        W16530  10.747   0.812   0.171
44216W        W16531  24.592   4.169   3.812
44217W        W16532  34.715  33.385   4.153
44218W        W16533   5.818  31.978  11.477
44219W        W16534  40.376  10.153   1.479
44220W        W16535  31.701  22.092   2.597
44221W        W16536  40.536   3.448   1.899
44222W        W16537  14.801  33.657   0.297
44223W        W16538  16.898  39.449   0.778
44224W        W16539   0.296  34.961  14.095
44225W        W16540   8.922  31.863  14.392
44226W        W16541  17.759  27.072  12.577
44227W        W16542   6.756  22.341  12.126
44228W        W16543  17.328  28.467  10.966
44229W        W16544  28.150  29.423  12.443
44230W        W16545  33.859  30.078  14.492
44231W        W16546  35.372   9.618  14.481
44232W        W16547   8.860  38.826   1.809
44233W        W16548  23.235  21.779  13.993
44234W        W16549  41.326   2.741   1.775
44235W        W16550  31.048  25.662  14.135
44236W        W16551  29.602   9.162   1.707
44237W        W16552  30.652  43.829   3.682
44238W        W16553   5.441   4.351  10.341
44239W        W16554  34.975  34.870   3.156
44240W        W16555   3.501   6.269  14.446
44241W        W16556   6.153  16.121  10.550
44242W        W16557  29.413   7.932  10.702
44243W        W16558   8.909  18.249  14.727
44244W        W16559  12.652   4.811  11.372
44245W        W16560  39.946  29.892   1.816
44246W        W16561  29.587   3.938  13.554
44247W        W16562  33.444   8.318  10.976
44248W        W16563  37.355   4.624   1.408
44249W        W16564  33.465  42.434   0.279
44250W        W16565  11.097  21.470  14.909
44251W        W16566  28.996  13.455   3.526
44252W        W16567  37.935  44.228   1.174
44253W        W16568   1.533  22.167   1.769
44254W        W16569  40.582  44.445   1.421
44255W        W16570   2.351   0.321  13.599
44256W        W16571  31.957  39.412  14.343
44257W        W16572  43.554  15.725   2.584
44258W        W16573  19.273   4.211   0.446
44259W        W16574  37.478  33.920   1.741
44260W        W16575  24.691  13.778  12.518
44261W        W16576  29.936  19.868   1.317
44262W        W16577  27.986  28.561   1.896
44263W        W16578  10.721   4.940   3.710
44264W        W16579  14.276  25.085   0.500
44265W        W16580  37.393  33.174  14.896
44266W        W16581  44.448   0.496   1.232
44267W        W16582  34.674  37.753  10.230
44268W        W16583  17.183  17.191  12.455
44269W        W16584  17.377   4.965   0.850
44270W        W16585   8.863  14.176   2.108
44271W        W16586  19.026  18.933  12.412
44272W        W16587  10.707  19.515   0.455
44273W        W16588  22.097  32.216   3.378
44274W        W16589  36.095  37.386  13.255
44275W        W16590  17.226   3.710   3.251
44276W        W16591   8.214  23.516   1.578
44277W        W16592  35.695  29.835   0.848
44278W        W16593  40.271   7.344   1.309
44279W        W16594  23.675  25.240   0.950
44280W        W16595  32.033   7.402  12.953
44281W        W16596  38.602  33.289   3.162
44282W        W16597  16.623  24.293  12.521
44283W        W16598  35.542  15.407  12.066
44284W        W16599  44.473  24.632  14.808
44285W        W16600   9.725  33.520   1.593
44286W        W16601   0.246  28.891   4.069
44287W        W16602   6.411  21.233   1.700
44288W        W16603   9.766   1.221  10.573
44289W        W16604  38.084  37.268   3.330
44290W        W16605  36.812  31.459  11.814
44291W        W16606  16.103  20.541  13.946
44292W        W16607  35.812   4.489  14.764
44293W        W16608   2.455   4.886  12.754
44294W        W16609  41.749  37.484   3.633
44295W        W16610  11.434   8.857  11.504
44296W        W16611   4.491  35.725   1.408
44297W        W16612   7.721  18.534   3.712
44298W        W16613  22.063  43.450   4.864
44299W        W16614  36.256  44.477  11.101
44300W        W16615  30.736  18.435   2.870
44301W        W16616   5.768  32.102  12.993
44302W        W16617  43.704  37.551   1.816
44303W        W16618   4.497  22.289   4.539
44304W        W16619  42.841  31.462  12.525
44305W        W16620  28.418  16.835  11.545
44306W        W16621  22.236  30.945  12.604
44307W        W16622  23.953  32.992  12.598
44308W        W16623  12.687  20.786  14.476
44309W        W16624  14.248   0.040  12.969
44310W        W16625  39.007  21.645   3.706
44311W        W16626  39.583   5.331   3.168
44312W        W16627  29.021  34.105   0.464
44313W        W16628   7.189   4.794  12.043
44314W        W16629  43.280   4.721   4.356
44315W        W16630  16.564  35.216  11.909
44316W        W16631  32.135  10.750  12.295
44317W        W16632  42.367  28.022   1.984
44318W        W16633   7.348  18.253  12.941
44319W        W16634  38.382  32.345  13.810
44320W        W16635  10.430  25.474   4.150
44321W        W16636   5.342  37.763   1.315
44322W        W16637   5.350  23.992   1.393
44323W        W16638   8.836  41.688  11.583
44324W        W16639  41.833  36.623   0.527
44325W        W16640   8.088   5.893   4.224
44326W        W16641  43.387   2.439  12.977
44327W        W16642  32.653  28.644   0.463
44328W        W16643  43.109  43.904  12.415
44329W        W16644  41.352  30.664  13.996
44330W        W16645  34.975  42.732  10.079
44331W        W16646   2.380  42.788   4.197
44332W        W16647  35.812  13.578  11.683
44333W        W16648  21.388  24.471   4.665
44334W        W16649  31.757   2.253  13.292
44335W        W16650  27.577  37.430  11.191
44336W        W16651  25.790  38.515   0.227
44337W        W16652   9.007  21.628   0.337
44338W        W16653  39.521  24.044  13.469
44339W        W16654  40.197  25.222  12.364
44340W        W16655  41.325   6.468  13.122
44341W        W16656  14.558  26.891   0.352
44342W        W16657  35.997  31.999  10.471
44343W        W16658  36.811  11.439   1.841
44344W        W16659   6.944   6.300   3.222
44345W        W16660   9.332  13.779  12.345
44346W        W16661   4.819  12.348  13.412
44347W        W16662  31.567  20.124   3.439
44348W        W16663   2.898  28.749   2.737
44349W        W16664  36.534  15.285   4.223
44350W        W16665   2.237  32.028  12.093
44351W        W16666  32.976  20.765  11.157
44352W        W16667  43.292  23.145   4.915
44353W        W16668   9.609   4.371   2.734
44354W        W16669  15.123  41.078  12.325
44355W        W16670  41.013  29.722  13.720
44356W        W16671  26.972  40.565   0.320
44357W        W16672  35.940  21.130   4.843
44358W        W16673  33.194  15.750   3.380
44359W        W16674  27.530  39.646   3.902
44360W        W16675  31.502  43.251   0.680
44361W        W16676  13.231   8.088  11.468
44362W        W16677  24.930  10.150  14.580
44363W        W16678   7.722  19.458   2.149
44364W        W16679  10.281  23.255   0.289
44365W        W16680  21.569  18.541  14.431
44366W        W16681   8.485  44.476   4.491
44367W        W16682  10.989  32.147   2.423
44368W        W16683  32.190  17.752   2.688
44369W        W16684  12.715   8.679  14.949
44370W        W16685   7.786  30.493   4.984
44371W        W16686  44.549   4.694   0.325
44372W        W16687   1.249  16.837  11.973
44373W        W16688   0.706  16.554   1.932
44374W        W16689  22.341  32.164  11.636
44375W        W16690  41.598  43.573  12.432
44376W        W16691  39.062  25.121  11.472
44377W        W16692   7.039  19.792  11.178
44378W        W16693  27.434  22.979   3.298
44379W        W16694  29.122  25.737  12.435
44380W        W16695  14.211  37.923   0.786
44381W        W16696   6.428  44.914  11.997
44382W        W16697  23.999  26.385   2.282
44383W        W16698  31.449   5.293   0.752
44384W        W16699   6.780   0.892  14.520
44385W        W16700  38.285   7.794  10.827
44386W        W16701  23.208  38.541  10.654
44387W        W16702  16.645  39.004   0.927
44388W        W16703  12.523  11.354  11.020
44389W        W16704  30.819   4.748  12.446
44390W        W16705  20.602  23.146  11.439
44391W        W16706  25.447  10.121   1.682
44392W        W16707  41.512  13.720  12.027
44393W        W16708  17.359  41.641   1.376
44394W        W16709  38.415  10.592  11.227
44395W        W16710   1.804  20.480   2.027
44396W        W16711  21.456  26.638  12.242
44397W        W16712  14.114  14.180   2.205
44398W        W16713  16.681  11.872   2.459
44399W        W16714  15.094   1.401   1.425
44400W        W16715  34.096  25.610  12.061
44401W        W16716  31.914  29.556  12.463
44402W        W16717  10.592  17.727   1.936
44403W        W16718   9.308  32.161   0.727
44404W        W16719   2.382  38.387   0.079
44405W        W16720  26.681  26.151  10.119
44406W        W16721   0.712  24.459   2.824
44407W        W16722  41.516  17.320   3.669
44408W        W16723  23.064  14.956  14.433
44409W        W16724  21.789  28.967   1.709
44410W        W16725  15.689  30.219   9.792
44411W        W16726  30.547  31.042  11.132
44412W        W16727   4.881  14.375  11.895
44413W        W16728  30.759   0.824  13.426
44414W        W16729  19.454   3.418  14.220
44415W        W16730   3.751   6.445   3.061
44416W        W16731  14.071  14.826   4.194
44417W        W16732  15.249  39.025   3.677
44418W        W16733  26.498  20.024  13.473
44419W        W16734  19.974  17.741   2.641
44420W        W16735  23.237  28.914   0.892
44421W        W16736  11.350   7.050  13.033
44422W        W16737  35.044  15.739  14.346
44423W        W16738   3.789   7.770   2.655
44424W        W16739  10.099  16.169  12.914
44425W        W16740  41.431  38.576   4.692
44426W        W16741  29.758   1.815  12.960
44427W        W16742  29.638   6.968  12.972
44428W        W16743  20.498  19.200  10.607
44429W        W16744  13.836  16.814  11.978
44430W        W16745  26.147  44.337  13.369
44431W        W16746  37.403   8.911  12.825
44432W        W16747   2.041   2.344   4.962
44433W        W16748  11.103  31.095   4.142
44434W        W16749  22.108   4.049  14.981
44435W        W16750  37.044  32.651   3.257
44436W        W16751   1.382  32.528   4.366
44437W        W16752  27.010   2.181  11.028
44438W        W16753  41.427  38.815  13.419
44439W        W16754  36.941  37.167   0.443
44440W        W16755   6.754  15.250  13.060
44441W        W16756  16.154   5.361  12.179
44442W        W16757  15.335  30.437   0.727
44443W        W16758   8.097  28.499  12.458
44444W        W16759   1.545  29.065   4.550
44445W        W16760  30.123   4.419   1.010
44446W        W16761  43.724  30.420  14.249
44447W        W16762  11.682   0.198   2.709
44448W        W16763   2.677  20.303   4.152
44449W        W16764  26.620  24.634   1.391
44450W        W16765  33.284  12.193  10.945
44451W        W16766  14.790  39.850   2.572
44452W        W16767   7.218  16.466   1.762
44453W        W16768   1.566  28.077   1.740
44454W        W16769   8.315  25.127   3.832
44455W        W16770  16.828  43.061  10.705
44456W        W16771   3.162  31.453  10.664
44457W        W16772  19.136  26.178   0.343
44458W        W16773  37.062  19.538  10.981
44459W        W16774   8.294  32.403  11.947
44460W        W16775  33.365  28.142  12.010
44461W        W16776  29.919  37.409   0.311
44462W        W16777  10.163   6.957  11.132
44463W        W16778  23.551  27.407  14.974
44464W        W16779  38.801  29.012   0.908
44465W        W16780  41.849  34.088   1.296
44466W        W16781  32.670  19.754   3.596
44467W        W16782  42.306  41.474  11.902
44468W        W16783  41.569   2.337  11.585
44469W        W16784  35.032  19.234   2.308
44470W        W16785   9.388  42.700  13.989
44471W        W16786   0.863   8.574   2.681
44472W        W16787  23.963  12.837   3.604
44473W        W16788  25.677  18.650   1.036
44474W        W16789   7.011  44.856  12.751
44475W        W16790   9.880  31.055   4.943
44476W        W16791  17.274   8.431   3.766
44477W        W16792   7.249   0.993  10.759
44478W        W16793  24.204  20.325   2.898
44479W        W16794  25.118  44.431   1.914
44480W        W16795  11.155   2.135  11.595
44481W        W16796  35.821  26.040  11.096
44482W        W16797  20.349  36.690  12.075
44483W        W16798  21.610  28.019  13.272
44484W        W16799   4.442  12.849   0.325
44485W        W16800   9.380  10.893   0.882
44486W        W16801  40.530  34.971   2.614
44487W        W16802  30.553  13.840   0.407
44488W        W16803   1.683  28.564   3.659
44489W        W16804  28.673  25.375   0.864
44490W        W16805  40.380  42.376   0.262
44491W        W16806  26.178  22.583  10.982
44492W        W16807   5.939   4.622   4.149
44493W        W16808   1.210  16.405   1.912
44494W        W16809  25.642  12.309   3.748
44495W        W16810   0.602   1.574  10.241
44496W        W16811  41.889   3.516  13.872
44497W        W16812  11.620  37.074   3.579
44498W        W16813  33.937   7.418   1.691
44499W        W16814   1.772  16.489  10.728
44500W        W16815   4.926   5.818  11.146
44501W        W16816  15.116  34.952   2.326
44502W        W16817   6.828  13.383   0.333
44503W        W16818  10.075  31.032  13.321
44504W        W16819  31.584   5.228   1.835
44505W        W16820  17.738  22.201   1.241
44506W        W16821  43.047  30.439   4.489
44507W        W16822   7.428  27.215  12.904
44508W        W16823  28.585  14.574  11.258
44509W        W16824   6.953  20.565   3.388
44510W        W16825  28.689  34.868   2.560
44511W        W16826   7.877  17.240  10.757
44512W        W16827   4.339  10.367   4.884
44513W        W16828  10.937  11.839  13.057
44514W        W16829  24.539  20.648  11.435
44515W        W16830  40.934   6.843  11.953
44516W        W16831  42.721   2.029  12.883
44517W        W16832  21.474  14.783   0.323
44518W        W16833  19.789   9.369  10.916
44519W        W16834  19.718   3.088   4.275
44520W        W16835  21.540   6.753   1.978
44521W        W16836  36.122  22.963   0.058
44522W        W16837  11.713  11.873   1.144
44523W        W16838  26.616  31.934   4.614
44524W        W16839  44.088   8.251   1.479
44525W        W16840   6.933  19.289  12.047
44526W        W16841  34.379  37.012   3.390
44527W        W16842  16.125  11.361  11.839
44528W        W16843  34.341  41.499  13.861
44529W        W16844  10.214  19.815  13.275
44530W        W16845  29.723  25.467  11.191
44531W        W16846  22.550  29.095  10.366
44532W        W16847   5.465   1.518  12.420
44533W        W16848  28.523  41.672   0.812
44534W        W16849  24.751  27.763   0.859
44535W        W16850   9.483  21.788   0.297
44536W        W16851  10.671  18.094   1.243
44537W        W16852  38.876  23.759   4.260
44538W        W16853  42.869  16.517   2.857
44539W        W16854  36.949  43.147   4.882
44540W        W16855   2.220  33.774  10.975
44541W        W16856  25.437  10.785  13.218
44542W        W16857  17.090  12.673   1.763
44543W        W16858  12.101  33.039  11.624
44544W        W16859  40.514   5.355   2.931
44545W        W16860  44.028  40.525  13.135
44546W        W16861  10.818  20.937   0.419
44547W        W16862  16.542   6.390   3.092
44548W        W16863  32.011  33.908  10.644
44549W        W16864   3.562  18.718   4.648
44550W        W16865  13.262  31.951   3.079
44551W        W16866  24.643  28.679  11.941
44552W        W16867  30.635  42.344  11.455
44553W        W16868  38.130  35.074  12.380
44554W        W16869  12.361  15.171   0.296
44555W        W16870   8.303  35.839   1.489
44556W        W16871  11.115  41.057  10.689
44557W        W16872  26.425   3.805   4.878
44558W        W16873  35.334  30.981   3.200
44559W        W16874  25.136  42.482  14.807
44560W        W16875   7.058  10.626   1.736
44561W        W16876  43.991  28.913   3.754
44562W        W16877  18.011  40.491  14.925
44563W        W16878  25.387  37.934   2.786
44564W        W16879  24.194  30.658  10.733
44565W        W16880  17.163  34.409   0.913
44566W        W16881  29.548  29.478   2.715
44567W        W16882  28.063  40.810   1.679
44568W        W16883  22.095  12.918  14.810
44569W        W16884  32.047   7.015   4.884
44570W        W16885  28.196  32.959   4.112
44571W        W16886  40.366  38.287   2.607
44572W        W16887   3.524   9.683   3.363
44573W        W16888  25.148  38.949   4.333
44574W        W16889   8.897  31.075   0.981
44575W        W16890  31.011  11.678   2.696
44576W        W16891  35.917  29.419  12.902
44577W        W16892  23.044   0.149  11.625
44578W        W16893  15.670  19.165   4.398
44579W        W16894  19.580  29.071  12.904
44580W        W16895  35.128  33.097  10.916
44581W        W16896  32.118  42.237   3.176
44582W        W16897  14.845  29.154   0.888
44583W        W16898   5.809  37.513   2.236
44584W        W16899  40.112   3.777   4.104
44585W        W16900   1.245   8.896   2.815
44586W        W16901  35.952   1.426   4.229
44587W        W16902  25.189   4.906   3.663
44588W        W16903   8.083   4.845  13.288
44589W        W16904  30.239  28.536   4.126
44590W        W16905  38.040  39.123  11.585
44591W        W16906   2.015  44.199  11.654
44592W        W16907  26.411   6.934  11.456
44593W        W16908  35.949  30.650  12.554
44594W        W16909   9.308   7.787  11.469
44595W        W16910  28.607   4.477  12.842
44596W        W16911  33.490  16.580  12.966
44597W        W16912  39.716  40.367  14.859
44598W        W16913  42.776  22.930  10.699
44599W        W16914  13.839   9.884  12.944
44600W        W16915  26.728  17.701   4.546
44601W        W16916   2.533  12.572  10.933
44602W        W16917  14.642  28.029  12.571
44603W        W16918   2.238  42.906  11.479
44604W        W16919  22.127  26.724   3.659
44605W        W16920  36.387   7.145  12.157
44606W        W16921   8.672   9.963   4.877
44607W        W16922  32.973   1.224  12.420
44608W        W16923  37.363  25.935  14.454
44609W        W16924  13.875   6.364  12.448
44610W        W16925  11.989  12.334   0.331
44611W        W16926  20.807  13.129  14.444
44612W        W16927  15.680  15.837   1.719
44613W        W16928  18.005  37.343  10.620
44614W        W16929  26.736  32.549   0.877
44615W        W16930  20.426   7.379  11.522
44616W        W16931  18.236  18.698   2.373
44617W        W16932   8.718   9.787   0.251
44618W        W16933  22.224  33.737  13.027
44619W        W16934  37.567  31.832  14.029
44620W        W16935  28.662  13.186   1.229
44621W        W16936  40.340   5.138  12.458
44622W        W16937   6.711  16.611  13.061
44623W        W16938  26.451  40.530   0.341
44624W        W16939  12.137  12.278  13.435
44625W        W16940  32.429  28.544   4.259
44626W        W16941  37.610  25.665   0.378
44627W        W16942  31.562  41.331   4.042
44628W        W16943  18.054   7.934  10.707
44629W        W16944  18.193  36.424   0.584
44630W        W16945  39.533  20.584   3.781
44631W        W16946  32.440   8.713  12.036
44632W        W16947   9.026   7.735  12.945
44633W        W16948  34.945  40.484  10.784
44634W        W16949  25.918  31.531   1.683
44635W        W16950  17.069  34.547  14.043
44636W        W16951  28.390  33.940  14.268
44637W        W16952  31.935  12.688  12.718
44638W        W16953  36.588   2.613   0.393
44639W        W16954  13.677  18.067   2.767
44640W        W16955  16.577  40.418   9.799
44641W        W16956  37.800  43.268   1.276
44642W        W16957  23.472  28.496  12.989
44643W        W16958  25.060   4.271  10.964
44644W        W16959  38.130   9.283  12.784
44645W        W16960   5.204  19.735   4.503
44646W        W16961  31.647  33.502   2.700
44647W        W16962  43.480  28.599   2.238
44648W        W16963   1.480   5.788   1.718
44649W        W16964  37.110   4.195  11.111
44650W        W16965  19.018  38.006   3.237
44651W        W16966  21.261  21.675  10.640
44652W        W16967  10.133  20.064  10.476
44653W        W16968  26.672  29.550   4.683
44654W        W16969   1.096  21.863  12.589
44655W        W16970  38.972  37.487  12.131
44656W        W16971  14.323  21.386  12.535
44657W        W16972  13.174  19.321   2.806
44658W        W16973   3.417  28.722  11.101
44659W        W16974  41.406  21.328   2.314
44660W        W16975  31.079  37.995   2.689
44661W        W16976   4.073  39.463  12.302
44662W        W16977  14.607  19.663  12.945
44663W        W16978   3.487  14.298   1.835
44664W        W16979  21.523  12.319   4.605
44665W        W16980  24.852   6.801   4.700
44666W        W16981  20.262  11.832   1.757
44667W        W16982  33.458  43.767  14.955
44668W        W16983  33.071  27.893  12.383
44669W        W16984  41.376  14.155   0.922
44670W        W16985  25.913  34.061   0.691
44671W        W16986   7.333  14.313   2.349
44672W        W16987  43.230  26.075  13.360
44673W        W16988  14.755  40.933  12.656
44674W        W16989  31.585   9.592  14.928
44675W        W16990  24.526   0.652  14.423
44676W        W16991  23.285  41.109   0.961
44677W        W16992  12.184  22.801   0.222
44678W        W16993  36.866   8.162   3.285
44679W        W16994  32.526  36.259   3.615
44680W        W16995  22.415  36.572  10.786
44681W        W16996  41.428  17.781   3.897
44682W        W16997  11.743  24.960  11.176
44683W        W16998   3.261  44.000  11.508
44684W        W16999  25.737  18.258   5.164
44685W        W17000   5.750  39.883  14.866
44686W        W17001  37.957  32.615  13.600
44687W        W17002  31.620  32.174   2.656
44688W        W17003  21.131  22.515   2.934
44689W        W17004   6.923   3.836  13.842
44690W        W17005  22.204  28.766   1.981
44691W        W17006   5.148  13.810   0.822
44692W        W17007  25.421   1.119   3.370
44693W        W17008   7.147  10.740   0.801
44694W        W17009   8.293  18.276   2.750
44695W        W17010  26.419   0.328   2.740
44696W        W17011   7.891  15.233   2.287
44697W        W17012   1.132  38.124  12.324
44698W        W17013   7.322  24.115   0.758
44699W        W17014  13.854  13.067   1.262
44700W        W17015  17.545  35.016  13.544
44701W        W17016  16.787  21.281  12.438
44702W        W17017  10.223  31.022  14.260
44703W        W17018  42.856  43.692  11.078
44704W        W17019   2.060  41.531  10.909
44705W        W17020   2.177  32.999  11.767
44706W        W17021  44.989  12.651  10.210
44707W        W17022   5.933  36.402  13.018
44708W        W17023  41.933  31.455  10.730
44709W        W17024  23.707  39.125  11.806
44710W        W17025  28.457  35.708  14.074
44711W        W17026   0.327  22.287   4.136
44712W        W17027  16.229   8.169  12.601
44713W        W17028  44.797  37.383  12.839
44714W        W17029  35.180  41.289  12.463
44715W        W17030  30.305  26.905  14.404
44716W        W17031  28.367  40.489  11.455
44717W        W17032  14.625   7.725   4.106
44718W        W17033  32.655   5.899  12.796
44719W        W17034  38.869   5.177   0.787
44720W        W17035  17.096   8.239  10.648
44721W        W17036  20.062  12.391  14.906
44722W        W17037   2.087  27.566   3.280
44723W        W17038  41.224  35.758  11.496
44724W        W17039  43.973  30.672   0.747
44725W        W17040  35.393  36.125   1.420
44726W        W17041   0.527  31.334   1.469
44727W        W17042  39.316  26.499  12.379
44728W        W17043  28.871  20.610   2.824
44729W        W17044  30.089  19.042   3.360
44730W        W17045  43.637  44.921  11.708
44731W        W17046  36.128  36.828  11.101
44732W        W17047  18.679  24.972   2.306
44733W        W17048   4.818  37.377   3.767
44734W        W17049   7.344  11.466   3.736
44735W        W17050   0.211   0.888  13.784
44736W        W17051  43.011   2.198   5.003
44737W        W17052  17.880  39.265  11.298
44738W        W17053   9.827  10.101   3.577
44739W        W17054  19.562   5.952  11.224
44740W        W17055  16.569  10.930   3.741
44741W        W17056  28.239  15.349   4.032
44742W        W17057   1.204  20.332   0.255
44743W        W17058  16.527  19.626  12.947
44744W        W17059  42.355  16.601   2.827
44745W        W17060  23.306  40.885   4.637
44746W        W17061  14.586  10.803   4.748
44747W        W17062  13.161  19.124  10.902
44748W        W17063  18.009  24.196   1.820
44749W        W17064  40.560   3.302  14.252
44750W        W17065  14.180  42.999  11.911
44751W        W17066  11.604  21.083   2.933
44752W        W17067  43.081  34.513  12.482
44753W        W17068   7.713  23.626   4.726
44754W        W17069   1.938  20.072   3.210
44755W        W17070  36.704  18.358  10.131
44756W        W17071  16.576  21.787  10.864
44757W        W17072  32.639  32.088   1.371
44758W        W17073  44.055  12.296  12.583
44759W        W17074  30.498  23.858   4.783
44760W        W17075   1.450   4.749  11.668
44761W        W17076  25.564  15.255  13.797
44762W        W17077  16.208  30.353   9.898
44763W        W17078   3.923  38.468   3.357
44764W        W17079  42.711   1.850  11.066
44765W        W17080  18.273  36.356   2.081
44766W        W17081  14.165  40.806   1.912
44767W        W17082  28.644  25.672   1.324
44768W        W17083  36.634  34.383   4.578
44769W        W17084   4.264  25.476  12.931
44770W        W17085  29.869  26.501  13.161
44771W        W17086  23.278  19.938  13.298
44772W        W17087   9.670  19.200   4.238
44773W        W17088  35.688  37.542   3.016
44774W        W17089  30.455   6.230   2.330
44775W        W17090  25.907   6.889   4.144
44776W        W17091  33.692  21.006   2.543
44777W        W17092  33.594   0.437   2.675
44778W        W17093  33.391  18.582   1.749
44779W        W17094   9.362   5.809  13.072
44780W        W17095  32.891  14.232  11.524
44781W        W17096  17.914  38.416  14.742
44782W        W17097  44.067  10.506   0.716
44783W        W17098   7.859   7.313   3.589
44784W        W17099   9.144   6.161   3.606
44785W        W17100  44.541  24.196   0.621
44786W        W17101   6.421  11.733   5.000
44787W        W17102  16.117  12.435   2.806
44788W        W17103  39.895  26.730   2.651
44789W        W17104  21.501   9.642   2.818
44790W        W17105  30.924   9.665   4.084
44791W        W17106  28.401  31.947  11.973
44792W        W17107   3.485  30.134   3.947
44793W        W17108  37.288  24.294  10.615
44794W        W17109  34.149  30.634   3.618
44795W        W17110  20.104  24.926   3.238
44796W        W17111  42.933   5.166   4.325
44797W        W17112  20.007  17.426  14.819
44798W        W17113  10.773  22.834  10.062
44799W        W17114  10.399  41.697  11.814
44800W        W17115  31.435  24.242   2.880
44801W        W17116   0.019  19.727   3.061
44802W        W17117  24.270  39.615   3.220
44803W        W17118  43.042  36.364  12.858
44804W        W17119  44.565   0.335   2.329
44805W        W17120  41.529  13.803  10.595
44806W        W17121  25.328  29.648   0.783
44807W        W17122  13.404  32.811   3.410
44808W        W17123  16.402  25.824   4.977
44809W        W17124  21.168  16.835   1.675
44810W        W17125  43.398  18.918  14.309
44811W        W17126  43.666  10.308   5.036
44812W        W17127  21.724   0.208  11.585
44813W        W17128  35.021  39.037  13.146
44814W        W17129  32.296  13.575   0.250
44815W        W17130   7.280  11.616   0.254
44816W        W17131  12.148  37.182  14.956
44817W        W17132   8.896  38.619  13.041
44818W        W17133  26.014  42.610  13.993
44819W        W17134  44.158  24.149  13.534
44820W        W17135  37.619   5.842  12.522
44821W        W17136   9.065  18.116  11.528
44822W        W17137   6.468   0.062   3.844
44823W        W17138  25.230  27.102  12.821
44824W        W17139  21.784  25.256  11.678
44825W        W17140  42.166  42.543  13.375
44826W        W17141  17.061  39.790   1.386
44827W        W17142  15.567  34.426  10.219
44828W        W17143  18.712   3.021  12.093
44829W        W17144  16.092  29.466   3.390
44830W        W17145  26.067  12.880  14.708
44831W        W17146  25.761  18.267   9.986
44832W        W17147  27.175  22.983  10.592
44833W        W17148  29.308  12.804   0.157
44834W        W17149  23.009  37.136   1.428
44835W        W17150  31.381   5.696  14.057
44836W        W17151   4.625   2.846  12.972
44837W        W17152  32.501  30.162   0.054
44838W        W17153   1.786  34.924   2.724
44839W        W17154  19.537  35.962  11.527
44840W        W17155   6.727  35.858   1.018
44841W        W17156  23.093  23.017  10.980
44842W        W17157  18.322   6.186   3.885
44843W        W17158  13.280  14.987   0.894
44844W        W17159  32.384  22.855   4.361
44845W        W17160  42.446  30.165   0.481
44846W        W17161  17.424  23.678   4.625
44847W        W17162  13.349   3.634  14.263
44848W        W17163  15.632  19.687  12.000
44849W        W17164  37.500  15.086  14.562
44850W        W17165  14.146   8.533  14.973
44851W        W17166  31.021   6.096   3.658
44852W        W17167   1.015   7.930   3.677
44853W        W17168  30.250  32.352  12.048
44854W        W17169   8.275  35.450  13.021
44855W        W17170  31.139  13.193  12.027
44856W        W17171   5.731   0.761   0.204
44857W        W17172  25.015  19.239  13.984
44858W        W17173  15.769  14.893  12.894
44859W        W17174  18.067  29.150  14.409
44860W        W17175  12.016  20.396   3.264
44861W        W17176   5.220  25.409   1.419
44862W        W17177   2.311  15.002   2.898
44863W        W17178  44.443  16.063   2.705
44864W        W17179   3.304  24.855   2.016
44865W        W17180  33.887  37.533   4.510
44866W        W17181  38.444  33.871   4.888
44867W        W17182  20.528   4.190  11.660
44868W        W17183  13.218   7.217  12.006
44869W        W17184  42.513  43.228  12.549
44870W        W17185   5.152  42.578  10.797
44871W        W17186   1.822  33.466  13.060
44872W        W17187  33.146  39.018   0.522
44873W        W17188   0.388  30.029  12.404
44874W        W17189  28.729   2.271   2.741
44875W        W17190  30.598  39.904  10.510
44876W        W17191  14.095  21.070   4.593
44877W        W17192  44.375   4.958   1.180
44878W        W17193  30.729  41.348  14.623
44879W        W17194   7.726  11.373   1.135
44880W        W17195  32.771  39.954   1.756
44881W        W17196  36.851   4.456  14.538
44882W        W17197  14.861  35.211  14.476
44883W        W17198   4.827   4.402   3.624
44884W        W17199  32.678  19.657   2.335
44885W        W17200  39.940   8.142   0.425
44886W        W17201  33.969  12.842  14.572
44887W        W17202  36.446  38.260  11.562
44888W        W17203  37.576  19.778  13.861
44889W        W17204  19.467  16.806   3.177
44890W        W17205  33.573  43.046   4.405
44891W        W17206  16.333  15.120   0.776
44892W        W17207   1.295   9.592   1.847
44893W        W17208   2.720  38.136   2.643
44894W        W17209   7.304   8.868  12.422
44895W        W17210  44.303  30.544   0.347
44896W        W17211  14.308  15.587  11.456
44897W        W17212  30.539  31.034   1.317
44898W        W17213  14.434  32.793   3.314
44899W        W17214  13.529  41.992  12.421
44900W        W17215   0.419  20.120  14.284
44901W        W17216  32.952  42.164  12.424
44902W        W17217  17.118  21.163   1.874
44903W        W17218  25.307  15.118  11.116
44904W        W17219  31.157  40.659  11.036
44905W        W17220  24.493  13.375   3.202
44906W        W17221  33.948  17.866  14.332
44907W        W17222  17.088  35.102  10.676
44908W        W17223  41.976  15.250   0.814
44909W        W17224  43.213  23.535   3.290
44910W        W17225   2.795  22.498  14.360
44911W        W17226  29.229   1.030   1.920
44912W        W17227  27.519  34.887  11.613
44913W        W17228  38.608  25.040   4.440
44914W        W17229  27.994  23.105   3.215
44915W        W17230   1.271  38.386  14.003
44916W        W17231   7.190  40.121  13.930
44917W        W17232  25.520   2.750   3.534
44918W        W17233   6.862  37.008   3.646
44919W        W17234  44.143  27.070   2.403
44920W        W17235   1.466   9.105  12.462
44921W        W17236  19.898  13.146   0.426
44922W        W17237  21.152  35.297   1.835
44923W        W17238  34.881  24.098   4.549
44924W        W17239  37.279   6.388   0.236
44925W        W17240  21.116  38.269  10.346
44926W        W17241  30.613  23.596  10.835
44927W        W17242  34.897  34.287   1.714
44928W        W17243  34.503  43.558  13.270
44929W        W17244  33.607  11.357   3.660
44930W        W17245   7.903  20.542   0.424
44931W        W17246  22.335  23.121   3.283
44932W        W17247  27.460  10.859   2.240
44933W        W17248  19.367   9.913   0.956
44934W        W17249  29.898   5.768  10.674
44935W        W17250  34.129  36.134   4.132
44936W        W17251  15.291  18.680   0.818
44937W        W17252  23.198   7.954   1.001
44938W        W17253  33.365  34.124  14.992
44939W        W17254  31.001   3.776  13.859
44940W        W17255  29.736  37.539   3.556
44941W        W17256  37.078   1.529   4.056
44942W        W17257  32.112   7.449   9.943
44943W        W17258  42.987  39.686  12.957
44944W        W17259   7.870  35.077  10.625
44945W        W17260  44.348  42.246  13.913
44946W        W17261  44.383  19.525   1.092
44947W        W17262  34.453  13.197  13.375
44948W        W17263   2.207   9.432   4.177
44949W        W17264   6.620  19.177  14.679
44950W        W17265   6.243   8.164  13.473
44951W        W17266   4.374  14.560  12.032
44952W        W17267  11.868  16.527  12.572
44953W        W17268  26.310  31.617   4.289
44954W        W17269  40.382  16.037   1.407
44955W        W17270  44.812  32.220   2.352
44956W        W17271  37.575  43.790  12.030
44957W        W17272  22.847  39.831  12.626
44958W        W17273  32.537  37.158   2.419
44959W        W17274  38.390  29.570   1.851
44960W        W17275  39.603   3.731  14.801
44961W        W17276  24.988  28.876  13.299
44962W        W17277  37.463  42.501  13.087
44963W        W17278  12.349   2.361  11.565
44964W        W17279  21.498  23.629  11.946
44965W        W17280  25.972  19.215   4.136
44966W        W17281   5.358  10.979  12.477
44967W        W17282  17.836  41.994  11.125
44968W        W17283  24.017   7.127  11.584
44969W        W17284   7.823   1.493  13.993
44970W        W17285   6.954  31.760  13.411
44971W        W17286  31.708  40.077   2.715
44972W        W17287  40.445   7.649  13.044
44973W        W17288  39.511  33.804   0.463
44974W        W17289   8.934  13.712  12.683
44975W        W17290   7.265  23.432  13.359
44976W        W17291  16.760  10.713   0.470
44977W        W17292  25.516  44.306   0.755
44978W        W17293  32.970  32.050  12.596
44979W        W17294   6.421   7.644   1.979
44980W        W17295  29.689  31.599  13.919
44981W        W17296  36.425  38.584  14.342
44982W        W17297  19.341  38.187   4.082
44983W        W17298  24.248  29.561  12.539
44984W        W17299   3.050  40.246  11.559
44985W        W17300   1.510  20.077   1.228
44986W        W17301  24.908  16.040  11.247
44987W        W17302  32.559   8.499  12.519
44988W        W17303  22.225  25.441  10.654
44989W        W17304  41.546   6.327   2.681
44990W        W17305   1.896   6.741   3.504
44991W        W17306  26.822  10.017  13.780
44992W        W17307  21.364  31.903  13.001
44993W        W17308  37.468  40.060  10.122
44994W        W17309   4.595  41.117   2.299
44995W        W17310  39.433  14.151  10.718
44996W        W17311  12.286   5.644   1.381
44997W        W17312  16.147  30.993   3.801
44998W        W17313  17.133   1.456  11.910
44999W        W17314  19.579   1.690   1.859
45000W        W17315  21.023  29.458  12.662
45001W        W17316  36.788  38.175   1.238
45002W        W17317  18.132  23.694   3.115
45003W        W17318  25.133  27.262  10.896
45004W        W17319   9.801  14.822   1.881
45005W        W17320  43.354  32.878   3.668
45006W        W17321  42.973  29.725   4.092
45007W        W17322  40.318  22.421  13.780
45008W        W17323  13.612  37.334  12.400
45009W        W17324  35.343  39.858   2.829
45010W        W17325  10.729  25.471  13.293
45011W        W17326  18.295  34.698  12.422
45012W        W17327  40.361  22.536  11.169
45013W        W17328  32.075  24.005   3.674
45014W        W17329   9.656  26.526   2.668
45015W        W17330  30.557  25.748  11.559
45016W        W17331  36.050  28.940  13.824
45017W        W17332  40.947  41.087   1.559
45018W        W17333  19.245  15.784   0.407
45019W        W17334  34.560  23.273  13.579
45020W        W17335  19.180   8.593   2.643
45021W        W17336  29.113   0.055  13.938
45022W        W17337  31.895  17.134  12.849
45023W        W17338   1.997  24.722   1.648
45024W        W17339   1.002  11.715   4.868
45025W        W17340  14.397   3.023   2.834
45026W        W17341  32.977  20.540  11.630
45027W        W17342  10.841   2.177   4.058
45028W        W17343   1.388   6.249   3.765
45029W        W17344  23.532  38.052  11.620
45030W        W17345  17.679   3.927  10.534
45031W        W17346  34.051  22.302  13.827
45032W        W17347  31.328  29.210   0.482
45033W        W17348  41.296  44.496  10.453
45034W        W17349  33.006  43.280   1.789
45035W        W17350   5.187  24.699   4.088
45036W        W17351  18.385  37.041  14.324
45037W        W17352  38.812  31.485  12.023
45038W        W17353  25.785   6.225  12.916
45039W        W17354  39.866   1.840  13.109
45040W        W17355  31.936   5.298   0.958
45041W        W17356   2.922  14.225  11.619
45042W        W17357   6.822  33.560   3.192
45043W        W17358   1.227  23.529   0.977
45044W        W17359  43.549  36.680  13.934
45045W        W17360   6.872  18.581   4.276
45046W        W17361  30.966  21.161   2.399
45047W        W17362  43.443  36.659  14.791
45048W        W17363  30.133  34.019   2.815
45049W        W17364  42.441   2.505  14.378
45050W        W17365   4.384  19.261  12.295
45051W        W17366  43.284  11.058   0.304
45052W        W17367   7.831  33.356   2.779
45053W        W17368  44.297   3.279  10.616
45054W        W17369  17.823   3.970   4.674
45055W        W17370   1.784  34.386   1.833
45056W        W17371  15.848  31.451  13.930
45057W        W17372   6.971  27.327  12.640
45058W        W17373  20.213   5.267   3.613
45059W        W17374  40.339   1.419   2.282
45060W        W17375  20.558  26.238   4.771
45061W        W17376  15.875  12.674   0.345
45062W        W17377  14.330  33.019   2.830
45063W        W17378  41.876  24.887  10.859
45064W        W17379  23.763   4.683   5.186
45065W        W17380  29.577   1.748   1.272
45066W        W17381  23.686   2.164   0.794
45067W        W17382  19.627  22.090   2.687
45068W        W17383  39.876  28.541  12.625
45069W        W17384  43.857  43.537   2.774
45070W        W17385  31.488  22.897   3.204
45071W        W17386  35.409  44.095  13.411
45072W        W17387  43.050  25.182  13.874
45073W        W17388  34.296  30.844  13.492
45074W        W17389  35.655  21.686   3.717
45075W        W17390   1.320  14.763  10.670
45076W        W17391  21.309  19.161  14.501
45077W        W17392  34.957  26.211  12.440
45078W        W17393   3.180  13.043   1.379
45079W        W17394   9.381  18.802   5.020
45080W        W17395   4.446  35.476  12.838
45081W        W17396   9.655  26.846   4.825
45082W        W17397  22.512   2.455  12.705
45083W        W17398  22.165  41.188   0.229
45084W        W17399  34.630  11.883   4.235
45085W        W17400  18.278  21.173   2.872
45086W        W17401   6.502  27.690   3.186
45087W        W17402  40.818  34.489   0.276
45088W        W17403  29.001  41.893   4.125
45089W        W17404  27.448  32.105  11.515
45090W        W17405   3.376  43.413   4.674
45091W        W17406  35.854   2.846  14.204
45092W        W17407  13.944  27.697   0.325
45093W        W17408  23.972  34.403   3.612
45094W        W17409  41.002  25.493   2.431
45095W        W17410  18.750  18.771   2.342
45096W        W17411  18.496  14.387  12.102
45097W        W17412  38.040  15.361  10.495
45098W        W17413  27.077  19.621   4.533
45099W        W17414  12.721   1.201  10.872
45100W        W17415  32.532  34.619   4.205
45101W        W17416  39.717   0.722   4.457
45102W        W17417  30.573  30.457  10.415
45103W        W17418  31.683  39.634  13.956
45104W        W17419  40.908  13.545   3.541
45105W        W17420  16.717  27.262   4.608
45106W        W17421  15.001  29.955   4.135
45107W        W17422  28.323  30.885   1.757
45108W        W17423  28.651  31.451  14.620
45109W        W17424   3.856  20.872  11.402
45110W        W17425  25.265  34.097  11.274
45111W        W17426   0.497  26.357   0.411
45112W        W17427  29.442  31.202  11.945
45113W        W17428  44.784  17.559   3.984
45114W        W17429  42.280  21.943   2.260
45115W        W17430   3.199  32.832  10.204
45116W        W17431  40.818   4.701  13.144
45117W        W17432  33.598  35.845  11.598
45118W        W17433  40.190  37.082  12.508
45119W        W17434   8.535  12.636   4.254
45120W        W17435  37.940   2.922   1.428
45121W        W17436  11.764  43.732   0.796
45122W        W17437  30.119  11.861  14.008
45123W        W17438  24.682   1.908  13.966
45124W        W17439  36.884   4.212  12.071
45125W        W17440  36.115  13.511  13.849
45126W        W17441  18.460   8.231   0.260
45127W        W17442  18.608   9.816   1.662
45128W        W17443  31.510  27.277  12.027
45129W        W17444  22.455   8.225  10.769
45130W        W17445  25.182  30.916   0.222
45131W        W17446  11.744  43.536  13.479
45132W        W17447  37.924  11.744  12.511
45133W        W17448  29.467   9.399  14.263
45134W        W17449  18.729  21.560  10.653
45135W        W17450  21.766  29.550   3.384
45136W        W17451  33.022  15.162   2.896
45137W        W17452   1.406  34.032   1.794
45138W        W17453  22.500  14.727   2.235
45139W        W17454  44.547   8.345   3.738
45140W        W17455  23.282  37.930  11.189
45141W        W17456  24.989  28.926  14.291
45142W        W17457  17.536  16.740  13.312
45143W        W17458   0.180  29.692   2.201
45144W        W17459  44.334  13.967  14.446
45145W        W17460  31.101   6.432   4.616
45146W        W17461  22.544   7.711  10.565
45147W        W17462  15.285  43.357  14.002
45148W        W17463  41.284  27.354   4.206
45149W        W17464  37.187  15.748   2.266
45150W        W17465  13.762  11.443   4.418
45151W        W17466  27.906  22.968  12.987
45152W        W17467  10.426  28.342  13.877
45153W        W17468  39.565  40.728  10.176
45154W        W17469  10.660  36.510  12.593
45155W        W17470   6.077  24.969   5.037
45156W        W17471  21.418  37.934   1.842
45157W        W17472  25.572  15.664   2.564
45158W        W17473   5.323  21.138   4.643
45159W        W17474  34.054  38.355   1.813
45160W        W17475  21.109  20.921  11.654
45161W        W17476  26.011  35.316   3.782
45162W        W17477  19.543  34.904   4.288
45163W        W17478  40.369  32.338   1.993
45164W        W17479  44.253  28.823   0.916
45165W        W17480   3.760  26.978  13.618
45166W        W17481  21.133  10.819   4.151
45167W        W17482   0.109   7.369  14.997
45168W        W17483  43.296  16.624   3.712
45169W        W17484   7.760  32.901   1.022
45170W        W17485  13.942  44.840   2.394
45171W        W17486  35.654   6.652  11.596
45172W        W17487  38.247  23.513  11.008
45173W        W17488   4.894   9.308   0.899
45174W        W17489  41.448  19.833  12.863
45175W        W17490  43.306  16.284  12.977
45176W        W17491   9.249  34.554   4.574
45177W        W17492  26.935  37.806   0.772
45178W        W17493  13.558  21.026  12.947
45179W        W17494  11.246  40.400   2.654
45180W        W17495  32.007  13.306   0.891
45181W        W17496  33.431  32.472   4.738
45182W        W17497  14.152  10.361  11.062
45183W        W17498  25.041  21.828   4.085
45184W        W17499  11.148  16.675  10.093
45185W        W17500  12.565  11.805  14.893
45186W        W17501  41.770  10.551   2.554
45187W        W17502   5.820  34.393  12.540
45188W        W17503   5.938  19.305   0.307
45189W        W17504   2.732  36.981   4.943
45190W        W17505  12.559  35.602  10.906
45191W        W17506  24.399  34.545  13.677
45192W        W17507  30.031  26.494  12.652
45193W        W17508  26.671  37.241   2.146
45194W        W17509  22.614   0.986   3.375
45195W        W17510   1.961  40.087  14.797
45196W        W17511  20.973  26.850  10.223
45197W        W17512  38.905  20.426   4.344
45198W        W17513  33.104  44.332  12.054
45199W        W17514  20.716  37.814   1.235
45200W        W17515  35.105  10.488   4.694
45201W        W17516  16.149  44.405  11.899
45202W        W17517   9.453  32.635   4.550
45203W        W17518   2.173   6.250  14.936
45204W        W17519  14.212  13.502  12.512
45205W        W17520  40.889  28.669  11.240
45206W        W17521  14.342  29.568   2.420
45207W        W17522  34.909  15.211  13.576
45208W        W17523  20.517  24.705  14.308
45209W        W17524   9.530   9.247  14.042
45210W        W17525  28.892  32.583  11.446
45211W        W17526  18.648  16.010   2.747
45212W        W17527  37.304  24.547   1.490
45213W        W17528   3.389  13.558  10.599
45214W        W17529  18.532  31.032   3.254
45215W        W17530   9.235   2.685  11.919
45216W        W17531  20.857  17.870  14.842
45217W        W17532  11.645   1.782   3.182
45218W        W17533  28.158   3.989   4.017
45219W        W17534  22.145   4.769  10.993
45220W        W17535   3.734  18.592  12.766
45221W        W17536  26.994  17.755  13.169
45222W        W17537  29.914  18.165   0.201
45223W        W17538  37.013  28.098  12.538
45224W        W17539  32.436  18.148   4.030
45225W        W17540  41.552   8.626   3.290
45226W        W17541  22.000  16.484   3.620
45227W        W17542  25.834  31.487   4.100
45228W        W17543   9.426  44.804   1.789
45229W        W17544  36.562  12.166   2.627
45230W        W17545  41.925  11.329   2.233
45231W        W17546  42.314  33.538  11.960
45232W        W17547  16.817  33.338  13.430
45233W        W17548  40.903   9.461  12.457
45234W        W17549   9.263  41.384   0.572
45235W        W17550   3.292  17.178  14.743
45236W        W17551  37.160  21.191   0.437
45237W        W17552  23.481  10.802  14.308
45238W        W17553  29.496   1.004   1.071
45239W        W17554  38.931  35.921  11.459
45240W        W17555  35.144  29.916   3.863
45241W        W17556   2.986  43.730   2.453
45242W        W17557  29.975  11.090   0.471
45243W        W17558  27.014   7.264  12.404
45244W        W17559   1.930  10.135  13.094
45245W        W17560   6.830  21.379  13.071
45246W        W17561  28.882  19.316  13.042
45247W        W17562   9.740  15.756  11.293
45248W        W17563   2.520  12.264  12.093
45249W        W17564   4.882  21.294  13.815
45250W        W17565  36.348  20.521  14.455
45251W        W17566  25.220   1.741  10.709
45252W        W17567   3.834  28.687  14.391
45253W        W17568  15.040  14.647   0.892
45254W        W17569  24.692  11.913  14.960
45255W        W17570  10.103  28.536  12.369
45256W        W17571  42.565   3.790   4.950
45257W        W17572  25.147  32.487   2.755
45258W        W17573   2.715  14.239  12.564
45259W        W17574  30.154  34.220   1.122
45260W        W17575  38.820   1.238  13.910
45261W        W17576  20.153   7.202   4.652
45262W        W17577   6.260  20.755   1.841
45263W        W17578  35.470   3.717  13.440
45264W        W17579   8.222   6.411  12.288
45265W        W17580  22.004  27.630  11.145
45266W        W17581  40.960  31.761  11.165
45267W        W17582  37.553  14.351  10.838
45268W        W17583  22.561  40.278  14.240
45269W        W17584  39.811  29.103  13.834
45270W        W17585   4.440   4.848   1.031
45271W        W17586   5.252  21.667   3.311
45272W        W17587   0.458  38.614  11.982
45273W        W17588  21.275  13.330  14.314
45274W        W17589  31.100  21.179  12.360
45275W        W17590  29.077  30.671  14.650
45276W        W17591  15.290  36.809   2.680
45277W        W17592  12.239  22.733   4.906
45278W        W17593   4.748  43.313   4.408
45279W        W17594   2.894  37.631   2.634
45280W        W17595   9.431  13.366  12.066
45281W        W17596  31.572  44.966  14.031
45282W        W17597  27.941   5.403  11.805
45283W        W17598  21.567   7.150   2.817
45284W        W17599  19.446  21.635   4.619
45285W        W17600  19.722  20.167   0.076
45286W        W17601   9.871  17.808  12.562
45287W        W17602  18.996  28.024  12.527
45288W        W17603  27.909  41.459   3.214
45289W        W17604  44.584  18.584  11.080
45290W        W17605   0.231  34.435  14.843
45291W        W17606  36.340  40.315   0.859
45292W        W17607   1.038  14.080  10.211
45293W        W17608  39.828  29.118  11.051
45294W        W17609  12.856  17.565   0.940
45295W        W17610   3.183  11.275  10.285
45296W        W17611  14.143  33.407  13.361
45297W        W17612   7.805  21.033   3.042
45298W        W17613  40.426  15.700  14.003
45299W        W17614  32.304  44.358  13.372
45300W        W17615  20.589  15.640   4.856
45301W        W17616  30.620   8.983   0.803
45302W        W17617   9.231  19.169  12.386
45303W        W17618   9.972  24.976  12.095
45304W        W17619  36.014   6.575  14.292
45305W        W17620  23.187  42.348   4.521
45306W        W17621   7.648  37.071   2.322
45307W        W17622  16.181  32.482  14.213
45308W        W17623  13.276  40.433   1.272
45309W        W17624  35.410  19.690  13.354
45310W        W17625   9.146  18.624  12.989
45311W        W17626  22.979  17.269  11.541
45312W        W17627  29.750   7.400  12.059
45313W        W17628   9.146  19.645  12.564
45314W        W17629   2.053  23.053   2.472
45315W        W17630  13.581  10.163   1.449
45316W        W17631  11.940  29.488  14.876
45317W        W17632  18.952  40.256   5.469
45318W        W17633  18.643  10.607   2.305
45319W        W17634  12.699  20.819  11.609
45320W        W17635  26.443  19.662   2.432
45321W        W17636  38.756   5.988  11.226
45322W        W17637  13.266   6.351  10.725
45323W        W17638  20.875  19.524   0.675
45324W        W17639  11.457  15.289   1.821
45325W        W17640  36.844  33.536   1.889
45326W        W17641  12.626  23.650  14.104
45327W        W17642  38.034  38.489  13.485
45328W        W17643  41.489   4.305   4.080
45329W        W17644  31.995   4.927   1.689
45330W        W17645  44.854  28.544   4.151
45331W        W17646  13.151  34.519   5.181
45332W        W17647  28.399   2.439  12.924
45333W        W17648  16.389  40.194   4.143
45334W        W17649  25.953  42.410   0.330
45335W        W17650   1.390  24.051   4.772
45336W        W17651   9.406  17.274  13.134
45337W        W17652  38.064  11.928   3.151
45338W        W17653  35.269  16.224  12.440
45339W        W17654  26.678  12.005  11.519
45340W        W17655  29.834  22.521   0.771
45341W        W17656   2.684   6.799   1.079
45342W        W17657  20.145   2.730  13.558
45343W        W17658   6.396  30.118   2.977
45344W        W17659  17.249  41.318   0.580
45345W        W17660  44.021   8.097  13.930
45346W        W17661   9.001   7.364  11.550
45347W        W17662  22.542  29.389   4.607
45348W        W17663  29.979   8.140  11.113
45349W        W17664  33.044  16.170  11.976
45350W        W17665   0.215  22.597  13.506
45351W        W17666  38.319   8.774  14.624
45352W        W17667  12.072  30.909   3.213
45353W        W17668  39.482  25.157   4.593
45354W        W17669  36.976  11.361   4.159
45355W        W17670  19.281  18.644  12.033
45356W        W17671  19.072  25.693   3.146
45357W        W17672  33.336   3.032   2.305
45358W        W17673  32.412  13.493  11.907
45359W        W17674  15.214  17.829   3.146
45360W        W17675  22.433  28.634   0.938
45361W        W17676  42.122  24.286   2.297
45362W        W17677   5.016  10.889  13.312
45363W        W17678  40.563  40.914  11.378
45364W        W17679  28.004  34.538   2.257
45365W        W17680  41.760  29.307  11.042
45366W        W17681  24.351  18.542  12.108
45367W        W17682  28.059   4.232  11.953
45368W        W17683  37.560   2.133   1.183
45369W        W17684   0.206  27.124  14.930
45370W        W17685  21.370  13.689  12.842
45371W        W17686   9.180  20.484  12.928
45372W        W17687  38.387  35.089  13.187
45373W        W17688  33.842  44.721  14.750
45374W        W17689  37.518  27.562  13.670
45375W        W17690  44.963  30.128  14.076
45376W        W17691  21.932   7.233   0.964
45377W        W17692  23.117  27.604  14.791
45378W        W17693   8.585   5.551  12.494
45379W        W17694  31.928  12.791  13.235
45380W        W17695  27.926  25.652  12.988
45381W        W17696  21.720  29.039  13.036
45382W        W17697  28.169  40.530  14.427
45383W        W17698  31.594   7.238  11.711
45384W        W17699  39.512   1.328   2.679
45385W        W17700  12.909  31.184  12.632
45386W        W17701  29.178  23.998  14.794
45387W        W17702  22.587  19.442  12.413
45388W        W17703  33.805  26.149  14.539
45389W        W17704   3.298  25.412  12.920
45390W        W17705  20.811  15.734   3.311
45391W        W17706  19.515  39.005  13.519
45392W        W17707  14.615   2.158   2.786
45393W        W17708  20.107   4.846  13.462
45394W        W17709  11.800   0.866   4.820
45395W        W17710  31.606  41.489   3.549
45396W        W17711  13.869  23.684   2.219
45397W        W17712  17.507  32.575   1.198
45398W        W17713  12.868  31.476   1.444
45399W        W17714  13.693  26.683  11.977
45400W        W17715  18.791  16.232   2.315
45401W        W17716   3.304  43.616   1.304
45402W        W17717  17.809  11.371   0.808
45403W        W17718   6.840   1.549  11.138
45404W        W17719  26.265   3.436   1.440
45405W        W17720  40.727  19.861   1.394
45406W        W17721  12.160  33.444  13.017
45407W        W17722  27.152  20.802  12.406
45408W        W17723  44.430  22.008   3.302
45409W        W17724  34.988  28.392  10.717
45410W        W17725   2.705  21.050  12.103
45411W        W17726  20.187  37.702  11.707
45412W        W17727  42.798   0.929   2.294
45413W        W17728  20.141  37.932   2.932
45414W        W17729  24.596  39.006  11.527
45415W        W17730  41.528  22.761   4.138
45416W        W17731  36.915  36.997   4.353
45417W        W17732   0.399  28.353   2.039
45418W        W17733  19.980  26.114  12.698
45419W        W17734  21.164  22.971  14.848
45420W        W17735  10.633  31.417   4.193
45421W        W17736   3.422  20.511  14.061
45422W        W17737   5.167  34.395  11.529
45423W        W17738  37.917  30.077   2.420
45424W        W17739  31.931   5.166   2.917
45425W        W17740  21.714  38.941  11.323
45426W        W17741   4.356   0.367   2.715
45427W        W17742   4.703  31.133  12.025
45428W        W17743  36.066  36.517  12.838
45429W        W17744  35.090  41.404   3.386
45430W        W17745  23.721  15.651  12.867
45431W        W17746   0.475   4.856   4.702
45432W        W17747  26.394  38.898   3.726
45433W        W17748  42.200  25.470  10.941
45434W        W17749  32.599   7.325  14.970
45435W        W17750  40.136   8.412  12.840
45436W        W17751  29.022   7.700  14.242
45437W        W17752  19.197  23.589   4.403
45438W        W17753  16.276  33.792   4.211
45439W        W17754   7.884  24.159   2.151
45440W        W17755  28.779  24.227  12.535
45441W        W17756  28.873  44.326   4.402
45442W        W17757  22.442  42.173   3.092
45443W        W17758  41.573  39.045  14.387
45444W        W17759  35.134  30.142  14.996
45445W        W17760  15.724   6.674   0.071
45446W        W17761   3.848  17.309   4.527
45447W        W17762  42.961  43.052  12.746
45448W        W17763  19.151   3.816   4.309
45449W        W17764  41.766  41.968   2.344
45450W        W17765  23.722   7.128  12.377
45451W        W17766   8.927  19.700   1.904
45452W        W17767  14.783  30.380  14.875
45453W        W17768  19.713   3.582  11.600
45454W        W17769  17.048  29.556   3.768
45455W        W17770  38.527  19.766   3.650
45456W        W17771  40.807  37.411   3.250
45457W        W17772  31.131   7.221  11.439
45458W        W17773  19.159  21.671   1.371
45459W        W17774   9.932   7.423   2.783
45460W        W17775   4.380  23.792  11.597
45461W        W17776  36.582  28.417  12.462
45462W        W17777  21.751  27.406   1.815
45463W        W17778  40.669  42.273   0.711
45464W        W17779  39.062  22.742  14.882
45465W        W17780  42.769  15.502   3.760
45466W        W17781  40.351  37.331  14.714
45467W        W17782  14.152   1.260   4.656
45468W        W17783  25.780  29.407  10.874
45469W        W17784   9.069  23.714   2.139
45470W        W17785  24.187  13.110  10.976
45471W        W17786  19.044  20.242  10.805
45472W        W17787  35.637  23.721  12.348
45473W        W17788  38.018   1.312  12.448
45474W        W17789  38.350   0.350  12.339
45475W        W17790  18.738  12.623  10.281
45476W        W17791  42.273   1.227   4.111
45477W        W17792  25.123   8.593   0.479
45478W        W17793  11.234  33.487   2.139
45479W        W17794  26.985  10.263  11.643
45480W        W17795  20.578  37.546  12.670
45481W        W17796  26.348   0.843   2.711
45482W        W17797  31.201  38.521   4.657
45483W        W17798  31.723   6.472   3.784
45484W        W17799  36.965  35.303   2.227
45485W        W17800  37.975  28.930   0.452
45486W        W17801  32.697   3.953   4.048
45487W        W17802   9.957  32.614   3.417
45488W        W17803   1.389  11.224  11.150
45489W        W17804  41.770   8.122  11.114
45490W        W17805  20.201  29.420  11.632
45491W        W17806  42.389  43.280  10.472
45492W        W17807  14.720   9.759  12.048
45493W        W17808  41.453  42.639   1.665
45494W        W17809  23.231  16.824  13.129
45495W        W17810  24.880  22.240   2.773
45496W        W17811   7.922  12.552  12.508
45497W        W17812  40.271   4.918   2.759
45498W        W17813  23.131  13.230   2.794
45499W        W17814  19.292  37.845  14.996
45500W        W17815   3.336   4.942   4.553
45501W        W17816  32.947   4.927   0.773
45502W        W17817  41.212   2.446  12.510
45503W        W17818  16.163  40.442   5.185
45504W        W17819   3.156  11.086   2.674
45505W        W17820   0.256  27.512  11.910
45506W        W17821  35.970  20.954  11.135
45507W        W17822   9.240  15.628   2.905
45508W        W17823  44.004  18.207   0.813
45509W        W17824  29.538  34.008   0.487
45510W        W17825  18.579  31.869  14.768
45511W        W17826  42.133  19.676  12.322
45512W        W17827  19.502  15.018   4.311
45513W        W17828  25.240  24.664  12.841
45514W        W17829  26.898  25.763  12.316
45515W        W17830   4.922   0.939  11.612
45516W        W17831   0.079   0.017  11.473
45517W        W17832  23.750  21.206  12.909
45518W        W17833   8.205  18.193   0.888
45519W        W17834   3.975  34.634  14.482
45520W        W17835  19.128  32.210  13.432
45521W        W17836  33.389  40.445   0.341
45522W        W17837  41.559  44.792  11.115
45523W        W17838  34.205   3.072  12.005
45524W        W17839   1.267   3.156  13.920
45525W        W17840  41.808  31.226   3.760
45526W        W17841  32.097  17.506  10.915
45527W        W17842  15.101  24.571  12.388
45528W        W17843  26.467  35.902   2.847
45529W        W17844  11.265  12.570  13.868
45530W        W17845  31.592   2.237   3.438
45531W        W17846   5.934  22.606   3.520
45532W        W17847  31.805  30.128   1.899
45533W        W17848  20.299  19.702  14.870
45534W        W17849   9.805  28.522   4.366
45535W        W17850   9.672  41.135  13.011
45536W        W17851   5.416  28.032  14.376
45537W        W17852  14.163   4.743   2.594
45538W        W17853  44.608  16.235   0.784
45539W        W17854  26.610  26.373   0.792
45540W        W17855  10.881  14.217   2.703
45541W        W17856  37.893  37.529  14.263
45542W        W17857  16.511   9.141  12.813
45543W        W17858  34.639  27.490   3.684
45544W        W17859  31.169  20.095  14.253
45545W        W17860   2.248  30.681   5.046
45546W        W17861  15.967  25.605   3.307
45547W        W17862  20.749  27.747  12.520
45548W        W17863  41.817  12.265   3.795
45549W        W17864   5.445   2.453  11.707
45550W        W17865  17.668  33.566  12.863
45551W        W17866  11.891  27.031   3.755
45552W        W17867   1.238  32.100  14.869
45553W        W17868  20.671  20.809   4.880
45554W        W17869  25.240  26.053  14.922
45555W        W17870  33.227  42.436  14.816
45556W        W17871  31.856  27.497   3.041
45557W        W17872  27.811  27.071  13.964
45558W        W17873  40.932  17.441  12.894
45559W        W17874  24.313  27.968  12.973
45560W        W17875  19.399  20.703   3.374
45561W        W17876   4.935  11.376   4.189
45562W        W17877  35.065   7.184  13.452
45563W        W17878  14.232  38.860  10.923
45564W        W17879  19.658  10.864  10.213
45565W        W17880   7.060  21.363  13.531
45566W        W17881  28.603  38.464   1.373
45567W        W17882  21.019   2.828  13.557
45568W        W17883  43.716   0.350   4.157
45569W        W17884  41.520  15.516   2.836
45570W        W17885  18.209  26.010  10.637
45571W        W17886  43.986  25.577   4.637
45572W        W17887   0.921   7.180   0.398
45573W        W17888   0.390  25.520   3.885
45574W        W17889  23.430  37.817  14.889
45575W        W17890  20.704  18.319   4.221
45576W        W17891  13.018  33.058  14.665
45577W        W17892  18.635  29.175  13.804
45578W        W17893   6.989  34.920   0.963
45579W        W17894  33.549  38.428  11.159
45580W        W17895  17.776  24.666   0.822
45581W        W17896  19.253  32.079   0.503
45582W        W17897  32.445   1.928  13.913
45583W        W17898  27.878  43.844   2.402
45584W        W17899  37.426  13.843  13.909
45585W        W17900  26.186  32.496   0.262
45586W        W17901  39.992   2.320   0.319
45587W        W17902  24.691   3.170   3.309
45588W        W17903  42.930  36.890   1.570
45589W        W17904  15.876  19.540   3.447
45590W        W17905  22.759  31.999   2.339
45591W        W17906   0.762  33.142  14.031
45592W        W17907   2.258  31.451  10.433
45593W        W17908  42.354  33.091   0.382
45594W        W17909  15.443  16.589  14.156
45595W        W17910  11.516  36.111   4.998
45596W        W17911  39.539  26.308   4.705
45597W        W17912  20.752  27.662  14.501
45598W        W17913  15.110   5.323  12.528
45599W        W17914  36.351  41.410  11.723
45600W        W17915  14.872  29.748  11.970
45601W        W17916   1.293   5.431   2.868
45602W        W17917   5.288  27.270   4.173
45603W        W17918  41.314  39.581  10.743
45604W        W17919  20.456   9.856   1.957
45605W        W17920  22.104  40.546  11.218
45606W        W17921  18.598  41.066  10.324
45607W        W17922  10.252  19.280   3.219
45608W        W17923   5.181  16.245  10.737
45609W        W17924   3.561   9.825  12.102
45610W        W17925   9.426  37.948   4.104
45611W        W17926  16.367  31.256  10.534
45612W        W17927  35.265  21.643   3.374
45613W        W17928  19.190  43.406   3.758
45614W        W17929  10.413  22.223  10.914
45615W        W17930  38.561  11.800   5.076
45616W        W17931  26.187  31.185  11.850
45617W        W17932  11.432  16.158   3.057
45618W        W17933   1.952  34.733   1.449
45619W        W17934  25.709  14.261  12.141
45620W        W17935   7.091   9.549   2.350
45621W        W17936   1.909  27.972   0.427
45622W        W17937  20.627   1.752  10.739
45623W        W17938  30.728  14.301  14.787
45624W        W17939   0.028  16.677   3.206
45625W        W17940   7.991   5.818  14.406
45626W        W17941  12.245  11.777   4.342
45627W        W17942  11.915  15.356   0.105
45628W        W17943  38.511  37.389  14.070
45629W        W17944  35.588  30.138   3.663
45630W        W17945  16.342  22.037  14.076
45631W        W17946  38.758   1.961  14.170
45632W        W17947  12.781  15.156  14.997
45633W        W17948   3.880   8.673  10.439
45634W        W17949  29.990  43.251   0.959
45635W        W17950  20.088  29.598   2.709
45636W        W17951  32.099  17.259   4.247
45637W        W17952  39.056   9.328  14.578
45638W        W17953  34.301  37.969  13.082
45639W        W17954   5.673  15.576   0.930
45640W        W17955   2.020   5.124   0.883
45641W        W17956  13.681  38.949   1.536
45642W        W17957  44.952  24.205   4.736
45643W        W17958   4.777  15.665  13.030
45644W        W17959   2.041  33.472   0.110
45645W        W17960  35.398  32.423  13.333
45646W        W17961  34.439  43.443   2.253
45647W        W17962  44.334   3.266  14.958
45648W        W17963  29.330  20.033  13.871
45649W        W17964  23.184   8.221  14.928
45650W        W17965   2.822   9.401  14.852
45651W        W17966  44.720  36.376   4.771
45652W        W17967   8.891  33.068  13.945
45653W        W17968  36.783   1.124   2.143
45654W        W17969  22.431  10.357  12.056
45655W        W17970  34.119  15.710  12.005
45656W        W17971  39.020  18.548  14.300
45657W        W17972   2.917   0.793   1.858
45658W        W17973   2.361  29.254   1.671
45659W        W17974  30.477  13.089   1.396
45660W        W17975   4.900  29.689  12.056
45661W        W17976  39.593  29.012   1.606
45662W        W17977  15.117  31.687  13.347
45663W        W17978  31.759  40.525   2.466
45664W        W17979  10.148   1.799   4.669
45665W        W17980  44.277  32.551  14.536
45666W        W17981  34.028  25.960  13.382
45667W        W17982  43.553  12.798   2.324
45668W        W17983  25.536   7.953   4.798
45669W        W17984   1.954  25.532  12.880
45670W        W17985  30.615   1.895  12.055
45671W        W17986  11.669   7.442  10.280
45672W        W17987  12.182  41.381  12.264
45673W        W17988  23.585  39.125   0.160
45674W        W17989  44.847  11.281   1.420
45675W        W17990  37.074  19.039  11.271
45676W        W17991  10.900  44.035  11.123
45677W        W17992  35.913  44.330  13.867
45678W        W17993  38.053  16.429   1.550
45679W        W17994  26.505  36.118  14.896
45680W        W17995  13.848   1.230   4.219
45681W        W17996  42.099  42.473  11.932
45682W        W17997   4.191  11.792  11.038
45683W        W17998  15.616  26.885   9.957
45684W        W17999  34.818  27.767   4.949
45685W        W18000   2.792  11.155  13.449
45686W        W18001   0.272  14.360  14.360
45687W        W18002  34.684  42.446  14.718
45688W        W18003  37.957   5.913  12.900
45689W        W18004  39.039  29.717   3.626
45690W        W18005  42.777  29.384   0.251
45691W        W18006  20.955  42.344   0.920
45692W        W18007   7.639  33.156  12.875
45693W        W18008   6.989  16.627   2.687
45694W        W18009  34.354  30.036  10.508
45695W        W18010   6.110  20.979  13.369
45696W        W18011  17.126  37.091   4.863
45697W        W18012  10.582  24.353  11.625
45698W        W18013  36.399  20.480  13.079
45699W        W18014  23.758  44.831  12.005
45700W        W18015  20.928   6.472   1.419
45701W        W18016  34.435  16.340  13.520
45702W        W18017   7.314  12.689   3.828
45703W        W18018  19.534  17.095  12.480
45704W        W18019  44.960  23.089  14.360
45705W        W18020  26.763  20.989  14.452
45706W        W18021  27.216  12.099  11.569
45707W        W18022  23.196  17.561   2.955
45708W        W18023   2.083   8.701   0.560
45709W        W18024   4.983   5.340   2.259
45710W        W18025  43.594  40.758  11.725
45711W        W18026  20.304   1.926  14.042
45712W        W18027  35.605  23.211   0.015
45713W        W18028   1.761  42.942   2.272
45714W        W18029  42.763  21.981   0.689
45715W        W18030  23.523  44.963  12.958
45716W        W18031  37.078  11.766   3.228
45717W        W18032  38.098   8.536   1.359
45718W        W18033   9.041  17.933   5.142
45719W        W18034  32.939  30.872  12.912
45720W        W18035   2.736  36.358  12.478
45721W        W18036   8.271  17.062  11.625
45722W        W18037  22.680  42.560   2.855
45723W        W18038  40.994  27.528  14.008
45724W        W18039  13.190  25.353   3.812
45725W        W18040  37.428   1.795  13.051
45726W        W18041  17.328  12.223  11.017
45727W        W18042  39.381  26.068   0.845
45728W        W18043  38.043  33.089   2.688
45729W        W18044  35.037  41.508   4.186
45730W        W18045   2.420  20.597  12.565
45731W        W18046   4.785  36.494   2.662
45732W        W18047  27.382  35.596   2.234
45733W        W18048  29.541  41.506   4.308
45734W        W18049  27.033   7.621   2.495
45735W        W18050  27.565   9.465  13.937
45736W        W18051  18.115  14.781   2.902
45737W        W18052  20.489  27.599   4.787
45738W        W18053  33.354  10.369   1.100
45739W        W18054  22.994  11.407   4.248
45740W        W18055   5.303   2.477   2.774
45741W        W18056   6.312  37.547   3.046
45742W        W18057  25.625  15.128  10.716
45743W        W18058   4.840   3.730   4.076
45744W        W18059  40.496  17.350  13.669
45745W        W18060  32.081   2.986  12.501
45746W        W18061  25.059  24.633   3.297
45747W        W18062  40.485  13.374  14.347
45748W        W18063  19.104  42.914  14.345
45749W        W18064  31.804  24.820   3.275
45750W        W18065   5.215  31.847  14.945
45751W        W18066   8.147  16.042   2.750
45752W        W18067  35.905  42.330  11.035
45753W        W18068  27.102  38.898   3.232
45754W        W18069  27.106  29.823   0.440
45755W        W18070  35.634   0.353  13.923
45756W        W18071  32.097  14.652   4.894
45757W        W18072  17.057  41.081  10.751
45758W        W18073  24.002  26.507   0.696
45759W        W18074  28.004   9.344  12.341
45760W        W18075  24.529   5.749   4.698
45761W        W18076  39.869  42.951   1.394
45762W        W18077   3.854  19.752  11.985
45763W        W18078   4.061  39.498   0.692
45764W        W18079   1.766  24.592  11.538
45765W        W18080   0.271   8.040   2.283
45766W        W18081   8.895   7.376   2.699
45767W        W18082   2.799  24.636  13.077
45768W        W18083  31.353   5.719  12.552
45769W        W18084  16.143  11.272   0.984
45770W        W18085  31.535   3.762   2.350
45771W        W18086  23.722  15.145  13.002
45772W        W18087  44.458  40.865  14.289
45773W        W18088   1.342  15.339   4.870
45774W        W18089   5.023  12.399  10.752
45775W        W18090  13.928  12.007   2.848
45776W        W18091  13.102  43.810  14.967
45777W        W18092  32.987  42.526  11.623
45778W        W18093  19.278  17.128   3.689
45779W        W18094  36.382   1.910  13.740
45780W        W18095   5.389  14.748   5.030
45781W        W18096  42.956  14.572  11.749
45782W        W18097  22.040  10.936   4.098
45783W        W18098  33.848  16.302   2.286
45784W        W18099  43.705  41.999   2.240
45785W        W18100  15.964  24.639   0.914
45786W        W18101  38.859  22.513  11.940
45787W        W18102  16.840  18.796  12.117
45788W        W18103  38.075  12.568  11.953
45789W        W18104  36.526   2.364   2.859
45790W        W18105  17.640   1.529   0.255
45791W        W18106  22.726  41.052  11.195
45792W        W18107  25.893   0.784   0.548
45793W        W18108  37.508  16.540   2.793
45794W        W18109  14.094   5.221  14.375
45795W        W18110  39.913   7.297   0.951
45796W        W18111   0.991  18.192  14.929
45797W        W18112  17.530  24.557   1.763
45798W        W18113   9.370  18.075  13.822
45799W        W18114   6.548   4.683  10.150
45800W        W18115  15.849  12.625   4.121
45801W        W18116  40.960  43.910   4.204
45802W        W18117   1.251  19.783  12.016
45803W        W18118  10.110  30.989   4.111
45804W        W18119  23.672  24.068   4.205
45805W        W18120   0.757  23.465   3.743
45806W        W18121  32.444  29.154  11.140
45807W        W18122  21.390  26.146   3.038
45808W        W18123  30.495  33.942  10.341
45809W        W18124  37.131  34.292  12.090
45810W        W18125  12.675  35.950   0.325
45811W        W18126  39.044  10.600  11.565
45812W        W18127  19.402   5.586   0.236
45813W        W18128  12.086  39.765   0.754
45814W        W18129  32.508   7.650   2.697
45815W        W18130  16.415  43.884  10.443
45816W        W18131  32.074  10.167  13.040
45817W        W18132  30.347  34.982  12.533
45818W        W18133   5.959  41.635  12.519
45819W        W18134  19.266  38.340   0.280
45820W        W18135   3.195  29.171   1.639
45821W        W18136  20.601   0.990  12.570
45822W        W18137   3.875  12.086   4.658
45823W        W18138  24.024  41.720   4.834
45824W        W18139  44.685  21.669  10.573
45825W        W18140  14.157  43.986   4.355
45826W        W18141  42.811  29.501   4.936
45827W        W18142  39.555  32.314   4.139
45828W        W18143  15.898   4.984  12.448
45829W        W18144  33.459  41.496   1.673
45830W        W18145   4.468   2.500   0.187
45831W        W18146  28.974  28.770  14.494
45832W        W18147  14.343  37.417   2.005
45833W        W18148   9.700  38.765   1.405
45834W        W18149  20.271   8.161   3.237
45835W        W18150  34.802  33.517  12.061
45836W        W18151  22.864   8.575  10.818
45837W        W18152  12.759  26.002  13.316
45838W        W18153  23.432   8.795  13.002
45839W        W18154  39.537  32.927   0.907
45840W        W18155   1.758  30.973   2.475
45841W        W18156   0.145  14.232   0.758
45842W        W18157  38.830   6.514   2.786
45843W        W18158  30.463  15.886  11.941
45844W        W18159   0.242  25.961   3.668
45845W        W18160  13.373  40.465   2.278
45846W        W18161  42.917  29.877   4.587
45847W        W18162  29.813   4.610   2.088
45848W        W18163  29.356  32.170  12.023
45849W        W18164   6.868  20.003  12.582
45850W        W18165  28.457  10.447   4.483
45851W        W18166  36.660  11.862  12.006
45852W        W18167  17.510   3.669  11.896
45853W        W18168  41.265  19.753  14.405
45854W        W18169  29.705  41.063   1.896
45855W        W18170  22.531   3.724   3.229
45856W        W18171  17.103  39.477  11.043
45857W        W18172  11.100  38.475  14.335
45858W        W18173   3.089  22.149  12.849
45859W        W18174   2.266  43.043   2.235
45860W        W18175  12.921  35.298  12.569
45861W        W18176  36.416  26.707   5.027
45862W        W18177  25.710  38.147  13.572
45863W        W18178  28.398  36.906   4.510
45864W        W18179  25.150   0.464   3.940
45865W        W18180  32.884  41.975  14.538
45866W        W18181  23.010  15.883  13.474
45867W        W18182   9.426  23.728   0.840
45868W        W18183  14.237  44.603   0.893
45869W        W18184  14.065  19.486   1.358
45870W        W18185  29.732  23.038   0.076
45871W        W18186  28.055  16.104  10.943
45872W        W18187  23.527  25.496  12.944
45873W        W18188   0.337   4.639   2.863
45874W        W18189  14.703  23.173  13.568
45875W        W18190  22.488  40.469   1.684
45876W        W18191  13.389  43.821  14.542
45877W        W18192   2.348   4.736   0.751
45878W        W18193   0.449   8.902  13.386
45879W        W18194  35.389  20.305   4.570
45880W        W18195  10.333  20.567   2.733
45881W        W18196  34.554   9.274   0.824
45882W        W18197  29.514  38.140   1.291
45883W        W18198  14.403  44.108   0.808
45884W        W18199  27.458  33.075  12.432
45885W        W18200   7.801  35.844   1.863
45886W        W18201  12.902  24.903   3.717
45887W        W18202  36.506   9.425   2.314
45888W        W18203  32.123  43.452  13.604
45889W        W18204  38.796  15.808  11.105
45890W        W18205  33.075  35.482  11.190
45891W        W18206   2.800  23.713   2.574
45892W        W18207  16.467  34.946   1.016
45893W        W18208   2.822  32.597  14.487
45894W        W18209   8.913  18.755  13.547
45895W        W18210  32.010  24.190  13.511
45896W        W18211  16.148  39.389   3.580
45897W        W18212  18.094  13.862   2.429
45898W        W18213  14.612  34.544  10.394
45899W        W18214  35.878  20.533  12.953
45900W        W18215  44.773  12.648   2.692
45901W        W18216  27.505  38.770   0.171
45902W        W18217  15.637  23.674  10.570
45903W        W18218  34.859   6.698   3.166
45904W        W18219  34.376  44.956   1.223
45905W        W18220  40.450  25.427   4.202
45906W        W18221   6.660  27.039   1.659
45907W        W18222   0.396  15.961   4.199
45908W        W18223   0.751  15.575  10.720
45909W        W18224  24.086  40.819  11.980
45910W        W18225  29.936  27.399  13.865
45911W        W18226  26.030  18.711  11.574
45912W        W18227   5.460  17.930   3.312
45913W        W18228  27.104  23.202  13.350
45914W        W18229  14.263   6.219   1.762
45915W        W18230  23.728  22.329  12.095
45916W        W18231  28.349  11.628  11.974
45917W        W18232  17.086   8.222  13.321
45918W        W18233  24.059   5.954  14.386
45919W        W18234  37.844   1.354   4.706
45920W        W18235  17.310   1.187  13.983
45921W        W18236  33.463  27.622   0.643
45922W        W18237  35.129  11.756  10.753
45923W        W18238  23.508  10.814  11.032
45924W        W18239  32.963  13.677  10.905
45925W        W18240   9.670  18.591  13.004
45926W        W18241  30.231   5.729   4.770
45927W        W18242  29.603  33.240   3.670
45928W        W18243  44.939   1.825  11.577
45929W        W18244   3.313  37.129   3.242
45930W        W18245  38.263  17.227  13.789
45931W        W18246  38.353  11.999  12.641
45932W        W18247  28.760   2.520   1.086
45933W        W18248  34.389  33.000  14.736
45934W        W18249  11.287  26.554  11.469
45935W        W18250  41.231  10.261   0.789
45936W        W18251  27.035   3.260   0.933
45937W        W18252  19.923  29.397   4.975
45938W        W18253   6.380   8.799  11.492
45939W        W18254   3.581  10.080  11.113
45940W        W18255   2.895  44.457   4.038
45941W        W18256   5.689  34.397  11.647
45942W        W18257  40.067  20.025  13.035
45943W        W18258  26.638  22.516  12.844
45944W        W18259  39.678  26.580  10.052
45945W        W18260  19.587  41.928  14.495
45946W        W18261  33.888  12.182   2.774
45947W        W18262   0.723  31.627  11.551
45948W        W18263   3.460  30.004   2.433
45949W        W18264  23.068   5.208   3.839
45950W        W18265  21.120   6.857   1.696
45951W        W18266  27.632  43.502   1.538
45952W        W18267  44.807   5.763  11.123
45953W        W18268  15.240  22.051  10.671
45954W        W18269  41.970   6.420   3.318
45955W        W18270  28.945  40.352   0.425
45956W        W18271  14.543  44.311   0.346
45957W        W18272  34.904  39.401   0.733
45958W        W18273   9.660  37.966   0.318
45959W        W18274  43.929  25.137  12.874
45960W        W18275   6.142  10.207  12.022
45961W        W18276  14.593  19.837   3.180
45962W        W18277  30.508  35.129   0.798
45963W        W18278  33.385   4.705   4.817
45964W        W18279  44.958  36.047  12.083
45965W        W18280  44.007  20.602   3.164
45966W        W18281  39.809  28.618   3.434
45967W        W18282   0.801   4.976  12.480
45968W        W18283  17.026  21.812  13.573
45969W        W18284  11.924   2.357   4.346
45970W        W18285  21.689  31.898  13.944
45971W        W18286  44.071  14.756   3.331
45972W        W18287  11.816  42.154  12.881
45973W        W18288  37.832   1.934  13.989
45974W        W18289   9.260   4.442   1.188
45975W        W18290  29.178   4.411   2.949
45976W        W18291   1.989   7.356   0.283
45977W        W18292  22.113  22.197   5.540
45978W        W18293  43.295   0.796  14.181
45979W        W18294  31.107  28.951   1.767
45980W        W18295  44.833  41.194  14.113
45981W        W18296  20.856  34.521  13.288
45982W        W18297  27.922  14.750   0.891
45983W        W18298  41.823  17.595  13.674
45984W        W18299   5.235  27.537  11.438
45985W        W18300  22.665   3.689  11.177
45986W        W18301  21.435  30.406  12.964
45987W        W18302  44.100  26.472   4.570
45988W        W18303  34.911  34.913   2.231
45989W        W18304   9.886  34.520  14.918
45990W        W18305   0.765  36.377  13.477
45991W        W18306  37.500  11.448  12.631
45992W        W18307   9.217  16.742  11.937
45993W        W18308  17.729   8.380  10.704
45994W        W18309  13.916  25.048   3.320
45995W        W18310  42.376  40.931  11.384
45996W        W18311  44.355  38.782   3.677
45997W        W18312  34.711  26.201   4.132
45998W        W18313  15.148  26.085   1.330
45999W        W18314   4.240  28.618  14.850
46000W        W18315   8.885  18.215  11.050
46001W        W18316  20.714  22.110   0.849
46002W        W18317  41.261  27.938   4.117
46003W        W18318   0.915  35.801   4.967
46004W        W18319   8.944  11.261   4.142
46005W        W18320   2.161  13.123   2.345
46006W        W18321   6.306  15.047   1.325
46007W        W18322   5.408   2.794  10.588
46008W        W18323   5.852   0.814   2.545
46009W        W18324  20.472   1.550   3.382
46010W        W18325  23.637  15.374   4.176
46011W        W18326  32.939  15.124  11.478
46012W        W18327  37.284  17.973  13.267
46013W        W18328  22.750  19.977   4.199
46014W        W18329  17.277  34.599   3.245
46015W        W18330  31.242  15.163  12.344
46016W        W18331  30.155   2.104  11.901
46017W        W18332  31.433  13.086  14.850
46018W        W18333  10.162   6.112   0.823
46019W        W18334  30.938   5.002  12.006
46020W        W18335  35.994   4.842  12.761
46021W        W18336  33.444  22.585  13.438
46022W        W18337  24.556  31.687   4.273
46023W        W18338  22.344  31.492   2.942
46024W        W18339  31.145   0.029  10.940
46025W        W18340  11.828  40.760  11.823
46026W        W18341  43.456  13.345   4.891
46027W        W18342  21.159  19.814  10.936
46028W        W18343   6.263  22.043  11.049
46029W        W18344  24.534  31.633  14.870
46030W        W18345   2.278  12.149  10.736
46031W        W18346  23.046  26.746  13.972
46032W        W18347   3.059  32.129  12.542
46033W        W18348  22.230  37.415   0.731
46034W        W18349  39.226  22.716  12.983
46035W        W18350   8.163  36.445  14.891
46036W        W18351  44.521   4.761  10.410
46037W        W18352  12.122  27.300   2.933
46038W        W18353  11.564  42.649  12.950
46039W        W18354   0.690   4.950   1.210
46040W        W18355  40.119   9.244  11.549
46041W        W18356   7.387  38.057  14.913
46042W        W18357  29.002  15.733   3.581
46043W        W18358  29.676  21.678  14.303
46044W        W18359   4.361  38.776  13.342
46045W        W18360  43.082  13.018  12.908
46046W        W18361  22.168   9.670   1.983
46047W        W18362  10.281   8.942   1.950
46048W        W18363  25.897   6.088   5.023
46049W        W18364  15.686  21.705   3.660
46050W        W18365  13.168   8.808  13.890
46051W        W18366   5.740  17.533  13.588
46052W        W18367  22.004   9.121  12.166
46053W        W18368  26.384  28.292   3.895
46054W        W18369  24.128  43.383  10.653
46055W        W18370  43.913   2.214  11.131
46056W        W18371   2.501   3.268   5.075
46057W        W18372  26.283  18.884   3.839
46058W        W18373  19.156  41.253  11.559
46059W        W18374  18.840  13.532   0.090
46060W        W18375  15.646   3.199  14.380
46061W        W18376  38.289  27.939  14.379
46062W        W18377  22.972  28.573   4.617
46063W        W18378  43.009  37.150   0.266
46064W        W18379  16.379  35.913   2.696
46065W        W18380  25.466  32.585   2.272
46066W        W18381  19.254  14.729  11.096
46067W        W18382   1.334   0.009   4.816
46068W        W18383   2.458  37.453  14.292
46069W        W18384  23.038  44.813  10.813
46070W        W18385  23.678  13.737   0.230
46071W        W18386  19.487  33.339  11.695
46072W        W18387  17.200  42.795   0.881
46073W        W18388  16.340  20.189   0.488
46074W        W18389  39.680  15.200  11.121
46075W        W18390  25.193  25.075   4.832
46076W        W18391  25.549  12.836  11.164
46077W        W18392  38.782   6.309  13.350
46078W        W18393   8.935   4.832  12.888
46079W        W18394  33.800  12.320   4.124
46080W        W18395  19.574  30.392   3.337
46081W        W18396   1.203  17.609   4.049
46082W        W18397  18.804  38.085  13.967
46083W        W18398  33.051  31.705   1.685
46084W        W18399  42.761  26.812  14.900
46085W        W18400  38.834  15.536  12.601
46086W        W18401  24.496  16.728   2.619
46087W        W18402  31.238   9.598  14.409
46088W        W18403   9.086  39.868  13.890
46089W        W18404  29.537   7.483  14.758
46090W        W18405  39.639  24.270  13.012
46091W        W18406   3.342  20.524   0.394
46092W        W18407  42.751   6.262   2.031
46093W        W18408  27.093   7.595  10.042
46094W        W18409  41.329  33.589   2.805
46095W        W18410  27.651  10.706  13.134
46096W        W18411  39.954  32.160  14.754
46097W        W18412  38.410   4.381   0.335
46098W        W18413  10.353  14.182  14.965
46099W        W18414   8.595  44.809  10.564
46100W        W18415  31.434  10.076  14.817
46101W        W18416  28.417  19.631  11.464
46102W        W18417   3.760  23.631   2.781
46103W        W18418   0.727  10.880   3.685
46104W        W18419  42.990  34.749  10.937
46105W        W18420  43.441  36.792  10.682
46106W        W18421   1.782  11.720   1.125
46107W        W18422  14.635  39.053   0.997
46108W        W18423  24.487  11.650   2.805
46109W        W18424  14.086  31.647  12.792
46110W        W18425  36.294   9.611   1.817
46111W        W18426  28.121  27.932  13.334
46112W        W18427  31.121  15.735  10.187
46113W        W18428  15.059  25.612   3.530
46114W        W18429  17.965  12.425   4.614
46115W        W18430  17.161  44.393   1.840
46116W        W18431   2.063  25.976  13.509
46117W        W18432   4.648  22.817   4.579
46118W        W18433  32.474  14.508  14.315
46119W        W18434  32.826  26.729  13.727
46120W        W18435  27.905  16.752  13.383
46121W        W18436   7.321  30.418   3.081
46122W        W18437   8.329  40.764  14.410
46123W        W18438  36.019  16.573  10.675
46124W        W18439   6.238  17.182  13.168
46125W        W18440  43.263  23.147  10.885
46126W        W18441   2.931   3.554   4.229
46127W        W18442  29.694  18.194   0.925
46128W        W18443  32.068  21.471  14.772
46129W        W18444  19.334  41.750  14.070
46130W        W18445  27.594  28.984  11.839
46131W        W18446  28.336  25.064  12.594
46132W        W18447   3.405  13.279   1.809
46133W        W18448  25.085   3.142  13.405
46134W        W18449  15.146  40.292  11.972
46135W        W18450  33.410  30.047   2.819
46136W        W18451  22.653   0.640   3.780
46137W        W18452  28.461  14.378  12.004
46138W        W18453   3.977   7.816  13.068
46139W        W18454   3.782   7.654  10.580
46140W        W18455  16.065  10.662   4.882
46141W        W18456  16.388  27.137   0.497
46142W        W18457   8.849  33.329   3.780
46143W        W18458  20.740   8.703   9.751
46144W        W18459   3.990  14.109  12.931
46145W        W18460  27.018  32.121  14.296
46146W        W18461  22.054  16.149   4.423
46147W        W18462  29.469  14.810   3.770
46148W        W18463  19.228   7.153   1.684
46149W        W18464  24.073  29.049  11.531
46150W        W18465   8.737   6.083  11.087
46151W        W18466  38.867  44.809   3.250
46152W        W18467   0.337   9.780  13.783
46153W        W18468  37.301   0.676   4.527
46154W        W18469  16.653   5.154  11.512
46155W        W18470  12.417  18.483   1.817
46156W        W18471  24.750  10.791  10.609
46157W        W18472   8.667   4.727  10.797
46158W        W18473  23.146  30.349   3.699
46159W        W18474   9.211   2.009   4.982
46160W        W18475  15.833   7.216   4.538
46161W        W18476  16.691  24.022   1.456
46162W        W18477  40.273  40.511   0.798
46163W        W18478  27.659   2.151   3.145
46164W        W18479  24.299   4.858  11.090
46165W        W18480  26.127  40.984  13.872
46166W        W18481   0.721  28.541  10.972
46167W        W18482  40.102  23.059  10.941
46168W        W18483  17.489   6.412  14.788
46169W        W18484  23.685   4.257   3.279
46170W        W18485  24.755  14.407  11.969
46171W        W18486  31.551  20.565  12.089
46172W        W18487  38.458  13.606   4.658
46173W        W18488  44.838  37.298  11.342
46174W        W18489  22.627  39.333   4.138
46175W        W18490  14.329  23.757  10.652
46176W        W18491   3.241  31.459   1.421
46177W        W18492  17.650  35.388   4.413
46178W        W18493  31.612   1.974  11.859
46179W        W18494  40.049  10.185   4.216
46180W        W18495  44.761  34.186  11.065
46181W        W18496  31.600  11.050  10.477
46182W        W18497  28.170  10.349  13.199
46183W        W18498  17.740  38.109   5.457
46184W        W18499  44.915  35.887   2.896
46185W        W18500  10.771  12.427   2.310
46186W        W18501  27.071  17.287   2.897
46187W        W18502  37.066  33.430  14.065
46188W        W18503  21.108   7.688  14.255
46189W        W18504  20.119  18.589   0.513
46190W        W18505   9.649  19.757   1.377
46191W        W18506  41.446  18.673   0.375
46192W        W18507  11.359  36.832  10.618
46193W        W18508   7.620   9.281  14.876
46194W        W18509  13.219  16.312  13.540
46195W        W18510   4.867  11.162  14.855
46196W        W18511  19.248  25.606  13.241
46197W        W18512   2.245   2.831   4.836
46198W        W18513   3.000   0.376   3.979
46199W        W18514  21.172  19.816  13.943
46200W        W18515  24.129  21.703  10.626
46201W        W18516  39.032   1.357   0.440
46202W        W18517   6.753  25.975  13.204
46203W        W18518  13.851  16.195   4.719
46204W        W18519  39.975  12.906   0.749
46205W        W18520  24.674  12.107  11.585
46206W        W18521  13.298  12.143  11.875
46207W        W18522  19.819  27.414  13.265
46208W        W18523  19.669  22.685   0.721
46209W        W18524  22.695  12.563   3.303
46210W        W18525  31.880  25.914   2.890
46211W        W18526  24.257  14.147   1.731
46212W        W18527  30.097  16.074  13.536
46213W        W18528   8.417  44.972  12.878
46214W        W18529  13.704  22.568   0.886
46215W        W18530   2.899  37.751  14.418
46216W        W18531   9.202  26.725   4.411
46217W        W18532   5.381  15.629  10.687
46218W        W18533  16.587  35.464  12.493
46219W        W18534  40.958  25.930   0.507
46220W        W18535   6.963  29.542   3.367
46221W        W18536  12.195  24.109  14.344
46222W        W18537  24.139  35.444   1.417
46223W        W18538  40.787   4.395  10.610
46224W        W18539  12.698  34.476   1.271
46225W        W18540  43.563  39.976  11.963
46226W        W18541  41.802  23.744   2.750
46227W        W18542  39.222  14.167  14.830
46228W        W18543  35.201  39.857  14.390
46229W        W18544  12.184  28.157  10.918
46230W        W18545  41.484   2.334   0.806
46231W        W18546  24.233   7.447   4.513
46232W        W18547   1.108  38.456   1.847
46233W        W18548  27.549   4.873  13.480
46234W        W18549   8.532   2.817   1.372
46235W        W18550  11.647  25.463   1.287
46236W        W18551   1.363  37.848   2.888
46237W        W18552  41.444  26.680   4.954
46238W        W18553  21.098  33.220  13.769
46239W        W18554  32.959  33.799   2.433
46240W        W18555  23.026   1.725  13.469
46241W        W18556  22.522  17.660  14.476
46242W        W18557  44.265  13.341   5.015
46243W        W18558  40.013  10.932   2.338
46244W        W18559  12.871  33.620  11.172
46245W        W18560  22.809  44.279   3.457
46246W        W18561  39.461  20.262   4.219
46247W        W18562  18.943   5.798   0.104
46248W        W18563  27.933  15.838   2.748
46249W        W18564   6.671   8.740  11.905
46250W        W18565   2.009  41.152   4.559
46251W        W18566  34.077  39.827  11.560
46252W        W18567  30.547  27.867   0.421
46253W        W18568   1.533  44.508  13.373
46254W        W18569  41.604  33.245  13.263
46255W        W18570  15.205  33.180   4.481
46256W        W18571   4.711   1.009   1.643
46257W        W18572  13.062   6.860   4.038
46258W        W18573  29.566   5.404  10.486
46259W        W18574   4.207   6.473   2.793
46260W        W18575  19.563   4.819  13.431
46261W        W18576  32.654   8.757  10.804
46262W        W18577  28.083  36.579  13.927
46263W        W18578  30.192  22.150  14.806
46264W        W18579  20.510   7.440  10.719
46265W        W18580  10.656  14.132  11.488
46266W        W18581  43.345  34.813  13.730
46267W        W18582  30.339   3.375  13.590
46268W        W18583  40.982  11.428   4.514
46269W        W18584  13.815  30.960   4.896
46270W        W18585  26.799  27.552   0.455
46271W        W18586  18.137  22.570  12.800
46272W        W18587   5.240   3.635  14.058
46273W        W18588  31.569   3.917   0.707
46274W        W18589  41.343   4.234   3.201
46275W        W18590  31.400   5.232  14.821
46276W        W18591   5.709   5.349  13.504
46277W        W18592   1.789  39.806   4.117
46278W        W18593  10.577  26.544  10.207
46279W        W18594  41.954  18.174   0.923
46280W        W18595  23.220   4.679   0.461
46281W        W18596  21.032  42.776  10.524
46282W        W18597  20.123  24.362  14.289
46283W        W18598  32.270  44.936  13.482
46284W        W18599  17.153   7.423   0.343
46285W        W18600  41.467  11.125  11.513
46286W        W18601   2.556  32.153   1.415
46287W        W18602  13.658  12.641   3.382
46288W        W18603  11.324  38.607   2.527
46289W        W18604  22.965  24.652   0.561
46290W        W18605  27.030  33.035  11.257
46291W        W18606  40.895  26.469  11.136
46292W        W18607   9.279   8.892   2.872
46293W        W18608  39.059   0.047  14.393
46294W        W18609   6.273  26.011   2.074
46295W        W18610   3.471  38.933   4.146
46296W        W18611  23.724  26.030   0.042
46297W        W18612   9.664  18.791   3.865
46298W        W18613  44.016   1.592  14.298
46299W        W18614  23.468  25.170  12.537
46300W        W18615  25.486  30.783   2.224
46301W        W18616  20.036  25.300  13.641
46302W        W18617  16.596  30.653   3.143
46303W        W18618  21.475   9.375  10.585
46304W        W18619  42.737  26.972  13.529
46305W        W18620  32.425  32.653   0.355
46306W        W18621  26.006  26.262  11.708
46307W        W18622  12.401  23.186   4.724
46308W        W18623  35.855  26.812  14.824
46309W        W18624  16.391  39.181  13.060
46310W        W18625  13.797  28.284   2.866
46311W        W18626   9.836  21.945   2.094
46312W        W18627  31.643  44.511   0.557
46313W        W18628   4.842  29.494  10.720
46314W        W18629  22.912  37.154  14.535
46315W        W18630  31.499  31.490  10.359
46316W        W18631  44.373  11.622  14.778
46317W        W18632   3.693  20.566  14.619
46318W        W18633  29.501   8.198   1.184
46319W        W18634   1.682   9.286   2.458
46320W        W18635   0.892  21.608  14.499
46321W        W18636   6.487  30.861  11.574
46322W        W18637  40.610  39.007  14.018
46323W        W18638  19.774   5.267  10.712
46324W        W18639  14.783  13.127   2.774
46325W        W18640  14.062  36.539  11.118
46326W        W18641  30.377  36.682   3.674
46327W        W18642  31.424  30.988   2.149
46328W        W18643  16.538   7.703  10.979
46329W        W18644   0.463  28.548  11.825
46330W        W18645  16.101  19.735   0.393
46331W        W18646   6.430  44.604   4.105
46332W        W18647   2.923   7.194   1.305
46333W        W18648   8.969  21.266  10.278
46334W        W18649  36.968  37.361  10.956
46335W        W18650   1.207  27.085  14.753
46336W        W18651  44.977  42.677   0.875
46337W        W18652   0.747  28.932  13.069
46338W        W18653  38.488  11.816   2.853
46339W        W18654  41.437   7.964  10.759
46340W        W18655  10.830  27.196   4.222
46341W        W18656  10.629  23.456   1.775
46342W        W18657  24.962  10.040   3.809
46343W        W18658  21.414  37.979   2.366
46344W        W18659  34.381  25.651  10.783
46345W        W18660   4.962  29.170  14.768
46346W        W18661  18.768   4.248   2.784
46347W        W18662  38.933  13.325  13.319
46348W        W18663  14.431  28.158  14.937
46349W        W18664   5.266  19.669   1.865
46350W        W18665  30.335  32.040  11.429
46351W        W18666  29.013  12.925   3.626
46352W        W18667  27.649  40.507  10.931
46353W        W18668   1.423  26.410  11.118
46354W        W18669  13.214  41.239   2.729
46355W        W18670  30.579  22.094   3.817
46356W        W18671  16.536   1.850   1.486
46357W        W18672  19.503   5.454   0.755
46358W        W18673   5.936   0.896  14.764
46359W        W18674  36.929  31.012   4.855
46360W        W18675  37.942  14.659  12.529
46361W        W18676  44.095  23.252  13.919
46362W        W18677  26.303   6.486   1.266
46363W        W18678  15.278  31.192   2.045
46364W        W18679  20.723  14.907   0.850
46365W        W18680  30.970  36.417   0.808
46366W        W18681  44.779   8.062   4.112
46367W        W18682  40.288  16.066   2.992
46368W        W18683   3.304  38.509  10.040
46369W        W18684  26.378  41.982   3.181
46370W        W18685  31.331  20.198   0.108
46371W        W18686   0.674  29.610   4.075
46372W        W18687  44.803  34.991   0.792
46373W        W18688  41.952  10.687  10.472
46374W        W18689  31.797  38.069   4.243
46375W        W18690   8.641   1.261  10.954
46376W        W18691  29.066  38.822  13.271
46377W        W18692  12.297   4.459  10.735
46378W        W18693  44.332   7.099  14.731
46379W        W18694   8.389  42.140   4.307
46380W        W18695  28.710  32.389  11.880
46381W        W18696  44.801  24.631   4.449
46382W        W18697   1.043   8.872   1.684
46383W        W18698   7.451  36.291  14.417
46384W        W18699  15.607  14.675   2.786
46385W        W18700  34.900  37.937   4.247
46386W        W18701   6.460  32.523   1.757
46387W        W18702  17.876  28.657  14.754
46388W        W18703  35.163   7.523   0.718
46389W        W18704   5.944   5.386   4.525
46390W        W18705  15.616  25.288  12.049
46391W        W18706  43.499  19.198  14.980
46392W        W18707  16.085  15.130   2.860
46393W        W18708  19.205  16.225   3.887
46394W        W18709  31.240   8.240  11.543
46395W        W18710  30.309   3.521  11.112
46396W        W18711   0.008  17.203  14.969
46397W        W18712   8.445  22.269   1.176
46398W        W18713  10.688   1.980   4.765
46399W        W18714  27.958  13.756  14.030
46400W        W18715  16.147  41.312   1.942
46401W        W18716  40.356  30.373  11.242
46402W        W18717  38.870  23.473   0.396
46403W        W18718  39.866  24.937  11.048
46404W        W18719  27.405  42.894  11.153
46405W        W18720  32.911  18.626  12.426
46406W        W18721  31.216  27.923  14.358
46407W        W18722   2.309  10.750  14.349
46408W        W18723   9.952  41.310   3.791
46409W        W18724  23.275  35.007   2.158
46410W        W18725  44.593  17.225   0.368
46411W        W18726  23.245  13.587   0.430
46412W        W18727  42.587  24.768   3.783
46413W        W18728  35.406  39.156   4.194
46414W        W18729  11.070  23.239   1.967
46415W        W18730  18.267  29.107  11.661
46416W        W18731  15.644  29.436   2.384
46417W        W18732  18.806  22.751   1.733
46418W        W18733  40.891   2.837  12.408
46419W        W18734  25.627  18.190  11.545
46420W        W18735  11.699  14.216  11.427
46421W        W18736   4.478  34.424   2.281
46422W        W18737  25.961  33.591   0.897
46423W        W18738   0.201  24.604  12.853
46424W        W18739  27.184   3.707   3.722
46425W        W18740   7.770   0.543   2.670
46426W        W18741  10.614   5.290   2.921
46427W        W18742  41.387   6.102   2.220
46428W        W18743   3.408  20.542  13.555
46429W        W18744   9.504  42.604   2.222
46430W        W18745  12.838   9.842  14.741
46431W        W18746  43.241  22.267   2.313
46432W        W18747  23.081   2.451  11.600
46433W        W18748  32.501   0.710   0.549
46434W        W18749  33.379   6.240  13.541
46435W        W18750   8.688  24.989   0.843
46436W        W18751  40.074  11.203  11.636
46437W        W18752  12.132  22.730  11.385
46438W        W18753  44.367   4.560  12.203
46439W        W18754   0.377  15.277   2.119
46440W        W18755  14.807  19.183   1.379
46441W        W18756  15.674  23.995   2.912
46442W        W18757   6.105   6.347   1.349
46443W        W18758  18.127  38.602  12.993
46444W        W18759   3.787  34.994   2.752
46445W        W18760  40.956  11.576  10.429
46446W        W18761  19.242  13.483   2.335
46447W        W18762   9.604  24.747   0.865
46448W        W18763  18.246  37.082   4.223
46449W        W18764  44.041  39.908  13.767
46450W        W18765   0.395  16.153  12.539
46451W        W18766  31.687  21.571  13.430
46452W        W18767   5.244  31.036  10.746
46453W        W18768  39.333  29.825   0.296
46454W        W18769  26.475   3.495  11.606
46455W        W18770  21.604  42.050  10.608
46456W        W18771  27.421  42.735   3.239
46457W        W18772  16.560  25.866  14.434
46458W        W18773  13.334  27.078   4.549
46459W        W18774  29.646  32.488  10.244
46460W        W18775  42.024  17.275   3.665
46461W        W18776  40.053  39.367  11.156
46462W        W18777  15.280  41.769  11.070
46463W        W18778   1.889  41.370   0.895
46464W        W18779  31.201  15.628  11.003
46465W        W18780  42.187  20.460  12.733
46466W        W18781  26.646  24.000   2.161
46467W        W18782  17.580  29.445   4.638
46468W        W18783  44.017   9.944  11.448
46469W        W18784  10.068  41.466  11.440
46470W        W18785  40.425  39.339   0.237
46471W        W18786  15.247   3.410   1.839
46472W        W18787   9.340  24.185   2.151
46473W        W18788  25.757   1.216   0.784
46474W        W18789  43.952  37.978   4.630
46475W        W18790  18.157  38.837  11.505
46476W        W18791   8.718  11.738  13.841
46477W        W18792  39.368  15.926   4.044
46478W        W18793  27.457  14.280  12.849
46479W        W18794   7.263   1.495  14.349
46480W        W18795  18.695  39.306   5.076
46481W        W18796  35.632  16.619  12.506
46482W        W18797  34.454   8.345  10.680
46483W        W18798  25.357  25.758  11.585
46484W        W18799  31.380  15.130  11.400
46485W        W18800  10.372  14.870   4.160
46486W        W18801  38.561  24.844  14.817
46487W        W18802   4.787  12.585   1.644
46488W        W18803  26.882   1.784   2.690
46489W        W18804   7.636  44.289   2.640
46490W        W18805   2.516  30.973  14.871
46491W        W18806  16.205   1.586   4.546
46492W        W18807  27.690  20.208  13.904
46493W        W18808  37.779  24.305  12.659
46494W        W18809  27.509  25.999  10.674
46495W        W18810  16.301  30.689   5.085
46496W        W18811  42.477  30.535  14.271
46497W        W18812  20.006  11.084  14.019
46498W        W18813   8.199  31.854   0.288
46499W        W18814  30.152  26.664   1.868
46500W        W18815   0.927  24.269  11.537
46501W        W18816   8.110   4.412   4.274
46502W        W18817  21.149  27.378   4.261
46503W        W18818  30.123   1.785   0.001
46504W        W18819  24.982  14.244  11.525
46505W        W18820   1.212  19.562  13.529
46506W        W18821  32.258  42.868   3.707
46507W        W18822  24.022  21.128  13.342
46508W        W18823  11.361  11.194  13.428
46509W        W18824   2.549  14.051   5.020
46510W        W18825  23.974   6.948  14.550
46511W        W18826   6.703  12.151   4.324
46512W        W18827   4.929  20.645   4.218
46513W        W18828  17.101  30.896   0.030
46514W        W18829  10.756  15.326  13.125
46515W        W18830  12.382   9.597   3.627
46516W        W18831  34.426  17.066   4.816
46517W        W18832  35.040  19.101   0.743
46518W        W18833  32.939  18.834  13.814
46519W        W18834  27.077   5.382  11.029
46520W        W18835  42.433  11.309   4.235
46521W        W18836  40.119  43.217   1.846
46522W        W18837  14.537   4.546   3.842
46523W        W18838  18.847  42.749  13.867
46524W        W18839  13.601  18.309  12.849
46525W        W18840   3.231  34.004  11.949
46526W        W18841   3.792  42.062  12.419
46527W        W18842  33.064  12.849  14.322
46528W        W18843  10.221  22.515   0.783
46529W        W18844  16.747  21.541   2.135
46530W        W18845   2.829  16.305   1.272
46531W        W18846  37.560  13.572  11.495
46532W        W18847  28.374  35.899   0.541
46533W        W18848  41.552  11.840   1.951
46534W        W18849  10.202   7.245   1.472
46535W        W18850  15.585  25.145  13.954
46536W        W18851  30.079   3.737  11.532
46537W        W18852  35.453  12.655   1.214
46538W        W18853  10.399  27.623  13.819
46539W        W18854  31.700  22.758   1.785
46540W        W18855  40.292  22.930   4.586
46541W        W18856  37.623  28.757   4.215
46542W        W18857  13.773   9.931   2.683
46543W        W18858  30.443  13.169   3.629
46544W        W18859  32.039  41.997   2.377
46545W        W18860  35.372  28.618  14.066
46546W        W18861  23.677   4.418  10.470
46547W        W18862  16.190   9.207   3.206
46548W        W18863  22.276  11.141   4.526
46549W        W18864  10.789   3.068   0.660
46550W        W18865  40.500  17.086   2.996
46551W        W18866  29.116  31.938  13.170
46552W        W18867   0.973  23.501  11.412
46553W        W18868  15.100  33.333  14.004
46554W        W18869  41.474  11.957  12.889
46555W        W18870  11.394  43.310  11.154
46556W        W18871  22.832   6.326  10.703
46557W        W18872  24.695  38.965   2.333
46558W        W18873  15.228  25.594  14.574
46559W        W18874  34.596  23.146  10.646
46560W        W18875  12.184  13.270   3.726
46561W        W18876  10.373  35.643   0.336
46562W        W18877  31.100   4.608  10.103
46563W        W18878  20.062   7.633  13.890
46564W        W18879  34.944  15.260  14.523
46565W        W18880  38.641  35.818  11.014
46566W        W18881  44.378  35.362  11.654
46567W        W18882  31.782  10.228   5.049
46568W        W18883  22.712  24.908  14.912
46569W        W18884  18.486  30.743   4.593
46570W        W18885   6.414  16.765  11.459
46571W        W18886  18.649   3.975  13.508
46572W        W18887   7.498   6.790  14.438
46573W        W18888  18.323  22.107   4.144
46574W        W18889  23.611  44.929  11.495
46575W        W18890  23.154  27.156  12.501
46576W        W18891  21.912   9.681   1.530
46577W        W18892  10.853  23.057   2.395
46578W        W18893  28.093  40.042   0.258
46579W        W18894  35.127  11.621  14.773
46580W        W18895  24.589  16.017  14.849
46581W        W18896  30.082   7.783   1.668
46582W        W18897   9.200  16.822   2.371
46583W        W18898  12.676  37.963  13.035
46584W        W18899  15.817  23.693  11.061
46585W        W18900   2.900  30.245   1.446
46586W        W18901  16.093  20.130  10.743
46587W        W18902   9.017   0.417   9.922
46588W        W18903  16.568   0.208  13.289
46589W        W18904  44.897  33.706   9.915
46590W        W18905   8.241  14.988  14.908
46591W        W18906  36.822  14.737   0.840
46592W        W18907  31.995  10.708  10.534
46593W        W18908  17.258  31.362   5.050
46594W        W18909  36.989  10.758   2.383
46595W        W18910  32.904   1.041  14.563
46596W        W18911   8.180  30.066  13.309
46597W        W18912  33.529  23.916  14.481
46598W        W18913  10.648   9.841   3.211
46599W        W18914   0.928  19.947  10.448
46600W        W18915  21.270  27.888   1.014
46601W        W18916  26.548  41.334   2.217
46602W        W18917  38.300   8.677  10.604
46603W        W18918  44.990  16.100   3.866
46604W        W18919  43.850  36.390  11.324
46605W        W18920  42.366  17.508   0.983
46606W        W18921   6.945  16.181  13.178
46607W        W18922  27.098   2.962  12.501
46608W        W18923   7.365  19.553  13.451
46609W        W18924  22.988  33.602  11.505
46610W        W18925   7.787  23.207   3.075
46611W        W18926  20.338  42.167   3.521
46612W        W18927  36.338  14.147   0.238
46613W        W18928  41.024  31.678   1.354
46614W        W18929  38.636  33.887  12.075
46615W        W18930  38.877  29.475  14.598
46616W        W18931  21.695  13.967  11.361
46617W        W18932   1.584  17.209  12.132
46618W        W18933  37.630  33.407   0.495
46619W        W18934  32.646  15.669   2.455
46620W        W18935  16.567  16.678   3.692
46621W        W18936  34.974  33.412  14.826
46622W        W18937  17.353  13.130   1.732
46623W        W18938  34.541  44.695   1.650
46624W        W18939  28.741  44.583  14.439
46625W        W18940  22.948  12.736  10.807
46626W        W18941  39.350  40.097  10.506
46627W        W18942  15.128   5.312   3.850
46628W        W18943  34.273   4.136   0.958
46629W        W18944   9.440   8.435  13.562
46630W        W18945  44.429  40.473  14.979
46631W        W18946  35.926  35.371   3.552
46632W        W18947   2.232  11.725  12.891
46633W        W18948  14.957  36.220   9.708
46634W        W18949  39.500  26.520  10.557
46635W        W18950   9.811  25.453   2.575
46636W        W18951   6.931  43.823  12.891
46637W        W18952   1.402  40.846  12.520
46638W        W18953  13.093   6.856  14.309
46639W        W18954  30.049  24.920  12.432
46640W        W18955   2.004  11.715   0.146
46641W        W18956  38.838  23.558   2.488
46642W        W18957  43.379   6.733   4.367
46643W        W18958   0.403  42.514  14.679
46644W        W18959  17.726  37.617  10.297
46645W        W18960  17.731   3.976   0.479
46646W        W18961  11.247   0.176   0.276
46647W        W18962  18.587   4.745  10.739
46648W        W18963  22.462  11.107   0.783
46649W        W18964  33.975  23.998   3.235
46650W        W18965  17.485  30.989   2.393
46651W        W18966  42.983  44.000   4.170
46652W        W18967   8.172  21.265   2.278
46653W        W18968  10.048  41.694  10.127
46654W        W18969  10.169  22.612  13.210
46655W        W18970  40.662   7.351  11.849
46656W        W18971   7.660  33.147  14.475
46657W        W18972  35.765   8.270   0.394
46658W        W18973  36.953  24.534  11.716
46659W        W18974  37.049  35.999   4.330
46660W        W18975  44.858   5.703  12.476
46661W        W18976  36.486  10.286  14.656
46662W        W18977  43.305  39.044  12.502
46663W        W18978  24.717   5.666   0.741
46664W        W18979  13.629  24.212  10.767
46665W        W18980  30.032  36.996   1.932
46666W        W18981  27.090  33.928   1.860
46667W        W18982  24.544   6.111   0.923
46668W        W18983  20.659  35.832   2.280
46669W        W18984  18.309  27.103   3.602
46670W        W18985  10.267  27.056  10.581
46671W        W18986  27.146  41.332   1.821
46672W        W18987  36.455  27.633   4.603
46673W        W18988  24.467  31.469  14.368
46674W        W18989  10.714  38.097  10.535
46675W        W18990  42.039  33.112  13.519
46676W        W18991   5.574  24.032  13.175
46677W        W18992  28.492  11.664  11.112
46678W        W18993   8.580  40.434   2.291
46679W        W18994  38.491  30.477   2.905
46680W        W18995   7.844  20.589   2.769
46681W        W18996  11.619  44.797  11.637
46682W        W18997  22.239  10.013   4.157
46683W        W18998  37.567  12.507   4.537
46684W        W18999  16.953  19.123  10.635
46685W        W19000  38.853  27.668  11.004
46686W        W19001  24.547  19.025  11.447
46687W        W19002  43.888  28.264  14.487
46688W        W19003  13.288  10.656  11.022
46689W        W19004  27.999  12.764   3.161
46690W        W19005  23.932   1.234  11.620
46691W        W19006  19.552  27.529   1.724
46692W        W19007  15.020  21.008   1.915
46693W        W19008  43.952  24.368   1.962
46694W        W19009  42.366  30.762  13.825
46695W        W19010   4.774   6.647   4.047
46696W        W19011   3.135   2.374   2.694
46697W        W19012  41.437  16.641  13.526
46698W        W19013  33.594  10.850   3.730
46699W        W19014  15.866   9.180  11.539
46700W        W19015  43.497   0.778   1.294
46701W        W19016  18.176   3.717   3.290
46702W        W19017   9.429  31.929  14.362
46703W        W19018  30.017  16.217  10.661
46704W        W19019  32.460  23.523  10.829
46705W        W19020  39.590   6.922   0.201
46706W        W19021  38.930  17.755  13.379
46707W        W19022  30.575   1.249  11.631
46708W        W19023  26.950  41.113   4.099
46709W        W19024  28.401  15.342  11.668
46710W        W19025  24.714  28.494  13.535
46711W        W19026  11.800   1.838  12.561
46712W        W19027  39.892  34.133   0.400
46713W        W19028  25.275  43.637   2.990
46714W        W19029  34.168  42.348  14.487
46715W        W19030  30.527  23.604  13.526
46716W        W19031  10.624  12.912   2.288
46717W        W19032  42.414   7.334  10.153
46718W        W19033   3.431   4.347  12.950
46719W        W19034  27.186   4.336  10.018
46720W        W19035  35.874   2.760   4.589
46721W        W19036  31.553  23.408   4.085
46722W        W19037   5.626  37.240  13.245
46723W        W19038  41.526  19.766   0.263
46724W        W19039  37.079  41.273  13.564
46725W        W19040  43.016  25.171  12.459
46726W        W19041  38.034  25.066  12.637
46727W        W19042  12.164  23.605  14.379
46728W        W19043  28.165   9.575  14.654
46729W        W19044  26.958  13.565   3.260
46730W        W19045  23.269  10.687  11.483
46731W        W19046   3.305  39.957   0.868
46732W        W19047  25.023  30.998   2.113
46733W        W19048  20.530  26.007   0.849
46734W        W19049  35.083  13.329  10.470
46735W        W19050   6.174  34.989   2.559
46736W        W19051   1.776  23.457  13.412
46737W        W19052  38.590  19.247  11.597
46738W        W19053  31.871  43.488  12.147
46739W        W19054   1.665  42.446   1.264
46740W        W19055  14.307  13.858  11.096
46741W        W19056   8.340   9.826   1.929
46742W        W19057  32.388   7.380   2.008
46743W        W19058   2.932  15.944  14.221
46744W        W19059  39.130   9.173   2.200
46745W        W19060  30.160  11.168  11.420
46746W        W19061  31.636  32.012   1.149
46747W        W19062  17.816  42.026  13.485
46748W        W19063  35.769  26.302   0.540
46749W        W19064  16.724   2.061   0.651
46750W        W19065   8.646  14.319   0.234
46751W        W19066   1.646   2.193  13.998
46752W        W19067   8.629   2.734   4.586
46753W        W19068  15.338  15.253   4.406
46754W        W19069  42.294  23.849  13.258
46755W        W19070  37.548  42.815   1.276
46756W        W19071  10.555  35.470   4.674
46757W        W19072  12.836  39.949   2.296
46758W        W19073   9.034  21.618  11.872
46759W        W19074  13.033  40.282   2.663
46760W        W19075  11.121  38.533   1.656
46761W        W19076  10.697   7.695  13.913
46762W        W19077  31.533  30.774   2.684
46763W        W19078   2.119  12.892   1.401
46764W        W19079  28.951  23.453   0.283
46765W        W19080  23.152   2.238  11.138
46766W        W19081  12.783   7.720   2.668
46767W        W19082  32.473  13.520  14.377
46768W        W19083   0.758  25.214  14.844
46769W        W19084  34.626  11.533   0.467
46770W        W19085   2.418  44.492  12.373
46771W        W19086  18.290  23.255   0.446
46772W        W19087  21.193  30.500   1.507
46773W        W19088  26.014  38.894   4.118
46774W        W19089  15.836  28.937   2.321
46775W        W19090   8.212  33.619   1.796
46776W        W19091   2.890  13.715   4.441
46777W        W19092   9.794  35.842   1.864
46778W        W19093  38.106   5.921   4.166
46779W        W19094  14.352   1.775  11.433
46780W        W19095   4.401  36.149  14.526
46781W        W19096  18.640  16.085  14.515
46782W        W19097   9.864  14.600  11.590
46783W        W19098  27.646   5.529   1.405
46784W        W19099  43.027   6.815  10.555
46785W        W19100  26.113  24.473   3.312
46786W        W19101  43.561   2.768  11.120
46787W        W19102   2.290   0.398  11.605
46788W        W19103  37.524  18.124  12.827
46789W        W19104  36.180  39.608  14.404
46790W        W19105  12.678  20.301  11.622
46791W        W19106   9.364  27.932   0.823
46792W        W19107  15.999   1.897   2.278
46793W        W19108  32.812  29.218   2.756
46794W        W19109  30.364  18.102  12.074
46795W        W19110  11.679  44.055   2.172
46796W        W19111  35.096  19.788  14.962
46797W        W19112  18.152  33.597   2.030
46798W        W19113  42.054   2.155  14.377
46799W        W19114  40.483  33.541   4.644
46800W        W19115   2.492  16.899  11.111
46801W        W19116  37.858   6.297  10.903
46802W        W19117   2.935  31.231   2.963
46803W        W19118  15.611  29.947   2.477
46804W        W19119   2.748   3.701  13.024
46805W        W19120  23.052   0.561   2.211
46806W        W19121  22.236  32.629  14.548
46807W        W19122  31.222  21.062  12.870
46808W        W19123  31.105   1.845   2.312
46809W        W19124  24.025   4.833  13.297
46810W        W19125   1.787  38.584  10.718
46811W        W19126   7.022  10.511  11.862
46812W        W19127  23.474  43.411   0.959
46813W        W19128  12.932  40.725   2.356
46814W        W19129  39.298  44.260   1.810
46815W        W19130  18.128  23.747  14.361
46816W        W19131  14.438  10.859   3.388
46817W        W19132  44.326  31.822  13.917
46818W        W19133  18.193  28.101  11.060
46819W        W19134  35.367  15.635  11.603
46820W        W19135  30.689  41.494   3.633
46821W        W19136   0.831   0.258  12.461
46822W        W19137  44.825  29.978   4.319
46823W        W19138  11.448  41.400   3.715
46824W        W19139  19.160  15.180  11.338
46825W        W19140   4.430  24.079   1.881
46826W        W19141  34.985  40.302   1.942
46827W        W19142  26.818   2.303  14.826
46828W        W19143  32.164  44.207  14.787
46829W        W19144  42.818  34.350  11.920
46830W        W19145  32.343  17.797   0.685
46831W        W19146  24.930  23.896  12.810
46832W        W19147  10.795  24.308  14.612
46833W        W19148  20.057  44.983   0.267
46834W        W19149   6.674  13.379  14.334
46835W        W19150  22.968  16.124   4.533
46836W        W19151   6.788  11.617  12.072
46837W        W19152   7.707  22.569  13.183
46838W        W19153  35.821  21.839  14.890
46839W        W19154  21.022   1.795   2.909
46840W        W19155  42.997  30.441  10.657
46841W        W19156  17.565  19.351  13.091
46842W        W19157  23.559  40.258   0.809
46843W        W19158  20.092  15.166  10.557
46844W        W19159   9.278   4.724  13.863
46845W        W19160  42.599  13.586  13.989
46846W        W19161  17.249   1.476   2.730
46847W        W19162  33.821  27.073  14.929
46848W        W19163  22.233  26.901   3.124
46849W        W19164  42.601  36.063   0.260
46850W        W19165  30.080   2.580   3.860
46851W        W19166  16.581   5.728  12.520
46852W        W19167   9.166  29.855  10.634
46853W        W19168  22.254  35.463  12.383
46854W        W19169   7.429  43.380  13.285
46855W        W19170   5.982  32.520  14.558
46856W        W19171  41.109  14.919  11.146
46857W        W19172  31.409  35.606   3.169
46858W        W19173  25.222  27.930   1.216
46859W        W19174  32.636  26.679  10.659
46860W        W19175  14.828  24.579   3.745
46861W        W19176  18.071  22.471   2.970
46862W        W19177   3.862  21.561  12.622
46863W        W19178   1.637  36.586   9.719
46864W        W19179  10.864  16.752  14.658
46865W        W19180  42.792   3.784   4.198
46866W        W19181  31.056  31.138   3.704
46867W        W19182  23.707   7.631  12.434
46868W        W19183  39.962   7.787   1.195
46869W        W19184  21.859   0.337  14.801
46870W        W19185  43.075   9.971   3.209
46871W        W19186  16.274  35.050  14.177
46872W        W19187   3.910  37.598  13.074
46873W        W19188  29.486  33.020  10.214
46874W        W19189  17.833  15.159  11.687
46875W        W19190  15.982   9.707  11.462
46876W        W19191  13.332   5.387   0.741
46877W        W19192  36.973  22.689   2.907
46878W        W19193  42.417  24.882   4.259
46879W        W19194  26.564  11.191   3.360
46880W        W19195  28.100  10.743  12.372
46881W        W19196  35.487   9.365   2.008
46882W        W19197  13.762   1.167  12.346
46883W        W19198  13.480   6.411   2.834
46884W        W19199  16.883   5.335  10.193
46885W        W19200  15.767  26.916  12.360
46886W        W19201  27.653   2.787   9.793
46887W        W19202  30.852  19.674   3.313
46888W        W19203  40.834  20.201  13.482
46889W        W19204  25.200   7.894  13.780
46890W        W19205  11.795  24.456   4.589
46891W        W19206  37.503  41.911  12.374
46892W        W19207  37.807  34.268   9.843
46893W        W19208  10.998   3.983  12.603
46894W        W19209  22.443   2.705  14.093
46895W        W19210  17.162  26.725  11.497
46896W        W19211   7.312   5.709   2.403
46897W        W19212  34.031  36.482  12.045
46898W        W19213  16.671  38.696  11.460
46899W        W19214  13.040   0.583  12.333
46900W        W19215  26.806  33.633  12.047
46901W        W19216  14.990  17.565   2.730
46902W        W19217  22.485  34.541  11.561
46903W        W19218  42.969  33.935   3.717
46904W        W19219  32.016  11.137   4.534
46905W        W19220  24.006   3.373   0.758
46906W        W19221  29.459   6.136  11.619
46907W        W19222  20.574  15.278  10.832
46908W        W19223  21.067  23.060  12.518
46909W        W19224  32.974  41.317   4.133
46910W        W19225  11.802  27.183  13.749
46911W        W19226   1.390  35.419   0.504
46912W        W19227  17.016  40.765   5.602
46913W        W19228  42.790  40.383  13.949
46914W        W19229   8.409  16.251   2.348
46915W        W19230  28.748  26.291   3.214
46916W        W19231  14.431  30.885  14.370
46917W        W19232  41.457  43.839   0.238
46918W        W19233  15.530  15.162   2.956
46919W        W19234   3.817  21.843  14.466
46920W        W19235  38.997  26.132  10.979
46921W        W19236  17.209   3.365   2.311
46922W        W19237   9.505  29.949  13.935
46923W        W19238  27.129   5.934  11.017
46924W        W19239  24.711  15.227   4.244
46925W        W19240  41.273  15.753   1.871
46926W        W19241  28.553   9.179   3.730
46927W        W19242  21.728  43.320   1.206
46928W        W19243  15.626  26.181  11.090
46929W        W19244  38.308   1.165   1.196
46930W        W19245  31.623  10.757  12.259
46931W        W19246  25.633  10.684  14.403
46932W        W19247  10.231  26.627  14.057
46933W        W19248  37.997  32.703   3.685
46934W        W19249  22.726  31.649  10.792
46935W        W19250  37.100  39.794   4.277
46936W        W19251   0.258  35.372  10.197
46937W        W19252  17.799   3.720   3.664
46938W        W19253  13.234  19.818  12.502
46939W        W19254  11.200  37.324   4.361
46940W        W19255  34.533  23.103  11.653
46941W        W19256  39.897  24.798  10.077
46942W        W19257  33.964  29.571   0.320
46943W        W19258  15.722  19.809  13.319
46944W        W19259   2.285  36.786   5.449
46945W        W19260   1.486   9.613  11.674
46946W        W19261  16.646   2.950   3.993
46947W        W19262  44.529   2.310  14.828
46948W        W19263  43.066  18.346   4.571
46949W        W19264  18.325  23.958  10.915
46950W        W19265  29.968  44.525   4.544
46951W        W19266  23.526   2.166   4.567
46952W        W19267  18.235   4.756  13.843
46953W        W19268  30.548  38.439  12.568
46954W        W19269  12.252  17.687  13.074
46955W        W19270  20.105   2.898  12.192
46956W        W19271  13.765  15.804  13.949
46957W        W19272  30.379  23.465  14.244
46958W        W19273   7.834  10.754   2.904
46959W        W19274  42.387  30.477   4.163
46960W        W19275  11.065  10.123   2.441
46961W        W19276  27.989  15.933  14.503
46962W        W19277  35.426   7.923   2.715
46963W        W19278  40.108   9.455  12.007
46964W        W19279  30.055  33.517  14.461
46965W        W19280   0.363   7.203   1.949
46966W        W19281   4.709  11.201   3.747
46967W        W19282  39.320   4.929   1.769
46968W        W19283  21.945  28.530   4.551
46969W        W19284  21.164  39.665  11.698
46970W        W19285  21.766  10.118  14.775
46971W        W19286  34.435  29.117  13.382
46972W        W19287  41.797   7.794   2.010
46973W        W19288  14.232  17.042  12.613
46974W        W19289  40.034   0.991  13.571
46975W        W19290  34.158  37.311  11.036
46976W        W19291  27.606  23.642   4.117
46977W        W19292  37.551  17.252  10.722
46978W        W19293  44.533   2.783  14.540
46979W        W19294  10.919  19.085  12.956
46980W        W19295  32.311   5.934   1.462
46981W        W19296  10.974  36.590  12.184
46982W        W19297   7.071  15.792   4.519
46983W        W19298   2.707  42.391   2.351
46984W        W19299  43.478  31.516   2.788
46985W        W19300  25.949  37.880  13.947
46986W        W19301  43.519  35.002   3.820
46987W        W19302  40.978  23.788   4.255
46988W        W19303  27.677  32.496   2.445
46989W        W19304  24.557  10.868  14.758
46990W        W19305   4.001   6.402  11.797
46991W        W19306  12.139  38.803   0.871
46992W        W19307  25.854   5.345   4.053
46993W        W19308  15.126  37.533   4.594
46994W        W19309  15.534   4.962   2.651
46995W        W19310  38.486  18.149  13.019
46996W        W19311  36.547   9.462  14.976
46997W        W19312  26.106  10.697  10.364
46998W        W19313  33.951   8.647  13.418
46999W        W19314  36.504  10.805   0.319
47000W        W19315  28.470   2.930   0.475
47001W        W19316  40.986  13.028   3.798
47002W        W19317  22.613  41.377   1.309
47003W        W19318  14.041  36.552   0.826
47004W        W19319  22.151   9.672  10.874
47005W        W19320  37.593  36.068   2.670
47006W        W19321  18.241  34.590   1.649
47007W        W19322  33.412  16.808  13.951
47008W        W19323  25.050  23.659  11.910
47009W        W19324  43.309  31.642  10.721
47010W        W19325  28.079  37.539  11.181
47011W        W19326   1.775  29.091  13.955
47012W        W19327  31.844  35.458   2.825
47013W        W19328   8.114  12.994  14.826
47014W        W19329  36.123   0.906   3.144
47015W        W19330  17.359  31.372  13.905
47016W        W19331  27.928  18.541   4.224
47017W        W19332  41.217  32.695  12.413
47018W        W19333  15.886  19.618  11.445
47019W        W19334   4.865   1.184  11.162
47020W        W19335  43.783  14.164  13.851
47021W        W19336  30.092  19.383   2.117
47022W        W19337  34.394   2.884   4.413
47023W        W19338  34.017   0.250   3.024
47024W        W19339  36.597   0.857   0.749
47025W        W19340  20.461   9.615  10.100
47026W        W19341  27.578   4.660  10.081
47027W        W19342  44.743  11.191  13.840
47028W        W19343  19.263  35.390   4.047
47029W        W19344  41.449  23.006  12.919
47030W        W19345  17.822  41.885   0.003
47031W        W19346  44.442  40.975   3.732
47032W        W19347  13.420  35.491  13.594
47033W        W19348  25.564  41.542   0.467
47034W        W19349   9.379  41.994   4.588
47035W        W19350  33.604  34.351   3.696
47036W        W19351  14.268  13.742   2.450
47037W        W19352  30.103  42.167   4.555
47038W        W19353  35.448  44.620  11.533
47039W        W19354  15.098  14.580  12.441
47040W        W19355  37.401  39.380  10.663
47041W        W19356  27.321  12.535  12.045
47042W        W19357   9.424  15.696  12.370
47043W        W19358  19.208  39.057  13.918
47044W        W19359   1.910  44.552   1.378
47045W        W19360  20.573   1.242  10.737
47046W        W19361   9.326  12.387  14.836
47047W        W19362  11.246  29.378  13.594
47048W        W19363  11.378  44.159  11.085
47049W        W19364  42.754  32.668  12.366
47050W        W19365   1.837  16.576  13.598
47051W        W19366  12.526  39.761   3.577
47052W        W19367  37.743  13.386   0.962
47053W        W19368  40.526   9.750   2.421
47054W        W19369  25.449   9.281   3.294
47055W        W19370  30.651  44.482   4.119
47056W        W19371  10.413  16.593  10.643
47057W        W19372  16.302  22.444   0.440
47058W        W19373  21.600  43.193   4.958
47059W        W19374  41.464  26.035   4.157
47060W        W19375  35.166   4.040   1.743
47061W        W19376  20.724   9.649   0.008
47062W        W19377  13.555  18.285  14.193
47063W        W19378   4.186  40.080   3.702
47064W        W19379  30.450  27.039  11.026
47065W        W19380  38.792  10.449   1.274
47066W        W19381   2.845  31.153   2.454
47067W        W19382  11.619  41.879   1.176
47068W        W19383  23.146  42.504   1.649
47069W        W19384  33.620  44.861  13.391
47070W        W19385  24.418   7.423   2.612
47071W        W19386   4.718  26.628  14.475
47072W        W19387  34.024  25.759  13.860
47073W        W19388  34.563  35.361  11.622
47074W        W19389  24.128  23.457  10.070
47075W        W19390  42.639  42.699  10.962
47076W        W19391  12.879  30.562   4.087
47077W        W19392  42.088   5.886  12.692
47078W        W19393  38.388   6.164  13.074
47079W        W19394   4.818   1.625  14.389
47080W        W19395  25.421  33.984  10.773
47081W        W19396  24.165  19.664   1.850
47082W        W19397  21.110  29.358  14.111
47083W        W19398  21.957   5.295  10.468
47084W        W19399  15.509  22.589  14.094
47085W        W19400  14.826  33.932   2.721
47086W        W19401  17.513  14.858  12.929
47087W        W19402  13.269  43.102  12.610
47088W        W19403   4.487  18.262  10.512
47089W        W19404  15.788   2.673   2.779
47090W        W19405  37.918  24.097   3.944
47091W        W19406  36.553   8.663   2.773
47092W        W19407  14.302  24.092   4.977
47093W        W19408   4.309   0.447  12.469
47094W        W19409  30.012  43.280  12.496
47095W        W19410  44.039  20.639   4.658
47096W        W19411  42.472  31.191  10.455
47097W        W19412  15.528  17.306  14.860
47098W        W19413  27.974  19.740  10.740
47099W        W19414  32.453  41.733   3.755
47100W        W19415  30.398   8.875   1.875
47101W        W19416  21.108  25.623   4.798
47102W        W19417  15.671  28.600   3.726
47103W        W19418  14.838  23.548   2.544
47104W        W19419  11.658  22.587   2.230
47105W        W19420  20.149  34.617   4.640
47106W        W19421   1.921   3.940  11.367
47107W        W19422  24.954  23.165  12.047
47108W        W19423  12.676  15.610   3.438
47109W        W19424  26.457  16.200  13.957
47110W        W19425   7.282   2.831   0.869
47111W        W19426  12.735   3.503   3.575
47112W        W19427  34.386  38.919   2.650
47113W        W19428  27.147  37.088  13.878
47114W        W19429   9.236  39.322  12.914
47115W        W19430  31.424  11.174  13.756
47116W        W19431  16.353   5.156   1.248
47117W        W19432  13.748  22.993  11.573
47118W        W19433  32.616   7.398   0.997
47119W        W19434  21.671  41.796  12.491
47120W        W19435  32.987  37.079  11.216
47121W        W19436   0.322  15.389  14.019
47122W        W19437  44.959  35.124   2.468
47123W        W19438   2.948  12.875   0.341
47124W        W19439  34.015  22.724  10.595
47125W        W19440  39.251   3.728  12.138
47126W        W19441   8.820  24.717   1.263
47127W        W19442  35.297  27.012   2.766
47128W        W19443  19.427   9.902   4.201
47129W        W19444  10.766  18.658   5.430
47130W        W19445  17.603  13.596  11.598
47131W        W19446  16.613  24.537   2.197
47132W        W19447   6.417   5.779   0.294
47133W        W19448  23.012  18.206  10.563
47134W        W19449  14.059  21.759   1.960
47135W        W19450  12.037  37.277  11.081
47136W        W19451  32.885  15.948   3.722
47137W        W19452   8.803  11.870  12.444
47138W        W19453  25.622  25.070  10.621
47139W        W19454  13.548  30.792  12.383
47140W        W19455  36.422  14.718   4.597
47141W        W19456  12.188  30.678   3.660
47142W        W19457   3.733  16.007  13.864
47143W        W19458   7.270  16.492  10.713
47144W        W19459  30.565   1.269  13.679
47145W        W19460   9.394  25.523   2.916
47146W        W19461  32.423  25.216   0.291
47147W        W19462  40.590  12.879   3.466
47148W        W19463  21.745  11.808   0.687
47149W        W19464  33.672  25.417   0.306
47150W        W19465  17.550  26.190  12.063
47151W        W19466  22.650  10.147  14.990
47152W        W19467  41.898   6.808   0.036
47153W        W19468  37.287   8.784   4.104
47154W        W19469  40.679  17.404   1.340
47155W        W19470   0.504  19.206   1.398
47156W        W19471  44.623  24.963   3.512
47157W        W19472   9.183  35.720   3.817
47158W        W19473  31.519  10.655  13.967
47159W        W19474  22.033  42.317  12.642
47160W        W19475  32.690   5.807  13.851
47161W        W19476   7.663  25.519  14.619
47162W        W19477  32.957  22.612   4.060
47163W        W19478   2.904   5.643  13.053
47164W        W19479  14.674  12.112  11.030
47165W        W19480  22.957  37.609  13.767
47166W        W19481  18.058  16.716   0.800
47167W        W19482   8.965  21.733  10.574
47168W        W19483  25.664  39.049  13.520
47169W        W19484  36.650   2.784   0.863
47170W        W19485  28.923   1.300  11.957
47171W        W19486  11.293  11.372   2.872
47172W        W19487  28.154  10.234  12.263
47173W        W19488  43.880   0.034  14.585
47174W        W19489  43.388  33.897   2.367
47175W        W19490  27.913  13.542   1.246
47176W        W19491  34.838  24.769   0.746
47177W        W19492  23.186  44.278  12.062
47178W        W19493  40.536   1.392   0.440
47179W        W19494  24.476  10.128  14.246
47180W        W19495   7.583   8.557   4.100
47181W        W19496  29.566   6.230  13.453
47182W        W19497  24.730  44.347   0.237
47183W        W19498  44.284  27.545  13.490
47184W        W19499  39.095   1.469  12.433
47185W        W19500  26.428  29.928  14.042
47186W        W19501  38.298  22.482  12.929
47187W        W19502  43.351   6.211   4.318
47188W        W19503  26.865   2.519  10.675
47189W        W19504  23.974   2.049  14.799
47190W        W19505  36.169   5.440   4.672
47191W        W19506  19.640  22.612   2.870
47192W        W19507  10.639  13.208   3.675
47193W        W19508  28.027  18.086  10.179
47194W        W19509  23.533  36.332   2.887
47195W        W19510   9.376   1.671  13.223
47196W        W19511   6.187  21.069  14.787
47197W        W19512  22.011   8.252  10.526
47198W        W19513  30.195  28.431   1.898
47199W        W19514  13.211  18.803   3.286
47200W        W19515   1.333  25.179  12.488
47201W        W19516  15.767  44.459   4.225
47202W        W19517  36.010  41.687  10.991
47203W        W19518  38.344  40.820   1.458
47204W        W19519   0.778  42.103  12.081
47205W        W19520  24.029  40.090   3.120
47206W        W19521  14.311   5.076  13.119
47207W        W19522  37.810  28.434  11.710
47208W        W19523  42.112  15.037  12.054
47209W        W19524  23.513  22.818   2.824
47210W        W19525  36.666  16.628   1.549
47211W        W19526   4.417   0.458  10.993
47212W        W19527  31.153  21.246  14.314
47213W        W19528  43.325  31.093   2.425
47214W        W19529   2.488  17.109  13.571
47215W        W19530  30.065  39.588   1.916
47216W        W19531  43.869   9.344   3.215
47217W        W19532  35.503   1.113   3.367
47218W        W19533  18.550  43.712  13.578
47219W        W19534  42.379  29.508  14.485
47220W        W19535  22.292  33.922   0.580
47221W        W19536  15.537  39.169  11.383
47222W        W19537  12.064  25.644   3.070
47223W        W19538  31.081  37.337   3.269
47224W        W19539   1.422  42.832   1.530
47225W        W19540   5.331   3.327   2.603
47226W        W19541  38.531  34.535  12.557
47227W        W19542  31.425   5.600   1.487
47228W        W19543  34.625   5.550   2.809
47229W        W19544  27.989  15.315   3.581
47230W        W19545  10.367   9.835  11.186
47231W        W19546  34.910  21.539   1.491
47232W        W19547  12.664  25.732   1.333
47233W        W19548  19.685   1.236   0.954
47234W        W19549   2.389  33.878  12.092
47235W        W19550  10.101  28.041  12.652
47236W        W19551  21.689  24.700   1.908
47237W        W19552   2.139   5.232   4.064
47238W        W19553  33.529   7.598  13.881
47239W        W19554  10.817  41.440  12.511
47240W        W19555  25.958  18.282  12.436
47241W        W19556  39.992  40.897   3.868
47242W        W19557  43.286  34.047   1.188
47243W        W19558   0.537  37.024   4.524
47244W        W19559  18.088   0.410   2.898
47245W        W19560  19.263  40.915  12.861
47246W        W19561   8.968  29.024   1.451
47247W        W19562  34.174  29.733   2.278
47248W        W19563   1.480   8.185  12.215
47249W        W19564  25.471   5.772  14.336
47250W        W19565  37.360   7.053  14.967
47251W        W19566  14.729  42.328  13.839
47252W        W19567  30.080  35.049   4.871
47253W        W19568   5.246  42.028   4.115
47254W        W19569  28.656   9.444   0.841
47255W        W19570  21.654  42.055   0.446
47256W        W19571   5.583  30.559  13.127
47257W        W19572  40.921  24.994  14.033
47258W        W19573   2.928  17.191  11.170
47259W        W19574  29.661  29.693  14.396
47260W        W19575  38.756  33.948   2.436
47261W        W19576   7.081  21.537  14.851
47262W        W19577  12.793  27.517   3.340
47263W        W19578  26.500  34.737   4.677
47264W        W19579  20.041  17.170  12.948
47265W        W19580  37.244   9.330  11.022
47266W        W19581   4.118  37.385   2.374
47267W        W19582  35.776  41.064   2.609
47268W        W19583  13.226  20.624  13.010
47269W        W19584   4.463  25.641   2.702
47270W        W19585  26.744  39.562   0.239
47271W        W19586  40.438  43.605  12.124
47272W        W19587   7.210   8.239   2.197
47273W        W19588  34.559  23.019   3.334
47274W        W19589   6.860  40.088   4.466
47275W        W19590   2.199  15.776   0.200
47276W        W19591   9.679  26.595  14.017
47277W        W19592  14.625  31.864  10.731
47278W        W19593  44.171  41.752   2.252
47279W        W19594  25.340  14.174   1.492
47280W        W19595   3.556  32.013  12.857
47281W        W19596  39.349  17.500   1.780
47282W        W19597  20.239   6.178   2.659
47283W        W19598  34.818   3.672   2.664
47284W        W19599   3.002  28.793   4.102
47285W        W19600  42.509  19.265  13.964
47286W        W19601  16.173  21.785  12.537
47287W        W19602   7.241  28.474   2.757
47288W        W19603  23.158  41.312  12.929
47289W        W19604  21.667  20.701   2.828
47290W        W19605  36.003  41.775   1.833
47291W        W19606  38.405  34.431  13.994
47292W        W19607   8.117  23.502   0.190
47293W        W19608  25.537   4.783   1.399
47294W        W19609  22.048  33.647   2.980
47295W        W19610  25.129  21.080  13.016
47296W        W19611   6.516  10.878  10.747
47297W        W19612  35.100  13.747  13.915
47298W        W19613  28.110  22.589   2.335
47299W        W19614  32.031  26.335  14.659
47300W        W19615   8.871  16.120  12.348
47301W        W19616  44.744  29.878  14.503
47302W        W19617   0.519  10.685  11.456
47303W        W19618  28.706  33.081   4.043
47304W        W19619  28.319  23.700   2.572
47305W        W19620   8.354  33.951   3.763
47306W        W19621  21.854  17.822  13.828
47307W        W19622  22.042  11.663  13.987
47308W        W19623  31.993  10.392  14.419
47309W        W19624  12.778  10.422   3.700
47310W        W19625   1.026  32.871   4.217
47311W        W19626   6.990  17.867   0.262
47312W        W19627  17.131  38.823   5.483
47313W        W19628  11.717   3.849   3.269
47314W        W19629  13.558   7.998  14.155
47315W        W19630  19.136  13.231  12.228
47316W        W19631   8.080  14.885  14.000
47317W        W19632  21.547   8.860   3.294
47318W        W19633  34.550  32.657   3.642
47319W        W19634  35.525  14.866  12.028
47320W        W19635  14.073   0.775   1.743
47321W        W19636  35.328  19.207  13.553
47322W        W19637  30.699  17.746  12.259
47323W        W19638  17.053  39.569   4.586
47324W        W19639  33.686   9.412   3.871
47325W        W19640   3.084  18.958  11.575
47326W        W19641   5.693  18.291  12.075
47327W        W19642  19.914  36.142   0.417
47328W        W19643   3.733   9.258   3.609
47329W        W19644  40.997  34.633   0.900
47330W        W19645  26.070  26.599   0.001
47331W        W19646  44.799   0.196  11.051
47332W        W19647  30.595  10.154  11.593
47333W        W19648  34.851  11.547   4.588
47334W        W19649  34.906  32.388   0.916
47335W        W19650   7.316  22.283   2.005
47336W        W19651  26.940  16.546  11.549
47337W        W19652  10.744  16.542  13.854
47338W        W19653  37.605  27.668   2.409
47339W        W19654  28.620  33.545   5.421
47340W        W19655  13.241  28.625   1.290
47341W        W19656  18.174  14.884  13.461
47342W        W19657  40.098   3.247   3.131
47343W        W19658   4.794  21.478   3.206
47344W        W19659  10.322  11.127  14.872
47345W        W19660  35.495  16.725   3.656
47346W        W19661   2.763  11.308  10.617
47347W        W19662  42.199  38.418   3.700
47348W        W19663  32.089  25.193  12.532
47349W        W19664   9.924   9.181   4.066
47350W        W19665  32.983  25.691   1.956
47351W        W19666   6.273  18.311  13.550
47352W        W19667  37.345   2.699   4.640
47353W        W19668  14.136  21.905  12.575
47354W        W19669   3.391  31.895  10.548
47355W        W19670  11.117  15.149  14.354
47356W        W19671  19.231  40.041  12.884
47357W        W19672  12.974   6.925  10.132
47358W        W19673  10.969   2.370   2.780
47359W        W19674  28.525  32.416   0.979
47360W        W19675  12.155  18.141   2.862
47361W        W19676  25.811  20.584  14.825
47362W        W19677  20.240  25.101  11.190
47363W        W19678  38.873  19.320  13.143
47364W        W19679  24.251  44.029  13.400
47365W        W19680  35.544  33.593  14.016
47366W        W19681  10.306  37.282  11.714
47367W        W19682  44.761  41.751  11.187
47368W        W19683  21.771   1.487   4.121
47369W        W19684   1.458  25.764  12.929
47370W        W19685  29.971  33.748   1.899
47371W        W19686  26.540  31.857   2.230
47372W        W19687  17.356  13.353  11.212
47373W        W19688   8.914  20.849   1.165
47374W        W19689  37.977  21.508  11.996
47375W        W19690  40.886  32.128   2.605
47376W        W19691   6.349   2.836   1.935
47377W        W19692   2.913  18.085  13.131
47378W        W19693   2.784  36.834  14.168
47379W        W19694  17.349   5.717   4.226
47380W        W19695  17.337  44.652   2.960
47381W        W19696  20.098  40.036   1.439
47382W        W19697  28.737  17.147   0.049
47383W        W19698   3.722  41.359  14.894
47384W        W19699  24.552   4.130   3.007
47385W        W19700  13.506  20.188  10.639
47386W        W19701   3.032  13.980  12.866
47387W        W19702  42.493  29.602   0.875
47388W        W19703  32.559   5.648   4.256
47389W        W19704  24.782  44.792  14.944
47390W        W19705  34.972  19.368  11.940
47391W        W19706  19.683  21.159   0.128
47392W        W19707  38.368  27.961  12.058
47393W        W19708  23.861  16.046   1.773
47394W        W19709  23.538   6.953  14.820
47395W        W19710  14.372  11.318   1.198
47396W        W19711   0.992  36.888   3.082
47397W        W19712   8.497  24.793  11.241
47398W        W19713   3.370  17.164   1.513
47399W        W19714  24.178  28.677   2.854
47400W        W19715  17.555  35.805   4.772
47401W        W19716  44.712  24.774  11.910
47402W        W19717  13.592  27.189  12.634
47403W        W19718  34.945   9.469  13.455
47404W        W19719  31.102   2.275   3.311
47405W        W19720  15.795  43.345   3.214
47406W        W19721  21.998  27.198   3.862
47407W        W19722  14.808  43.323  14.214
47408W        W19723  11.931  18.754   2.401
47409W        W19724   8.216  14.445  11.662
47410W        W19725  35.863  22.265  11.622
47411W        W19726  31.915  40.513   0.271
47412W        W19727  13.226  31.395  12.992
47413W        W19728  34.657  28.035   2.901
47414W        W19729  28.683  15.383  14.344
47415W        W19730  11.216  20.280   0.432
47416W        W19731  27.659  33.720   0.355
47417W        W19732   1.914  41.648  12.078
47418W        W19733   3.167   1.961   0.287
47419W        W19734   7.398  42.908   0.254
47420W        W19735  41.429  23.033  11.168
47421W        W19736  26.976  44.016   2.594
47422W        W19737  44.005  19.470   1.437
47423W        W19738   5.319  28.661  10.697
47424W        W19739  15.187  22.017   3.618
47425W        W19740  44.734  16.774   1.664
47426W        W19741  39.442  44.796   4.286
47427W        W19742  10.130  33.711  11.634
47428W        W19743  14.616  36.694   2.256
47429W        W19744   1.747  20.333   0.355
47430W        W19745  33.190   0.013   1.986
47431W        W19746  32.384  21.923   1.058
47432W        W19747  43.007  30.928  13.844
47433W        W19748   8.156  22.291  13.433
47434W        W19749  12.867  18.686   1.978
47435W        W19750  40.265  41.402  13.188
47436W        W19751  18.152  21.262  13.407
47437W        W19752  31.701  11.615   0.861
47438W        W19753  16.496  37.828   0.488
47439W        W19754  34.930  23.421   2.305
47440W        W19755  32.859  43.434  11.558
47441W        W19756  39.428  36.817  11.147
47442W        W19757   1.522  38.351   4.194
47443W        W19758  39.532  14.416  11.905
47444W        W19759  24.716  37.464   0.338
47445W        W19760  15.735  31.488  11.666
47446W        W19761  18.142  37.173   1.784
47447W        W19762   2.639  37.944   1.490
47448W        W19763   3.971  33.029  13.774
47449W        W19764  29.454  37.330  14.531
47450W        W19765   6.471  30.605  11.134
47451W        W19766  14.590  21.684   4.685
47452W        W19767  31.015   1.376   4.716
47453W        W19768  41.554  34.959   2.749
47454W        W19769  42.166  34.077   0.410
47455W        W19770  35.470  14.488  11.205
47456W        W19771  33.908   3.950  14.883
47457W        W19772  43.301  33.961  14.779
47458W        W19773   6.212  20.568  14.892
47459W        W19774  28.126  27.624   4.099
47460W        W19775   5.191  18.578  12.916
47461W        W19776  21.019  42.332   3.353
47462W        W19777  44.969  20.105   2.710
47463W        W19778  20.626  38.422  14.462
47464W        W19779   3.521   6.679   1.345
47465W        W19780  39.844  36.072   0.204
47466W        W19781  24.482  39.723  13.377
47467W        W19782  38.499   2.280  10.440
47468W        W19783  15.252  22.060   5.010
47469W        W19784  35.601  41.387  14.236
47470W        W19785  39.289  40.433   4.135
47471W        W19786   4.977  25.645   0.510
47472W        W19787  18.459   8.138  10.214
47473W        W19788   4.249  29.219   4.116
47474W        W19789  34.819  31.111   3.218
47475W        W19790  23.752  13.680  12.695
47476W        W19791  31.881  35.850  10.309
47477W        W19792  17.956   9.093   0.271
47478W        W19793  11.449  18.780   2.597
47479W        W19794   8.641  23.124  13.484
47480W        W19795  42.583  31.399   1.385
47481W        W19796  44.228   1.340  11.471
47482W        W19797  32.513  24.991  13.350
47483W        W19798   7.669  35.079  11.396
47484W        W19799   2.311   5.994   3.605
47485W        W19800  40.464  13.902  13.441
47486W        W19801  16.804  43.715   4.694
47487W        W19802  36.419  21.771   3.633
47488W        W19803   0.938  18.318   0.848
47489W        W19804  20.262   2.459   2.371
47490W        W19805  22.222   0.992   2.749
47491W        W19806  12.097  14.001  12.581
47492W        W19807  35.225  22.625  11.190
47493W        W19808  15.827   8.314  12.927
47494W        W19809  36.207  31.628   0.001
47495W        W19810  16.275   1.217   2.150
47496W        W19811   2.376  34.878  12.794
47497W        W19812   1.206  15.481  13.450
47498W        W19813  35.692  39.236  11.141
47499W        W19814  11.684   6.348  13.184
47500W        W19815  44.838  21.210   3.234
47501W        W19816  36.829  32.018  13.483
47502W        W19817  44.867  13.226   2.350
47503W        W19818  23.542  31.029   3.834
47504W        W19819  42.967  19.295  13.716
47505W        W19820  34.790  11.879  13.439
47506W        W19821  10.669  26.744  14.315
47507W        W19822   4.878  43.590   2.680
47508W        W19823   6.407  24.357  11.155
47509W        W19824  21.954  38.515  14.041
47510W        W19825  10.619  30.909   4.207
47511W        W19826   9.945  31.028   3.616
47512W        W19827  32.483  11.926   1.293
47513W        W19828  28.040  12.893  11.763
47514W        W19829   6.844  13.308   3.726
47515W        W19830  22.516  17.454  12.789
47516W        W19831  14.245  12.589  10.616
47517W        W19832  13.654  26.663  14.060
47518W        W19833   5.847   2.854  13.416
47519W        W19834  44.781  24.552  14.026
47520W        W19835   7.148  26.234  13.898
47521W        W19836  27.624   9.332   2.266
47522W        W19837  26.811  37.522  13.914
47523W        W19838   8.214  12.731  12.083
47524W        W19839   6.107  34.956   2.038
47525W        W19840  10.302  10.625  11.738
47526W        W19841  26.030  13.699   1.635
47527W        W19842  22.242  28.098  12.191
47528W        W19843  23.333  40.600  12.513
47529W        W19844  31.916  38.429   0.421
47530W        W19845  31.887   8.865   1.885
47531W        W19846   1.800  12.129   1.984
47532W        W19847  15.594  22.174  14.381
47533W        W19848  29.331  14.663  12.401
47534W        W19849   7.854   9.619   3.670
47535W        W19850  12.848  40.929  11.976
47536W        W19851  42.721   8.204   0.835
47537W        W19852  20.651  33.715  14.333
47538W        W19853   2.738   2.783  12.864
47539W        W19854   5.971  29.160  10.475
47540W        W19855  20.184   9.583   5.075
47541W        W19856  26.961  24.212  14.827
47542W        W19857  20.511  16.254  13.043
47543W        W19858   9.815   9.860   0.262
47544W        W19859   5.232  11.781   4.606
47545W        W19860   7.992  15.074   3.593
47546W        W19861  10.135   7.705  12.218
47547W        W19862  29.991   8.165   3.366
47548W        W19863  38.032  43.683  14.335
47549W        W19864   6.209  26.508   4.855
47550W        W19865  27.658  31.996   4.267
47551W        W19866  12.024  37.537   1.748
47552W        W19867   2.695  15.726   0.330
47553W        W19868  16.630  24.257  13.971
47554W        W19869  30.134  34.684   1.443
47555W        W19870  35.943  37.551   3.618
47556W        W19871  35.814   9.658  12.812
47557W        W19872  27.884   2.279  10.584
47558W        W19873  12.293  27.182  12.025
47559W        W19874  42.964  35.041   1.263
47560W        W19875  31.650  27.444  11.175
47561W        W19876   3.912   5.341  13.741
47562W        W19877  38.457   6.262  11.547
47563W        W19878  29.627  37.915   0.823
47564W        W19879  34.728  44.229   0.928
47565W        W19880  40.414   2.395   2.851
47566W        W19881  14.624   2.029  14.017
47567W        W19882  32.017  36.260  10.615
47568W        W19883  35.537  18.812  14.341
47569W        W19884  20.039  21.269  12.961
47570W        W19885  39.018  25.225   3.420
47571W        W19886  33.463  35.964   3.728
47572W        W19887  43.662   0.393  11.440
47573W        W19888  21.984  21.042   9.711
47574W        W19889  41.108  10.032  11.315
47575W        W19890   0.218  27.784   4.273
47576W        W19891  14.148  12.763  13.865
47577W        W19892  16.011  10.746  14.767
47578W        W19893  10.818  28.406  10.643
47579W        W19894  37.517  34.202  14.269
47580W        W19895  13.571  44.262   3.262
47581W        W19896  15.585   6.743  10.394
47582W        W19897  29.641  22.425  12.081
47583W        W19898   2.470  36.337  12.942
47584W        W19899  27.202  35.576  11.820
47585W        W19900  30.686   7.652   3.205
47586W        W19901  17.644  25.657   2.679
47587W        W19902  13.785   1.540   1.819
47588W        W19903  28.520   1.643  12.564
47589W        W19904  31.342  42.773  14.872
47590W        W19905  10.934  14.822   0.171
47591W        W19906   1.723  27.032   2.792
47592W        W19907  28.227   0.736   1.880
47593W        W19908  43.526  15.883   1.201
47594W        W19909  18.279  37.613   4.278
47595W        W19910  32.576   4.353   3.735
47596W        W19911  22.476  17.678   0.318
47597W        W19912  12.718  37.601   4.929
47598W        W19913  13.742  34.127  14.389
47599W        W19914   8.155   6.890  13.529
47600W        W19915  18.308  22.059  12.894
47601W        W19916  25.309  31.098   4.606
47602W        W19917  29.055  32.435   2.714
47603W        W19918  32.944  20.952   1.324
47604W        W19919  32.173  38.417   3.037
47605W        W19920  12.923  44.338   3.757
47606W        W19921  34.528  32.484   2.167
47607W        W19922  31.867  14.656   1.930
47608W        W19923  40.046  26.094  12.152
47609W        W19924  36.863  15.304   3.725
47610W        W19925   0.940   5.196   2.258
47611W        W19926  30.073  26.940  10.688
47612W        W19927   2.329   5.197   0.452
47613W        W19928   0.787  43.894   1.034
47614W        W19929  43.126  25.088   2.724
47615W        W19930  22.327  18.658   2.361
47616W        W19931  39.357  42.293  12.973
47617W        W19932  25.546  12.381  13.897
47618W        W19933  31.415  27.621   3.404
47619W        W19934  35.540  42.337  14.884
47620W        W19935  30.615  17.260   2.238
47621W        W19936  17.309  22.247   4.330
47622W        W19937  40.471   4.764   3.216
47623W        W19938   5.424  33.330   0.075
47624W        W19939  13.303  36.127  11.616
47625W        W19940   7.682  28.629   2.005
47626W        W19941  28.184   0.013  10.903
47627W        W19942  11.895  21.112  14.134
47628W        W19943  14.331  33.272   2.349
47629W        W19944  19.002  11.360   2.061
47630W        W19945  43.246   0.663   2.206
47631W        W19946  23.182  41.793   3.615
47632W        W19947  24.271  30.935   1.216
47633W        W19948   0.980   5.678   0.803
47634W        W19949  27.956  11.203  14.921
47635W        W19950  13.319  29.644  13.440
47636W        W19951  38.026  39.857  13.987
47637W        W19952  13.220  23.707  11.676
47638W        W19953  12.629   0.861  12.154
47639W        W19954   1.885  44.675   4.163
47640W        W19955  14.331  13.188   0.029
47641W        W19956   2.544   5.804  10.603
47642W        W19957  19.722  44.009  11.552
47643W        W19958   0.360  28.403  11.337
47644W        W19959   5.725   5.437  14.943
47645W        W19960  19.091  42.493  12.106
47646W        W19961  33.126  32.221   1.592
47647W        W19962  28.015   3.460  14.055
47648W        W19963  40.455  18.582   2.780
47649W        W19964  33.910  10.448  11.140
47650W        W19965  28.732   6.215   4.662
47651W        W19966  35.324  13.204   2.367
47652W        W19967  13.620  13.713  14.793
47653W        W19968  36.453  34.439   2.232
47654W        W19969  43.815  39.502   0.158
47655W        W19970  15.540  13.445   3.180
47656W        W19971  12.942  12.261   2.825
47657W        W19972  12.866  37.378   1.689
47658W        W19973  13.346  10.705   2.179
47659W        W19974  20.615   6.703   1.751
47660W        W19975  26.736  12.196   3.191
47661W        W19976   4.382  35.859  11.789
47662W        W19977  36.043  43.166   1.863
47663W        W19978   6.858  15.555  13.964
47664W        W19979  35.046  38.879  14.961
47665W        W19980  43.923  31.800   2.719
47666W        W19981  35.326  13.689  11.558
47667W        W19982  22.265  25.797   4.150
47668W        W19983  28.920   0.556  14.346
47669W        W19984  43.576  44.418  12.865
47670W        W19985  27.587  41.566   2.684
47671W        W19986  19.779   9.945  14.609
47672W        W19987  10.811   3.750  12.177
47673W        W19988  22.894  11.898   0.996
47674W        W19989  41.897  12.883  11.019
47675W        W19990   1.335   8.176  14.535
47676W        W19991  19.959   1.934   1.167
47677W        W19992  24.237  36.825  13.086
47678W        W19993   0.567  21.826  12.497
47679W        W19994   7.415   6.087   0.270
47680W        W19995  14.175  41.109  11.675
47681W        W19996  27.472   3.665   2.856
47682W        W19997   3.936  19.378   0.394
47683W        W19998  30.325  18.048   2.589
47684W        W19999  27.471  31.646  13.439
47685W        W20000  31.362  11.215   0.823
47686W        W20001  21.988   0.743  10.420
47687W        W20002  39.245   1.917  13.974
47688W        W20003  14.219  13.100  11.514
47689W        W20004  23.095  27.401   3.233
47690W        W20005  42.879  34.602  14.324
47691W        W20006  18.058  41.826  10.666
47692W        W20007  26.599   1.767  14.322
47693W        W20008   5.360   9.033   4.158
47694W        W20009   3.318  31.937  11.975
47695W        W20010  38.325  43.268  14.531
47696W        W20011  13.680  21.129   3.315
47697W        W20012   1.201  19.693  14.837
47698W        W20013   9.164   9.112   3.359
47699W        W20014  14.043  10.163   3.070
47700W        W20015  19.889   0.701  12.925
47701W        W20016  31.461   6.827  12.640
47702W        W20017  30.420  14.557  13.408
47703W        W20018  14.195  29.221   0.458
47704W        W20019  12.301   6.301  10.420
47705W        W20020  13.517  44.783   0.534
47706W        W20021  27.229  15.695  10.219
47707W        W20022   1.224  40.448  13.962
47708W        W20023  10.356  40.008  13.300
47709W        W20024  12.815  31.954  12.204
47710W        W20025  15.736  38.855  13.961
47711W        W20026  20.215  25.154  11.750
47712W        W20027  18.342  33.106  14.525
47713W        W20028   3.192  19.296  14.722
47714W        W20029   3.237  13.795  14.559
47715W        W20030  39.816  39.558   0.532
47716W        W20031  37.129   7.350   4.549
47717W        W20032  10.879  31.037  13.997
47718W        W20033   8.486  29.410  12.912
47719W        W20034  39.916   9.234   2.837
47720W        W20035   2.115   9.752   3.297
47721W        W20036  14.424   9.429  13.984
47722W        W20037   3.878  33.056  13.266
47723W        W20038  36.113  38.606   3.730
47724W        W20039   5.378   9.984  13.314
47725W        W20040  13.578  23.717  13.433
47726W        W20041   0.502   8.423   1.322
47727W        W20042  24.154  23.212  12.813
47728W        W20043  31.690  16.531   0.831
47729W        W20044  37.937  15.346  14.651
47730W        W20045  25.448  38.798  11.120
47731W        W20046  33.446  21.877   4.031
47732W        W20047   9.334  11.267  10.901
47733W        W20048  15.223  34.114  12.032
47734W        W20049  37.590  10.613  11.551
47735W        W20050  14.102  18.803   4.276
47736W        W20051   4.668  16.733   2.435
47737W        W20052  13.712  26.325  12.569
47738W        W20053  15.752  40.318  10.141
47739W        W20054  34.957  25.126  12.373
47740W        W20055  32.073   7.148  11.483
47741W        W20056  23.032  30.972   4.701
47742W        W20057  38.911   2.843   0.527
47743W        W20058  41.904  29.479  13.789
47744W        W20059  40.884  21.038  10.481
47745W        W20060  16.227  23.134   3.666
47746W        W20061  39.522  38.230   0.031
47747W        W20062   5.965  10.706  12.000
47748W        W20063  18.866   6.511   3.350
47749W        W20064   1.663  21.803  11.052
47750W        W20065   0.936  21.252   9.938
47751W        W20066  40.842  22.042  13.373
47752W        W20067  14.117  20.612   2.220
47753W        W20068   1.076  33.441   1.195
47754W        W20069   7.473   8.256  10.995
47755W        W20070   1.248  33.053  12.455
47756W        W20071   9.371   2.934  13.355
47757W        W20072   0.709  36.395   3.672
47758W        W20073  11.534  42.379   2.863
47759W        W20074  41.090  33.487   2.348
47760W        W20075  19.815   3.140  11.389
47761W        W20076  21.625  17.647   1.397
47762W        W20077  34.745  22.783  11.051
47763W        W20078  23.548  21.570   0.785
47764W        W20079   1.285  13.141   3.192
47765W        W20080  40.395  12.783   4.939
47766W        W20081  28.534  27.125  10.896
47767W        W20082   9.900   0.006  12.839
47768W        W20083  17.819  21.622  11.015
47769W        W20084  21.265  28.903   4.087
47770W        W20085  34.467  36.370  11.534
47771W        W20086  41.526  37.267  11.505
47772W        W20087  39.443  14.084   1.783
47773W        W20088   7.013  28.355  11.086
47774W        W20089   6.983  37.868  11.608
47775W        W20090   2.766  33.315   4.804
47776W        W20091  32.910  19.706   4.286
47777W        W20092  33.525  12.273  10.510
47778W        W20093  29.530  38.944   3.194
47779W        W20094   2.917  24.360  14.289
47780W        W20095  41.999  28.592  13.080
47781W        W20096  14.211  30.558   3.913
47782W        W20097  26.540  26.699  13.910
47783W        W20098  29.743  22.187  14.512
47784W        W20099  38.344  44.444  12.954
47785W        W20100  44.768  14.299   3.248
47786W        W20101  40.418  12.288  10.470
47787W        W20102  39.763  14.838   3.289
47788W        W20103  44.765  25.809   3.639
47789W        W20104  39.885  16.094  11.603
47790W        W20105  20.714  16.645   1.911
47791W        W20106  12.185  16.233  10.364
47792W        W20107  35.914  10.223   3.248
47793W        W20108  14.946   8.758  14.295
47794W        W20109  42.662  20.732  12.037
47795W        W20110   1.753  22.058  13.241
47796W        W20111   6.738  35.479  14.321
47797W        W20112  43.873   6.913   0.833
47798W        W20113  41.763   6.690   0.908
47799W        W20114  37.557  42.381  14.574
47800W        W20115  40.040  13.823   4.534
47801W        W20116  36.435  10.299   0.443
47802W        W20117   1.906  38.926   1.960
47803W        W20118   5.282  38.834   1.370
47804W        W20119  12.258  15.776   3.727
47805W        W20120   9.763  36.339   2.729
47806W        W20121  27.052  28.468   0.697
47807W        W20122  26.952   8.368   1.868
47808W        W20123  38.385   6.280   2.923
47809W        W20124  28.928  24.417  13.020
47810W        W20125  19.686  17.264   3.202
47811W        W20126   6.782  41.552  14.228
47812W        W20127  39.341  41.257   1.896
47813W        W20128  22.945  29.114  14.276
47814W        W20129  35.146   9.858  12.069
47815W        W20130  38.289  20.563  12.856
47816W        W20131  26.491  12.794  14.429
47817W        W20132  44.250  38.962   3.154
47818W        W20133  15.641  11.654  13.365
47819W        W20134  18.194  25.480  13.028
47820W        W20135  26.236  11.191  11.122
47821W        W20136  26.641  14.245   4.944
47822W        W20137  18.159  30.112   0.835
47823W        W20138  27.198  20.492  13.794
47824W        W20139   0.484   0.293  12.842
47825W        W20140  28.276   3.650   9.796
47826W        W20141  13.703   5.373   3.152
47827W        W20142   3.793  38.640   0.513
47828W        W20143  15.290  42.594   1.315
47829W        W20144  18.021   6.606   1.514
47830W        W20145  29.028   6.778   3.270
47831W        W20146   6.988  20.602   3.911
47832W        W20147  26.243  28.393  11.470
47833W        W20148   4.551  21.346   1.654
47834W        W20149  34.908  40.167   4.189
47835W        W20150  21.300  10.390   4.522
47836W        W20151  31.878  28.839  13.478
47837W        W20152  14.289  32.432  14.405
47838W        W20153  41.267  37.454   2.391
47839W        W20154  26.000   3.868   1.357
47840W        W20155  44.920   5.838  13.392
47841W        W20156  16.863   3.322  12.982
47842W        W20157  34.412  24.192   3.438
47843W        W20158  16.124  23.165  14.822
47844W        W20159  26.986   5.429  13.870
47845W        W20160  20.344   0.481  12.946
47846W        W20161  36.618  41.378  14.798
47847W        W20162   5.674  10.318   2.819
47848W        W20163  19.062   7.128  10.627
47849W        W20164   7.140   6.655   3.569
47850W        W20165  17.288  21.738   3.206
47851W        W20166  16.802  35.345   3.194
47852W        W20167  13.673  12.683   0.069
47853W        W20168  25.243   7.529  13.393
47854W        W20169  24.040  19.337   4.224
47855W        W20170  33.281   9.892   0.929
47856W        W20171   7.866  32.398  11.544
47857W        W20172  23.826  32.109  12.155
47858W        W20173  33.319  22.175   1.442
47859W        W20174  16.180  14.259   4.584
47860W        W20175  15.026  30.050   4.629
47861W        W20176  29.936  15.664   3.954
47862W        W20177  41.780   9.755  10.471
47863W        W20178   0.091   0.278   2.235
47864W        W20179  13.234  13.070   1.866
47865W        W20180   9.854   9.630   3.796
47866W        W20181  36.868  24.485  13.483
47867W        W20182  18.029  38.733   2.309
47868W        W20183  36.048   9.588   4.113
47869W        W20184   9.905  27.148  10.974
47870W        W20185  34.806  20.467  11.420
47871W        W20186   6.940  21.089   4.122
47872W        W20187  29.723  43.765   0.860
47873W        W20188  28.977  19.703   2.678
47874W        W20189  21.256  39.261  14.779
47875W        W20190  36.724  42.168  11.390
47876W        W20191   4.258  32.072   2.689
47877W        W20192   5.040  27.155   5.019
47878W        W20193  34.933   7.645  13.800
47879W        W20194  30.400  11.584   3.726
47880W        W20195   6.332  24.665  13.994
47881W        W20196  32.860  10.118  11.465
47882W        W20197  38.059   9.139   2.697
47883W        W20198  18.154   5.401   0.469
47884W        W20199  36.999   8.724  13.598
47885W        W20200   8.675  34.982  13.849
47886W        W20201   4.731  12.395   4.177
47887W        W20202  10.149  30.416  11.967
47888W        W20203  42.369  33.864  14.956
47889W        W20204  31.358  21.540  13.028
47890W        W20205  25.563  36.909  11.662
47891W        W20206  10.160  10.887  14.428
47892W        W20207   8.564  38.571  10.420
47893W        W20208  29.897  44.001   2.368
47894W        W20209  16.784  37.590  14.173
47895W        W20210  37.042  11.548  10.726
47896W        W20211  18.688  21.260  14.036
47897W        W20212  17.693   6.848  13.369
47898W        W20213  17.276  11.098   4.226
47899W        W20214   2.825  15.670   0.835
47900W        W20215  16.978  42.994   2.205
47901W        W20216  18.207  10.842   4.152
47902W        W20217  43.926  22.531  10.811
47903W        W20218  17.511  42.981   1.292
47904W        W20219  19.944  30.405  14.438
47905W        W20220  17.318  29.091   3.661
47906W        W20221  21.048  29.945  11.894
47907W        W20222   5.415  11.911   2.246
47908W        W20223   9.257  21.542   3.101
47909W        W20224   8.569  28.930  12.120
47910W        W20225   0.146  33.902  10.791
47911W        W20226  41.942  24.037  11.171
47912W        W20227  19.499   2.850   1.213
47913W        W20228   0.820   7.028  13.346
47914W        W20229  34.353  34.160   3.111
47915W        W20230  27.498  39.953   2.114
47916W        W20231  31.510   8.245   0.136
47917W        W20232  44.455  34.889  13.809
47918W        W20233  32.892  29.123  12.097
47919W        W20234  30.463  24.123   1.776
47920W        W20235  19.483  29.141  14.367
47921W        W20236  38.564  21.263  13.436
47922W        W20237  28.756  26.693  13.982
47923W        W20238  21.329  17.371   0.924
47924W        W20239   6.368  18.358   4.549
47925W        W20240  33.320  21.938  14.031
47926W        W20241  31.687  40.776  13.333
47927W        W20242  30.432  23.729   2.752
47928W        W20243   0.502  21.758   4.651
47929W        W20244  21.226  12.260   4.165
47930W        W20245  23.472  22.761  11.484
47931W        W20246  17.574  37.326   4.905
47932W        W20247   5.408  41.334   0.972
47933W        W20248  39.611   1.918   1.816
47934W        W20249  36.681  26.116   0.217
47935W        W20250  43.842  35.397  11.734
47936W        W20251  21.784  11.424  14.373
47937W        W20252  28.249   9.114  10.925
47938W        W20253  15.143   6.234  13.568
47939W        W20254  43.342  30.632   4.960
47940W        W20255  33.280  15.790   2.866
47941W        W20256  35.430  15.466  14.515
47942W        W20257  43.539   5.269   3.174
47943W        W20258  43.737  36.975   0.870
47944W        W20259  14.554  12.791  14.192
47945W        W20260  35.907  20.228  12.536
47946W        W20261   8.237   0.094  10.802
47947W        W20262  35.639  39.527   2.070
47948W        W20263  28.174  23.122   2.261
47949W        W20264  28.923  31.240  13.760
47950W        W20265  37.909   3.577   0.670
47951W        W20266  36.324  32.157   0.298
47952W        W20267   0.938  34.373   0.276
47953W        W20268   9.171  18.782   3.630
47954W        W20269   1.946   3.551  14.232
47955W        W20270  19.189  42.251  12.597
47956W        W20271  20.808   5.304  11.189
47957W        W20272  37.069  42.582   3.085
47958W        W20273  12.878  29.110  13.528
47959W        W20274  32.151   1.965  13.476
47960W        W20275  42.954  16.707  14.535
47961W        W20276   6.182  40.783  11.409
47962W        W20277   7.973  31.474   2.020
47963W        W20278  41.504  31.093   1.831
47964W        W20279   6.664   4.721  12.040
47965W        W20280  41.046  22.701   4.339
47966W        W20281   1.316  30.594   4.703
47967W        W20282  33.430  22.172   0.922
47968W        W20283  24.432   1.678   4.485
47969W        W20284  29.691  22.695  11.627
47970W        W20285  38.552  18.577   1.436
47971W        W20286  18.553   7.035  10.566
47972W        W20287  30.600   3.923   3.726
47973W        W20288  18.515  15.162  14.451
47974W        W20289  24.118   2.193   3.265
47975W        W20290  29.594  35.919  10.209
47976W        W20291  43.859  27.733   3.240
47977W        W20292  44.384   9.053  14.743
47978W        W20293  38.789   7.489  11.183
47979W        W20294  21.141   3.425   2.294
47980W        W20295  44.305  39.450  11.792
47981W        W20296  17.913  16.808  14.926
47982W        W20297  30.959   5.245   2.662
47983W        W20298  26.206  25.472   3.298
47984W        W20299  21.956  36.486  10.551
47985W        W20300  25.960  11.936  14.413
47986W        W20301   3.741  39.492   0.275
47987W        W20302  37.350  29.265  14.748
47988W        W20303   4.263   2.881  10.755
47989W        W20304   0.482  15.683   1.555
47990W        W20305  36.396  32.694   0.493
47991W        W20306  28.129  27.158   3.202
47992W        W20307  41.670  24.528   2.303
47993W        W20308  35.346  22.416  11.645
47994W        W20309  30.984  44.770  11.343
47995W        W20310   3.904  18.404   3.639
47996W        W20311  30.989  22.175  12.622
47997W        W20312  13.805  19.718   2.279
47998W        W20313   9.492   2.666  12.930
47999W        W20314  40.793  24.186   2.715
48000W        W20315  41.153  34.096   4.616
48001W        W20316  23.697  10.739   2.853
48002W        W20317  32.162  24.214  12.447
48003W        W20318  14.695  22.742   0.334
48004W        W20319  18.992  13.188   4.871
48005W        W20320   1.448   4.291  12.962
48006W        W20321  19.627   0.050  14.975
48007W        W20322  34.402  43.949   3.327
48008W        W20323   8.437  32.011  14.462
48009W        W20324  26.660  36.910   0.552
48010W        W20325  40.259   2.876  13.944
48011W        W20326  36.887   9.125   3.547
48012W        W20327  39.799  28.987  12.897
48013W        W20328  39.341  10.585   4.200
48014W        W20329  11.101   4.475  14.228
48015W        W20330   9.690  27.903   1.543
48016W        W20331  38.523   8.336  12.623
48017W        W20332  33.701  43.858  14.444
48018W        W20333  26.922  17.701   2.636
48019W        W20334  33.371   5.885   0.430
48020W        W20335   2.905  25.775  14.938
48021W        W20336   0.483  13.298  10.635
48022W        W20337  15.210  13.729   2.851
48023W        W20338  11.787   1.770  10.113
48024W        W20339  10.224  17.405   2.107
48025W        W20340   5.259  22.751  14.309
48026W        W20341   6.359  13.743  13.016
48027W        W20342  38.602  13.488   3.891
48028W        W20343  35.405  21.987  12.514
48029W        W20344  10.326  16.722   0.961
48030W        W20345  23.970  21.957  11.051
48031W        W20346  37.803  35.039   0.975
48032W        W20347  39.594   2.254  14.313
48033W        W20348  37.964  35.874  12.659
48034W        W20349   6.239  40.445   1.625
48035W        W20350  42.729   6.050  13.327
48036W        W20351   3.293  40.925   2.703
48037W        W20352  23.129   9.906  10.983
48038W        W20353  39.726  29.530   1.522
48039W        W20354  13.198  26.761  13.330
48040W        W20355  21.140  24.258   3.110
48041W        W20356  26.116  33.014   5.257
48042W        W20357  23.119   0.801   4.643
48043W        W20358  18.126   6.765  10.606
48044W        W20359  12.139   1.295   2.658
48045W        W20360   9.489  17.465  12.574
48046W        W20361   5.959  44.009  12.344
48047W        W20362  36.045  33.052   0.276
48048W        W20363  10.430  43.487  11.491
48049W        W20364  24.792  24.093  10.552
48050W        W20365  11.668  38.078   4.567
48051W        W20366  24.620  25.646  11.123
48052W        W20367  43.059  14.500   5.088
48053W        W20368   4.604  29.356   3.606
48054W        W20369  25.109   4.415   2.294
48055W        W20370  40.758  11.106   0.260
48056W        W20371  42.314  12.771  12.734
48057W        W20372  41.566  17.764  14.395
48058W        W20373  33.256  12.731   0.693
48059W        W20374  31.678   5.602   2.183
48060W        W20375  23.706   5.577  14.381
48061W        W20376  25.110  17.301  10.611
48062W        W20377  44.428  29.843   0.951
48063W        W20378  26.091  35.596   4.216
48064W        W20379  21.603   1.981  14.955
48065W        W20380  11.330   1.049   1.759
48066W        W20381  23.229  41.715   2.687
48067W        W20382  16.655  16.430  11.006
48068W        W20383   8.789  34.168   1.215
48069W        W20384   6.748   8.820   1.671
48070W        W20385  39.406   8.287   1.441
48071W        W20386  18.846  36.932   4.659
48072W        W20387  28.345  28.093  14.478
48073W        W20388   0.627  29.076  12.025
48074W        W20389  29.653   4.418  14.523
48075W        W20390  23.383   5.011  12.952
48076W        W20391  38.744   1.383  14.756
48077W        W20392   7.450  42.246  13.416
48078W        W20393   0.857  15.601  14.860
48079W        W20394  25.962   8.833   2.696
48080W        W20395  39.931   5.409  10.720
48081W        W20396   0.422   4.317   1.376
48082W        W20397   2.496  11.182   3.592
48083W        W20398   7.915  28.131   2.239
48084W        W20399   9.916  28.203  14.589
48085W        W20400  38.607  29.877  14.787
48086W        W20401  23.907  34.651  13.495
48087W        W20402   9.981   2.969   0.326
48088W        W20403  37.815  21.141   4.075
48089W        W20404  44.799   6.236   4.372
48090W        W20405  34.778   4.376   1.748
48091W        W20406  40.986  27.744   2.246
48092W        W20407  23.031  25.156  10.927
48093W        W20408  30.966   4.403   3.263
48094W        W20409  25.634  29.617  13.453
48095W        W20410  32.792   1.963  11.995
48096W        W20411  15.061  19.267  11.335
48097W        W20412   1.012  43.241  14.389
48098W        W20413  33.917  13.258  13.529
48099W        W20414  35.834  36.444   3.222
48100W        W20415  40.016   8.097  11.006
48101W        W20416  22.169  20.727   0.739
48102W        W20417  17.995  29.639   2.988
48103W        W20418  33.588   7.199   5.129
48104W        W20419   3.966  17.328  13.484
48105W        W20420  19.175   7.662   1.643
48106W        W20421  39.520  27.258  14.009
48107W        W20422   6.281  26.683   3.409
48108W        W20423  27.108  39.984   0.023
48109W        W20424  16.615  31.681   0.879
48110W        W20425  20.312  38.359   9.720
48111W        W20426  24.122   7.825   0.843
48112W        W20427  31.684  32.092   1.653
48113W        W20428  13.324   9.731   3.657
48114W        W20429  12.586   4.755  11.887
48115W        W20430  29.679   2.876  11.640
48116W        W20431   2.323  12.069   4.757
48117W        W20432  25.145   0.152   2.575
48118W        W20433  42.150  32.495  11.097
48119W        W20434  22.580  28.137   0.735
48120W        W20435   3.781   6.859  11.952
48121W        W20436   6.224  10.404   2.805
48122W        W20437  37.378  10.649  14.672
48123W        W20438  37.030   0.488  11.712
48124W        W20439  35.561  35.432  14.441
48125W        W20440   8.077  10.307  13.919
48126W        W20441   4.869  43.113  10.264
48127W        W20442  21.160  36.501   1.275
48128W        W20443   8.081   6.850   2.741
48129W        W20444  34.828  26.533  10.723
48130W        W20445  43.890  24.778   0.980
48131W        W20446   9.295  29.360  10.754
48132W        W20447  11.248  34.371   0.807
48133W        W20448   0.645  10.581   3.257
48134W        W20449  36.556   2.785  12.532
48135W        W20450  18.523  11.145  14.492
48136W        W20451  19.470  33.309   1.940
48137W        W20452  16.022  33.374  14.008
48138W        W20453   4.730  30.947  10.673
48139W        W20454  18.554  16.999  12.362
48140W        W20455   3.481   8.594  11.867
48141W        W20456   0.042  31.109   4.239
48142W        W20457   8.114  35.468   3.156
48143W        W20458  37.755  24.577   1.154
48144W        W20459   0.847   7.862  12.477
48145W        W20460  20.293  32.079   2.377
48146W        W20461  26.069   4.903   3.838
48147W        W20462  23.011  21.208   1.404
48148W        W20463  14.351  43.641   2.232
48149W        W20464  16.564  12.208   1.866
48150W        W20465   1.631  27.295  12.035
48151W        W20466   1.036   1.437  12.069
48152W        W20467  28.493   8.570   0.289
48153W        W20468  23.649  27.781  10.353
48154W        W20469  39.116  12.871  11.049
48155W        W20470  15.329   9.183   4.387
48156W        W20471  27.952  30.360  10.551
48157W        W20472  27.687  44.013   0.857
48158W        W20473  37.787  22.722   2.240
48159W        W20474  24.790  21.956   4.525
48160W        W20475  20.545  11.697  13.915
48161W        W20476   2.890   6.487  13.481
48162W        W20477  38.429  31.561  10.325
48163W        W20478  30.913  31.725  13.598
48164W        W20479  32.784  30.870  10.604
48165W        W20480  31.986  27.002  13.714
48166W        W20481  11.885  14.225   5.197
48167W        W20482  24.557  31.157   3.657
48168W        W20483  17.134  29.968   0.666
48169W        W20484  17.767  23.241   2.653
48170W        W20485   7.836  39.677   0.074
48171W        W20486  37.376   0.917   3.307
48172W        W20487  23.965   2.293   1.843
48173W        W20488  37.043  13.208   0.231
48174W        W20489   5.825   4.619   2.771
48175W        W20490  36.138  14.894   3.283
48176W        W20491  16.673  20.179  12.186
48177W        W20492  11.455  26.978  14.107
48178W        W20493   5.642  30.943  11.068
48179W        W20494   8.150   7.782  13.453
48180W        W20495  25.565  41.307   0.005
48181W        W20496  30.142  19.568  14.152
48182W        W20497  44.186  23.765  12.549
48183W        W20498  12.307  13.287  13.764
48184W        W20499   1.174  35.895  12.877
48185W        W20500   8.727   4.333   1.005
48186W        W20501  10.111  35.577   2.230
48187W        W20502  12.186  38.049  14.665
48188W        W20503  26.626  40.484  14.403
48189W        W20504  43.501  20.162   1.747
48190W        W20505  36.417  31.666   0.480
48191W        W20506  44.639  30.138   0.258
48192W        W20507  30.419  10.990   0.833
48193W        W20508  26.533   1.047   2.256
48194W        W20509  33.652  43.951  13.884
48195W        W20510  40.829   1.537  12.161
48196W        W20511   5.118  31.944  11.107
48197W        W20512  21.467   1.968   2.675
48198W        W20513  10.515  26.540   1.386
48199W        W20514  13.720   9.220  10.515
48200W        W20515   0.838  36.145  10.616
48201W        W20516  27.580  35.440  14.536
48202W        W20517  19.667   5.988  14.071
48203W        W20518  17.069  20.984  12.786
48204W        W20519  13.902  17.603   0.782
48205W        W20520  26.616  16.588   3.178
48206W        W20521   4.547  39.453   0.489
48207W        W20522  36.544  33.870   4.598
48208W        W20523  41.006  14.167   1.442
48209W        W20524  19.221  40.827   1.803
48210W        W20525  13.096  36.443  12.873
48211W        W20526  13.676  42.906  14.757
48212W        W20527  30.968  19.591  11.589
48213W        W20528  39.712  28.870   4.272
48214W        W20529  14.834  28.024  11.617
48215W        W20530  23.126   7.638   0.041
48216W        W20531  34.580  34.861  11.657
48217W        W20532  23.569  15.128   1.193
48218W        W20533  35.465  35.183  13.951
48219W        W20534  33.549  13.915  13.787
48220W        W20535  39.041   7.619   1.795
48221W        W20536  11.223  29.210   2.476
48222W        W20537  40.009  28.439  12.137
48223W        W20538  18.018   0.352  10.558
48224W        W20539  31.485  33.896   4.449
48225W        W20540  41.243  30.485   4.190
48226W        W20541  10.208  37.034  14.768
48227W        W20542   2.512  18.606  10.545
48228W        W20543  33.844  19.682  14.318
48229W        W20544  22.170  40.704  14.935
48230W        W20545  35.814  14.292   0.220
48231W        W20546   9.224  33.472   1.419
48232W        W20547  20.556   2.469  12.478
48233W        W20548  38.321  34.093   2.707
48234W        W20549  40.897  36.857  10.458
48235W        W20550  15.948  25.919  13.009
48236W        W20551   0.687  37.134  11.894
48237W        W20552  23.463  20.563  10.750
48238W        W20553  29.477   4.164   4.217
48239W        W20554  40.005  29.625  13.867
48240W        W20555  42.849   0.353   3.651
48241W        W20556   2.041  39.495   3.786
48242W        W20557   1.292  11.394   2.800
48243W        W20558  37.944  26.586  14.027
48244W        W20559  19.035  43.995   1.316
48245W        W20560  17.849  22.505  13.407
48246W        W20561  29.664  36.652   4.666
48247W        W20562  44.514   7.112  10.422
48248W        W20563  10.161  15.218  10.599
48249W        W20564  33.249   5.908  13.087
48250W        W20565  18.080  41.223   0.972
48251W        W20566  19.708  11.445   5.149
48252W        W20567   3.411  37.057  13.391
48253W        W20568   5.219  26.249   1.259
48254W        W20569  27.188  43.689  12.422
48255W        W20570  42.325  31.485   1.832
48256W        W20571  12.451  41.354   0.834
48257W        W20572  36.287  30.602   0.738
48258W        W20573  23.030  18.176  11.491
48259W        W20574  32.106  27.468   0.241
48260W        W20575  22.103   4.085   4.132
48261W        W20576  13.425  15.312  11.815
48262W        W20577  15.301  42.803  11.931
48263W        W20578  38.121  23.443  13.079
48264W        W20579  22.468  16.268  12.657
48265W        W20580  18.705  37.980   3.732
48266W        W20581  40.863  18.838   4.380
48267W        W20582  14.818  22.657  12.705
48268W        W20583  43.273  19.169   4.623
48269W        W20584  10.679  40.452   0.322
48270W        W20585  26.599  15.869   3.334
48271W        W20586  25.082  38.397  11.031
48272W        W20587  24.310  42.180   0.258
48273W        W20588  21.796  22.748   4.135
48274W        W20589  25.564  20.277   0.165
48275W        W20590  43.767  34.031  12.162
48276W        W20591  36.989  26.231   4.804
48277W        W20592  34.199  40.867   0.408
48278W        W20593  43.829  11.220  11.106
48279W        W20594  40.022  15.318   0.262
48280W        W20595  42.233  30.584   1.758
48281W        W20596  14.857  14.379   4.053
48282W        W20597  10.742  40.462  11.087
48283W        W20598  18.663  30.961  11.077
48284W        W20599  39.660  26.974   0.822
48285W        W20600  30.483   0.822  13.890
48286W        W20601  29.911  10.231  13.490
48287W        W20602  19.219  42.292   1.255
48288W        W20603   1.189  10.408  12.029
48289W        W20604  36.523  24.754   4.806
48290W        W20605  28.707  34.283   4.910
48291W        W20606  43.482   9.851   4.281
48292W        W20607  21.723  11.160   1.359
48293W        W20608   9.593  43.756   4.390
48294W        W20609  43.000  27.871  11.127
48295W        W20610   0.018  15.287  13.340
48296W        W20611   2.286  11.697  10.995
48297W        W20612  31.167   4.263  13.897
48298W        W20613  25.545  32.164  10.721
48299W        W20614  13.041  14.834   3.177
48300W        W20615  26.599  35.048  11.498
48301W        W20616  44.273  22.220  13.908
48302W        W20617   0.104   2.926   2.319
48303W        W20618  35.511   3.559   0.759
48304W        W20619  23.937   8.176   1.793
48305W        W20620  11.218  12.111   2.503
48306W        W20621  37.626  26.119  12.338
48307W        W20622  43.886  16.138   4.871
48308W        W20623  27.944  13.133   0.947
48309W        W20624  12.978  12.878   1.259
48310W        W20625  14.583  20.474   0.625
48311W        W20626  17.654  33.068  13.873
48312W        W20627  38.879  10.867   4.258
48313W        W20628  22.180  12.533   0.771
48314W        W20629  37.363   1.238   2.875
48315W        W20630  30.908  16.350  14.934
48316W        W20631  22.233  39.663   4.284
48317W        W20632  21.102   6.969   0.213
48318W        W20633  38.458  25.974  12.940
48319W        W20634  16.068  20.687   1.364
48320W        W20635  22.087  29.020  10.690
48321W        W20636  27.732   0.879  10.449
48322W        W20637  22.477  36.897  12.376
48323W        W20638   5.761  42.821   0.706
48324W        W20639  39.374  35.035  14.517
48325W        W20640  20.698  17.107  11.142
48326W        W20641   9.853   8.234  13.307
48327W        W20642  27.935  24.535  11.538
48328W        W20643  41.216   7.625   4.606
48329W        W20644   4.908  18.622   1.429
48330W        W20645  38.035  31.816   0.930
48331W        W20646  34.491  18.787  13.455
48332W        W20647  44.955  11.064   1.891
48333W        W20648  42.726  34.300  13.933
48334W        W20649  20.800  21.273  11.844
48335W        W20650  15.319   1.428  14.871
48336W        W20651   0.825  13.392   3.325
48337W        W20652   7.332  12.412  13.971
48338W        W20653  15.590  11.807   1.510
48339W        W20654  16.055   2.780   3.313
48340W        W20655  40.458  17.901   1.235
48341W        W20656   5.212  28.534   4.685
48342W        W20657  34.000  28.051   3.148
48343W        W20658  13.393   0.915  13.578
48344W        W20659  26.754  17.796   3.633
48345W        W20660  13.995  18.723   0.499
48346W        W20661   7.355  30.178   4.994
48347W        W20662  12.588  31.280   2.409
48348W        W20663   9.167  11.734   4.128
48349W        W20664  12.417   0.305   3.619
48350W        W20665  14.315  31.051  10.688
48351W        W20666  43.528   8.384  11.535
48352W        W20667  26.626  34.513   2.799
48353W        W20668  18.254  39.317   3.332
48354W        W20669  13.590  27.438  10.370
48355W        W20670   5.699  19.619  11.540
48356W        W20671  43.765  39.747  13.282
48357W        W20672  17.610   4.388   1.938
48358W        W20673   5.029  42.356  12.447
48359W        W20674  20.497  43.533   4.044
48360W        W20675  26.673  30.343  13.790
48361W        W20676  35.881  30.102   3.230
48362W        W20677   3.810  25.515   3.902
48363W        W20678  31.018  39.133   4.041
48364W        W20679  15.083  27.928   3.552
48365W        W20680  36.384  25.169   2.087
48366W        W20681   5.938  10.281   2.380
48367W        W20682  15.598  12.104  11.483
48368W        W20683   4.207  30.778   1.371
48369W        W20684  28.988   4.556  10.203
48370W        W20685  31.175  31.965   2.492
48371W        W20686   8.775  13.802   3.442
48372W        W20687  42.812  35.781  12.661
48373W        W20688   6.379  13.115   1.374
48374W        W20689  13.258  14.953  11.005
48375W        W20690  10.504  35.544  10.707
48376W        W20691   4.447   8.474  14.167
48377W        W20692  12.447  44.777  11.916
48378W        W20693  18.170   4.109  10.613
48379W        W20694  37.333  38.310   0.387
48380W        W20695  26.546  18.032  11.137
48381W        W20696  30.416   5.306  11.738
48382W        W20697   0.844  11.160  10.196
48383W        W20698  17.457  43.075  14.515
48384W        W20699  16.206   0.955   3.517
48385W        W20700   0.236  35.379  11.091
48386W        W20701  20.139   9.737   1.245
48387W        W20702  20.715   3.218   5.050
48388W        W20703  34.882  28.462   3.126
48389W        W20704  16.011  21.635   1.428
48390W        W20705  16.646  31.517  12.780
48391W        W20706  36.181  40.476  12.788
48392W        W20707  37.055   9.722  10.751
48393W        W20708  44.900  36.507   0.642
48394W        W20709  43.273  28.167  12.244
48395W        W20710   8.647  21.104  11.731
48396W        W20711  17.797  40.924   3.862
48397W        W20712  30.999  38.364   3.312
48398W        W20713  31.047  16.255  13.087
48399W        W20714  15.044  23.131   1.811
48400W        W20715  37.962  43.244  10.655
48401W        W20716   1.717  28.484  10.543
48402W        W20717  41.540  30.110   4.418
48403W        W20718  30.348  21.304   4.268
48404W        W20719  12.192  36.023   4.200
48405W        W20720  24.625   3.904   1.824
48406W        W20721  32.106  42.822  13.124
48407W        W20722  11.327  30.601   4.172
48408W        W20723  18.309  26.122   0.961
48409W        W20724  10.863  27.149  11.066
48410W        W20725  37.625  29.033  11.639
48411W        W20726  26.403  43.991  10.540
48412W        W20727  30.720  22.800  12.968
48413W        W20728   8.352  27.114   3.181
48414W        W20729  16.586  36.960   1.006
48415W        W20730  14.358  34.800   3.123
48416W        W20731  17.086  29.288  14.359
48417W        W20732  33.320  37.566   2.768
48418W        W20733  37.849  17.466  10.353
48419W        W20734  32.146  27.920   5.009
48420W        W20735  36.212  22.151  14.219
48421W        W20736  23.103  36.089  12.154
48422W        W20737  43.393  10.743   9.849
48423W        W20738  35.610  12.616  14.731
48424W        W20739   7.196  20.137  11.540
48425W        W20740   9.783   6.133   1.337
48426W        W20741  13.234  34.810  13.108
48427W        W20742   1.304  27.428  11.155
48428W        W20743  11.759  14.078  11.922
48429W        W20744  18.564  15.349  10.580
48430W        W20745  42.312  28.992  14.417
48431W        W20746  22.283  35.664  11.116
48432W        W20747   6.936  38.694   1.400
48433W        W20748  12.538  42.582   4.689
48434W        W20749  11.229  15.319   1.297
48435W        W20750  30.161  44.325   4.105
48436W        W20751  24.366  29.036  11.123
48437W        W20752  16.188  27.399   9.835
48438W        W20753  14.697   0.454   2.360
48439W        W20754  22.772  34.061   3.870
48440W        W20755  22.926   8.044  10.720
48441W        W20756  16.341  24.563   4.882
48442W        W20757  19.346  13.393   3.302
48443W        W20758  30.969  35.132  12.945
48444W        W20759  31.840  27.158   2.171
48445W        W20760  29.104  39.839   4.097
48446W        W20761   9.362  16.313   2.297
48447W        W20762  43.063  16.325   3.368
48448W        W20763  36.101  23.484   2.941
48449W        W20764  25.456  32.973   3.563
48450W        W20765  32.549  30.334  14.543
48451W        W20766  44.161  13.875   4.287
48452W        W20767  11.901  23.618   1.283
48453W        W20768  40.436   7.591   1.729
48454W        W20769  36.970  42.359  13.282
48455W        W20770   7.256   2.848  12.976
48456W        W20771  19.050  17.729  10.838
48457W        W20772  26.455  12.625  12.513
48458W        W20773  44.312  43.858   3.620
48459W        W20774   0.498   7.365   4.175
48460W        W20775   4.183  21.461   4.137
48461W        W20776  15.927  16.573  14.324
48462W        W20777  27.732  17.113  12.325
48463W        W20778  33.625   9.689  13.079
48464W        W20779  36.372  31.881  11.654
48465W        W20780  13.327  27.989   1.781
48466W        W20781   7.159   3.142   1.313
48467W        W20782   7.914  13.849   0.037
48468W        W20783   1.976   1.213  12.946
48469W        W20784  26.977   5.105  11.467
48470W        W20785  44.799  24.685  10.471
48471W        W20786  41.560   7.134  12.434
48472W        W20787  41.773  37.862   4.089
48473W        W20788   7.409  44.465   3.346
48474W        W20789  39.458  35.773   0.442
48475W        W20790  19.637  40.882   4.853
48476W        W20791  10.901  23.173  14.479
48477W        W20792  10.247   7.716   3.907
48478W        W20793   2.370  22.794  12.201
48479W        W20794  40.998  31.072   1.956
48480W        W20795  21.976   5.983   0.391
48481W        W20796  43.953  26.295   1.328
48482W        W20797  26.390   4.458  11.517
48483W        W20798  24.458  41.024  10.672
48484W        W20799  23.750   2.514   3.610
48485W        W20800  12.740  26.130  12.820
48486W        W20801  12.418  22.601   3.354
48487W        W20802   5.496  18.261   1.913
48488W        W20803  42.267  18.982   3.664
48489W        W20804  23.703  18.865  14.548
48490W        W20805  24.755  14.201   3.197
48491W        W20806  21.496  30.193  14.357
48492W        W20807   4.932  24.901   2.328
48493W        W20808  10.568  44.048  14.249
48494W        W20809  14.844  39.201  12.502
48495W        W20810  26.483  29.077  10.429
48496W        W20811  43.044  29.496  13.011
48497W        W20812  40.870   0.807   3.217
48498W        W20813  19.190  30.875   1.204
48499W        W20814  43.871  40.471   3.327
48500W        W20815  18.049  13.316   4.145
48501W        W20816  41.263  10.818  11.091
48502W        W20817   4.852  13.769   2.316
48503W        W20818  32.521  10.833  12.936
48504W        W20819  34.613  20.561  12.333
48505W        W20820   9.283   8.755   5.040
48506W        W20821  26.495  24.457  14.729
48507W        W20822  34.602   1.744   2.394
48508W        W20823  28.630  12.239   3.713
48509W        W20824  38.787  20.875   4.115
48510W        W20825  16.367  39.984  11.049
48511W        W20826  19.200  39.977  14.080
48512W        W20827  36.351  31.004   4.235
48513W        W20828   6.677  18.718  12.908
48514W        W20829  21.285   7.087  10.374
48515W        W20830   9.868  27.012  12.634
48516W        W20831  18.216  38.805  10.754
48517W        W20832  25.275  44.791   4.624
48518W        W20833  11.679  16.263  13.563
48519W        W20834  25.166   0.671   3.425
48520W        W20835   8.383   6.420  11.413
48521W        W20836  26.629  32.243   0.410
48522W        W20837   4.590   5.812  13.998
48523W        W20838  29.909  44.419  10.720
48524W        W20839  29.506  42.974  11.135
48525W        W20840  24.023  14.375   5.048
48526W        W20841  32.259   8.634  14.750
48527W        W20842  35.951  29.557  14.793
48528W        W20843  18.355  12.447   2.401
48529W        W20844  24.208  28.942  14.772
48530W        W20845  15.253  30.635  13.369
48531W        W20846   6.484  29.359   3.294
48532W        W20847  25.261  24.134   2.637
48533W        W20848  15.753  20.125   3.179
48534W        W20849  33.008   0.022  13.067
48535W        W20850  30.134  17.733   0.707
48536W        W20851   3.572  27.951   3.359
48537W        W20852  21.483  42.321   4.837
48538W        W20853  22.046  13.301   3.866
48539W        W20854  19.238  28.984  14.849
48540W        W20855  15.562  12.268  10.488
48541W        W20856  38.001   3.660  11.873
48542W        W20857  18.747   8.263  14.258
48543W        W20858  11.257   0.715   4.115
48544W        W20859   4.767  20.783  13.021
48545W        W20860  40.540  18.392   3.245
48546W        W20861  41.074  38.976  14.264
48547W        W20862   4.775  17.166   4.973
48548W        W20863  31.550   7.124   1.441
48549W        W20864  35.160  31.805  10.270
48550W        W20865  10.710  34.197  11.124
48551W        W20866  14.246   3.901  14.283
48552W        W20867  43.453  29.194   3.317
48553W        W20868  44.239  13.688  13.165
48554W        W20869  26.718  20.392   3.642
48555W        W20870  17.590  14.136   3.327
48556W        W20871  22.215  37.615  14.314
48557W        W20872  42.337  39.856  14.988
48558W        W20873  38.906  11.499  10.446
48559W        W20874  36.180  27.610   3.725
48560W        W20875   6.336   6.199   1.818
48561W        W20876  33.379  13.230  13.415
48562W        W20877  18.662   6.776  11.479
48563W        W20878  28.016   6.353   4.024
48564W        W20879  25.598  42.095  14.542
48565W        W20880   5.329  28.386   3.072
48566W        W20881  29.165   7.727   1.201
48567W        W20882   0.526  12.338  10.674
48568W        W20883   5.966  41.568   0.240
48569W        W20884  33.882  20.517   3.396
48570W        W20885  13.709   3.740   1.393
48571W        W20886  36.766  25.966  12.726
48572W        W20887  32.968  40.852   4.639
48573W        W20888  16.118  17.879   4.141
48574W        W20889  30.546   3.739  13.030
48575W        W20890  18.237  15.145  10.948
48576W        W20891  25.128  12.324  13.588
48577W        W20892  20.233  26.707   0.307
48578W        W20893  32.647  24.518   0.398
48579W        W20894  14.047  22.285   1.939
48580W        W20895  10.907  41.046  14.522
48581W        W20896   5.001   5.438  10.642
48582W        W20897  38.009  40.473   1.763
48583W        W20898  40.535   5.866  13.329
48584W        W20899  11.365   7.594   0.139
48585W        W20900  26.707  41.858  12.166
48586W        W20901   2.823   7.880  11.952
48587W        W20902  37.563  25.098  14.758
48588W        W20903  30.158  23.650   3.507
48589W        W20904   0.539  44.386   2.373
48590W        W20905  19.536  42.681   0.315
48591W        W20906  38.109  33.830  10.971
48592W        W20907  40.338  43.235   4.640
48593W        W20908  29.840   6.396   3.279
48594W        W20909  11.667  41.607  12.136
48595W        W20910  21.611  12.314   2.818
48596W        W20911  25.315   8.665  12.921
48597W        W20912  40.907  11.705   1.258
48598W        W20913  13.345  13.034  13.065
48599W        W20914  38.110  31.037  12.013
48600W        W20915  23.961  30.258   1.259
48601W        W20916   6.211  36.626  11.708
48602W        W20917  36.543  42.735   1.433
48603W        W20918  22.759   6.804  13.511
48604W        W20919  43.289  16.191  10.639
48605W        W20920  35.189  19.777  12.911
48606W        W20921  15.895   5.871  11.498
48607W        W20922  42.279  23.669  13.743
48608W        W20923  42.111  34.961   1.746
48609W        W20924  40.876   4.800   2.368
48610W        W20925  36.475  37.889  14.869
48611W        W20926  15.537  42.005  12.380
48612W        W20927  38.887  42.232  10.711
48613W        W20928  18.562   0.541  14.886
48614W        W20929  14.066  25.439  11.430
48615W        W20930  41.033  32.885  13.669
48616W        W20931  44.758  17.078  13.944
48617W        W20932  38.306  26.288   3.801
48618W        W20933  38.661  31.171  13.030
48619W        W20934  38.852  18.846  12.834
48620W        W20935   3.734  33.137   1.718
48621W        W20936  37.781  29.116   1.439
48622W        W20937  22.034  30.876   4.573
48623W        W20938   5.770  11.628   2.502
48624W        W20939   6.699  44.218   0.274
48625W        W20940  37.454  15.852  12.959
48626W        W20941  41.974  23.536  12.492
48627W        W20942  16.339   1.345  13.141
48628W        W20943  41.732  13.265   2.627
48629W        W20944  13.161   7.277   0.061
48630W        W20945   3.733  11.634   4.420
48631W        W20946  16.313  20.832  14.500
48632W        W20947  29.857  29.502  11.310
48633W        W20948   7.189   7.621   1.257
48634W        W20949  24.649  30.862   1.707
48635W        W20950  44.493   2.018  13.435
48636W        W20951   9.040  42.744  11.553
48637W        W20952   0.843   6.929   4.819
48638W        W20953   5.396  24.057  13.652
48639W        W20954  11.366   7.257  10.674
48640W        W20955  12.671  13.956  10.506
48641W        W20956  13.494  34.516  11.624
48642W        W20957  10.888   9.960   1.322
48643W        W20958  10.304  37.346   2.746
48644W        W20959  31.361  18.362  11.161
48645W        W20960  42.828  35.924  13.157
48646W        W20961  18.354   0.172   4.561
48647W        W20962   2.441   6.802   4.372
48648W        W20963  20.791  20.620   2.243
48649W        W20964  27.331  21.998  10.862
48650W        W20965   0.267   3.918  12.448
48651W        W20966  29.217  17.081   1.467
48652W        W20967  30.003  34.887   0.414
48653W        W20968  28.346   9.256  10.330
48654W        W20969  11.095  22.604   3.130
48655W        W20970   3.587   3.240   0.475
48656W        W20971  35.234   0.882   2.989
48657W        W20972   5.068  11.770  10.959
48658W        W20973  13.592   8.458  13.896
48659W        W20974  30.993  31.982  12.630
48660W        W20975  30.459  41.597   1.863
48661W        W20976  18.083  37.649  12.498
48662W        W20977  24.649  41.020   1.824
48663W        W20978  19.932   8.922   1.805
48664W        W20979  41.683  35.061  14.641
48665W        W20980  22.614  40.155   3.601
48666W        W20981   8.384   8.258   0.748
48667W        W20982  17.148  34.183  11.530
48668W        W20983  27.739   2.653   0.858
48669W        W20984  12.741  26.014  11.391
48670W        W20985  32.629  40.399   3.421
48671W        W20986  41.349   9.437  10.294
48672W        W20987  40.742  30.402   4.395
48673W        W20988   5.968  41.055   0.155
48674W        W20989  33.288  41.827  13.026
48675W        W20990  33.681   7.359   1.008
48676W        W20991  26.136  39.786  11.255
48677W        W20992  15.776  10.179   3.196
48678W        W20993  34.162  38.025  11.674
48679W        W20994  39.877  40.054  12.758
48680W        W20995  36.060  24.948   2.434
48681W        W20996   3.788   7.108  14.843
48682W        W20997  30.398   9.863  13.222
48683W        W20998  41.999  38.136   3.059
48684W        W20999  27.984  23.909   3.879
48685W        W21000  11.399  17.750  12.490
48686W        W21001  40.809  27.568  12.571
48687W        W21002  17.224  27.422  12.027
48688W        W21003   1.509  42.771  12.875
48689W        W21004  26.560  30.769   2.712
48690W        W21005  39.753  17.379   1.447
48691W        W21006   6.150  11.367   1.760
48692W        W21007   9.288   9.622  11.695
48693W        W21008  26.545  19.773  11.309
48694W        W21009  32.630  14.714  11.602
48695W        W21010  32.013  34.408  11.115
48696W        W21011  25.231   2.847   4.491
48697W        W21012  11.797  20.781   3.891
48698W        W21013  19.690   4.232   1.362
48699W        W21014  34.388  31.528   2.398
48700W        W21015   5.445  22.001  11.503
48701W        W21016  44.875  21.192   0.765
48702W        W21017  37.113  12.710  11.046
48703W        W21018   8.198   7.483   1.831
48704W        W21019  29.016  13.292  14.968
48705W        W21020   1.288  44.576   4.539
48706W        W21021  37.372  16.508  13.452
48707W        W21022  33.441   5.160   1.467
48708W        W21023   3.037   9.123  12.610
48709W        W21024   0.376   2.321   4.750
48710W        W21025  12.821  34.457  14.053
48711W        W21026  20.762  43.676   1.671
48712W        W21027  27.273  36.054  14.061
48713W        W21028   2.000   0.562  14.757
48714W        W21029  42.426  24.052   0.430
48715W        W21030  37.340   0.729  13.850
48716W        W21031  28.569  18.123  12.117
48717W        W21032  13.700   0.299   2.335
48718W        W21033  17.860  41.856   3.350
48719W        W21034  35.981   5.774  13.041
48720W        W21035  19.867   5.667   0.434
48721W        W21036   3.275   3.753   2.363
48722W        W21037   3.260  40.072   3.277
48723W        W21038  27.314  12.770  12.498
48724W        W21039  16.159  10.829  11.578
48725W        W21040  32.219  23.562  12.054
48726W        W21041  21.058  23.596  14.913
48727W        W21042   2.709   7.239   4.171
48728W        W21043  41.416  21.601  13.102
48729W        W21044   0.908  39.485  10.545
48730W        W21045  44.339  43.781   0.320
48731W        W21046  31.872  24.451  13.945
48732W        W21047  24.973  31.078   2.782
48733W        W21048  38.274  42.862  10.463
48734W        W21049   7.850   4.147  11.127
48735W        W21050   5.121  37.537   0.753
48736W        W21051  33.423   2.460  10.655
48737W        W21052   4.010  34.900   3.704
48738W        W21053  37.810  30.687  14.716
48739W        W21054  12.325  26.101   2.301
48740W        W21055  11.904  17.775  12.422
48741W        W21056  22.611  20.548  13.267
48742W        W21057  28.953  39.261   0.082
48743W        W21058   2.007  27.515  14.441
48744W        W21059  24.173  20.560  12.414
48745W        W21060  25.742  35.638   1.252
48746W        W21061  28.192  18.258  14.341
48747W        W21062  28.898  36.007   1.457
48748W        W21063  32.650  11.518   2.658
48749W        W21064  11.877  23.046  13.019
48750W        W21065  18.823   8.357   0.642
48751W        W21066  23.014  40.884   2.304
48752W        W21067  40.658  36.402   0.517
48753W        W21068   2.742  33.568   2.452
48754W        W21069   5.322  12.705  13.892
48755W        W21070  20.935  40.605   1.303
48756W        W21071  17.756  19.759   4.610
48757W        W21072   9.087  29.093   0.397
48758W        W21073  19.615  21.252  12.644
48759W        W21074  36.677  33.891  11.434
48760W        W21075   9.350  38.032  11.519
48761W        W21076  40.492  31.285  12.042
48762W        W21077  17.726  38.439   0.969
48763W        W21078  17.201   7.915   0.220
48764W        W21079  22.150  14.528   2.959
48765W        W21080   7.199  33.931   3.145
48766W        W21081   5.330  44.368  14.430
48767W        W21082  16.802  20.458   0.857
48768W        W21083  18.310  44.433  13.893
48769W        W21084  21.764  23.454   4.564
48770W        W21085  31.635  39.027   4.660
48771W        W21086   4.679  43.937  10.463
48772W        W21087  33.753  19.755  12.023
48773W        W21088  28.121   0.460  12.419
48774W        W21089  29.965  18.341  10.510
48775W        W21090  44.294   6.582   3.269
48776W        W21091  17.389  20.663   4.955
48777W        W21092  23.528  35.105   4.404
48778W        W21093  27.436   1.795  14.173
48779W        W21094   0.417   4.823  11.395
48780W        W21095  23.727  26.452  12.446
48781W        W21096  14.609  17.122   4.424
48782W        W21097  39.420   6.863  11.207
48783W        W21098  36.426  41.838   4.665
48784W        W21099   8.626  34.407   3.751
48785W        W21100   3.949  39.463   2.455
48786W        W21101  43.204   4.952   3.425
48787W        W21102  38.175  22.575  10.759
48788W        W21103  28.088  37.208  10.687
48789W        W21104   3.881  27.147  11.642
48790W        W21105  12.249   1.423  10.594
48791W        W21106  30.013  16.613   1.781
48792W        W21107  21.142  36.167   3.938
48793W        W21108  21.040   5.088   2.266
48794W        W21109  20.487  37.088  12.427
48795W        W21110  27.585  25.121   1.533
48796W        W21111  16.382  38.092  10.677
48797W        W21112  36.282   9.820   4.580
48798W        W21113  12.335  18.535   9.883
48799W        W21114  38.099  29.465   3.640
48800W        W21115  20.606  12.254  10.898
48801W        W21116   4.357  42.385  14.466
48802W        W21117  11.721   2.801  12.607
48803W        W21118  24.162   6.779   2.870
48804W        W21119  39.837  31.578   0.555
48805W        W21120   0.745  31.111  13.367
48806W        W21121  25.171  14.645   1.653
48807W        W21122  15.608  31.468   2.835
48808W        W21123  13.722   2.383  13.289
48809W        W21124  29.510  38.510   3.528
48810W        W21125   9.536  29.501  13.679
48811W        W21126   5.048   2.256  14.343
48812W        W21127  35.741  31.947  14.461
48813W        W21128  35.694  29.699   1.512
48814W        W21129  37.899  34.156   1.928
48815W        W21130  11.460  21.769  13.443
48816W        W21131  38.924  40.248   2.632
48817W        W21132  42.835  34.947  12.353
48818W        W21133  37.418  33.418   5.018
48819W        W21134   3.066  39.360   0.891
48820W        W21135  26.507   1.436  12.075
48821W        W21136  19.515  38.115  13.530
48822W        W21137  35.161  40.203  11.155
48823W        W21138  11.965   1.213   1.169
48824W        W21139   1.446   8.734   4.564
48825W        W21140  32.026  43.347   0.833
48826W        W21141   6.947   1.850  10.675
48827W        W21142   4.722  12.704   9.913
48828W        W21143  38.636  32.067   1.840
48829W        W21144  37.946   3.395  10.859
48830W        W21145  23.056  13.020  12.463
48831W        W21146  43.588   0.859  11.648
48832W        W21147  23.640  32.908  13.488
48833W        W21148  26.191   9.836  10.540
48834W        W21149   3.220  10.163   2.733
48835W        W21150  39.595   4.728   2.209
48836W        W21151  37.391  12.987   1.001
48837W        W21152  32.319  14.663  11.142
48838W        W21153  34.630  21.019  12.115
48839W        W21154  23.633   1.719   1.055
48840W        W21155  35.451  33.582  13.095
48841W        W21156  43.282  17.135   4.214
48842W        W21157  38.814  26.432  11.702
48843W        W21158  41.419  35.849   3.372
48844W        W21159   1.809  33.807  11.340
48845W        W21160  24.938  17.264   3.777
48846W        W21161  22.092  13.612   2.566
48847W        W21162   3.635   5.555  14.170
48848W        W21163  29.157  42.493  10.482
48849W        W21164  11.917  33.656   4.624
48850W        W21165  36.604   8.682   0.357
48851W        W21166  40.415   6.249   3.523
48852W        W21167  16.701  20.982  10.489
48853W        W21168  28.086  10.900  14.247
48854W        W21169  26.954  18.864   0.730
48855W        W21170  21.146  13.463   4.192
48856W        W21171  43.833   2.840   4.561
48857W        W21172  21.202  44.663  10.679
48858W        W21173  32.288  24.636   3.217
48859W        W21174  10.833   5.964   2.208
48860W        W21175  20.567  29.744   4.259
48861W        W21176  18.401   2.751  10.639
48862W        W21177  31.911   9.776  12.433
48863W        W21178  16.633  10.732  13.440
48864W        W21179  25.944  40.838  11.504
48865W        W21180  35.411  25.428   3.887
48866W        W21181  23.039  20.524   3.260
48867W        W21182  26.665  32.098  12.072
48868W        W21183  36.518  20.023  10.933
48869W        W21184  22.671  29.672   3.282
48870W        W21185  33.130  31.391  11.992
48871W        W21186  24.731   3.414  12.808
48872W        W21187  11.964  25.992  11.137
48873W        W21188  41.703  41.835  14.765
48874W        W21189  22.901   3.366   4.825
48875W        W21190  30.136  36.579  13.942
48876W        W21191  17.366  35.132   1.175
48877W        W21192  17.297  34.694   1.901
48878W        W21193  35.825  44.836   2.181
48879W        W21194  21.226   1.538  12.811
48880W        W21195  26.228  19.102  12.027
48881W        W21196  38.673  27.004   2.365
48882W        W21197  15.878  22.520   4.239
48883W        W21198  19.303  32.410  11.566
48884W        W21199   3.222  18.906   0.719
48885W        W21200  26.946  23.160  14.805
48886W        W21201  30.612   2.790  10.642
48887W        W21202  15.085   0.818   1.888
48888W        W21203  38.794  24.681  14.098
48889W        W21204  42.084  28.467   2.114
48890W        W21205  25.843  20.140  10.621
48891W        W21206   9.793  32.172  11.724
48892W        W21207  34.452  44.476  11.487
48893W        W21208  12.702  22.992   3.842
48894W        W21209  31.660  36.881  14.423
48895W        W21210  24.775   3.164   3.806
48896W        W21211   2.762  43.738  13.346
48897W        W21212  39.796  16.536   4.716
48898W        W21213  36.252   1.773   0.259
48899W        W21214   1.403  44.167  12.940
48900W        W21215  23.419  18.223   3.075
48901W        W21216   6.960  18.101  13.900
48902W        W21217  35.488  28.374  13.095
48903W        W21218  25.164   7.230  12.973
48904W        W21219  18.525  19.375   0.982
48905W        W21220  27.185  15.280  13.444
48906W        W21221  24.625  31.865   1.211
48907W        W21222   4.696  43.631  12.129
48908W        W21223  13.500  38.177   1.506
48909W        W21224  27.330  35.009   4.310
48910W        W21225  18.786  32.095   3.244
48911W        W21226   8.702  25.461   3.715
48912W        W21227  41.442   9.672   3.347
48913W        W21228  22.425  31.083  12.136
48914W        W21229  31.996  44.333   1.192
48915W        W21230  38.539   6.270  14.960
48916W        W21231  26.650  15.373   1.235
48917W        W21232  14.863  34.559  13.736
48918W        W21233  23.605  18.031  14.938
48919W        W21234   5.865   6.260  12.065
48920W        W21235   8.351  42.485  14.630
48921W        W21236  10.246  10.202   2.442
48922W        W21237  35.160  39.429   1.200
48923W        W21238   1.032  14.343  12.052
48924W        W21239  34.943  21.730  14.417
48925W        W21240  17.864  18.734   3.294
48926W        W21241  44.294  39.399   2.059
48927W        W21242  26.037  41.369  14.776
48928W        W21243   3.195  12.356  12.510
48929W        W21244  15.239  36.148   3.361
48930W        W21245  29.915   1.337  12.157
48931W        W21246   8.862  19.112  14.883
48932W        W21247  15.453  43.801  13.482
48933W        W21248  36.269   7.805   2.338
48934W        W21249  19.380   7.591  11.495
48935W        W21250  39.805  26.403   1.691
48936W        W21251  40.060   5.735  14.838
48937W        W21252  17.363  10.397   5.520
48938W        W21253  23.511   2.958   3.705
48939W        W21254   2.336  21.785  11.961
48940W        W21255  27.672  28.844  11.370
48941W        W21256   0.839  28.191  12.061
48942W        W21257  16.878  25.128  10.765
48943W        W21258  36.910   3.152  14.811
48944W        W21259  44.877   3.065  11.757
48945W        W21260   3.994  23.015   0.691
48946W        W21261  20.748  11.291  13.523
48947W        W21262  15.888  40.113   4.057
48948W        W21263  20.220  34.090   3.203
48949W        W21264  18.718  17.192  10.349
48950W        W21265  17.492   9.612   4.107
48951W        W21266  11.420   4.407  13.840
48952W        W21267  23.228  18.755  14.281
48953W        W21268   2.574  34.161  10.051
48954W        W21269  11.076   2.663  13.994
48955W        W21270  35.354  10.097  11.618
48956W        W21271  13.867  27.130  12.187
48957W        W21272   2.825  15.544   1.826
48958W        W21273  15.175  12.736  11.433
48959W        W21274  13.036  30.081  13.368
48960W        W21275  16.645  38.547  14.292
48961W        W21276  27.050  12.708   3.118
48962W        W21277  28.501  19.053   3.062
48963W        W21278  25.396   0.662  13.958
48964W        W21279  34.336   5.815   2.210
48965W        W21280   3.368   2.910   4.463
48966W        W21281  36.009  44.191  12.937
48967W        W21282  33.191  19.482  12.954
48968W        W21283  22.591   9.306   1.209
48969W        W21284  12.087  18.155  11.701
48970W        W21285  10.656  27.433   4.638
48971W        W21286   5.887   8.419   0.683
48972W        W21287  30.755   3.856   0.000
48973W        W21288  11.095  18.305   1.498
48974W        W21289  32.013  11.767  13.263
48975W        W21290  34.857   6.936   1.756
48976W        W21291   8.316  10.704   3.160
48977W        W21292  27.415   5.210  14.126
48978W        W21293  28.940  10.815   0.815
48979W        W21294  18.219  29.452  13.601
48980W        W21295  24.616  16.201  10.713
48981W        W21296  39.297  10.673   2.449
48982W        W21297  18.108   7.031   4.211
48983W        W21298  11.636  20.787  12.254
48984W        W21299  18.724  29.445   3.736
48985W        W21300  19.687  15.471   0.516
48986W        W21301  26.106  29.570   2.924
48987W        W21302   2.487  22.743   0.275
48988W        W21303  30.664  37.142  10.743
48989W        W21304   1.449  14.710   3.795
48990W        W21305  31.541  36.151   2.276
48991W        W21306  44.271  43.270  13.999
48992W        W21307   9.483  13.772  14.257
48993W        W21308  12.925   7.802  11.088
48994W        W21309  22.121   7.961  12.452
48995W        W21310  21.382  11.862  12.594
48996W        W21311   8.953  27.330  11.857
48997W        W21312  32.709  39.840  11.534
48998W        W21313  24.202  25.541   2.287
48999W        W21314   2.152   4.445  14.441
49000W        W21315  12.550   5.888   1.753
49001W        W21316  35.871   1.770   0.819
49002W        W21317  10.131  36.551  12.541
49003W        W21318  28.796  10.121  14.409
49004W        W21319  36.581  23.086   0.277
49005W        W21320  36.323   7.584  11.884
49006W        W21321  30.101  41.879   0.732
49007W        W21322  30.992  18.186   1.115
49008W        W21323  43.460  17.810  13.786
49009W        W21324   2.327   1.429  12.631
49010W        W21325  37.328   5.685  14.084
49011W        W21326   2.331   0.897  13.390
49012W        W21327  41.970  10.095  11.237
49013W        W21328  13.860  35.112   0.445
49014W        W21329  12.630  16.960   1.765
49015W        W21330  13.353  19.293   3.314
49016W        W21331  43.218  38.097   0.256
49017W        W21332  44.906  13.029   1.857
49018W        W21333  43.995   0.309  13.859
49019W        W21334  23.871  16.194   2.985
49020W        W21335   2.335  44.940  13.225
49021W        W21336   9.604  31.583  13.957
49022W        W21337  23.109  40.357   2.317
49023W        W21338   0.473  28.150   0.803
49024W        W21339  11.822  42.224   0.342
49025W        W21340  37.923  11.440   0.049
49026W        W21341   1.242  13.323   3.654
49027W        W21342   0.285  24.926  11.515
49028W        W21343  26.738  22.264   3.383
49029W        W21344  45.000   1.694  14.328
49030W        W21345   0.876  30.032   4.304
49031W        W21346   2.939  30.644  14.320
49032W        W21347  40.374   0.638   3.004
49033W        W21348   3.861  20.055  11.009
49034W        W21349   1.120  25.251  10.367
49035W        W21350  43.422  22.470   4.391
49036W        W21351  25.468   8.663   2.777
49037W        W21352  14.043  21.664  13.316
49038W        W21353  14.138  12.728  14.819
49039W        W21354   9.050  43.805  10.470
49040W        W21355   8.315  35.605  13.534
49041W        W21356  12.173  28.002   1.162
49042W        W21357  36.934   4.169   3.296
49043W        W21358  40.046  30.136   0.985
49044W        W21359  28.348   5.939  10.038
49045W        W21360  29.393  19.450  11.177
49046W        W21361  23.763   1.445  11.177
49047W        W21362  12.143  37.816   1.281
49048W        W21363   2.291  13.380   1.258
49049W        W21364  41.401  42.299  12.507
49050W        W21365  42.319  12.624   1.225
49051W        W21366  27.902  38.158  12.885
49052W        W21367  13.039  33.591   4.945
49053W        W21368   0.759  14.091  11.708
49054W        W21369  41.441  44.173   2.132
49055W        W21370  20.753  10.657  11.573
49056W        W21371  36.250  44.984   3.164
49057W        W21372  24.485   3.371  11.319
49058W        W21373  26.587   4.679   4.597
49059W        W21374   6.767  19.096   2.344
49060W        W21375   5.218  34.404  14.855
49061W        W21376  32.983  15.738  14.402
49062W        W21377  25.783  40.066  12.481
49063W        W21378  38.721  27.957  11.501
49064W        W21379  10.723  22.986  12.150
49065W        W21380  36.031  43.565   0.414
49066W        W21381  29.195  13.858   2.645
49067W        W21382   8.615  43.087   3.772
49068W        W21383  25.436  20.097   0.943
49069W        W21384  33.013  25.535  11.481
49070W        W21385  30.103  12.809  11.521
49071W        W21386  28.657  43.835   4.527
49072W        W21387   8.242  24.431  12.506
49073W        W21388  31.992  16.286   1.615
49074W        W21389  22.453   0.113   9.987
49075W        W21390  35.460  26.388  12.444
49076W        W21391  10.427   9.367   2.225
49077W        W21392  21.266   4.606   4.255
49078W        W21393   0.926  21.646  12.160
49079W        W21394   6.620  35.419   0.708
49080W        W21395  17.433   1.195  14.870
49081W        W21396  16.014  26.014  10.778
49082W        W21397  15.599  37.467  14.506
49083W        W21398  34.053   0.294   2.517
49084W        W21399   5.888   0.352   0.467
49085W        W21400  21.717  10.343   4.881
49086W        W21401  17.670  44.417  10.736
49087W        W21402  24.024  35.387  10.978
49088W        W21403  13.239   7.419  13.588
49089W        W21404   3.926  25.720   1.341
49090W        W21405  10.226  19.791   4.410
49091W        W21406   0.383  17.597   3.725
49092W        W21407  37.820  24.370  14.283
49093W        W21408  43.955  35.508   0.846
49094W        W21409  30.959  13.051  12.592
49095W        W21410  20.744  15.230   1.260
49096W        W21411  28.115  37.052  14.448
49097W        W21412  16.823  15.497   1.210
49098W        W21413  35.591  16.552  13.422
49099W        W21414   6.254  38.455   4.509
49100W        W21415  16.354  43.780   2.156
49101W        W21416  15.110  15.803   3.705
49102W        W21417  22.703  15.192  13.202
49103W        W21418  11.186  15.529   2.199
49104W        W21419  22.656  27.073  12.629
49105W        W21420  32.971   5.672  13.452
49106W        W21421   6.016   0.793   3.547
49107W        W21422   7.274  44.851  13.259
49108W        W21423  29.410   9.256  13.493
49109W        W21424  31.054   1.000  13.042
49110W        W21425  35.588   6.013   2.806
49111W        W21426   6.390  19.318   3.749
49112W        W21427  43.389  42.287   2.680
49113W        W21428  38.064  27.572   0.751
49114W        W21429   4.821  36.483   4.587
49115W        W21430  42.964   1.338   4.616
49116W        W21431  14.637  31.082  11.098
49117W        W21432  13.944   2.646   2.734
49118W        W21433   9.282  14.723  10.693
49119W        W21434   8.314  36.050  10.632
49120W        W21435  34.422   6.120  13.289
49121W        W21436  22.819  32.146  12.908
49122W        W21437  15.319  23.497  14.353
49123W        W21438  19.868   7.270  12.359
49124W        W21439  19.680  17.253  10.463
49125W        W21440  39.547   3.863  10.677
49126W        W21441  28.425  40.483  11.963
49127W        W21442  10.036  13.759   2.664
49128W        W21443   1.239   5.616  13.540
49129W        W21444  26.414  12.806  10.310
49130W        W21445   5.134  33.550  11.956
49131W        W21446  14.369  40.070   2.312
49132W        W21447  29.857  38.387  12.992
49133W        W21448  11.699  19.350   9.639
49134W        W21449   5.933   4.440   2.270
49135W        W21450  13.740  17.299  11.061
49136W        W21451  21.344   9.127   0.747
49137W        W21452  26.966  38.013  11.905
49138W        W21453  33.371  20.727  13.502
49139W        W21454  12.253  29.962   0.771
49140W        W21455  17.535  15.149  12.515
49141W        W21456   8.867   0.939  14.910
49142W        W21457  39.149  25.941   9.709
49143W        W21458   9.431  15.570  12.874
49144W        W21459  38.985  17.165  11.559
49145W        W21460  13.896  14.501  12.596
49146W        W21461  44.777  36.971   0.910
49147W        W21462  15.725  30.838  14.759
49148W        W21463  44.531  22.253  14.859
49149W        W21464  37.084  35.396  14.215
49150W        W21465  36.434  11.148  12.812
49151W        W21466  32.491  34.048   2.622
49152W        W21467  15.278  26.101   3.424
49153W        W21468   5.477  40.359  13.766
49154W        W21469   1.202   5.732  11.103
49155W        W21470  39.377  35.579  14.406
49156W        W21471  23.324   8.571  13.460
49157W        W21472   3.912  10.343   4.279
49158W        W21473  41.071  38.316  12.608
49159W        W21474  20.049  10.189  11.980
49160W        W21475  24.997   3.349   0.926
49161W        W21476  19.749  16.595  11.062
49162W        W21477   2.360  35.080   1.397
49163W        W21478  10.550  21.417  13.695
49164W        W21479  26.842   2.431  13.953
49165W        W21480  25.971  18.298   0.744
49166W        W21481   4.344  20.513  12.830
49167W        W21482  30.917  18.582  11.382
49168W        W21483  42.537  29.977   4.273
49169W        W21484  38.917  41.965  14.827
49170W        W21485  40.600  25.169   3.738
49171W        W21486  28.538  43.367  11.354
49172W        W21487  33.533  14.625   4.994
49173W        W21488  34.971  30.813   0.709
49174W        W21489  35.063  28.953   2.260
49175W        W21490   3.713  29.604   1.369
49176W        W21491  34.681   3.983  10.845
49177W        W21492  15.131  34.623  10.454
49178W        W21493   9.322  14.511  13.890
49179W        W21494   6.838  21.660   3.586
49180W        W21495   9.813  26.282  14.401
49181W        W21496   2.757  29.163  11.658
49182W        W21497  37.563  30.573   1.889
49183W        W21498  35.484  36.513  14.416
49184W        W21499  23.716  33.800  13.398
49185W        W21500   4.143   5.867   4.862
49186W        W21501  35.900   3.398   2.313
49187W        W21502  19.087   5.233   0.487
49188W        W21503  15.296  20.692  14.459
49189W        W21504  40.862  24.439  10.295
49190W        W21505  36.410  42.982  12.924
49191W        W21506  23.369  23.291   9.518
49192W        W21507   9.654   6.244   4.335
49193W        W21508   8.742   0.503   2.445
49194W        W21509  36.080  30.937   3.798
49195W        W21510  11.630  40.540   3.344
49196W        W21511  12.610  38.966   3.933
49197W        W21512  15.549  37.546   1.938
49198W        W21513  17.918  20.701   4.067
49199W        W21514  30.580  30.009   2.402
49200W        W21515   5.207  38.902  12.052
49201W        W21516  15.724  15.115   2.476
49202W        W21517  42.538  39.154  11.895
49203W        W21518  23.797  18.636   2.812
49204W        W21519   6.009  10.388   4.697
49205W        W21520   6.471   8.368  12.644
49206W        W21521  38.128   8.304  14.496
49207W        W21522  16.082  44.839   4.150
49208W        W21523  15.957  33.740   2.879
49209W        W21524  37.537   2.641   1.186
49210W        W21525   5.419  27.959  11.209
49211W        W21526  25.208  37.891   1.791
49212W        W21527  40.498   6.879   4.309
49213W        W21528  35.082  19.632   0.487
49214W        W21529  43.123  18.877   0.218
49215W        W21530  36.878  15.546  10.798
49216W        W21531  24.953   8.791   0.961
49217W        W21532  11.671  44.505   0.390
49218W        W21533  31.549  38.745   1.336
49219W        W21534  26.761  41.367  11.919
49220W        W21535  19.259  11.723  12.830
49221W        W21536   9.150  10.771   1.331
49222W        W21537  21.977  31.649  13.366
49223W        W21538  20.015  18.210  14.909
49224W        W21539   9.626  38.511   0.955
49225W        W21540  34.188   6.113   1.420
49226W        W21541  22.743  21.712  13.776
49227W        W21542   8.706  15.656   3.636
49228W        W21543   1.361  41.047   1.534
49229W        W21544  39.846  39.925   1.885
49230W        W21545   4.297   9.853   1.454
49231W        W21546  15.623  37.058  13.365
49232W        W21547  11.477  29.729  14.809
49233W        W21548  11.159   6.335  13.214
49234W        W21549  25.151  25.208  12.138
49235W        W21550  19.677  42.046   1.234
49236W        W21551  30.117   6.596  11.148
49237W        W21552   6.238  31.150   1.360
49238W        W21553  33.541  11.760  10.488
49239W        W21554  11.652  42.454   1.836
49240W        W21555  33.687  17.637   4.757
49241W        W21556  17.952  38.284   3.823
49242W        W21557  28.019  16.220  13.448
49243W        W21558   8.614  27.191  10.441
49244W        W21559  34.029   2.727  12.900
49245W        W21560   6.519  25.099   4.135
49246W        W21561  31.066  33.367  13.865
49247W        W21562  27.151  10.573   4.861
49248W        W21563   8.301  13.669   3.650
49249W        W21564  29.890  24.768   2.017
49250W        W21565   1.972  30.555  10.576
49251W        W21566  12.631  30.862  13.568
49252W        W21567  32.149   1.269   3.701
49253W        W21568  15.706  11.090  11.646
49254W        W21569   8.351  24.042   1.952
49255W        W21570  31.456  39.803   1.422
49256W        W21571   8.799  20.619   1.599
49257W        W21572  41.839  32.488  14.613
49258W        W21573   2.120   2.902  11.837
49259W        W21574  39.905   0.339   3.093
49260W        W21575  36.238  15.860  11.214
49261W        W21576  43.994  39.135   3.573
49262W        W21577  42.272  24.295   3.013
49263W        W21578  17.458  12.844  13.551
49264W        W21579   8.229  40.648   0.786
49265W        W21580  16.118  44.932   0.911
49266W        W21581  40.285   1.490  11.969
49267W        W21582   2.752   8.981   4.069
49268W        W21583   3.458  41.394  14.463
49269W        W21584  13.214  34.317  12.894
49270W        W21585   6.449  15.702  14.377
49271W        W21586  20.688  39.525  11.899
49272W        W21587  30.124  28.230   2.404
49273W        W21588  27.483  31.931  12.980
49274W        W21589  41.365  36.571   4.517
49275W        W21590  31.876  10.956   1.941
49276W        W21591  11.367   0.764   3.103
49277W        W21592   2.757  16.834   4.168
49278W        W21593  24.211  40.131  11.592
49279W        W21594  25.538  25.397  12.402
49280W        W21595  43.819  25.078   4.776
49281W        W21596  38.551   5.037  12.097
49282W        W21597  43.330   8.256   3.675
49283W        W21598  20.655  39.272  10.920
49284W        W21599  16.049   4.128  12.581
49285W        W21600  18.647  25.238  10.566
49286W        W21601  35.258  13.726   2.639
49287W        W21602   6.382  35.143  14.464
49288W        W21603  36.529  30.901  13.817
49289W        W21604  23.339  16.484   1.281
49290W        W21605   1.849  29.605   2.645
49291W        W21606   4.457  12.329   0.418
49292W        W21607  20.549  12.225  11.941
49293W        W21608  31.978  29.551  14.926
49294W        W21609  36.524  34.795   1.739
49295W        W21610   2.752  17.502   0.423
49296W        W21611  39.227  30.525   0.003
49297W        W21612  25.238  16.948   4.052
49298W        W21613  43.833  29.435   3.049
49299W        W21614  44.470  15.017   3.713
49300W        W21615  36.815  26.974  11.653
49301W        W21616  30.698  36.807   2.150
49302W        W21617   2.377  38.960   4.120
49303W        W21618  20.080  10.507   0.879
49304W        W21619  19.240   8.656   0.462
49305W        W21620   8.777  21.039   4.386
49306W        W21621  27.277  10.616   1.823
49307W        W21622  22.511  43.712  12.890
49308W        W21623  10.631   2.920   4.621
49309W        W21624   1.663  24.515   3.320
49310W        W21625  35.529  13.267  10.737
49311W        W21626  35.112  36.322  11.028
49312W        W21627  40.481  37.070   4.421
49313W        W21628  16.024  30.210   0.231
49314W        W21629   2.244  22.075  13.535
49315W        W21630   8.602  20.455  14.823
49316W        W21631  19.720  18.542   0.171
49317W        W21632  16.068   2.246   2.850
49318W        W21633  25.157  29.458   3.218
49319W        W21634  10.501   9.204  12.341
49320W        W21635  10.884  20.563  10.456
49321W        W21636  14.474   1.922   4.541
49322W        W21637  12.027  18.141   1.794
49323W        W21638  27.673  10.232  13.366
49324W        W21639  38.774  13.729   2.129
49325W        W21640  17.752  23.758   2.753
49326W        W21641  40.010  36.872  13.833
49327W        W21642  10.297  28.484   4.119
49328W        W21643  32.873  30.053  13.416
49329W        W21644  31.569   1.289   1.442
49330W        W21645   8.796   9.142   0.720
49331W        W21646  23.851   2.756  12.470
49332W        W21647  35.009  17.822   3.313
49333W        W21648  18.243  39.200  14.461
49334W        W21649  44.492  34.400  10.185
49335W        W21650   5.781  16.643  12.041
49336W        W21651  34.333   3.861  14.579
49337W        W21652  15.197  30.081  14.779
49338W        W21653  29.066  19.214  11.904
49339W        W21654  26.174   5.153  13.388
49340W        W21655  34.333  13.868  12.929
49341W        W21656  30.931  26.102   4.838
49342W        W21657  17.515  44.872  11.208
49343W        W21658  27.982  30.252  13.354
49344W        W21659  32.585   8.751  13.812
49345W        W21660  15.619  17.291   4.585
49346W        W21661  40.046  27.584  12.167
49347W        W21662   8.028  17.041  13.422
49348W        W21663   4.305   3.681   4.094
49349W        W21664  21.956  11.124   0.891
49350W        W21665   5.330  42.883   2.764
49351W        W21666   7.634  27.470  13.851
49352W        W21667  22.729  30.950   0.999
49353W        W21668   7.190  13.154  12.948
49354W        W21669   0.747   6.676  11.163
49355W        W21670  16.255   0.346  10.804
49356W        W21671  42.788   1.079  12.999
49357W        W21672  44.182  30.536   3.746
49358W        W21673  22.245  22.615   3.306
49359W        W21674   8.484  22.150   0.353
49360W        W21675  26.073  30.241   1.728
49361W        W21676   4.167  38.158   0.835
49362W        W21677  37.588   4.328  13.731
49363W        W21678  29.517  22.274  10.676
49364W        W21679  26.160  44.913   0.493
49365W        W21680  25.456  23.689  11.171
49366W        W21681  36.879  38.577  11.599
49367W        W21682  37.122  34.394  14.531
49368W        W21683  31.013  14.270   1.983
49369W        W21684   5.618  44.789  13.795
49370W        W21685   2.946  18.019   3.537
49371W        W21686  32.602  17.943  14.886
49372W        W21687  38.502   7.419  10.554
49373W        W21688   7.046  12.796   1.591
49374W        W21689  21.451   6.804   4.572
49375W        W21690  44.013   8.741  11.898
49376W        W21691  20.164  21.729   1.924
49377W        W21692   3.161  11.154   0.801
49378W        W21693   2.806  13.008  11.006
49379W        W21694  12.033  41.633  14.721
49380W        W21695  30.209   9.684   4.690
49381W        W21696  29.643  43.951  10.692
49382W        W21697  43.537  25.488  10.871
49383W        W21698  13.456  19.530  13.941
49384W        W21699  39.598  39.315  13.923
49385W        W21700  24.581  40.524  10.677
49386W        W21701  15.186  30.516  12.387
49387W        W21702  40.831  18.777  13.372
49388W        W21703  15.355  28.130  11.604
49389W        W21704  13.090  22.585  13.032
49390W        W21705  22.009  30.573  13.839
49391W        W21706  29.177  14.058   2.173
49392W        W21707  28.929   9.277   4.058
49393W        W21708  19.302  43.734  14.870
49394W        W21709  21.641  41.413  13.457
49395W        W21710  29.011   4.718   0.917
49396W        W21711  38.760   2.532   4.600
49397W        W21712  19.517  20.245   0.563
49398W        W21713   6.900  14.347   3.820
49399W        W21714  21.583   2.717   1.300
49400W        W21715   5.973  25.820  12.586
49401W        W21716   6.099  44.460   2.330
49402W        W21717  41.851  28.101   0.319
49403W        W21718  29.082  26.082   2.261
49404W        W21719  18.485   5.181  11.577
49405W        W21720  14.983  18.043  13.025
49406W        W21721  23.280  38.870  13.938
49407W        W21722   2.036   5.711   1.777
49408W        W21723  42.002  38.773  12.998
49409W        W21724   2.183   5.790  13.777
49410W        W21725  26.633  40.900   4.437
49411W        W21726  14.298   2.165   4.015
49412W        W21727  23.650  36.512  14.334
49413W        W21728   2.474   2.861   4.390
49414W        W21729  20.436  20.634   3.244
49415W        W21730  15.238  29.639   0.324
49416W        W21731  33.180  21.013  11.974
49417W        W21732  24.992   8.395   4.329
49418W        W21733  27.183  30.232   3.580
49419W        W21734  25.802  11.133  10.693
49420W        W21735  26.937  36.454  12.594
49421W        W21736   2.441  30.701  14.429
49422W        W21737  22.346  13.396   4.260
49423W        W21738  29.129  27.642  10.652
49424W        W21739  39.527  22.019  13.096
49425W        W21740  13.092  38.826   3.724
49426W        W21741  33.361  36.856   0.560
49427W        W21742  37.780   8.161   2.759
49428W        W21743  30.890  24.092  11.264
49429W        W21744   4.297  17.027  14.853
49430W        W21745  17.230  25.407   4.470
49431W        W21746  14.909  24.978  10.739
49432W        W21747  32.189  38.265   2.547
49433W        W21748  20.518   9.816  13.485
49434W        W21749  33.854  21.866  14.036
49435W        W21750  18.977   1.217   0.154
49436W        W21751   5.643  23.484   3.753
49437W        W21752   1.776  38.902  12.497
49438W        W21753  25.778  28.082  14.823
49439W        W21754   1.035  25.296  12.919
49440W        W21755  28.686  24.141   4.135
49441W        W21756  43.611  10.356   4.207
49442W        W21757   8.395   0.466   1.238
49443W        W21758  37.054  31.708   2.688
49444W        W21759   8.833  12.257  14.948
49445W        W21760  32.857  37.082   0.240
49446W        W21761  17.484  32.950   3.664
49447W        W21762  26.680  39.296  13.476
49448W        W21763   1.548  25.639   3.670
49449W        W21764  39.992  37.528   4.977
49450W        W21765  36.992  43.788  12.985
49451W        W21766  43.429  16.887   1.414
49452W        W21767   7.617  13.429   2.163
49453W        W21768  10.005   1.165  14.558
49454W        W21769   4.146  11.901   0.370
49455W        W21770  11.301  18.989   0.757
49456W        W21771  39.950  23.702  13.570
49457W        W21772  10.774   9.188   1.889
49458W        W21773  17.926  37.649  14.478
49459W        W21774   3.856  15.938   0.115
49460W        W21775  19.363  11.361   4.656
49461W        W21776  17.008  30.129   5.135
49462W        W21777  25.457   6.468  14.849
49463W        W21778  32.364   0.868   2.328
49464W        W21779  38.272  22.719   3.620
49465W        W21780  22.438  17.162  12.361
49466W        W21781   0.505   0.831  12.359
49467W        W21782  27.440  12.052  12.047
49468W        W21783  15.146   6.310   1.351
49469W        W21784  11.414  17.698   0.876
49470W        W21785  21.718  17.321   3.682
49471W        W21786   8.221   0.267   4.238
49472W        W21787  38.001  19.135   3.356
49473W        W21788   2.025  14.181   3.121
49474W        W21789   9.719   3.841   3.643
49475W        W21790  17.733  32.521   3.491
49476W        W21791  16.697  42.112   2.105
49477W        W21792  31.360  22.169  14.018
49478W        W21793  26.457  21.216  14.973
49479W        W21794   7.640  36.055  13.421
49480W        W21795  14.714   2.995   3.768
49481W        W21796  35.335  36.843   1.608
49482W        W21797  12.848   2.218   2.160
49483W        W21798  41.881  21.227   0.251
49484W        W21799   0.353  12.573  11.924
49485W        W21800  31.699  16.857  12.024
49486W        W21801  31.111  32.686  13.464
49487W        W21802  33.036  14.085   1.671
49488W        W21803  19.227   1.952   2.696
49489W        W21804  30.835   3.370  10.489
49490W        W21805  25.915   2.746   2.112
49491W        W21806  10.939  16.588  10.551
49492W        W21807   0.180  44.790   4.745
49493W        W21808  12.845  32.282   0.490
49494W        W21809  43.368  14.219   0.794
49495W        W21810  26.645  38.355   0.021
49496W        W21811  11.388  39.042  12.382
49497W        W21812  43.330   7.752   1.344
49498W        W21813   0.214  19.108  11.820
49499W        W21814  44.468  37.855   4.677
49500W        W21815   0.841  14.232   2.767
49501W        W21816  24.210  43.464  11.900
49502W        W21817   1.863  29.921  11.163
49503W        W21818   2.850   6.931  11.899
49504W        W21819   3.807  12.433  13.869
49505W        W21820  33.189  13.151  11.167
49506W        W21821   7.909  35.960  12.787
49507W        W21822  19.730  41.704  11.007
49508W        W21823  41.476  23.210   0.989
49509W        W21824  29.594  18.728   4.995
49510W        W21825   6.379  36.815   3.698
49511W        W21826  17.112  18.391  14.373
49512W        W21827  34.899  37.989  14.788
49513W        W21828  20.112   6.434  13.496
49514W        W21829  22.317  26.456  10.792
49515W        W21830  43.029  30.047  14.798
49516W        W21831  31.715   7.359   2.817
49517W        W21832   1.306  31.798   4.248
49518W        W21833  31.418   2.921  14.213
49519W        W21834   8.465  10.237   4.162
49520W        W21835   8.580  11.751   1.931
49521W        W21836  11.804  30.414  11.029
49522W        W21837  22.971  26.576   2.160
49523W        W21838   2.968   7.420  11.808
49524W        W21839  13.969  21.472   4.302
49525W        W21840  35.100   2.933  13.598
49526W        W21841  10.084  11.265   0.315
49527W        W21842  40.714  15.837  12.537
49528W        W21843  19.615  37.004   0.945
49529W        W21844  16.790  24.512   3.606
49530W        W21845  11.674  19.509  14.491
49531W        W21846   2.785  13.126  11.509
49532W        W21847  29.478  31.432   2.835
49533W        W21848  26.221  36.909   0.275
49534W        W21849  17.720  33.913  13.850
49535W        W21850  30.245   4.677   0.175
49536W        W21851  25.735  15.216   3.276
49537W        W21852   0.177  38.974  13.811
49538W        W21853  31.929   6.644   0.814
49539W        W21854   7.331  18.197   4.540
49540W        W21855   2.936  29.340  12.627
49541W        W21856  12.764  31.639   2.753
49542W        W21857  16.133  31.559  12.609
49543W        W21858  42.053  29.021  11.486
49544W        W21859  36.627   5.937  14.452
49545W        W21860  20.227   9.897   3.661
49546W        W21861   7.298  38.851   0.370
49547W        W21862   8.676  13.331   2.634
49548W        W21863  40.565  28.132   9.768
49549W        W21864  15.566   6.623   3.289
49550W        W21865  11.708  23.413   0.850
49551W        W21866  13.063  36.900   3.799
49552W        W21867  16.601   1.989  11.105
49553W        W21868  11.588  33.513   1.751
49554W        W21869  14.368  22.738   0.750
49555W        W21870   0.046   4.983  12.851
49556W        W21871  42.051  35.899   1.858
49557W        W21872  12.361  41.405  11.306
49558W        W21873  40.783  44.470   4.165
49559W        W21874  38.145  20.629  11.456
49560W        W21875  37.044   5.614  13.145
49561W        W21876  13.981  40.903  10.666
49562W        W21877  13.378  25.399   4.330
49563W        W21878  39.346   6.824   2.185
49564W        W21879  28.662  25.486  12.489
49565W        W21880  18.765  38.925  13.615
49566W        W21881  38.312  36.919  12.744
49567W        W21882   1.793  20.143  11.015
49568W        W21883   8.217  13.644   4.154
49569W        W21884  32.916  22.566  11.503
49570W        W21885  20.206  37.176   3.388
49571W        W21886   0.558   9.080   4.625
49572W        W21887   6.394  41.502  10.764
49573W        W21888   6.103   0.259   4.736
49574W        W21889  44.640  36.076   4.336
49575W        W21890  43.073  35.829   2.851
49576W        W21891   8.067  23.441   0.690
49577W        W21892  40.655  43.379  14.313
49578W        W21893   1.906  30.030   1.453
49579W        W21894  43.073   8.626  13.963
49580W        W21895  32.588  27.418   1.858
49581W        W21896  15.738  29.603  10.927
49582W        W21897  24.175  36.534  14.338
49583W        W21898  40.510  27.962  12.437
49584W        W21899  11.223  30.636  13.960
49585W        W21900  30.526   7.928   1.854
49586W        W21901  13.987  30.976  12.034
49587W        W21902  29.457  31.924   4.240
49588W        W21903   8.590  25.328  11.153
49589W        W21904  28.718  43.184   3.859
49590W        W21905  12.580   5.616   0.652
49591W        W21906   5.947   5.517  11.575
49592W        W21907  16.350   6.780  13.457
49593W        W21908  28.143   7.694  10.944
49594W        W21909   1.404  21.052   3.466
49595W        W21910  26.544  23.474  11.462
49596W        W21911  38.483  21.751  11.228
49597W        W21912   2.478  12.209  13.985
49598W        W21913  31.682  33.178  13.969
49599W        W21914   0.527  14.330  12.125
49600W        W21915  19.379  22.509  14.768
49601W        W21916  24.071  41.994   2.252
49602W        W21917  42.874  27.955   1.174
49603W        W21918   5.379  41.410   2.932
49604W        W21919  32.050  42.880   1.232
49605W        W21920  31.138  39.302  13.883
49606W        W21921   8.704   1.552  13.788
49607W        W21922  13.005  39.785   3.760
49608W        W21923   5.451  44.908  14.759
49609W        W21924  19.576  11.126  11.969
49610W        W21925  27.646   6.609   3.715
49611W        W21926  36.231  23.923   4.973
49612W        W21927  25.572  43.488   4.082
49613W        W21928  42.197  15.273   4.464
49614W        W21929  11.857  25.955   0.372
49615W        W21930  33.130   4.976  14.687
49616W        W21931  44.576  15.175   1.625
49617W        W21932   1.886   5.619   0.887
49618W        W21933  29.501   0.247   1.695
49619W        W21934  20.467   4.371   4.313
49620W        W21935  11.335  17.055  14.511
49621W        W21936  24.309  32.473  11.608
49622W        W21937   0.765  29.942   0.249
49623W        W21938   9.425   6.333   3.209
49624W        W21939  13.664  43.343   1.528
49625W        W21940   1.413  40.822   2.831
49626W        W21941   4.236  32.065  13.636
49627W        W21942  34.945   4.714   2.869
49628W        W21943   0.763  34.016   9.920
49629W        W21944  23.368  19.608   3.724
49630W        W21945  40.811  19.492  14.569
49631W        W21946  21.812  16.279  14.086
49632W        W21947  17.344   5.099   1.924
49633W        W21948  37.921  12.164  14.362
49634W        W21949   5.889  26.704  14.385
49635W        W21950  14.321  42.051   3.214
49636W        W21951  37.119  25.635   1.915
49637W        W21952  23.742   4.312   1.485
49638W        W21953   3.155  20.967  14.003
49639W        W21954  38.363  40.144  14.786
49640W        W21955  25.705   5.488  14.920
49641W        W21956  10.282   8.466  13.519
49642W        W21957  38.763   9.614  11.551
49643W        W21958  16.694  40.276   0.443
49644W        W21959  19.688  44.423  13.866
49645W        W21960  24.822  37.401   5.056
49646W        W21961  40.182   1.214  10.691
49647W        W21962  22.601  16.639  11.342
49648W        W21963  38.839   7.059  12.856
49649W        W21964  43.800  28.761   4.244
49650W        W21965   7.182  30.386  13.911
49651W        W21966  22.546  12.587  13.301
49652W        W21967  38.442   5.678  12.931
49653W        W21968  26.100  11.240  14.030
49654W        W21969   1.222  19.010  14.282
49655W        W21970  11.287  32.206  11.590
49656W        W21971  27.033  18.748  13.864
49657W        W21972  40.587  40.387  12.067
49658W        W21973  13.139   4.432  14.592
49659W        W21974  22.837  21.210  13.039
49660W        W21975   4.888   5.954  10.075
49661W        W21976   1.723   2.276   0.547
49662W        W21977  43.505   7.263   3.457
49663W        W21978  11.648  10.400  12.906
49664W        W21979  15.214  23.437  13.604
49665W        W21980  35.986  19.669   0.585
49666W        W21981  35.768  16.418  11.094
49667W        W21982   1.936  20.515   2.906
49668W        W21983  36.798  15.173  12.924
49669W        W21984  28.542  34.624   4.489
49670W        W21985  13.980  20.606   4.296
49671W        W21986  35.998  13.153  11.461
49672W        W21987  35.374   4.447  14.484
49673W        W21988  35.054  33.438   1.696
49674W        W21989   3.361  33.916  13.011
49675W        W21990  18.040  35.467   0.998
49676W        W21991  36.315  44.250  12.418
49677W        W21992   9.712  33.519  13.537
49678W        W21993  28.528  44.473  13.595
49679W        W21994  26.564  21.640   3.265
49680W        W21995  27.796  17.588  14.797
49681W        W21996   5.027  14.822   4.658
49682W        W21997  39.601   5.576  12.978
49683W        W21998  18.735  31.641   3.630
49684W        W21999   6.396   0.407   4.212
49685W        W22000  18.707  22.081   3.801
49686W        W22001  36.610  36.936   3.322
49687W        W22002  29.436   1.543   0.288
49688W        W22003   6.719  38.463  12.538
49689W        W22004   9.125  16.294   9.988
49690W        W22005  37.555  26.453  13.695
49691W        W22006  38.363  28.346  10.595
49692W        W22007  37.643  13.611   3.684
49693W        W22008  12.292  26.022  14.595
49694W        W22009  14.543  41.854   3.675
49695W        W22010  18.693  12.410   0.689
49696W        W22011   9.127   2.764   4.665
49697W        W22012  21.481  12.846  10.690
49698W        W22013  17.273  22.599  11.040
49699W        W22014  36.575  18.073  11.491
49700W        W22015   3.333  17.317  12.828
49701W        W22016  26.820  44.965  12.409
49702W        W22017   4.277  44.209   4.085
49703W        W22018  18.783   7.322  13.742
49704W        W22019  44.965  36.126   5.161
49705W        W22020  16.515  17.372  13.084
49706W        W22021   1.549   6.013  11.986
49707W        W22022  16.660  26.215  14.080
49708W        W22023  10.103  11.290   4.861
49709W        W22024  20.632  14.152  10.580
49710W        W22025  13.968  18.230   3.189
49711W        W22026  17.746   5.310   1.217
49712W        W22027  39.926  37.893   1.273
49713W        W22028  20.540  35.516   3.879
49714W        W22029  16.703  30.074   0.966
49715W        W22030  19.176  28.279  14.407
49716W        W22031  21.259  18.645  13.899
49717W        W22032  11.435  34.148  14.486
49718W        W22033  34.448   0.199   1.680
49719W        W22034   1.743  42.841  11.581
49720W        W22035   7.710   6.238   4.080
49721W        W22036  44.856   6.503  12.012
49722W        W22037  37.924  31.556  14.837
49723W        W22038  18.995  41.041  12.004
49724W        W22039  32.926   1.514   3.104
49725W        W22040  20.320  44.159  14.045
49726W        W22041  10.847  37.541   0.739
49727W        W22042  27.946   1.423   4.912
49728W        W22043  23.951  42.824   2.686
49729W        W22044   1.328   1.446  13.611
49730W        W22045  23.034   1.503  10.720
49731W        W22046  24.271  27.539  13.402
49732W        W22047  43.836  34.545  10.263
49733W        W22048   4.256  31.991   4.141
49734W        W22049  41.772  24.736   0.349
49735W        W22050  29.257   2.901   1.913
49736W        W22051  38.783  12.649   4.825
49737W        W22052  17.187   8.175   4.196
49738W        W22053  32.131  29.619   2.400
49739W        W22054  13.729  31.967   4.708
49740W        W22055   2.066  10.980   2.871
49741W        W22056  30.816  33.424  11.105
49742W        W22057  21.158   5.390   0.179
49743W        W22058  26.564  24.736   4.830
49744W        W22059  31.841  40.087  11.071
49745W        W22060  28.995   2.895  12.471
49746W        W22061  36.890  13.723   1.897
49747W        W22062   7.241  35.141  13.444
49748W        W22063   4.214  42.480   2.650
49749W        W22064  34.419   1.436  11.595
49750W        W22065  44.989  19.999   4.687
49751W        W22066  36.113  13.703  12.632
49752W        W22067  44.566  11.382  11.912
49753W        W22068  20.613  32.678   4.636
49754W        W22069  10.937  19.761   3.894
49755W        W22070  28.179  30.349   2.662
49756W        W22071   1.357  35.406   1.423
49757W        W22072   1.246  43.989  11.985
49758W        W22073  17.650  10.151  13.335
49759W        W22074  42.788  21.504  13.975
49760W        W22075  40.816  27.513   3.531
49761W        W22076  23.830  37.501  14.963
49762W        W22077  13.820  25.611  13.913
49763W        W22078  18.996  10.689  11.138
49764W        W22079   9.296  16.945   5.321
49765W        W22080  25.579  11.510   1.700
49766W        W22081   0.449   5.695   3.749
49767W        W22082   3.417  17.764   3.159
49768W        W22083   9.661  33.205   2.664
49769W        W22084   8.876   8.100   4.108
49770W        W22085  32.947  31.531  13.462
49771W        W22086  44.057  39.100  14.845
49772W        W22087  11.308   1.885  12.360
49773W        W22088  14.807  13.401  14.817
49774W        W22089   4.339  17.785  11.196
49775W        W22090   6.472   9.575   3.350
49776W        W22091  18.226  40.470   0.418
49777W        W22092  21.281  35.574  11.049
49778W        W22093  15.885   0.612  10.043
49779W        W22094  19.829  32.456  14.474
49780W        W22095  16.615  19.524   3.748
49781W        W22096  31.906  34.385   0.244
49782W        W22097  32.951  39.694  14.956
49783W        W22098   9.276   4.014   3.058
49784W        W22099  13.432  17.423  14.562
49785W        W22100   2.970  10.291   3.229
49786W        W22101  20.266  17.866   1.207
49787W        W22102  39.788  20.095  14.304
49788W        W22103  41.226  21.549   0.889
49789W        W22104  35.984  23.034  12.904
49790W        W22105   8.698  37.387  12.341
49791W        W22106  41.872   6.530   1.832
49792W        W22107  35.191   3.728  10.733
49793W        W22108   7.455   7.648  10.377
49794W        W22109  18.837  23.215  14.109
49795W        W22110  34.221  15.185  13.015
49796W        W22111   4.895  16.213   4.021
49797W        W22112  35.024   1.844   3.209
49798W        W22113  13.330  30.948   1.257
49799W        W22114  28.810   3.901   4.571
49800W        W22115  20.785  23.803   1.437
49801W        W22116  35.170  11.529  13.392
49802W        W22117  19.849   1.813  13.811
49803W        W22118   1.966  13.124  12.095
49804W        W22119  22.352  44.296   3.193
49805W        W22120   4.379  31.155  12.456
49806W        W22121  19.862  30.153   4.540
49807W        W22122   7.872   4.240  14.652
49808W        W22123   6.794  27.699   0.290
49809W        W22124  21.897  37.462  10.618
49810W        W22125  19.779   5.908   3.653
49811W        W22126  18.202  21.991   1.206
49812W        W22127  26.125   7.172   0.063
49813W        W22128  12.164   3.246   2.693
49814W        W22129  30.509  31.350  14.494
49815W        W22130  18.139  14.746   2.396
49816W        W22131   6.731  40.987  14.282
49817W        W22132  37.279   7.776   1.329
49818W        W22133  31.405  24.231  14.029
49819W        W22134  20.045  15.049  11.511
49820W        W22135  19.943  33.233  13.908
49821W        W22136   7.384  16.285   2.229
49822W        W22137   6.858  25.013  14.753
49823W        W22138  15.788  19.278  10.645
49824W        W22139  24.221  26.536  12.543
49825W        W22140  24.241   8.921   1.461
49826W        W22141   2.386  18.151   3.687
49827W        W22142   5.869  23.586  11.422
49828W        W22143  27.563  25.501   3.126
49829W        W22144   2.152  30.653   3.074
49830W        W22145  39.754  39.126  11.992
49831W        W22146  31.390  32.635   0.356
49832W        W22147  20.504  11.201   1.776
49833W        W22148  37.802  17.710  12.096
49834W        W22149   5.569  44.859   3.192
49835W        W22150  14.264  44.933   2.791
49836W        W22151  29.942   8.440   1.324
49837W        W22152  23.769   8.403  12.917
49838W        W22153   3.469  39.980  10.992
49839W        W22154  11.684   3.458  11.994
49840W        W22155   6.656   6.350  13.515
49841W        W22156  35.108  18.734   0.395
49842W        W22157  15.270  13.276   5.004
49843W        W22158  10.291   4.825  10.696
49844W        W22159   0.249  37.247   3.473
49845W        W22160  35.131  34.615   1.240
49846W        W22161   3.784  21.794  12.175
49847W        W22162   8.445   7.404   0.840
49848W        W22163   9.159   2.383  13.329
49849W        W22164  16.543  29.928  13.274
49850W        W22165  43.303  10.903  12.134
49851W        W22166  19.356  16.686  11.793
49852W        W22167  23.346  38.378  11.965
49853W        W22168  32.347  20.992   2.146
49854W        W22169  26.409  36.153   4.960
49855W        W22170  43.458  11.741  12.606
49856W        W22171  36.591   6.774  13.452
49857W        W22172  26.475  43.101   1.983
49858W        W22173  44.734  37.811   1.360
49859W        W22174  40.375  42.847  10.599
49860W        W22175  37.267   8.656   3.420
49861W        W22176   9.270  13.284  13.378
49862W        W22177  34.351   1.296   2.365
49863W        W22178  14.904  34.795  12.573
49864W        W22179  40.302  34.168  10.489
49865W        W22180   8.615  24.325  14.884
49866W        W22181  17.332  10.337  10.637
49867W        W22182  44.211  41.816   3.623
49868W        W22183  10.736  36.713   1.855
49869W        W22184   9.316  23.683  14.972
49870W        W22185  25.564  14.803  14.894
49871W        W22186  22.704   0.001  13.374
49872W        W22187   4.865  12.080   0.162
49873W        W22188  10.804  22.536   1.283
49874W        W22189   9.691   0.050  13.480
49875W        W22190  42.377  26.489   0.669
49876W        W22191  39.423  33.449  13.844
49877W        W22192  16.977  18.586  13.460
49878W        W22193   8.127  29.020   2.847
49879W        W22194  21.620  43.747  11.561
49880W        W22195  19.643  13.064   3.616
49881W        W22196  26.416  43.268   3.566
49882W        W22197  34.908   8.166  13.752
49883W        W22198  15.620  39.969  10.728
49884W        W22199  33.189  32.044  11.113
49885W        W22200  21.660  26.197  11.435
49886W        W22201  16.275  26.375  10.437
49887W        W22202   0.763   6.235   2.938
49888W        W22203  11.888  38.047  12.098
49889W        W22204  20.195  12.337   4.175
49890W        W22205  43.795  30.329   2.821
49891W        W22206  16.243  20.177   1.381
49892W        W22207  28.630   0.718  10.625
49893W        W22208  36.909  19.142   4.956
49894W        W22209  16.650  17.792   2.306
49895W        W22210   6.795  37.169   3.162
49896W        W22211  25.838  25.438  14.287
49897W        W22212  13.373  37.295   1.843
49898W        W22213  20.270  11.058  13.481
49899W        W22214  42.939  30.660  13.375
49900W        W22215  28.731  28.250   3.304
49901W        W22216  16.779  18.086   2.819
49902W        W22217  14.501  42.483   1.663
49903W        W22218   2.136  29.457  14.852
49904W        W22219  43.864   4.417  14.005
49905W        W22220   4.246  21.697  10.526
49906W        W22221  33.155  41.825   4.652
49907W        W22222  18.329  21.762  14.309
49908W        W22223   0.476  14.078  14.762
49909W        W22224   9.795   3.421   2.205
49910W        W22225  39.132  21.709  14.894
49911W        W22226  41.805  14.092   3.727
49912W        W22227  19.593   0.843   2.127
49913W        W22228  29.498  41.994  11.620
49914W        W22229   1.762  25.558  13.346
49915W        W22230  14.841  17.128  11.163
49916W        W22231   4.404   4.445  14.864
49917W        W22232  15.557  33.172  10.629
49918W        W22233  21.207  38.753  10.601
49919W        W22234   1.744   2.305   2.419
49920W        W22235  18.580  11.711  11.301
49921W        W22236   3.533  17.489   0.709
49922W        W22237   8.088  40.906  13.974
49923W        W22238  22.044  34.867  11.341
49924W        W22239  23.595   9.916   1.763
49925W        W22240   4.266   6.866   4.112
49926W        W22241  13.331  14.838   1.423
49927W        W22242  19.725  29.401   3.353
49928W        W22243  32.080  28.743   3.499
49929W        W22244   6.002   4.832   4.625
49930W        W22245  25.742   3.407   1.457
49931W        W22246  20.762  41.246   3.326
49932W        W22247  12.863   3.474  14.845
49933W        W22248  27.016  35.270   4.611
49934W        W22249  26.718  36.145  10.200
49935W        W22250   9.319  21.865   3.992
49936W        W22251  31.959  17.058  14.477
49937W        W22252  43.671   7.414  10.681
49938W        W22253  12.504  23.408   0.858
49939W        W22254  13.061  26.190   4.611
49940W        W22255  40.418  12.448   0.918
49941W        W22256   6.641  29.205   0.379
49942W        W22257   2.489  24.872   1.679
49943W        W22258  16.331  41.968  12.021
49944W        W22259  16.258  11.138   2.290
49945W        W22260  41.043  13.263   1.315
49946W        W22261   9.368  38.325   1.376
49947W        W22262  32.141  28.377   3.128
49948W        W22263  32.348  12.331   0.850
49949W        W22264   8.641  24.056  14.007
49950W        W22265  13.859  12.319   4.325
49951W        W22266   8.756  30.992   2.780
49952W        W22267  19.197  37.066   1.287
49953W        W22268  37.601  39.994  11.712
49954W        W22269  27.576  23.243   0.459
49955W        W22270  35.517  12.170   0.556
49956W        W22271  38.652  26.939  12.849
49957W        W22272  11.208  41.847  11.114
49958W        W22273  28.577  14.786   2.253
49959W        W22274  43.084  25.651   2.885
49960W        W22275   6.613   0.927   2.394
49961W        W22276  44.066  20.190   4.956
49962W        W22277  34.408  15.161  13.502
49963W        W22278  14.609  19.021   2.752
49964W        W22279  32.681  31.189  11.836
49965W        W22280  27.538   2.650   1.700
49966W        W22281  14.195   3.750  11.571
49967W        W22282  31.931  19.037  12.638
49968W        W22283  26.984  44.332   3.346
49969W        W22284  14.981  32.689   3.293
49970W        W22285  11.363  28.454  14.057
49971W        W22286  19.729   5.438  11.190
49972W        W22287   8.762  38.323  14.465
49973W        W22288  12.794  28.392  13.978
49974W        W22289   9.627  44.355   2.201
49975W        W22290  31.017   8.230  14.858
49976W        W22291  43.763  31.858  10.540
49977W        W22292  16.111  36.665  12.430
49978W        W22293  42.076  44.919  11.952
49979W        W22294   0.755  37.295  11.095
49980W        W22295   8.233   5.014   1.734
49981W        W22296  23.624  34.014   3.760
49982W        W22297   7.916  11.979  14.901
49983W        W22298   1.147  25.690  12.438
49984W        W22299  27.701  11.871  10.543
49985W        W22300  30.463  36.967  12.664
49986W        W22301   6.982  44.745   3.234
49987W        W22302   6.403  17.541  14.059
49988W        W22303  35.793  43.223   2.347
49989W        W22304  44.875  16.648  13.098
49990W        W22305  31.923  19.508   1.172
49991W        W22306  41.684  39.949   1.647
49992W        W22307  27.220  13.055  12.073
49993W        W22308  35.905  24.445   0.243
49994W        W22309  17.623  20.214   1.905
49995W        W22310  14.238  32.253  12.657
49996W        W22311  27.153  25.295   1.292
49997W        W22312  16.660  20.172  13.578
49998W        W22313   0.285   6.421   1.489
49999W        W22314  25.559   7.206   1.699
50000W        W22315  17.830  37.936   0.831
50001W        W22316  28.533  41.176   0.967
50002W        W22317  14.161  44.083   0.010
50003W        W22318  16.111  39.466  12.361
50004W        W22319  12.460  19.572  13.985
50005W        W22320  39.424  15.692   4.514
50006W        W22321  21.982   6.322   0.021
50007W        W22322  36.808  29.907   3.653
50008W        W22323  44.351  27.080  11.676
50009W        W22324   7.953  11.549  13.401
50010W        W22325  30.173   1.502  14.545
50011W        W22326   2.366  29.685   4.103
50012W        W22327  11.962  32.916   2.363
50013W        W22328  36.926  12.702  13.846
50014W        W22329  44.523   3.972  10.984
50015W        W22330   7.132  44.959   1.265
50016W        W22331   3.224  42.974  13.432
50017W        W22332  22.740  11.776  10.738
50018W        W22333   5.960   7.889   0.763
50019W        W22334  17.673  42.731   4.181
50020W        W22335  26.400   3.840   0.067
50021W        W22336  17.602  18.288   4.137
50022W        W22337  26.023   5.818   5.439
50023W        W22338  35.504  31.451  11.503
50024W        W22339  25.529  33.419  14.768
50025W        W22340  43.618  18.228  10.211
50026W        W22341   0.375  41.041   1.105
50027W        W22342  19.756  33.181  11.272
50028W        W22343  30.205  21.789  11.975
50029W        W22344  21.790  37.993  10.912
50030W        W22345   3.266   6.165   3.701
50031W        W22346  29.442   0.825  13.375
50032W        W22347  44.123  16.600  13.586
50033W        W22348   7.274  12.330  12.415
50034W        W22349  20.646  23.863  13.772
50035W        W22350  31.572  18.241   3.404
50036W        W22351  22.022  10.683   4.564
50037W        W22352   5.805  20.253  14.901
50038W        W22353   0.291   9.777  11.917
50039W        W22354  39.756  40.419   0.739
50040W        W22355   1.205  40.883   0.056
50041W        W22356  38.872  43.039  11.862
50042W        W22357  30.364  19.469  14.897
50043W        W22358  15.502   7.121  13.503
50044W        W22359  35.577  14.546  14.832
50045W        W22360  19.136  14.730   3.444
50046W        W22361  16.304  27.655  11.735
50047W        W22362  25.746  29.153  13.104
50048W        W22363   0.533   9.156  10.759
50049W        W22364   4.170  29.651  13.513
50050W        W22365  28.551   4.710  11.570
50051W        W22366  29.681  18.273  14.587
50052W        W22367  36.504  24.513   4.335
50053W        W22368  20.801   4.156  14.782
50054W        W22369  26.117  38.444   3.806
50055W        W22370  34.351  11.226  14.923
50056W        W22371  15.156  23.924  13.432
50057W        W22372  44.459  20.246   1.337
50058W        W22373  37.787   8.837   2.343
50059W        W22374  35.038   9.652  11.589
50060W        W22375  39.379   8.873  11.861
50061W        W22376  22.340  15.873  13.031
50062W        W22377  25.175  21.992  14.866
50063W        W22378  41.466  39.032   3.275
50064W        W22379  36.242  13.247  14.821
50065W        W22380  34.450  18.342   0.723
50066W        W22381  16.028  27.840   0.406
50067W        W22382  37.917  11.360  11.075
50068W        W22383  28.647  29.731  13.483
50069W        W22384  33.627  17.238   0.904
50070W        W22385  22.104  19.278  12.965
50071W        W22386  22.344  17.365   0.762
50072W        W22387  38.314   8.202   2.706
50073W        W22388  36.441  15.915   1.957
50074W        W22389  15.356  18.877  14.222
50075W        W22390  20.598  34.599   0.799
50076W        W22391  29.490  21.295  11.582
50077W        W22392  28.169  27.113   4.083
50078W        W22393  29.874  26.767   3.789
50079W        W22394   3.682  16.592   4.201
50080W        W22395   7.590   7.805   2.858
50081W        W22396  33.224  26.091   4.219
50082W        W22397  10.844  25.380  11.198
50083W        W22398  20.996  30.707   0.528
50084W        W22399  38.399   6.038  11.993
50085W        W22400  20.221  40.283   2.360
50086W        W22401  29.471  37.149   3.782
50087W        W22402  36.921   6.115  14.043
50088W        W22403  29.340  15.706  12.862
50089W        W22404  28.455  26.470   2.321
50090W        W22405   4.924  15.700   2.418
50091W        W22406  19.328  27.599  12.450
50092W        W22407  26.141  38.793  13.584
50093W        W22408  40.293  37.871  11.096
50094W        W22409  31.266  30.949  11.971
50095W        W22410  13.937  43.073   3.254
50096W        W22411   9.239  31.066   1.396
50097W        W22412   6.853  20.654   1.086
50098W        W22413   3.880   7.240   2.368
50099W        W22414  28.752  37.886   1.957
50100W        W22415  17.518  23.052   0.891
50101W        W22416  31.464  25.024   0.865
50102W        W22417  38.047   2.841  10.749
50103W        W22418   0.903  13.238   2.837
50104W        W22419  34.353  31.653  13.738
50105W        W22420  29.142  11.007  10.793
50106W        W22421  24.820  28.210  11.617
50107W        W22422  22.552  23.197   1.268
50108W        W22423  26.003  19.474   2.213
50109W        W22424  18.497  13.737   1.654
50110W        W22425  22.220  34.938  14.308
50111W        W22426  10.850  16.384   2.571
50112W        W22427  18.155  11.137  12.917
50113W        W22428  30.559  35.107  14.107
50114W        W22429  40.902   9.283   0.733
50115W        W22430  25.975  33.082   1.890
50116W        W22431  10.855  14.402   3.445
50117W        W22432   8.598  34.593  14.444
50118W        W22433  23.698  38.371  10.718
50119W        W22434  14.157  38.781   1.785
50120W        W22435  15.560   3.950   1.281
50121W        W22436  44.541  40.978  14.905
50122W        W22437  42.928  34.527   1.807
50123W        W22438  12.390  39.899  13.282
50124W        W22439  18.852  37.534   3.451
50125W        W22440  22.228  30.572   3.650
50126W        W22441  17.664  29.092  11.414
50127W        W22442  30.086  10.144  12.960
50128W        W22443  38.383  23.230  10.301
50129W        W22444   4.365  40.348  13.311
50130W        W22445  24.724  16.164   1.955
50131W        W22446  23.234  10.162  12.763
50132W        W22447  36.557  23.058  14.286
50133W        W22448   7.481  27.469   2.733
50134W        W22449   2.050  19.356  13.388
50135W        W22450  19.290   4.925   2.326
50136W        W22451  31.170   6.876   4.366
50137W        W22452  44.896  17.065   4.165
50138W        W22453  28.078   9.114   1.475
50139W        W22454  13.148   7.732   4.467
50140W        W22455  20.119  15.336  11.040
50141W        W22456  39.750   1.352  11.990
50142W        W22457  37.358  20.751  13.059
50143W        W22458  29.139   5.816   0.206
50144W        W22459   8.888   1.061  13.916
50145W        W22460  35.486  35.571  11.975
50146W        W22461  13.707   5.746  13.555
50147W        W22462  10.674  20.235  14.762
50148W        W22463  43.215  32.015  12.833
50149W        W22464  38.869  26.199   0.910
50150W        W22465  25.922   3.220   2.301
50151W        W22466  11.616  40.402   3.832
50152W        W22467  38.339  10.214   1.163
50153W        W22468  16.330  41.314  11.486
50154W        W22469  16.635  38.194  11.532
50155W        W22470  38.885   7.780   1.315
50156W        W22471  11.624  34.979  11.775
50157W        W22472  11.663   2.876   3.199
50158W        W22473   1.533  34.074   2.315
50159W        W22474  22.095  35.467   2.419
50160W        W22475  41.531  20.562  11.202
50161W        W22476   2.475  31.991   4.564
50162W        W22477  28.240  19.436   2.267
50163W        W22478  15.112  42.701  13.300
50164W        W22479  33.813   3.222   0.170
50165W        W22480   1.676  11.264  10.656
50166W        W22481   8.899  42.359  13.374
50167W        W22482  25.529  17.726   2.792
50168W        W22483   3.926  37.341  10.278
50169W        W22484  30.936   8.105  13.455
50170W        W22485  17.270  13.291   2.220
50171W        W22486  20.928  24.920   3.642
50172W        W22487  16.475  18.135   0.468
50173W        W22488  26.471  19.608   0.547
50174W        W22489  43.372   3.487   2.864
50175W        W22490   7.959  37.108  13.469
50176W        W22491  40.063  30.931  12.109
50177W        W22492  12.286  30.570  13.865
50178W        W22493  26.300  29.352   0.946
50179W        W22494  40.815  13.031   4.727
50180W        W22495  38.320  21.039  13.007
50181W        W22496  26.977  20.481  14.346
50182W        W22497  17.096  12.249  14.347
50183W        W22498  16.730  27.571  11.442
50184W        W22499  31.702  15.138   4.125
50185W        W22500  38.835  32.891  10.237
50186W        W22501  35.662  44.862  12.105
50187W        W22502  26.547  35.018  14.112
50188W        W22503  23.714  23.276   2.125
50189W        W22504  24.170  35.070   2.814
50190W        W22505  28.542  19.876   2.444
50191W        W22506  23.563   7.381  13.831
50192W        W22507   3.762  10.836   0.960
50193W        W22508  42.820   0.859   2.837
50194W        W22509   9.127   4.423   3.322
50195W        W22510  11.728  32.207  13.319
50196W        W22511  23.995  11.083  13.618
50197W        W22512   3.839   3.881  12.492
50198W        W22513  40.749  36.880  12.550
50199W        W22514  44.408  43.980   0.782
50200W        W22515  18.127  30.848  13.686
50201W        W22516  42.611   2.965   1.257
50202W        W22517  35.954  10.949   2.874
50203W        W22518  29.665   1.956   1.800
50204W        W22519  32.102   1.761   3.889
50205W        W22520   8.730  13.813  10.702
50206W        W22521   9.229  27.746   3.910
50207W        W22522  25.469  17.906  14.377
50208W        W22523  36.380  38.504  12.518
50209W        W22524  44.178  26.761  14.949
50210W        W22525  30.370   6.182  13.851
50211W        W22526  31.863  12.907   2.539
50212W        W22527  13.112  26.745  10.729
50213W        W22528  15.970  34.494  14.905
50214W        W22529  31.420  14.716   4.303
50215W        W22530  10.679  17.169   4.137
50216W        W22531  36.544  15.923  14.829
50217W        W22532  35.612   5.405  14.771
50218W        W22533  25.628  38.263   2.285
50219W        W22534  18.821   2.393  13.465
50220W        W22535  44.494  19.632  12.498
50221W        W22536  18.702  13.610  12.576
50222W        W22537  41.898  36.112   3.198
50223W        W22538  39.072   8.155  10.489
50224W        W22539  34.474  39.572   1.908
50225W        W22540  30.661  25.711   4.489
50226W        W22541  20.113  31.362   4.769
50227W        W22542  42.375  38.376   0.786
50228W        W22543  21.559  13.652  14.615
50229W        W22544  10.143  38.123  13.373
50230W        W22545  25.994  15.050  14.007
50231W        W22546  17.217  37.776  14.326
50232W        W22547  16.551   9.976  11.720
50233W        W22548  29.629  30.962   3.907
50234W        W22549  22.149  41.726   0.242
50235W        W22550   1.243  27.255  13.336
50236W        W22551  44.479  28.978  13.362
50237W        W22552  34.333  25.588  14.669
50238W        W22553  19.734  35.928   4.335
50239W        W22554  13.166  22.954  12.401
50240W        W22555  18.740  44.208   1.930
50241W        W22556  10.694   6.181  14.565
50242W        W22557  34.103  17.063  14.560
50243W        W22558  27.739  24.158   0.245
50244W        W22559  44.878  16.297   2.842
50245W        W22560  23.738   3.415   0.322
50246W        W22561  24.559   4.687   2.879
50247W        W22562   4.103  39.726   1.904
50248W        W22563  16.089  37.275  10.817
50249W        W22564   4.861   2.689   3.192
50250W        W22565  19.853  31.481   0.892
50251W        W22566  14.242  32.920   4.859
50252W        W22567  41.442   3.727  14.886
50253W        W22568  12.339  18.974   1.677
50254W        W22569  13.142  19.302  14.311
50255W        W22570  12.950  40.531   0.866
50256W        W22571  13.062  29.336  13.110
50257W        W22572  36.602   4.463  12.443
50258W        W22573  43.986  44.078   2.776
50259W        W22574  30.056   1.437   4.536
50260W        W22575  24.651   5.737   3.767
50261W        W22576   8.802  44.325  14.020
50262W        W22577   8.089  18.636  14.917
50263W        W22578  44.692  26.705  14.024
50264W        W22579   0.064  16.130  13.716
50265W        W22580  39.165  12.555   5.161
50266W        W22581  15.229  33.989   3.321
50267W        W22582  40.530  20.484  11.641
50268W        W22583   9.190   5.708  11.954
50269W        W22584  37.554  23.420   0.482
50270W        W22585  15.076   3.948  12.865
50271W        W22586  38.470  31.435  13.469
50272W        W22587  24.295   1.719  12.464
50273W        W22588  42.368  40.302  10.699
50274W        W22589  10.936  10.672   1.780
50275W        W22590  15.601  39.907   0.907
50276W        W22591  10.919   6.156   0.479
50277W        W22592   7.002   0.053  11.130
50278W        W22593  44.403  38.906   4.606
50279W        W22594  30.052  24.108   2.671
50280W        W22595  37.703  18.826   4.567
50281W        W22596  37.563  31.713  10.542
50282W        W22597  36.528  24.440  14.055
50283W        W22598  33.626  28.007  12.991
50284W        W22599  41.597   4.835   1.475
50285W        W22600   0.170  10.968  10.516
50286W        W22601  42.132  30.208  14.826
50287W        W22602   7.381  16.138  13.454
50288W        W22603  39.380  43.429  11.149
50289W        W22604   9.849  43.856   1.545
50290W        W22605  17.804   2.419  13.377
50291W        W22606  16.334  37.447   2.230
50292W        W22607  44.741   0.880   0.777
50293W        W22608  29.189  28.582   4.174
50294W        W22609  28.396  23.965   1.392
50295W        W22610  16.666  11.618  10.626
50296W        W22611  23.449  42.437  12.045
50297W        W22612  22.722  44.493  12.084
50298W        W22613  28.426  40.326  14.014
50299W        W22614  27.236  17.705   2.212
50300W        W22615   5.758  42.053   0.240
50301W        W22616   9.713  29.835   4.204
50302W        W22617  26.230   3.012  12.670
50303W        W22618  12.398  38.088   2.620
50304W        W22619  40.787  37.956   4.750
50305W        W22620  11.857  42.639   0.669
50306W        W22621   1.936  24.866   2.488
50307W        W22622  23.990  29.468  12.095
50308W        W22623   9.885  32.082  13.462
50309W        W22624  14.138   7.917   4.101
50310W        W22625  36.563   4.613   0.388
50311W        W22626   7.748  13.375   3.142
50312W        W22627  29.074   2.942   4.875
50313W        W22628  34.900   0.841  10.256
50314W        W22629  34.607  18.198  13.893
50315W        W22630  37.171  20.177   1.494
50316W        W22631   7.669  33.491   5.054
50317W        W22632  24.665  35.106   3.036
50318W        W22633  11.920  40.662   0.840
50319W        W22634  22.395  42.350  13.938
50320W        W22635  27.459  26.976  10.288
50321W        W22636   2.351   0.438  12.588
50322W        W22637  43.866  21.068  11.493
50323W        W22638  34.864  16.568  13.815
50324W        W22639  10.121   0.845  10.739
50325W        W22640   4.926   0.168  13.389
50326W        W22641  40.307  17.920  12.435
50327W        W22642   7.842  26.227  11.015
50328W        W22643   4.944  34.125   3.880
50329W        W22644  28.245   5.281   0.849
50330W        W22645  19.177   9.905  10.714
50331W        W22646  39.872  39.986   3.395
50332W        W22647  37.583  31.465   4.668
50333W        W22648   4.044  24.958  14.377
50334W        W22649   3.667   4.359   0.328
50335W        W22650   4.975  15.198  13.832
50336W        W22651  11.352  24.764   0.898
50337W        W22652  37.966  18.189   2.645
50338W        W22653  36.647  36.560  11.921
50339W        W22654  34.483  30.409  13.286
50340W        W22655  31.400  30.063  11.585
50341W        W22656  41.089  20.916   3.199
50342W        W22657  11.277  19.531   3.617
50343W        W22658  17.562  13.050   3.256
50344W        W22659  21.966  32.824  11.197
50345W        W22660   4.173  34.760   0.014
50346W        W22661   2.907  27.568   1.430
50347W        W22662  10.716  19.084   9.549
50348W        W22663  12.744  14.091   1.080
50349W        W22664  12.331  28.563   0.500
50350W        W22665   4.409  20.422   3.272
50351W        W22666  20.445  13.948   1.751
50352W        W22667  30.838   5.977   0.876
50353W        W22668  20.481  27.094  10.679
50354W        W22669  39.134  15.274   4.624
50355W        W22670  10.683  20.836  10.870
50356W        W22671  19.384  43.983  13.778
50357W        W22672  15.984  31.723   4.200
50358W        W22673  25.726  36.545  14.883
50359W        W22674  25.136  25.769   0.386
50360W        W22675   7.337  27.114  10.795
50361W        W22676   5.188  38.689   2.291
50362W        W22677  35.645  21.012  13.004
50363W        W22678  13.719  31.599   3.767
50364W        W22679   6.236  10.397  14.875
50365W        W22680  18.202   0.171  14.976
50366W        W22681  38.926  27.925  13.771
50367W        W22682  19.880  41.000   0.081
50368W        W22683  11.877  35.012  14.527
50369W        W22684  15.160  19.136   4.481
50370W        W22685  17.629  30.502   4.556
50371W        W22686  43.692  32.949   0.381
50372W        W22687  18.833   5.191  12.383
50373W        W22688  24.042  42.359  10.683
50374W        W22689  38.959  19.222   3.276
50375W        W22690   3.535   8.272   1.851
50376W        W22691  32.742  29.491   3.225
50377W        W22692   3.001  12.645   2.173
50378W        W22693   9.015  33.576  13.826
50379W        W22694  36.572  34.482  12.538
50380W        W22695  43.298  36.917  13.534
50381W        W22696  17.890  36.878  14.337
50382W        W22697  14.338   6.661   3.806
50383W        W22698  21.609   1.513   2.487
50384W        W22699  26.522  17.612   3.171
50385W        W22700  27.643   1.192   2.594
50386W        W22701  20.553  43.350  14.925
50387W        W22702  32.593  13.370  14.864
50388W        W22703  18.602  34.284   1.383
50389W        W22704  44.723   3.033  12.371
50390W        W22705  33.144   6.626  13.254
50391W        W22706  41.869  36.418  11.457
50392W        W22707  42.947   7.774  10.899
50393W        W22708  27.525  22.004   4.199
50394W        W22709   4.828  38.952   4.631
50395W        W22710  15.392  29.038   1.733
50396W        W22711  13.531  14.700   3.358
50397W        W22712   5.520  26.117  12.735
50398W        W22713  11.273  33.201   3.397
50399W        W22714  25.601  41.456   5.029
50400W        W22715  34.136   8.697   4.555
50401W        W22716  42.220   5.009   5.041
50402W        W22717  22.721  34.058  11.521
50403W        W22718  26.489  21.272   4.466
50404W        W22719  12.866   2.304  12.889
50405W        W22720  35.707  37.728  11.040
50406W        W22721  23.732   0.233  10.603
50407W        W22722  17.657  19.260   4.796
50408W        W22723  32.964   5.610   3.682
50409W        W22724  11.718  22.462  14.108
50410W        W22725  14.696   4.713   0.372
50411W        W22726  17.045  39.260   3.266
50412W        W22727   2.440  27.494   2.893
50413W        W22728  38.799  23.005  14.514
50414W        W22729  24.742  12.922   1.392
50415W        W22730  11.679   0.518  11.943
50416W        W22731  24.702  21.555   3.768
50417W        W22732   2.004  21.502  12.547
50418W        W22733  44.157   5.502  12.112
50419W        W22734  13.224  26.111  14.723
50420W        W22735  25.041   8.256   0.913
50421W        W22736  44.626  33.383  10.236
50422W        W22737   8.709  26.513   0.988
50423W        W22738   9.361   4.399   4.173
50424W        W22739  18.217  29.341   3.792
50425W        W22740   6.982   4.474   1.377
50426W        W22741  21.453  19.943   3.707
50427W        W22742  43.615   3.337   5.098
50428W        W22743  30.077   7.086  13.211
50429W        W22744  41.773   8.943  10.059
50430W        W22745  13.877  25.250  10.776
50431W        W22746   1.973  11.333   3.245
50432W        W22747  14.660  19.038   4.281
50433W        W22748  23.462  28.336  10.606
50434W        W22749  28.404  29.172   3.539
50435W        W22750  19.309  13.841  10.626
50436W        W22751  33.397  14.210  11.504
50437W        W22752  37.873  19.698  11.917
50438W        W22753  27.842  29.067  13.134
50439W        W22754  17.642   9.632  14.901
50440W        W22755  19.546  25.935  12.971
50441W        W22756  43.401  24.426  13.817
50442W        W22757  18.505  15.112   0.876
50443W        W22758  35.523   0.466   2.310
50444W        W22759  38.280  37.793  11.078
50445W        W22760  20.942  14.904  12.583
50446W        W22761   8.757   0.404   1.948
50447W        W22762   7.306  33.108   0.865
50448W        W22763  42.846   1.479  11.404
50449W        W22764   1.751  26.743  12.896
50450W        W22765  40.411   8.651   4.085
50451W        W22766  30.475  29.330   0.180
50452W        W22767  25.528   0.435   0.690
50453W        W22768  11.085  42.422   2.575
50454W        W22769   7.343  34.075  11.120
50455W        W22770  33.810  13.191   0.537
50456W        W22771   5.505  37.148   3.606
50457W        W22772  41.786  44.745  11.561
50458W        W22773   2.991  43.265  13.047
50459W        W22774  29.959   6.690  14.658
50460W        W22775  39.797  27.623  12.632
50461W        W22776  25.322  32.025   2.882
50462W        W22777  28.176  28.721  11.617
50463W        W22778  23.590   2.056   3.779
50464W        W22779   5.884   0.939   4.007
50465W        W22780  25.612  25.153   5.135
50466W        W22781  20.100  14.617  13.005
50467W        W22782   0.723  10.080  11.801
50468W        W22783  28.547   4.187  11.551
50469W        W22784  43.888  36.149   3.745
50470W        W22785  19.463   0.647  12.108
50471W        W22786   3.397   5.832   2.760
50472W        W22787  20.997  25.617   1.762
50473W        W22788   2.460  25.490  11.031
50474W        W22789   3.386  30.357   0.505
50475W        W22790  43.401  21.225   3.933
50476W        W22791  28.943   0.785  13.215
50477W        W22792  27.459  36.046  11.412
50478W        W22793  29.413  30.468  13.364
50479W        W22794  28.287  34.692  10.087
50480W        W22795  12.456  43.776  11.474
50481W        W22796  40.320  37.121   2.377
50482W        W22797  13.276  30.576  11.996
50483W        W22798   9.037  31.730   0.873
50484W        W22799   3.323  26.805   4.275
50485W        W22800  21.211  30.519   4.579
50486W        W22801   2.259  26.596  11.914
50487W        W22802  40.084  13.599   4.992
50488W        W22803  11.303  44.430   4.626
50489W        W22804  20.032   2.468  14.956
50490W        W22805  36.568  17.802   4.280
50491W        W22806  10.316  20.670  12.378
50492W        W22807  40.027  41.763  12.442
50493W        W22808  15.244   2.406  10.910
50494W        W22809  23.537  11.341  12.470
50495W        W22810  29.967  32.391   3.647
50496W        W22811  15.550  27.540  14.588
50497W        W22812   3.195  43.685  14.852
50498W        W22813  31.523  43.351  12.517
50499W        W22814   4.894  27.637   1.842
50500W        W22815  41.320  28.945  14.904
50501W        W22816   7.242  11.824  12.331
50502W        W22817  27.781   4.666   3.094
50503W        W22818   4.938   5.498   1.066
50504W        W22819   9.686  42.953   1.425
50505W        W22820   2.288  11.581   1.805
50506W        W22821  40.034   1.444   0.230
50507W        W22822   8.287  30.880  12.856
50508W        W22823  17.683   9.182   2.242
50509W        W22824  21.725  44.706  11.649
50510W        W22825  15.030   9.347   3.985
50511W        W22826  22.594   1.442  12.450
50512W        W22827   8.105  28.732  14.310
50513W        W22828  14.358  38.022  14.448
50514W        W22829  40.803  40.018  12.391
50515W        W22830  37.874  15.553  12.867
50516W        W22831  25.079   4.497  12.545
50517W        W22832  34.641  28.338   0.259
50518W        W22833  41.343   5.804  13.934
50519W        W22834  22.699  35.605   0.251
50520W        W22835  10.362  42.761  13.539
50521W        W22836  38.984  37.043   0.778
50522W        W22837  18.602  12.032   2.575
50523W        W22838  36.096  27.037   2.344
50524W        W22839  22.437   7.907  12.871
50525W        W22840  12.299  35.123   9.968
50526W        W22841  32.521  32.867  14.385
50527W        W22842  43.526   4.949  11.540
50528W        W22843  38.889  10.309  12.031
50529W        W22844  10.912  26.248   1.222
50530W        W22845  20.989  22.273  11.052
50531W        W22846   2.331  25.117   0.734
50532W        W22847   5.332   6.415   2.727
50533W        W22848  25.290   9.114  12.459
50534W        W22849   2.240  13.589  12.117
50535W        W22850  17.138  14.132   4.509
50536W        W22851   4.735   5.654   1.527
50537W        W22852   1.857  19.998  10.524
50538W        W22853  25.867  31.574  14.059
50539W        W22854  33.177  34.690  14.226
50540W        W22855  30.151   0.386   3.266
50541W        W22856   2.458   6.195  13.561
50542W        W22857   9.510  35.367   3.612
50543W        W22858  44.271  34.273   1.122
50544W        W22859  36.101   5.341   2.384
50545W        W22860  23.016  26.013   0.706
50546W        W22861  21.359   2.007  11.208
50547W        W22862  13.669  17.053   3.325
50548W        W22863  22.010   2.957  13.961
50549W        W22864  39.794  40.701  11.067
50550W        W22865   9.183   1.994   1.368
50551W        W22866  23.748  38.601   2.457
50552W        W22867  43.412  42.741  11.484
50553W        W22868  14.388  25.561   0.212
50554W        W22869   2.024  16.137  11.331
50555W        W22870  32.953  29.524  12.419
50556W        W22871   7.457   9.758  14.321
50557W        W22872   1.059  25.056   1.373
50558W        W22873  43.479   8.645  11.108
50559W        W22874   2.711  14.024  11.204
50560W        W22875  18.883   8.818   9.900
50561W        W22876  44.956  36.944  13.081
50562W        W22877  43.555  40.853  13.004
50563W        W22878  37.078  44.568  11.744
50564W        W22879  11.167  40.155   4.717
50565W        W22880  26.185  37.567  12.951
50566W        W22881  14.065  35.128   0.961
50567W        W22882   0.854  22.021   3.042
50568W        W22883   0.421   5.275   2.272
50569W        W22884  17.638  13.442   4.453
50570W        W22885  32.929  43.699  12.542
50571W        W22886  18.322  31.186  11.431
50572W        W22887  20.673  24.231   2.904
50573W        W22888  26.070   7.917  14.388
50574W        W22889   7.297  40.472  11.939
50575W        W22890  28.196  13.822   4.113
50576W        W22891  29.264   4.034  14.900
50577W        W22892  37.026  21.634   2.712
50578W        W22893  31.581  20.112   0.546
50579W        W22894  21.089  32.163  11.163
50580W        W22895  44.817  13.113   0.956
50581W        W22896  13.222  42.510   3.668
50582W        W22897   0.860  17.649  11.472
50583W        W22898  35.280  31.509  10.671
50584W        W22899  10.369   1.378  12.988
50585W        W22900  30.055  35.465  12.511
50586W        W22901   1.859  28.646   1.177
50587W        W22902  10.809  41.026   1.866
50588W        W22903  40.846   1.510   2.362
50589W        W22904  10.401  30.637  12.395
50590W        W22905  11.268  42.957   4.848
50591W        W22906   6.705   2.929   0.441
50592W        W22907  27.633  37.269  14.090
50593W        W22908  12.234  24.212  11.473
50594W        W22909   6.470  41.875  12.996
50595W        W22910  24.261  13.279  10.498
50596W        W22911  22.078  19.278   4.071
50597W        W22912  35.866  30.955   4.798
50598W        W22913  33.313  30.592   0.726
50599W        W22914   7.822  44.737   3.581
50600W        W22915  28.233   8.662  11.192
50601W        W22916  25.963  36.127   1.314
50602W        W22917   0.265  19.543  12.178
50603W        W22918   3.430  24.979  10.557
50604W        W22919  12.436  29.347   0.013
50605W        W22920  18.610   7.194   4.121
50606W        W22921  34.063  10.180  13.465
50607W        W22922  16.785  22.252   0.349
50608W        W22923  21.663   5.378  13.877
50609W        W22924   0.902  38.673  12.523
50610W        W22925  19.912  20.651   3.322
50611W        W22926  17.289  27.112   1.802
50612W        W22927  12.285   0.826   1.354
50613W        W22928  18.534   9.669  11.428
50614W        W22929  14.704   4.011  14.861
50615W        W22930  18.819  32.868  11.133
50616W        W22931  19.427  33.714  10.500
50617W        W22932   5.519  23.433  11.764
50618W        W22933  44.788   6.274   1.349
50619W        W22934  27.042  12.659   0.747
50620W        W22935   8.889  14.657  14.268
50621W        W22936  38.310  30.910   2.617
50622W        W22937  25.524  36.469  10.723
50623W        W22938   2.675  20.600  11.221
50624W        W22939   7.924  25.193   1.409
50625W        W22940  35.547  40.817  14.103
50626W        W22941   2.976   8.165   2.637
50627W        W22942  44.004  20.695  12.171
50628W        W22943  16.657  10.884  10.984
50629W        W22944  23.650   3.583  12.155
50630W        W22945  17.459  36.864  12.055
50631W        W22946  20.661  38.370   3.824
50632W        W22947  12.518   6.424  13.029
50633W        W22948  44.196  36.336   4.852
50634W        W22949  27.515  24.980   5.151
50635W        W22950  40.978  36.816   0.457
50636W        W22951  26.443  14.066   3.801
50637W        W22952   3.549   1.931  10.508
50638W        W22953  13.580  12.419  13.557
50639W        W22954  38.267  10.726   1.739
50640W        W22955  35.305  37.447  11.558
50641W        W22956  28.528  43.950   0.529
50642W        W22957  43.093   0.025   4.014
50643W        W22958  19.077  31.504  11.889
50644W        W22959  34.378  20.194  10.656
50645W        W22960  27.898  21.578   1.053
50646W        W22961  35.072  32.122  13.578
50647W        W22962  36.738  28.088  11.092
50648W        W22963  17.679   7.632   3.307
50649W        W22964  39.706   2.266   2.216
50650W        W22965  31.704  42.970   3.621
50651W        W22966  31.642   0.684  12.433
50652W        W22967   4.174  15.875   0.907
50653W        W22968   7.631   1.044   2.821
50654W        W22969  28.708  34.816   2.028
50655W        W22970  15.366   1.747   2.925
50656W        W22971   0.865  33.436   0.727
50657W        W22972  10.830  30.241  13.161
50658W        W22973  39.325  22.498   1.855
50659W        W22974  14.817   5.364  13.890
50660W        W22975  31.598  21.709  14.858
50661W        W22976  29.594  14.398   2.241
50662W        W22977   9.641  35.011   4.976
50663W        W22978  15.113  42.912  13.760
50664W        W22979  23.339   4.182  14.543
50665W        W22980   1.286  14.776  14.904
50666W        W22981  34.094   8.166   3.973
50667W        W22982  15.090  10.377   2.734
50668W        W22983  17.572  39.677  11.229
50669W        W22984  11.117  26.090  11.670
50670W        W22985  13.048  11.758   2.264
50671W        W22986   6.912   4.258  12.013
50672W        W22987  20.498  43.781  13.755
50673W        W22988  39.031  24.935   4.712
50674W        W22989  12.420  23.917   3.267
50675W        W22990  17.908  44.750  14.049
50676W        W22991  30.106   5.851   2.374
50677W        W22992  24.426   8.337   1.661
50678W        W22993  41.414  43.996  12.182
50679W        W22994  43.654  17.078   4.559
50680W        W22995  18.085  16.851   2.552
50681W        W22996   8.389  36.027   0.168
50682W        W22997   2.940  19.112   4.648
50683W        W22998  22.416  14.138  14.479
50684W        W22999  20.209  22.260  11.806
50685W        W23000  33.629  32.199  10.854
50686W        W23001  30.486  40.951  12.698
50687W        W23002  18.092  28.552   9.627
50688W        W23003  22.517  38.006  14.570
50689W        W23004  23.140  33.907  13.935
50690W        W23005  39.714   0.116  11.461
50691W        W23006  19.850  14.298   1.234
50692W        W23007  36.308   3.246   3.770
50693W        W23008   4.992   4.381   3.116
50694W        W23009  39.346  39.441  13.359
50695W        W23010  13.265  14.840  13.318
50696W        W23011   3.771   3.655  12.008
50697W        W23012   9.372  40.415  12.487
50698W        W23013   4.238   5.387   3.562
50699W        W23014   2.849   1.464   3.174
50700W        W23015  31.898  20.700  10.392
50701W        W23016  24.454   2.923   4.127
50702W        W23017   6.902  35.166  12.972
50703W        W23018  35.824  30.001   4.096
50704W        W23019  22.613   6.369  12.066
50705W        W23020  39.341  32.477  14.367
50706W        W23021  13.237  37.792   4.313
50707W        W23022  11.229  29.460   0.592
50708W        W23023  44.526   8.698  13.235
50709W        W23024  23.119  18.709  12.804
50710W        W23025   6.880  11.602   3.230
50711W        W23026  44.443  41.374  11.050
50712W        W23027  11.777  21.371  10.440
50713W        W23028  40.931  18.709   3.376
50714W        W23029  21.939   4.434   0.975
50715W        W23030  14.322  38.381  13.463
50716W        W23031   9.574  29.676  11.538
50717W        W23032  26.144   7.671  13.342
50718W        W23033  33.176   9.130   1.213
50719W        W23034  31.052  30.517   1.860
50720W        W23035   0.919  30.304  12.973
50721W        W23036  43.153  21.544  10.604
50722W        W23037  42.526  25.635  10.591
50723W        W23038   4.351   5.425   4.573
50724W        W23039   4.259  12.683   0.776
50725W        W23040   9.644  35.911  12.013
50726W        W23041  15.097  39.985  13.065
50727W        W23042  31.043  16.617   0.361
50728W        W23043  11.497   4.090  11.194
50729W        W23044  18.213  29.940  13.815
50730W        W23045  30.657  11.225  12.309
50731W        W23046  29.119   7.086  14.929
50732W        W23047   6.789  23.148  14.499
50733W        W23048  26.812   0.825  13.994
50734W        W23049   9.371  34.103   2.245
50735W        W23050  23.511  42.789   4.291
50736W        W23051  33.373   5.901  10.627
50737W        W23052  40.614   3.013   1.396
50738W        W23053  40.576  20.091   0.932
50739W        W23054  39.483  40.262  11.083
50740W        W23055  18.579  39.876   1.201
50741W        W23056  33.448  39.280  10.522
50742W        W23057  31.567  36.413  11.659
50743W        W23058  34.563   1.184  11.145
50744W        W23059  27.262  31.975  10.174
50745W        W23060  19.116  42.518   1.735
50746W        W23061  13.165  22.740  10.656
50747W        W23062   4.417  10.254  12.821
50748W        W23063  40.690  33.432   5.177
50749W        W23064  29.234  18.715  12.544
50750W        W23065  40.283   9.438   0.145
50751W        W23066  35.118  19.929  13.787
50752W        W23067  16.178  40.825  10.708
50753W        W23068  19.943  44.869   3.458
50754W        W23069  14.123   4.199  12.972
50755W        W23070   6.676  16.667  12.555
50756W        W23071   7.955  36.483  14.401
50757W        W23072  29.469  15.877   3.303
50758W        W23073  44.476   7.635  14.795
50759W        W23074  34.390   5.259  12.092
50760W        W23075  20.826  18.677  10.846
50761W        W23076  12.634  32.721  13.267
50762W        W23077  42.064   8.081   4.515
50763W        W23078  17.572  11.727   5.131
50764W        W23079  23.459  31.233   0.344
50765W        W23080  22.751   6.629  11.613
50766W        W23081  26.589  41.954  13.179
50767W        W23082   9.585  21.653   2.703
50768W        W23083   4.663  13.047   4.599
50769W        W23084  33.264   2.090  12.110
50770W        W23085  32.897  12.413   1.774
50771W        W23086  38.839  44.260   1.597
50772W        W23087   1.832  35.498   4.632
50773W        W23088  39.135  23.787   3.430
50774W        W23089  36.077   2.776   2.221
50775W        W23090   4.790  24.605  13.036
50776W        W23091   3.261   3.298  14.552
50777W        W23092  21.926  44.730   2.296
50778W        W23093   7.401  44.864  10.436
50779W        W23094  27.437   6.811  11.610
50780W        W23095  26.066   0.200  12.941
50781W        W23096   1.146   1.967   4.351
50782W        W23097   5.736  43.198   3.647
50783W        W23098  33.149  40.935   0.341
50784W        W23099  41.837  13.046   0.394
50785W        W23100  27.213  19.188   1.978
50786W        W23101  39.392  14.319   0.800
50787W        W23102   9.227   7.390   1.287
50788W        W23103  23.660  30.541   3.676
50789W        W23104   0.797   3.966   1.313
50790W        W23105   1.004  18.166  12.918
50791W        W23106  29.039   3.931  11.552
50792W        W23107   0.589  40.443  10.219
50793W        W23108  23.883   2.577   4.135
50794W        W23109   1.753   0.142  11.045
50795W        W23110  11.379  23.819   0.834
50796W        W23111  10.532  14.616  13.008
50797W        W23112  27.723  10.714  14.561
50798W        W23113  18.569  44.473   0.222
50799W        W23114  15.825  30.516  12.113
50800W        W23115  26.325  26.260  14.086
50801W        W23116   9.662  17.247   3.295
50802W        W23117  31.678   3.134   3.156
50803W        W23118  12.702  33.869  12.484
50804W        W23119  19.313  39.437  11.601
50805W        W23120   7.285  41.454  14.029
50806W        W23121  32.577  21.022   3.866
50807W        W23122  26.836  34.641   1.613
50808W        W23123  26.598   8.607  13.891
50809W        W23124  27.811  21.779   3.809
50810W        W23125  15.098  38.619  10.606
50811W        W23126  32.871   1.521  13.702
50812W        W23127  11.347  39.280  12.832
50813W        W23128   7.768  14.846  13.026
50814W        W23129   9.938   9.457  14.335
50815W        W23130  35.696  32.072   1.359
50816W        W23131  10.227  32.914  11.003
50817W        W23132  27.482  34.628   2.193
50818W        W23133  12.869   7.333   3.342
50819W        W23134  37.765  17.895  13.472
50820W        W23135  10.227  18.743  11.588
50821W        W23136  21.276  33.631   3.365
50822W        W23137   2.049   6.203   2.205
50823W        W23138  43.884  19.131  14.051
50824W        W23139   1.571  35.380   3.775
50825W        W23140  15.777  29.617   4.672
50826W        W23141  32.438  13.079   0.328
50827W        W23142  24.212  18.262  12.853
50828W        W23143  27.189  41.799  13.659
50829W        W23144   5.598  18.435  13.814
50830W        W23145  19.480  39.093   4.074
50831W        W23146  33.648   7.822  10.301
50832W        W23147  18.197   8.978   2.280
50833W        W23148   6.065   0.806   1.164
50834W        W23149  18.801  29.309  11.547
50835W        W23150   6.165  43.511   3.648
50836W        W23151  41.129  37.282  11.174
50837W        W23152  44.268   2.011   1.275
50838W        W23153  25.235   6.545  13.415
50839W        W23154  30.961  27.682  13.254
50840W        W23155  24.380  21.167  12.415
50841W        W23156  39.506  34.112   0.027
50842W        W23157   8.183   5.247  12.383
50843W        W23158   3.299   0.023  14.051
50844W        W23159  42.809  20.161   2.197
50845W        W23160  42.366  35.479   4.841
50846W        W23161  19.215   7.840   2.224
50847W        W23162  29.012  32.993  12.112
50848W        W23163  25.509  18.642   2.324
50849W        W23164  29.917  19.868   2.252
50850W        W23165   2.081  11.264   3.933
50851W        W23166   5.715  23.649  10.937
50852W        W23167  25.949  32.495  10.060
50853W        W23168  42.091  33.671   2.303
50854W        W23169  36.727  42.820  11.208
50855W        W23170  30.540  18.429   0.997
50856W        W23171  23.415  22.689  14.076
50857W        W23172  17.333   8.336  13.756
50858W        W23173  35.040  12.310  12.554
50859W        W23174  22.507  34.836  11.130
50860W        W23175  10.192  25.559  13.274
50861W        W23176  42.965   0.392  14.962
50862W        W23177  35.823   3.217  12.389
50863W        W23178  13.405  38.762  13.496
50864W        W23179   4.127  13.296   3.980
50865W        W23180  36.406   7.156   3.746
50866W        W23181  34.133  12.764   4.007
50867W        W23182  13.989  40.504   0.691
50868W        W23183  37.525  29.372  11.212
50869W        W23184  38.713  22.688   5.013
50870W        W23185  21.593   8.373   3.530
50871W        W23186  21.574  19.248  12.938
50872W        W23187  44.469   9.699   1.761
50873W        W23188  17.537  32.445  11.145
50874W        W23189  11.443  32.590   4.168
50875W        W23190   6.630  36.348  11.976
50876W        W23191  39.862  43.822   3.372
50877W        W23192  17.001  32.869  13.278
50878W        W23193   6.501  26.234   3.262
50879W        W23194  29.357  24.257   3.785
50880W        W23195  41.564  23.974   1.485
50881W        W23196  22.287  29.731   4.248
50882W        W23197  44.948  27.500  11.075
50883W        W23198  29.836  36.830  11.054
50884W        W23199  36.338  41.049  13.531
50885W        W23200  12.774  29.950  14.035
50886W        W23201   3.221   3.888  13.126
50887W        W23202  25.587  37.667  13.430
50888W        W23203  13.550  34.004   3.182
50889W        W23204  43.265   4.935   2.885
50890W        W23205  40.970   3.499   2.666
50891W        W23206  28.691  35.127   4.438
50892W        W23207  35.950  30.833   1.748
50893W        W23208  16.772  40.594   3.081
50894W        W23209  42.957  40.876  12.093
50895W        W23210  16.525  31.415  12.292
50896W        W23211  35.495  11.147   0.484
50897W        W23212   2.949  24.692  11.064
50898W        W23213  16.006  38.448   1.894
50899W        W23214  32.100   2.547  11.483
50900W        W23215  25.679  29.576  10.393
50901W        W23216   2.259  15.581  10.709
50902W        W23217  23.421   9.796  10.569
50903W        W23218  35.951  14.134  12.357
50904W        W23219  15.016  25.194  13.914
50905W        W23220   5.349  17.412  13.903
50906W        W23221   7.383  26.514   0.427
50907W        W23222  44.224   3.557  11.077
50908W        W23223  31.028   7.986  11.018
50909W        W23224   6.449  43.341  13.390
50910W        W23225  38.423  22.802   4.567
50911W        W23226  17.269  41.785  14.047
50912W        W23227  12.063  29.267  12.636
50913W        W23228   6.209  11.365  12.917
50914W        W23229  40.655  12.551  12.687
50915W        W23230  13.552  22.500  12.830
50916W        W23231   6.782  30.000  14.271
50917W        W23232  11.327  28.934   2.924
50918W        W23233  29.004   1.323   3.028
50919W        W23234  24.020  44.865   1.232
50920W        W23235  33.172  40.447   2.845
50921W        W23236  11.813  29.943  12.717
50922W        W23237  11.352   3.958   1.828
50923W        W23238  39.528  32.885   1.842
50924W        W23239  31.024  10.319   1.825
50925W        W23240  44.289   1.789   4.128
50926W        W23241   4.673  29.760  13.423
50927W        W23242  36.899   7.224   4.080
50928W        W23243  17.141  19.945   2.096
50929W        W23244   5.461  25.097  12.520
50930W        W23245  38.252  20.167  14.406
50931W        W23246  23.422  31.696   5.057
50932W        W23247  21.008  27.411   5.087
50933W        W23248  30.880  34.869   3.337
50934W        W23249  38.789  28.924   3.254
50935W        W23250  26.062  19.801   0.835
50936W        W23251  30.599  42.411  14.795
50937W        W23252  37.926  36.105  10.719
50938W        W23253  33.906   0.645  14.999
50939W        W23254  28.470  19.114   4.542
50940W        W23255  41.848   6.333  10.399
50941W        W23256  38.123  29.890   0.793
50942W        W23257   9.872   8.155  11.063
50943W        W23258   0.929   2.799  14.054
50944W        W23259   2.379  27.162  12.608
50945W        W23260   5.316  35.133  13.766
50946W        W23261  15.164  41.861   2.805
50947W        W23262  11.065  26.694  10.286
50948W        W23263   2.957   8.617  14.389
50949W        W23264  28.539   6.586  14.903
50950W        W23265   1.384  35.753   9.882
50951W        W23266  21.673  22.033  11.406
50952W        W23267  44.296   8.242  13.044
50953W        W23268   4.777  43.043   3.627
50954W        W23269  21.772  13.226  12.386
50955W        W23270  38.059  19.799   1.855
50956W        W23271  10.753   9.465   1.454
50957W        W23272   7.659  15.650   1.347
50958W        W23273   6.946  10.361   4.267
50959W        W23274  20.466  21.140   2.470
50960W        W23275   1.245  33.977  12.636
50961W        W23276  36.129  26.015   1.474
50962W        W23277   6.419  14.169   0.919
50963W        W23278  28.483  12.560   5.034
50964W        W23279   0.723  44.952  14.304
50965W        W23280  36.965  11.666   4.587
50966W        W23281  30.511  27.147   2.678
50967W        W23282  20.076  41.351  11.126
50968W        W23283  29.530  42.733   4.988
50969W        W23284  29.222  33.355   2.838
50970W        W23285  11.892  26.573  12.454
50971W        W23286  10.558  18.556   3.372
50972W        W23287   7.965  27.572   2.138
50973W        W23288  26.516  35.411   3.896
50974W        W23289  25.484  44.068   1.259
50975W        W23290  39.220  12.322  11.182
50976W        W23291   1.404  12.572   1.421
50977W        W23292   5.404  39.436   0.645
50978W        W23293  22.921  43.840  13.805
50979W        W23294  43.985  14.876  10.495
50980W        W23295  25.875  32.598   1.167
50981W        W23296  22.731  43.888  14.717
50982W        W23297  43.735  21.424   0.010
50983W        W23298   2.696  40.962   0.396
50984W        W23299  24.428  38.373   1.713
50985W        W23300  34.916  33.409   0.737
50986W        W23301  13.779   4.578   2.906
50987W        W23302  19.323  17.307  13.455
50988W        W23303  23.096   1.812  12.951
50989W        W23304  16.348   9.890  14.313
50990W        W23305   8.191  26.170   0.247
50991W        W23306   9.957  12.401  11.610
50992W        W23307   2.898   6.231   0.380
50993W        W23308  16.280  12.348   0.023
50994W        W23309  11.611  11.385   1.243
50995W        W23310  33.082  14.476   3.113
50996W        W23311  10.793  32.509  13.099
50997W        W23312   7.652  33.667   3.164
50998W        W23313  44.345  11.360   2.172
50999W        W23314  13.118  43.403  11.952
51000W        W23315   2.943  32.100  10.270
51001W        W23316  26.653  31.224  13.118
51002W        W23317  27.845   1.413   3.491
51003W        W23318  41.145   5.305  11.773
51004W        W23319  21.108  43.481   3.698
51005W        W23320  17.517  41.044  13.391
51006W        W23321   1.338  33.546  12.349
51007W        W23322  15.066  16.209   4.061
51008W        W23323  33.293   5.195   3.793
51009W        W23324  13.842  21.511   2.425
51010W        W23325  16.440   6.539  13.000
51011W        W23326  22.398  39.744  12.372
51012W        W23327   6.640  27.614   4.035
51013W        W23328   6.976  40.860  13.434
51014W        W23329  18.416  13.534   0.408
51015W        W23330  19.013  40.908  10.609
51016W        W23331  10.264  17.260   1.121
51017W        W23332   9.454  12.106   2.209
51018W        W23333   5.963  32.522   0.848
51019W        W23334  11.652   2.288  14.826
51020W        W23335  21.132  16.287  11.138
51021W        W23336  35.203  37.441   3.157
51022W        W23337  41.454  40.074   4.517
51023W        W23338  26.312  37.945   1.704
51024W        W23339  42.896  20.458   1.005
51025W        W23340  20.240  26.908   3.727
51026W        W23341  40.853  21.767  11.211
51027W        W23342   0.918  33.020  10.113
51028W        W23343  24.382   1.479  13.981
51029W        W23344  29.145   5.425  14.264
51030W        W23345  22.195   0.481   3.543
51031W        W23346   9.773  12.346   0.942
51032W        W23347  24.588   7.835  12.080
51033W        W23348  11.438  33.012   2.301
51034W        W23349  16.741  43.451   2.273
51035W        W23350  40.972   6.728   4.544
51036W        W23351  43.757  17.334   3.078
51037W        W23352   7.615   4.797  13.028
51038W        W23353   9.646   3.722  14.967
51039W        W23354  24.427  36.616  11.703
51040W        W23355   9.343  42.099   2.137
51041W        W23356  16.748  37.234  11.553
51042W        W23357   5.761  39.978  14.373
51043W        W23358  42.942  30.243  11.548
51044W        W23359  34.571  12.254   4.607
51045W        W23360   4.294  43.467  12.417
51046W        W23361  33.501  32.136  12.877
51047W        W23362  17.504  31.019   3.361
51048W        W23363  25.028   9.386   2.222
51049W        W23364   4.333  28.575  14.319
51050W        W23365  39.557  25.149   1.235
51051W        W23366  40.457  42.267   2.302
51052W        W23367  27.929  39.365   3.667
51053W        W23368   5.935  19.783   3.794
51054W        W23369  35.524  20.166  13.574
51055W        W23370   4.577  23.424   3.326
51056W        W23371  34.354  36.082  11.995
51057W        W23372  44.142  11.692  11.936
51058W        W23373   0.695  28.751  10.132
51059W        W23374  22.433  40.528   4.621
51060W        W23375  38.786  32.399  10.432
51061W        W23376  29.397  40.346  12.098
51062W        W23377   8.645   8.332  11.696
51063W        W23378  30.376  16.021   0.755
51064W        W23379  21.212  16.313  14.438
51065W        W23380  24.988  14.679   4.846
51066W        W23381  17.671  43.010  10.688
51067W        W23382  12.923  41.845  13.222
51068W        W23383   7.675  32.645  12.898
51069W        W23384  39.389  32.378   1.822
51070W        W23385  10.296  16.232   0.773
51071W        W23386  20.824  33.067  12.733
51072W        W23387  18.808  41.564   3.571
51073W        W23388  13.157  41.591   4.069
51074W        W23389  37.931   8.777   4.584
51075W        W23390   9.944  11.780  12.904
51076W        W23391   4.360   0.493   4.553
51077W        W23392  14.825  26.796   3.803
51078W        W23393  22.456   6.383  13.468
51079W        W23394  34.921   8.464   1.052
51080W        W23395  21.340  17.620  13.816
51081W        W23396  37.477  10.764   4.679
51082W        W23397  33.162  22.162   2.840
51083W        W23398  24.568  35.365   2.601
51084W        W23399  44.063  27.942  11.566
51085W        W23400  29.486  30.089  13.973
51086W        W23401  18.318  20.639   4.433
51087W        W23402  28.679   8.776  11.537
51088W        W23403   1.833  36.185   4.089
51089W        W23404  20.035  12.305   3.642
51090W        W23405   7.893  16.273   2.328
51091W        W23406  15.403   0.877   2.845
51092W        W23407   4.485  22.537  13.961
51093W        W23408  40.516   0.387  13.692
51094W        W23409  17.254  37.375  11.631
51095W        W23410  24.691   6.147   2.285
51096W        W23411  20.217  19.085  12.781
51097W        W23412  34.423   7.218   1.694
51098W        W23413  42.870  28.123   2.151
51099W        W23414  21.065  25.089  12.613
51100W        W23415  13.766  19.585   2.810
51101W        W23416  32.713  24.589   4.750
51102W        W23417   6.464  10.267   2.328
51103W        W23418  20.037  39.891   5.061
51104W        W23419  41.296  40.236  12.483
51105W        W23420  35.619  24.204  14.854
51106W        W23421   2.118   1.979   4.102
51107W        W23422  21.109   8.659  10.646
51108W        W23423  20.925   2.897   3.782
51109W        W23424  20.548  37.376   4.597
51110W        W23425  41.430  23.130   3.246
51111W        W23426  18.105   4.601  11.551
51112W        W23427   6.802  31.759  10.700
51113W        W23428  41.232   4.739   1.977
51114W        W23429  24.205  20.484   2.388
51115W        W23430  20.744  34.278  14.960
51116W        W23431   6.986  31.107  14.918
51117W        W23432  20.156   1.400  12.332
51118W        W23433  37.310   6.904  10.700
51119W        W23434   8.995  21.120   1.629
51120W        W23435  19.876  42.468  10.561
51121W        W23436  36.832  33.142  10.726
51122W        W23437  12.602  24.464   3.682
51123W        W23438  27.115  12.236   3.704
51124W        W23439  18.588  21.054  11.248
51125W        W23440   1.402  11.326   5.009
51126W        W23441  39.246  10.822   1.963
51127W        W23442  41.306  39.541   0.754
51128W        W23443   6.970   6.627   1.325
51129W        W23444  33.407   6.375  10.113
51130W        W23445  31.519  29.239   1.921
51131W        W23446   2.888  24.172  10.900
51132W        W23447  10.368  32.641  12.500
51133W        W23448   5.262  32.837  13.926
51134W        W23449  41.253  42.944   1.288
51135W        W23450  24.494   1.527   3.822
51136W        W23451   8.690  35.473   1.701
51137W        W23452  20.966  21.749   4.630
51138W        W23453  29.334  25.116   3.825
51139W        W23454  22.793   4.968   0.226
51140W        W23455  42.011  40.302  12.054
51141W        W23456  13.322  30.922   0.259
51142W        W23457  11.599  41.053   3.140
51143W        W23458  13.089   1.028   0.204
51144W        W23459   5.285  18.758   1.770
51145W        W23460  32.153  15.826  11.604
51146W        W23461  24.169   2.007   0.743
51147W        W23462   4.949   6.221   4.984
51148W        W23463  34.518  35.826  13.469
51149W        W23464  35.417  33.855  14.485
51150W        W23465  19.471  17.131   4.955
51151W        W23466  18.664  21.613   0.296
51152W        W23467  34.908  29.599  10.170
51153W        W23468  26.747   8.146  12.686
51154W        W23469  44.672  11.988  13.374
51155W        W23470  13.133  17.861   0.439
51156W        W23471  27.607  16.553  14.149
51157W        W23472  42.503   5.683  12.944
51158W        W23473  32.010   5.137   3.775
51159W        W23474  29.118  32.654  10.161
51160W        W23475  36.298  32.385   4.173
51161W        W23476  22.066  26.457  13.953
51162W        W23477  16.595   4.829   4.896
51163W        W23478  17.544  31.531  11.164
51164W        W23479  17.085  31.738  10.990
51165W        W23480  18.535  38.312  12.769
51166W        W23481  32.990  27.126   0.293
51167W        W23482  32.856  15.226  14.183
51168W        W23483  41.348   6.976   3.931
51169W        W23484  24.464  18.990   0.342
51170W        W23485  34.831  24.685  14.850
51171W        W23486  22.298  26.055   3.337
51172W        W23487  10.599   9.976  11.627
51173W        W23488  13.672   0.453   1.825
51174W        W23489  19.799  43.491  11.557
51175W        W23490  27.169   8.362  12.511
51176W        W23491   3.946  29.146   1.189
51177W        W23492  17.851  18.595   1.418
51178W        W23493  18.133  24.438  11.720
51179W        W23494  23.823  38.536  13.425
51180W        W23495   0.859  21.173   3.610
51181W        W23496  40.705   0.414   1.363
51182W        W23497  33.927  21.545  10.580
51183W        W23498  28.089  44.190   2.090
51184W        W23499  44.354   0.951   4.630
51185W        W23500  34.559   2.310  13.367
51186W        W23501   7.342  28.420  10.676
51187W        W23502  20.127  26.588   2.793
51188W        W23503  17.214  23.494   0.351
51189W        W23504  21.477  15.153  10.622
51190W        W23505  14.272  27.354   4.100
51191W        W23506  39.515   1.926  14.909
51192W        W23507  40.374   7.209   5.443
51193W        W23508  31.841  25.646   5.105
51194W        W23509  10.851   0.478  12.547
51195W        W23510  41.869  32.079  13.243
51196W        W23511  24.643  33.239   2.391
51197W        W23512   7.997  30.432   0.579
51198W        W23513  28.175  29.544   4.481
51199W        W23514   4.657  32.995  12.333
51200W        W23515  33.696  39.463   4.181
51201W        W23516  24.390  37.913   2.890
51202W        W23517  16.491  33.036  11.634
51203W        W23518  28.708  33.340   0.343
51204W        W23519   9.001  28.483  10.591
51205W        W23520   8.789  43.785  10.919
51206W        W23521   0.922  26.961   1.756
51207W        W23522  25.486   3.582   3.791
51208W        W23523  10.297  37.395   3.636
51209W        W23524   8.801  30.734   3.280
51210W        W23525  36.674  12.912  13.067
51211W        W23526  32.958   5.171  13.336
51212W        W23527  22.660  27.420   4.478
51213W        W23528  17.163  38.108   4.630
51214W        W23529   3.941  16.101   3.611
51215W        W23530   3.790   3.969  11.562
51216W        W23531  38.686  39.464   4.673
51217W        W23532   0.954  30.606   1.635
51218W        W23533  25.248  12.338   2.035
51219W        W23534  41.248   3.365  11.207
51220W        W23535  20.374   7.944   0.330
51221W        W23536  37.992  17.438  12.537
51222W        W23537  24.358  22.074   2.171
51223W        W23538  39.476   8.349   0.381
51224W        W23539   5.864  34.660   4.708
51225W        W23540  14.640  24.551   1.549
51226W        W23541  21.794  35.605  10.963
51227W        W23542  11.591  11.175  10.702
51228W        W23543   1.722   9.967   2.715
51229W        W23544   7.774   3.156  12.586
51230W        W23545   3.386  15.062  13.834
51231W        W23546  44.375  25.714   3.938
51232W        W23547  38.585  43.545  14.879
51233W        W23548  29.393  33.802  14.992
51234W        W23549  41.415  38.204  14.987
51235W        W23550  26.605  36.535   0.209
51236W        W23551   9.357  17.190  14.537
51237W        W23552  23.234  19.979  12.434
51238W        W23553   2.459  11.985   0.843
51239W        W23554  43.461  17.950  10.647
51240W        W23555  12.790  19.246   4.204
51241W        W23556  42.301  33.082   2.339
51242W        W23557  14.164  14.138  13.707
51243W        W23558  34.918  13.568   1.831
51244W        W23559  12.279  28.047   3.663
51245W        W23560  14.019  10.163  14.538
51246W        W23561   0.301  13.062   5.083
51247W        W23562  43.025  13.620   1.437
51248W        W23563  15.180   1.909   0.657
51249W        W23564   6.956  34.121   2.248
51250W        W23565   5.890  29.009   4.712
51251W        W23566  22.743  44.049   1.283
51252W        W23567  10.224  29.533  12.104
51253W        W23568  34.433   0.490   1.243
51254W        W23569  31.546  15.142  10.897
51255W        W23570  19.506   8.665   3.427
51256W        W23571  30.666  41.014  11.636
51257W        W23572  42.887  22.179   1.657
51258W        W23573  23.607  30.123   3.341
51259W        W23574  20.149  31.332   1.342
51260W        W23575   3.388  31.849   3.787
51261W        W23576   7.148  32.412   2.242
51262W        W23577  31.424  39.235  13.041
51263W        W23578  40.882   6.992   2.378
51264W        W23579  43.690  42.486  12.461
51265W        W23580   8.799  37.023  14.094
51266W        W23581  26.159  15.709  13.838
51267W        W23582  36.348   1.001  13.791
51268W        W23583  40.014  16.121  10.655
51269W        W23584  32.474  15.984   0.218
51270W        W23585  35.309  15.932   4.802
51271W        W23586  32.938  34.220   3.365
51272W        W23587   2.539  33.785   4.219
51273W        W23588  34.389   3.411   3.644
51274W        W23589  12.694  19.091  13.933
51275W        W23590  12.194   1.948  11.855
51276W        W23591  18.864  15.564   2.919
51277W        W23592  27.405  41.844  14.183
51278W        W23593  42.314  42.002  11.987
51279W        W23594   8.775  20.950  14.776
51280W        W23595   3.171   4.590  11.997
51281W        W23596  19.112  44.469  12.648
51282W        W23597  29.237  14.569   1.342
51283W        W23598  41.765   2.496  12.280
51284W        W23599  16.350  39.542  10.354
51285W        W23600   2.454  30.165  12.516
51286W        W23601  15.783  32.574   4.424
51287W        W23602  23.969  28.162   0.531
51288W        W23603  42.955  19.686  14.190
51289W        W23604  30.952   2.289  12.030
51290W        W23605  19.298  32.576  14.342
51291W        W23606  18.520  27.117   2.309
51292W        W23607  44.903  16.764  11.837
51293W        W23608  27.577  18.783  14.723
51294W        W23609  15.753  26.675  13.914
51295W        W23610   6.436  18.618   1.886
51296W        W23611   9.287   9.366   1.714
51297W        W23612  13.406   5.930   2.670
51298W        W23613  25.299  20.735  12.632
51299W        W23614   2.883  28.704  13.837
51300W        W23615  40.302  22.557   2.891
51301W        W23616  31.888   9.232   1.267
51302W        W23617  27.404  37.911   0.162
51303W        W23618   6.793  27.970   4.907
51304W        W23619   7.373  25.670   1.456
51305W        W23620  34.281  15.557  13.852
51306W        W23621  28.192  40.366   1.994
51307W        W23622  17.480   7.465   2.844
51308W        W23623   5.234  19.794   3.213
51309W        W23624  39.576  25.068  11.529
51310W        W23625  21.051   7.111   4.489
51311W        W23626  29.167  13.105  14.087
51312W        W23627   0.769   3.230   3.860
51313W        W23628  18.056   3.339  14.945
51314W        W23629  40.176   3.410  11.072
51315W        W23630  33.360  21.040   0.078
51316W        W23631   8.239   3.234  13.796
51317W        W23632  18.284  40.001  13.816
51318W        W23633  24.078  12.593   3.176
51319W        W23634  12.281  14.461  12.704
51320W        W23635  16.714   1.975   4.271
51321W        W23636   8.975  40.858   4.234
51322W        W23637  29.565  19.241  10.734
51323W        W23638  20.188  26.591   0.861
51324W        W23639  31.537  35.649   4.084
51325W        W23640  28.573  16.357   0.350
51326W        W23641   9.903   8.273  14.771
51327W        W23642  40.760  39.467   4.216
51328W        W23643  20.212   8.998  14.560
51329W        W23644  20.430  23.913  14.242
51330W        W23645   5.346   7.679   3.349
51331W        W23646   2.946  33.364  11.497
51332W        W23647  14.766   8.112   4.444
51333W        W23648  30.542   5.265   4.148
51334W        W23649  26.539   2.524  11.921
51335W        W23650  15.390  19.639   2.289
51336W        W23651   0.916  23.100  11.987
51337W        W23652  24.210   5.426   2.237
51338W        W23653   7.364   7.802   0.419
51339W        W23654  37.908  25.206  11.125
51340W        W23655  41.845  12.067  10.580
51341W        W23656   5.931   0.716  13.909
51342W        W23657   8.306  29.557  13.937
51343W        W23658  31.556   5.761  13.153
51344W        W23659  15.343   8.880   0.778
51345W        W23660  15.070  19.523  12.679
51346W        W23661   1.082  37.367   3.774
51347W        W23662  33.623  30.362  10.086
51348W        W23663  17.054  41.481   1.880
51349W        W23664  33.195  42.765   4.651
51350W        W23665  41.423  19.950   3.232
51351W        W23666  37.534  12.629   4.048
51352W        W23667  20.243  43.077  12.776
51353W        W23668  22.807  10.640   2.355
51354W        W23669   5.457  38.833   4.021
51355W        W23670  17.154  23.982   4.247
51356W        W23671   9.887  35.547   1.319
51357W        W23672   9.594  14.178  11.654
51358W        W23673  12.564  31.969  14.818
51359W        W23674  17.007  37.840  11.590
51360W        W23675  14.294   9.582  11.116
51361W        W23676  33.022  16.978  10.386
51362W        W23677  31.391  14.854   3.035
51363W        W23678  23.192  23.546  10.479
51364W        W23679  20.833  10.361   1.240
51365W        W23680   1.334  34.560   4.609
51366W        W23681  39.557  31.335  12.398
51367W        W23682  26.003  27.514   4.515
51368W        W23683  19.227  41.292   3.768
51369W        W23684  10.271  42.040   2.338
51370W        W23685  20.191  36.553   1.406
51371W        W23686   3.333   6.547   1.834
51372W        W23687  19.337  15.887  12.677
51373W        W23688  16.231  28.006   1.631
51374W        W23689  18.172  40.591  11.073
51375W        W23690  38.867  28.138   0.433
51376W        W23691  37.698  36.748   0.282
51377W        W23692  42.925  30.388   2.631
51378W        W23693  24.703   0.808  10.646
51379W        W23694  27.545  10.119  12.486
51380W        W23695  36.453  16.412  11.875
51381W        W23696   8.257  12.784   1.790
51382W        W23697   5.381  37.544  14.764
51383W        W23698  17.026  43.472   0.245
51384W        W23699  21.568  35.004   0.995
51385W        W23700  20.255  40.823   4.231
51386W        W23701   7.419  30.519   2.586
51387W        W23702  31.711  44.258   2.310
51388W        W23703  25.200  31.541   2.907
51389W        W23704   5.545   4.828  11.012
51390W        W23705  42.926   2.552   1.459
51391W        W23706  27.677  16.338   1.258
51392W        W23707   4.210  13.106   2.359
51393W        W23708  24.644   7.936   0.843
51394W        W23709  19.703   2.672   0.775
51395W        W23710  12.650  16.224  10.605
51396W        W23711  34.922  20.713  12.693
51397W        W23712  22.552   1.934   4.676
51398W        W23713  35.141  42.482   3.297
51399W        W23714  35.456  36.883   1.037
51400W        W23715   5.592  39.108  14.298
51401W        W23716   7.270  20.120  13.090
51402W        W23717  39.915  17.358  14.570
51403W        W23718  17.608  40.442  13.938
51404W        W23719  24.520  37.459   1.357
51405W        W23720  42.950  33.158  12.340
51406W        W23721  16.571  27.734   3.769
51407W        W23722  41.956   8.748   0.971
51408W        W23723  20.269  42.719  14.651
51409W        W23724   2.817  12.104   3.351
51410W        W23725  27.665  40.747  14.813
51411W        W23726  41.906  40.216   4.338
51412W        W23727   6.410  15.580   2.031
51413W        W23728  26.115  26.875  13.672
51414W        W23729  15.832  36.238  14.226
51415W        W23730  16.673  30.530  12.585
51416W        W23731  42.583  36.423   2.204
51417W        W23732  14.901   6.733  13.937
51418W        W23733  43.699  16.314  13.824
51419W        W23734  16.860   8.660  10.282
51420W        W23735  34.110  42.798   1.794
51421W        W23736  28.437   6.716   3.341
51422W        W23737   7.235   6.331  14.362
51423W        W23738  17.649  41.368   0.089
51424W        W23739   4.775  44.753  13.092
51425W        W23740  32.051  27.034   4.401
51426W        W23741  32.018  25.961   0.029
51427W        W23742  39.721   0.387   4.071
51428W        W23743   4.031  28.067  12.051
51429W        W23744  23.388  40.431  14.856
51430W        W23745   9.870   5.458   0.719
51431W        W23746   9.739   2.854  11.994
51432W        W23747  16.782  17.433  11.259
51433W        W23748  13.073  28.077  12.736
51434W        W23749  12.911  35.880   4.865
51435W        W23750  40.452   1.670  14.546
51436W        W23751   0.704   3.588   4.753
51437W        W23752  15.599   3.714  14.423
51438W        W23753  36.356   2.531  12.972
51439W        W23754  44.993  39.454   3.229
51440W        W23755   0.916  22.303  14.803
51441W        W23756  28.142  14.740  10.849
51442W        W23757   7.617  24.610  13.226
51443W        W23758   5.346  25.450  10.717
51444W        W23759  30.878  12.789   1.231
51445W        W23760  31.108  37.887  14.086
51446W        W23761  34.010  42.175   2.968
51447W        W23762  40.326  17.279  11.123
51448W        W23763  38.780  23.726   1.007
51449W        W23764  43.731  15.227  14.754
51450W        W23765  25.216  36.476  12.921
51451W        W23766   3.332  18.585  14.092
51452W        W23767  27.987  41.986   4.367
51453W        W23768  42.763  29.669  13.427
51454W        W23769  19.332  28.744  11.094
51455W        W23770  13.143  43.853  14.105
51456W        W23771  31.665  31.116  13.401
51457W        W23772  38.604  22.069  12.993
51458W        W23773  18.315  21.692   3.704
51459W        W23774  33.444  35.970   2.703
51460W        W23775   0.009  36.639   5.117
51461W        W23776  26.149  12.236  12.366
51462W        W23777  20.146  25.761   1.147
51463W        W23778  10.776  38.502   4.224
51464W        W23779  13.525  23.515   4.162
51465W        W23780  11.422  37.858  12.175
51466W        W23781  11.772  32.163   3.703
51467W        W23782  41.368   5.985  12.899
51468W        W23783  13.082   4.304  12.105
51469W        W23784  36.876   6.220  14.950
51470W        W23785  28.612  16.682  12.880
51471W        W23786   7.347  43.969   3.441
51472W        W23787  25.015  22.948  12.518
51473W        W23788   6.767  41.903  11.128
51474W        W23789  18.613   1.777  10.856
51475W        W23790  40.257  41.027   3.276
51476W        W23791  30.726  23.153  12.357
51477W        W23792  24.734   4.295  12.205
51478W        W23793   4.637  30.067   0.281
51479W        W23794  42.896  38.421  12.062
51480W        W23795  29.117  27.020   2.721
51481W        W23796  16.651   2.631  14.919
51482W        W23797  15.090  36.303  11.233
51483W        W23798  27.723  25.460   4.359
51484W        W23799  38.141   5.715   1.169
51485W        W23800  37.503   6.924  12.507
51486W        W23801  23.625  22.909  10.056
51487W        W23802   9.866   5.483   3.689
51488W        W23803  17.087  35.973   3.446
51489W        W23804  15.185   2.170  10.463
51490W        W23805  33.955  42.300   0.349
51491W        W23806  22.683  41.296  10.385
51492W        W23807  12.738  32.373   2.021
51493W        W23808  12.587   6.193  14.051
51494W        W23809  38.519   4.200  12.456
51495W        W23810  13.361   4.809  13.345
51496W        W23811  39.430  41.437  10.818
51497W        W23812   9.090  22.789  11.026
51498W        W23813  17.059  15.861  12.724
51499W        W23814  36.159  44.547   1.356
51500W        W23815  34.154  23.045  13.362
51501W        W23816  14.788  26.857  12.473
51502W        W23817  35.213  44.443   0.897
51503W        W23818   0.724  41.056   2.370
51504W        W23819  42.178  27.181  12.356
51505W        W23820  39.861  39.306  13.482
51506W        W23821  15.548  30.197  13.509
51507W        W23822  12.088  24.226   2.313
51508W        W23823   0.316   8.204   0.873
51509W        W23824  21.589  19.230  11.959
51510W        W23825  34.599  43.392   0.721
51511W        W23826  43.534  44.966  13.962
51512W        W23827  41.815  13.071  14.059
51513W        W23828  24.154  21.484  11.120
51514W        W23829   4.832  36.936   2.376
51515W        W23830   2.234  32.885  11.171
51516W        W23831  13.637  43.913  14.969
51517W        W23832   9.365  28.842  10.771
51518W        W23833  13.766  17.632  10.665
51519W        W23834  39.428  15.003   4.288
51520W        W23835  35.736  12.769  10.674
51521W        W23836   5.406  15.871  11.148
51522W        W23837  44.456  19.126   1.441
51523W        W23838  28.222  34.180   0.912
51524W        W23839  36.239  32.155  12.994
51525W        W23840  37.552  30.489  14.312
51526W        W23841  20.471  18.551   2.682
51527W        W23842  11.626  29.480   1.339
51528W        W23843  18.442   7.297   2.748
51529W        W23844   8.803  17.163   2.380
51530W        W23845  37.954  33.010  12.877
51531W        W23846  26.052   1.947  11.726
51532W        W23847  12.316   8.365  14.784
51533W        W23848  22.079  38.403  10.702
51534W        W23849  14.183  20.748   0.835
51535W        W23850  35.386  13.086  13.488
51536W        W23851  30.924  43.247   4.652
51537W        W23852  31.538  23.755  11.270
51538W        W23853  22.594  30.428   1.663
51539W        W23854  28.752  39.782   1.655
51540W        W23855   0.911  34.514   0.775
51541W        W23856   3.019  27.576   0.460
51542W        W23857  28.916  28.113   2.054
51543W        W23858  43.470  33.609   0.363
51544W        W23859   6.688   6.194   2.770
51545W        W23860  40.704  40.344   3.665
51546W        W23861   7.694  39.246  13.698
51547W        W23862  39.330   0.751   4.100
51548W        W23863  43.246   4.844  14.427
51549W        W23864   7.225   2.875   3.626
51550W        W23865  26.561  14.402   1.639
51551W        W23866  36.819  11.245   2.331
51552W        W23867  44.404  20.272  14.450
51553W        W23868   6.195  42.278  13.963
51554W        W23869  30.806   6.783   4.014
51555W        W23870  15.173   8.085  12.549
51556W        W23871   8.323  27.459  14.505
51557W        W23872  32.007  19.999   4.725
51558W        W23873  40.244  14.748   0.924
51559W        W23874  34.646  11.646  14.954
51560W        W23875   3.362   4.145  13.578
51561W        W23876  21.692  37.638  14.227
51562W        W23877   7.283  23.066  14.699
51563W        W23878  20.710  33.341   2.249
51564W        W23879  32.977  24.889   2.444
51565W        W23880  15.805  27.918   4.332
51566W        W23881  13.610   3.753  11.689
51567W        W23882  39.041  10.800  14.566
51568W        W23883   0.103  30.123   4.799
51569W        W23884  25.428  32.493  13.943
51570W        W23885  18.526  11.367  10.008
51571W        W23886  39.475   7.423  12.455
51572W        W23887  29.132  34.467  12.793
51573W        W23888  18.720  38.547   2.893
51574W        W23889  41.311  35.111   1.399
51575W        W23890  37.875  40.026   0.992
51576W        W23891  30.562  35.423   1.281
51577W        W23892  37.559  14.140  14.516
51578W        W23893   0.258  18.412   0.308
51579W        W23894  44.981  23.318  11.156
51580W        W23895  33.086  28.102  12.863
51581W        W23896   7.027  27.570  10.733
51582W        W23897  29.456   9.874  10.665
51583W        W23898  10.660   3.844  11.183
51584W        W23899  41.127  17.621  11.151
51585W        W23900   2.398  22.287  12.088
51586W        W23901  14.076   0.756   4.137
51587W        W23902  36.859  39.770  13.341
51588W        W23903   1.405  19.733  10.326
51589W        W23904  37.808   3.227  14.869
51590W        W23905  33.526  26.768   9.826
51591W        W23906   7.024   8.353   2.876
51592W        W23907  20.660  32.548   1.780
51593W        W23908  28.496   3.610   1.831
51594W        W23909  34.469  43.884   3.823
51595W        W23910  11.189  34.981   0.065
51596W        W23911   5.978  22.516  13.027
51597W        W23912   0.574  27.473  12.806
51598W        W23913  21.492   4.033   3.314
51599W        W23914   9.755   9.188  11.056
51600W        W23915  24.179  33.862  14.961
51601W        W23916  13.696  36.171   2.249
51602W        W23917  39.329  30.655   2.799
51603W        W23918  11.055  22.054  12.447
51604W        W23919   0.003  37.469  12.353
51605W        W23920  15.230  22.735  12.392
51606W        W23921  11.001   7.311  14.903
51607W        W23922  42.513  26.973  11.029
51608W        W23923  26.148   6.128  13.267
51609W        W23924  24.345  41.325   2.692
51610W        W23925  11.203  16.858   1.370
51611W        W23926  32.915  33.378   3.842
51612W        W23927  36.367  43.781  13.358
51613W        W23928  18.855  19.781   0.969
51614W        W23929   1.853   7.435  14.464
51615W        W23930   4.763  38.367  13.818
51616W        W23931  38.883  35.139  13.080
51617W        W23932  37.066   2.013   4.192
51618W        W23933  43.798  41.602  14.365
51619W        W23934  13.682  23.250   0.239
51620W        W23935  16.761  30.467   1.326
51621W        W23936  17.069  17.095   1.670
51622W        W23937   0.201   4.740  13.271
51623W        W23938   4.230   8.823  13.843
51624W        W23939   2.214  31.032  10.750
51625W        W23940  18.277  25.535   4.533
51626W        W23941  42.258  30.689  12.520
51627W        W23942   5.460   5.097   0.944
51628W        W23943   2.117  43.978  14.050
51629W        W23944   0.864  27.490   1.769
51630W        W23945   0.699  36.640  10.613
51631W        W23946  16.953  22.558  10.082
51632W        W23947   2.836   6.288   4.480
51633W        W23948  16.173   9.945  13.311
51634W        W23949   9.984  20.991  11.367
51635W        W23950  32.909  15.312   3.373
51636W        W23951   9.377   4.924   0.950
51637W        W23952  11.340  25.693   3.789
51638W        W23953  40.507  33.946   3.743
51639W        W23954  34.414   7.798   2.238
51640W        W23955  26.685  18.199   1.324
51641W        W23956   0.553   9.866  13.298
51642W        W23957  32.632  22.033   1.940
51643W        W23958  12.037  11.401  11.418
51644W        W23959  36.250  33.903   2.400
51645W        W23960  23.006   2.361  12.100
51646W        W23961  38.152   1.907   4.166
51647W        W23962   9.390  30.623  10.767
51648W        W23963  29.858  30.999  14.947
51649W        W23964  37.178  29.824  10.585
51650W        W23965  16.673  40.550   3.585
51651W        W23966  34.701   0.886   4.429
51652W        W23967  13.698  38.564   3.724
51653W        W23968   1.974  10.910  14.834
51654W        W23969  13.536   2.322   2.679
51655W        W23970  17.944  23.962   2.281
51656W        W23971  29.837   3.459  13.528
51657W        W23972   8.190  13.890  11.592
51658W        W23973  14.695  21.168  11.889
51659W        W23974  11.587  36.425   1.454
51660W        W23975  39.806   2.381   1.705
51661W        W23976  15.244  25.881  13.343
51662W        W23977  11.104   1.259   4.538
51663W        W23978  11.942   3.237   5.127
51664W        W23979  23.441  27.449  10.683
51665W        W23980   7.007   8.880   4.279
51666W        W23981  33.395   7.684   5.064
51667W        W23982  15.347  31.474  13.757
51668W        W23983   1.855  19.226   4.262
51669W        W23984  34.219  12.223  10.698
51670W        W23985  21.757  28.909  12.060
51671W        W23986   9.784  33.564   4.650
51672W        W23987  26.555  15.521   3.735
51673W        W23988  15.347  10.189   3.598
51674W        W23989  12.608   9.898  12.319
51675W        W23990  30.384  17.078   3.780
51676W        W23991   0.165  14.766  11.660
51677W        W23992  31.018  35.455   4.730
51678W        W23993  31.583  23.738   1.654
51679W        W23994  17.579  30.680  14.408
51680W        W23995   4.743  37.558   0.333
51681W        W23996  41.137  26.707   0.855
51682W        W23997  35.508  27.579  12.464
51683W        W23998  28.718  42.809  12.948
51684W        W23999  16.093  42.836   2.380
51685W        W24000   7.680  31.667  10.383
51686W        W24001   6.701  26.059   4.381
51687W        W24002  37.354  18.494   4.380
51688W        W24003  29.373  36.363  10.619
51689W        W24004  35.209   8.037   0.854
51690W        W24005  11.429  10.820   4.541
51691W        W24006  24.226  29.067   1.809
51692W        W24007  10.259  41.050  11.009
51693W        W24008  44.085   9.923  12.432
51694W        W24009   4.465  16.215   3.690
51695W        W24010  28.319  13.544   1.626
51696W        W24011  12.400   7.681   3.654
51697W        W24012  28.738  28.120   4.197
51698W        W24013   7.965  15.841  13.858
51699W        W24014  17.975  39.381   2.902
51700W        W24015  16.369  32.452  13.722
51701W        W24016  24.211  10.417   1.306
51702W        W24017  15.164  33.550   3.614
51703W        W24018   1.916   5.961   0.464
51704W        W24019  32.809  39.561   0.484
51705W        W24020  23.171  14.279   4.558
51706W        W24021  35.052  43.956  12.555
51707W        W24022   7.637  35.403   3.302
51708W        W24023  28.724   2.302   4.182
51709W        W24024  32.684   4.260  12.409
51710W        W24025  39.042  25.691   4.130
51711W        W24026  32.383  24.399   0.808
51712W        W24027  10.615  36.080   0.541
51713W        W24028  25.990  43.275  11.121
51714W        W24029   8.327   6.145  13.724
51715W        W24030  26.912   6.710  11.532
51716W        W24031  38.932  11.858   3.118
51717W        W24032  16.443  16.524  14.428
51718W        W24033  24.632  19.552   3.196
51719W        W24034   7.751  41.116  12.979
51720W        W24035  11.310   0.378  14.777
51721W        W24036  39.325  36.635  14.477
51722W        W24037   8.398  28.147   3.362
51723W        W24038  27.542  26.128  12.053
51724W        W24039  37.644  37.003  11.879
51725W        W24040  20.235  15.108   3.296
51726W        W24041  26.974   5.279   3.346
51727W        W24042  32.853   3.758  10.976
51728W        W24043  28.622  27.960   2.890
51729W        W24044  41.204  17.309   3.212
51730W        W24045   9.239  18.997   4.092
51731W        W24046  11.201  13.821   2.789
51732W        W24047  22.040  18.130   1.697
51733W        W24048  20.589   9.066  10.133
51734W        W24049  16.982  16.164  11.434
51735W        W24050  11.812  22.016  12.044
51736W        W24051  14.101  44.491  11.568
51737W        W24052  23.503  30.512   1.202
51738W        W24053  43.489  40.958   1.352
51739W        W24054  38.971  26.974   3.622
51740W        W24055  21.232  38.252  14.961
51741W        W24056   9.263  26.621  12.094
51742W        W24057  15.030  17.602   3.610
51743W        W24058  17.619  18.716   4.752
51744W        W24059  15.081  41.398  14.633
51745W        W24060  14.335  40.404   5.081
51746W        W24061   4.474  23.049   2.801
51747W        W24062  26.072  21.292  12.986
51748W        W24063   7.393   4.449  11.108
51749W        W24064  19.320  20.647  11.049
51750W        W24065   2.275  14.432  11.007
51751W        W24066  29.052  13.812  14.981
51752W        W24067  22.093  38.542   1.999
51753W        W24068  34.571  19.021   1.830
51754W        W24069  14.024   9.405  12.974
51755W        W24070  25.483  16.809  12.986
51756W        W24071  31.688   5.728   4.519
51757W        W24072  21.497  31.617   4.259
51758W        W24073  41.407  32.138   2.733
51759W        W24074  19.461  24.428   3.656
51760W        W24075  43.478  13.197  12.628
51761W        W24076  21.643   7.392  10.587
51762W        W24077  10.326  12.137  13.011
51763W        W24078  18.024   5.868   2.334
51764W        W24079  40.525  17.056  11.578
51765W        W24080  40.507   2.978  11.068
51766W        W24081   3.685  43.908  10.488
51767W        W24082  20.679  29.635  14.074
51768W        W24083   8.214  40.379   1.244
51769W        W24084  28.682  16.083  13.460
51770W        W24085  17.671  29.327   2.307
51771W        W24086   6.320   0.897  11.279
51772W        W24087  21.035   2.718   0.765
51773W        W24088  43.508  19.805   3.545
51774W        W24089  12.285  36.845  14.070
51775W        W24090  24.499  28.090  11.228
51776W        W24091  18.552  11.614  13.514
51777W        W24092   6.284  44.655   1.021
51778W        W24093   6.761  22.040  11.227
51779W        W24094   9.983  11.776  12.002
51780W        W24095  29.270  26.735  11.525
51781W        W24096  40.066   1.906  14.965
51782W        W24097   3.487  17.766  11.067
51783W        W24098   2.940  41.839   0.161
51784W        W24099  13.816  37.151  14.244
51785W        W24100  39.051  33.520  14.654
51786W        W24101  22.525   6.883   4.777
51787W        W24102  39.798   5.289   0.231
51788W        W24103  24.131  21.801   9.576
51789W        W24104  20.250  40.070  14.697
51790W        W24105  11.725   6.474   1.611
51791W        W24106  24.788  24.936  13.002
51792W        W24107  26.148  42.255  14.328
51793W        W24108  26.705  32.079  14.919
51794W        W24109  37.134  19.392   0.816
51795W        W24110  42.029  43.088  11.618
51796W        W24111   8.364  39.462   1.376
51797W        W24112   2.798  21.352   4.097
51798W        W24113  24.937   3.189   2.350
51799W        W24114  16.995  29.889   4.161
51800W        W24115  20.069  14.300   1.718
51801W        W24116  35.782  12.788  12.577
51802W        W24117   5.200   8.614  10.465
51803W        W24118  43.347   7.826  10.591
51804W        W24119  30.385  16.680  12.593
51805W        W24120  34.925   3.457  14.803
51806W        W24121  14.193  19.462   3.628
51807W        W24122  33.970  28.349  12.463
51808W        W24123  14.226  33.932  11.167
51809W        W24124  33.129  28.546   4.630
51810W        W24125  26.862  34.599  11.588
51811W        W24126  10.281  20.303   3.551
51812W        W24127  18.121   8.639  10.996
51813W        W24128  26.622   4.359   1.428
51814W        W24129  40.046   8.174  13.297
51815W        W24130  38.358  43.517   2.342
51816W        W24131  12.369  30.664   2.669
51817W        W24132  11.259  10.300   3.719
51818W        W24133  10.180  24.766  12.520
51819W        W24134  24.855  28.766  11.157
51820W        W24135  20.081  15.825  11.957
51821W        W24136  25.529  29.127   1.484
51822W        W24137  35.116  17.769  12.251
51823W        W24138  43.025  16.689   4.150
51824W        W24139   0.356  23.479  12.164
51825W        W24140   3.752  20.515   1.053
51826W        W24141  36.031  23.073   4.263
51827W        W24142  24.408  23.204  14.914
51828W        W24143  26.605  18.172  11.629
51829W        W24144  44.474  23.593  12.128
51830W        W24145  22.657  16.610  12.315
51831W        W24146  16.795   5.846  12.025
51832W        W24147  24.515  17.594   2.086
51833W        W24148  37.604  38.569  12.036
51834W        W24149  36.842   8.644  10.689
51835W        W24150  42.570  17.992  13.302
51836W        W24151  13.491  43.398   4.689
51837W        W24152  33.911   5.319  13.384
51838W        W24153   8.333  27.356   1.826
51839W        W24154  43.506  16.158   3.655
51840W        W24155  36.189  33.878   3.298
51841W        W24156  31.961   7.368   1.226
51842W        W24157   7.774  17.325   5.016
51843W        W24158  15.765  42.966   3.655
51844W        W24159   6.604  14.062  12.109
51845W        W24160   8.187   1.190   0.887
51846W        W24161  21.743  35.400  12.401
51847W        W24162  40.227   0.493   2.226
51848W        W24163  36.110  40.732  11.835
51849W        W24164   2.980   1.810   4.683
51850W        W24165  11.645   9.766   3.213
51851W        W24166  23.691   7.325  12.853
51852W        W24167  29.685   4.411  12.734
51853W        W24168  22.561   5.463   4.635
51854W        W24169  17.222   6.185   4.376
51855W        W24170  21.486  34.217   2.352
51856W        W24171  23.332  10.344   3.311
51857W        W24172  24.647   1.811   2.038
51858W        W24173   8.305  39.873  10.658
51859W        W24174   1.494  28.454   4.122
51860W        W24175  22.080  14.525   2.455
51861W        W24176  16.431  16.503  12.604
51862W        W24177  28.510  18.569   3.263
51863W        W24178  21.012  12.582  13.355
51864W        W24179  11.939  24.183   0.332
51865W        W24180  38.406  19.270   3.624
51866W        W24181  27.950  32.992  13.320
51867W        W24182  13.859  40.306   2.153
51868W        W24183   1.523  38.014  11.557
51869W        W24184  14.049  25.540   0.617
51870W        W24185  27.919   5.993  13.956
51871W        W24186  27.402  24.484  10.718
51872W        W24187  43.064  31.216  14.281
51873W        W24188   7.304  29.998  14.261
51874W        W24189  10.189  18.542  13.015
51875W        W24190  25.366  31.525  13.858
51876W        W24191  18.649  23.110  11.178
51877W        W24192  38.526   9.263   3.411
51878W        W24193  10.970  15.214  14.839
51879W        W24194   7.107   1.867   4.611
51880W        W24195  42.697  44.872   1.640
51881W        W24196  11.643  41.743   4.633
51882W        W24197  10.845  38.062   0.760
51883W        W24198  14.744  39.465  13.478
51884W        W24199   3.361  12.764   1.794
51885W        W24200  34.070   5.392   4.502
51886W        W24201  36.990  24.245  13.928
51887W        W24202  40.598   1.756  13.674
51888W        W24203  29.592  18.388   1.398
51889W        W24204  18.605  12.843  12.128
51890W        W24205  33.692  31.656  13.853
51891W        W24206  31.591  40.894   0.511
51892W        W24207  42.632  34.474  11.437
51893W        W24208   3.844  34.494   3.058
51894W        W24209   8.715  17.978   2.659
51895W        W24210  17.705  23.901   3.404
51896W        W24211  10.872  30.923   0.470
51897W        W24212  38.105  25.031   4.572
51898W        W24213  18.600  22.767   4.336
51899W        W24214  16.543  35.998  11.584
51900W        W24215   1.713  38.038   0.074
51901W        W24216  12.899   0.976   0.677
51902W        W24217  32.871  31.427   4.078
51903W        W24218  36.136  25.104  12.602
51904W        W24219   7.142  40.053   1.212
51905W        W24220  13.329   8.602  11.553
51906W        W24221  29.016  32.216  11.084
51907W        W24222  23.492  34.107  11.996
51908W        W24223   2.496  32.403  13.368
51909W        W24224  37.076   8.675   0.601
51910W        W24225  20.267  24.656  13.000
51911W        W24226  37.343   0.795  12.052
51912W        W24227  18.617  25.235   1.779
51913W        W24228  17.494   8.863   3.621
51914W        W24229  37.954  25.564  12.404
51915W        W24230  44.280  15.886  14.383
51916W        W24231  22.979   8.706  14.876
51917W        W24232  32.210   4.520   1.432
51918W        W24233  17.849   6.815   2.838
51919W        W24234  23.836   7.398  14.810
51920W        W24235   4.919  18.745   4.313
51921W        W24236  13.843  24.536   3.323
51922W        W24237  28.994  24.261   3.400
51923W        W24238   3.280   0.964  14.396
51924W        W24239   7.190  39.385  10.765
51925W        W24240  14.839  31.196  14.331
51926W        W24241   9.419  24.758  11.021
51927W        W24242   8.406  14.004  13.897
51928W        W24243   2.810  41.072   2.793
51929W        W24244  18.028  13.282   3.245
51930W        W24245  43.996  39.442  11.394
51931W        W24246  32.872  13.665  12.030
51932W        W24247  41.993  14.601   2.358
51933W        W24248   7.857  14.312   4.144
51934W        W24249  24.721  12.086   2.686
51935W        W24250  33.387  41.557  13.944
51936W        W24251  22.250   8.258   0.740
51937W        W24252  12.942  14.757  10.649
51938W        W24253   2.445   4.362  14.901
51939W        W24254  16.697  21.813  12.616
51940W        W24255  23.528  38.107  13.448
51941W        W24256   5.678  14.571   3.453
51942W        W24257  42.691  25.192  10.327
51943W        W24258   5.137  35.947  13.063
51944W        W24259   8.705  14.122  11.098
51945W        W24260  16.631  43.301  12.026
51946W        W24261  12.788   7.396   1.331
51947W        W24262  29.684  37.913  12.875
51948W        W24263  43.988  40.825   0.643
51949W        W24264   1.352  14.200  12.876
51950W        W24265  40.897  32.101   0.338
51951W        W24266  11.377   8.128  14.966
51952W        W24267  28.046   5.695  12.653
51953W        W24268   7.233  12.898  14.911
51954W        W24269  34.507   3.990   2.937
51955W        W24270  27.918  15.597  10.715
51956W        W24271  35.331  31.198  11.942
51957W        W24272  12.076  31.062  12.400
51958W        W24273  43.768  38.097  12.024
51959W        W24274  35.745  25.543  11.024
51960W        W24275  20.845  18.445   3.716
51961W        W24276  32.858  36.822   4.149
51962W        W24277  17.012  12.922  11.169
51963W        W24278   5.865  38.874  11.445
51964W        W24279  11.632   3.719  11.550
51965W        W24280  16.247  28.472   5.338
51966W        W24281  38.119  18.852  11.010
51967W        W24282  24.584  21.646  10.900
51968W        W24283  42.619  12.129   4.203
51969W        W24284  34.696   6.120  11.095
51970W        W24285  19.206   2.356  11.549
51971W        W24286  17.670  27.989   5.534
51972W        W24287  12.710   1.830  13.861
51973W        W24288  34.724  36.332   0.981
51974W        W24289  36.192  43.113   1.368
51975W        W24290  35.848  24.073  11.174
51976W        W24291  11.635  25.564   4.969
51977W        W24292  41.357  14.195  12.134
51978W        W24293  31.893  25.181   0.276
51979W        W24294   5.200  27.054   3.250
51980W        W24295   1.725  24.255  13.796
51981W        W24296  30.777  10.665  12.626
51982W        W24297   4.170  44.733   4.093
51983W        W24298  36.597  23.022  12.456
51984W        W24299  21.322  17.300  14.482
51985W        W24300  13.634  13.254   0.806
51986W        W24301  38.457   0.841   4.397
51987W        W24302  13.073  22.219   1.965
51988W        W24303  30.018  24.849  14.469
51989W        W24304  28.765  23.490   0.769
51990W        W24305  36.624  40.576  13.583
51991W        W24306   3.354  24.147   0.067
51992W        W24307  33.202   3.210   4.183
51993W        W24308  19.752  16.305   4.568
51994W        W24309  26.041  22.028   4.047
51995W        W24310  38.363  26.788   1.465
51996W        W24311  14.898   1.663  12.859
51997W        W24312  27.910   2.178   0.912
51998W        W24313  11.542  17.145   5.050
51999W        W24314  10.912  27.952  14.744
52000W        W24315  14.740  38.042   0.837
52001W        W24316  38.602  16.575   2.273
52002W        W24317  39.750  30.973   2.741
52003W        W24318  19.081   4.898  13.269
52004W        W24319   0.062  43.902  14.874
52005W        W24320  10.445  13.336   3.199
52006W        W24321  29.975   3.810   1.249
52007W        W24322  35.457  22.509  14.384
52008W        W24323  19.244  20.501  13.119
52009W        W24324   7.287  43.197   3.019
52010W        W24325   4.321  44.930  13.866
52011W        W24326   8.476  36.700   2.234
52012W        W24327  10.410  37.828   0.874
52013W        W24328  27.444  11.118  14.689
52014W        W24329  40.824  10.915   4.500
52015W        W24330  20.077   6.975   2.080
52016W        W24331  23.696  13.686   4.579
52017W        W24332  27.091  13.956  13.014
52018W        W24333  38.848  15.692  14.887
52019W        W24334  35.543  25.264   1.277
52020W        W24335   1.422   6.617  14.671
52021W        W24336  31.183  14.718   1.187
52022W        W24337  30.023  40.973   0.704
52023W        W24338  32.180  25.651   0.444
52024W        W24339   1.283  18.941  11.096
52025W        W24340   1.759  19.100  11.021
52026W        W24341  24.668  15.858   2.759
52027W        W24342  16.613  30.127   3.316
52028W        W24343  14.530   8.066   4.954
52029W        W24344  34.496  34.892  12.565
52030W        W24345  30.622  36.490   4.983
52031W        W24346  22.026   7.433   3.691
52032W        W24347  33.584  34.384  12.449
52033W        W24348  14.816   5.399  10.996
52034W        W24349   1.277  31.625   3.320
52035W        W24350  21.886  13.636  12.677
52036W        W24351  19.520   7.475   0.743
52037W        W24352   1.529  38.375   2.137
52038W        W24353   0.313  35.239   3.574
52039W        W24354  17.095  15.562  13.742
52040W        W24355   4.910  41.776   5.118
52041W        W24356   0.707  13.720  10.428
52042W        W24357  42.398  44.954   2.875
52043W        W24358  10.671  29.398  10.497
52044W        W24359  38.093  43.366   0.004
52045W        W24360  25.382  44.391   5.082
52046W        W24361   8.673   9.648   0.776
52047W        W24362   8.721  16.166   3.217
52048W        W24363  27.543  16.888  14.521
52049W        W24364  11.658  12.558  12.002
52050W        W24365  33.153  42.893   1.346
52051W        W24366   1.009   3.926  12.926
52052W        W24367  26.533  10.718   0.781
52053W        W24368  21.973  17.076  10.663
52054W        W24369  10.714  36.935   3.295
52055W        W24370   8.436  34.173  14.169
52056W        W24371  16.023  28.067   2.624
52057W        W24372  42.437  24.699   1.622
52058W        W24373   9.561  43.852   2.462
52059W        W24374  36.969  12.889   1.251
52060W        W24375   5.578  11.777  11.134
52061W        W24376  10.674  20.406  14.275
52062W        W24377  28.491   6.807   9.343
52063W        W24378  14.511   6.727   1.417
52064W        W24379  10.747   1.306   4.153
52065W        W24380   0.301  19.588   1.678
52066W        W24381  22.656   1.720  13.961
52067W        W24382  31.607  22.396   3.086
52068W        W24383  39.891  27.227  10.609
52069W        W24384  37.913   3.717  14.207
52070W        W24385   9.383  16.684   1.902
52071W        W24386   1.998  33.072   3.173
52072W        W24387   6.618  26.970  14.828
52073W        W24388   4.792  12.951   1.252
52074W        W24389   2.849   9.771  11.513
52075W        W24390  42.216   5.330  12.575
52076W        W24391  42.671  25.893   3.178
52077W        W24392  27.945  27.122   4.531
52078W        W24393   9.741  11.762   3.644
52079W        W24394  35.812   2.300   3.661
52080W        W24395  24.655  10.621   1.891
52081W        W24396  41.576  25.995   3.148
52082W        W24397  16.857  29.656  13.805
52083W        W24398   6.152   9.799  13.827
52084W        W24399   3.990  28.587  12.117
52085W        W24400  18.310  42.811   4.608
52086W        W24401  44.523  15.663   2.380
52087W        W24402  42.273  37.497   3.618
52088W        W24403  39.061  22.563  14.376
52089W        W24404  32.914  26.028  11.592
52090W        W24405  28.072  16.320  14.920
52091W        W24406  39.306   4.798  11.282
52092W        W24407  12.513  31.907   0.651
52093W        W24408  32.972   0.763  11.362
52094W        W24409  15.661  28.439   2.362
52095W        W24410  33.083  41.600   1.301
52096W        W24411  14.221  37.084   2.877
52097W        W24412  43.744  16.141  10.353
52098W        W24413  10.642   0.349   1.785
52099W        W24414  43.902  40.736   2.089
52100W        W24415  23.004  18.110   1.304
52101W        W24416  38.974  35.092   1.768
52102W        W24417  34.014  36.911   2.691
52103W        W24418   4.890   0.667  11.165
52104W        W24419  12.544  29.691   4.590
52105W        W24420  14.528  33.308  12.419
52106W        W24421  12.844  14.030   2.474
52107W        W24422   6.985  21.099   3.588
52108W        W24423  14.037  12.577   1.013
52109W        W24424  27.956  18.982   2.451
52110W        W24425  37.457   9.658   1.947
52111W        W24426  27.759   3.562  10.335
52112W        W24427  25.853  37.002   0.825
52113W        W24428  19.037   9.976   0.540
52114W        W24429  27.538  17.237  11.423
52115W        W24430  34.099  12.755  11.933
52116W        W24431   7.515  17.680   3.392
52117W        W24432  41.085  34.580  12.489
52118W        W24433  18.016  43.297  14.645
52119W        W24434  26.035  11.754   1.791
52120W        W24435  13.871  20.796  13.401
52121W        W24436  25.717  11.803   1.300
52122W        W24437  29.891  13.769   0.849
52123W        W24438  34.009  24.243   3.754
52124W        W24439  19.003   8.898  11.155
52125W        W24440   9.450  12.634   3.925
52126W        W24441  42.471  43.263   4.027
52127W        W24442  29.661  13.080  12.200
52128W        W24443  22.226  25.502   1.129
52129W        W24444   5.044   9.736   4.701
52130W        W24445   5.402  43.240   3.254
52131W        W24446  19.621   8.765  11.340
52132W        W24447  19.602  38.751  12.054
52133W        W24448  20.036   1.738   2.151
52134W        W24449  15.781   0.527  14.990
52135W        W24450  28.630  27.410   0.808
52136W        W24451  18.323  13.244  11.393
52137W        W24452  26.766  17.819  14.034
52138W        W24453  37.811  41.092   4.966
52139W        W24454  33.202  28.687  12.051
52140W        W24455  19.562   1.796   4.318
52141W        W24456  15.782  19.887   4.130
52142W        W24457  21.679  17.056   4.134
52143W        W24458  35.422  10.905  14.017
52144W        W24459  30.670  25.446   0.910
52145W        W24460  16.208   6.435  13.900
52146W        W24461  25.554  19.730   1.482
52147W        W24462  35.980  28.180  14.298
52148W        W24463  35.093  27.133  14.060
52149W        W24464  19.147  37.023  12.983
52150W        W24465  27.947   9.916   1.997
52151W        W24466  11.128   4.375  13.423
52152W        W24467  44.821  13.704   4.591
52153W        W24468  42.514  32.120  13.909
52154W        W24469  43.305  20.739   1.171
52155W        W24470   8.725  41.465  13.381
52156W        W24471  33.573  37.261  12.612
52157W        W24472   1.171  30.520  12.470
52158W        W24473   6.768   4.380   0.917
52159W        W24474  33.337  26.675   1.524
52160W        W24475   5.500  43.407   0.440
52161W        W24476  21.047  19.909  10.124
52162W        W24477  25.271  22.677   4.124
52163W        W24478   5.547  28.257  13.927
52164W        W24479  33.488  21.776   2.830
52165W        W24480  37.069   8.268   0.259
52166W        W24481  19.157  17.757  14.207
52167W        W24482   8.590  10.849  11.185
52168W        W24483  31.835  43.458   0.342
52169W        W24484  18.829  38.042   1.322
52170W        W24485   3.180  40.933   3.195
52171W        W24486  38.249  41.457  11.548
52172W        W24487  41.151  37.464  13.621
52173W        W24488  27.432   5.354  13.630
52174W        W24489  32.379  11.785  11.823
52175W        W24490  34.129  43.524   3.205
52176W        W24491  34.488  22.588   4.593
52177W        W24492  35.039  29.330   3.682
52178W        W24493  17.730   7.343  10.633
52179W        W24494  12.164   4.160   3.746
52180W        W24495  35.069  19.243  14.825
52181W        W24496  12.900  12.283  14.104
52182W        W24497  23.861  40.483  11.635
52183W        W24498  38.070   5.391   4.623
52184W        W24499  23.487  32.737  11.596
52185W        W24500  25.117  31.863   3.343
52186W        W24501  44.210  12.673  13.966
52187W        W24502   4.923   3.389   0.247
52188W        W24503  30.100  23.655   0.834
52189W        W24504  17.308  27.698   5.115
52190W        W24505  11.628  11.642  13.907
52191W        W24506  12.886  40.808  14.270
52192W        W24507  41.406  20.181  10.863
52193W        W24508   6.277  18.308  14.852
52194W        W24509  29.840   6.836  10.742
52195W        W24510  33.996   2.235  12.458
52196W        W24511  18.154  29.148   3.147
52197W        W24512  37.277   9.811  11.221
52198W        W24513  11.419  44.739   4.227
52199W        W24514  35.685  36.269  13.196
52200W        W24515  21.579  41.013   3.778
52201W        W24516  31.850  42.925  11.242
52202W        W24517  25.427  31.407   0.336
52203W        W24518  38.850  24.776  13.409
52204W        W24519  43.427  27.975  13.211
52205W        W24520  38.970  40.403   0.325
52206W        W24521  43.967  40.071  12.861
52207W        W24522  20.232  13.438   4.313
52208W        W24523  31.419  37.788   1.544
52209W        W24524  38.280  28.993   0.851
52210W        W24525  18.982  36.363   1.996
52211W        W24526  20.701  29.209   3.283
52212W        W24527  33.757  16.084   3.690
52213W        W24528  28.142   9.557  10.690
52214W        W24529   0.902  39.002   3.022
52215W        W24530   7.321  13.193   3.878
52216W        W24531  43.228  38.362   4.864
52217W        W24532  17.079   4.707  13.364
52218W        W24533  40.249  13.502  12.494
52219W        W24534  37.436   2.943   4.173
52220W        W24535  39.390   8.492   1.930
52221W        W24536  10.668  10.300  14.757
52222W        W24537  16.565  16.875   4.622
52223W        W24538  42.923   8.147   0.359
52224W        W24539  12.786  28.064   3.526
52225W        W24540  38.668  31.465   3.111
52226W        W24541  43.951  30.759  11.564
52227W        W24542  10.213  25.107   3.167
52228W        W24543  18.639   2.234   1.713
52229W        W24544  11.236  36.948  13.289
52230W        W24545  15.936  31.517   0.236
52231W        W24546  18.343   5.886  13.798
52232W        W24547  14.716  42.970   4.989
52233W        W24548  13.375   1.977  12.461
52234W        W24549  10.266  15.775   4.212
52235W        W24550   7.405  10.957   3.755
52236W        W24551  24.120  10.506  14.340
52237W        W24552  25.371  42.468  13.071
52238W        W24553  23.661  40.511   4.670
52239W        W24554  19.375  36.312  11.926
52240W        W24555  42.376   6.190   0.419
52241W        W24556  13.836  29.613   1.557
52242W        W24557  29.531  30.034  10.498
52243W        W24558   1.690  30.275   3.189
52244W        W24559   8.416   8.350   2.903
52245W        W24560  17.509  19.426   3.794
52246W        W24561  38.975  38.529   1.675
52247W        W24562   7.907  44.304   0.474
52248W        W24563  26.972  37.002   2.846
52249W        W24564   1.542   0.280   1.763
52250W        W24565   2.303   3.295   0.904
52251W        W24566  26.627  28.059  14.438
52252W        W24567  28.000  25.454   1.857
52253W        W24568  24.503  34.558  11.118
52254W        W24569  14.134  34.863   1.410
52255W        W24570   0.218   9.965   1.371
52256W        W24571  36.725   4.245   4.141
52257W        W24572  26.005   6.980   2.423
52258W        W24573  16.851  34.418   1.791
52259W        W24574   3.025   1.784  11.545
52260W        W24575  37.085  37.347   3.127
52261W        W24576  18.441  22.035   2.071
52262W        W24577  39.044   5.636  12.450
52263W        W24578  35.458   9.403  11.013
52264W        W24579  34.137   2.210  10.692
52265W        W24580  43.114  38.244   1.855
52266W        W24581  44.464   3.325  11.499
52267W        W24582  25.886  33.865  10.488
52268W        W24583   7.369  27.598   3.586
52269W        W24584  26.584   9.256  13.372
52270W        W24585  42.442  23.713  14.896
52271W        W24586  42.777  14.768   1.721
52272W        W24587  13.552  32.875  14.883
52273W        W24588  34.906  40.751  13.282
52274W        W24589  25.691  18.184  11.025
52275W        W24590  42.817   0.742  14.380
52276W        W24591  22.508   9.360   1.722
52277W        W24592  25.973   8.153  13.359
52278W        W24593   5.441  35.183  11.539
52279W        W24594  33.327   5.787   2.446
52280W        W24595  31.062  24.217  10.795
52281W        W24596  13.598  35.463   4.929
52282W        W24597  15.078  35.103   4.504
52283W        W24598  40.890   8.083   3.081
52284W        W24599  31.155  36.914  14.495
52285W        W24600  42.453  36.571  12.615
52286W        W24601  11.611  42.994   0.380
52287W        W24602  10.035   2.088  10.409
52288W        W24603   9.196   2.384  13.832
52289W        W24604  15.309   6.187   3.824
52290W        W24605  31.335   6.715  10.555
52291W        W24606  41.308  24.201   4.095
52292W        W24607   0.383  23.485  10.707
52293W        W24608  26.922  39.417   2.023
52294W        W24609  25.981  41.870  11.520
52295W        W24610   2.904  39.450  13.731
52296W        W24611  40.387  16.753  13.027
52297W        W24612  34.126   5.909   0.959
52298W        W24613  27.209  15.279  14.379
52299W        W24614   6.429   2.989  12.100
52300W        W24615  29.402  37.566   5.074
52301W        W24616   4.223   0.257   4.102
52302W        W24617  35.391  11.832   0.192
52303W        W24618   6.507  32.592   0.480
52304W        W24619  32.958  15.595   4.112
52305W        W24620  21.246  22.033   5.105
52306W        W24621  36.466   4.690  10.583
52307W        W24622  39.627  12.881  11.193
52308W        W24623  12.359   2.340   2.922
52309W        W24624  15.611  10.506   1.342
52310W        W24625  19.975  23.570  13.349
52311W        W24626  34.339  16.481  13.021
52312W        W24627  28.576   8.280   4.767
52313W        W24628   6.789   1.736   1.246
52314W        W24629  19.691  43.615   3.667
52315W        W24630  21.243  36.699  12.025
52316W        W24631   2.656  43.625  12.860
52317W        W24632  15.577  12.362  11.008
52318W        W24633  12.189   8.377   2.969
52319W        W24634  28.186  35.933   1.928
52320W        W24635  24.524  44.451  12.607
52321W        W24636  38.947  29.256   3.841
52322W        W24637  13.501  23.893   1.378
52323W        W24638   6.171  32.091   4.498
52324W        W24639  33.416   0.452  11.522
52325W        W24640  25.033  19.787  10.321
52326W        W24641   0.263  17.891   1.135
52327W        W24642  13.708  17.149   0.912
52328W        W24643  33.127   4.804  11.967
52329W        W24644  27.471  21.662  12.923
52330W        W24645  21.821  33.755  13.781
52331W        W24646  28.160   1.497  14.836
52332W        W24647  15.333   9.350  11.025
52333W        W24648  33.583  33.833   3.704
52334W        W24649  35.111  24.509  14.424
52335W        W24650  19.058  11.305   3.714
52336W        W24651  44.253  11.420  13.760
52337W        W24652  37.474  15.562   5.168
52338W        W24653  20.186  39.105  13.791
52339W        W24654  25.729   6.734  12.510
52340W        W24655   2.119  39.846  13.358
52341W        W24656  30.531  37.271   1.933
52342W        W24657  31.389  21.419  10.216
52343W        W24658  18.814  27.552  12.410
52344W        W24659  34.401   7.945  11.622
52345W        W24660  15.865  13.888  12.983
52346W        W24661   7.713   6.385  12.263
52347W        W24662  37.245   6.217   4.973
52348W        W24663  32.699  13.300  11.118
52349W        W24664  36.644  15.432  14.707
52350W        W24665   4.590   5.277   0.718
52351W        W24666   9.366  39.981  12.150
52352W        W24667  35.492  33.925   1.063
52353W        W24668  28.926   8.093   0.740
52354W        W24669  22.219  44.452   0.371
52355W        W24670  40.136   0.142   1.808
52356W        W24671  19.488  34.094  12.929
52357W        W24672  22.528  22.490  12.298
52358W        W24673  29.685   5.734  13.481
52359W        W24674  26.656  28.289  13.106
52360W        W24675   6.190  31.923   0.719
52361W        W24676  23.889  21.746   1.430
52362W        W24677   7.463  41.272  10.452
52363W        W24678  16.730  29.205  12.094
52364W        W24679  24.238  27.647  11.065
52365W        W24680  36.030  28.113   4.481
52366W        W24681  21.731  20.725  13.356
52367W        W24682  32.733  28.003   3.206
52368W        W24683  34.977  18.085  14.233
52369W        W24684  39.896  44.561   2.655
52370W        W24685  27.451   6.123   3.742
52371W        W24686  33.001  22.148   4.274
52372W        W24687  44.775  24.595   0.397
52373W        W24688  19.822   5.232  13.600
52374W        W24689  37.525  15.352   0.020
52375W        W24690  34.779  20.961   0.798
52376W        W24691  33.590  17.053   4.781
52377W        W24692  21.082  41.544  11.245
52378W        W24693  16.937  34.470  14.762
52379W        W24694  20.017   1.735  14.430
52380W        W24695  22.403  23.649  11.681
52381W        W24696  15.066  36.528  12.609
52382W        W24697  20.659   5.471  12.180
52383W        W24698  40.552  33.103  10.715
52384W        W24699  38.220  39.549  12.599
52385W        W24700  33.979  13.595   0.038
52386W        W24701  21.157  37.040   3.306
52387W        W24702  37.933  37.986   2.666
52388W        W24703  34.139   0.372  14.074
52389W        W24704  23.640  36.340   0.816
52390W        W24705  17.531  29.064  10.916
52391W        W24706  27.107   3.311  10.380
52392W        W24707  18.045  35.655  12.513
52393W        W24708   5.362  40.062  11.025
52394W        W24709  10.355  11.562   2.910
52395W        W24710   8.083  26.983   3.651
52396W        W24711  24.791  23.026   0.737
52397W        W24712  38.080  16.263   4.222
52398W        W24713  12.116  19.784   0.470
52399W        W24714  11.242  26.056  10.670
52400W        W24715   8.282  30.364  12.894
52401W        W24716  35.065  36.155   0.557
52402W        W24717  44.425  10.597  13.530
52403W        W24718  11.154  40.107   2.243
52404W        W24719  17.125   0.856   0.791
52405W        W24720   4.503  23.027  12.868
52406W        W24721   1.604  10.747  10.104
52407W        W24722  38.069  36.563  11.788
52408W        W24723  33.454  29.881   0.267
52409W        W24724   3.383   5.610   1.366
52410W        W24725  44.843  18.810   2.731
52411W        W24726  33.372   0.816   2.933
52412W        W24727  34.805  32.122  14.524
52413W        W24728  10.301  21.028  12.803
52414W        W24729   8.150  43.704   3.246
52415W        W24730   7.379  29.272   1.462
52416W        W24731  13.877  20.779   1.343
52417W        W24732   0.875  33.625  12.092
52418W        W24733  15.044  21.151  14.486
52419W        W24734  13.548  42.699  11.338
52420W        W24735  28.132  35.328   2.762
52421W        W24736  14.020  41.894   3.598
52422W        W24737  38.936   0.899   3.170
52423W        W24738  42.933  39.355   0.097
52424W        W24739  29.118  20.784   1.837
52425W        W24740   8.833  40.535   1.850
52426W        W24741  11.762   9.124   3.590
52427W        W24742  41.070  43.063   0.769
52428W        W24743   5.375  32.889  13.038
52429W        W24744  40.469  19.486   3.258
52430W        W24745  24.759  12.285   2.211
52431W        W24746  10.895  30.510   0.944
52432W        W24747  42.855  14.260  13.455
52433W        W24748  36.954  16.361  14.570
52434W        W24749   5.243  29.128  12.851
52435W        W24750  23.696  19.778  14.565
52436W        W24751  18.747   9.340   2.999
52437W        W24752  43.701  20.675  11.772
52438W        W24753   2.382   7.530  13.900
52439W        W24754  43.150  25.227  11.114
52440W        W24755  44.047  34.201  13.501
52441W        W24756  15.011  37.495   0.398
52442W        W24757   3.791  33.436  12.492
52443W        W24758  10.675  29.041   2.656
52444W        W24759  38.851  22.210   1.082
52445W        W24760  44.295  10.749   3.734
52446W        W24761  28.068   9.173   3.883
52447W        W24762  16.608  40.401  13.006
52448W        W24763  42.937  15.778   4.175
52449W        W24764  38.808  18.639  13.300
52450W        W24765   3.342  43.911   0.741
52451W        W24766  21.720   3.463   1.794
52452W        W24767  41.552  20.134   0.866
52453W        W24768   4.424  27.529   1.297
52454W        W24769  15.381   9.876  12.994
52455W        W24770  19.064   2.969   2.436
52456W        W24771   2.972  22.240   1.436
52457W        W24772  14.771  35.921   1.746
52458W        W24773  15.232  25.353   0.976
52459W        W24774  37.906   7.420  14.425
52460W        W24775  37.878  29.669  14.753
52461W        W24776  43.792  42.496   3.778
52462W        W24777   8.326  27.658   1.377
52463W        W24778   8.467  18.233  13.969
52464W        W24779  29.405  24.250  13.130
52465W        W24780  10.396  20.131  12.310
52466W        W24781  38.260   5.427   4.137
52467W        W24782   9.342  33.079   3.264
52468W        W24783  13.855  44.794  13.816
52469W        W24784  16.355  24.584   3.880
52470W        W24785  35.567  26.410   0.032
52471W        W24786  25.034  25.095   0.810
52472W        W24787  10.081  41.310   4.753
52473W        W24788   3.888   9.179   0.949
52474W        W24789  33.532   2.552   0.804
52475W        W24790  20.415  15.778   2.742
52476W        W24791   1.899  39.342   0.919
52477W        W24792   2.060  15.794  14.492
52478W        W24793  25.172  30.392   0.286
52479W        W24794   4.348  23.070  14.751
52480W        W24795   1.347  32.963   4.703
52481W        W24796  41.167  43.786   0.715
52482W        W24797   2.199  15.245  12.111
52483W        W24798  18.820  43.394  14.307
52484W        W24799   8.344  34.546   3.342
52485W        W24800  21.510  30.861  13.836
52486W        W24801  17.829  30.761   2.096
52487W        W24802  29.023  26.363  14.263
52488W        W24803  21.722  42.219   2.685
52489W        W24804   3.994  38.050  14.328
52490W        W24805   7.223   2.486   3.251
52491W        W24806  27.426  36.745   4.211
52492W        W24807  32.974  15.788   0.286
52493W        W24808  10.772  22.146   2.220
52494W        W24809  31.535  13.574  10.506
52495W        W24810  39.641  37.993   2.799
52496W        W24811   9.296  12.769  14.452
52497W        W24812  16.219  44.104  14.826
52498W        W24813  33.874  28.536   3.355
52499W        W24814  32.202  22.466  13.890
52500W        W24815  22.626   5.425   3.200
52501W        W24816  41.088  35.915  14.287
52502W        W24817  28.418  15.169  13.936
52503W        W24818  17.082  14.717  13.245
52504W        W24819  21.798  24.059  13.333
52505W        W24820  33.838  11.098   0.839
52506W        W24821  40.787  35.599  11.739
52507W        W24822  38.251  39.069  12.443
52508W        W24823   4.387  14.371   0.739
52509W        W24824   0.388   3.190  10.597
52510W        W24825  20.789  44.932  11.467
52511W        W24826   7.511  12.192   3.594
52512W        W24827  34.931   0.828  13.877
52513W        W24828  32.643  24.200   1.201
52514W        W24829  19.749  39.556  14.311
52515W        W24830   5.396  23.151   2.891
52516W        W24831  27.587   5.897   2.678
52517W        W24832  37.068  23.595  12.645
52518W        W24833  21.786  32.627   3.609
52519W        W24834  32.440  25.678   4.264
52520W        W24835  23.627  21.564   1.845
52521W        W24836   9.628   1.924   3.766
52522W        W24837  40.352  18.691  13.540
52523W        W24838  19.782  22.635  12.472
52524W        W24839  36.149   3.711  14.202
52525W        W24840   6.719  37.545  12.489
52526W        W24841  21.951  15.143   1.807
52527W        W24842  23.577  19.141   3.031
52528W        W24843   8.205   6.921   3.237
52529W        W24844  32.869  43.987   4.542
52530W        W24845  38.481   4.680  14.899
52531W        W24846  10.691  23.351  12.547
52532W        W24847  40.204   3.860   1.922
52533W        W24848  15.167  41.916   1.781
52534W        W24849  20.755  31.033  10.627
52535W        W24850   5.904   5.977  10.826
52536W        W24851  10.666   3.131   4.087
52537W        W24852  25.595   8.657  13.875
52538W        W24853  20.625  29.993   3.809
52539W        W24854  29.745   0.975  12.974
52540W        W24855  31.580  35.360   4.512
52541W        W24856   9.095  34.549   2.851
52542W        W24857  17.617  38.643   4.015
52543W        W24858  42.582  33.255   1.206
52544W        W24859  36.241  41.967  12.913
52545W        W24860  43.010   2.972   2.337
52546W        W24861  38.990   5.389  10.717
52547W        W24862  27.144   5.639   2.977
52548W        W24863   3.044  44.738  14.454
52549W        W24864  29.543  26.057   4.275
52550W        W24865   3.925  22.078  12.576
52551W        W24866  26.592   2.646   3.642
52552W        W24867   3.603  28.671  10.576
52553W        W24868  42.252   4.685   1.814
52554W        W24869   2.350  20.184   3.594
52555W        W24870   0.571   7.110  14.963
52556W        W24871  24.109  14.874   4.682
52557W        W24872  37.615  33.621   0.010
52558W        W24873  29.466  28.133  10.730
52559W        W24874  16.303  38.603  10.620
52560W        W24875   4.260  38.372   4.667
52561W        W24876   0.665  18.777   0.813
52562W        W24877  40.714  37.931  12.547
52563W        W24878  22.596  30.429  13.952
52564W        W24879  19.060  34.028   0.373
52565W        W24880  37.516  44.448   1.432
52566W        W24881  20.104   5.229   3.108
52567W        W24882  41.443  19.073  12.677
52568W        W24883   3.962  19.147  13.487
52569W        W24884  26.363  10.712  13.342
52570W        W24885  34.857  23.697  13.031
52571W        W24886   5.484  43.909  13.106
52572W        W24887   9.111  40.332   3.238
52573W        W24888   4.406  14.913   4.116
52574W        W24889  38.655  31.589  12.533
52575W        W24890  25.993  33.467  10.819
52576W        W24891   0.391   9.764   3.844
52577W        W24892  15.227  23.172   2.691
52578W        W24893  36.920   8.280   2.784
52579W        W24894  17.138   4.158   1.776
52580W        W24895  34.842  15.499   1.826
52581W        W24896  42.227   7.776  10.352
52582W        W24897  17.672  28.270   0.563
52583W        W24898  25.228  28.093  14.854
52584W        W24899  44.868  32.391   0.023
52585W        W24900  21.083  32.969   0.727
52586W        W24901  14.306  33.483   0.285
52587W        W24902   3.636  11.423  12.001
52588W        W24903  29.252  18.516   0.316
52589W        W24904  31.119   5.461  12.996
52590W        W24905  23.560   9.137   4.189
52591W        W24906   7.357  31.907  10.696
52592W        W24907  37.780   4.331  10.398
52593W        W24908  35.051  32.059   3.232
52594W        W24909  12.498  33.020  14.499
52595W        W24910  33.804  33.478  11.942
52596W        W24911   2.093  22.958   4.712
52597W        W24912   3.795  10.415   0.633
52598W        W24913  22.023   3.865  10.922
52599W        W24914  35.488  17.030   0.407
52600W        W24915  10.670  29.937   2.291
52601W        W24916  26.231  44.276  10.953
52602W        W24917  33.183  31.160   0.303
52603W        W24918  24.176  22.349  14.750
52604W        W24919  39.987  41.864   2.870
52605W        W24920  40.377  18.793   4.539
52606W        W24921  24.284   9.455   3.714
52607W        W24922  11.185   9.189  14.942
52608W        W24923   2.931  10.749   2.975
52609W        W24924  13.214  26.229   3.416
52610W        W24925  23.623  35.069  13.560
52611W        W24926   3.266  12.276   2.424
52612W        W24927  22.175  38.745  14.878
52613W        W24928  31.381   3.828  13.403
52614W        W24929   0.859   2.419   4.523
52615W        W24930  43.313   4.401   1.307
52616W        W24931  26.981  21.254  14.852
52617W        W24932  33.717  32.618  12.575
52618W        W24933   5.893  33.084   0.007
52619W        W24934  16.062  33.836   2.312
52620W        W24935  42.415   7.837   3.732
52621W        W24936  10.337  14.364   4.098
52622W        W24937  22.579  35.948   1.205
52623W        W24938  19.968  37.598  10.957
52624W        W24939  17.817  34.443  12.384
52625W        W24940  33.410  10.776  14.913
52626W        W24941  19.669  36.959   1.453
52627W        W24942   7.846  19.129   3.395
52628W        W24943   2.684  12.915  13.917
52629W        W24944  19.696  36.996   0.002
52630W        W24945  14.027  33.483   2.737
52631W        W24946  10.858  44.004  12.689
52632W        W24947  39.327  28.235  13.981
52633W        W24948  16.559  28.852  10.702
52634W        W24949  26.955  34.010   4.959
52635W        W24950  36.967  43.866  10.941
52636W        W24951  33.063  23.148   0.668
52637W        W24952  43.227  22.025   2.829
52638W        W24953  13.317  15.282   0.439
52639W        W24954  24.968  35.461  12.037
52640W        W24955  23.910  42.390  12.476
52641W        W24956  41.774  43.549  11.557
52642W        W24957  28.188  18.270   0.749
52643W        W24958  14.817  42.024   0.893
52644W        W24959  16.440  24.486  11.487
52645W        W24960   1.462   7.533  11.928
52646W        W24961  33.307  12.653  11.161
52647W        W24962  36.146  26.640   1.800
52648W        W24963   5.791  27.466  14.824
52649W        W24964  22.289  18.321  11.030
52650W        W24965  25.973  22.103   0.437
52651W        W24966  34.002  18.493  11.653
52652W        W24967  12.045  34.332  14.544
52653W        W24968  27.932   1.910  11.259
52654W        W24969   8.643  24.697   5.004
52655W        W24970  35.915  40.196   0.060
52656W        W24971   4.052  40.273   0.702
52657W        W24972  18.303  43.353  14.232
52658W        W24973  25.967  34.120   3.333
52659W        W24974  44.354  38.944  10.412
52660W        W24975  28.048  44.342  14.389
52661W        W24976  29.407   5.269   4.847
52662W        W24977   4.692  40.516  10.750
52663W        W24978  44.580  29.050   4.559
52664W        W24979  26.692  18.278  10.269
52665W        W24980  37.147   8.082  14.276
52666W        W24981   8.885  13.804  14.039
52667W        W24982  33.094   7.934  12.280
52668W        W24983  29.957  34.047  11.202
52669W        W24984   0.212  22.676  12.973
52670W        W24985  25.185  41.252  11.132
52671W        W24986  12.928  22.505   3.223
52672W        W24987  17.609   6.663   2.371
52673W        W24988  34.603  27.769  10.918
52674W        W24989  36.983  27.134   2.614
52675W        W24990   8.904  16.331  13.917
52676W        W24991  15.495  19.187  12.104
52677W        W24992  19.189  24.266   2.879
52678W        W24993  33.572  31.922  14.274
52679W        W24994  26.594  37.050  13.915
52680W        W24995  43.245  16.811  14.002
52681W        W24996  34.188   1.927   2.656
52682W        W24997  29.552   3.173  14.052
52683W        W24998  38.502  41.286  14.267
52684W        W24999   3.857  24.613   4.494
52685W        W25000  27.530   1.895   4.502
52686W        W25001  26.172  30.121   3.679
52687W        W25002   2.438  36.542  14.765
52688W        W25003  14.751  26.330   4.065
52689W        W25004   3.710  35.538   4.521
52690W        W25005  40.031  13.438   2.118
52691W        W25006  17.842   8.724   3.249
52692W        W25007  35.705  37.318  12.785
52693W        W25008   4.270   0.930   1.370
52694W        W25009  31.498  17.382   0.231
52695W        W25010  11.197  13.851   1.341
52696W        W25011  17.479  17.157  13.857
52697W        W25012  36.829  40.548  14.065
52698W        W25013   4.736  14.147   0.445
52699W        W25014  29.527   7.276   0.672
52700W        W25015  30.247  42.505   3.359
52701W        W25016  24.148  21.558  10.140
52702W        W25017  42.509  18.503   4.496
52703W        W25018  27.429  41.061  13.563
52704W        W25019  12.179   6.434  13.428
52705W        W25020  20.757   0.884   1.905
52706W        W25021  30.492  11.098  14.858
52707W        W25022  12.912  30.533   2.411
52708W        W25023  33.571  32.536   1.629
52709W        W25024  18.618  19.675   0.052
52710W        W25025  31.677  40.876  11.895
52711W        W25026  40.929  29.703   3.671
52712W        W25027  18.817  16.122   0.960
52713W        W25028  34.587   6.229  14.097
52714W        W25029  38.640  17.566   2.514
52715W        W25030  44.528  23.995  13.222
52716W        W25031   8.654  25.257  13.874
52717W        W25032   7.694  21.662  13.970
52718W        W25033  19.614   9.677  10.553
52719W        W25034  44.634   8.130  14.591
52720W        W25035   0.373  21.195  11.628
52721W        W25036  24.163   6.175  10.476
52722W        W25037  18.066  40.424   1.783
52723W        W25038  32.145  32.106   1.892
52724W        W25039  32.146  15.209   3.844
52725W        W25040   7.327  37.863   1.869
52726W        W25041  38.289  18.151  13.896
52727W        W25042  33.061   1.010   4.661
52728W        W25043  27.939  26.134   4.678
52729W        W25044  21.179  39.054   2.156
52730W        W25045  12.817  14.982  14.498
52731W        W25046  30.990  11.486   1.872
52732W        W25047  31.964  17.567  14.479
52733W        W25048  42.769  17.632  12.982
52734W        W25049  36.470  44.352   4.409
52735W        W25050  21.272  38.971   3.706
52736W        W25051  21.708  36.608   2.193
52737W        W25052   2.150  41.410   1.357
52738W        W25053  17.465  40.918   0.325
52739W        W25054   8.287  34.918  14.766
52740W        W25055  34.166   7.182  13.350
52741W        W25056  10.183  33.042  13.409
52742W        W25057  28.451   9.405  13.486
52743W        W25058  18.381  23.613  11.329
52744W        W25059  11.196  19.793   2.627
52745W        W25060  20.261  17.371  11.080
52746W        W25061  26.162  44.488  11.417
52747W        W25062   0.964   4.915   0.415
52748W        W25063  18.518  36.601  14.091
52749W        W25064  31.051  23.126  13.781
52750W        W25065  35.480  23.806   4.276
52751W        W25066  14.103   4.706  12.850
52752W        W25067  22.062  18.455   3.187
52753W        W25068  31.104   4.743  13.742
52754W        W25069  44.004  19.828  12.451
52755W        W25070  34.928  16.200   4.573
52756W        W25071  33.067  29.575   3.670
52757W        W25072  12.327  31.987  12.362
52758W        W25073   0.395  14.043   2.587
52759W        W25074  32.940   7.679   0.576
52760W        W25075  17.017  35.283   2.708
52761W        W25076   8.231  38.903   4.084
52762W        W25077  18.433  29.871   1.205
52763W        W25078  20.747  22.968   1.803
52764W        W25079  25.443  30.396   4.148
52765W        W25080  42.328  44.004   1.293
52766W        W25081  10.892  15.597  12.683
52767W        W25082  29.874  21.027  11.127
52768W        W25083  28.162  44.640  12.112
52769W        W25084  32.637  19.945  13.615
52770W        W25085  37.017  40.253  13.352
52771W        W25086  20.118  16.135  10.591
52772W        W25087  17.225  10.137  13.048
52773W        W25088  35.803  43.399  12.407
52774W        W25089  40.282  14.641   2.617
52775W        W25090  43.271  12.682   4.478
52776W        W25091  18.587  18.159  12.899
52777W        W25092  13.115  27.973  13.927
52778W        W25093   6.120  26.505   2.936
52779W        W25094   4.230  21.992   4.123
52780W        W25095  12.509  42.142  11.849
52781W        W25096  12.735  33.938  14.009
52782W        W25097  38.411  28.155  13.913
52783W        W25098  10.266  23.104  12.398
52784W        W25099   0.391  35.889   5.019
52785W        W25100  38.487  44.056  14.794
52786W        W25101  26.054   2.361  12.048
52787W        W25102  42.936  11.226   4.386
52788W        W25103  21.566   5.954  13.344
52789W        W25104  28.621   6.919   0.281
52790W        W25105  23.477  44.398  14.694
52791W        W25106  44.474  33.438   3.339
52792W        W25107  19.808  25.891   2.137
52793W        W25108  36.606  42.329   2.701
52794W        W25109   7.228  18.714   2.300
52795W        W25110   7.822  25.229   3.740
52796W        W25111   7.650  22.057   5.078
52797W        W25112  44.565  27.141  13.696
52798W        W25113  31.030  36.361  13.708
52799W        W25114   1.975  16.202   0.390
52800W        W25115  43.388  35.344   1.803
52801W        W25116   1.766  15.562   2.294
52802W        W25117  18.546   0.688   1.925
52803W        W25118  30.497  21.073  14.925
52804W        W25119  27.600  33.812   4.097
52805W        W25120  30.557   9.027  13.518
52806W        W25121  40.859  37.769   4.252
52807W        W25122  30.035  14.635   0.490
52808W        W25123   6.920  32.837   0.287
52809W        W25124  15.317  16.667   2.502
52810W        W25125   1.448  37.146  13.477
52811W        W25126  18.209  36.454   2.577
52812W        W25127  24.581  14.824  12.481
52813W        W25128  38.564  42.414  11.070
52814W        W25129  39.807  19.836   4.332
52815W        W25130   8.377  32.702  12.421
52816W        W25131   2.427   9.465  12.269
52817W        W25132  38.979  14.137   1.569
52818W        W25133   3.902   3.191  11.089
52819W        W25134   4.422  16.373   4.189
52820W        W25135  30.061   5.748   1.834
52821W        W25136  29.908  18.595  11.706
52822W        W25137  14.209  31.559  11.913
52823W        W25138  25.222  27.133  14.753
52824W        W25139  24.805  22.523  13.167
52825W        W25140   9.951  44.934  10.653
52826W        W25141  30.081  43.764  12.641
52827W        W25142  22.827  20.044  10.281
52828W        W25143  29.497  14.910  13.355
52829W        W25144  33.546  20.861   3.192
52830W        W25145  26.791  42.901  14.433
52831W        W25146   4.704   1.272  12.363
52832W        W25147  31.895  28.217  12.135
52833W        W25148  13.093   9.896   3.215
52834W        W25149   5.854  30.130  10.437
52835W        W25150  17.874   3.427  12.194
52836W        W25151  25.414  38.595   3.234
52837W        W25152  11.705  37.565  12.857
52838W        W25153   2.168   1.366   2.204
52839W        W25154   0.406  39.478  13.837
52840W        W25155  32.688  32.079  13.918
52841W        W25156   3.395  27.892  11.851
52842W        W25157  33.592  12.253  11.341
52843W        W25158   9.730  37.181  13.537
52844W        W25159  40.189  28.654   4.763
52845W        W25160  13.374  21.727   1.252
52846W        W25161  30.607   2.272  11.670
52847W        W25162  19.678  31.648  14.606
52848W        W25163  30.903   6.483  13.024
52849W        W25164   1.913  22.362  12.426
52850W        W25165  44.800  27.076   3.090
52851W        W25166   1.353  38.879   1.261
52852W        W25167  25.146  38.132   0.837
52853W        W25168   8.863  38.078   0.698
52854W        W25169  41.569  32.289  11.524
52855W        W25170   7.637  17.290   4.112
52856W        W25171  16.632   3.628  12.639
52857W        W25172  13.963  11.654  11.533
52858W        W25173  44.801  42.768  11.555
52859W        W25174  17.399  33.810   0.007
52860W        W25175  22.100  24.715  13.416
52861W        W25176  33.928   7.628   2.158
52862W        W25177  38.525  42.040   4.222
52863W        W25178  44.012  12.255   5.613
52864W        W25179  29.628  28.081   2.557
52865W        W25180  40.838   5.561   2.142
52866W        W25181  42.986  38.194  12.515
52867W        W25182   5.159   7.215  14.270
52868W        W25183   4.255  29.835   2.810
52869W        W25184  42.133  19.585   1.231
52870W        W25185  43.911   6.940   3.277
52871W        W25186  37.343  26.922  11.491
52872W        W25187  22.774  42.975  11.758
52873W        W25188  10.224  23.127   1.632
52874W        W25189   0.509  31.870   1.028
52875W        W25190   9.350  30.506   4.536
52876W        W25191  12.584   3.612  10.619
52877W        W25192  21.763   1.798   1.689
52878W        W25193  37.952  35.959   4.456
52879W        W25194  16.632  21.935   0.725
52880W        W25195  28.354   3.457   3.185
52881W        W25196  32.181  24.074  11.919
52882W        W25197  15.184  38.292   3.241
52883W        W25198   4.393  10.609   4.108
52884W        W25199  39.077  22.751  10.658
52885W        W25200   6.104  13.220   0.892
52886W        W25201  20.553  17.670   4.041
52887W        W25202  13.914   2.485  14.075
52888W        W25203  44.470   6.468   0.789
52889W        W25204  10.150  18.013   4.497
52890W        W25205  29.147  21.276   1.728
52891W        W25206  41.595  10.750  12.510
52892W        W25207   5.338  28.157   2.589
52893W        W25208  16.045  37.104   1.849
52894W        W25209  10.260  38.379   2.703
52895W        W25210  43.227  43.080   4.139
52896W        W25211  42.540  38.748  10.527
52897W        W25212  12.842   6.120  11.716
52898W        W25213  35.373  40.955  13.127
52899W        W25214  10.269  41.088   2.647
52900W        W25215  29.231   3.358   0.317
52901W        W25216  31.568   3.749   1.341
52902W        W25217  42.491  25.568   0.209
52903W        W25218  27.142  25.723  14.865
52904W        W25219  38.856  41.766  10.980
52905W        W25220   4.025  27.203  10.668
52906W        W25221  21.927   2.738   0.396
52907W        W25222  27.562  24.254  12.934
52908W        W25223  33.816  37.356  14.581
52909W        W25224  25.408  23.091   4.603
52910W        W25225  24.753  10.078   4.881
52911W        W25226  30.909  33.166  13.390
52912W        W25227  39.877  21.986   1.706
52913W        W25228  24.183  42.853  12.556
52914W        W25229  44.577   0.252  13.691
52915W        W25230  21.817   6.675  14.510
52916W        W25231   5.478  33.814  13.853
52917W        W25232  14.271  13.833  12.895
52918W        W25233   9.852  16.278  13.475
52919W        W25234  20.177  43.644   4.842
52920W        W25235  25.586  19.237  14.884
52921W        W25236  20.350  19.071  13.278
52922W        W25237  12.282   2.673   0.422
52923W        W25238  33.503  38.618   2.731
52924W        W25239  34.863   8.425  11.931
52925W        W25240  43.556  16.546  10.954
52926W        W25241  35.046  25.122   3.690
52927W        W25242   6.503  42.789  13.902
52928W        W25243   2.715  35.467   0.979
52929W        W25244   6.384  18.336   3.621
52930W        W25245  32.565   5.241   0.306
52931W        W25246  11.816  26.544  11.566
52932W        W25247   7.186  19.521   4.179
52933W        W25248  36.601  25.435  11.120
52934W        W25249  26.385  34.917   3.790
52935W        W25250  25.926  36.077   4.064
52936W        W25251   5.067  18.461   4.716
52937W        W25252  22.214   9.704   3.362
52938W        W25253  12.341  32.596   1.777
52939W        W25254  12.005  20.609   2.077
52940W        W25255  22.272   1.388  14.055
52941W        W25256   3.152   3.370   1.368
52942W        W25257   2.380  29.728   1.412
52943W        W25258  26.136   5.251  10.347
52944W        W25259  27.430  19.994   3.302
52945W        W25260  44.124   9.213  10.187
52946W        W25261   5.722   4.041   1.720
52947W        W25262  17.564  44.450   0.273
52948W        W25263  25.651  28.928   0.640
52949W        W25264  16.564  41.912   1.642
52950W        W25265  42.051   2.212  12.640
52951W        W25266  23.076  41.566   3.161
52952W        W25267   2.541  24.616  12.334
52953W        W25268  32.205  21.615   3.369
52954W        W25269  32.556  29.680  13.244
52955W        W25270  32.807  40.399  13.574
52956W        W25271   3.410  39.584   1.209
52957W        W25272  35.305   2.253   0.401
52958W        W25273   9.184   7.160   0.393
52959W        W25274  36.058  41.306   4.847
52960W        W25275   7.925  38.067   4.228
52961W        W25276  34.110  17.857   1.361
52962W        W25277  33.387   4.705   1.718
52963W        W25278  18.671  34.134  13.850
52964W        W25279  22.639  25.760   0.411
52965W        W25280  40.130  33.967  13.616
52966W        W25281  32.302  37.732  12.092
52967W        W25282  23.019  40.333  13.845
52968W        W25283  13.669  28.427   3.375
52969W        W25284  34.867  31.104  14.222
52970W        W25285  33.644  42.898   1.516
52971W        W25286   2.458   5.678  11.753
52972W        W25287  28.672  31.103   3.041
52973W        W25288  14.694  13.630   2.901
52974W        W25289  44.063  18.127  12.938
52975W        W25290   7.615  15.667   3.365
52976W        W25291  11.079   9.689   0.785
52977W        W25292   8.755  39.752  11.649
52978W        W25293  35.808   1.976  11.446
52979W        W25294  11.443   3.522  11.114
52980W        W25295  44.317   3.416   4.641
52981W        W25296  38.138  21.682  12.549
52982W        W25297   6.482  25.268   1.988
52983W        W25298  27.497  26.827  10.949
52984W        W25299  18.805  27.723   3.337
52985W        W25300  26.058  27.688   2.339
52986W        W25301  24.780  23.687   3.185
52987W        W25302  24.452  42.806  11.573
52988W        W25303  32.449  22.245   0.034
52989W        W25304  40.649  18.180  10.971
52990W        W25305  10.280  11.631  10.656
52991W        W25306  43.788  27.602   0.361
52992W        W25307  39.892  14.714   4.010
52993W        W25308  39.355  36.572  11.609
52994W        W25309  29.477  20.515   0.675
52995W        W25310   3.234   5.741   0.435
52996W        W25311   3.767  43.856  12.073
52997W        W25312  19.831  27.079   4.461
52998W        W25313  32.916  10.905   0.739
52999W        W25314  43.526  38.453   1.351
53000W        W25315  36.592  30.596   2.292
53001W        W25316  26.536   9.355  11.379
53002W        W25317  26.229   3.935  11.419
53003W        W25318  28.603  43.306  10.836
53004W        W25319  13.527   5.688   4.034
53005W        W25320  20.244  44.660   4.602
53006W        W25321  16.287  24.090  11.760
53007W        W25322   3.685  44.286   2.242
53008W        W25323  42.838  12.740   1.226
53009W        W25324  41.288   6.176   4.595
53010W        W25325  33.487   8.362  14.434
53011W        W25326  36.119   2.793   0.226
53012W        W25327   9.785  22.028  12.140
53013W        W25328  19.049   8.416  10.197
53014W        W25329  42.246  39.930   3.620
53015W        W25330  38.371  31.621  10.944
53016W        W25331  30.933  40.196  14.887
53017W        W25332   7.124  24.486   4.560
53018W        W25333  37.410   7.432   0.937
53019W        W25334  30.038  28.023   1.575
53020W        W25335  12.667  25.117   4.178
53021W        W25336   4.485  27.970   0.987
53022W        W25337  11.948  22.092   0.998
53023W        W25338  44.281   7.122  11.877
53024W        W25339   4.172  17.062  10.619
53025W        W25340  20.654  22.166  11.427
53026W        W25341   3.368  35.429  14.821
53027W        W25342   7.216  42.964   0.733
53028W        W25343  40.770  30.460  10.542
53029W        W25344  10.261   2.773   3.821
53030W        W25345  15.369  40.307   4.179
53031W        W25346   9.386  39.340   1.400
53032W        W25347  40.816  37.310  14.452
53033W        W25348  10.888  26.222   0.271
53034W        W25349   7.299  19.800   2.912
53035W        W25350  30.335   9.222   1.321
53036W        W25351   2.181  36.974  14.995
53037W        W25352  31.548  22.673  12.135
53038W        W25353   3.289  34.551   3.785
53039W        W25354  40.523  29.693  13.896
53040W        W25355  20.026  44.079   3.755
53041W        W25356  31.008  37.782   2.241
53042W        W25357  35.455   6.327   4.169
53043W        W25358   3.877  44.716   0.481
53044W        W25359  30.625  34.023  13.540
53045W        W25360   6.159  11.770   2.799
53046W        W25361  29.628  30.882   4.402
53047W        W25362   4.161  22.639  11.579
53048W        W25363  11.285  17.265   4.074
53049W        W25364  28.441   1.900  12.997
53050W        W25365  35.124  26.184   1.387
53051W        W25366  41.668  41.682  10.297
53052W        W25367  43.858  33.715  13.546
53053W        W25368  25.526   1.032  14.279
53054W        W25369  34.470  12.646   2.464
53055W        W25370  22.255  41.897  10.696
53056W        W25371   3.635  19.023  14.749
53057W        W25372  33.025  37.283   0.677
53058W        W25373   4.181  36.334  13.478
53059W        W25374  33.981  43.258   2.749
53060W        W25375  16.732  10.370  14.766
53061W        W25376  26.009  28.729   2.362
53062W        W25377  38.251  14.864   3.513
53063W        W25378   9.872  23.107  13.163
53064W        W25379   5.456  22.795  13.835
53065W        W25380  17.554  40.561  12.526
53066W        W25381  24.479  33.093   0.199
53067W        W25382   3.484   8.888  12.442
53068W        W25383  10.611   3.270  13.474
53069W        W25384  29.408  23.711   4.078
53070W        W25385  20.083  38.336   1.655
53071W        W25386  24.311  31.607   3.820
53072W        W25387  42.378  11.894   1.728
53073W        W25388  13.698  14.712  11.147
53074W        W25389  32.154  33.423  13.930
53075W        W25390  16.665  14.043  14.799
53076W        W25391  36.401   5.039   1.200
53077W        W25392  29.558  32.201   0.326
53078W        W25393  11.353  29.914  12.419
53079W        W25394  40.528   4.338  11.059
53080W        W25395   3.368   6.471   4.130
53081W        W25396  31.548  15.859   3.244
53082W        W25397  15.593  42.581  13.146
53083W        W25398   2.998  34.130  11.421
53084W        W25399  24.438  25.668   2.735
53085W        W25400  29.618  44.796  11.344
53086W        W25401  40.377   5.968   4.327
53087W        W25402  38.614  25.498   5.144
53088W        W25403  16.653   0.520   4.242
53089W        W25404  35.838   3.387  11.483
53090W        W25405   1.414  20.498   2.922
53091W        W25406   5.417  36.115   3.766
53092W        W25407  39.433  36.019  12.882
53093W        W25408  29.503  26.052  12.060
53094W        W25409   3.282  43.920   2.097
53095W        W25410  37.123  18.653  10.920
53096W        W25411  22.112  41.487   2.531
53097W        W25412  32.510  32.863   4.051
53098W        W25413  21.807  13.533  11.611
53099W        W25414   9.589  22.650   2.660
53100W        W25415  25.050  16.282  11.698
53101W        W25416  41.858  11.690   2.982
53102W        W25417  32.129  29.141  13.863
53103W        W25418  27.526   6.698   5.005
53104W        W25419  19.596  38.787  12.589
53105W        W25420   2.050  17.363   4.318
53106W        W25421  22.517   9.960   3.723
53107W        W25422   3.464  12.632   1.250
53108W        W25423  37.411  23.113  13.598
53109W        W25424  38.426  21.745   0.464
53110W        W25425  23.603  13.861   3.211
53111W        W25426  40.540   7.377   4.438
53112W        W25427   4.537  23.763   1.263
53113W        W25428  35.146  21.112   1.320
53114W        W25429   1.812  19.125   2.269
53115W        W25430  21.665  30.493  14.773
53116W        W25431  37.081  24.623   3.578
53117W        W25432   3.744  32.047   4.133
53118W        W25433  21.676  20.514  14.786
53119W        W25434  42.956  26.848  11.290
53120W        W25435   4.786  21.738   2.759
53121W        W25436  17.832   0.306   4.650
53122W        W25437  21.993  40.877   2.827
53123W        W25438  23.233  39.108  12.572
53124W        W25439  32.222  21.654  13.315
53125W        W25440  24.195  15.261   3.344
53126W        W25441  19.716  38.134   0.040
53127W        W25442  40.024  29.045   2.707
53128W        W25443  37.501  24.651   3.913
53129W        W25444  34.483   3.894  13.548
53130W        W25445  41.044  38.409  12.094
53131W        W25446  27.092  43.761  10.966
53132W        W25447  13.317  18.306  12.397
53133W        W25448  29.095   1.518  11.168
53134W        W25449  44.272  42.257  13.022
53135W        W25450  20.501  37.299  13.852
53136W        W25451   6.150  14.053  13.371
53137W        W25452  26.055  37.864  11.982
53138W        W25453  32.373  34.471  14.316
53139W        W25454  10.286  36.929  10.822
53140W        W25455  44.802  37.052   3.236
53141W        W25456  16.717  11.642   0.481
53142W        W25457  36.878   0.078   4.138
53143W        W25458  25.274  44.238  13.007
53144W        W25459  29.396  33.168   1.638
53145W        W25460  44.020  31.146   4.253
53146W        W25461  28.074  22.153  13.398
53147W        W25462   2.636  28.988   0.705
53148W        W25463  27.663  37.327   1.461
53149W        W25464  40.804  30.572   3.913
53150W        W25465  26.222   2.333   2.131
53151W        W25466  10.658   4.651   4.157
53152W        W25467  36.028   8.699  10.977
53153W        W25468  24.332  10.739  13.889
53154W        W25469  11.863   8.607   2.633
53155W        W25470  37.929   4.718  13.731
53156W        W25471  44.467  35.633   2.874
53157W        W25472  13.585   2.893  14.088
53158W        W25473  32.785  40.668   1.450
53159W        W25474  10.812  12.840  13.907
53160W        W25475   5.915   2.291  13.960
53161W        W25476   7.808  22.025  14.821
53162W        W25477  20.674  19.248   1.372
53163W        W25478   5.118  15.162  10.787
53164W        W25479  31.602  43.242  10.839
53165W        W25480  37.084   3.967   4.863
53166W        W25481  12.875   5.777  10.896
53167W        W25482  42.946   3.857  11.558
53168W        W25483   7.341  13.855   0.894
53169W        W25484  35.842  24.651  14.747
53170W        W25485  16.277  16.290   3.917
53171W        W25486  41.940   2.637   0.155
53172W        W25487  21.078  27.121   0.350
53173W        W25488  38.432   3.866   2.493
53174W        W25489  31.067   1.372   3.277
53175W        W25490  38.580  39.681  13.833
53176W        W25491  17.223  23.191   1.825
53177W        W25492  26.459  28.968  13.950
53178W        W25493  19.226  15.116  11.881
53179W        W25494  24.332  26.587  14.869
53180W        W25495  37.662  32.865  14.433
53181W        W25496  15.348  40.512  14.337
53182W        W25497   6.640  23.087   2.857
53183W        W25498   4.899  34.575  13.455
53184W        W25499   9.102  33.415   0.436
53185W        W25500   7.262   1.189  14.790
53186W        W25501  22.492  19.680  12.870
53187W        W25502  23.164  32.336  12.010
53188W        W25503  32.911   9.307   2.436
53189W        W25504  23.075  30.914  14.797
53190W        W25505  39.477  28.517  11.017
53191W        W25506   5.298   4.879   0.446
53192W        W25507  29.424  32.462   3.248
53193W        W25508  28.635  43.532  14.599
53194W        W25509   5.702  35.571  13.324
53195W        W25510  21.108  36.519   3.060
53196W        W25511  27.154   4.802  14.420
53197W        W25512  35.096   5.794   2.832
53198W        W25513   1.487  31.655   2.592
53199W        W25514  23.377  14.745  11.973
53200W        W25515  41.126   2.943   1.345
53201W        W25516  24.023  10.181   5.063
53202W        W25517  19.317  43.834   4.011
53203W        W25518  44.361  29.326   0.947
53204W        W25519   0.307  20.786   4.380
53205W        W25520   5.340  17.497   0.744
53206W        W25521  41.221   7.937   4.122
53207W        W25522  38.878  41.790   0.720
53208W        W25523   8.311  39.819   3.633
53209W        W25524  10.893  35.062   4.513
53210W        W25525  34.322  18.509  10.526
53211W        W25526  14.784  43.050   2.281
53212W        W25527  34.844  11.217   4.158
53213W        W25528  34.459  32.152   0.783
53214W        W25529   4.453  10.218  14.920
53215W        W25530  19.757   6.152  10.747
53216W        W25531  40.089  33.577   4.292
53217W        W25532  20.631  38.589   2.285
53218W        W25533  41.112  11.797   0.774
53219W        W25534  16.819  21.158   2.957
53220W        W25535   0.649  43.883  11.737
53221W        W25536   5.750   3.935  13.366
53222W        W25537  16.060  11.927  13.500
53223W        W25538  37.399  28.538   3.762
53224W        W25539  28.628  20.250   0.912
53225W        W25540  26.742  23.891   0.175
53226W        W25541   8.907  31.442  13.459
53227W        W25542   2.904  23.112  10.706
53228W        W25543  11.680  34.886  12.385
53229W        W25544  39.124   0.962  10.747
53230W        W25545  22.677   5.194   1.263
53231W        W25546  35.798   4.731  11.401
53232W        W25547  21.533  10.840   1.832
53233W        W25548  32.930  15.245  10.527
53234W        W25549  19.186  28.558   1.247
53235W        W25550   8.029  38.251   2.565
53236W        W25551  20.990  36.331  12.784
53237W        W25552  14.259  39.063   2.308
53238W        W25553  33.508  31.694  14.723
53239W        W25554  11.774  20.324  11.393
53240W        W25555  12.141  35.111  12.399
53241W        W25556  37.359   6.664  12.074
53242W        W25557  26.917  36.585  10.413
53243W        W25558  41.998  36.496  10.488
53244W        W25559   4.984  17.614   5.162
53245W        W25560   3.886  42.491   0.801
53246W        W25561  36.709  27.969   2.237
53247W        W25562   6.973  44.788  12.251
53248W        W25563  28.106  20.262  10.682
53249W        W25564  39.097  40.112  12.177
53250W        W25565  15.289  14.384  10.675
53251W        W25566  29.702   9.329  13.072
53252W        W25567   2.637  25.498  12.326
53253W        W25568  16.538  44.281   0.187
53254W        W25569  18.340  23.760   1.807
53255W        W25570  28.581  40.757   3.659
53256W        W25571  21.762   9.600  13.363
53257W        W25572  20.262  18.500   4.506
53258W        W25573  39.328  37.422   0.807
53259W        W25574  36.168  10.804   1.306
53260W        W25575  22.779  33.137  11.977
53261W        W25576   4.796   9.300  14.487
53262W        W25577   0.675  40.056   2.666
53263W        W25578   0.707  10.240   1.283
53264W        W25579  44.768  24.698   1.422
53265W        W25580  33.557  11.666   2.792
53266W        W25581  29.865  27.627   2.711
53267W        W25582  16.442  25.910   0.337
53268W        W25583  24.565   1.018  12.022
53269W        W25584  14.567  17.259   1.484
53270W        W25585   9.265  22.736   4.876
53271W        W25586   9.303  33.633   2.438
53272W        W25587  21.048  24.710  10.838
53273W        W25588  41.766  13.898  11.383
53274W        W25589   7.263  39.526   1.199
53275W        W25590  43.500  26.751  11.203
53276W        W25591  28.372  35.033  12.034
53277W        W25592  26.000   1.368  11.571
53278W        W25593  17.125  38.276  14.349
53279W        W25594   2.254   6.660   0.265
53280W        W25595  16.276  12.554  12.587
53281W        W25596  20.924   9.643  13.001
53282W        W25597  14.197  33.939  14.549
53283W        W25598  18.795  32.798  14.464
53284W        W25599  15.099   4.888  13.941
53285W        W25600  41.360   1.761   1.664
53286W        W25601  13.651  10.796   3.616
53287W        W25602  38.452   5.337  10.695
53288W        W25603  35.579   7.685   4.110
53289W        W25604  17.263  23.151   3.284
53290W        W25605   6.828  12.118  12.641
53291W        W25606  26.114  11.395   3.235
53292W        W25607  37.751  40.992   0.240
53293W        W25608  17.506   4.359   4.819
53294W        W25609  22.766  33.705  10.106
53295W        W25610   5.371   2.837   2.385
53296W        W25611   5.797  41.044  14.414
53297W        W25612  37.112  42.493  11.375
53298W        W25613  22.672  37.377   1.921
53299W        W25614   9.703  33.717   2.764
53300W        W25615  11.137   2.135  13.966
53301W        W25616  40.861  40.547  11.621
53302W        W25617  33.574   6.704   4.978
53303W        W25618  14.059  12.855  11.029
53304W        W25619  22.021  13.426  14.901
53305W        W25620   7.099   1.828  13.295
53306W        W25621  33.840  38.835   1.709
53307W        W25622   1.433  23.673  11.610
53308W        W25623  14.125  33.376   3.731
53309W        W25624  10.435  17.725  13.940
53310W        W25625  36.082  11.425  14.367
53311W        W25626  28.440  25.868   0.891
53312W        W25627  17.771  23.771   3.946
53313W        W25628   9.662  13.573   2.337
53314W        W25629  37.930  17.747   9.918
53315W        W25630  18.568  35.958  13.421
53316W        W25631  22.311  27.000  11.002
53317W        W25632  22.975  12.746  14.514
53318W        W25633  37.418  22.589   2.653
53319W        W25634  41.457  17.647   0.247
53320W        W25635  12.158  14.335  12.161
53321W        W25636   7.234  36.469  10.850
53322W        W25637   4.880  18.073  13.373
53323W        W25638  36.832  39.969   4.675
53324W        W25639  26.489  40.607  12.861
53325W        W25640  19.672  31.099   1.274
53326W        W25641   1.515  35.125  10.694
53327W        W25642  10.804  12.437   4.140
53328W        W25643  23.447  28.405   0.895
53329W        W25644  23.094  39.031  14.423
53330W        W25645   8.111  25.719   2.646
53331W        W25646  24.802   4.936  11.153
53332W        W25647  14.867  44.938   4.141
53333W        W25648  39.405  12.153  10.732
53334W        W25649   9.141  30.335  12.133
53335W        W25650  28.698  23.012   1.260
53336W        W25651  38.320  25.463  13.622
53337W        W25652   8.722  11.587   2.404
53338W        W25653  29.739   0.384   4.773
53339W        W25654   0.394  37.098  10.279
53340W        W25655  13.648  14.144  13.791
53341W        W25656   4.945  17.701  13.740
53342W        W25657  28.934  30.927  11.982
53343W        W25658  36.646  37.379  14.790
53344W        W25659  24.940  39.795  11.672
53345W        W25660  10.875  35.496  14.536
53346W        W25661  20.192  24.437   1.251
53347W        W25662  42.965   6.638   3.012
53348W        W25663   6.499  21.436   5.113
53349W        W25664  32.894  39.038  12.565
53350W        W25665  30.880  17.289  12.066
53351W        W25666  40.968  37.205   1.305
53352W        W25667  16.232   6.865  11.055
53353W        W25668  13.797  34.037   3.630
53354W        W25669  28.455  26.625   0.496
53355W        W25670  11.751  34.144  14.947
53356W        W25671  16.693   9.287  13.714
53357W        W25672  18.479   3.185   4.824
53358W        W25673  35.454   3.278  13.797
53359W        W25674   6.471  18.995  12.111
53360W        W25675  29.371  43.186  12.366
53361W        W25676  38.068  29.838  10.844
53362W        W25677  40.985  38.334   0.434
53363W        W25678  28.941  38.287   2.233
53364W        W25679  10.869  19.255   4.649
53365W        W25680  32.727  18.093  11.517
53366W        W25681   9.597  35.143   1.400
53367W        W25682  11.186  35.552  14.971
53368W        W25683  37.832  33.581   1.874
53369W        W25684  18.519   1.368  14.913
53370W        W25685  37.366  30.936  11.131
53371W        W25686   4.870  27.767   1.260
53372W        W25687  14.653  42.731  13.545
53373W        W25688  18.745  38.337   4.931
53374W        W25689  36.505  36.453   1.690
53375W        W25690  26.225   2.876  14.687
53376W        W25691  17.135  27.942   4.142
53377W        W25692  39.926  19.012   2.294
53378W        W25693  30.400  30.117  11.713
53379W        W25694   7.726  12.873   0.159
53380W        W25695  23.194  28.424  13.468
53381W        W25696  34.232  16.044   2.804
53382W        W25697  22.027   0.876   3.240
53383W        W25698  23.206  36.864   4.170
53384W        W25699   6.524  21.548   0.692
53385W        W25700   4.020  10.172   3.369
53386W        W25701  40.085  20.731   1.393
53387W        W25702  14.329  24.588  14.248
53388W        W25703   8.431   1.857  12.807
53389W        W25704  14.751  12.294   1.825
53390W        W25705  20.719  18.236  14.479
53391W        W25706  37.478  32.189  14.845
53392W        W25707  21.822   3.188   3.526
53393W        W25708  27.897   5.691  14.370
53394W        W25709  23.590   6.665  12.582
53395W        W25710  25.741  42.948   9.869
53396W        W25711  16.158  23.224  12.752
53397W        W25712  16.836   3.900   3.764
53398W        W25713  14.224   8.697   3.689
53399W        W25714  16.222  36.404  11.567
53400W        W25715  33.300  28.879   1.449
53401W        W25716  29.450  32.705  12.939
53402W        W25717  25.808   6.772   0.101
53403W        W25718   4.813  18.144  12.055
53404W        W25719  32.206  27.374   2.660
53405W        W25720  25.143   8.271   2.884
53406W        W25721   5.175  23.738  13.026
53407W        W25722  14.243  34.809   0.608
53408W        W25723  13.619  42.331   3.236
53409W        W25724   3.891  14.763   2.331
53410W        W25725  27.237  20.228  11.039
53411W        W25726  10.843   1.897  10.643
53412W        W25727   8.230  22.089   2.693
53413W        W25728  29.900   2.792  11.151
53414W        W25729  26.658  16.087  14.423
53415W        W25730  11.159  28.103  11.919
53416W        W25731  23.223   1.901   2.354
53417W        W25732  44.722  35.611   4.095
53418W        W25733  14.847   0.485  14.964
53419W        W25734  29.964  44.751  14.813
53420W        W25735  20.105  23.161   1.246
53421W        W25736  41.507  15.791   1.417
53422W        W25737  19.174  13.483   1.462
53423W        W25738  36.253  31.835   4.751
53424W        W25739  38.893  16.987  12.609
53425W        W25740  42.398  11.641   0.239
53426W        W25741   1.888   8.740  13.669
53427W        W25742  10.141  44.369   5.021
53428W        W25743  23.804  23.725  14.499
53429W        W25744  21.954  34.082   2.207
53430W        W25745  14.515  38.593   3.182
53431W        W25746  19.026  22.137  12.380
53432W        W25747   9.622  39.574  13.410
53433W        W25748  33.587  18.112   1.992
53434W        W25749   7.708  10.002   0.842
53435W        W25750  11.378   2.571  12.937
53436W        W25751  32.759   1.638  14.511
53437W        W25752   3.900  13.590   0.269
53438W        W25753  13.477   9.828   0.304
53439W        W25754  14.871   0.538  13.588
53440W        W25755  37.153   6.748   1.230
53441W        W25756   2.428  16.819   2.800
53442W        W25757  27.859   4.803   4.359
53443W        W25758   5.622  21.510  11.511
53444W        W25759   0.897  20.254   0.671
53445W        W25760  24.512  39.480  13.845
53446W        W25761  33.851   8.077  14.739
53447W        W25762  20.223  16.446   4.309
53448W        W25763  17.261  35.071  13.973
53449W        W25764  37.304   4.126   1.265
53450W        W25765  42.991  16.703  10.487
53451W        W25766   9.819  23.032  10.533
53452W        W25767  41.325  30.219  12.585
53453W        W25768  11.261  42.860  11.939
53454W        W25769  12.053   8.833  10.238
53455W        W25770  36.580  31.139  12.130
53456W        W25771  38.576  34.124  12.851
53457W        W25772  41.383  24.473   1.379
53458W        W25773  19.323   3.713   0.338
53459W        W25774   3.694   4.134  14.466
53460W        W25775   3.837  15.136  14.611
53461W        W25776  15.587  40.932  11.618
53462W        W25777  25.898   2.171   1.753
53463W        W25778  42.011  41.235   3.764
53464W        W25779   0.168  10.796  14.244
53465W        W25780  32.898  16.675  13.857
53466W        W25781  12.018  27.278   1.762
53467W        W25782  17.763  11.661   0.383
53468W        W25783  37.826  20.609  13.819
53469W        W25784   7.748  23.910  12.929
53470W        W25785   3.647   5.930   3.210
53471W        W25786  18.565  14.155   1.377
53472W        W25787  11.830  40.625   4.585
53473W        W25788  15.254  15.600  13.055
53474W        W25789  29.617  21.256   1.979
53475W        W25790  35.619  31.623  11.992
53476W        W25791  21.811  35.392  11.447
53477W        W25792  17.593  12.543   3.271
53478W        W25793   6.364   2.961  14.985
53479W        W25794  24.736  30.703   3.867
53480W        W25795   1.843   6.917   0.484
53481W        W25796  20.800  21.629  11.432
53482W        W25797   0.688  28.037  11.111
53483W        W25798  12.351   5.900  11.570
53484W        W25799  10.769  43.029   3.629
53485W        W25800  15.102  10.588   1.396
53486W        W25801  44.366  36.662  14.439
53487W        W25802  21.585  38.333   3.309
53488W        W25803  17.627  35.993  12.555
53489W        W25804  40.470  11.404   3.257
53490W        W25805  29.622  35.074   4.618
53491W        W25806  43.277  10.720  14.416
53492W        W25807  12.551   2.333  13.772
53493W        W25808  29.441   0.429   0.693
53494W        W25809  31.145  27.660  11.983
53495W        W25810  27.011  19.733  11.023
53496W        W25811  35.852  13.426   0.681
53497W        W25812  11.199   0.569  14.278
53498W        W25813   2.391   6.357  12.117
53499W        W25814  26.981  15.618   4.625
53500W        W25815  43.479  27.906   2.899
53501W        W25816  19.444  33.078  13.810
53502W        W25817  10.735  13.096   4.824
53503W        W25818   6.646   0.182  12.905
53504W        W25819  23.448  11.248   0.055
53505W        W25820  40.921  23.479   2.233
53506W        W25821  37.024   6.230  11.433
53507W        W25822  39.875  43.808   0.698
53508W        W25823  29.608  29.935  13.464
53509W        W25824  25.738   9.265   2.851
53510W        W25825  20.198   7.185  11.937
53511W        W25826  21.648  40.809   2.362
53512W        W25827  43.676  23.284   3.156
53513W        W25828  31.684  32.947   3.855
53514W        W25829   1.543  40.169   1.618
53515W        W25830  31.426   4.285  14.841
53516W        W25831  25.771  35.840  12.850
53517W        W25832  37.792  35.946   0.024
53518W        W25833  40.072  26.600  13.748
53519W        W25834  26.169   3.534   2.673
53520W        W25835  37.533  19.063   3.092
53521W        W25836  28.610   0.270  11.015
53522W        W25837  41.221  25.055  14.465
53523W        W25838  26.049   2.938  11.212
53524W        W25839   2.705  13.663   0.790
53525W        W25840   2.179  44.871  10.987
53526W        W25841  36.275  33.054   1.961
53527W        W25842  12.869  24.150   3.174
53528W        W25843   5.446  37.850  11.535
53529W        W25844  10.794  25.600   3.085
53530W        W25845  15.262  39.799   2.953
53531W        W25846  25.746  18.580   3.177
53532W        W25847  38.053  28.623   3.131
53533W        W25848  28.622  40.092   2.150
53534W        W25849  42.538  29.137  10.619
53535W        W25850  41.343  14.313   1.861
53536W        W25851  22.850  32.493  13.288
53537W        W25852  18.308  10.243   1.210
53538W        W25853  42.333  17.788   0.070
53539W        W25854  36.561   0.722  12.446
53540W        W25855   6.398   2.413   3.576
53541W        W25856  42.903   5.640  11.579
53542W        W25857  36.611  42.920  13.847
53543W        W25858   1.815  43.869  12.831
53544W        W25859  28.452  27.257  12.842
53545W        W25860   7.410  30.738   1.088
53546W        W25861   5.301  19.269   4.671
53547W        W25862  13.822  23.418   1.248
53548W        W25863   2.969  18.475  11.440
53549W        W25864  18.868  36.592   1.272
53550W        W25865  16.822  41.814  14.799
53551W        W25866  25.448  36.628  13.625
53552W        W25867  15.576  34.559  10.727
53553W        W25868   3.013  36.491   4.223
53554W        W25869  28.534  24.876   0.954
53555W        W25870   8.135  19.054   2.368
53556W        W25871  31.420  30.087   1.131
53557W        W25872  23.970  22.207  10.505
53558W        W25873  41.065  27.976  12.427
53559W        W25874  17.819  19.141  13.503
53560W        W25875  44.392  20.190  12.509
53561W        W25876  21.705  16.117   0.362
53562W        W25877  30.714  28.369   4.091
53563W        W25878  21.044  35.542   3.233
53564W        W25879  13.226   5.641   3.071
53565W        W25880  40.377   6.443   5.063
53566W        W25881  12.154  33.828   2.935
53567W        W25882  24.275   9.587  13.196
53568W        W25883  18.810   0.957  13.511
53569W        W25884  44.381  16.889  14.413
53570W        W25885  14.338   7.346  10.601
53571W        W25886  33.481   5.670   1.978
53572W        W25887  26.667  27.551   3.297
53573W        W25888  34.069  26.624   0.870
53574W        W25889   5.627  12.450   2.133
53575W        W25890  32.606  44.019  13.866
53576W        W25891  30.045   5.236  14.382
53577W        W25892  22.583   6.867   1.755
53578W        W25893  39.956  39.651  13.072
53579W        W25894  31.594  26.684  10.543
53580W        W25895  18.666  18.507  10.674
53581W        W25896  30.036  28.035   0.193
53582W        W25897   4.890   7.812  10.940
53583W        W25898  10.815  13.297   0.907
53584W        W25899  34.135  26.423  13.609
53585W        W25900  18.787  12.612   0.225
53586W        W25901  24.073  20.661   1.432
53587W        W25902  22.288  21.080  14.457
53588W        W25903  36.857  41.014   4.731
53589W        W25904  37.050  19.652  13.869
53590W        W25905  19.251  27.818   4.137
53591W        W25906  14.968  23.753  12.144
53592W        W25907  16.745  13.284   0.882
53593W        W25908  37.364  10.355  11.163
53594W        W25909  19.366   4.753   4.062
53595W        W25910   4.464  42.338   1.686
53596W        W25911  18.012   2.918   1.374
53597W        W25912   6.856  30.737   2.450
53598W        W25913  21.262  25.516  11.902
53599W        W25914  42.106  14.872   4.140
53600W        W25915  24.953  10.290  10.624
53601W        W25916  15.576   8.888   4.032
53602W        W25917   4.741  32.442   1.289
53603W        W25918  35.617  11.081  12.590
53604W        W25919   8.508  26.131  12.906
53605W        W25920  37.339  30.094   1.244
53606W        W25921  36.966  19.961  10.675
53607W        W25922  13.392  29.572   1.309
53608W        W25923   6.327   8.611   5.217
53609W        W25924  16.837  25.104   3.320
53610W        W25925  25.132  38.072   2.311
53611W        W25926  28.670   2.317  14.113
53612W        W25927  11.369  21.313   3.340
53613W        W25928  40.028  40.783  12.606
53614W        W25929  27.973  43.377   2.661
53615W        W25930  14.204  32.607   1.176
53616W        W25931  18.686  21.497  12.980
53617W        W25932  26.347  32.824  11.675
53618W        W25933  25.037   8.841  11.643
53619W        W25934  11.919  28.062  14.692
53620W        W25935  27.244   9.046   4.511
53621W        W25936  19.597  43.727  11.124
53622W        W25937  27.588  41.004   1.841
53623W        W25938   2.751  24.749  14.013
53624W        W25939  42.493  39.677   4.054
53625W        W25940  30.612  37.750   2.866
53626W        W25941  31.090  38.598   0.902
53627W        W25942  22.769  38.961   4.470
53628W        W25943  17.181  23.121  11.177
53629W        W25944  28.164  31.594  14.692
53630W        W25945  44.037  40.209  11.170
53631W        W25946  28.741   4.813   0.492
53632W        W25947  16.619  29.483  14.268
53633W        W25948  28.047  38.357  12.430
53634W        W25949  17.144  30.931   2.774
53635W        W25950  13.697  37.381  11.892
53636W        W25951  44.511  24.026   2.446
53637W        W25952  33.377  36.347   2.323
53638W        W25953   8.379  20.565   2.621
53639W        W25954  32.660  14.045  11.101
53640W        W25955  22.509  28.430  13.929
53641W        W25956  13.873  13.204  13.925
53642W        W25957  43.395   7.900  11.551
53643W        W25958  37.876  41.555   3.107
53644W        W25959  37.008  27.422   3.433
53645W        W25960  33.066  34.670  13.232
53646W        W25961   6.550   2.207   0.783
53647W        W25962   1.762  20.780   4.409
53648W        W25963  28.549   6.774   4.586
53649W        W25964   9.228  12.789  13.578
53650W        W25965  34.745  31.393   2.782
53651W        W25966   6.684  32.581  13.990
53652W        W25967  12.742  11.147  14.429
53653W        W25968  11.298  18.206  13.994
53654W        W25969  40.000  26.621   3.188
53655W        W25970  15.838   9.932   0.471
53656W        W25971  41.858  16.597  14.067
53657W        W25972  22.742  35.280   3.216
53658W        W25973  15.155  37.388   1.440
53659W        W25974  44.822  11.374   2.371
53660W        W25975  42.945  17.016   2.781
53661W        W25976  14.708  38.866  14.867
53662W        W25977  20.573  21.075   1.460
53663W        W25978  11.065  43.436   4.765
53664W        W25979  28.257  34.942  14.298
53665W        W25980  13.090   7.047  11.522
53666W        W25981  35.880  16.115  13.239
53667W        W25982  27.971  31.627   2.181
53668W        W25983  11.810  30.052  11.684
53669W        W25984  10.793  29.482   2.442
53670W        W25985  18.106   6.881   2.386
53671W        W25986   2.083  17.523   2.269
53672W        W25987  26.159  40.923   0.009
53673W        W25988  22.253  26.279  12.572
53674W        W25989   1.984  10.508  10.810
53675W        W25990  17.791   2.655  11.124
53676W        W25991   8.969   1.103   2.919
53677W        W25992  31.597  39.027   0.288
53678W        W25993  35.309  32.316  11.052
53679W        W25994   8.398  36.349   1.377
53680W        W25995  39.508   9.679   3.279
53681W        W25996   2.921  25.480   0.382
53682W        W25997  39.892   9.365   1.909
53683W        W25998  18.360  35.510   4.860
53684W        W25999   7.382  36.944   2.793
53685W        W26000  22.729  34.060   4.916
53686W        W26001   8.674  19.544   3.321
53687W        W26002  19.217   5.166   1.832
53688W        W26003  33.029  23.734  14.447
53689W        W26004  26.565   0.270   4.296
53690W        W26005  14.895  25.984  12.088
53691W        W26006  10.175  39.879  12.821
53692W        W26007   4.828   4.490  13.632
53693W        W26008  14.313  36.174   1.819
53694W        W26009  28.632  16.684  14.302
53695W        W26010   7.790   3.126  10.353
53696W        W26011   9.803  39.781  11.886
53697W        W26012   4.820   0.220  12.577
53698W        W26013  28.902  40.312  12.004
53699W        W26014  16.780   9.405  13.205
53700W        W26015  29.980  41.864  11.460
53701W        W26016  41.005  35.148   0.923
53702W        W26017  39.556  19.790   0.218
53703W        W26018  31.574  22.053  13.555
53704W        W26019   1.480  43.583  11.201
53705W        W26020   3.924   1.575   1.855
53706W        W26021  15.420   1.807  14.362
53707W        W26022   2.405   3.707   3.514
53708W        W26023  31.035  21.429   1.648
53709W        W26024  26.744   1.827  12.419
53710W        W26025  41.761   5.943   0.496
53711W        W26026  28.167  15.588   2.327
53712W        W26027  33.524  14.092  11.989
53713W        W26028  33.508  13.418  13.866
53714W        W26029  23.116   0.368  13.084
53715W        W26030  25.016   5.797   4.538
53716W        W26031  41.941   3.256  11.817
53717W        W26032  18.593  16.776   0.803
53718W        W26033  36.784   8.939   4.046
53719W        W26034   2.453  22.965   2.142
53720W        W26035  35.882  17.310   1.359
53721W        W26036  27.496   5.662   0.051
53722W        W26037  21.064  27.818  11.561
53723W        W26038  42.672  15.645   2.728
53724W        W26039  11.278  13.095  11.194
53725W        W26040  31.596  28.707   3.703
53726W        W26041   0.858  40.410  13.580
53727W        W26042  43.403   5.128   4.658
53728W        W26043  18.646  44.299  11.516
53729W        W26044  12.156   7.908   1.808
53730W        W26045  39.913   5.986   1.333
53731W        W26046  11.035  38.186   3.415
53732W        W26047  34.173  34.437  13.909
53733W        W26048  17.742   9.184   4.350
53734W        W26049  21.083  13.370   1.289
53735W        W26050  44.966   5.327  13.505
53736W        W26051   3.406  25.730   1.271
53737W        W26052   0.750  26.582  13.004
53738W        W26053  23.351  17.708   1.297
53739W        W26054  41.072  20.587   2.127
53740W        W26055  32.177  38.067  13.322
53741W        W26056  21.575  15.604  14.057
53742W        W26057   3.177   6.843   0.966
53743W        W26058   4.418   0.255  14.302
53744W        W26059  44.446  10.159   4.650
53745W        W26060  13.664   3.320   2.379
53746W        W26061   8.931  13.237   0.803
53747W        W26062  21.065  22.236   3.805
53748W        W26063  40.024  32.526  14.373
53749W        W26064  40.557  31.619  12.451
53750W        W26065  30.733  20.329  13.451
53751W        W26066  33.646  36.528   2.734
53752W        W26067  20.050  43.473  11.109
53753W        W26068   5.371  30.489  12.502
53754W        W26069  37.421  26.393   1.307
53755W        W26070   4.812  26.672   2.063
53756W        W26071  26.318  33.529  12.217
53757W        W26072  42.175   9.172   1.775
53758W        W26073  24.675   7.761  14.470
53759W        W26074   8.282  22.592  13.004
53760W        W26075  13.848   3.419  14.947
53761W        W26076  37.513  20.654   4.044
53762W        W26077  17.927   8.243   0.535
53763W        W26078  36.278   1.235   1.971
53764W        W26079  28.985  30.699  12.447
53765W        W26080  41.497   2.809  12.841
53766W        W26081   8.255  11.648   4.462
53767W        W26082  13.354  11.442   0.695
53768W        W26083  18.185  19.161  12.570
53769W        W26084   7.902  23.589   3.445
53770W        W26085  34.602  37.063   3.839
53771W        W26086  17.862   7.184   3.605
53772W        W26087  38.521  17.187  10.632
53773W        W26088  24.982  37.364   1.141
53774W        W26089   2.548  26.170  13.728
53775W        W26090  15.406   2.263   1.473
53776W        W26091   5.046  40.103   0.142
53777W        W26092  14.611  26.507   5.016
53778W        W26093   3.772   4.738   1.905
53779W        W26094  23.680   8.750   2.247
53780W        W26095  23.228  35.521   1.034
53781W        W26096  30.255  29.042  14.473
53782W        W26097  41.483   0.746   2.432
53783W        W26098  20.453  26.974  11.523
53784W        W26099  12.520   9.263  14.907
53785W        W26100   0.908  26.247   1.461
53786W        W26101  40.921  17.265   2.755
53787W        W26102   0.787   4.281  11.168
53788W        W26103  36.595   8.175   2.220
53789W        W26104  14.267  41.203  12.540
53790W        W26105  29.643   2.208  14.413
53791W        W26106  23.881   8.299   0.338
53792W        W26107  33.529  38.720  14.621
53793W        W26108  43.931  26.473  11.105
53794W        W26109  31.088  37.335  11.006
53795W        W26110  10.064  30.361  12.693
53796W        W26111  37.312  32.665  11.958
53797W        W26112  13.650  17.856  13.849
53798W        W26113  21.046   6.670   0.630
53799W        W26114  18.191  10.428   2.141
53800W        W26115  30.634   5.353  12.217
53801W        W26116  37.639  30.144  12.991
53802W        W26117   1.369  36.670  14.737
53803W        W26118  17.726  17.090  14.307
53804W        W26119  14.738  33.935  10.799
53805W        W26120  33.094  43.784   1.245
53806W        W26121   8.339   5.112   1.243
53807W        W26122  29.927  40.421  14.080
53808W        W26123  36.801  33.063  11.314
53809W        W26124  37.104  27.413   1.163
53810W        W26125  32.167  13.943  13.573
53811W        W26126  22.671  28.199   3.034
53812W        W26127  26.581  39.036  13.047
53813W        W26128   4.318  27.635   1.805
53814W        W26129  13.557  35.763   3.148
53815W        W26130  14.293  12.276   1.604
53816W        W26131   2.509  17.800  14.858
53817W        W26132  43.809  23.969  14.374
53818W        W26133  15.719  29.127  13.568
53819W        W26134  26.192   9.716  11.598
53820W        W26135  35.847   4.311  11.099
53821W        W26136  20.194  43.119   4.798
53822W        W26137  36.905   4.312   1.967
53823W        W26138  39.309  21.316   1.344
53824W        W26139  32.873  29.892  14.851
53825W        W26140  17.211  31.684   3.078
53826W        W26141   1.273  34.567  11.427
53827W        W26142  13.664   1.862  10.778
53828W        W26143  42.987  22.246   4.870
53829W        W26144  30.864  14.810   0.813
53830W        W26145  28.706   5.669  14.978
53831W        W26146  25.669  28.900  11.007
53832W        W26147   9.561   0.540  13.620
53833W        W26148  15.568  27.546   4.050
53834W        W26149  42.619  31.659   2.254
53835W        W26150  32.922  34.820   2.243
53836W        W26151  35.321  24.988  14.450
53837W        W26152  10.095  30.863  12.791
53838W        W26153  36.606  38.508   4.434
53839W        W26154  27.423  24.988   0.292
53840W        W26155  35.923  27.990   0.459
53841W        W26156   7.992   3.665  11.207
53842W        W26157  40.565   9.608   4.717
53843W        W26158   1.862  11.356  10.181
53844W        W26159  18.355  30.404  13.528
53845W        W26160  42.864  39.137   4.093
53846W        W26161  37.833   8.368   0.943
53847W        W26162   5.908  33.670   4.267
53848W        W26163  33.048  28.166  10.888
53849W        W26164  40.407  24.280   2.328
53850W        W26165   2.704  14.284  13.161
53851W        W26166  15.424  29.182   4.549
53852W        W26167   7.748  14.453   0.636
53853W        W26168  20.187  11.559  12.063
53854W        W26169  18.056  35.420   0.001
53855W        W26170  26.221  13.640   1.152
53856W        W26171  11.812  39.853  11.978
53857W        W26172   9.347  19.641   2.435
53858W        W26173  35.984  25.691  11.454
53859W        W26174  40.287  38.871  14.923
53860W        W26175  12.785  38.004  14.417
53861W        W26176  11.284  21.969  14.890
53862W        W26177  34.690  43.066   2.501
53863W        W26178   5.681   7.199  14.353
53864W        W26179  25.542  18.583   4.532
53865W        W26180  27.241  36.009   1.869
53866W        W26181  25.746  20.236   3.866
53867W        W26182   3.298  40.955  14.220
53868W        W26183  21.053  39.265  10.577
53869W        W26184   0.823  23.703   1.256
53870W        W26185  38.295  14.551   1.577
53871W        W26186  15.971  32.123   3.352
53872W        W26187   0.301  10.684  13.247
53873W        W26188  24.214   1.837   1.711
53874W        W26189  38.883  15.301  11.956
53875W        W26190   0.945  26.716   4.383
53876W        W26191   7.948   6.464   3.102
53877W        W26192   5.284  27.028   0.738
53878W        W26193  18.269  33.647  12.403
53879W        W26194   7.232  14.171   0.464
53880W        W26195  31.072  13.305  13.523
53881W        W26196  18.144  43.027  11.974
53882W        W26197  23.718  25.436  11.060
53883W        W26198   6.371  11.880  11.422
53884W        W26199   9.784   4.937   0.603
53885W        W26200  38.452  29.908  13.397
53886W        W26201  37.995  29.374   0.152
53887W        W26202  15.090   6.533  13.069
53888W        W26203  42.585   1.114   1.821
53889W        W26204  36.962  21.174   1.441
53890W        W26205  19.083  37.578   1.192
53891W        W26206  21.524   8.683   0.562
53892W        W26207   6.322  14.260  11.256
53893W        W26208  31.371  16.824  11.614
53894W        W26209  13.753  31.432   4.621
53895W        W26210  21.526  17.202   2.347
53896W        W26211   2.877  37.971   0.214
53897W        W26212   6.679  38.765   2.282
53898W        W26213  16.739  11.842   1.478
53899W        W26214  21.477  32.042   2.733
53900W        W26215  32.307  27.089   3.750
53901W        W26216  44.420  38.597   0.767
53902W        W26217  42.855  34.501   4.991
53903W        W26218  36.471   8.141  11.239
53904W        W26219  38.079  38.417  12.199
53905W        W26220  41.731   9.907   2.941
53906W        W26221   7.469  39.222  12.562
53907W        W26222  32.442  36.286   2.724
53908W        W26223  40.536  36.788  13.807
53909W        W26224  20.304  40.372  13.371
53910W        W26225  36.691  42.944  12.502
53911W        W26226  11.156  13.232   3.604
53912W        W26227  44.283  20.216  14.953
53913W        W26228  35.050  19.868  11.974
53914W        W26229  22.650  34.809   0.065
53915W        W26230   8.346  30.143   4.937
53916W        W26231  28.661  10.447   3.996
53917W        W26232  35.842  32.163   0.475
53918W        W26233  38.483  28.439  11.903
53919W        W26234   2.058  14.038  11.878
53920W        W26235  31.463   0.867   4.515
53921W        W26236  44.933  11.320   3.405
53922W        W26237  42.989  13.711   0.912
53923W        W26238  28.393  16.566  13.329
53924W        W26239  16.975  34.430   3.667
53925W        W26240  20.168  29.472  12.609
53926W        W26241  41.495  33.432  14.245
53927W        W26242  24.975   5.908  10.653
53928W        W26243   7.405  37.488   1.356
53929W        W26244  20.532  26.154  13.392
53930W        W26245  22.039  19.294   1.047
53931W        W26246   4.521  29.878   2.329
53932W        W26247  31.082  41.080  11.332
53933W        W26248  22.621   0.952  13.519
53934W        W26249  18.611  41.295   4.179
53935W        W26250  33.327  35.098   3.702
53936W        W26251  29.891  17.576  11.919
53937W        W26252  40.509  42.939   3.267
53938W        W26253  28.381  17.612  11.086
53939W        W26254  34.372  36.214   2.332
53940W        W26255  26.491  26.762   3.727
53941W        W26256  11.409  38.878   2.997
53942W        W26257  14.180   3.396   3.171
53943W        W26258  33.388  37.612   0.935
53944W        W26259  28.097  14.270   1.858
53945W        W26260  36.888  22.004   3.799
53946W        W26261  30.941  32.653   4.249
53947W        W26262  31.555   7.562  12.118
53948W        W26263   8.251   2.285   2.709
53949W        W26264  25.173  12.594  14.272
53950W        W26265  19.111  32.979  11.540
53951W        W26266  37.392   8.974  13.334
53952W        W26267  43.785  14.389   3.098
53953W        W26268  18.172   1.933  14.734
53954W        W26269  29.169  29.734   4.585
53955W        W26270  27.491  44.042   2.762
53956W        W26271  17.529   4.561  12.385
53957W        W26272  11.498  39.111   2.444
53958W        W26273  10.713   0.759  12.061
53959W        W26274  36.870  37.971   1.696
53960W        W26275  43.185  14.095   0.081
53961W        W26276  41.240  44.068   2.856
53962W        W26277   5.957  15.555   4.209
53963W        W26278  33.590   8.326  10.463
53964W        W26279   9.870   5.184   1.592
53965W        W26280  22.142  21.049   1.282
53966W        W26281  33.790  30.463   5.049
53967W        W26282  12.354  36.544  11.568
53968W        W26283  20.791  42.054   3.746
53969W        W26284  25.070   2.905   0.289
53970W        W26285  17.510   0.344  11.490
53971W        W26286   8.093   0.564  10.670
53972W        W26287  39.253  44.177  10.660
53973W        W26288  41.824  13.741   2.781
53974W        W26289  19.523  33.846   2.183
53975W        W26290  19.288  26.547   1.356
53976W        W26291  27.295  21.009  13.611
53977W        W26292  12.543  25.930   1.832
53978W        W26293  37.501  42.299   2.890
53979W        W26294  18.293   6.804  11.094
53980W        W26295  32.007  29.057  12.590
53981W        W26296  26.437  14.629  10.563
53982W        W26297   6.008  12.567  14.861
53983W        W26298  10.358  28.933   4.360
53984W        W26299   9.254  44.338   0.808
53985W        W26300   1.105  31.564  12.549
53986W        W26301  17.100   9.571   5.440
53987W        W26302  19.346  43.275  11.651
53988W        W26303  11.308  22.999  13.331
53989W        W26304   0.427  43.455   4.836
53990W        W26305  44.973  36.556  12.742
53991W        W26306   2.271   7.724  11.718
53992W        W26307   5.135   5.805   4.339
53993W        W26308   3.761   0.989   4.109
53994W        W26309   7.336  33.376  14.864
53995W        W26310   9.884  18.621   1.930
53996W        W26311   0.678  42.277  12.583
53997W        W26312  26.470   2.205   1.674
53998W        W26313  44.048  35.013  10.210
53999W        W26314   8.357  10.721  14.675
54000W        W26315   1.933  29.562   1.680
54001W        W26316  44.276  31.356  11.626
54002W        W26317  35.646  35.918   1.846
54003W        W26318   2.593   0.232   3.647
54004W        W26319   1.268  42.822   1.047
54005W        W26320   5.459  38.054   1.715
54006W        W26321  25.557  30.912   1.704
54007W        W26322  25.368  26.401   2.319
54008W        W26323   6.329  33.897  12.880
54009W        W26324  16.756  25.646  10.565
54010W        W26325  39.499  16.490   1.857
54011W        W26326  34.896  35.999   1.480
54012W        W26327   2.866   7.468   3.215
54013W        W26328  42.789   0.941   0.431
54014W        W26329  30.499  27.443   2.200
54015W        W26330  34.548  18.994   4.095
54016W        W26331   6.860  28.659  10.692
54017W        W26332  27.161   4.417   3.191
54018W        W26333   9.919  13.362  11.152
54019W        W26334  39.965  25.134  14.412
54020W        W26335  18.130  23.152   4.776
54021W        W26336   7.676  36.103   1.413
54022W        W26337  12.693  43.057   2.710
54023W        W26338   1.096  41.951  10.736
54024W        W26339  21.173   6.232   3.186
54025W        W26340  29.215  24.253  14.327
54026W        W26341  38.356  14.637   3.057
54027W        W26342  32.819   9.617   3.759
54028W        W26343  38.868  41.818   2.392
54029W        W26344  14.130  32.543  13.925
54030W        W26345  26.617  24.665   4.294
54031W        W26346  27.925  40.829   4.079
54032W        W26347  20.433  30.815   2.387
54033W        W26348  35.009  34.649   3.751
54034W        W26349  18.767   7.420   3.137
54035W        W26350   5.476  30.415  11.991
54036W        W26351   5.731  10.782   2.460
54037W        W26352  17.212  19.199   2.614
54038W        W26353  41.599  20.019  14.756
54039W        W26354   3.682  33.684   2.613
54040W        W26355  19.735  23.641   3.800
54041W        W26356  32.119  28.450  11.727
54042W        W26357  23.167  14.080  11.886
54043W        W26358   1.308   2.897  14.395
54044W        W26359  21.793  33.341   0.015
54045W        W26360   2.290  22.548   1.350
54046W        W26361   5.401  44.497  11.590
54047W        W26362  30.150  35.490   4.134
54048W        W26363  40.415  30.106  12.501
54049W        W26364  20.513  35.569   0.239
54050W        W26365  34.360   9.233   2.822
54051W        W26366  34.150  14.305  11.197
54052W        W26367  14.146  43.675  12.578
54053W        W26368  38.358  36.807   0.826
54054W        W26369   8.364  25.639  14.068
54055W        W26370  25.120  40.017  14.807
54056W        W26371  30.164  32.974   3.128
54057W        W26372  22.032  23.594  13.436
54058W        W26373  42.461  33.642  10.633
54059W        W26374  16.802  38.499   0.993
54060W        W26375  35.901  42.837  10.973
54061W        W26376  15.564  11.669  14.802
54062W        W26377  31.831   1.988   1.215
54063W        W26378  13.839  33.566   1.195
54064W        W26379  12.326  24.776  12.830
54065W        W26380   9.390  38.823  12.896
54066W        W26381  40.120  14.492  13.628
54067W        W26382  25.228  22.351  11.788
54068W        W26383   5.315  37.614  14.235
54069W        W26384  25.446  36.166   4.208
54070W        W26385  25.713   0.554   2.062
54071W        W26386  15.200   9.376   1.800
54072W        W26387  26.866  19.583   2.744
54073W        W26388  23.328  42.901   0.893
54074W        W26389   8.372  37.905   2.718
54075W        W26390  26.023   5.253   0.999
54076W        W26391  21.632   1.206  14.674
54077W        W26392  29.608  38.865  11.490
54078W        W26393  25.601   0.431  12.902
54079W        W26394  40.930  44.916   2.262
54080W        W26395  40.704  30.029   4.014
54081W        W26396   9.710  11.788  12.429
54082W        W26397  19.268  41.961  13.561
54083W        W26398  17.687  38.035  14.960
54084W        W26399   2.786  17.677   3.903
54085W        W26400  17.545  13.182  14.976
54086W        W26401  36.989  36.054   4.864
54087W        W26402  30.533   5.214   4.681
54088W        W26403  36.987  35.829   2.292
54089W        W26404   8.458  25.339   0.521
54090W        W26405  22.557  22.983  12.461
54091W        W26406  21.749   1.183   2.864
54092W        W26407  10.851  39.931  11.051
54093W        W26408  28.990   2.713   3.933
54094W        W26409  35.488  29.219  12.172
54095W        W26410  30.744  21.381   2.838
54096W        W26411  25.042   6.004  12.604
54097W        W26412   9.323  15.741   2.025
54098W        W26413  19.777  39.232  12.833
54099W        W26414  44.354  36.047   2.523
54100W        W26415  18.307  38.014  13.904
54101W        W26416  16.324  17.595  11.571
54102W        W26417  34.127  10.116  10.786
54103W        W26418  26.771  20.194  13.949
54104W        W26419   0.330  16.151  11.980
54105W        W26420  30.499  35.649   3.314
54106W        W26421  29.462  32.166  12.868
54107W        W26422  13.721  11.266   2.945
54108W        W26423  44.437   3.061  14.082
54109W        W26424  12.587  16.747  11.990
54110W        W26425  39.378  42.441  13.466
54111W        W26426   6.486   0.196   2.830
54112W        W26427  23.952  44.487   4.212
54113W        W26428   7.259  39.258   2.896
54114W        W26429  18.797  26.673   1.206
54115W        W26430  18.611   2.679  13.094
54116W        W26431  22.726  35.572  11.514
54117W        W26432  14.429  26.503   1.818
54118W        W26433  27.276   2.816  10.341
54119W        W26434   0.233  27.638  14.931
54120W        W26435  35.043   6.257  13.864
54121W        W26436  17.223  16.999   0.338
54122W        W26437  28.636  31.191  11.631
54123W        W26438  44.520   7.961  13.435
54124W        W26439  25.174  19.018  12.035
54125W        W26440  22.452  11.896   1.267
54126W        W26441  40.527   0.257  11.509
54127W        W26442  21.980   1.312   1.666
54128W        W26443   3.594  19.817   0.342
54129W        W26444  30.369  11.086   2.483
54130W        W26445   3.244   5.023  10.735
54131W        W26446   0.043   4.783   0.535
54132W        W26447   0.095  15.587  14.555
54133W        W26448   6.212  24.528   1.491
54134W        W26449  28.849  31.639   1.507
54135W        W26450   0.500  40.676   0.181
54136W        W26451  26.718   3.846   2.266
54137W        W26452  19.179  39.873   0.472
54138W        W26453   5.273   3.826  13.573
54139W        W26454  43.866   2.004  13.955
54140W        W26455  35.405  21.974  13.347
54141W        W26456   4.645  11.318   0.863
54142W        W26457  17.643  14.205  14.802
54143W        W26458   9.272   9.070   0.458
54144W        W26459  13.286  20.298   0.953
54145W        W26460  16.153   1.747  11.145
54146W        W26461  25.407   6.287  13.913
54147W        W26462  44.236  15.617   0.369
54148W        W26463   3.843   1.646   2.608
54149W        W26464  40.571  41.850  13.378
54150W        W26465  14.423  41.492   4.088
54151W        W26466   4.306  32.692  12.586
54152W        W26467  33.418  17.710  14.935
54153W        W26468  20.084   3.487  14.900
54154W        W26469  31.578  36.636   3.121
54155W        W26470  25.981   2.770  11.708
54156W        W26471   2.781   1.000   0.692
54157W        W26472  15.865   0.401   0.969
54158W        W26473   9.782  21.993  14.024
54159W        W26474   6.237  35.025   1.324
54160W        W26475  37.316  17.382  14.054
54161W        W26476  43.294  24.930   3.204
54162W        W26477   0.664  32.309  12.938
54163W        W26478   1.979  19.697   4.606
54164W        W26479  18.778  32.508   1.894
54165W        W26480  18.155  23.051   4.255
54166W        W26481   9.744  30.743  14.067
54167W        W26482  26.198  25.245  13.754
54168W        W26483   1.659   3.217  10.977
54169W        W26484   1.512  19.889   0.237
54170W        W26485  38.274   8.289  13.986
54171W        W26486  10.752  39.536  10.726
54172W        W26487  10.263  30.666   2.224
54173W        W26488  32.881   1.493  12.869
54174W        W26489  13.134   6.859  12.514
54175W        W26490  24.184  21.432  14.025
54176W        W26491  32.496  19.125  13.884
54177W        W26492  32.133  44.619   0.754
54178W        W26493  20.765   8.443  12.400
54179W        W26494  31.695  29.484  12.962
54180W        W26495  10.673  28.525   4.550
54181W        W26496  24.469  37.587  13.562
54182W        W26497  18.700  40.999  11.559
54183W        W26498  18.774  42.006   1.124
54184W        W26499  30.596  38.341   0.779
54185W        W26500  12.661  39.883  14.091
54186W        W26501  32.665  20.568   2.169
54187W        W26502  25.452   2.195  14.787
54188W        W26503  42.085  39.698  11.240
54189W        W26504  23.010  14.259  14.674
54190W        W26505  23.228  35.384   1.805
54191W        W26506   3.161  26.210   1.341
54192W        W26507  37.876  20.612  11.903
54193W        W26508  35.379  23.965  14.457
54194W        W26509  30.928  32.122   3.713
54195W        W26510  11.655   1.868  11.600
54196W        W26511  18.311  11.237   3.136
54197W        W26512  36.390   0.418   0.530
54198W        W26513  44.374  25.413   3.522
54199W        W26514   1.839  15.243  13.979
54200W        W26515  20.405  37.905   1.655
54201W        W26516  26.457  32.866   2.198
54202W        W26517   2.360  30.731   0.318
54203W        W26518  21.564  40.774  12.468
54204W        W26519  28.705  43.522   0.341
54205W        W26520  32.222   2.395  13.072
54206W        W26521   2.814   5.889   3.743
54207W        W26522  34.498  26.600   5.085
54208W        W26523  31.512  11.689   1.817
54209W        W26524  25.698  41.076  14.528
54210W        W26525   1.321   8.127  12.700
54211W        W26526  23.615  16.083  14.951
54212W        W26527  23.455  21.251  12.467
54213W        W26528  40.984   0.739  13.734
54214W        W26529  32.659   8.270   1.893
54215W        W26530  14.638  25.417   4.343
54216W        W26531  15.380  10.575  11.836
54217W        W26532   9.717   0.734   0.350
54218W        W26533  30.733  19.347   1.299
54219W        W26534   4.496  16.537  14.969
54220W        W26535  32.166   7.535   5.062
54221W        W26536  33.601  22.508   1.731
54222W        W26537  40.412   0.473   4.255
54223W        W26538  25.134  14.196   1.958
54224W        W26539  43.985   0.057   2.722
54225W        W26540  33.356  11.151   4.106
54226W        W26541  23.295   8.144   2.846
54227W        W26542  39.920  13.996  11.943
54228W        W26543   4.935  33.869  11.170
54229W        W26544  12.540  23.730  13.091
54230W        W26545  13.113   8.618  12.863
54231W        W26546  28.908   6.534  11.534
54232W        W26547  26.646  19.587   3.283
54233W        W26548  23.043  13.861  10.604
54234W        W26549  38.621  32.659   2.368
54235W        W26550  34.612  40.581  14.247
54236W        W26551  41.584  43.420   3.820
54237W        W26552  28.954  18.573   2.240
54238W        W26553  44.643  17.183  11.986
54239W        W26554  41.803  18.442  10.744
54240W        W26555  21.717   3.896   2.746
54241W        W26556   3.916   4.487  11.617
54242W        W26557  23.543  12.740   1.925
54243W        W26558  25.521   7.589   3.852
54244W        W26559  21.156  13.335   0.376
54245W        W26560  10.509  12.414  13.949
54246W        W26561  43.250  27.480   2.690
54247W        W26562   0.461  40.062   1.745
54248W        W26563  13.105  31.071   4.091
54249W        W26564  11.881  22.600   1.142
54250W        W26565  26.567   6.837  13.493
54251W        W26566  17.181  39.366  13.544
54252W        W26567  38.802  37.326  14.975
54253W        W26568  33.164  32.451  10.758
54254W        W26569  21.542  15.745   4.582
54255W        W26570   9.222  27.637  14.462
54256W        W26571  28.698  12.727  12.467
54257W        W26572  20.588   7.199  14.966
54258W        W26573  39.388  34.092  10.357
54259W        W26574  27.691   5.835  11.670
54260W        W26575  13.381  23.146   0.662
54261W        W26576  19.087  21.760   2.751
54262W        W26577  31.125  35.431   0.388
54263W        W26578  25.634  19.989  13.201
54264W        W26579  15.127   2.894   1.708
54265W        W26580  27.227  10.767  10.361
54266W        W26581  27.406  42.382  12.913
54267W        W26582  27.192  36.453   2.604
54268W        W26583   6.103  19.969   2.294
54269W        W26584  43.601  13.117   0.315
54270W        W26585  30.562   0.038   4.110
54271W        W26586   0.807  18.070  13.381
54272W        W26587   6.472  20.564   2.278
54273W        W26588  14.101  17.205  10.592
54274W        W26589  23.853   1.087  13.408
54275W        W26590  22.708   2.944  14.474
54276W        W26591  12.115  21.910   1.870
54277W        W26592  37.478  18.633   0.827
54278W        W26593  22.438   1.199  13.100
54279W        W26594  44.346  27.258   4.591
54280W        W26595   3.786   7.403  11.033
54281W        W26596  40.528  38.392  14.777
54282W        W26597   8.334  28.496  12.917
54283W        W26598  14.874   0.377   3.839
54284W        W26599  37.913  28.726   2.201
54285W        W26600  42.048  43.945  13.407
54286W        W26601  11.060   0.343   3.079
54287W        W26602   2.480  44.821  13.701
54288W        W26603  26.266   4.799  11.137
54289W        W26604  16.714  30.609   0.812
54290W        W26605  42.504  28.953   0.325
54291W        W26606   1.792   6.920  14.449
54292W        W26607  20.044  38.364  11.162
54293W        W26608  20.188  41.974  12.619
54294W        W26609  41.816  40.564   4.700
54295W        W26610  29.904  37.648  14.789
54296W        W26611  22.813  44.399   5.273
54297W        W26612  35.870   9.555  13.854
54298W        W26613  18.665  40.045  12.874
54299W        W26614  40.543  32.257  10.203
54300W        W26615  23.437  22.097   5.023
54301W        W26616  13.586  32.025   2.295
54302W        W26617  44.936  28.039   3.477
54303W        W26618   0.584  35.976   0.428
54304W        W26619  38.898   2.938  12.601
54305W        W26620  18.295  31.952  11.091
54306W        W26621  19.748   3.130  11.908
54307W        W26622  32.336  21.007  14.802
54308W        W26623  26.953  27.046   4.580
54309W        W26624  20.976  13.710   2.829
54310W        W26625  27.053  27.548  12.905
54311W        W26626  14.783  44.515  14.946
54312W        W26627  38.497   7.021   0.617
54313W        W26628   9.706  31.929   3.187
54314W        W26629  16.113  27.166  12.040
54315W        W26630   5.023  44.079   2.570
54316W        W26631  40.733  11.767   4.173
54317W        W26632  34.100  15.669   3.738
54318W        W26633  26.008   2.700   0.441
54319W        W26634   3.803  39.165   1.686
54320W        W26635  33.643  40.544   1.768
54321W        W26636  15.869  14.622   2.342
54322W        W26637  39.944   4.721  12.959
54323W        W26638  27.384   5.628  10.191
54324W        W26639   4.996  27.903   0.683
54325W        W26640  18.808  39.533   0.860
54326W        W26641   3.132   9.560  11.914
54327W        W26642   5.154   4.310  12.688
54328W        W26643  12.850  25.017  13.625
54329W        W26644  37.754   2.443   2.344
54330W        W26645  10.885  15.242  11.943
54331W        W26646  19.143  19.193  14.476
54332W        W26647  14.817  20.750  14.212
54333W        W26648   4.989  15.854  10.452
54334W        W26649  31.340  31.256   2.761
54335W        W26650  21.192  41.746  10.643
54336W        W26651  22.655  33.163  12.804
54337W        W26652  13.649  41.820   0.005
54338W        W26653  11.243  28.851  14.381
54339W        W26654  34.009  25.130  11.841
54340W        W26655  38.065  43.428   2.763
54341W        W26656   5.940  24.006  13.542
54342W        W26657  12.783  34.447   3.609
54343W        W26658  41.063  30.176   0.040
54344W        W26659  11.811  44.340  11.832
54345W        W26660  27.545  41.977  11.184
54346W        W26661   6.105  39.381  13.706
54347W        W26662   0.241   9.220   3.264
54348W        W26663  41.912  31.045  12.350
54349W        W26664  43.481  11.181  14.462
54350W        W26665   4.318  12.695  10.839
54351W        W26666  15.489   1.837   2.437
54352W        W26667  33.331  27.400  11.521
54353W        W26668  22.206  34.147  12.463
54354W        W26669  33.075  14.583   1.784
54355W        W26670  17.715   1.379   4.784
54356W        W26671  15.524   9.101   1.212
54357W        W26672  17.613  35.822   1.640
54358W        W26673  37.447  37.259   0.215
54359W        W26674   9.198  15.529   3.413
54360W        W26675  31.373  23.217   2.777
54361W        W26676   6.759  10.148  14.144
54362W        W26677   7.340  16.975   1.756
54363W        W26678   7.877  26.670   2.217
54364W        W26679   1.997  41.735  13.466
54365W        W26680   4.816  32.235  10.224
54366W        W26681  25.771   5.368   5.338
54367W        W26682  18.354  44.920   0.406
54368W        W26683  26.533  19.717  10.802
54369W        W26684  34.981  33.488  10.040
54370W        W26685   6.863  42.880   4.617
54371W        W26686  33.430  35.953   4.689
54372W        W26687   3.415  10.905   3.142
54373W        W26688  35.930   5.521   1.932
54374W        W26689   2.418  24.285  11.970
54375W        W26690  14.622  41.896  14.082
54376W        W26691  43.367  18.788   1.305
54377W        W26692   3.783  37.602  14.538
54378W        W26693  21.783  15.948  13.088
54379W        W26694  21.202  29.535  11.620
54380W        W26695  29.334  11.279  11.179
54381W        W26696   5.399  40.972   1.891
54382W        W26697  31.566  30.608  13.445
54383W        W26698  34.075   2.321   3.355
54384W        W26699  33.515  32.959  10.233
54385W        W26700   7.195  19.767   0.353
54386W        W26701  10.820  27.656   0.484
54387W        W26702  20.560  32.170   1.460
54388W        W26703  33.898  12.018   0.006
54389W        W26704  44.046  31.742  14.824
54390W        W26705  42.763  37.837   3.807
54391W        W26706  15.727  30.106   3.347
54392W        W26707   6.873  22.775  11.880
54393W        W26708   4.005  17.873  12.574
54394W        W26709  13.153  15.727   3.598
54395W        W26710   4.698  21.556  12.652
54396W        W26711  18.082  43.755   2.374
54397W        W26712  41.449  39.500  14.857
54398W        W26713  42.058  37.850  12.029
54399W        W26714   0.744  38.365   3.694
54400W        W26715  38.657  15.099   4.505
54401W        W26716  19.456   9.233   2.245
54402W        W26717   3.360  34.928   1.205
54403W        W26718   8.356  25.114   4.343
54404W        W26719  16.100  15.813  14.933
54405W        W26720  26.658   9.638   2.134
54406W        W26721  30.025  18.761   0.854
54407W        W26722   5.305  14.713  10.625
54408W        W26723  43.401  41.703   0.876
54409W        W26724   2.479  17.961  10.277
54410W        W26725   7.083   9.134   2.702
54411W        W26726  41.062  31.383   4.258
54412W        W26727  22.497   2.322  12.210
54413W        W26728  41.577  36.206   0.330
54414W        W26729   3.544  40.994  11.912
54415W        W26730  10.164  11.283  12.032
54416W        W26731   8.451  32.119   4.857
54417W        W26732   4.268  30.535   2.249
54418W        W26733  22.512  16.706   2.741
54419W        W26734  11.571  25.824  14.525
54420W        W26735  18.023  34.666  11.964
54421W        W26736  24.764  13.946   1.549
54422W        W26737  44.800  36.099   2.228
54423W        W26738  18.040  14.554  14.944
54424W        W26739  30.538  42.058  13.843
54425W        W26740  24.170  20.809   4.602
54426W        W26741  28.354   1.931   4.138
54427W        W26742   2.017  40.300   2.825
54428W        W26743  23.538  22.935  14.778
54429W        W26744   6.765  18.869   0.405
54430W        W26745  15.754  28.942  11.663
54431W        W26746  13.511  43.926   2.231
54432W        W26747   2.426  22.544  13.410
54433W        W26748  27.100  43.949   0.206
54434W        W26749   2.345  31.718   4.146
54435W        W26750  31.904  20.507   4.801
54436W        W26751  28.660  41.044  13.155
54437W        W26752  32.334  40.749  12.545
54438W        W26753  42.201  44.888  14.255
54439W        W26754   8.333  14.648  10.804
54440W        W26755  33.609  16.476  11.915
54441W        W26756  25.507  22.007   3.342
54442W        W26757  42.290  36.807  14.896
54443W        W26758   6.634  32.021  12.000
54444W        W26759  32.184   3.994  14.511
54445W        W26760   4.898  35.689   4.976
54446W        W26761   5.229  37.416   0.244
54447W        W26762  11.643  24.020  14.948
54448W        W26763  28.493  36.261  14.032
54449W        W26764  41.321  37.008   4.244
54450W        W26765  41.900  13.815  13.292
54451W        W26766  19.306   6.325   3.109
54452W        W26767   8.712  10.358   3.676
54453W        W26768  43.423   7.457   4.050
54454W        W26769   8.643  29.804   1.225
54455W        W26770   1.219   7.525   1.585
54456W        W26771   2.389  20.539   0.785
54457W        W26772  14.866   0.019  13.643
54458W        W26773  25.552  14.354  13.117
54459W        W26774  11.989   9.959  14.330
54460W        W26775  21.197  35.884  14.031
54461W        W26776  12.555   2.465   3.680
54462W        W26777  15.161  22.769  14.938
54463W        W26778   5.506  18.267   0.331
54464W        W26779  24.718   2.376   3.819
54465W        W26780  40.840  13.217  13.744
54466W        W26781  29.420  37.572  11.398
54467W        W26782   4.484  24.554  11.862
54468W        W26783   9.276  32.705  13.943
54469W        W26784  40.382  38.905   0.530
54470W        W26785   2.011  22.622   0.469
54471W        W26786  39.391  34.575  10.576
54472W        W26787  22.458  12.927  10.700
54473W        W26788   5.814  26.373  14.786
54474W        W26789  39.641  41.088  11.374
54475W        W26790  18.583  16.980  11.495
54476W        W26791  24.025  23.179   0.336
54477W        W26792  15.437  38.540   3.621
54478W        W26793  20.277  22.770   1.950
54479W        W26794   2.741   8.014  11.472
54480W        W26795  43.585  15.774  11.383
54481W        W26796  19.810  24.536   2.272
54482W        W26797  23.480  20.045   0.827
54483W        W26798  34.059  44.410   4.124
54484W        W26799   6.373  19.722   1.924
54485W        W26800  14.352   6.864   2.846
54486W        W26801  41.909  30.965   0.303
54487W        W26802  19.462   8.066   5.510
54488W        W26803  40.471   2.783  14.459
54489W        W26804  41.723  15.324   1.284
54490W        W26805  40.061  28.056   3.607
54491W        W26806   5.492  34.597   2.218
54492W        W26807  16.497  30.085  11.866
54493W        W26808   7.246  34.355   1.695
54494W        W26809  31.565  29.447   2.394
54495W        W26810  15.160   9.880   1.780
54496W        W26811  39.050  36.380   3.371
54497W        W26812  42.388  44.965  12.363
54498W        W26813  29.593  15.024   4.249
54499W        W26814  32.027  38.819  12.961
54500W        W26815   6.127  36.439   0.409
54501W        W26816   9.934  30.849   2.765
54502W        W26817  13.888   1.889   3.840
54503W        W26818  40.442  25.108   1.714
54504W        W26819  27.549  43.743   3.425
54505W        W26820  14.635  43.248  11.903
54506W        W26821  36.930  43.105   0.876
54507W        W26822  41.002  35.344  10.782
54508W        W26823   0.337  28.852   1.970
54509W        W26824  16.141  35.424   2.430
54510W        W26825  38.123  14.896   4.804
54511W        W26826   9.576  18.200   5.111
54512W        W26827  30.405  10.325  13.455
54513W        W26828  42.996  10.297  14.290
54514W        W26829  39.343  16.385   4.507
54515W        W26830  19.563  15.735   1.968
54516W        W26831  10.122  26.963   1.605
54517W        W26832  29.600  13.210  11.182
54518W        W26833  26.154  41.888   4.753
54519W        W26834   4.428  21.748   4.522
54520W        W26835   8.651  32.709   4.101
54521W        W26836  27.095  44.954   2.747
54522W        W26837  14.205  11.751   1.454
54523W        W26838  14.092  36.785   4.735
54524W        W26839   8.691  43.787   2.115
54525W        W26840  15.071  43.773  14.313
54526W        W26841  44.114  29.497  11.989
54527W        W26842   5.231  15.162  14.292
54528W        W26843  32.736  40.431  14.517
54529W        W26844  33.989   3.741  12.952
54530W        W26845  32.909  31.094  11.050
54531W        W26846   8.203  30.570   3.567
54532W        W26847  40.251  17.529  11.553
54533W        W26848  18.284  44.029   4.167
54534W        W26849  36.872   5.450   2.884
54535W        W26850  31.577  32.365   0.769
54536W        W26851  38.521  35.411   1.250
54537W        W26852  43.217  31.096  12.958
54538W        W26853   3.670  41.541   3.686
54539W        W26854  29.735  36.408  12.994
54540W        W26855  24.312  30.324   5.160
54541W        W26856   2.967  17.140   1.870
54542W        W26857  33.332  36.903   3.227
54543W        W26858  31.434  42.330  12.534
54544W        W26859  11.912  43.278  10.421
54545W        W26860  15.596  12.700  13.465
54546W        W26861  15.296  22.619   4.672
54547W        W26862  35.434  30.395  11.031
54548W        W26863  34.019  26.720  11.718
54549W        W26864  39.945  39.439   2.185
54550W        W26865   4.786   6.068  14.894
54551W        W26866  41.861   7.773  11.562
54552W        W26867  20.655  31.154   1.568
54553W        W26868  23.167   6.926  11.693
54554W        W26869  43.056   7.689   1.802
54555W        W26870   2.237  40.706   4.151
54556W        W26871  21.845   1.743   0.526
54557W        W26872  17.189  40.576   4.361
54558W        W26873   3.413  26.193   2.174
54559W        W26874  42.836  35.354   4.660
54560W        W26875  15.627  12.608   2.788
54561W        W26876  16.755  20.104   4.592
54562W        W26877   5.584  19.843   4.166
54563W        W26878  35.960  38.979   0.394
54564W        W26879  29.454  38.343   0.370
54565W        W26880  31.217  25.544  11.109
54566W        W26881   0.639   8.169  12.036
54567W        W26882  24.070  36.630   0.932
54568W        W26883   2.046  12.809  11.024
54569W        W26884  10.612  17.673  14.444
54570W        W26885  13.520  19.850  12.051
54571W        W26886  34.432   6.567  11.183
54572W        W26887   7.422  29.512   3.597
54573W        W26888   4.483  39.158  12.444
54574W        W26889   6.377   5.317   0.726
54575W        W26890   6.352  44.826  10.534
54576W        W26891  43.792   4.292   2.700
54577W        W26892  36.037  24.294  11.594
54578W        W26893  23.761  26.944  14.956
54579W        W26894  24.139  37.484  12.324
54580W        W26895  41.119  27.225  11.301
54581W        W26896   8.402  43.057  13.941
54582W        W26897  30.903  39.416  14.351
54583W        W26898   1.256  36.624  13.443
54584W        W26899  34.932  33.430   3.122
54585W        W26900  12.360  20.222   0.702
54586W        W26901  17.916  15.450  14.726
54587W        W26902  12.653  33.735   4.621
54588W        W26903  17.779  43.294  13.048
54589W        W26904  42.391   2.966  13.410
54590W        W26905  41.426  15.231  12.600
54591W        W26906   5.464  40.447   0.532
54592W        W26907  18.008  32.153  11.531
54593W        W26908   7.083  36.863   4.213
54594W        W26909  15.638  44.315  13.513
54595W        W26910  21.817  33.365  13.386
54596W        W26911  40.082  13.863  11.132
54597W        W26912  44.398  30.894   2.353
54598W        W26913  41.840  11.701  14.870
54599W        W26914  40.350  35.981   0.352
54600W        W26915   2.803  29.657  13.033
54601W        W26916  18.570  18.855   0.897
54602W        W26917  27.523  21.794   0.329
54603W        W26918  15.201  38.339  11.593
54604W        W26919  36.926   6.575  10.591
54605W        W26920  43.844  22.707  10.338
54606W        W26921  40.261  19.135   2.737
54607W        W26922   6.429  22.131   4.769
54608W        W26923  25.017  15.102   1.308
54609W        W26924  25.669  32.217   1.936
54610W        W26925   5.767  23.209   2.203
54611W        W26926  38.346  12.173   0.529
54612W        W26927  17.786  40.564  13.435
54613W        W26928  15.097  41.297   0.956
54614W        W26929  30.002  38.023  10.655
54615W        W26930  23.464  29.964   2.658
54616W        W26931  14.791  26.121   0.950
54617W        W26932  26.068   1.318   2.257
54618W        W26933  31.426  31.562   1.294
54619W        W26934   2.112  35.573  13.032
54620W        W26935   5.994  20.540  13.583
54621W        W26936  10.797   9.933  13.905
54622W        W26937   5.956  19.456   2.205
54623W        W26938  27.772   9.651   0.477
54624W        W26939   7.669  18.650  13.052
54625W        W26940  28.518  24.415   0.688
54626W        W26941  21.054  29.198  11.167
54627W        W26942  36.956   7.254   1.187
54628W        W26943  12.295  21.791   2.342
54629W        W26944  10.276  24.974  14.949
54630W        W26945   4.833  25.664   3.072
54631W        W26946  12.706  31.529  10.982
54632W        W26947   9.339  15.488   4.490
54633W        W26948   9.788  15.653  11.787
54634W        W26949  41.830  37.394   5.106
54635W        W26950   3.836  42.988  13.023
54636W        W26951  10.792  13.275  11.385
54637W        W26952  32.135  40.616   3.460
54638W        W26953  37.790  15.560   2.889
54639W        W26954   5.915  34.057   0.928
54640W        W26955  26.647  33.350  14.434
54641W        W26956  36.118  31.413  13.053
54642W        W26957   4.757  37.251  11.202
54643W        W26958  36.279  16.833   4.162
54644W        W26959  39.044   1.338  13.408
54645W        W26960   2.315  28.908  11.619
54646W        W26961  19.093  41.150   4.652
54647W        W26962   5.681  20.220  12.024
54648W        W26963  21.679  27.585   0.924
54649W        W26964  10.820  18.753  11.146
54650W        W26965   3.281  10.363   4.619
54651W        W26966  10.278   6.271  12.867
54652W        W26967  33.917  31.149  13.308
54653W        W26968   1.242  44.073  14.255
54654W        W26969  41.186  18.454   5.118
54655W        W26970  26.250  33.018  10.653
54656W        W26971  26.869  31.866   5.066
54657W        W26972  36.940  28.349  10.695
54658W        W26973  20.885  39.756   4.083
54659W        W26974  35.474  39.631   1.587
54660W        W26975  32.845   8.943  12.406
54661W        W26976   6.717  12.091   3.309
54662W        W26977  40.891  25.121   3.066
54663W        W26978   5.561  28.741   1.727
54664W        W26979  41.547  43.891  11.223
54665W        W26980  16.065   8.772   3.999
54666W        W26981  25.480   1.615   0.971
54667W        W26982  39.875  44.823   3.116
54668W        W26983  42.413  34.026  11.643
54669W        W26984  22.988   1.231  11.177
54670W        W26985  16.326  40.759  12.076
54671W        W26986  26.772  39.927   4.249
54672W        W26987  15.792  12.906   4.549
54673W        W26988  22.880  30.053   4.628
54674W        W26989  30.652  12.989  13.463
54675W        W26990  44.814  33.032  12.486
54676W        W26991  35.309  34.133   2.446
54677W        W26992  43.828  23.619  13.439
54678W        W26993  20.903  32.066   1.824
54679W        W26994   9.638  26.573   4.134
54680W        W26995   7.276  34.369   3.663
54681W        W26996  19.650  41.034   0.871
54682W        W26997   2.492   1.806  10.666
54683W        W26998  11.859  28.568  12.969
54684W        W26999  10.261  18.348  11.968
54685W        W27000   8.641  11.217  13.926
54686W        W27001  44.091  17.337   0.445
54687W        W27002  19.974   9.192   2.378
54688W        W27003  29.245  21.036   4.666
54689W        W27004  18.001   1.890   2.256
54690W        W27005  24.854  42.448   1.727
54691W        W27006   1.357  30.975  12.634
54692W        W27007  22.964  15.162   2.810
54693W        W27008  32.602  13.238  13.975
54694W        W27009  10.185   9.220  11.354
54695W        W27010   7.121   1.810   1.679
54696W        W27011  11.479  34.789   1.722
54697W        W27012  43.427  11.328  13.464
54698W        W27013  14.753  12.075   3.880
54699W        W27014  32.559   9.421  14.919
54700W        W27015   1.428   8.454  14.978
54701W        W27016  38.863  24.071   2.607
54702W        W27017  43.243   7.947   4.181
54703W        W27018  12.850  34.953   4.811
54704W        W27019  13.219  34.288   1.369
54705W        W27020  14.166  16.128  11.503
54706W        W27021  42.336  12.760  12.220
54707W        W27022  34.896  17.668  13.951
54708W        W27023  26.762  41.994   5.093
54709W        W27024  39.997  27.441  14.462
54710W        W27025  29.725  30.568  12.936
54711W        W27026  24.749  13.207  10.710
54712W        W27027   0.340  42.810  13.899
54713W        W27028   3.367  36.328  12.978
54714W        W27029  15.857  41.514  12.209
54715W        W27030  41.386  34.811   0.045
54716W        W27031  44.264   6.120   4.196
54717W        W27032   6.296  12.579  14.432
54718W        W27033  19.786  41.397   4.936
54719W        W27034  30.094  13.597  13.493
54720W        W27035  40.307  15.075   1.318
54721W        W27036  22.630  10.475   3.733
54722W        W27037  17.162   6.889  13.948
54723W        W27038  28.930   5.352  13.410
54724W        W27039  23.057  32.204   4.169
54725W        W27040  23.235  39.228  12.042
54726W        W27041  22.796  13.363   0.381
54727W        W27042  32.737  15.585  14.878
54728W        W27043  19.584  32.475  11.988
54729W        W27044  19.055   1.989  10.675
54730W        W27045   6.704  21.399  13.926
54731W        W27046   6.254   7.454  11.953
54732W        W27047  15.824  36.123  13.441
54733W        W27048  16.901  13.916  14.366
54734W        W27049  18.715   6.293  13.793
54735W        W27050  21.208  20.738  14.036
54736W        W27051  42.956   6.239   3.327
54737W        W27052  21.288  40.263   3.228
54738W        W27053  14.930   2.458   1.493
54739W        W27054  38.831  13.659  14.088
54740W        W27055  42.408  28.060   1.376
54741W        W27056   7.927   0.973  14.900
54742W        W27057   6.954   8.293  10.927
54743W        W27058  37.800  38.339  11.333
54744W        W27059   3.917  22.266   2.811
54745W        W27060  27.847  38.189   0.844
54746W        W27061  16.287  27.482   0.128
54747W        W27062  30.997  40.354   0.411
54748W        W27063   2.713  41.949  12.279
54749W        W27064  15.804  26.077   3.404
54750W        W27065  14.274  28.713   0.417
54751W        W27066  43.566  35.811  13.537
54752W        W27067  12.230  33.915  13.284
54753W        W27068  12.758   2.084   2.693
54754W        W27069  25.873   1.887  14.733
54755W        W27070  23.212  31.566  13.301
54756W        W27071  11.894  34.550  10.613
54757W        W27072  23.181  44.324   1.200
54758W        W27073  35.123  11.750  13.863
54759W        W27074   2.065  44.924   0.335
54760W        W27075  23.045  36.730   3.261
54761W        W27076  15.237  25.857   0.853
54762W        W27077   5.297  21.541  14.964
54763W        W27078  43.649  25.043   1.366
54764W        W27079  16.877   1.381  10.978
54765W        W27080  43.068  15.258   1.764
54766W        W27081  25.563  17.136  11.486
54767W        W27082   2.830  21.530  11.152
54768W        W27083  32.626  34.387  14.991
54769W        W27084  18.133  40.798   2.722
54770W        W27085   3.766  29.955  13.385
54771W        W27086   9.500  19.750   4.796
54772W        W27087  38.335  37.918   1.374
54773W        W27088  27.945  12.226  10.232
54774W        W27089  30.592  44.966  13.704
54775W        W27090  42.952  15.590  10.175
54776W        W27091  30.918  26.135   3.800
54777W        W27092  43.084  14.736  13.475
54778W        W27093  21.555  14.327   3.708
54779W        W27094   2.102  30.113   4.698
54780W        W27095  27.474  17.049  10.948
54781W        W27096  10.325  26.486  10.654
54782W        W27097  38.388   3.997  11.994
54783W        W27098  43.799   5.946   0.694
54784W        W27099  34.825  44.762  14.375
54785W        W27100   8.696   7.562   1.940
54786W        W27101  12.142  34.109   4.770
54787W        W27102  20.763  25.262   0.336
54788W        W27103  29.617  41.320  12.545
54789W        W27104  30.048   4.842   3.082
54790W        W27105   4.651  33.598   2.643
54791W        W27106  23.277  33.061   2.777
54792W        W27107  36.978  34.440  14.018
54793W        W27108  41.624  38.904   4.111
54794W        W27109  24.433  12.509   3.721
54795W        W27110   3.259  18.666  12.552
54796W        W27111  42.462  35.096  13.521
54797W        W27112  25.460  27.954  14.431
54798W        W27113  33.885  21.715   3.795
54799W        W27114  42.233  21.119   3.679
54800W        W27115  30.556  12.349  12.231
54801W        W27116   0.314  36.402   0.374
54802W        W27117  38.391  35.972  11.581
54803W        W27118  20.120  13.209  14.348
54804W        W27119  16.981  31.654   1.279
54805W        W27120  31.693   8.407   1.735
54806W        W27121   6.654  22.063   0.588
54807W        W27122  37.510  39.798   2.187
54808W        W27123  29.349   5.746  12.522
54809W        W27124  10.781  12.099  14.660
54810W        W27125  31.907  26.495  10.919
54811W        W27126  23.423  35.962   1.285
54812W        W27127  29.002   1.336  10.691
54813W        W27128   6.894   3.533   4.064
54814W        W27129  26.964  28.396  11.876
54815W        W27130  38.505  43.484  13.537
54816W        W27131  22.935   3.827   4.070
54817W        W27132  43.978  28.478   2.988
54818W        W27133  36.552  44.122   1.517
54819W        W27134  26.291  44.947   3.255
54820W        W27135  13.843  26.462   3.282
54821W        W27136  15.704  41.875  13.353
54822W        W27137  44.233   0.520  13.433
54823W        W27138  23.876  40.653  13.535
54824W        W27139  25.111  17.843   4.227
54825W        W27140  38.944   3.486   4.153
54826W        W27141  30.194   4.393   3.921
54827W        W27142  33.007  24.364   3.620
54828W        W27143  37.220  26.143  13.960
54829W        W27144  42.964  12.315  12.412
54830W        W27145   8.839  25.198   4.987
54831W        W27146   9.330  43.082  14.351
54832W        W27147  24.357  19.828   2.839
54833W        W27148  37.995  25.704   2.418
54834W        W27149  38.790  20.499  11.947
54835W        W27150  11.198  10.643  11.964
54836W        W27151  27.334  27.705   2.694
54837W        W27152  35.432  19.124   4.582
54838W        W27153  12.572  38.098  13.542
54839W        W27154   0.995  35.129  10.645
54840W        W27155   8.189  40.404  10.571
54841W        W27156  28.973  15.223  12.888
54842W        W27157   4.242  21.644  14.253
54843W        W27158  13.754  16.967  12.482
54844W        W27159  12.819   8.396   4.759
54845W        W27160  20.280  24.746  12.050
54846W        W27161  15.207   9.497  12.696
54847W        W27162  12.722  18.311  12.878
54848W        W27163  20.128  11.125   3.576
54849W        W27164  19.557  20.202   5.038
54850W        W27165  19.418  18.898   0.943
54851W        W27166   5.864  14.881   1.489
54852W        W27167  17.817   6.170  13.889
54853W        W27168  11.240  12.317  12.194
54854W        W27169  21.021  40.023   5.063
54855W        W27170  12.534  18.755  14.706
54856W        W27171   9.539  36.717   0.814
54857W        W27172   9.827  20.692  11.896
54858W        W27173  29.770  32.363   2.221
54859W        W27174  43.447  41.955  10.620
54860W        W27175   7.795  28.905   4.483
54861W        W27176  27.181  39.798   0.853
54862W        W27177  41.407  41.559  11.949
54863W        W27178   6.292  43.138  12.029
54864W        W27179   1.994  43.298   3.617
54865W        W27180  32.156   8.781  12.965
54866W        W27181   8.729  24.472   4.413
54867W        W27182  34.169   3.693   1.733
54868W        W27183  37.465   3.136   1.295
54869W        W27184   3.379  38.573   1.362
54870W        W27185  37.380  29.557   3.796
54871W        W27186  15.223   7.613  10.711
54872W        W27187   9.544  18.795   5.506
54873W        W27188  41.708  17.182   3.194
54874W        W27189  30.081  31.116   4.122
54875W        W27190  40.577   6.942   0.304
54876W        W27191   0.925   9.551   5.487
54877W        W27192   7.925   7.097  13.941
54878W        W27193   1.354  40.021  11.143
54879W        W27194  13.745  22.107   1.179
54880W        W27195  37.681   4.365  12.570
54881W        W27196  35.308  17.544  14.287
54882W        W27197  10.698  26.377  11.568
54883W        W27198   6.273  35.669  12.481
54884W        W27199   5.857   0.559  14.396
54885W        W27200   1.895   0.799   4.528
54886W        W27201  28.071  31.466   0.281
54887W        W27202  29.577   1.079   0.526
54888W        W27203  34.361  31.463  10.954
54889W        W27204  39.360  38.056  12.782
54890W        W27205   5.451  43.317  13.316
54891W        W27206  32.371  15.066   1.216
54892W        W27207  23.541  40.975  13.809
54893W        W27208  32.212  44.380   2.262
54894W        W27209  27.912  15.117  11.627
54895W        W27210  18.311   2.355   2.187
54896W        W27211  24.007  24.767  12.068
54897W        W27212  30.331  35.637   0.763
54898W        W27213  25.993   9.718  12.480
54899W        W27214  23.189   4.814   4.164
54900W        W27215   3.341   5.278   2.677
54901W        W27216  20.319  28.977  14.765
54902W        W27217  25.536   9.239   2.204
54903W        W27218  20.697  32.954  11.712
54904W        W27219  33.510  14.815  12.032
54905W        W27220  19.110  10.699   4.146
54906W        W27221  24.514  41.408  12.788
54907W        W27222  25.577  37.170  14.508
54908W        W27223  19.769  29.189   2.837
54909W        W27224  23.270  39.109   4.663
54910W        W27225  27.577  34.397  12.555
54911W        W27226  37.513   6.379   3.662
54912W        W27227  24.741  17.683   4.562
54913W        W27228   3.365  30.131  12.444
54914W        W27229   7.329  19.345  11.239
54915W        W27230  27.762  42.502   0.320
54916W        W27231  31.514  21.085  13.454
54917W        W27232  18.681  35.040   2.325
54918W        W27233  15.551  44.044  10.549
54919W        W27234  33.988  30.333  12.089
54920W        W27235  12.925  39.181  11.524
54921W        W27236  19.460  11.182  10.607
54922W        W27237  23.109  36.299  13.485
54923W        W27238  22.829  39.503  11.063
54924W        W27239  32.427  28.522   0.955
54925W        W27240   5.393  13.571  12.911
54926W        W27241   6.654  32.341   4.488
54927W        W27242  25.170  31.436   2.404
54928W        W27243  40.516  13.795   3.140
54929W        W27244  33.342  15.935   3.995
54930W        W27245  14.847   0.784  12.037
54931W        W27246  19.924   4.369   0.745
54932W        W27247   3.206  39.595   0.408
54933W        W27248  40.143  36.443   0.448
54934W        W27249  43.534   5.931  10.729
54935W        W27250  27.871   4.459   0.008
54936W        W27251  32.274  39.559   0.606
54937W        W27252  44.512  34.404  13.400
54938W        W27253  36.839  25.442   4.598
54939W        W27254  35.129  33.143   0.348
54940W        W27255  13.586  40.364   3.582
54941W        W27256  30.876  30.113   3.723
54942W        W27257   8.904  25.685  11.856
54943W        W27258   9.238  21.124   3.835
54944W        W27259   8.831  34.940  11.009
54945W        W27260  35.520  14.371  12.139
54946W        W27261  40.044  13.237   1.164
54947W        W27262   2.811  37.581   0.549
54948W        W27263  12.597  38.621  13.798
54949W        W27264  40.119  26.108   4.044
54950W        W27265  24.557  17.036  11.501
54951W        W27266  18.755  16.750   2.236
54952W        W27267  43.291   3.945   4.193
54953W        W27268  18.186  17.660   0.504
54954W        W27269  25.262  30.193  11.075
54955W        W27270  10.630  20.774   0.909
54956W        W27271  39.442  40.861  11.921
54957W        W27272  40.878  27.682  14.874
54958W        W27273  12.758   4.463   0.025
54959W        W27274  33.537  10.135   4.080
54960W        W27275   5.716   1.706  11.158
54961W        W27276  13.892  32.623   4.577
54962W        W27277   1.906  44.026   2.313
54963W        W27278  27.192  29.612   3.994
54964W        W27279  17.830  22.255  13.885
54965W        W27280  33.624   1.527   0.016
54966W        W27281   3.966  38.845   4.220
54967W        W27282  16.344  29.035   2.241
54968W        W27283  12.804  23.053  11.430
54969W        W27284  37.840  26.481   3.671
54970W        W27285  43.028  27.942   2.635
54971W        W27286  39.289   8.473   0.876
54972W        W27287  41.729   5.401   4.220
54973W        W27288  30.912   6.134  13.883
54974W        W27289  38.991  36.930   2.106
54975W        W27290  11.130   3.454   1.853
54976W        W27291   9.824  38.937  12.396
54977W        W27292   3.769  37.432  11.599
54978W        W27293  19.247   7.866  12.579
54979W        W27294  28.862  40.929  11.206
54980W        W27295  19.099   4.766  11.527
54981W        W27296  36.977  25.104   3.401
54982W        W27297  40.485   1.962  11.968
54983W        W27298  36.132   7.941  11.572
54984W        W27299  33.361  26.529  11.412
54985W        W27300  16.871  15.197   3.327
54986W        W27301   0.424   3.737  10.514
54987W        W27302  17.592  34.833  14.275
54988W        W27303  39.769  27.986  12.022
54989W        W27304   7.249  11.386  11.956
54990W        W27305  24.195   3.473  12.142
54991W        W27306  42.996  30.869  10.924
54992W        W27307  20.645  16.655  14.277
54993W        W27308  30.782  12.296  11.776
54994W        W27309   9.250   6.443   4.048
54995W        W27310  28.129  22.123  10.120
54996W        W27311  27.262   3.937  12.598
54997W        W27312  21.695  25.556  10.685
54998W        W27313   7.128   0.405  12.819
54999W        W27314  35.020  25.271   4.209
55000W        W27315  25.577   1.108   0.246
55001W        W27316  25.962  34.362  11.649
55002W        W27317   8.932  35.487  12.136
55003W        W27318  26.159  31.569   9.591
55004W        W27319  10.329  37.659  13.920
55005W        W27320  15.756  31.025   4.161
55006W        W27321  17.585  44.426   4.903
55007W        W27322  23.979  37.562   4.475
55008W        W27323  20.360   6.170   0.806
55009W        W27324   1.251  24.590   1.241
55010W        W27325  14.792  18.288  10.704
55011W        W27326  22.254   1.732   1.467
55012W        W27327  11.112  26.162  12.872
55013W        W27328  39.455  17.839   4.514
55014W        W27329   9.026  30.407   4.140
55015W        W27330  28.177  26.680  12.017
55016W        W27331  38.088  37.092  14.038
55017W        W27332   1.751  29.607   2.143
55018W        W27333   1.482   3.806  14.713
55019W        W27334  20.474  35.010   3.857
55020W        W27335  15.586  33.571   1.656
55021W        W27336  38.357   3.211   1.288
55022W        W27337  27.429  16.982  10.438
55023W        W27338  33.420  30.777  11.030
55024W        W27339  30.775  42.685   0.821
55025W        W27340  17.509  43.465  12.014
55026W        W27341   8.345  10.386  12.021
55027W        W27342  33.573  44.149   0.306
55028W        W27343  12.436  16.130   1.862
55029W        W27344  29.958  19.131   4.346
55030W        W27345  29.616  20.826  10.578
55031W        W27346  16.751  18.555   0.819
55032W        W27347   0.460  26.414   4.547
55033W        W27348  40.488  29.103  10.661
55034W        W27349  31.522  41.789  10.726
55035W        W27350   1.803   2.194  12.641
55036W        W27351   0.539  29.477   2.749
55037W        W27352  22.435  37.681  12.274
55038W        W27353  38.136   3.322   3.672
55039W        W27354  20.089  31.188  14.985
55040W        W27355   7.729  23.120  13.507
55041W        W27356   1.805   2.973  14.318
55042W        W27357   8.351   5.807   3.779
55043W        W27358   0.025   8.373  14.846
55044W        W27359  15.211  31.787   2.863
55045W        W27360   1.657  25.015  13.473
55046W        W27361   1.691  32.120   4.175
55047W        W27362  33.012  26.766  11.068
55048W        W27363  25.093  28.682   3.822
55049W        W27364  31.364  32.171  11.468
55050W        W27365  43.944  25.950   3.762
55051W        W27366   2.273  38.212   3.596
55052W        W27367  12.101  38.097  13.330
55053W        W27368  16.697  37.919  11.086
55054W        W27369  40.554  29.130  13.568
55055W        W27370  20.631  24.353  13.221
55056W        W27371  40.331  26.709   2.094
55057W        W27372  29.936  10.681  11.325
55058W        W27373  30.436  35.970   4.920
55059W        W27374   9.663   1.756  10.602
55060W        W27375  19.789  15.164   0.103
55061W        W27376  34.458  24.247  12.102
55062W        W27377  42.038  16.623   3.253
55063W        W27378   3.440  27.370  11.814
55064W        W27379  18.796  30.326   9.855
55065W        W27380  17.154  11.285  14.435
55066W        W27381   9.830  22.228  13.066
55067W        W27382  29.012  11.695  11.193
55068W        W27383  18.517  30.900  10.096
55069W        W27384  10.920  33.095   2.289
55070W        W27385  20.672  14.993   1.751
55071W        W27386   5.886  25.390   3.688
55072W        W27387   4.080  21.220   1.374
55073W        W27388  14.883   8.713  11.912
55074W        W27389  38.450  21.749  14.262
55075W        W27390  24.881  13.563   0.410
55076W        W27391  32.060  36.910   2.199
55077W        W27392  24.685   9.985   0.017
55078W        W27393  37.306  14.633  13.431
55079W        W27394  21.099  44.451   4.601
55080W        W27395   0.952   9.964   1.951
55081W        W27396  15.954  43.980  14.005
55082W        W27397  18.028  21.181  10.178
55083W        W27398   2.411  20.815  13.577
55084W        W27399   5.274  20.577  11.501
55085W        W27400  40.541  34.907   0.864
55086W        W27401  15.078   8.135  11.629
55087W        W27402  42.972   5.937  12.867
55088W        W27403  24.744  32.005   1.698
55089W        W27404   5.848  29.051   3.198
55090W        W27405  34.118  32.790  11.523
55091W        W27406  13.433   5.225  12.381
55092W        W27407  16.985  25.581   4.063
55093W        W27408   5.922  12.918   1.267
55094W        W27409  40.036   0.760   3.362
55095W        W27410  22.905  39.779   4.134
55096W        W27411  40.851  37.541  14.886
55097W        W27412   9.730  28.993   1.046
55098W        W27413  23.569  25.185  14.882
55099W        W27414  30.895  10.762   0.236
55100W        W27415  38.499  23.463   4.064
55101W        W27416  26.527   0.877  12.033
55102W        W27417  19.447  11.359  10.134
55103W        W27418   2.433   5.692   4.062
55104W        W27419   1.728  33.472  13.596
55105W        W27420  44.899  23.292  12.015
55106W        W27421  19.735  38.368   2.755
55107W        W27422   1.525  42.570  11.203
55108W        W27423  19.173  30.351   1.160
55109W        W27424  35.785  14.825  13.404
55110W        W27425  15.201  38.789   3.141
55111W        W27426  13.150   3.778   1.438
55112W        W27427  28.211  30.111   3.172
55113W        W27428  33.871   6.060  10.704
55114W        W27429  18.669  22.565  11.297
55115W        W27430  34.440  16.220   3.263
55116W        W27431  13.276   5.330   1.646
55117W        W27432  14.997  26.383   0.062
55118W        W27433  31.655   8.956  10.824
55119W        W27434   9.208   3.458  14.860
55120W        W27435  28.776   8.740   4.628
55121W        W27436  21.026  32.032   3.604
55122W        W27437  44.749  24.519  12.588
55123W        W27438  33.691  22.986   1.895
55124W        W27439  40.779  35.843   2.495
55125W        W27440  36.916  17.563   3.730
55126W        W27441  28.909  44.090   2.020
55127W        W27442  22.419   8.574   3.196
55128W        W27443  36.691  42.795  13.320
55129W        W27444   4.704  43.457   3.927
55130W        W27445  43.480  19.048   1.812
55131W        W27446   1.885  16.544   4.513
55132W        W27447   9.727   4.705  10.723
55133W        W27448   5.023  15.548   2.883
55134W        W27449   4.918   5.861   3.711
55135W        W27450   2.344   0.042   0.934
55136W        W27451   7.836  19.998   0.901
55137W        W27452  43.289  41.072   3.370
55138W        W27453  31.897  39.218   0.690
55139W        W27454  25.591   3.200  10.555
55140W        W27455  32.934   7.798  11.803
55141W        W27456  38.053   5.329   1.501
55142W        W27457  39.483  31.877   0.194
55143W        W27458  14.917   7.025  12.846
55144W        W27459  15.258  28.298  14.479
55145W        W27460  27.911  16.167   4.120
55146W        W27461  29.147  40.473  11.141
55147W        W27462  33.452  31.637   2.656
55148W        W27463   5.914  14.035  12.857
55149W        W27464  20.828  31.050   3.231
55150W        W27465  21.389  40.766  10.795
55151W        W27466  44.037  13.164  13.982
55152W        W27467  17.254  33.212   0.401
55153W        W27468  32.698   5.088  14.448
55154W        W27469  34.076  12.175   2.261
55155W        W27470   3.602  30.968  13.557
55156W        W27471  25.026  24.312  14.506
55157W        W27472   3.887  33.610  14.475
55158W        W27473  16.842   0.456   0.974
55159W        W27474  37.456  35.258   4.243
55160W        W27475  21.951   4.848  11.515
55161W        W27476  23.912  43.518  14.399
55162W        W27477  44.904  26.976  13.327
55163W        W27478  33.241  10.149   0.303
55164W        W27479   8.372  29.154  14.947
55165W        W27480  17.535  32.248  11.795
55166W        W27481  39.014  19.228  14.922
55167W        W27482  29.619  43.961   4.121
55168W        W27483   4.846  22.044  12.583
55169W        W27484  43.655  39.402  12.412
55170W        W27485   3.863  19.810  12.940
55171W        W27486  22.091  11.367  14.906
55172W        W27487  26.315  13.170  12.049
55173W        W27488   4.145  37.983   2.654
55174W        W27489   3.076  19.610   4.733
55175W        W27490  40.830   8.828  14.528
55176W        W27491  15.209  39.583  11.573
55177W        W27492  25.908  39.214  12.466
55178W        W27493  21.289  36.867  13.806
55179W        W27494  19.311   3.396   2.620
55180W        W27495  37.464  44.704  13.906
55181W        W27496  20.537  27.286   1.969
55182W        W27497   9.704  22.707   4.532
55183W        W27498  22.098  19.529  12.512
55184W        W27499  14.102  28.692   3.385
55185W        W27500  29.373  41.997   1.252
55186W        W27501  17.321  25.192  14.869
55187W        W27502  44.994   8.491   2.450
55188W        W27503  24.990  33.031  12.479
55189W        W27504  14.680  38.944   1.986
55190W        W27505   6.991  29.914  13.795
55191W        W27506  19.978  31.508   4.280
55192W        W27507  14.609  32.093  11.177
55193W        W27508  25.823  37.963   3.650
55194W        W27509  34.181  36.733   3.819
55195W        W27510  37.534  15.106   2.810
55196W        W27511  16.198   7.585   2.189
55197W        W27512  42.021  33.933   4.602
55198W        W27513  23.936  41.289  14.030
55199W        W27514  40.217  15.116   2.413
55200W        W27515  40.917  21.976  14.292
55201W        W27516   9.347  32.109  10.587
55202W        W27517   8.737  41.455   4.247
55203W        W27518   9.940  28.932   4.084
55204W        W27519  14.614  28.147   0.830
55205W        W27520  37.074  25.442   4.119
55206W        W27521   5.779   6.464  10.592
55207W        W27522  17.115  19.132   0.793
55208W        W27523  25.451   0.701  12.017
55209W        W27524   5.017  37.750  11.067
55210W        W27525  18.425   4.464   0.923
55211W        W27526   8.257   4.730  12.280
55212W        W27527   4.268   1.437  11.058
55213W        W27528  32.409  26.207  11.570
55214W        W27529  24.633  36.034   0.840
55215W        W27530  24.056  17.484   2.338
55216W        W27531   8.285  11.316   1.811
55217W        W27532  11.857  10.210  11.615
55218W        W27533  27.991  24.234   1.262
55219W        W27534  19.993  39.918   3.279
55220W        W27535  15.858  38.032   4.767
55221W        W27536  11.274   0.853  14.999
55222W        W27537  39.123  27.004   2.095
55223W        W27538  33.859  43.770   2.658
55224W        W27539  29.526  11.870   5.342
55225W        W27540  42.379   1.173   0.714
55226W        W27541  16.997  10.781   4.576
55227W        W27542  11.444   0.018  12.064
55228W        W27543  21.997  34.183  12.930
55229W        W27544  14.742  11.219   0.385
55230W        W27545  38.356  40.539  10.725
55231W        W27546   8.508  32.699   3.224
55232W        W27547  31.763  12.150  11.568
55233W        W27548  27.923  32.825   1.815
55234W        W27549  20.188  16.359  11.047
55235W        W27550  40.819  17.938  12.860
55236W        W27551  12.543  14.630   2.471
55237W        W27552  35.962  11.123  13.021
55238W        W27553  24.259   0.550  13.991
55239W        W27554   1.525  14.161   3.232
55240W        W27555  26.524  16.865  13.931
55241W        W27556   9.893  14.332   2.875
55242W        W27557   5.591  11.812  13.395
55243W        W27558  15.280  20.077  13.272
55244W        W27559  34.414  35.031   3.710
55245W        W27560  29.862  32.032  11.894
55246W        W27561  30.504  19.278   4.252
55247W        W27562  41.928  14.871   4.630
55248W        W27563  24.544  40.167   0.720
55249W        W27564  14.595   3.664  11.218
55250W        W27565  43.680  38.722  13.392
55251W        W27566  14.767  44.913   3.634
55252W        W27567  17.003  24.990   2.762
55253W        W27568  43.353  10.763   0.879
55254W        W27569  28.970   6.424   4.272
55255W        W27570   3.022  20.945   3.085
55256W        W27571  32.057  34.467   2.060
55257W        W27572  16.316  36.598  13.551
55258W        W27573  39.439  29.165  14.207
55259W        W27574  22.417   7.796   3.702
55260W        W27575  18.849   3.288   1.689
55261W        W27576  20.318  10.633   5.174
55262W        W27577  39.032  19.030  13.561
55263W        W27578  35.982  15.075  12.062
55264W        W27579  39.184  26.692  10.189
55265W        W27580  42.823  35.319  13.840
55266W        W27581   7.379  24.033   4.616
55267W        W27582  14.151   6.932  13.397
55268W        W27583   5.377  29.019   4.622
55269W        W27584  15.068   4.300   1.329
55270W        W27585  28.274  41.713   0.232
55271W        W27586  31.765  34.898   0.306
55272W        W27587  37.725  32.033   4.021
55273W        W27588  20.687   3.069   3.204
55274W        W27589  10.120  20.474   2.275
55275W        W27590  17.278   7.622   1.675
55276W        W27591  27.809  31.712  12.585
55277W        W27592  27.578  20.233   1.921
55278W        W27593  18.823  33.589  10.035
55279W        W27594  30.112  15.045   0.179
55280W        W27595  31.012   3.179  10.009
55281W        W27596  22.520  38.408   3.744
55282W        W27597  15.590   6.143   3.090
55283W        W27598   5.453  27.146   3.695
55284W        W27599  25.040  22.502  13.946
55285W        W27600  30.828   8.628  12.566
55286W        W27601  42.374  17.083  11.595
55287W        W27602  36.985  21.665   1.775
55288W        W27603  23.861  15.614  10.737
55289W        W27604  10.703  15.824   3.327
55290W        W27605  21.157  25.522   2.734
55291W        W27606  26.409  34.091   4.946
55292W        W27607  42.240  18.254  10.444
55293W        W27608  13.983  20.201  10.852
55294W        W27609   2.424  10.169   0.043
55295W        W27610  16.829  16.808  12.464
55296W        W27611  31.443   0.421  11.091
55297W        W27612  37.899  21.330  14.346
55298W        W27613  21.971  13.166  10.668
55299W        W27614  34.381   5.955  12.309
55300W        W27615   4.180  13.807   3.674
55301W        W27616  32.024   1.306  13.967
55302W        W27617  11.245  20.823   2.697
55303W        W27618  11.171  28.670   1.960
55304W        W27619  37.676  15.913   2.232
55305W        W27620   6.611  10.145   1.062
55306W        W27621  38.892  33.166   1.132
55307W        W27622   2.891  34.002  12.796
55308W        W27623  32.583  30.563  13.118
55309W        W27624  26.129  40.554   2.299
55310W        W27625  12.794   5.339   2.996
55311W        W27626   5.394  27.249  13.871
55312W        W27627  30.997   2.040  14.421
55313W        W27628   9.313  15.486  10.082
55314W        W27629  12.589  18.010  13.310
55315W        W27630  26.039  32.477   5.065
55316W        W27631  39.067  12.028  13.860
55317W        W27632  24.916  32.460  13.936
55318W        W27633  20.733  38.858  11.614
55319W        W27634   7.808  16.977   2.802
55320W        W27635  31.091  24.227   2.289
55321W        W27636  25.993  19.505   1.306
55322W        W27637   4.870  11.961   4.953
55323W        W27638   8.884  37.917  14.854
55324W        W27639  11.414  14.614  11.586
55325W        W27640  10.599  17.606   0.015
55326W        W27641  17.224  25.893  12.778
55327W        W27642  33.913  23.534  10.308
55328W        W27643   8.420   5.331   0.629
55329W        W27644  40.049  27.555   4.237
55330W        W27645  24.491  35.200  14.747
55331W        W27646  40.462  32.682   4.143
55332W        W27647   1.257  20.673  12.545
55333W        W27648  25.769  17.153  11.970
55334W        W27649  29.403  25.753   0.333
55335W        W27650  16.488  40.703   0.254
55336W        W27651  23.933  10.663   0.923
55337W        W27652  27.492  22.314   0.263
55338W        W27653  30.004  25.034  13.980
55339W        W27654   1.291  38.790   3.322
55340W        W27655  36.591  15.031  10.817
55341W        W27656  18.981  11.581  14.807
55342W        W27657  34.161  21.230  12.150
55343W        W27658  42.421  13.126   1.280
55344W        W27659   8.840  30.894   4.611
55345W        W27660  20.049  15.229   3.769
55346W        W27661  43.503  13.089   2.974
55347W        W27662  19.245   1.350  11.250
55348W        W27663  42.452  16.034  14.310
55349W        W27664  20.407  44.453   0.388
55350W        W27665  13.322   2.087   1.931
55351W        W27666  35.274  35.501   4.759
55352W        W27667  35.636   0.324  12.315
55353W        W27668  24.181   8.763  12.012
55354W        W27669  22.494   1.274   0.749
55355W        W27670  11.769  21.940   4.910
55356W        W27671   6.323   0.740   4.777
55357W        W27672  15.975  29.950  10.167
55358W        W27673   9.377  12.101  13.280
55359W        W27674  16.748  36.776   4.639
55360W        W27675  36.132  27.468  11.529
55361W        W27676  28.481  29.983  12.050
55362W        W27677  27.054  27.237  12.493
55363W        W27678  14.113  35.853   3.858
55364W        W27679  10.146  42.782  14.543
55365W        W27680  40.855  10.369   4.596
55366W        W27681  13.131   9.736   0.767
55367W        W27682  20.751  20.097   2.394
55368W        W27683  35.129  43.501   3.020
55369W        W27684  23.312   5.559  12.124
55370W        W27685   4.363  41.624  11.966
55371W        W27686  20.630   5.116   4.944
55372W        W27687  16.923  14.156  10.654
55373W        W27688   7.415   6.234   2.344
55374W        W27689  40.326  42.566   3.604
55375W        W27690  33.439  22.899  14.215
55376W        W27691   9.168  32.182  13.981
55377W        W27692  16.653  23.978  12.924
55378W        W27693  31.997  23.724  10.687
55379W        W27694  21.646   6.430   3.265
55380W        W27695  41.595  23.787  11.530
55381W        W27696  23.643  22.452  14.921
55382W        W27697  18.047   9.863  12.459
55383W        W27698  30.808   3.343  11.004
55384W        W27699  23.855   8.762   0.066
55385W        W27700  12.731  28.735   1.310
55386W        W27701  11.895   4.579   3.974
55387W        W27702  29.035  14.811   0.922
55388W        W27703   2.710  39.983  14.443
55389W        W27704  44.453  23.037   2.567
55390W        W27705  41.745  13.588   3.767
55391W        W27706  20.261  30.910  11.509
55392W        W27707  41.320  43.948   1.656
55393W        W27708   7.685   6.965   2.423
55394W        W27709  11.154  41.999   0.996
55395W        W27710  10.752  11.623  13.508
55396W        W27711  10.452  36.012  11.658
55397W        W27712  43.089  22.704   5.091
55398W        W27713  31.566   4.899   3.667
55399W        W27714  19.692   6.365   3.911
55400W        W27715   0.481   0.876   0.357
55401W        W27716  12.205  14.399   2.150
55402W        W27717   0.325  13.215   3.578
55403W        W27718  13.035  26.823   4.903
55404W        W27719  33.767  40.286   1.338
55405W        W27720  31.505  28.456  10.929
55406W        W27721  39.833  12.114  12.339
55407W        W27722  11.147  24.524  12.457
55408W        W27723  27.487  21.499   3.255
55409W        W27724  19.120  12.809  14.302
55410W        W27725  42.527  44.472   2.792
55411W        W27726  33.626   5.592  12.933
55412W        W27727  20.230  23.982   4.215
55413W        W27728   8.088  42.361   1.657
55414W        W27729  24.269  12.546  11.057
55415W        W27730   3.944   8.794  13.415
55416W        W27731  38.165  13.834  12.831
55417W        W27732  40.311   1.909  14.076
55418W        W27733  22.683  16.231   0.112
55419W        W27734  28.553  19.597  13.981
55420W        W27735  21.775  21.160  14.527
55421W        W27736  40.994  24.837  12.942
55422W        W27737  15.567  43.560   2.271
55423W        W27738  36.123   5.868  11.590
55424W        W27739  33.336  11.764   5.003
55425W        W27740  11.741  16.140  10.666
55426W        W27741  30.406  36.860   1.147
55427W        W27742  28.962  17.039  12.579
55428W        W27743  15.654   5.893  12.478
55429W        W27744  35.115  15.822   3.646
55430W        W27745  29.029  39.958   0.765
55431W        W27746   6.642  27.529   2.264
55432W        W27747   3.839   2.497   0.818
55433W        W27748  26.134  28.042  11.120
55434W        W27749  36.129  24.422   4.728
55435W        W27750   9.702   7.935   0.649
55436W        W27751  14.236  44.114   4.926
55437W        W27752  22.276  37.054  13.732
55438W        W27753   6.833  18.126   3.364
55439W        W27754  26.402  35.446   2.047
55440W        W27755  11.237  40.275  11.030
55441W        W27756  27.954   0.361   1.217
55442W        W27757  35.422  39.297   0.747
55443W        W27758  16.553  37.088  12.011
55444W        W27759  36.613  39.551   0.294
55445W        W27760  12.104  11.127   0.484
55446W        W27761  19.136  21.735  11.559
55447W        W27762   6.992  26.243  12.833
55448W        W27763  16.062   1.000  14.042
55449W        W27764  16.602  26.131  13.581
55450W        W27765   6.850  36.816   4.693
55451W        W27766  14.180  15.306  11.043
55452W        W27767  29.262   6.880   3.805
55453W        W27768  14.408   9.327   3.134
55454W        W27769  35.355  20.550  12.910
55455W        W27770   4.513  32.430  13.410
55456W        W27771   2.287  43.314   4.219
55457W        W27772   4.493  14.724  11.172
55458W        W27773   9.628   2.292  10.663
55459W        W27774  36.794   4.827   3.639
55460W        W27775  10.611  25.779   0.264
55461W        W27776  41.103   1.765  14.999
55462W        W27777  40.601  33.594   1.439
55463W        W27778  22.397  41.583  12.034
55464W        W27779  17.084  33.394  11.105
55465W        W27780  31.376  25.964   0.589
55466W        W27781  35.892   2.210   1.771
55467W        W27782  15.338  30.023  13.944
55468W        W27783  18.320   9.783  11.875
55469W        W27784   6.881  36.836   2.784
55470W        W27785   8.652  33.523   3.144
55471W        W27786  39.654  31.801  11.677
55472W        W27787  17.033  30.645  14.529
55473W        W27788   4.365  21.167  14.465
55474W        W27789  34.169  38.833   3.722
55475W        W27790   7.734  21.191  12.953
55476W        W27791   1.310  36.637   1.024
55477W        W27792  18.542  40.761  10.730
55478W        W27793  42.968   3.888   4.662
55479W        W27794  38.374  24.390  14.946
55480W        W27795  37.088   3.194  12.109
55481W        W27796   7.230  39.284  12.089
55482W        W27797  15.022  24.931  13.452
55483W        W27798  15.734  19.655   4.577
55484W        W27799  43.445  23.062  12.772
55485W        W27800   4.431  41.279  11.132
55486W        W27801   4.458  36.508  12.541
55487W        W27802   3.829  12.923  10.822
55488W        W27803   7.337   1.459   3.081
55489W        W27804  18.132  40.753  12.442
55490W        W27805   3.145   1.943  13.788
55491W        W27806  14.613  39.396  12.013
55492W        W27807   2.857  14.361  13.681
55493W        W27808  37.845  21.524  12.978
55494W        W27809  44.439  23.880  10.416
55495W        W27810   1.210   2.913  13.020
55496W        W27811   0.299  25.194   0.908
55497W        W27812   8.736  19.291  10.459
55498W        W27813  27.881  35.035   2.385
55499W        W27814   1.630  31.491   4.600
55500W        W27815   6.804  18.811   4.727
55501W        W27816  19.150  27.340  14.944
55502W        W27817   7.186  14.322  14.965
55503W        W27818  38.076   8.242   3.192
55504W        W27819   4.801  14.243   3.126
55505W        W27820  41.212   1.399  13.077
55506W        W27821   2.017  12.617  14.645
55507W        W27822  43.861   3.947   4.555
55508W        W27823  14.554  37.936  13.365
55509W        W27824  14.630  23.371  11.919
55510W        W27825  41.540  29.939  12.049
55511W        W27826  36.641  40.489   3.775
55512W        W27827  16.646  31.463  11.020
55513W        W27828   1.649  23.060   3.347
55514W        W27829  40.733   3.913   1.855
55515W        W27830  25.055  32.872   2.418
55516W        W27831   1.880  34.790  11.581
55517W        W27832  21.503  22.224  13.612
55518W        W27833   9.580  44.810  13.925
55519W        W27834  23.077  42.717  11.454
55520W        W27835   7.983  22.393   5.298
55521W        W27836  34.806   6.691   4.321
55522W        W27837  40.474  18.633   0.558
55523W        W27838  11.462  13.763  11.603
55524W        W27839  17.978  18.123  13.721
55525W        W27840  23.620  40.339  10.736
55526W        W27841  40.083  14.574  14.151
55527W        W27842  15.365  38.746   1.244
55528W        W27843  28.406  30.979  12.877
55529W        W27844   6.251   3.351   1.363
55530W        W27845  15.143  26.887   0.007
55531W        W27846  38.804  26.527   3.781
55532W        W27847  21.898  40.061   4.136
55533W        W27848  30.826  14.779  14.994
55534W        W27849   4.662   9.641  11.244
55535W        W27850   4.888  17.927  10.375
55536W        W27851  32.460  12.969   1.500
55537W        W27852  13.172  11.623  13.170
55538W        W27853   6.470  26.110  10.513
55539W        W27854  19.258  16.789  13.906
55540W        W27855  11.900  26.711   0.856
55541W        W27856  25.008  39.511  14.029
55542W        W27857  30.468  32.600  14.959
55543W        W27858  16.389  32.120  11.688
55544W        W27859  44.465  23.633   0.404
55545W        W27860  34.046   1.811  13.773
55546W        W27861  41.894  12.041   1.605
55547W        W27862   5.835  24.467  12.763
55548W        W27863  43.521  22.659   1.345
55549W        W27864  11.720   6.818  12.272
55550W        W27865   8.263  11.084   0.450
55551W        W27866  29.736  44.882  14.329
55552W        W27867  26.918  44.009  10.514
55553W        W27868  32.964   5.982   1.745
55554W        W27869  40.814  30.712  11.114
55555W        W27870  35.699  13.787   0.294
55556W        W27871  18.223  11.213  13.442
55557W        W27872   9.172   7.730   3.761
55558W        W27873   0.811  44.191  13.998
55559W        W27874  21.558  27.081  10.699
55560W        W27875  15.003  17.298   4.068
55561W        W27876   0.333  30.992  11.900
55562W        W27877  18.566  22.974  13.679
55563W        W27878  26.959   9.068  14.550
55564W        W27879  25.519  41.080  12.994
55565W        W27880  18.221  20.944   4.882
55566W        W27881  26.755   5.765   1.486
55567W        W27882  16.536  41.848   0.235
55568W        W27883   6.325  33.565   0.340
55569W        W27884  43.438  14.081  12.681
55570W        W27885  21.717  18.535   1.458
55571W        W27886  10.683  12.941   4.266
55572W        W27887   3.024  33.088   2.328
55573W        W27888  34.009  21.650   0.965
55574W        W27889  11.730  22.136  13.700
55575W        W27890  37.394  10.222   1.351
55576W        W27891  30.146  21.210   3.753
55577W        W27892  21.956  31.691  10.533
55578W        W27893   1.524  18.574   2.854
55579W        W27894  20.809  38.439   4.838
55580W        W27895  37.227  10.933  11.407
55581W        W27896   4.433  37.914   1.276
55582W        W27897  43.998   5.872  10.506
55583W        W27898  18.263  26.389  11.464
55584W        W27899   8.388  19.822   0.814
55585W        W27900  20.682  39.753  10.706
55586W        W27901  32.995  26.734  12.027
55587W        W27902  34.395  28.448  14.775
55588W        W27903  38.989  21.499  12.004
55589W        W27904  35.442  33.875   0.542
55590W        W27905  23.235  43.676   3.334
55591W        W27906   3.703  29.584  13.989
55592W        W27907   8.388   4.016  11.182
55593W        W27908  14.371  21.995  13.538
55594W        W27909  41.874   7.466   2.817
55595W        W27910  11.166  29.556  11.657
55596W        W27911   2.815  30.028   0.544
55597W        W27912  14.319  19.614   2.444
55598W        W27913  19.996  11.368   1.816
55599W        W27914  30.074  44.859   4.086
55600W        W27915  31.644   7.846  13.830
55601W        W27916  24.063  30.341   2.363
55602W        W27917   1.310  42.978   3.818
55603W        W27918   6.186  43.600   0.691
55604W        W27919  41.844  13.055  11.560
55605W        W27920  41.508  16.066  12.819
55606W        W27921  10.709  28.139   0.229
55607W        W27922  39.580  14.760   4.884
55608W        W27923   8.911  39.289  10.699
55609W        W27924  13.113   1.523  12.514
55610W        W27925  29.339  38.935   5.112
55611W        W27926  34.506  41.376   2.228
55612W        W27927  20.635  42.226  12.490
55613W        W27928  24.683  29.021  14.911
55614W        W27929   6.886   1.703   3.328
55615W        W27930   9.798  28.006   1.060
55616W        W27931  35.951  44.708  12.907
55617W        W27932  17.129  17.548   3.643
55618W        W27933  20.244  29.500   3.219
55619W        W27934  24.303  29.494   4.093
55620W        W27935   9.346  20.646  12.459
55621W        W27936  27.994  37.064  12.053
55622W        W27937  13.541  41.895   4.246
55623W        W27938   5.665  42.298  13.884
55624W        W27939  28.628  38.818  11.142
55625W        W27940  29.481  28.700  14.263
55626W        W27941   3.802  14.005   4.397
55627W        W27942   5.388  10.453  11.542
55628W        W27943   4.961  32.618  12.076
55629W        W27944  36.940  19.855   0.693
55630W        W27945  25.717  18.013  10.536
55631W        W27946  23.613  43.832   3.862
55632W        W27947  15.694   4.265  11.705
55633W        W27948  35.878   6.740   1.841
55634W        W27949  16.884   9.755   2.656
55635W        W27950  35.585   0.040   4.529
55636W        W27951  18.561  42.299  13.909
55637W        W27952  14.145  32.050   4.414
55638W        W27953  24.510  31.617  13.780
55639W        W27954   4.457   0.406  13.411
55640W        W27955  44.695   7.395   0.647
55641W        W27956   4.967  38.609  13.380
55642W        W27957   7.845  33.584  14.802
55643W        W27958  40.358  11.613   2.797
55644W        W27959  24.395  44.214   4.233
55645W        W27960   1.192  24.522   3.067
55646W        W27961  13.909  38.411   0.699
55647W        W27962  25.209  34.785   4.961
55648W        W27963  28.029  13.829   2.666
55649W        W27964  40.426   7.428   0.356
55650W        W27965  34.432  23.321   2.936
55651W        W27966  32.900   7.297   3.693
55652W        W27967  38.292  17.785  13.493
55653W        W27968  39.810  42.739  13.490
55654W        W27969   8.715  34.599   1.709
55655W        W27970  27.450  36.450  12.523
55656W        W27971  38.086  28.649  12.677
55657W        W27972   4.930  38.068   1.292
55658W        W27973  33.026  10.281   2.136
55659W        W27974  35.982  40.587   2.592
55660W        W27975  28.907  21.598   0.890
55661W        W27976  39.973  26.144  14.007
55662W        W27977  17.969   1.265  12.399
55663W        W27978  14.827   6.296   0.680
55664W        W27979  12.751  37.067   4.214
55665W        W27980  38.989  16.842   2.993
55666W        W27981  27.636  34.185  13.042
55667W        W27982  29.476  19.110   2.732
55668W        W27983  19.522  28.944  13.858
55669W        W27984  13.924  13.905  11.447
55670W        W27985  30.633  44.431  11.981
55671W        W27986  29.289  27.016  13.887
55672W        W27987   5.952  35.447  13.739
55673W        W27988   3.818  42.561   1.758
55674W        W27989  19.754  26.546  12.475
55675W        W27990  18.800   2.339   0.209
55676W        W27991  14.699  29.158   5.022
55677W        W27992  21.691  14.355   0.518
55678W        W27993  21.021   1.791   1.882
55679W        W27994  10.346   6.631  14.541
55680W        W27995  31.451   5.413  13.589
55681W        W27996   9.711   4.188  13.754
55682W        W27997  22.981  32.926   1.805
55683W        W27998  21.020  13.836   0.420
55684W        W27999  36.317  35.986   0.661
55685W        W28000  16.653  14.721  11.561
55686W        W28001   7.708  44.513   2.156
55687W        W28002  14.075  31.906   2.378
55688W        W28003  36.990  16.462   4.486
55689W        W28004   5.145   1.053   1.342
55690W        W28005  11.853  41.500   2.956
55691W        W28006  23.632   8.330   3.695
55692W        W28007  38.307  40.700  13.876
55693W        W28008   0.856  37.122  10.604
55694W        W28009  42.968  35.663  11.055
55695W        W28010  32.486  18.843   1.708
55696W        W28011  31.924  41.880  14.932
55697W        W28012  28.037  23.031  11.181
55698W        W28013   5.389  41.464   3.464
55699W        W28014  22.578  40.551   3.963
55700W        W28015  30.130  18.124   1.188
55701W        W28016  25.703  17.155   4.131
55702W        W28017   9.733  37.090  13.036
55703W        W28018  33.159  34.505  13.745
55704W        W28019  42.899  13.344  11.572
55705W        W28020  24.959  33.850  10.963
55706W        W28021  11.893   6.459  11.907
55707W        W28022  13.051  21.615   4.615
55708W        W28023  43.497  25.385   3.106
55709W        W28024   3.838  24.959   2.651
55710W        W28025   2.003  24.621  11.096
55711W        W28026  33.089   5.247   2.329
55712W        W28027  16.585  16.690  14.884
55713W        W28028  30.729  34.206  14.027
55714W        W28029  16.016   3.534   3.720
55715W        W28030  15.598  39.405   3.723
55716W        W28031  39.838  41.945  14.011
55717W        W28032  36.339  19.505  13.356
55718W        W28033  29.549  29.651   0.377
55719W        W28034  12.971  32.828   2.134
55720W        W28035  36.824  42.285   2.165
55721W        W28036  33.961  27.228  11.402
55722W        W28037  43.119  31.291   1.384
55723W        W28038  19.225  12.866   3.337
55724W        W28039  42.386  23.567   1.341
55725W        W28040  39.597  24.202   1.320
55726W        W28041  32.915   4.710  11.099
55727W        W28042  15.701   9.256  12.029
55728W        W28043   3.859   1.981   0.882
55729W        W28044  32.484  25.148   2.640
55730W        W28045  19.015  21.132  10.459
55731W        W28046  34.038  32.381   4.598
55732W        W28047   5.156  28.819   3.334
55733W        W28048  25.775  31.685   1.171
55734W        W28049  40.500  21.023  12.335
55735W        W28050  42.404  43.645   0.444
55736W        W28051  13.645   2.737   1.343
55737W        W28052  22.606   4.247  14.954
55738W        W28053  13.377  41.449  14.728
55739W        W28054   5.745  39.381  14.729
55740W        W28055  22.048  43.606  14.475
55741W        W28056  24.822  29.217   2.903
55742W        W28057  28.170  12.011   4.380
55743W        W28058  25.941   6.204  13.923
55744W        W28059  44.000  41.245   2.139
55745W        W28060  40.057  41.768   4.650
55746W        W28061  38.350  18.541   2.717
55747W        W28062  27.465  23.213  12.940
55748W        W28063  33.992  26.237  10.972
55749W        W28064  32.411  38.557  14.553
55750W        W28065  29.402  13.165   2.309
55751W        W28066  32.178  40.527   2.150
55752W        W28067  18.608  38.294   3.325
55753W        W28068   5.101   1.961   3.811
55754W        W28069  41.039  18.069   4.660
55755W        W28070  10.484  27.312   0.739
55756W        W28071  43.814  31.983   0.245
55757W        W28072  13.976  16.320   2.313
55758W        W28073  35.042   8.928   0.773
55759W        W28074   7.848  29.671   3.363
55760W        W28075   8.390   3.342   0.864
55761W        W28076  43.863   4.707  13.235
55762W        W28077  43.182  20.685  11.831
55763W        W28078   9.403  22.942   3.079
55764W        W28079  34.690   3.832   0.982
55765W        W28080  22.197  20.085   2.378
55766W        W28081   5.892  33.646  13.045
55767W        W28082  41.291  15.213   4.157
55768W        W28083  25.937  41.356  11.584
55769W        W28084  18.908   4.247  11.585
55770W        W28085  33.915   9.408  13.883
55771W        W28086  28.229   6.331   2.656
55772W        W28087  22.209   3.095  14.441
55773W        W28088   0.028  11.798   3.227
55774W        W28089  30.552  30.880   0.336
55775W        W28090  35.828  31.004   4.287
55776W        W28091  10.222  43.900   3.093
55777W        W28092  34.351  29.031  11.560
55778W        W28093   1.447  29.477  12.890
55779W        W28094  13.416  40.975   2.336
55780W        W28095  34.955   3.809   3.603
55781W        W28096  44.064   6.585   4.986
55782W        W28097  33.331  10.377   3.663
55783W        W28098  32.070   4.480  10.686
55784W        W28099  24.647  30.380   1.914
55785W        W28100  27.845  17.398   0.300
55786W        W28101   6.494  34.582   1.313
55787W        W28102  42.420  44.017  11.195
55788W        W28103  12.605   9.776  11.444
55789W        W28104   2.178  41.090  12.102
55790W        W28105  38.271   3.517   2.118
55791W        W28106  41.838  10.296  12.141
55792W        W28107  29.724  39.238   2.790
55793W        W28108  33.879  25.725  14.875
55794W        W28109  30.871   6.946   4.771
55795W        W28110  16.003  28.462   1.401
55796W        W28111  29.434   4.290  11.702
55797W        W28112  23.448  15.075  13.440
55798W        W28113  12.908  24.047   1.888
55799W        W28114  12.207   3.707  11.518
55800W        W28115  29.440   8.854   0.430
55801W        W28116  42.525  14.769  10.960
55802W        W28117  40.918  28.529   2.742
55803W        W28118   0.376  33.147   3.056
55804W        W28119  27.220  12.738   1.251
55805W        W28120  14.055  10.788  11.415
55806W        W28121  20.130  25.662   2.471
55807W        W28122  36.136  39.349  12.197
55808W        W28123   8.678  38.566  14.005
55809W        W28124  19.788  20.602  12.024
55810W        W28125  39.435  40.020  11.528
55811W        W28126  29.121  13.763   1.726
55812W        W28127  14.230  27.014  11.844
55813W        W28128   4.263  38.418   4.139
55814W        W28129  37.464   5.061   1.171
55815W        W28130  32.555  37.274  12.065
55816W        W28131  21.450  39.393  11.378
55817W        W28132  11.625  36.523   2.916
55818W        W28133   4.630   9.783  12.840
55819W        W28134   6.400  35.137   0.307
55820W        W28135  41.289  42.274   0.686
55821W        W28136  18.036  44.343   3.616
55822W        W28137  24.181   0.756   2.371
55823W        W28138  38.560  20.467   0.739
55824W        W28139  11.779  11.640   2.823
55825W        W28140   5.820   3.923  11.371
55826W        W28141   2.871  31.716  13.838
55827W        W28142  43.983   6.279  13.635
55828W        W28143   1.329  12.106  10.176
55829W        W28144  42.875  10.597   1.780
55830W        W28145  31.087  21.873  11.881
55831W        W28146  24.335  15.563  14.730
55832W        W28147  27.416   0.184  14.485
55833W        W28148   8.374  23.743   3.604
55834W        W28149  29.430  24.626   4.152
55835W        W28150  43.297  10.157  10.726
55836W        W28151  27.413  29.396  13.997
55837W        W28152  25.096   5.759   4.042
55838W        W28153  43.181  41.836  11.552
55839W        W28154   6.448  17.094   0.443
55840W        W28155  11.587  13.008   1.408
55841W        W28156  15.580   3.810  11.429
55842W        W28157  19.264  18.622  13.784
55843W        W28158  17.146   4.666   1.692
55844W        W28159   0.732  43.545  12.964
55845W        W28160  12.604   9.186   1.828
55846W        W28161  11.239   3.712  11.905
55847W        W28162  27.452  40.793   2.347
55848W        W28163  21.530   9.451  12.018
55849W        W28164  19.033  18.187  14.865
55850W        W28165  30.651  16.315  14.437
55851W        W28166   0.527   6.704  14.602
55852W        W28167  24.010   2.370   4.597
55853W        W28168  17.838   1.182  13.791
55854W        W28169  15.334  34.612  11.793
55855W        W28170  42.866  29.012   2.574
55856W        W28171   7.614   6.142   2.824
55857W        W28172  30.161   5.565  12.105
55858W        W28173  39.260  24.673  11.684
55859W        W28174  35.145   1.203  14.269
55860W        W28175   0.619   5.024   4.211
55861W        W28176  16.861  15.641   2.753
55862W        W28177   3.524  36.014   2.357
55863W        W28178  11.166  16.232   3.937
55864W        W28179  34.430  19.683  14.391
55865W        W28180  35.003   2.196  14.952
55866W        W28181  18.644  29.123   3.313
55867W        W28182  26.607  37.624   3.167
55868W        W28183  37.151  30.561   4.656
55869W        W28184  26.234  33.022   0.306
55870W        W28185  29.551  23.676  11.007
55871W        W28186   8.152   9.944  11.053
55872W        W28187  33.656   2.028   4.233
55873W        W28188  18.340  31.911  12.877
55874W        W28189  39.649   4.859  14.472
55875W        W28190  16.823  18.375   1.353
55876W        W28191   4.775  16.165  11.885
55877W        W28192   2.726  14.773   5.047
55878W        W28193   4.747  36.970  10.775
55879W        W28194  38.511  15.584   4.614
55880W        W28195  41.857  39.021   1.261
55881W        W28196  24.303   1.306  13.482
55882W        W28197  42.470  17.870  14.244
55883W        W28198  11.429   6.161  12.013
55884W        W28199  44.183  11.391  11.498
55885W        W28200  38.195  23.416   0.018
55886W        W28201  15.317   5.368  11.892
55887W        W28202  34.386  10.326   2.254
55888W        W28203  11.655  38.015  14.553
55889W        W28204  14.169  24.460  13.319
55890W        W28205  22.279  34.879   1.236
55891W        W28206  15.864  16.215   2.040
55892W        W28207   2.476  29.333   4.487
55893W        W28208  42.446  37.067   0.325
55894W        W28209  26.715  18.234  13.098
55895W        W28210   5.493  26.199  14.338
55896W        W28211  31.076  38.922  11.563
55897W        W28212  31.366   6.116   1.437
55898W        W28213  21.622  32.668   2.216
55899W        W28214  38.018  21.296   2.478
55900W        W28215  30.959  44.912  14.540
55901W        W28216  21.180  40.098  14.485
55902W        W28217  28.145  12.185   0.387
55903W        W28218  19.730  43.116  13.922
55904W        W28219   2.790  43.243  12.512
55905W        W28220  13.474  24.881   3.753
55906W        W28221  27.206  39.630  11.590
55907W        W28222  21.813  31.006   0.713
55908W        W28223  30.854  13.924   2.366
55909W        W28224  31.634   2.493  13.990
55910W        W28225   8.848  29.639   2.284
55911W        W28226  35.403   1.704   1.019
55912W        W28227   2.782   6.236   2.961
55913W        W28228  27.908  27.278  10.206
55914W        W28229   9.903  20.183   4.550
55915W        W28230  28.716  31.400   5.489
55916W        W28231  24.341   4.989  13.677
55917W        W28232  31.929   2.396  11.941
55918W        W28233  44.018  35.951  11.550
55919W        W28234   5.969  37.416  13.975
55920W        W28235  38.337   3.993  10.630
55921W        W28236  16.612   4.449   5.209
55922W        W28237  15.300  39.287   3.122
55923W        W28238  22.285  21.242   2.167
55924W        W28239  33.047  37.778   1.561
55925W        W28240  30.539  23.182  13.860
55926W        W28241  32.530  37.115  14.473
55927W        W28242  14.108  28.699  12.554
55928W        W28243  23.585  30.135  13.494
55929W        W28244  15.524  44.766  11.062
55930W        W28245  32.185  30.488  12.801
55931W        W28246  28.969  41.290   1.248
55932W        W28247  10.890  39.023  11.558
55933W        W28248   9.385  22.282   4.309
55934W        W28249  35.558   9.774  10.662
55935W        W28250  17.952  26.568  14.808
55936W        W28251   1.844  36.794   3.687
55937W        W28252  23.953  37.788  13.385
55938W        W28253  37.292   8.897   1.056
55939W        W28254  18.378   0.669  13.224
55940W        W28255  18.781  11.705   0.284
55941W        W28256   1.406  17.309   1.790
55942W        W28257  35.380  26.068   1.841
55943W        W28258  13.133  13.752   4.579
55944W        W28259  36.479   2.912  13.921
55945W        W28260  20.325  30.254  13.031
55946W        W28261  30.579  32.722  13.470
55947W        W28262  38.235  32.077   4.152
55948W        W28263  35.481  14.722  13.826
55949W        W28264  32.106  12.722   3.611
55950W        W28265  35.882  39.866   1.336
55951W        W28266   5.274  28.721   4.188
55952W        W28267  25.006  37.344  10.426
55953W        W28268  26.425  41.602   0.486
55954W        W28269  39.705  25.823   3.720
55955W        W28270  16.367  15.777   1.254
55956W        W28271  18.134   9.075   0.781
55957W        W28272   6.928  36.174  12.843
55958W        W28273  11.817  26.944   2.135
55959W        W28274  30.368   3.470   1.409
55960W        W28275  43.007   4.466   0.892
55961W        W28276   4.194  26.161   1.490
55962W        W28277  33.080  39.589  11.280
55963W        W28278   7.110   9.281  14.740
55964W        W28279  35.373  42.351   2.684
55965W        W28280  42.515  37.984  14.494
55966W        W28281   8.248  22.523  13.881
55967W        W28282  41.857  12.704  14.433
55968W        W28283  36.368  22.128  14.738
55969W        W28284  37.157  19.626   4.870
55970W        W28285  24.229  43.097  11.091
55971W        W28286  16.005  41.622  13.764
55972W        W28287  38.837  14.281  10.261
55973W        W28288  10.066   7.370   4.584
55974W        W28289   4.721   9.175   3.208
55975W        W28290  11.665  17.261   0.760
55976W        W28291  25.115  19.708   0.773
55977W        W28292  44.795   4.762   0.987
55978W        W28293  32.048  33.675   4.197
55979W        W28294  22.266  29.880  14.883
55980W        W28295  15.158  13.158  11.148
55981W        W28296  19.240  18.590  10.756
55982W        W28297  15.371  21.037  13.516
55983W        W28298   2.570  15.612   4.925
55984W        W28299  20.605   2.744  12.920
55985W        W28300  33.366  39.421   1.267
55986W        W28301  13.560  41.780  11.524
55987W        W28302  15.906  26.656  11.335
55988W        W28303  19.122  36.387   0.109
55989W        W28304  43.572  29.566  14.776
55990W        W28305  22.724   7.377   2.202
55991W        W28306  27.633   3.395   3.832
55992W        W28307  13.156  25.768  14.333
55993W        W28308  40.443  12.839   0.507
55994W        W28309  29.699  29.175  13.021
55995W        W28310   5.207   5.681   3.316
55996W        W28311  16.589  37.008   2.302
55997W        W28312  43.000   4.901   0.625
55998W        W28313  37.853  25.535   3.816
55999W        W28314  38.019  43.853  14.843
56000W        W28315  34.889  20.219   4.684
56001W        W28316  31.456   6.762   2.440
56002W        W28317   9.997  29.048   1.472
56003W        W28318   1.387  37.662  14.382
56004W        W28319   0.944  19.557   2.257
56005W        W28320   2.102  44.058  12.269
56006W        W28321   7.012  17.226   3.332
56007W        W28322  35.446  12.868  13.024
56008W        W28323  25.174  13.048  14.558
56009W        W28324   7.715   2.753   0.478
56010W        W28325  30.531   3.953   1.294
56011W        W28326   8.931  40.786  11.928
56012W        W28327  40.635   2.855   4.195
56013W        W28328  22.240   5.590  13.128
56014W        W28329   3.708  17.020   0.685
56015W        W28330   8.369  20.486  13.177
56016W        W28331  17.258  32.056  11.372
56017W        W28332   9.759  21.433   3.164
56018W        W28333  44.682  22.989  12.419
56019W        W28334  13.608  14.294   2.284
56020W        W28335  15.701  35.905   3.334
56021W        W28336  14.839  30.921   4.611
56022W        W28337  10.863   7.064  10.794
56023W        W28338  39.056   4.404   3.156
56024W        W28339   3.543  38.983  12.762
56025W        W28340  24.387  29.182  10.305
56026W        W28341  11.710   4.317   3.554
56027W        W28342  43.854  19.174  12.111
56028W        W28343  20.050  19.577  12.817
56029W        W28344  28.715   4.883  13.119
56030W        W28345  19.300   5.259  10.511
56031W        W28346  43.042   4.218  14.393
56032W        W28347   5.858  18.754  12.413
56033W        W28348  24.189  34.647   5.149
56034W        W28349  25.920  29.536   1.269
56035W        W28350  11.908  43.221   0.839
56036W        W28351  14.673  30.472  13.061
56037W        W28352  24.166  16.756   0.949
56038W        W28353   3.213  39.956  14.452
56039W        W28354   0.078   1.913   2.849
56040W        W28355   8.571  22.660   1.765
56041W        W28356  39.006  11.273   2.957
56042W        W28357  26.726  10.417   4.610
56043W        W28358  43.781  39.361   2.291
56044W        W28359  42.367  36.952   0.834
56045W        W28360  17.600   0.314   2.720
56046W        W28361  34.558  33.012  12.097
56047W        W28362  41.609   8.820  13.983
56048W        W28363  35.985  41.263   3.281
56049W        W28364  18.622  13.892  12.104
56050W        W28365  40.886  38.528   1.782
56051W        W28366   6.841  23.590   2.815
56052W        W28367  24.251  25.240  12.140
56053W        W28368  21.530  30.586  11.349
56054W        W28369  38.821  13.517   0.876
56055W        W28370  28.077   7.268   3.945
56056W        W28371  40.768  10.228   0.546
56057W        W28372   9.201  30.669  13.039
56058W        W28373   7.955   6.763  12.560
56059W        W28374  39.472   1.671  11.468
56060W        W28375  12.800  31.050  13.109
56061W        W28376  11.355  23.015   3.296
56062W        W28377  40.310  23.339   4.906
56063W        W28378   0.844   9.784  10.360
56064W        W28379  18.597  38.158  10.341
56065W        W28380  23.721  22.822   1.359
56066W        W28381  37.934  18.237  11.037
56067W        W28382  34.692  11.497  12.486
56068W        W28383  18.203  27.626  11.939
56069W        W28384  40.766  44.443  10.350
56070W        W28385   6.912  18.387   0.268
56071W        W28386  27.683  13.039   0.358
56072W        W28387  22.941  22.044   1.939
56073W        W28388  31.572   6.920   1.943
56074W        W28389  29.132  15.746   0.019
56075W        W28390  43.106  39.636   3.230
56076W        W28391  32.986  39.439  12.202
56077W        W28392  28.983  39.557   4.679
56078W        W28393  36.888  27.822  10.666
56079W        W28394  29.059  19.245   1.419
56080W        W28395  42.756  38.715   3.214
56081W        W28396   4.948  13.839   1.314
56082W        W28397   9.734  27.749  14.394
56083W        W28398   3.295  35.534   1.690
56084W        W28399  41.495   8.947   4.299
56085W        W28400  11.899  20.146   1.260
56086W        W28401  43.836  10.673  10.155
56087W        W28402  44.698   5.402   4.329
56088W        W28403  43.536  27.881  14.453
56089W        W28404  38.870   8.321  10.939
56090W        W28405  31.527   2.727   1.200
56091W        W28406  21.566  18.364   0.979
56092W        W28407  41.720  11.876   2.504
56093W        W28408  23.794  33.415   3.161
56094W        W28409  33.339   6.327  14.943
56095W        W28410  27.968  31.977  10.659
56096W        W28411  33.165  29.908   2.322
56097W        W28412  27.592  27.390   3.386
56098W        W28413   8.574  26.983   3.824
56099W        W28414  44.851  26.140  10.741
56100W        W28415   4.412  37.047   2.657
56101W        W28416  44.872  19.800   3.534
56102W        W28417  35.575  12.586   3.438
56103W        W28418  38.502  21.625   1.835
56104W        W28419  26.983  32.393   1.896
56105W        W28420  11.282  22.193   2.311
56106W        W28421  41.181  18.756  11.541
56107W        W28422  22.281  27.459   0.205
56108W        W28423  31.508   9.155   2.653
56109W        W28424  36.105  37.612  11.904
56110W        W28425  19.371  15.235  14.793
56111W        W28426  15.586  33.179  14.247
56112W        W28427  22.257  14.261   4.290
56113W        W28428   7.063  43.058  11.548
56114W        W28429  35.169  13.736   0.261
56115W        W28430  18.646  19.270  14.705
56116W        W28431   0.267  13.115  13.281
56117W        W28432  23.545   6.435  14.913
56118W        W28433  34.373  34.996   0.467
56119W        W28434  25.790   6.771  14.572
56120W        W28435  29.415  12.131   1.434
56121W        W28436   9.884  29.177   3.100
56122W        W28437  28.157  22.319  12.448
56123W        W28438  29.360   1.787  11.537
56124W        W28439   8.189   0.432  12.944
56125W        W28440   5.503  14.292  13.067
56126W        W28441  40.514  13.626   4.674
56127W        W28442  14.031   0.985  14.939
56128W        W28443  14.564  26.005   1.853
56129W        W28444  37.682   9.309  13.043
56130W        W28445  39.964  20.614  14.318
56131W        W28446  20.798   6.095   4.675
56132W        W28447   8.666  13.218   1.238
56133W        W28448  41.982  29.946  11.579
56134W        W28449  29.227  19.865  14.395
56135W        W28450  32.134  19.818  11.974
56136W        W28451  37.118  27.611   1.679
56137W        W28452  35.905  31.203  12.618
56138W        W28453  16.337  24.662   3.362
56139W        W28454  14.358  16.003   2.198
56140W        W28455  17.877  31.832  12.633
56141W        W28456  27.953  22.062   1.917
56142W        W28457  24.572  39.139  12.529
56143W        W28458  24.948  43.830  13.964
56144W        W28459   7.822  41.784  12.991
56145W        W28460  14.685   6.878  14.932
56146W        W28461  44.931  26.221   3.997
56147W        W28462  36.420  13.639   1.132
56148W        W28463  35.833   5.775   2.384
56149W        W28464  39.646  30.058  13.945
56150W        W28465  10.780  17.115  11.892
56151W        W28466  40.136  43.772   4.713
56152W        W28467  38.862   4.807   4.521
56153W        W28468  17.543  33.433   1.427
56154W        W28469  43.471   6.297  13.929
56155W        W28470  20.461  20.330   4.622
56156W        W28471  12.108   4.262   3.240
56157W        W28472  35.508  23.587  11.348
56158W        W28473  32.570  25.403   0.762
56159W        W28474  12.142  37.310  12.895
56160W        W28475  31.103  15.666  12.415
56161W        W28476  33.733  13.155  11.920
56162W        W28477  39.974  17.312   0.612
56163W        W28478  31.786  40.053  14.999
56164W        W28479  31.982  37.075   4.330
56165W        W28480  41.510  17.716   3.360
56166W        W28481  28.127  33.126   2.215
56167W        W28482  43.450  27.157   0.156
56168W        W28483   2.859  38.494  10.862
56169W        W28484  25.128  10.609  14.595
56170W        W28485   2.998  38.493   3.818
56171W        W28486  23.113   9.667   4.635
56172W        W28487  31.594   9.068  14.973
56173W        W28488  21.692  24.930   4.745
56174W        W28489  35.520  14.133   2.364
56175W        W28490  23.105  15.224   0.996
56176W        W28491  41.423   5.454  12.939
56177W        W28492   5.798  38.423   2.018
56178W        W28493  15.521  21.242   3.801
56179W        W28494   4.263  34.434  11.469
56180W        W28495  25.390  30.692  11.052
56181W        W28496  18.866   0.526   0.864
56182W        W28497  30.416  10.867   0.331
56183W        W28498  38.982  23.428  12.106
56184W        W28499  38.482  33.242   3.970
56185W        W28500  39.632  28.046  11.178
56186W        W28501  41.794  32.395  12.002
56187W        W28502  27.545  42.047  13.331
56188W        W28503  44.975  37.550  14.058
56189W        W28504   8.277  11.770  12.584
56190W        W28505  11.405  43.724  13.874
56191W        W28506  10.788  15.579   1.457
56192W        W28507  35.536   1.713   1.935
56193W        W28508  26.566  28.581   1.559
56194W        W28509  35.495  12.411   4.283
56195W        W28510   7.268  43.126   4.306
56196W        W28511  33.498  31.041  12.087
56197W        W28512   4.756  25.952   4.154
56198W        W28513  42.483   8.268   1.298
56199W        W28514  30.104   2.311   1.702
56200W        W28515   8.428  32.335   0.227
56201W        W28516  12.553  18.021  11.542
56202W        W28517  44.449   0.010   0.983
56203W        W28518  29.015  27.706   4.424
56204W        W28519   1.315  35.172   2.830
56205W        W28520  18.253  37.434   2.893
56206W        W28521   3.942  34.935   0.462
56207W        W28522   6.427  40.514  14.421
56208W        W28523  14.672  13.628   4.604
56209W        W28524  24.386   2.388  12.969
56210W        W28525   3.321   7.051  11.718
56211W        W28526  21.502  10.657   3.170
56212W        W28527  33.693  31.124  13.863
56213W        W28528  44.068  22.636   1.255
56214W        W28529  24.642   0.425   2.354
56215W        W28530  35.452  37.458  10.685
56216W        W28531  26.093  24.529   4.352
56217W        W28532  27.942   4.245   1.381
56218W        W28533  14.356   4.762   2.118
56219W        W28534  10.881  19.177   2.656
56220W        W28535  11.324  34.636  12.101
56221W        W28536   1.103  17.368  12.045
56222W        W28537   9.218  28.323   2.093
56223W        W28538  37.786  25.509   0.915
56224W        W28539   7.743  43.496  14.772
56225W        W28540  16.744  33.977  14.088
56226W        W28541  35.388  14.004   4.168
56227W        W28542   5.463  28.704  13.045
56228W        W28543  12.125  22.533   0.682
56229W        W28544  26.056  26.189  11.191
56230W        W28545   2.774  29.835  14.541
56231W        W28546  37.914  27.550  10.853
56232W        W28547  30.389  17.515   2.791
56233W        W28548  38.213  27.124  13.123
56234W        W28549  37.797  21.046  12.161
56235W        W28550  17.708  36.134  14.836
56236W        W28551  44.474   1.853  12.520
56237W        W28552   1.940  10.805  11.479
56238W        W28553  16.687  25.675  13.872
56239W        W28554  26.558  39.398  10.782
56240W        W28555   1.827  41.545  11.375
56241W        W28556  35.484  26.685  11.969
56242W        W28557  10.354  41.178  11.839
56243W        W28558  17.260  13.254  13.822
56244W        W28559  40.503  24.166   0.219
56245W        W28560   6.316  38.941   3.601
56246W        W28561  31.744  10.426   4.084
56247W        W28562  14.241  15.866   1.323
56248W        W28563  25.021  10.314  12.597
56249W        W28564  28.660  32.955  11.157
56250W        W28565  43.399  38.883   1.627
56251W        W28566  20.061  26.963  12.533
56252W        W28567  21.526   5.227  13.001
56253W        W28568  39.315  41.618   3.802
56254W        W28569  19.579  25.447   1.866
56255W        W28570  42.327  43.139   0.315
56256W        W28571  13.032   1.609  11.596
56257W        W28572  40.534  41.116  14.010
56258W        W28573   5.898  30.832   4.528
56259W        W28574  14.589  34.111   0.406
56260W        W28575  18.465   5.373   4.746
56261W        W28576  36.466  17.451   2.857
56262W        W28577  24.039  42.536  13.016
56263W        W28578  14.593   3.452  10.759
56264W        W28579   3.891  15.406   1.382
56265W        W28580  35.377  21.566   2.281
56266W        W28581  15.821   0.825  13.623
56267W        W28582  15.824  29.574  11.991
56268W        W28583  33.085  20.703  13.940
56269W        W28584  28.593  16.292  10.849
56270W        W28585  37.343  37.034   1.653
56271W        W28586  26.393  19.800  13.918
56272W        W28587  19.821   3.340   2.712
56273W        W28588  34.088  29.010   4.125
56274W        W28589  35.288  30.985   1.082
56275W        W28590  17.305   1.764   4.542
56276W        W28591   1.840  14.502   3.497
56277W        W28592   6.464  38.966  14.077
56278W        W28593  21.652   7.805  14.285
56279W        W28594  11.615  44.227   0.809
56280W        W28595   3.953  43.372  13.387
56281W        W28596  21.311  38.751  14.835
56282W        W28597   5.475  10.167  12.828
56283W        W28598  32.371   7.813  11.576
56284W        W28599  10.288  13.841   1.275
56285W        W28600  21.523  20.077   0.035
56286W        W28601  33.981  28.897   2.310
56287W        W28602  31.467  30.258   2.709
56288W        W28603  38.456  13.785  12.396
56289W        W28604  35.892   7.327  14.783
56290W        W28605   8.335  43.707   2.485
56291W        W28606  28.026  26.187   2.364
56292W        W28607  33.001  36.918  13.345
56293W        W28608   1.159   1.917   3.820
56294W        W28609  40.813  34.493   2.722
56295W        W28610  29.338  30.551  14.191
56296W        W28611  31.011  42.301  14.063
56297W        W28612  14.146  17.639  13.919
56298W        W28613   2.188  42.226  14.758
56299W        W28614  20.459  14.677   0.460
56300W        W28615  16.757  10.368  12.022
56301W        W28616  32.933   3.699   3.636
56302W        W28617  39.228  43.495  12.569
56303W        W28618  30.225  11.443   4.951
56304W        W28619  20.223  34.488  12.650
56305W        W28620   6.649  37.849   3.773
56306W        W28621  33.165   7.656  14.281
56307W        W28622   6.518   8.238   2.861
56308W        W28623  19.106  41.729  12.543
56309W        W28624   6.806  20.782   1.926
56310W        W28625  11.477  17.172   2.829
56311W        W28626   2.820  40.968  10.569
56312W        W28627   5.144  36.596   0.252
56313W        W28628  10.210  44.535   1.134
56314W        W28629  29.239  30.730  12.916
56315W        W28630  27.420  26.527   0.291
56316W        W28631  35.929   2.482  11.357
56317W        W28632  11.197  12.779   1.140
56318W        W28633  41.425   4.245  11.391
56319W        W28634  34.517  26.665  11.820
56320W        W28635   4.327   1.745  13.771
56321W        W28636  28.101  21.035   0.917
56322W        W28637  42.354  39.144  13.719
56323W        W28638   2.635  18.001  14.013
56324W        W28639   3.793  30.080  12.074
56325W        W28640  28.614  29.766  14.388
56326W        W28641  42.459  22.823   3.538
56327W        W28642  39.065   1.892  10.779
56328W        W28643  39.784   1.381  11.046
56329W        W28644   5.828  42.994   2.628
56330W        W28645  38.548   6.763  13.520
56331W        W28646  40.052  23.047  14.485
56332W        W28647  38.488  43.768  11.567
56333W        W28648  12.691  20.950   3.567
56334W        W28649  16.223  18.730  13.002
56335W        W28650  35.905  23.180  14.588
56336W        W28651  27.035  18.573   4.329
56337W        W28652   4.888  30.325   4.317
56338W        W28653  33.058  37.452  13.938
56339W        W28654  23.947  27.585   2.729
56340W        W28655  28.944  11.796   0.812
56341W        W28656  42.175  26.053   3.104
56342W        W28657  28.809  34.645  11.163
56343W        W28658  22.916   9.718  11.549
56344W        W28659  44.485  15.793  13.917
56345W        W28660  26.045   9.241  11.199
56346W        W28661   7.701   0.700  14.500
56347W        W28662   1.075  37.768  12.935
56348W        W28663  34.106  18.593   2.839
56349W        W28664  42.443  25.154   3.447
56350W        W28665  36.965  28.208   2.891
56351W        W28666  34.785  12.950  14.516
56352W        W28667  15.313  39.012  12.371
56353W        W28668   4.704   9.767  12.090
56354W        W28669  16.670  35.579  14.779
56355W        W28670  25.557  19.843   0.517
56356W        W28671  28.485   8.486  12.334
56357W        W28672  15.816  28.705   5.085
56358W        W28673   4.317  37.136  11.952
56359W        W28674  32.913  29.457  11.526
56360W        W28675  41.811  11.154  12.786
56361W        W28676  38.427  27.147  13.581
56362W        W28677   5.599  19.447  10.969
56363W        W28678   0.197  29.506  12.619
56364W        W28679  38.292  20.262  13.548
56365W        W28680   9.490  43.103  10.869
56366W        W28681   7.150   1.965   3.712
56367W        W28682   7.875  14.799   0.271
56368W        W28683  21.724  20.477  11.394
56369W        W28684  21.049  31.111  13.885
56370W        W28685  31.505  16.384   3.291
56371W        W28686  37.097  40.379   0.029
56372W        W28687   4.403  29.405  11.953
56373W        W28688  14.696   3.725  12.107
56374W        W28689  37.856  29.145  14.718
56375W        W28690  34.151  24.206   0.179
56376W        W28691  28.022  32.944  14.669
56377W        W28692   0.834  20.680   0.993
56378W        W28693  31.702  14.093   3.285
56379W        W28694   4.788  27.121  11.655
56380W        W28695  28.490  22.476  13.329
56381W        W28696  18.493  20.105   2.261
56382W        W28697  31.076  27.852   0.887
56383W        W28698  33.971  12.318  14.495
56384W        W28699  25.291  27.371   0.664
56385W        W28700   2.504  27.609   0.367
56386W        W28701  23.660  30.246  12.987
56387W        W28702  15.814   6.757  14.030
56388W        W28703   8.438  35.422  14.014
56389W        W28704   2.272  24.649  14.198
56390W        W28705  39.520   0.976   1.862
56391W        W28706  23.535  42.944   4.793
56392W        W28707  41.050  18.038  14.931
56393W        W28708  43.417  11.306   2.159
56394W        W28709   4.048  12.658   2.153
56395W        W28710   5.778  35.163  11.142
56396W        W28711   0.434  23.358   1.238
56397W        W28712  17.784  42.590  12.483
56398W        W28713  35.106  13.259   4.694
56399W        W28714  27.231   1.214  12.584
56400W        W28715   3.267  41.227  13.152
56401W        W28716  31.604  42.380   2.436
56402W        W28717   2.852   9.164  12.141
56403W        W28718  14.030  31.350  12.382
56404W        W28719  10.256  35.468  13.760
56405W        W28720  38.406  30.483  13.879
56406W        W28721  23.832  21.112  14.359
56407W        W28722  35.445  16.598   4.554
56408W        W28723  43.782  23.601  12.921
56409W        W28724   9.667  40.874  12.477
56410W        W28725  25.175  10.727  10.914
56411W        W28726  44.922  35.392   1.575
56412W        W28727   4.880  15.783   9.952
56413W        W28728  42.962   7.967   4.971
56414W        W28729  19.191   2.223  14.360
56415W        W28730  41.686  30.946  12.802
56416W        W28731  20.000  21.522   2.405
56417W        W28732  22.440   0.961  11.577
56418W        W28733  15.458   8.865   3.181
56419W        W28734  11.519   1.920   5.238
56420W        W28735   1.414  35.630  12.413
56421W        W28736   6.827   5.295  11.233
56422W        W28737  21.583  16.833   3.691
56423W        W28738   4.155  44.665  11.504
56424W        W28739  17.304   3.748  13.508
56425W        W28740  16.128  41.651   1.549
56426W        W28741   0.817   3.989  14.538
56427W        W28742  37.584  33.789  11.499
56428W        W28743  40.417   5.567   0.932
56429W        W28744  40.309  24.497   1.411
56430W        W28745  27.565  39.155   3.211
56431W        W28746  19.047   1.560  12.513
56432W        W28747  27.523  10.278   0.866
56433W        W28748  15.344  44.305   3.309
56434W        W28749  11.266  27.144  12.013
56435W        W28750  14.206  13.788   1.892
56436W        W28751  34.879  18.480   1.814
56437W        W28752  22.437  30.624   4.363
56438W        W28753  31.129  18.633   2.406
56439W        W28754  22.233  27.125   4.344
56440W        W28755  44.015  32.167  11.476
56441W        W28756  32.887  18.978  11.598
56442W        W28757   0.952   2.689   3.633
56443W        W28758  38.909  15.732  10.054
56444W        W28759  14.081  42.560  14.801
56445W        W28760  12.075  44.783   0.274
56446W        W28761  38.344  15.837   1.847
56447W        W28762  40.711  22.991   4.886
56448W        W28763  11.596  27.747   0.928
56449W        W28764   9.299  30.858  11.230
56450W        W28765  36.530  27.252   3.602
56451W        W28766  36.001  15.401  11.189
56452W        W28767  11.170  33.147  14.470
56453W        W28768  41.228  34.996   3.767
56454W        W28769   2.829  15.520  12.903
56455W        W28770  22.574  38.365   1.808
56456W        W28771  31.494  31.606   1.807
56457W        W28772  27.071  44.516   1.717
56458W        W28773  14.139   7.621  12.894
56459W        W28774  27.526  16.623   0.852
56460W        W28775  17.773  17.664   4.604
56461W        W28776  15.071  26.917  11.145
56462W        W28777  37.291  14.677   1.812
56463W        W28778  42.915  13.578  12.030
56464W        W28779  26.535   1.041   4.559
56465W        W28780  26.071  16.420  11.739
56466W        W28781  21.239  26.079   4.082
56467W        W28782  25.205  10.813   4.471
56468W        W28783  17.669  14.799   1.655
56469W        W28784   0.924   0.528   3.884
56470W        W28785  14.047  14.102   4.552
56471W        W28786  32.515   2.385   3.921
56472W        W28787  28.568   0.351  13.841
56473W        W28788  33.463  11.185  11.153
56474W        W28789   4.978  39.934  10.676
56475W        W28790  22.767  32.935  14.553
56476W        W28791  39.883  41.027  13.027
56477W        W28792  24.724  21.926   1.359
56478W        W28793  38.602  22.551   4.152
56479W        W28794  22.135  32.653   1.439
56480W        W28795  38.610  21.293   4.429
56481W        W28796  42.416  35.594   0.967
56482W        W28797   7.262  33.618   0.886
56483W        W28798  16.705   4.722   4.409
56484W        W28799  17.042   4.519   0.808
56485W        W28800  36.331  25.890   2.796
56486W        W28801  39.959  35.428  14.919
56487W        W28802   6.704  30.579  13.972
56488W        W28803  13.662   2.970  11.530
56489W        W28804  25.706  22.555  11.899
56490W        W28805   7.899   1.528  11.457
56491W        W28806   5.421   6.726   1.360
56492W        W28807  40.302  34.928   1.329
56493W        W28808  30.557  16.767   4.278
56494W        W28809   1.194   2.761  12.133
56495W        W28810  36.717  21.464   2.301
56496W        W28811   0.979   5.724  12.041
56497W        W28812   6.820  33.110  13.941
56498W        W28813  41.858  39.509  13.634
56499W        W28814   1.312  40.056   4.082
56500W        W28815  24.245  26.965  12.180
56501W        W28816  24.962  37.544  13.771
56502W        W28817  21.096  35.186   1.169
56503W        W28818   5.220  33.513   4.741
56504W        W28819  31.528  27.080  12.944
56505W        W28820  27.853   8.631  13.074
56506W        W28821  42.470  19.519  11.055
56507W        W28822  22.591   8.142  12.420
56508W        W28823  18.998   4.277   3.259
56509W        W28824   1.184  20.666  11.514
56510W        W28825  38.188  15.999  11.576
56511W        W28826  22.228  13.309   1.736
56512W        W28827  17.401   0.121   3.154
56513W        W28828  43.370  38.895   4.253
56514W        W28829  33.866   9.876   3.746
56515W        W28830   0.261  25.695  12.531
56516W        W28831  33.943  19.257   2.434
56517W        W28832  30.260  36.026  12.284
56518W        W28833  23.492  29.619  14.926
56519W        W28834  36.525  29.142  13.891
56520W        W28835  38.954  19.315   1.816
56521W        W28836  18.920  16.459  11.588
56522W        W28837  24.010  28.900  13.289
56523W        W28838  34.385  38.356   3.730
56524W        W28839  32.919  12.225   1.240
56525W        W28840  28.141  16.091   1.263
56526W        W28841  34.610  44.461  14.804
56527W        W28842  33.908   9.991   2.175
56528W        W28843  39.214  31.995   3.328
56529W        W28844  37.785  12.159   3.694
56530W        W28845  37.094  18.245  10.602
56531W        W28846  21.821  11.774  11.521
56532W        W28847  34.320  29.714   4.934
56533W        W28848  29.509  12.970  13.702
56534W        W28849   1.793  23.304   1.471
56535W        W28850   6.180  25.696  12.110
56536W        W28851  23.435   2.745   3.253
56537W        W28852  36.908  12.126  12.417
56538W        W28853   8.138  17.523  12.178
56539W        W28854  42.714  41.364  12.362
56540W        W28855  36.670  42.775   3.606
56541W        W28856  16.490  10.690   2.817
56542W        W28857  37.012  17.295   0.030
56543W        W28858   0.683  26.291   9.803
56544W        W28859   6.762  11.434  11.591
56545W        W28860   5.932  39.214   4.408
56546W        W28861  21.073   6.845  13.290
56547W        W28862  38.092  19.159  11.433
56548W        W28863  22.492  25.576   2.382
56549W        W28864  38.411  35.178  14.603
56550W        W28865  44.989  33.833   2.699
56551W        W28866   1.328  35.499  10.398
56552W        W28867  29.454  42.398  14.844
56553W        W28868  11.655  15.977   0.917
56554W        W28869  37.377  14.565  11.845
56555W        W28870   3.783   9.850  13.835
56556W        W28871  34.603  24.879   0.301
56557W        W28872   1.779  39.023   2.453
56558W        W28873  28.962   9.237  14.409
56559W        W28874  24.706  22.717   4.986
56560W        W28875   0.898  21.426   4.970
56561W        W28876   7.829  36.032  14.720
56562W        W28877   5.727  31.038  10.540
56563W        W28878  31.097   7.666   2.415
56564W        W28879  23.192   9.663   1.977
56565W        W28880  33.944  43.563  14.016
56566W        W28881  25.695  35.448  11.516
56567W        W28882   5.392   0.124   3.628
56568W        W28883  43.259  25.879   4.579
56569W        W28884  44.834  11.557   1.879
56570W        W28885  32.506  21.725   1.523
56571W        W28886  21.537  43.553   0.235
56572W        W28887  23.321  21.784  12.494
56573W        W28888  44.796  14.190  14.528
56574W        W28889  35.401  13.773   0.723
56575W        W28890   2.969  41.508   4.865
56576W        W28891  29.548  36.976   4.269
56577W        W28892  36.463  19.868  11.941
56578W        W28893   3.291  29.287  12.040
56579W        W28894  24.609  23.929   1.208
56580W        W28895  21.692   4.762  12.541
56581W        W28896   8.038  39.473  13.353
56582W        W28897   7.775  42.751  14.298
56583W        W28898  12.758  26.125  14.339
56584W        W28899   3.239  14.851   3.592
56585W        W28900  31.105   6.465  14.245
56586W        W28901  36.108  43.290  10.778
56587W        W28902   9.143  15.409  11.479
56588W        W28903  42.960   3.195   0.884
56589W        W28904   8.928  33.930   3.000
56590W        W28905   6.881   1.358  13.417
56591W        W28906  32.990  17.016   2.212
56592W        W28907  25.924  19.216  11.632
56593W        W28908  14.856   1.787  10.582
56594W        W28909  30.247  35.319  11.029
56595W        W28910   6.245  30.631   3.154
56596W        W28911   8.580  18.835  13.949
56597W        W28912   7.368   1.328   1.597
56598W        W28913  16.392  21.499  12.922
56599W        W28914  17.504  18.056  12.893
56600W        W28915  12.590  16.379   4.579
56601W        W28916  42.552  33.621  12.417
56602W        W28917  16.731  38.345  12.935
56603W        W28918  27.248  20.078  14.089
56604W        W28919  17.946  11.748   9.439
56605W        W28920  32.591  14.360   1.778
56606W        W28921  41.433  17.763  10.742
56607W        W28922  24.206  22.590   1.508
56608W        W28923   0.666  39.325   2.105
56609W        W28924  23.644  39.339  10.640
56610W        W28925  22.012  42.904   2.344
56611W        W28926  10.758   8.298   2.237
56612W        W28927  12.107  29.476  11.159
56613W        W28928  14.725  42.546   2.160
56614W        W28929  15.541   5.331   4.612
56615W        W28930  22.637  42.845   4.239
56616W        W28931  18.413   4.204  11.450
56617W        W28932  40.969  11.473   3.325
56618W        W28933   3.296   4.319   0.695
56619W        W28934  33.164  43.298  13.311
56620W        W28935   5.876  34.945   0.392
56621W        W28936  33.175  33.668   0.194
56622W        W28937  18.658  11.521  12.629
56623W        W28938  19.956   8.248   4.736
56624W        W28939  16.905   1.023  14.308
56625W        W28940  37.027  18.768  13.227
56626W        W28941  38.767  26.240   3.029
56627W        W28942  10.025  10.933   1.479
56628W        W28943  18.787  27.897   5.029
56629W        W28944  27.672  24.529  13.385
56630W        W28945  20.198   9.299  11.350
56631W        W28946  40.576  38.640  12.020
56632W        W28947   1.820  12.820  12.494
56633W        W28948  39.072  31.081   0.060
56634W        W28949   0.976  29.204   3.921
56635W        W28950  11.797  17.530   1.200
56636W        W28951  27.992  13.627  10.514
56637W        W28952  44.055  20.086   3.009
56638W        W28953   7.154  34.688   0.118
56639W        W28954  19.313   3.748  10.962
56640W        W28955  23.678   3.813   4.551
56641W        W28956  42.017  14.431   1.508
56642W        W28957  21.326  39.777  14.867
56643W        W28958  15.192  24.195   2.620
56644W        W28959  29.985  32.622  10.673
56645W        W28960   7.655  12.468  14.365
56646W        W28961  18.535  38.460  13.723
56647W        W28962   9.875  24.580   2.905
56648W        W28963  18.005   6.385   3.096
56649W        W28964   2.313  16.406   4.769
56650W        W28965  29.331  43.543   0.402
56651W        W28966  14.328  40.839   3.683
56652W        W28967  15.085   1.523   3.796
56653W        W28968  29.340   5.439  13.763
56654W        W28969  29.478   4.304  10.236
56655W        W28970   8.736   4.922   2.851
56656W        W28971  19.753  10.868  12.417
56657W        W28972   6.861  20.103   2.790
56658W        W28973  28.150  30.448  13.833
56659W        W28974  31.086  10.334  11.491
56660W        W28975  26.915   6.437  13.719
56661W        W28976  10.323  20.719   0.398
56662W        W28977  26.197  29.707   1.880
56663W        W28978   9.303  20.416   2.830
56664W        W28979  24.945  34.323  14.974
56665W        W28980  11.210  32.423   3.716
56666W        W28981   3.832  37.494  14.025
56667W        W28982  22.354  34.967  12.290
56668W        W28983  12.849   7.492   2.164
56669W        W28984  20.017  39.301   2.703
56670W        W28985  41.059  32.990  10.650
56671W        W28986   2.582  15.666   2.577
56672W        W28987  17.249  35.255  13.020
56673W        W28988  25.124   8.739  14.480
56674W        W28989  19.750  38.794   1.641
56675W        W28990   2.261  42.454   0.245
56676W        W28991   3.295  10.917  14.377
56677W        W28992  37.831  17.342   2.554
56678W        W28993  30.613  34.440  14.937
56679W        W28994  31.867  42.762  14.873
56680W        W28995  21.145  37.497  14.424
56681W        W28996  23.216  28.560  12.521
56682W        W28997  43.865  13.952   0.829
56683W        W28998  23.246  44.375  10.978
56684W        W28999  14.326  36.150   0.956
56685W        W29000  35.712  10.805  12.148
56686W        W29001   9.242   5.375  14.353
56687W        W29002  22.483  13.700  11.978
56688W        W29003  43.856   9.282  10.622
56689W        W29004  30.010  28.066   3.419
56690W        W29005  34.000   3.823   1.268
56691W        W29006  36.803   9.490   1.820
56692W        W29007  39.997   1.511   0.751
56693W        W29008  15.544   2.221   2.775
56694W        W29009  35.578  18.065   2.029
56695W        W29010  37.148   4.690  14.908
56696W        W29011  27.640  17.201  13.396
56697W        W29012   0.495  30.618  13.016
56698W        W29013   1.275  23.111   4.112
56699W        W29014  39.111  41.345  11.215
56700W        W29015  41.267  11.652   2.326
56701W        W29016   0.132   6.339  14.665
56702W        W29017  42.703  29.893  11.163
56703W        W29018  28.512  39.847  12.582
56704W        W29019   0.119  10.358  10.256
56705W        W29020  13.806   4.112   2.617
56706W        W29021  26.542  24.649  14.247
56707W        W29022  27.629  31.415  12.974
56708W        W29023  39.950  29.207   1.197
56709W        W29024   2.053  38.410   4.232
56710W        W29025  27.365  32.775  12.041
56711W        W29026  10.050  36.582   0.910
56712W        W29027  39.215   0.406  13.427
56713W        W29028   9.600   1.433  11.002
56714W        W29029  11.593  28.206  11.048
56715W        W29030   8.368  17.492   0.290
56716W        W29031  16.218  36.085  11.975
56717W        W29032  11.758  24.327  14.529
56718W        W29033  41.366   5.868   1.388
56719W        W29034  42.244  41.367   1.837
56720W        W29035  32.735  12.839   0.830
56721W        W29036  27.053  25.073   3.322
56722W        W29037  29.921   9.713  13.367
56723W        W29038  13.577  30.666   1.781
56724W        W29039  39.020  16.800  13.741
56725W        W29040  20.525  44.685   4.133
56726W        W29041  24.273  37.909  11.107
56727W        W29042  31.580  37.838  11.538
56728W        W29043  44.577  12.237   5.545
56729W        W29044   1.570  35.609   2.878
56730W        W29045  27.566  31.930   1.078
56731W        W29046  43.849  16.378   1.982
56732W        W29047  23.610  17.155  13.332
56733W        W29048  23.696  34.037   0.165
56734W        W29049  26.417  16.905   1.742
56735W        W29050   3.171  30.450   3.196
56736W        W29051   4.342  14.427   3.143
56737W        W29052  14.178  30.038   3.702
56738W        W29053  22.399  24.873  14.436
56739W        W29054  28.204   2.978  13.978
56740W        W29055  40.176  41.118  14.388
56741W        W29056  12.064  25.178   3.321
56742W        W29057  28.029  13.241  13.995
56743W        W29058   7.285  29.799   1.382
56744W        W29059  19.590  37.303  12.931
56745W        W29060  20.548  21.132  11.436
56746W        W29061  30.095  21.948   4.122
56747W        W29062  44.582  22.236  12.513
56748W        W29063  20.784  43.623   2.184
56749W        W29064  37.956  36.446  11.142
56750W        W29065  33.981  29.309   0.780
56751W        W29066   9.458  44.033  11.624
56752W        W29067  34.480  17.532   4.072
56753W        W29068  41.546   6.612   2.241
56754W        W29069  20.403  23.874  13.300
56755W        W29070  19.270  20.661   0.761
56756W        W29071  24.073   4.714  11.548
56757W        W29072  14.705  16.813  11.545
56758W        W29073  15.873  38.410  13.081
56759W        W29074  35.390  34.403   1.618
56760W        W29075   3.218   6.347  10.651
56761W        W29076   3.594   0.888  11.512
56762W        W29077  32.027  30.712   4.996
56763W        W29078   2.955  39.838  12.851
56764W        W29079   1.621  40.083   4.549
56765W        W29080  13.090  18.676  11.134
56766W        W29081  23.725  40.474   2.754
56767W        W29082  24.501  17.663   2.581
56768W        W29083   9.859  13.337  12.871
56769W        W29084  11.728  14.422   0.330
56770W        W29085  11.806  43.439  11.950
56771W        W29086   8.984  34.957  10.513
56772W        W29087   3.861  41.982   0.683
56773W        W29088   1.891   9.580   4.614
56774W        W29089  21.985  37.253   2.739
56775W        W29090   3.948  22.809  13.710
56776W        W29091  34.291  38.313  13.900
56777W        W29092  23.956   3.722  10.659
56778W        W29093   0.176  19.607   2.592
56779W        W29094  23.911  42.850   1.677
56780W        W29095  37.524  20.994   3.650
56781W        W29096   2.029   1.966  11.535
56782W        W29097  13.554  16.571  10.580
56783W        W29098  43.814  39.469   1.401
56784W        W29099   3.112  15.690  12.513
56785W        W29100  30.985  43.573  14.419
56786W        W29101  11.146  32.153   1.544
56787W        W29102  37.078   6.824   3.167
56788W        W29103  42.779  38.594  11.208
56789W        W29104  11.635  29.056  14.745
56790W        W29105  30.930  21.796   3.585
56791W        W29106  22.228  19.860  11.238
56792W        W29107   9.105  44.899  10.614
56793W        W29108  26.115  23.506  14.082
56794W        W29109  29.409   9.594   1.017
56795W        W29110  16.743  19.834   2.411
56796W        W29111  26.242  20.347  12.653
56797W        W29112  30.642  15.264  13.759
56798W        W29113  23.703  43.740  10.960
56799W        W29114   7.299   3.377   1.752
56800W        W29115  18.674   1.428   3.267
56801W        W29116   0.491  43.284   1.232
56802W        W29117  19.765  10.201   2.978
56803W        W29118  35.415  31.446  13.592
56804W        W29119  20.131  27.522   3.934
56805W        W29120  30.124  20.234   3.186
56806W        W29121  35.470   1.675  11.178
56807W        W29122  33.041  30.071   3.788
56808W        W29123  32.390  28.529  14.780
56809W        W29124  31.348  23.629  11.727
56810W        W29125  24.062  18.257   1.194
56811W        W29126   5.702  19.593   4.601
56812W        W29127   0.326   3.686   3.175
56813W        W29128  28.074   3.086   1.231
56814W        W29129  32.405   9.927  12.541
56815W        W29130  13.183  36.988  12.906
56816W        W29131  39.512  18.693   4.122
56817W        W29132   7.789   6.712  14.838
56818W        W29133  42.825  11.897  11.516
56819W        W29134  41.886  12.401   4.685
56820W        W29135  36.664   5.471   1.265
56821W        W29136  24.110  19.856   4.266
56822W        W29137   8.598  36.541   4.445
56823W        W29138  29.033  28.405  11.147
56824W        W29139   3.052  23.117  13.599
56825W        W29140  38.720  20.578   3.289
56826W        W29141  34.350  36.896  10.775
56827W        W29142  27.173   3.696   2.441
56828W        W29143  32.334  14.705   2.784
56829W        W29144  41.926  22.683   3.763
56830W        W29145  39.970  38.358  14.037
56831W        W29146  27.930  20.169   3.305
56832W        W29147  12.848  44.973  12.233
56833W        W29148  43.997  35.126  14.005
56834W        W29149   8.694   3.525  10.158
56835W        W29150  35.503  14.050   3.391
56836W        W29151   4.047  31.093  13.327
56837W        W29152  13.303  42.555  10.483
56838W        W29153  41.034  21.056   0.915
56839W        W29154  30.193  16.661   4.633
56840W        W29155  29.388   7.892   4.712
56841W        W29156  13.722  20.221   2.170
56842W        W29157  31.901   3.856   3.193
56843W        W29158  18.856  10.793   3.713
56844W        W29159  42.661  15.629  11.423
56845W        W29160  12.158  14.763   3.768
56846W        W29161  33.546  18.784   0.317
56847W        W29162   7.400  16.685   4.427
56848W        W29163  33.336  10.612   4.133
56849W        W29164  17.977  34.154  11.993
56850W        W29165  26.406  40.553   0.871
56851W        W29166  14.470  17.589   2.750
56852W        W29167   4.295  44.941  10.982
56853W        W29168   5.945   8.517   1.191
56854W        W29169  19.711  29.580  12.913
56855W        W29170  24.544  34.428  14.155
56856W        W29171   8.674  20.726   0.721
56857W        W29172  21.226  24.592  11.855
56858W        W29173   7.940  11.476  14.278
56859W        W29174  31.993  16.440  13.545
56860W        W29175  11.243  15.675   0.062
56861W        W29176  17.266  21.250  11.203
56862W        W29177  17.818  34.392  10.649
56863W        W29178  25.505  27.714  11.495
56864W        W29179  23.981   1.421   1.939
56865W        W29180  41.770  38.306   4.396
56866W        W29181  19.353  36.511  13.720
56867W        W29182  22.242  37.074  12.790
56868W        W29183  19.749  18.095   4.198
56869W        W29184  27.120  32.635  14.282
56870W        W29185  29.272  27.731   0.444
56871W        W29186   7.964  25.396   4.209
56872W        W29187  11.849  38.858   0.451
56873W        W29188   6.800  37.427   9.773
56874W        W29189  12.261  28.791   1.505
56875W        W29190  23.025  30.198  10.424
56876W        W29191  18.579  36.684   0.838
56877W        W29192  10.920  20.213  13.316
56878W        W29193  38.295  36.019  14.842
56879W        W29194  30.354  12.754  11.980
56880W        W29195  20.255  12.586  11.155
56881W        W29196   4.724  36.513   1.265
56882W        W29197  26.410   9.752   4.066
56883W        W29198  23.122   3.025   4.508
56884W        W29199  35.359  21.506   0.222
56885W        W29200  12.415  23.251   0.359
56886W        W29201  14.061  17.336   3.865
56887W        W29202  17.644  18.298  14.591
56888W        W29203   6.248  26.504   0.468
56889W        W29204  15.718  20.720   0.971
56890W        W29205  10.591  14.238  10.587
56891W        W29206  36.908  21.501  13.096
56892W        W29207  20.971  36.978   2.838
56893W        W29208  26.669  41.421   9.814
56894W        W29209   9.235  29.479   4.281
56895W        W29210   9.317   2.210   2.299
56896W        W29211   3.189   1.749   4.210
56897W        W29212  27.674  44.236   3.284
56898W        W29213   5.254  39.570  10.978
56899W        W29214  20.554  35.950  11.582
56900W        W29215  34.303   5.112  14.855
56901W        W29216  12.791   2.242   3.257
56902W        W29217  44.570  13.677   0.261
56903W        W29218  16.105   8.326  10.575
56904W        W29219  43.725   0.084   0.598
56905W        W29220  22.021   1.248  10.664
56906W        W29221  42.907  43.732  13.302
56907W        W29222  41.943   6.282  13.890
56908W        W29223  17.630   8.187   2.391
56909W        W29224  12.631  13.609   4.376
56910W        W29225  10.762   1.734  13.962
56911W        W29226  34.013  23.683  12.206
56912W        W29227   5.752  25.409  12.094
56913W        W29228  16.656  41.994  10.691
56914W        W29229  11.367  33.496  11.927
56915W        W29230  13.451  31.641   0.257
56916W        W29231  35.055  11.358   2.753
56917W        W29232  16.834  40.106  14.270
56918W        W29233  34.605  20.213   1.447
56919W        W29234   5.021  22.010  11.798
56920W        W29235  16.864  42.060   4.258
56921W        W29236  40.837   2.062  14.038
56922W        W29237  22.760  34.393  11.141
56923W        W29238  37.294  38.902   0.973
56924W        W29239  34.267  21.544   2.486
56925W        W29240  20.213  38.586   1.203
56926W        W29241  11.709  41.010   1.763
56927W        W29242  12.195  38.569   2.886
56928W        W29243  17.625  20.719   0.342
56929W        W29244  12.953  19.751   4.206
56930W        W29245  26.728  38.551   3.968
56931W        W29246  33.361   8.932  12.597
56932W        W29247  19.961  29.706   2.210
56933W        W29248  24.518  11.781   4.501
56934W        W29249  27.619  35.764  13.825
56935W        W29250  42.350  17.618  13.603
56936W        W29251  38.915  10.296  14.483
56937W        W29252  30.942   5.709   1.309
56938W        W29253  17.052  28.508  11.780
56939W        W29254  18.115  42.741  10.682
56940W        W29255  20.288  13.751  14.951
56941W        W29256  35.579  15.108  12.472
56942W        W29257  18.684  15.178  13.546
56943W        W29258   7.754  34.865   1.387
56944W        W29259  13.697  30.012  14.027
56945W        W29260  43.314  44.224   4.553
56946W        W29261  15.537  24.900  12.384
56947W        W29262  30.448   4.440   1.451
56948W        W29263  23.024  35.018  13.042
56949W        W29264  35.101  11.696   4.168
56950W        W29265  18.125   3.309   4.496
56951W        W29266  20.542  25.666   1.527
56952W        W29267  17.632  22.811  12.920
56953W        W29268   0.256   3.224  13.569
56954W        W29269  38.605   0.936   3.846
56955W        W29270  40.856  32.471   4.928
56956W        W29271  26.647  25.942  10.614
56957W        W29272  40.593  30.177   2.306
56958W        W29273  14.308  41.200  14.354
56959W        W29274   5.874  23.470   3.264
56960W        W29275   0.290  10.215   3.131
56961W        W29276  21.502   5.153   3.888
56962W        W29277   7.114  31.258  13.329
56963W        W29278   6.033  32.888   3.142
56964W        W29279  43.934  23.018   2.574
56965W        W29280   6.117  10.098  11.211
56966W        W29281  31.074  14.417   2.477
56967W        W29282  10.866  13.936  14.907
56968W        W29283  18.570   1.371   0.449
56969W        W29284  27.207   8.242  14.689
56970W        W29285  31.083   4.857   1.952
56971W        W29286  31.440  28.980   3.306
56972W        W29287  43.694  36.507   4.680
56973W        W29288  44.283  30.183   1.976
56974W        W29289  15.575  34.931  10.378
56975W        W29290   8.302  44.388  12.733
56976W        W29291   1.956  29.386  14.347
56977W        W29292  39.430   2.365  11.514
56978W        W29293  43.915  28.257  11.194
56979W        W29294  41.950   1.985  11.517
56980W        W29295  34.401  10.312  13.967
56981W        W29296  15.319  44.980   3.693
56982W        W29297  39.747  32.533  12.531
56983W        W29298  33.587  44.253  14.796
56984W        W29299  36.819  44.917  11.478
56985W        W29300  13.703  20.034   0.754
56986W        W29301   1.896  32.586  13.532
56987W        W29302  32.730  13.588   3.581
56988W        W29303  35.515  12.348  12.126
56989W        W29304  10.385  34.823   3.250
56990W        W29305  19.929   8.164  12.173
56991W        W29306   3.052  13.412   3.211
56992W        W29307  10.695  31.271  11.321
56993W        W29308  14.380  24.262   0.795
56994W        W29309  24.196  15.309  13.888
56995W        W29310   0.735  42.455  13.967
56996W        W29311  11.772   4.426  12.865
56997W        W29312  38.855  33.735   1.032
56998W        W29313   2.956  39.917  11.154
56999W        W29314  34.580  21.353  11.731
57000W        W29315  33.461   8.688  12.137
57001W        W29316  42.431   8.780   3.359
57002W        W29317  26.983  22.162   0.117
57003W        W29318  12.409  14.524   4.773
57004W        W29319   8.259  24.539   2.113
57005W        W29320  28.128  20.468   0.830
57006W        W29321   3.242  32.920   2.823
57007W        W29322   1.895   9.497   3.699
57008W        W29323  14.540   9.303   1.282
57009W        W29324   8.186   7.072   2.258
57010W        W29325  39.158  30.137   2.197
57011W        W29326  40.975  11.212  13.148
57012W        W29327  33.880  30.334  14.926
57013W        W29328  16.317  24.202  11.059
57014W        W29329   7.385  15.810   4.087
57015W        W29330  36.959   3.224   3.100
57016W        W29331  31.272   8.676  14.933
57017W        W29332  15.382  30.551   3.444
57018W        W29333   0.173  33.077  14.808
57019W        W29334  12.710  10.874   1.409
57020W        W29335  16.547  38.549   3.342
57021W        W29336   1.707  40.807   2.388
57022W        W29337  19.687  20.237  12.387
57023W        W29338  34.849   1.802  11.687
57024W        W29339  18.295  26.544   1.256
57025W        W29340  13.200  18.149  13.829
57026W        W29341   8.518   9.428  14.885
57027W        W29342  35.275  28.073   1.077
57028W        W29343  22.416  22.325   5.097
57029W        W29344  36.469  11.096   1.624
57030W        W29345  38.854  31.515  10.611
57031W        W29346  42.416   2.717  14.885
57032W        W29347  44.854  23.969   1.667
57033W        W29348  19.068  40.795   2.715
57034W        W29349  19.881  10.025   0.915
57035W        W29350  33.466  39.806  14.920
57036W        W29351  13.770   8.823   0.239
57037W        W29352  39.850  10.297  14.096
57038W        W29353  40.813  35.552   1.734
57039W        W29354  19.281  39.738   1.004
57040W        W29355  15.671  28.668  13.825
57041W        W29356   6.733  37.373   3.970
57042W        W29357  33.457  22.899   0.430
57043W        W29358  25.724   2.813   2.582
57044W        W29359  24.705  34.884   1.674
57045W        W29360  21.371  28.999  13.834
57046W        W29361  43.077  25.943   0.489
57047W        W29362  38.315  26.125   4.313
57048W        W29363  17.147  41.413  12.053
57049W        W29364  31.717  21.163  13.934
57050W        W29365  12.102  40.491   0.390
57051W        W29366  28.555  32.457  11.082
57052W        W29367  32.939  18.551  10.375
57053W        W29368  31.665  25.642   0.309
57054W        W29369  39.480   5.610  11.928
57055W        W29370   5.621  15.729  12.439
57056W        W29371  17.819  14.325   4.375
57057W        W29372  27.632   2.985  11.092
57058W        W29373   4.290   2.813   1.118
57059W        W29374  27.095  33.338   3.279
57060W        W29375  16.039   4.547  10.333
57061W        W29376  20.654  26.569   2.062
57062W        W29377  32.434  20.188   3.670
57063W        W29378  22.059  42.372   0.778
57064W        W29379   5.335  18.009   0.755
57065W        W29380  17.266  42.942   1.781
57066W        W29381   1.551  17.819   0.890
57067W        W29382  21.195  29.606  10.659
57068W        W29383  14.346  31.395  14.308
57069W        W29384   3.802  23.569  13.014
57070W        W29385   8.720   6.298  14.501
57071W        W29386  42.216  25.145  10.539
57072W        W29387  17.255  13.582   3.654
57073W        W29388  39.484   3.395  13.401
57074W        W29389  30.528  23.962   0.871
57075W        W29390   2.494  16.030   0.966
57076W        W29391   3.933  23.475  10.734
57077W        W29392  18.132  40.155  12.855
57078W        W29393  21.707  31.682  12.140
57079W        W29394  32.004  39.593  11.127
57080W        W29395  43.221  40.462  11.084
57081W        W29396  23.110  44.393  10.496
57082W        W29397  42.289  41.788  10.957
57083W        W29398  23.555   2.351  12.604
57084W        W29399  43.267  17.155  11.709
57085W        W29400  13.880   3.019   4.214
57086W        W29401  32.069  44.249  13.842
57087W        W29402   7.253  32.379   3.613
57088W        W29403  30.445  39.587   2.269
57089W        W29404   2.936  39.014   3.527
57090W        W29405   3.894   1.441   0.915
57091W        W29406  36.135  44.538   3.451
57092W        W29407  11.927  34.611  13.297
57093W        W29408  33.431  27.060  13.397
57094W        W29409  25.684  14.158  10.712
57095W        W29410   9.851  20.072   0.735
57096W        W29411  40.441  21.705  14.385
57097W        W29412  23.511  43.911   0.293
57098W        W29413  28.648  10.378  12.143
57099W        W29414  39.143  13.023  10.549
57100W        W29415  21.512  13.393  11.991
57101W        W29416   8.259  10.553  13.217
57102W        W29417  14.779  11.308  11.622
57103W        W29418  17.192  44.980  11.626
57104W        W29419  16.254   2.484   0.405
57105W        W29420  42.570  18.004   3.689
57106W        W29421  37.321  29.066   4.568
57107W        W29422  10.576  16.327   3.234
57108W        W29423  21.047  18.897  13.492
57109W        W29424  41.227  27.064  13.240
57110W        W29425  20.665  17.098   0.246
57111W        W29426  44.563  19.449   3.288
57112W        W29427   4.290  21.731  12.378
57113W        W29428  41.878  16.255  13.124
57114W        W29429   2.408  39.382  13.989
57115W        W29430  17.163   1.845   0.900
57116W        W29431  35.174  37.970   3.798
57117W        W29432  11.263  31.031   1.785
57118W        W29433  37.402  34.840  13.403
57119W        W29434  16.075  29.970  14.684
57120W        W29435   3.464  42.103   0.372
57121W        W29436   7.153  35.966  12.122
57122W        W29437  16.173  19.060  13.486
57123W        W29438  43.927   1.403  10.955
57124W        W29439  32.353  29.387   2.872
57125W        W29440  23.074  19.754   0.954
57126W        W29441  40.245  23.926  10.550
57127W        W29442  33.942  11.787  11.904
57128W        W29443   1.853   1.544   1.252
57129W        W29444  31.861   6.294   1.616
57130W        W29445  44.907  31.865   0.068
57131W        W29446  31.895  14.159   0.995
57132W        W29447   3.195   6.329  13.090
57133W        W29448  28.632  24.625  11.930
57134W        W29449   0.553  38.155  14.285
57135W        W29450  10.146  27.412   3.413
57136W        W29451   7.596  14.732  11.153
57137W        W29452  43.047  10.603  12.446
57138W        W29453  32.512  38.855  14.971
57139W        W29454   4.240   9.375   3.371
57140W        W29455  21.083  13.144   4.610
57141W        W29456   0.646  34.121  12.036
57142W        W29457  17.122  42.242   0.017
57143W        W29458   5.346  29.110   2.955
57144W        W29459  16.549  42.459  11.148
57145W        W29460  15.709  27.040   0.908
57146W        W29461   0.548  12.688   2.381
57147W        W29462  25.345  33.698   2.220
57148W        W29463  28.417  39.079  10.655
57149W        W29464  17.528  40.138   5.089
57150W        W29465  16.985  31.179   2.297
57151W        W29466  29.981  20.456  10.596
57152W        W29467  23.170  43.879  11.123
57153W        W29468  30.888  44.899   3.391
57154W        W29469   5.765  12.849  14.428
57155W        W29470   6.069   7.700  13.593
57156W        W29471  44.030  37.574   1.410
57157W        W29472   6.319  28.491  12.331
57158W        W29473  11.541  23.555   4.499
57159W        W29474  20.104  17.091   2.910
57160W        W29475  10.084  23.412   5.076
57161W        W29476   6.451  13.417  10.666
57162W        W29477  43.756  29.392   1.189
57163W        W29478   9.233   0.402   2.245
57164W        W29479   9.417   1.213  14.125
57165W        W29480  43.872  25.244   2.254
57166W        W29481   4.932  16.510   2.827
57167W        W29482   3.334  29.088  10.733
57168W        W29483   0.189  42.280  12.878
57169W        W29484  19.800  18.199  13.519
57170W        W29485  35.037  44.416   4.151
57171W        W29486  10.683  31.410  14.926
57172W        W29487  42.649  11.932   0.921
57173W        W29488  31.399   3.951  10.444
57174W        W29489  11.224   9.683   2.250
57175W        W29490  33.867   5.131  13.918
57176W        W29491  36.035   0.288   4.617
57177W        W29492  17.299  29.551  12.130
57178W        W29493  17.243  43.068  11.435
57179W        W29494   1.438  11.061  14.943
57180W        W29495  32.138  18.791   2.883
57181W        W29496  30.726  33.886   2.296
57182W        W29497  34.947  17.848   4.764
57183W        W29498  21.460  37.354  13.731
57184W        W29499  37.472  19.985   0.041
57185W        W29500   4.592  25.234  10.191
57186W        W29501  40.821   8.878  13.505
57187W        W29502  28.785  42.521   3.321
57188W        W29503  12.320  21.671   3.215
57189W        W29504  18.241  21.441  11.466
57190W        W29505  26.586  27.449  11.678
57191W        W29506  44.941  24.544  11.494
57192W        W29507  27.089  44.501   0.193
57193W        W29508  17.083  23.111   4.313
57194W        W29509  27.764  20.266   2.417
57195W        W29510  17.749  24.619  11.436
57196W        W29511  38.148   4.197   4.140
57197W        W29512   2.717  27.104   1.546
57198W        W29513  21.009  16.299  13.068
57199W        W29514  11.647   3.158   9.987
57200W        W29515  42.430   9.949   1.284
57201W        W29516   2.010  17.158  14.459
57202W        W29517  15.911   1.721  14.413
57203W        W29518   3.857   6.347   4.825
57204W        W29519  37.462  44.876  11.572
57205W        W29520  33.817  29.215  10.673
57206W        W29521  42.502  43.813   3.959
57207W        W29522  18.696   1.881   0.514
57208W        W29523   4.456  30.116   4.124
57209W        W29524  16.792   3.815   1.425
57210W        W29525   4.255  38.505  10.866
57211W        W29526  34.546  36.097  11.102
57212W        W29527  19.746  20.108  11.884
57213W        W29528   5.834  42.749  12.107
57214W        W29529  17.011  33.471   0.009
57215W        W29530  32.915  41.987   0.936
57216W        W29531   1.569  17.337  13.374
57217W        W29532  38.312   8.686  12.318
57218W        W29533  37.880  16.837  13.503
57219W        W29534   9.793  23.254   3.351
57220W        W29535   9.504  42.589  10.839
57221W        W29536   3.168  29.594   2.248
57222W        W29537  34.154  43.106  14.089
57223W        W29538  19.996  40.000  12.038
57224W        W29539  19.669   9.007   3.793
57225W        W29540  19.144  43.189  13.919
57226W        W29541  25.755  17.658   4.815
57227W        W29542   2.842  36.517   4.724
57228W        W29543  23.752  21.708   3.183
57229W        W29544   4.189  24.570   2.732
57230W        W29545   0.315  20.049  13.345
57231W        W29546  24.154  20.339   1.839
57232W        W29547  19.550  24.430  11.120
57233W        W29548   5.993  11.243   3.706
57234W        W29549  37.062  24.753   0.363
57235W        W29550  23.429  16.077  12.583
57236W        W29551  22.505  39.875   3.207
57237W        W29552  39.957   7.149   3.645
57238W        W29553  22.204   4.552   0.085
57239W        W29554   8.308  24.573   1.271
57240W        W29555  14.063   7.279   2.711
57241W        W29556  30.465  35.469  14.542
57242W        W29557  44.334  23.154  13.378
57243W        W29558  38.327  28.105   1.201
57244W        W29559  26.302  25.404  11.605
57245W        W29560  11.446  16.535  10.495
57246W        W29561  44.962   3.584   5.135
57247W        W29562  37.360   0.340   2.790
57248W        W29563   2.989   8.887   0.329
57249W        W29564  35.683  35.371   1.843
57250W        W29565  36.003  41.771   3.249
57251W        W29566  25.675  33.706   3.210
57252W        W29567  29.524   6.501  14.440
57253W        W29568   0.808  43.511   3.372
57254W        W29569  34.595  35.943   0.646
57255W        W29570  42.815   5.177  14.276
57256W        W29571  41.599  38.332   2.798
57257W        W29572  10.175  37.165  13.912
57258W        W29573  42.402  15.277  13.817
57259W        W29574  21.418  17.119  12.505
57260W        W29575  39.525  15.176  13.148
57261W        W29576   8.136  27.609   3.185
57262W        W29577  35.891  38.550   2.800
57263W        W29578   7.148  40.626  14.287
57264W        W29579  22.771   5.749   1.384
57265W        W29580  11.330  32.503  14.802
57266W        W29581  21.071  29.481  12.138
57267W        W29582  34.581  26.691  14.548
57268W        W29583  26.489   6.481   9.764
57269W        W29584   2.953  15.506   3.213
57270W        W29585  31.152  24.498   1.355
57271W        W29586   8.767   2.905  11.791
57272W        W29587  18.537   9.560   4.110
57273W        W29588  16.557  16.027  12.844
57274W        W29589  38.466  38.745  13.688
57275W        W29590  19.323   9.813  14.415
57276W        W29591  15.560  44.285   0.538
57277W        W29592  24.011  37.341   1.681
57278W        W29593   0.564  13.152  13.707
57279W        W29594  33.553  30.669   2.321
57280W        W29595  11.758  36.026  10.938
57281W        W29596  37.078  31.041  12.070
57282W        W29597  12.842  25.140  13.131
57283W        W29598  21.653  26.725  11.525
57284W        W29599  35.577  31.430  14.525
57285W        W29600  40.826  26.661  14.974
57286W        W29601  31.922  32.146  13.908
57287W        W29602  21.007  36.960  14.442
57288W        W29603   1.835   3.477  11.591
57289W        W29604  40.469  16.551   0.498
57290W        W29605  31.518  39.374  11.180
57291W        W29606  19.076  38.826   9.772
57292W        W29607  32.193  13.023  13.778
57293W        W29608  32.013   5.576  13.407
57294W        W29609  42.790  44.251   1.338
57295W        W29610  38.824  13.873   4.196
57296W        W29611   5.551   7.104   0.243
57297W        W29612   4.506  22.535  12.987
57298W        W29613  36.715   0.802   4.545
57299W        W29614   4.916  41.249   2.727
57300W        W29615  44.198   1.308   2.886
57301W        W29616  43.952  41.855  10.755
57302W        W29617   7.287  36.570  14.015
57303W        W29618  21.232  20.047   5.428
57304W        W29619  42.837  26.053  10.695
57305W        W29620   8.389  43.471  10.805
57306W        W29621   4.530  17.260   1.655
57307W        W29622   4.474   4.748   2.334
57308W        W29623  18.171  13.612  12.907
57309W        W29624   6.008  24.247   4.367
57310W        W29625  14.651  20.430   0.116
57311W        W29626   0.021  43.351  10.960
57312W        W29627   2.203  29.366   2.297
57313W        W29628  34.036  21.682  13.586
57314W        W29629  29.958  38.572  13.925
57315W        W29630  20.068   4.780  14.462
57316W        W29631  42.528   9.762  12.588
57317W        W29632  20.709  15.598   4.341
57318W        W29633  27.176  44.228  11.171
57319W        W29634  44.330  18.300  11.477
57320W        W29635   2.293  37.454  13.794
57321W        W29636   6.330  12.063  14.483
57322W        W29637  34.098   8.752   1.312
57323W        W29638  19.803  43.872   1.623
57324W        W29639  24.393  16.549   2.146
57325W        W29640   1.707  33.425   1.085
57326W        W29641  29.640  15.877  11.432
57327W        W29642  30.588  38.858  11.797
57328W        W29643  26.005  27.393   1.294
57329W        W29644  21.758   9.822  10.566
57330W        W29645   8.010  27.676  10.349
57331W        W29646  15.315   7.641  13.995
57332W        W29647  21.649  20.561  14.274
57333W        W29648  43.737  24.113   2.851
57334W        W29649  41.941  13.939   0.099
57335W        W29650   9.209  18.450   9.821
57336W        W29651   8.970  20.597   4.597
57337W        W29652   8.712  44.035   0.381
57338W        W29653  39.481  30.705  13.400
57339W        W29654  15.389   1.918   3.720
57340W        W29655  36.477  28.856  14.624
57341W        W29656  41.925  40.192  12.921
57342W        W29657   4.756  17.347   3.036
57343W        W29658  36.548  22.606   4.391
57344W        W29659  36.340  39.856  10.207
57345W        W29660  16.841   2.368  13.603
57346W        W29661   6.846  41.404  13.743
57347W        W29662  13.109  24.078   4.089
57348W        W29663  33.573  40.514   3.156
57349W        W29664   4.234   2.027   1.779
57350W        W29665  14.663  29.123  11.577
57351W        W29666  16.650  41.585  14.354
57352W        W29667  31.015  43.713   1.466
57353W        W29668  11.074  26.027   2.857
57354W        W29669  26.679   8.763   4.984
57355W        W29670  38.293  27.002  10.249
57356W        W29671  41.870  19.970  13.948
57357W        W29672   6.498  27.128  11.266
57358W        W29673  32.188  42.750   4.529
57359W        W29674  38.651   1.186  12.487
57360W        W29675  12.752  16.056  14.481
57361W        W29676  17.546  43.372   1.672
57362W        W29677   1.386  16.790  14.908
57363W        W29678  37.829   1.871   4.567
57364W        W29679  14.112   3.392   1.278
57365W        W29680  31.222  22.953   1.868
57366W        W29681  11.880  36.498  10.795
57367W        W29682  19.017  27.131   1.355
57368W        W29683  32.811  37.330   3.702
57369W        W29684  14.687  10.376  11.123
57370W        W29685  37.638  18.559   2.787
57371W        W29686  37.056  41.511   1.813
57372W        W29687  15.257  32.522  12.268
57373W        W29688  37.472  33.290  11.428
57374W        W29689  33.422  42.811   5.119
57375W        W29690   0.721  42.887  10.747
57376W        W29691  15.784   5.552   1.125
57377W        W29692  19.842  16.293   0.856
57378W        W29693  10.093  10.919   3.737
57379W        W29694  30.190  23.227  12.406
57380W        W29695  28.697  24.569  11.035
57381W        W29696  36.100  44.887   1.727
57382W        W29697  40.512   6.907  11.584
57383W        W29698  42.391  44.871  11.560
57384W        W29699  38.564  25.979   9.747
57385W        W29700  44.730  35.323   2.058
57386W        W29701  10.277  23.702   1.465
57387W        W29702   3.014  22.696   0.201
57388W        W29703  32.232  41.482   2.177
57389W        W29704  26.162  16.247   0.266
57390W        W29705   3.235  39.858   3.746
57391W        W29706   1.158  12.318  11.637
57392W        W29707  28.458  21.053   3.230
57393W        W29708   1.476  33.995   3.766
57394W        W29709   4.784  30.585   1.242
57395W        W29710  41.038  23.768   0.375
57396W        W29711  32.770  10.653  13.374
57397W        W29712  30.077  32.493  13.549
57398W        W29713   7.433   2.788  13.463
57399W        W29714  18.089  38.813   0.864
57400W        W29715   6.014  27.202  11.147
57401W        W29716  23.078  19.005   3.186
57402W        W29717  29.879  22.816   3.923
57403W        W29718  29.086  35.486  11.934
57404W        W29719  19.944  23.468   3.365
57405W        W29720  28.987  20.615  13.059
57406W        W29721  41.413   7.252   2.877
57407W        W29722  19.787  24.134   1.913
57408W        W29723   6.308  43.757  13.661
57409W        W29724  13.786   1.184  13.870
57410W        W29725   2.147  32.453   3.680
57411W        W29726   4.719  19.763  13.834
57412W        W29727  42.304  15.716   1.865
57413W        W29728  22.681  30.541   2.868
57414W        W29729  17.354  10.800  13.855
57415W        W29730  19.832  32.023  12.061
57416W        W29731  28.376  20.740   2.816
57417W        W29732   1.365   8.680  11.454
57418W        W29733  40.975  40.370  14.437
57419W        W29734  33.999   6.741  14.509
57420W        W29735   1.711  10.437  12.128
57421W        W29736  22.626  10.379   2.813
57422W        W29737  22.747   4.194  13.877
57423W        W29738  40.768  22.689  12.873
57424W        W29739  21.092  28.071  14.518
57425W        W29740  19.795  37.959   4.269
57426W        W29741   8.758   6.866   3.200
57427W        W29742  29.676  32.921   3.264
57428W        W29743  44.351   5.614  14.681
57429W        W29744  25.089  35.035  11.629
57430W        W29745  23.508  33.003   3.325
57431W        W29746  19.707  20.550  10.530
57432W        W29747  35.050  14.849  12.908
57433W        W29748  18.093   0.441   1.790
57434W        W29749  41.840  10.792  11.454
57435W        W29750  18.165  10.636   3.197
57436W        W29751  37.507  13.809  14.905
57437W        W29752  35.287   2.521   2.475
57438W        W29753  23.844  11.211  11.219
57439W        W29754   3.133  41.512   2.176
57440W        W29755   3.819  25.760  14.874
57441W        W29756   7.450   3.780  13.803
57442W        W29757  15.219  19.135   3.473
57443W        W29758  32.861  20.619   4.270
57444W        W29759   5.408  41.574   4.368
57445W        W29760  13.382  18.638  11.562
57446W        W29761   6.474   4.365   1.350
57447W        W29762  29.049  24.252  13.513
57448W        W29763  20.201  14.603   3.352
57449W        W29764  32.495  22.672   3.385
57450W        W29765  13.440  22.181   4.119
57451W        W29766  31.529  37.578   3.382
57452W        W29767  18.215  13.280  14.209
57453W        W29768   2.830   9.665  13.347
57454W        W29769   9.394   6.882  14.996
57455W        W29770  10.785  22.445  14.013
57456W        W29771  28.166  38.062  11.159
57457W        W29772  33.574  44.990  10.607
57458W        W29773  38.267  38.008   2.246
57459W        W29774   7.798  35.899   3.187
57460W        W29775   4.082   2.719   2.698
57461W        W29776  41.534  40.366   1.365
57462W        W29777  15.020  14.240  14.034
57463W        W29778  20.594  32.558   0.740
57464W        W29779  42.024  19.712  14.770
57465W        W29780  26.561  41.055   2.710
57466W        W29781  29.492  20.315  10.510
57467W        W29782   7.757  31.823   2.808
57468W        W29783   7.619  19.019   2.434
57469W        W29784  37.331  40.996  12.025
57470W        W29785   1.647  34.409  12.833
57471W        W29786  19.657   6.358   4.430
57472W        W29787  14.462  14.103  13.287
57473W        W29788  43.242  42.436  10.558
57474W        W29789  44.353   5.033   0.685
57475W        W29790  24.460  17.201   0.988
57476W        W29791  41.349  32.519  14.860
57477W        W29792   4.307   7.160  13.283
57478W        W29793   4.271  41.127  11.967
57479W        W29794  36.542  32.489   3.301
57480W        W29795   5.004  41.092   0.431
57481W        W29796  14.800  40.945  14.514
57482W        W29797  24.755   7.256  14.285
57483W        W29798   3.232   6.086  12.179
57484W        W29799  36.071  13.795  14.322
57485W        W29800  17.741  27.578   3.201
57486W        W29801  21.922  26.690   4.132
57487W        W29802  23.631  38.774  12.160
57488W        W29803  32.481  23.487   2.290
57489W        W29804  11.330  20.046   3.638
57490W        W29805   0.300  36.148   0.899
57491W        W29806  15.137  31.572  12.340
57492W        W29807  20.581  24.722   4.079
57493W        W29808  42.678  24.704  13.507
57494W        W29809  17.256  11.324  14.949
57495W        W29810  12.386  13.721   1.235
57496W        W29811  44.706  32.683   4.213
57497W        W29812  16.216  29.873   3.090
57498W        W29813  32.106   3.411   3.341
57499W        W29814  19.731  19.616   1.420
57500W        W29815  35.547   2.175   0.870
57501W        W29816   6.891  25.563   2.185
57502W        W29817  18.047  30.995  14.705
57503W        W29818  12.342  18.144  14.411
57504W        W29819  30.434  39.069   2.231
57505W        W29820  23.774   4.452   4.703
57506W        W29821  37.966   2.754  12.125
57507W        W29822  16.008   5.557   4.720
57508W        W29823  14.383  36.859   3.794
57509W        W29824  30.579   3.155   3.431
57510W        W29825  43.556  29.865   2.870
57511W        W29826  39.924  27.121   0.391
57512W        W29827  42.853  34.347   2.704
57513W        W29828  34.025   9.936  11.251
57514W        W29829   5.545  20.669   2.428
57515W        W29830  34.843  11.607  12.992
57516W        W29831   2.008  21.162  13.776
57517W        W29832  40.788  43.810  12.993
57518W        W29833  42.420   1.053  13.573
57519W        W29834  41.457  12.590  11.169
57520W        W29835  25.514   8.738  14.886
57521W        W29836  24.636  28.532   4.152
57522W        W29837   7.317  14.959  11.840
57523W        W29838  22.571  38.234  10.736
57524W        W29839   4.923  35.566  10.533
57525W        W29840  18.501  39.653  14.864
57526W        W29841  37.195   7.721   3.229
57527W        W29842  41.938  18.267   1.975
57528W        W29843   9.933  10.785   0.529
57529W        W29844  42.908  42.420   1.915
57530W        W29845  36.909  22.146  10.544
57531W        W29846  31.857  19.995   0.964
57532W        W29847  11.161  10.367   2.868
57533W        W29848   8.647  14.074  13.439
57534W        W29849  24.173  32.575  14.391
57535W        W29850  34.091  31.081   0.399
57536W        W29851  40.772  12.372  14.304
57537W        W29852   3.899  21.813  13.923
57538W        W29853  36.480   8.158  11.965
57539W        W29854  14.307   3.350   4.196
57540W        W29855   2.329  21.202   0.087
57541W        W29856   4.349  10.849   3.175
57542W        W29857  12.217  17.179  13.066
57543W        W29858  22.496  13.766   1.919
57544W        W29859  17.626   5.457  12.909
57545W        W29860  13.372  36.452  13.308
57546W        W29861  19.855  19.311  12.393
57547W        W29862  28.683   5.945  10.425
57548W        W29863   4.297  44.440  13.526
57549W        W29864  43.622  20.195  13.876
57550W        W29865   3.816  17.768   2.784
57551W        W29866  13.032  41.971   4.413
57552W        W29867  18.466  38.901  14.032
57553W        W29868  34.925  15.650   1.333
57554W        W29869  40.123   9.875  11.121
57555W        W29870  23.391  15.646  11.910
57556W        W29871  32.197  13.618   3.601
57557W        W29872  24.656  21.010   1.317
57558W        W29873  35.926  30.327   1.529
57559W        W29874  21.435  14.243   5.065
57560W        W29875  15.682  41.398   2.172
57561W        W29876   8.336  43.824  12.186
57562W        W29877  13.106  30.925  11.606
57563W        W29878  10.644   3.896  10.658
57564W        W29879  42.905   2.885   4.818
57565W        W29880  44.588  34.683   4.887
57566W        W29881  38.392  10.723  13.398
57567W        W29882  34.868  19.744   3.115
57568W        W29883  13.006  18.692   0.515
57569W        W29884  44.527  33.893   3.646
57570W        W29885  10.179  41.638   0.876
57571W        W29886   5.166  12.636  11.930
57572W        W29887  38.060   1.382  11.037
57573W        W29888  19.410  26.365  12.013
57574W        W29889  16.274   9.652   4.955
57575W        W29890  43.775  27.468   2.777
57576W        W29891  44.790   4.193  11.597
57577W        W29892  11.077  25.505  10.603
57578W        W29893   2.721  14.777  13.371
57579W        W29894  26.079  31.087  14.165
57580W        W29895  29.456  12.266  10.725
57581W        W29896  34.668   7.119   3.427
57582W        W29897  14.545  36.090  14.389
57583W        W29898   1.618   7.228  14.898
57584W        W29899  22.596  32.355   1.436
57585W        W29900  16.333  21.730  11.694
57586W        W29901   2.537  35.972   5.217
57587W        W29902  17.831  34.124  14.773
57588W        W29903  35.422   8.827   2.769
57589W        W29904  39.559  20.162   3.205
57590W        W29905  19.042  32.302   4.228
57591W        W29906  28.465   3.409  14.936
57592W        W29907   8.933  20.093  14.594
57593W        W29908  31.133  20.346  13.797
57594W        W29909  12.089   3.751   4.589
57595W        W29910  12.307  44.316   2.924
57596W        W29911  38.620   5.372   2.310
57597W        W29912  23.260  17.708   3.451
57598W        W29913   9.883   8.957  14.362
57599W        W29914  40.665  17.647   0.829
57600W        W29915   3.174  20.113   4.125
57601W        W29916  24.136  23.400   4.394
57602W        W29917  43.023  28.936   0.276
57603W        W29918  26.697  43.979  14.827
57604W        W29919  33.408  15.316   3.208
57605W        W29920   5.592   2.049   3.732
57606W        W29921  13.626  41.234   3.849
57607W        W29922  30.046  14.731   4.338
57608W        W29923  33.848  27.027  12.101
57609W        W29924  32.101  38.886  11.527
57610W        W29925  16.746  20.293   1.356
57611W        W29926  16.190  43.692   1.220
57612W        W29927  36.561  11.684   0.908
57613W        W29928   3.623  22.518  12.463
57614W        W29929  37.353  30.887   9.869
57615W        W29930   6.767  16.747   1.837
57616W        W29931  21.785  43.237  11.608
57617W        W29932  31.296   0.434   1.518
57618W        W29933  23.564   4.126  12.903
57619W        W29934  23.235  35.450  11.462
57620W        W29935  35.074  38.786  13.617
57621W        W29936  18.020  16.280  12.861
57622W        W29937  21.159   4.634   4.960
57623W        W29938  26.390   8.195   4.550
57624W        W29939  33.468  35.899  13.890
57625W        W29940  15.037  27.623  10.659
57626W        W29941   8.384  40.835  13.270
57627W        W29942  40.689  26.542  10.169
57628W        W29943  18.265  13.005  13.691
57629W        W29944  21.656  41.845   2.327
57630W        W29945  30.860  22.431   2.675
57631W        W29946   2.557  22.057  14.509
57632W        W29947  43.757   2.278   0.377
57633W        W29948   7.839  29.156  14.915
57634W        W29949  44.784  44.840   2.283
57635W        W29950  21.608   7.353  13.041
57636W        W29951  43.913  26.189  10.685
57637W        W29952  14.259  34.916   0.104
57638W        W29953  37.578  16.099  10.748
57639W        W29954  44.801  41.084   4.070
57640W        W29955  15.641   5.728  11.078
57641W        W29956   9.799  16.928  10.038
57642W        W29957  40.556  11.847  10.207
57643W        W29958  37.924  24.714  10.840
57644W        W29959  20.403   3.813  13.832
57645W        W29960  20.149  23.584   0.903
57646W        W29961  29.607  34.550   4.538
57647W        W29962  38.008  21.127  10.224
57648W        W29963  43.496   5.215  13.865
57649W        W29964   2.047  40.298   1.825
57650W        W29965  19.812  27.969  11.139
57651W        W29966  30.043   5.229   2.713
57652W        W29967   0.094  38.817  12.950
57653W        W29968  34.856   7.757   4.596
57654W        W29969  22.677  37.288   3.778
57655W        W29970  19.676  31.531   2.568
57656W        W29971  40.095  22.468   5.117
57657W        W29972  20.157  29.440   4.102
57658W        W29973  13.439  10.128   0.932
57659W        W29974  35.070   7.853   1.895
57660W        W29975   9.303  25.056   3.236
57661W        W29976  28.570   3.250  10.595
57662W        W29977   5.887  34.875  11.570
57663W        W29978  14.641   7.189  13.784
57664W        W29979   3.811  19.491  11.083
57665W        W29980  40.270  40.958   2.346
57666W        W29981   4.239  32.716   0.790
57667W        W29982  14.089   2.713  11.583
57668W        W29983   5.963  16.379   3.745
57669W        W29984   9.269   5.194  11.994
57670W        W29985  17.844  37.930  12.089
57671W        W29986  21.780   2.223   0.373
57672W        W29987  20.665  13.093  13.554
57673W        W29988  29.693  19.168   1.759
57674W        W29989  20.816  31.603   2.841
57675W        W29990  10.644  10.293  10.391
57676W        W29991  37.394  28.135  11.889
57677W        W29992   3.435  27.171  11.342
57678W        W29993  10.259  28.322   2.299
57679W        W29994   6.245  42.260   4.200
57680W        W29995  16.688   2.865   4.514
57681W        W29996   4.230  23.623  13.369
57682W        W29997  16.219  26.406  13.878
57683W        W29998  12.009  42.491   3.234
57684W        W29999   2.343  43.300  11.969
57685W        W30000  10.176  32.180   3.265
57686W        W30001   9.832  23.178  12.651
57687W        W30002  42.812  17.676   0.728
57688W        W30003  43.645  22.858  11.652
57689W        W30004  29.642  38.049   4.314
57690W        W30005   3.930   5.812   3.630
57691W        W30006  21.872  24.071  11.039
57692W        W30007  40.521  27.260  14.024
57693W        W30008  17.126  14.909  12.334
57694W        W30009  22.367  21.756   2.414
57695W        W30010  27.644  37.549   1.937
57696W        W30011  20.140  36.785   0.956
57697W        W30012  11.771  20.526   0.363
57698W        W30013   2.372  28.495  11.286
57699W        W30014  40.529  13.836   5.130
57700W        W30015   5.684  21.607   0.390
57701W        W30016  24.739  33.889   1.710
57702W        W30017  23.753  17.146  11.960
57703W        W30018  21.757  29.875  13.797
57704W        W30019  29.999  24.775   4.897
57705W        W30020  27.453  39.133  10.569
57706W        W30021  32.092   5.294  10.689
57707W        W30022  11.261  28.708   2.470
57708W        W30023  25.551  44.257  13.482
57709W        W30024   2.450   1.438   0.659
57710W        W30025  14.081  32.591  11.774
57711W        W30026  32.041  21.302   2.439
57712W        W30027  29.690  36.045   1.919
57713W        W30028   6.857  39.140   0.350
57714W        W30029  37.542   1.056   4.258
57715W        W30030   9.346   8.917  11.205
57716W        W30031  43.880  16.503   0.133
57717W        W30032   3.227  25.018  12.221
57718W        W30033   0.798   1.254   1.403
57719W        W30034  20.125  14.171  10.713
57720W        W30035  20.763  21.536   2.718
57721W        W30036  25.311  25.114   4.293
57722W        W30037  14.866  39.130   3.356
57723W        W30038  33.068  35.130   4.939
57724W        W30039  11.778   5.895  12.886
57725W        W30040  26.212  42.333   2.848
57726W        W30041  23.633   7.599   4.170
57727W        W30042  15.688  17.230  10.609
57728W        W30043  24.675  28.482  12.434
57729W        W30044  41.228  43.776  13.802
57730W        W30045  13.059  22.627  11.529
57731W        W30046  36.033  17.334   2.574
57732W        W30047   4.721  12.386  14.328
57733W        W30048  13.168  19.037  11.871
57734W        W30049  34.313  42.813  11.011
57735W        W30050  24.984   8.055   3.935
57736W        W30051   7.206  23.392  14.277
57737W        W30052   2.010  42.761  10.198
57738W        W30053   3.363   9.784  13.486
57739W        W30054  26.776  29.069  12.947
57740W        W30055  10.954  23.244  13.000
57741W        W30056  34.013   9.202   4.593
57742W        W30057  11.507  19.878   9.733
57743W        W30058  21.597  17.806  12.981
57744W        W30059  15.077  13.186  11.666
57745W        W30060  20.301   7.426   0.362
57746W        W30061  40.428  31.349  14.386
57747W        W30062  29.419   3.377   3.911
57748W        W30063  17.093  28.072   2.266
57749W        W30064  41.794  35.962   2.381
57750W        W30065  14.792  17.259  13.549
57751W        W30066   4.267  15.171   2.807
57752W        W30067  29.106  43.371  14.402
57753W        W30068  42.086   6.658  13.171
57754W        W30069  22.759   7.452  14.721
57755W        W30070  29.642  29.111  10.492
57756W        W30071   1.995  33.872   0.950
57757W        W30072  39.967  28.417   4.373
57758W        W30073  39.084  36.912  14.872
57759W        W30074  30.879  17.167   1.736
57760W        W30075  36.506  13.179   1.416
57761W        W30076  15.676  34.873  12.931
57762W        W30077   0.042  13.333   1.432
57763W        W30078  29.012  38.837   3.170
57764W        W30079  24.856  16.537  11.113
57765W        W30080  35.448  40.868  12.608
57766W        W30081  35.564  44.896   0.192
57767W        W30082   5.460   1.808  14.834
57768W        W30083  39.294  42.557   0.431
57769W        W30084  12.244  16.613   1.843
57770W        W30085  27.155  20.020   2.820
57771W        W30086  25.121  25.715   1.503
57772W        W30087  26.017  16.070  13.013
57773W        W30088  31.017  26.626   0.938
57774W        W30089  23.979  25.088  12.544
57775W        W30090   4.297  20.559   0.903
57776W        W30091   4.293  39.009  10.704
57777W        W30092  35.128  43.269   0.019
57778W        W30093   7.991  18.123  13.788
57779W        W30094   0.207  25.699   3.201
57780W        W30095   1.718  26.097   0.965
57781W        W30096  17.092  19.363   4.639
57782W        W30097  34.391  36.572  13.816
57783W        W30098  19.064  32.509  12.025
57784W        W30099  37.541  10.730   3.745
57785W        W30100  17.185  14.676   1.858
57786W        W30101   1.495  21.617  11.491
57787W        W30102  42.340   1.927   0.312
57788W        W30103   1.764  17.551  14.734
57789W        W30104  28.983  11.570   0.334
57790W        W30105  11.925  30.235  14.013
57791W        W30106  24.117  18.707   9.801
57792W        W30107  17.145  43.726  13.338
57793W        W30108  15.828   3.819   2.197
57794W        W30109   0.362  32.403  11.619
57795W        W30110   0.222   5.822  11.455
57796W        W30111  10.285   8.424   1.891
57797W        W30112  15.462  41.454  13.131
57798W        W30113   8.908   2.308   0.214
57799W        W30114  20.076  38.234   0.719
57800W        W30115   2.330   7.907   1.263
57801W        W30116  29.609  15.265  14.298
57802W        W30117  24.918  43.766  11.674
57803W        W30118   4.881  14.039  10.999
57804W        W30119  36.306   9.876   0.751
57805W        W30120  19.241   9.316  10.612
57806W        W30121  35.261  29.272  13.535
57807W        W30122  31.984  28.867  14.863
57808W        W30123  40.547  34.364   0.786
57809W        W30124  20.704   5.786   0.835
57810W        W30125  33.076  27.184   2.719
57811W        W30126  34.519  13.517  11.528
57812W        W30127  10.886   3.374   4.527
57813W        W30128  41.321  20.458   3.175
57814W        W30129   5.283  27.037  12.314
57815W        W30130   7.871  41.157  12.463
57816W        W30131   0.228  21.837   1.397
57817W        W30132  16.262  27.045   1.844
57818W        W30133   6.302  36.907  11.061
57819W        W30134  33.450   2.001   3.729
57820W        W30135  33.223  42.876   0.458
57821W        W30136   8.283  35.659   4.047
57822W        W30137  25.096  38.128  14.884
57823W        W30138  37.398   1.575   4.952
57824W        W30139  30.053  27.217   3.965
57825W        W30140   3.036  27.195   4.659
57826W        W30141   9.613  41.498   4.723
57827W        W30142   0.170  29.062  14.476
57828W        W30143  33.082  41.427  14.373
57829W        W30144  26.538  41.081  13.577
57830W        W30145  41.421  17.388  14.753
57831W        W30146  25.844  19.321  12.505
57832W        W30147  15.193   3.937  11.083
57833W        W30148  38.763  44.154  12.981
57834W        W30149  31.225  22.251  10.002
57835W        W30150  22.106  31.692   3.369
57836W        W30151  24.589  14.297   3.695
57837W        W30152  32.689   0.264  13.392
57838W        W30153  12.987  43.473   3.344
57839W        W30154  39.153  29.053   1.912
57840W        W30155  37.453  32.777  11.479
57841W        W30156  26.571  19.881   3.713
57842W        W30157  18.251   9.225  12.738
57843W        W30158  10.244  39.366  12.895
57844W        W30159  16.121   5.554  11.166
57845W        W30160  16.863  22.118  14.012
57846W        W30161  29.444  25.638  14.365
57847W        W30162   2.377  37.735  11.549
57848W        W30163  43.957  43.557  11.282
57849W        W30164  14.388  10.132  10.080
57850W        W30165  18.199  22.951  12.422
57851W        W30166  19.703  13.031  13.387
57852W        W30167  22.593  21.000   0.793
57853W        W30168  38.116  23.602  14.040
57854W        W30169  15.319  37.258   2.382
57855W        W30170  20.832  10.651   3.762
57856W        W30171  40.128  40.711  10.639
57857W        W30172  24.067  22.085   4.234
57858W        W30173   2.773  29.653   3.794
57859W        W30174  38.089  20.723   0.797
57860W        W30175   2.418  19.127   0.534
57861W        W30176  42.331  25.116  14.450
57862W        W30177  17.138  28.587   2.415
57863W        W30178  28.776   5.464  13.888
57864W        W30179  24.501  15.312  14.282
57865W        W30180  36.051  24.898  13.419
57866W        W30181  36.033  19.692   2.037
57867W        W30182  25.086  27.164   2.489
57868W        W30183  32.894  17.331   1.792
57869W        W30184   3.359  16.248   0.382
57870W        W30185  10.830  15.559   0.919
57871W        W30186  34.824  17.647  14.482
57872W        W30187  19.718  20.593   2.369
57873W        W30188  41.415   6.653  11.103
57874W        W30189   1.731   3.960   2.376
57875W        W30190  31.912   4.147   1.177
57876W        W30191  26.171   7.330   1.387
57877W        W30192  36.029  37.474   1.360
57878W        W30193   7.772   4.883  10.619
57879W        W30194  24.169   1.841   2.232
57880W        W30195  34.018  22.416  10.160
57881W        W30196  30.027  30.570   0.712
57882W        W30197  43.864  24.728   2.370
57883W        W30198   2.314  18.798  14.953
57884W        W30199  36.314   7.416   0.137
57885W        W30200  26.965   2.203  12.079
57886W        W30201  30.029  15.665   1.488
57887W        W30202   9.635  25.437   4.726
57888W        W30203  17.030   1.294  12.599
57889W        W30204  19.814  25.014   1.714
57890W        W30205   1.963  44.658  11.862
57891W        W30206  29.511   6.867   4.698
57892W        W30207  25.814   7.145  14.188
57893W        W30208  40.743  25.656   3.822
57894W        W30209   9.932  43.341   2.733
57895W        W30210  12.708  32.786   0.493
57896W        W30211  32.389  18.696   4.226
57897W        W30212   9.727  37.496   4.814
57898W        W30213  36.969  29.695  11.784
57899W        W30214  10.957  20.212   4.631
57900W        W30215  20.039  16.726   0.631
57901W        W30216  11.733   7.122   0.830
57902W        W30217   1.319  33.671   2.607
57903W        W30218  16.674  42.592   2.320
57904W        W30219  34.424  16.881   2.551
57905W        W30220  25.217  36.001  10.689
57906W        W30221  16.189   3.435   0.784
57907W        W30222   8.844  26.828  11.624
57908W        W30223  33.214  32.493  12.514
57909W        W30224  22.946  14.604  11.050
57910W        W30225  34.174   9.128   2.319
57911W        W30226  35.075  22.687   2.783
57912W        W30227  31.582   0.969   0.125
57913W        W30228  43.641  31.302  14.304
57914W        W30229  29.093  35.167  13.415
57915W        W30230  38.290   4.014   1.956
57916W        W30231  43.638  43.675  14.714
57917W        W30232  16.750   3.461   3.192
57918W        W30233  24.047  41.723   0.349
57919W        W30234  21.017   2.811   1.282
57920W        W30235   1.065  25.185   2.299
57921W        W30236  21.003  11.736  13.448
57922W        W30237  11.661  36.535  12.718
57923W        W30238  29.078   6.217   0.517
57924W        W30239   3.014  33.797   1.634
57925W        W30240  17.521   1.990   1.294
57926W        W30241  30.621  12.302   3.714
57927W        W30242  39.515  10.375   2.009
57928W        W30243  21.556   5.350   4.370
57929W        W30244  29.146  20.776  14.877
57930W        W30245  19.735   1.373  11.441
57931W        W30246  24.200   4.476   1.348
57932W        W30247  20.030  25.433   3.354
57933W        W30248  25.586  24.044   0.689
57934W        W30249  40.550   5.588   0.039
57935W        W30250  12.896  22.230   4.177
57936W        W30251   5.264  28.455  11.631
57937W        W30252  35.662  19.507  11.226
57938W        W30253  42.363  24.242  10.319
57939W        W30254  10.202  15.544  11.515
57940W        W30255  27.603  23.513  13.962
57941W        W30256  24.229  26.794   1.371
57942W        W30257   4.230  29.680  12.357
57943W        W30258  18.672  41.046   5.012
57944W        W30259   1.176  14.287  13.976
57945W        W30260  31.881  12.225   3.154
57946W        W30261   4.895  24.975  13.833
57947W        W30262  28.582  40.382   4.632
57948W        W30263  21.110   0.896   4.579
57949W        W30264  30.404  22.361  14.386
57950W        W30265  33.844  39.380  13.061
57951W        W30266  36.931  41.022   3.352
57952W        W30267  34.893   9.251   2.833
57953W        W30268  14.508   8.386  12.525
57954W        W30269  25.140  29.680   5.020
57955W        W30270  21.999   2.279  12.441
57956W        W30271  27.731   1.780  10.601
57957W        W30272  10.202  11.541   0.742
57958W        W30273  34.521  38.082  10.810
57959W        W30274  18.248  28.191  12.838
57960W        W30275  17.742  12.803   3.717
57961W        W30276   8.409  22.869  11.621
57962W        W30277   0.864  38.455   4.594
57963W        W30278   2.741  12.700  11.826
57964W        W30279   5.937  44.538  13.462
57965W        W30280  43.731  26.452  14.944
57966W        W30281  16.704  17.356  12.582
57967W        W30282  20.213   3.534   5.066
57968W        W30283  13.601  13.830  14.273
57969W        W30284   1.246  11.120  12.545
57970W        W30285   1.037   9.028  13.763
57971W        W30286  37.720  35.534   1.699
57972W        W30287  15.607   8.774  12.180
57973W        W30288  22.752   2.234   3.622
57974W        W30289  19.342  18.123   1.361
57975W        W30290  12.828  17.971  10.222
57976W        W30291  19.005  42.469   0.798
57977W        W30292  20.193   0.397   0.584
57978W        W30293  32.594  11.371  11.572
57979W        W30294  12.305  40.759   2.763
57980W        W30295  18.289  34.167  12.402
57981W        W30296  25.932  39.904   0.755
57982W        W30297  30.266  25.626  14.088
57983W        W30298   3.370  35.924  14.500
57984W        W30299  28.912   5.956  12.367
57985W        W30300  31.059  36.356  13.197
57986W        W30301  12.516   5.625   4.189
57987W        W30302  10.049   0.550   1.028
57988W        W30303   2.338   7.419  10.734
57989W        W30304   6.671  11.877   2.860
57990W        W30305   6.783  20.203   0.801
57991W        W30306  16.830  41.095  11.203
57992W        W30307  21.156  43.500   2.804
57993W        W30308  24.646  41.149   3.655
57994W        W30309  17.318  33.854  11.167
57995W        W30310  40.853  25.716   0.991
57996W        W30311  41.490  18.396   0.820
57997W        W30312  19.978   8.273   2.295
57998W        W30313  28.705  43.622  12.171
57999W        W30314  15.581  38.204   5.183
58000W        W30315  35.914   1.913   2.236
58001W        W30316  16.621  10.641   0.976
58002W        W30317  40.875  36.442   0.984
58003W        W30318  24.998  22.284   4.876
58004W        W30319   9.421   7.604   0.329
58005W        W30320  40.982  42.000   2.705
58006W        W30321   7.930  12.498  14.797
58007W        W30322  12.136  37.870   0.745
58008W        W30323   1.197   7.660   0.267
58009W        W30324  42.227  11.866  12.803
58010W        W30325  38.014  16.747   4.737
58011W        W30326  34.671  11.629   3.473
58012W        W30327   9.687  13.144   0.307
58013W        W30328  15.753  24.148   4.887
58014W        W30329  18.504  24.653   0.391
58015W        W30330  33.458   1.885   1.902
58016W        W30331  27.940  16.094  11.439
58017W        W30332  31.558   9.650   4.384
58018W        W30333   9.109  22.521   2.822
58019W        W30334  10.351  36.908  10.319
58020W        W30335  39.418  11.336   0.325
58021W        W30336  38.584   4.875   0.405
58022W        W30337  37.336  22.779  12.892
58023W        W30338  22.158  38.461   1.490
58024W        W30339  34.109  28.209  12.936
58025W        W30340   6.373  15.847   2.790
58026W        W30341  15.595  36.393   1.333
58027W        W30342   1.957  42.902  12.068
58028W        W30343  23.108   6.674  14.675
58029W        W30344  39.045  17.119  10.671
58030W        W30345  22.755  26.368   2.712
58031W        W30346  29.688  33.307   2.081
58032W        W30347  27.965  12.786   3.693
58033W        W30348  16.256  25.645  13.498
58034W        W30349   5.387  44.535  12.527
58035W        W30350  19.155  32.999   2.951
58036W        W30351  40.858  20.640   4.601
58037W        W30352   8.810  17.239   0.353
58038W        W30353  13.080   0.205  12.761
58039W        W30354  29.073  42.770  12.258
58040W        W30355  19.999  44.365  10.791
58041W        W30356  37.621  39.095   3.532
58042W        W30357   4.920  21.444  14.623
58043W        W30358  17.075   9.149  14.870
58044W        W30359  23.190  40.081  13.340
58045W        W30360  24.468  30.137   2.802
58046W        W30361   1.309  12.613  14.063
58047W        W30362  22.432  17.068  11.587
58048W        W30363  31.192  30.580  10.730
58049W        W30364  16.748  18.605   2.908
58050W        W30365   3.315  14.611   1.302
58051W        W30366  43.508   7.709  11.073
58052W        W30367  11.130  23.732   0.364
58053W        W30368   2.277   0.849   4.170
58054W        W30369  43.779  19.583   2.397
58055W        W30370  18.550  14.737  11.076
58056W        W30371   0.123   6.448  12.875
58057W        W30372   7.149  19.177   4.569
58058W        W30373  44.926  41.010   0.264
58059W        W30374  30.201  39.418  10.497
58060W        W30375  35.381  23.205   3.667
58061W        W30376  32.644  39.115   4.642
58062W        W30377  17.698  40.981   3.359
58063W        W30378  19.246  36.187   2.975
58064W        W30379  38.992  18.531   2.246
58065W        W30380  22.717  26.419   5.055
58066W        W30381  38.997   9.892   0.415
58067W        W30382   2.979  42.033   1.662
58068W        W30383  15.598   0.201   0.380
58069W        W30384  25.752  32.066  10.273
58070W        W30385   7.164  30.087  10.414
58071W        W30386  24.208  18.969  11.034
58072W        W30387  20.260  11.429   3.969
58073W        W30388  30.069  20.702   0.431
58074W        W30389  18.077  35.889  11.381
58075W        W30390  18.927  23.701   0.400
58076W        W30391  34.133  22.212  11.826
58077W        W30392  42.527  39.930  12.898
58078W        W30393  14.669  40.962   0.951
58079W        W30394  17.653  43.571   3.827
58080W        W30395   8.971  24.976  11.175
58081W        W30396  30.116  12.345   2.220
58082W        W30397  39.776  44.441   0.914
58083W        W30398  33.639  23.539   4.154
58084W        W30399  43.782  41.920   1.325
58085W        W30400  25.825  18.319  14.374
58086W        W30401  17.083  13.315   1.330
58087W        W30402  29.155  31.370  14.637
58088W        W30403   8.806  29.859   4.783
58089W        W30404  25.545  35.481  13.804
58090W        W30405  24.757  29.614  12.530
58091W        W30406  18.046  27.413  11.471
58092W        W30407  33.452  32.327   1.179
58093W        W30408  36.906   9.191   0.337
58094W        W30409  18.577  44.672   1.776
58095W        W30410  27.629  43.974  12.646
58096W        W30411  32.349  41.415   3.338
58097W        W30412  20.165  21.293   3.781
58098W        W30413  16.300  17.122   3.682
58099W        W30414  21.283  21.234  11.087
58100W        W30415  39.149  28.706  13.483
58101W        W30416  12.363  20.136  13.364
58102W        W30417  25.510   3.830   1.198
58103W        W30418   6.388  19.804  10.719
58104W        W30419  16.833  17.118   3.623
58105W        W30420   0.748  36.495  14.397
58106W        W30421  16.243  13.119   4.199
58107W        W30422  18.118   5.339   4.356
58108W        W30423  27.545  16.827   2.193
58109W        W30424  20.787  20.590  10.530
58110W        W30425   1.310  44.986  11.234
58111W        W30426  39.024  20.143  10.966
58112W        W30427  14.204  16.034  14.078
58113W        W30428  11.130  30.277  13.609
58114W        W30429  44.403  31.368   3.422
58115W        W30430  20.531  16.682  13.323
58116W        W30431  22.000  25.626   2.086
58117W        W30432  15.789  28.583   5.591
58118W        W30433  10.881  34.934   3.068
58119W        W30434  34.281  28.949   1.885
58120W        W30435   1.325  13.844   1.871
58121W        W30436  21.239  38.565   0.367
58122W        W30437  16.441  36.858   1.494
58123W        W30438  24.587  29.105   0.931
58124W        W30439  13.576  17.247  11.986
58125W        W30440  15.052  19.065  12.345
58126W        W30441  21.427  28.603   4.496
58127W        W30442  38.821  10.846  11.986
58128W        W30443  43.821  13.414  13.485
58129W        W30444  31.899  36.469   0.929
58130W        W30445  22.436  33.930   2.192
58131W        W30446  31.822   4.176   4.134
58132W        W30447   6.181   0.023  13.138
58133W        W30448  36.998  12.399   1.402
58134W        W30449  35.591  23.082  14.168
58135W        W30450   2.463  15.121   4.742
58136W        W30451  15.834   6.819   0.982
58137W        W30452  15.709  39.866   2.731
58138W        W30453  33.515  31.512   4.784
58139W        W30454  10.119  21.169   4.979
58140W        W30455   9.067  44.355  14.463
58141W        W30456  15.866  41.513   0.003
58142W        W30457   1.684  26.729  14.933
58143W        W30458   2.033  35.370   2.867
58144W        W30459  33.148  34.100   3.820
58145W        W30460   6.755   2.249   1.286
58146W        W30461  40.361  17.090  14.543
58147W        W30462  18.213  25.979  14.007
58148W        W30463  13.358  34.388  14.048
58149W        W30464  23.237   8.366   3.318
58150W        W30465  28.721  12.627  11.110
58151W        W30466   1.048  30.099   1.926
58152W        W30467   1.962  44.946   2.629
58153W        W30468  18.597   5.290   1.207
58154W        W30469  39.121   7.893  11.168
58155W        W30470  25.634  28.265  10.208
58156W        W30471  34.327   6.769  14.043
58157W        W30472  39.918  23.847   5.683
58158W        W30473  38.782   0.036  13.521
58159W        W30474  33.563  13.739  11.623
58160W        W30475  25.574  14.434   3.660
58161W        W30476  11.415  41.409   2.694
58162W        W30477   3.708  38.074  14.777
58163W        W30478  34.653   2.996   3.368
58164W        W30479   0.729   8.926   0.433
58165W        W30480  39.527   1.738  12.314
58166W        W30481  10.313  42.060   1.171
58167W        W30482  28.635  19.338  13.510
58168W        W30483   4.832  38.676   1.905
58169W        W30484  21.786  29.661  13.330
58170W        W30485  39.871  37.910   4.622
58171W        W30486  16.088  24.552  12.555
58172W        W30487  43.329  12.596   4.989
58173W        W30488  19.969  38.906   4.960
58174W        W30489  44.763  39.338   4.230
58175W        W30490  38.985  15.325  14.338
58176W        W30491   7.733  33.053  14.988
58177W        W30492   6.286  33.662   4.625
58178W        W30493  33.065  38.391   3.140
58179W        W30494   4.432   4.897   4.622
58180W        W30495  37.209  44.140   5.051
58181W        W30496   5.007   8.070   1.338
58182W        W30497  34.336  27.099  12.295
58183W        W30498  36.508  31.477   3.374
58184W        W30499  17.990  27.106   1.379
58185W        W30500  44.037  30.531  13.871
58186W        W30501  21.440   9.853   1.675
58187W        W30502   2.480  35.751   4.605
58188W        W30503  24.247   2.666  11.666
58189W        W30504  28.990  10.884  14.508
58190W        W30505   0.802  41.336   0.905
58191W        W30506  34.279  14.578  11.602
58192W        W30507   2.232  35.618  14.079
58193W        W30508   8.316  32.852  13.872
58194W        W30509  15.610  28.154  11.143
58195W        W30510   3.217  11.108   1.775
58196W        W30511   7.198  31.518   2.253
58197W        W30512  41.469  29.726  14.008
58198W        W30513  32.470  17.120   4.587
58199W        W30514   1.482   2.793  12.556
58200W        W30515  21.979  31.297   1.886
58201W        W30516  26.184  29.185  12.155
58202W        W30517   8.469  41.892   4.767
58203W        W30518  28.421  11.289  14.712
58204W        W30519  28.976   2.234   3.722
58205W        W30520  25.498   6.410   5.124
58206W        W30521  33.646  14.421  12.354
58207W        W30522  20.989  33.192   3.517
58208W        W30523  38.267   0.339   4.474
58209W        W30524   3.443   9.246   2.641
58210W        W30525   1.678   5.412  12.798
58211W        W30526   9.676  27.978   3.713
58212W        W30527  21.186  20.821  10.215
58213W        W30528  23.560   4.838  11.588
58214W        W30529  39.015  13.844   0.482
58215W        W30530   7.515  42.055   2.816
58216W        W30531  12.140  41.169   2.002
58217W        W30532  17.214   8.967  11.994
58218W        W30533  41.849  30.668   1.169
58219W        W30534  25.717  30.059  13.929
58220W        W30535  25.527  21.331  13.675
58221W        W30536  33.877  10.999  14.868
58222W        W30537  36.749  14.244  12.345
58223W        W30538   6.448  26.911  10.725
58224W        W30539   2.149  38.061   1.526
58225W        W30540  21.724  23.591  13.031
58226W        W30541  44.228  27.703   2.873
58227W        W30542  43.876  19.203   2.767
58228W        W30543  30.700  11.638  10.587
58229W        W30544  24.588  19.436  14.229
58230W        W30545  11.582  38.246  11.504
58231W        W30546  37.357  20.231  13.031
58232W        W30547  26.948   7.692   3.818
58233W        W30548   0.438  40.289   4.206
58234W        W30549  32.100  37.539   1.013
58235W        W30550  40.270  16.676   4.612
58236W        W30551   2.979  21.623  13.481
58237W        W30552  13.078  16.918   1.440
58238W        W30553  30.414  17.917  13.331
58239W        W30554   9.230  34.879   1.137
58240W        W30555  35.697  44.510   1.106
58241W        W30556  23.770   0.371  14.592
58242W        W30557  38.990  38.029   1.821
58243W        W30558  33.999  28.448   1.014
58244W        W30559  41.057  21.570  13.555
58245W        W30560  31.828  31.422   3.864
58246W        W30561  10.932   7.316  11.244
58247W        W30562   9.119  18.191   0.724
58248W        W30563  42.055  22.115  10.729
58249W        W30564   7.450  26.138   1.225
58250W        W30565  27.088   7.879   3.338
58251W        W30566  29.226   1.243   2.570
58252W        W30567   3.841  29.187   2.673
58253W        W30568   4.861  32.635   4.588
58254W        W30569  27.597  20.244   0.035
58255W        W30570  12.320  23.193  11.487
58256W        W30571  29.501  35.615   4.746
58257W        W30572   8.179   1.516  11.008
58258W        W30573   2.450   3.541  14.856
58259W        W30574   6.990   0.062  14.929
58260W        W30575   1.906  31.679  14.919
58261W        W30576  38.523  32.332  11.975
58262W        W30577  19.549  28.450   3.558
58263W        W30578  12.126  18.974   0.282
58264W        W30579   7.986  33.405   2.246
58265W        W30580  11.255  12.360  11.675
58266W        W30581  17.186  16.250   1.690
58267W        W30582  38.305  35.141   2.527
58268W        W30583  10.209  27.641  11.405
58269W        W30584   5.854  10.236  14.033
58270W        W30585   1.938   4.087  12.869
58271W        W30586  14.255  27.170   1.244
58272W        W30587  29.053   7.242   4.984
58273W        W30588  17.318   9.797   0.307
58274W        W30589  36.408  22.694   2.252
58275W        W30590  14.640   1.706   1.863
58276W        W30591  20.663  24.303   1.483
58277W        W30592   5.667  30.402   4.821
58278W        W30593   3.698  24.486  13.259
58279W        W30594  33.741  41.804   0.389
58280W        W30595  34.417  19.254  11.631
58281W        W30596  20.735  42.538  12.963
58282W        W30597  24.259  43.849  14.717
58283W        W30598  23.605  19.300  13.729
58284W        W30599  11.181  19.282   0.320
58285W        W30600  22.705   6.363  10.196
58286W        W30601  39.505   5.197   1.359
58287W        W30602  43.910  43.493  11.803
58288W        W30603   0.373  22.762   4.884
58289W        W30604   6.835  28.628  13.013
58290W        W30605  28.587  12.387  10.678
58291W        W30606  44.763  27.540   4.318
58292W        W30607  17.518  37.839  11.699
58293W        W30608  39.362  43.832   4.151
58294W        W30609  30.911  33.888   0.510
58295W        W30610  33.615  15.420  11.193
58296W        W30611  21.109   4.740  11.967
58297W        W30612  26.534  32.690   2.917
58298W        W30613  33.877   1.681  12.390
58299W        W30614  27.185  23.574   3.340
58300W        W30615  18.105  15.881   0.646
58301W        W30616  23.331  14.092   0.437
58302W        W30617  31.138  21.954  14.921
58303W        W30618  43.331   0.915   3.586
58304W        W30619  35.276  25.908  14.440
58305W        W30620   7.914  44.370  13.695
58306W        W30621  13.771  30.494  13.266
58307W        W30622  40.439   7.358   4.951
58308W        W30623   6.253  40.914  12.830
58309W        W30624  31.986  10.423  11.902
58310W        W30625  32.541   7.290   0.494
58311W        W30626  25.107   8.011   2.119
58312W        W30627  17.831  13.747  14.601
58313W        W30628   7.926  31.896  13.352
58314W        W30629  37.462  22.447   1.195
58315W        W30630   3.443  24.411   2.211
58316W        W30631  20.614  17.189   2.162
58317W        W30632   9.888  34.847  14.497
58318W        W30633  30.940  35.432  11.391
58319W        W30634  27.467  28.881  14.022
58320W        W30635  14.962   5.844  14.044
58321W        W30636   8.341  34.398   1.405
58322W        W30637  10.187  11.563  12.480
58323W        W30638  42.341   8.740  12.940
58324W        W30639  40.411  38.553  13.793
58325W        W30640  21.048  26.533   4.349
58326W        W30641  42.400   4.770  14.974
58327W        W30642  38.460  28.657   0.457
58328W        W30643  42.263  42.640   0.458
58329W        W30644  37.064  15.146   1.852
58330W        W30645  28.172  31.121   4.847
58331W        W30646  29.485   8.665   1.456
58332W        W30647  30.058  20.439  14.548
58333W        W30648  31.142   9.191   3.890
58334W        W30649  28.387  40.902  13.552
58335W        W30650  23.058  38.241  12.370
58336W        W30651   5.133   7.576  12.150
58337W        W30652  41.327  23.989  11.938
58338W        W30653  19.974  26.100  12.189
58339W        W30654   7.363   8.814  14.521
58340W        W30655   3.846   3.673  14.760
58341W        W30656  14.482  19.321  10.124
58342W        W30657  23.569  31.970   3.807
58343W        W30658   8.934  26.457   0.499
58344W        W30659  18.684  30.406  14.339
58345W        W30660  38.313  29.760   1.253
58346W        W30661  17.712  25.804  10.638
58347W        W30662  30.160   3.375  13.098
58348W        W30663  20.766  34.659   2.888
58349W        W30664   3.299  27.129  13.449
58350W        W30665  25.939   3.569   5.043
58351W        W30666  13.755  12.147   3.308
58352W        W30667   5.686  20.235  13.879
58353W        W30668  42.822  22.524   0.646
58354W        W30669  10.816   4.326   0.372
58355W        W30670  21.666  19.843  10.765
58356W        W30671   1.273  44.054   4.670
58357W        W30672   8.640  28.082   1.492
58358W        W30673  15.736  36.304   3.681
58359W        W30674  23.486  26.559   0.739
58360W        W30675   4.501   0.155   1.734
58361W        W30676  43.844  18.145  14.491
58362W        W30677  17.141  33.821  13.399
58363W        W30678  12.217  35.564  14.728
58364W        W30679  13.351   2.781  14.546
58365W        W30680  27.517  25.287  13.891
58366W        W30681  40.668  26.728  10.668
58367W        W30682  37.984  20.726   3.819
58368W        W30683  36.851  12.066  12.922
58369W        W30684   6.981   7.131   1.346
58370W        W30685  15.806   4.747   0.414
58371W        W30686   0.041   2.630  12.411
58372W        W30687  26.672   6.404  13.256
58373W        W30688  35.115  20.224   1.391
58374W        W30689   9.893  39.604   5.010
58375W        W30690  12.233   9.260   0.346
58376W        W30691  18.280  23.254  11.976
58377W        W30692  37.301  26.583  13.254
58378W        W30693  33.020  15.140   2.369
58379W        W30694  40.887  26.170  13.902
58380W        W30695  25.140   4.894   0.465
58381W        W30696  17.726  27.804  10.443
58382W        W30697  39.331  25.402  11.998
58383W        W30698  36.378  33.946   1.447
58384W        W30699  23.001  22.104  14.371
58385W        W30700   2.052  40.126  13.827
58386W        W30701  23.210  26.567   2.620
58387W        W30702  19.853  18.661  14.686
58388W        W30703  23.710  22.075  13.425
58389W        W30704  43.569  20.222  12.953
58390W        W30705  22.687   1.477   3.162
58391W        W30706  20.066  12.922   1.637
58392W        W30707   8.737  27.659   1.767
58393W        W30708  15.050  36.061  12.197
58394W        W30709  23.031  19.622  12.766
58395W        W30710   5.036  43.595  14.819
58396W        W30711  24.267  19.261   9.755
58397W        W30712   3.898   7.613   1.666
58398W        W30713  16.651  33.552   4.483
58399W        W30714   2.658  10.719   3.389
58400W        W30715  30.212  40.779   4.328
58401W        W30716   5.448  41.874  13.044
58402W        W30717  32.005  42.476   2.147
58403W        W30718  24.568   5.847   1.483
58404W        W30719  28.670  12.141  14.692
58405W        W30720  38.567  28.170  11.059
58406W        W30721  20.641  20.136   1.465
58407W        W30722  39.800  30.536  11.819
58408W        W30723  24.912   6.357  13.766
58409W        W30724  42.379  40.410  13.113
58410W        W30725  34.428  43.063  13.460
58411W        W30726  18.919  38.736   3.321
58412W        W30727  34.853  18.585  12.522
58413W        W30728  28.108  24.085   0.774
58414W        W30729  44.916  40.031   0.540
58415W        W30730   0.965   5.870   1.704
58416W        W30731  14.253  43.067  14.848
58417W        W30732  34.636  34.362  14.573
58418W        W30733  44.451  25.211   3.066
58419W        W30734  12.345  30.037  13.751
58420W        W30735  14.264  44.118  11.257
58421W        W30736   7.862  19.771  13.894
58422W        W30737  16.056  10.346   1.540
58423W        W30738   3.436   7.178   0.203
58424W        W30739   4.968  29.440   2.047
58425W        W30740  39.492  18.628  11.065
58426W        W30741  28.880  37.310   3.315
58427W        W30742   5.420  24.114   0.885
58428W        W30743   8.099  10.705  11.281
58429W        W30744  27.482  15.120  12.490
58430W        W30745  36.840  34.967  13.982
58431W        W30746  39.821   3.295   4.062
58432W        W30747  30.444  44.981  11.977
58433W        W30748  39.877  16.809   4.269
58434W        W30749   3.225  33.890  14.439
58435W        W30750  38.932   0.767  14.101
58436W        W30751  14.716   7.176   3.084
58437W        W30752  18.334  12.759   0.540
58438W        W30753  37.345  35.073  13.876
58439W        W30754  23.801  27.362   3.931
58440W        W30755  17.191   6.387   2.230
58441W        W30756  13.677  40.496  10.551
58442W        W30757  14.676   4.057   3.674
58443W        W30758  37.964  15.717   0.012
58444W        W30759  20.790  32.381  14.198
58445W        W30760  25.949  35.542   0.776
58446W        W30761   2.043  28.927  11.196
58447W        W30762  37.367  18.109  14.870
58448W        W30763   0.870  25.465   4.626
58449W        W30764   7.663   5.435   2.148
58450W        W30765  39.172  13.798   2.691
58451W        W30766  31.209  41.008   0.165
58452W        W30767  33.848  42.304  11.581
58453W        W30768  40.011   3.034  14.390
58454W        W30769  27.360  21.254   0.334
58455W        W30770  29.484  34.451  11.581
58456W        W30771  41.133  21.365  11.561
58457W        W30772  20.943  28.659   0.789
58458W        W30773  17.554  12.424   5.336
58459W        W30774  42.123  44.461  10.304
58460W        W30775   2.756  26.618  13.128
58461W        W30776   0.231  21.122   2.872
58462W        W30777  10.526  36.869   2.373
58463W        W30778  30.467  18.384  11.182
58464W        W30779  37.586  24.106   1.607
58465W        W30780  10.633  12.276   0.673
58466W        W30781   4.829  26.644   3.088
58467W        W30782  25.618  27.964   3.327
58468W        W30783  10.885   8.910   1.430
58469W        W30784  16.102  38.114  11.497
58470W        W30785  38.432  32.151   0.829
58471W        W30786  33.857  17.321   3.129
58472W        W30787  10.295  21.550   0.946
58473W        W30788  32.108   2.016  11.669
58474W        W30789  42.327  13.307  11.539
58475W        W30790  20.009  37.267   5.161
58476W        W30791  38.885   7.953   3.872
58477W        W30792  42.559  29.373   4.171
58478W        W30793  28.491  23.053   0.811
58479W        W30794  33.623  41.465  14.425
58480W        W30795  41.188  16.126   4.048
58481W        W30796  39.265  16.508   1.027
58482W        W30797  12.561   7.123  14.992
58483W        W30798   1.920  38.053   4.581
58484W        W30799  17.541  23.121   4.577
58485W        W30800   9.343  41.547  13.068
58486W        W30801  32.669   1.957   1.742
58487W        W30802  28.753  24.441   1.197
58488W        W30803  15.330   4.475   4.313
58489W        W30804  33.923  40.515  12.334
58490W        W30805  33.225  32.959   2.282
58491W        W30806  42.666  38.313  12.908
58492W        W30807  11.413  36.991   3.122
58493W        W30808  23.605  40.877  10.763
58494W        W30809  37.455  24.521   4.418
58495W        W30810  35.594   0.019  11.222
58496W        W30811  26.627  41.063   0.474
58497W        W30812  29.945  31.990  12.799
58498W        W30813  41.562  26.534  12.997
58499W        W30814  39.375  12.151   3.752
58500W        W30815  19.101  42.361   2.776
58501W        W30816   4.734  32.599   3.233
58502W        W30817  20.947  10.357  12.574
58503W        W30818  22.628  23.711   1.336
58504W        W30819  23.140  25.674   3.604
58505W        W30820  40.053  27.461  13.077
58506W        W30821  31.156  27.327   0.122
58507W        W30822   2.959  28.236   2.644
58508W        W30823  18.714  17.997  12.431
58509W        W30824   9.260  17.169   1.715
58510W        W30825   8.844  21.281  12.955
58511W        W30826  41.975  14.526  13.822
58512W        W30827   5.762   6.411  12.555
58513W        W30828  34.861  23.741  14.825
58514W        W30829  17.760  12.619  13.898
58515W        W30830   0.398   4.542  10.941
58516W        W30831  13.744  29.093  14.249
58517W        W30832  14.300   5.841  11.828
58518W        W30833  22.577  20.155   4.719
58519W        W30834  36.939  41.020   1.409
58520W        W30835  32.484  38.058   0.423
58521W        W30836  16.059  43.373   1.652
58522W        W30837   7.282  33.621  13.556
58523W        W30838  19.321  17.219   4.233
58524W        W30839  23.215  27.515   1.656
58525W        W30840   3.259  16.726   0.562
58526W        W30841  21.595  21.328   5.383
58527W        W30842  22.016   8.295  11.064
58528W        W30843   8.176  13.375  11.436
58529W        W30844  33.729  37.469  10.256
58530W        W30845  28.071  38.268  10.690
58531W        W30846  39.588  13.395  11.956
58532W        W30847  25.943  23.590   4.022
58533W        W30848   5.929  29.298  11.469
58534W        W30849  20.179  17.555  13.321
58535W        W30850   8.504  37.975   5.051
58536W        W30851  23.174  23.619   1.402
58537W        W30852  12.233  27.124   1.074
58538W        W30853   9.276   0.692  14.036
58539W        W30854   1.214  27.000   2.648
58540W        W30855   2.440  13.350  14.827
58541W        W30856  12.592  35.745  10.411
58542W        W30857   1.517   9.868  11.167
58543W        W30858  39.715  40.423  12.422
58544W        W30859   2.638   3.527  11.166
58545W        W30860  34.058  18.258  14.634
58546W        W30861  34.078  19.578   2.827
58547W        W30862  40.728   4.778   1.865
58548W        W30863  41.425  26.293   0.499
58549W        W30864  13.202   0.020   3.759
58550W        W30865   2.031  43.501   3.155
58551W        W30866  34.579  39.990  12.848
58552W        W30867  43.930  42.866   1.699
58553W        W30868  44.470  35.148  12.954
58554W        W30869  27.136  32.144  11.014
58555W        W30870   4.945  14.675   0.222
58556W        W30871  14.280   4.809  13.577
58557W        W30872   7.301  17.484  14.946
58558W        W30873  31.429  32.581   3.079
58559W        W30874  28.990  37.954  14.037
58560W        W30875  25.402   3.815   0.249
58561W        W30876  19.574   1.394   3.387
58562W        W30877  19.880  17.202   4.638
58563W        W30878   9.343  42.314   4.100
58564W        W30879   9.111  24.660   0.759
58565W        W30880  39.167  15.943   0.260
58566W        W30881  12.212  15.298  12.151
58567W        W30882  23.278   7.880  12.579
58568W        W30883  28.990  11.200   1.177
58569W        W30884   4.362  18.800   2.354
58570W        W30885   9.640  30.394  12.040
58571W        W30886  39.515  35.638   3.726
58572W        W30887   8.320  33.491  14.586
58573W        W30888   8.135  23.433  12.797
58574W        W30889  31.897   1.265   1.856
58575W        W30890  13.588  29.840  11.033
58576W        W30891  32.998  35.674   4.938
58577W        W30892  25.887  12.347   0.447
58578W        W30893  26.636  20.556   0.385
58579W        W30894  44.512  12.363   9.796
58580W        W30895  42.719   1.747  11.913
58581W        W30896  44.559   8.630   2.752
58582W        W30897   1.409  10.709   5.050
58583W        W30898  16.840  31.337   3.835
58584W        W30899  17.713   6.306   4.529
58585W        W30900  11.373  31.790  11.291
58586W        W30901  21.749  19.965  11.371
58587W        W30902  12.898  29.557   1.129
58588W        W30903  13.186  10.967  13.331
58589W        W30904  26.556   0.253   0.414
58590W        W30905  11.525  17.368  14.901
58591W        W30906  13.840  39.540   3.846
58592W        W30907  25.495  22.411   1.929
58593W        W30908  24.628  23.935   0.366
58594W        W30909  13.948  37.049  11.168
58595W        W30910   9.231  42.369  11.238
58596W        W30911  35.631   2.740  12.520
58597W        W30912  28.742  14.147  11.527
58598W        W30913  22.687  28.147   3.538
58599W        W30914   2.080   9.331   1.518
58600W        W30915  24.710   1.581   3.367
58601W        W30916   4.883  36.275   5.062
58602W        W30917  36.552  27.547  13.271
58603W        W30918  27.205   4.290  11.804
58604W        W30919  30.095  37.397   2.258
58605W        W30920  38.916   3.439  12.706
58606W        W30921  39.548  33.116  14.793
58607W        W30922  12.467  15.220  12.982
58608W        W30923   9.251   8.074   0.412
58609W        W30924  14.355  29.594  14.328
58610W        W30925  20.308  22.756  13.856
58611W        W30926   9.731  13.598  13.303
58612W        W30927  38.302  18.084   0.711
58613W        W30928  15.297  15.352   2.325
58614W        W30929  34.519  24.726   4.540
58615W        W30930  41.678  29.461   1.951
58616W        W30931  10.750  14.907   3.365
58617W        W30932  44.799  24.762   2.982
58618W        W30933  17.650  33.761  11.972
58619W        W30934   5.039  27.878  12.346
58620W        W30935   8.501   6.839  13.041
58621W        W30936   1.472  39.471  12.273
58622W        W30937   4.772  22.267   1.863
58623W        W30938  32.525  24.510  13.559
58624W        W30939   8.869   5.237   4.088
58625W        W30940  39.085  16.808  11.095
58626W        W30941  34.501  14.266   0.797
58627W        W30942  16.298  15.148   4.732
58628W        W30943   7.716  38.057   0.444
58629W        W30944  27.071  35.993  12.086
58630W        W30945   0.408  18.607   4.678
58631W        W30946  35.670  10.734   3.289
58632W        W30947  12.436  22.481  13.515
58633W        W30948  31.337  27.825   1.329
58634W        W30949  20.507  33.409   3.525
58635W        W30950   7.654  41.431  14.392
58636W        W30951  30.084   3.709   2.182
58637W        W30952  13.763  36.322  12.364
58638W        W30953  24.261  22.512  11.906
58639W        W30954  20.064  24.698  13.912
58640W        W30955  25.050  29.688   3.661
58641W        W30956  39.727  35.576   0.855
58642W        W30957  24.206  40.286   1.263
58643W        W30958   7.791   4.473  13.488
58644W        W30959  35.584   0.619   3.284
58645W        W30960  26.513  27.950   1.731
58646W        W30961  35.826  38.856  14.388
58647W        W30962   5.997  26.347  12.558
58648W        W30963   8.727  32.670  12.048
58649W        W30964  34.500  38.051   0.652
58650W        W30965   9.741   8.410   3.359
58651W        W30966  43.990  38.356  13.599
58652W        W30967  31.032  41.122  10.324
58653W        W30968  41.996   4.266  12.053
58654W        W30969  38.343   1.745  12.875
58655W        W30970  32.913   2.531   0.558
58656W        W30971   9.364  24.537   3.110
58657W        W30972   1.556   6.728   3.886
58658W        W30973  11.836  33.059   0.842
58659W        W30974  31.025  34.121   1.456
58660W        W30975   5.694  20.030   0.828
58661W        W30976  18.048  13.576  11.082
58662W        W30977  21.541  33.397  14.568
58663W        W30978  15.838  34.060   0.966
58664W        W30979  41.986  32.057  14.862
58665W        W30980  44.235  25.155   4.447
58666W        W30981  30.109  40.248   4.180
58667W        W30982  13.788  30.898   4.394
58668W        W30983  12.151  25.171   4.110
58669W        W30984  23.958  13.854   3.584
58670W        W30985  39.565  41.759   3.163
58671W        W30986   0.361  11.327   0.729
58672W        W30987  12.593  40.144  11.485
58673W        W30988  14.873  19.559   4.326
58674W        W30989  35.948   5.200  12.390
58675W        W30990  32.948   7.154   4.555
58676W        W30991  19.749  31.966   0.055
58677W        W30992  42.920   5.849   0.729
58678W        W30993  28.232  26.211  12.904
58679W        W30994  19.502  37.514  12.434
58680W        W30995  18.768  21.095  12.107
58681W        W30996  33.010  37.056  12.025
58682W        W30997  23.639   8.757  10.318
58683W        W30998  23.563  34.369   0.857
58684W        W30999  20.764  18.753   2.259
58685W        W31000  17.303   4.258  10.673
58686W        W31001  13.830  44.480  10.717
58687W        W31002  17.156  42.971   0.385
58688W        W31003  13.512  11.824   1.022
58689W        W31004  29.587  40.888  13.357
58690W        W31005  31.069   5.219  13.960
58691W        W31006  39.822  37.533  13.243
58692W        W31007  18.172  26.900  11.420
58693W        W31008   8.478  40.941   3.315
58694W        W31009  38.320  24.470   3.225
58695W        W31010  38.912   2.815  13.598
58696W        W31011  21.105  10.596   0.889
58697W        W31012  13.335   4.981   2.281
58698W        W31013  16.717  44.979   3.353
58699W        W31014  17.223  15.701   1.747
58700W        W31015   4.855  32.107  14.336
58701W        W31016  33.875   4.328  11.056
58702W        W31017  32.185  12.050   2.255
58703W        W31018  15.841  42.961   0.819
58704W        W31019   4.938  16.744   0.426
58705W        W31020  10.680   6.804   1.132
58706W        W31021  17.958  37.036   1.317
58707W        W31022  11.233  35.098  13.579
58708W        W31023  41.058   4.853   0.053
58709W        W31024  13.641  16.230   1.167
58710W        W31025  42.077  43.021  10.135
58711W        W31026   5.941  36.667   0.867
58712W        W31027  30.546  33.142  11.971
58713W        W31028  12.368  39.039  14.049
58714W        W31029  33.372   6.316  11.591
58715W        W31030  42.020  10.353   2.951
58716W        W31031  36.167   4.371   0.637
58717W        W31032  43.062  11.639   0.868
58718W        W31033  26.567  42.789   4.953
58719W        W31034   7.837  27.791   1.226
58720W        W31035  22.529  31.026   4.689
58721W        W31036  27.885  29.377   1.906
58722W        W31037  10.674  31.877   2.717
58723W        W31038   3.343   7.229  10.792
58724W        W31039  17.389  13.812   4.145
58725W        W31040   2.933  22.451   2.598
58726W        W31041   4.901  17.722   0.926
58727W        W31042  10.164  29.409   4.195
58728W        W31043  29.613  42.380  13.021
58729W        W31044  34.286  17.530   3.602
58730W        W31045  19.719  35.078  12.475
58731W        W31046   1.684  43.398  13.079
58732W        W31047   4.372   9.915  10.893
58733W        W31048   0.231  33.108   5.064
58734W        W31049  18.595  15.625  12.618
58735W        W31050  40.008   4.512   2.517
58736W        W31051  18.657  14.868   3.681
58737W        W31052  12.540  34.161   3.244
58738W        W31053  17.160   9.789   1.663
58739W        W31054  30.766  33.580   0.051
58740W        W31055  38.110   7.182   0.251
58741W        W31056  12.562  38.433  11.200
58742W        W31057  28.551   2.915   4.806
58743W        W31058  43.237  27.489  13.512
58744W        W31059  42.481  31.960   0.041
58745W        W31060  37.336  11.370  11.115
58746W        W31061   4.865  21.445   4.497
58747W        W31062   4.373  21.185   3.098
58748W        W31063  32.547  42.399   4.389
58749W        W31064   1.919   2.703  13.397
58750W        W31065  40.906  41.501   2.897
58751W        W31066   1.380   7.251   3.887
58752W        W31067  42.838  29.875   1.202
58753W        W31068  14.862  35.224  11.155
58754W        W31069  29.162  37.888   0.513
58755W        W31070  23.254   7.019  12.874
58756W        W31071  32.349  23.099  11.182
58757W        W31072  14.186  39.601   1.373
58758W        W31073  18.121  34.937  14.829
58759W        W31074  13.313  28.977  13.958
58760W        W31075  11.258  13.863   1.861
58761W        W31076  28.970  34.206  10.969
58762W        W31077   3.880   6.326  13.438
58763W        W31078  42.567   2.482   1.820
58764W        W31079  44.830  21.766   3.055
58765W        W31080  14.547  20.443   2.899
58766W        W31081  15.018  16.787   3.337
58767W        W31082  36.801  35.775   1.287
58768W        W31083  25.578  37.923  11.368
58769W        W31084  15.410  41.284   0.039
58770W        W31085  37.512  37.023   0.705
58771W        W31086  21.238  22.248  10.090
58772W        W31087  23.129  36.442  14.365
58773W        W31088  12.029  26.448   3.181
58774W        W31089  40.851  40.505  12.570
58775W        W31090  28.214  10.346   2.319
58776W        W31091   0.848  22.825  14.824
58777W        W31092   4.451   6.800   1.858
58778W        W31093  23.713  34.862  10.724
58779W        W31094  17.759   4.420   0.200
58780W        W31095  18.744  29.733  10.663
58781W        W31096  32.297  28.547  13.843
58782W        W31097  14.641  30.441  10.720
58783W        W31098  25.223  42.866   0.827
58784W        W31099  39.553  16.052  10.887
58785W        W31100   2.531   6.757  12.788
58786W        W31101  22.588   1.460  13.523
58787W        W31102   0.544   8.411  11.460
58788W        W31103  31.926  18.612   3.317
58789W        W31104  19.571   8.183   0.402
58790W        W31105   6.918  44.247   3.387
58791W        W31106  38.515  37.828  13.785
58792W        W31107  38.802  13.169  14.950
58793W        W31108  44.227   8.861  10.578
58794W        W31109  38.663   2.578   2.360
58795W        W31110  19.396  36.279  12.907
58796W        W31111  41.248  10.118  13.822
58797W        W31112   9.289  17.249  11.738
58798W        W31113  22.216  16.771   2.304
58799W        W31114  44.837  37.938  12.138
58800W        W31115  31.692  18.356   0.384
58801W        W31116   7.447  26.319  12.046
58802W        W31117  26.246  35.008  12.881
58803W        W31118   0.786   7.914   2.312
58804W        W31119  35.742  12.733  11.575
58805W        W31120  43.389  11.182   4.617
58806W        W31121  25.660  10.842  11.129
58807W        W31122  28.750  16.122  11.853
58808W        W31123  28.180   7.740  13.855
58809W        W31124  42.499   2.834  12.907
58810W        W31125  44.933   7.056  13.505
58811W        W31126  34.172  35.532  13.036
58812W        W31127  33.491  39.558   0.746
58813W        W31128  28.371  20.801  11.921
58814W        W31129  19.682  33.335   3.679
58815W        W31130  21.034  15.237  11.190
58816W        W31131  22.075  36.030   3.748
58817W        W31132  10.926  20.038  12.306
58818W        W31133  14.253  16.207   3.293
58819W        W31134  37.501  42.370  11.078
58820W        W31135   3.184  12.412  13.377
58821W        W31136   5.999  18.186   0.261
58822W        W31137  24.208  38.979   1.870
58823W        W31138  39.984   5.654   4.079
58824W        W31139  24.703  29.982   1.014
58825W        W31140  17.262  34.290   2.724
58826W        W31141  20.250  32.290   1.072
58827W        W31142  18.986   7.198  11.374
58828W        W31143  32.908  19.719  12.503
58829W        W31144  39.502   9.569   2.231
58830W        W31145  34.359   1.226   3.214
58831W        W31146  10.658  37.150  11.094
58832W        W31147  41.573  17.579   2.865
58833W        W31148   5.355  13.590   1.761
58834W        W31149   7.446  11.642  11.420
58835W        W31150  22.494   1.346   1.702
58836W        W31151  44.603  25.969  12.569
58837W        W31152  41.200  34.390  11.015
58838W        W31153  40.336  20.733  13.006
58839W        W31154  12.617  11.628   3.057
58840W        W31155  13.707   0.671  12.618
58841W        W31156  10.657   5.121  12.481
58842W        W31157   8.844  27.162   5.451
58843W        W31158  10.196  25.304   0.850
58844W        W31159  36.317   5.826   2.176
58845W        W31160  33.715  18.832  12.018
58846W        W31161  43.961  42.979   4.642
58847W        W31162  23.967  12.993   4.504
58848W        W31163  27.385  11.385   2.276
58849W        W31164  38.295  25.029  10.672
58850W        W31165  38.522  21.135  12.503
58851W        W31166  11.730  19.716   3.515
58852W        W31167  15.387   9.614   3.095
58853W        W31168  31.908  27.516  13.932
58854W        W31169  23.252  22.630  10.625
58855W        W31170  38.424   1.014   3.351
58856W        W31171  28.731  44.953  13.547
58857W        W31172  22.472  17.463  11.951
58858W        W31173   9.372  42.072   1.222
58859W        W31174   2.708  31.072   1.470
58860W        W31175  24.799  42.880   3.138
58861W        W31176   1.369  37.007  10.634
58862W        W31177  17.037  24.065   9.941
58863W        W31178  33.578  23.519   1.095
58864W        W31179  39.900  11.271   1.811
58865W        W31180  35.356  24.963  12.798
58866W        W31181   1.955   2.473   3.250
58867W        W31182  13.916  44.900   4.191
58868W        W31183   9.084  24.541   4.779
58869W        W31184   6.952  40.888  11.075
58870W        W31185  35.340  22.706   4.934
58871W        W31186  36.044  22.008   0.307
58872W        W31187  43.833  23.943   1.675
58873W        W31188  13.870  43.946   0.418
58874W        W31189  13.409  27.207   2.168
58875W        W31190  27.222  19.593  14.264
58876W        W31191  11.812  20.915  13.126
58877W        W31192   0.099  23.809  11.130
58878W        W31193   4.169   8.261   4.088
58879W        W31194  12.175  34.434   1.034
58880W        W31195  10.950   3.372   2.353
58881W        W31196  37.484   9.446  13.509
58882W        W31197  15.409  42.102   0.236
58883W        W31198  33.051  21.768  11.074
58884W        W31199   5.678  38.093  13.441
58885W        W31200  36.042  27.436  12.941
58886W        W31201  12.646  18.435  11.174
58887W        W31202   7.637  42.519   2.589
58888W        W31203   3.433  21.439  13.324
58889W        W31204  25.504  22.542  10.592
58890W        W31205  23.502  11.410   4.153
58891W        W31206  26.940   3.486   3.312
58892W        W31207  14.358   9.141   0.821
58893W        W31208  12.385  17.879   2.053
58894W        W31209  17.608  18.310  13.394
58895W        W31210  27.936  10.520   1.064
58896W        W31211  11.157  36.920   0.216
58897W        W31212   8.871  31.541   0.156
58898W        W31213  42.764  10.849  14.454
58899W        W31214  22.465  12.000  10.356
58900W        W31215  44.965  26.469   0.356
58901W        W31216  28.665   1.559   0.870
58902W        W31217  35.835  20.638   0.255
58903W        W31218   8.964  10.230   2.171
58904W        W31219  17.038  28.959  10.851
58905W        W31220  22.932   3.237  11.096
58906W        W31221   3.293  14.135   5.184
58907W        W31222  26.480   4.952  11.591
58908W        W31223   0.004  22.443  14.928
58909W        W31224  23.488  14.073  13.503
58910W        W31225  34.965  21.629  11.447
58911W        W31226  27.213   5.933  11.814
58912W        W31227  22.472   5.933   0.444
58913W        W31228  34.612  34.539  11.232
58914W        W31229  14.593  27.456  14.520
58915W        W31230  32.074  15.490  10.099
58916W        W31231  37.027  12.548  12.938
58917W        W31232  40.799  30.079  12.843
58918W        W31233  39.488  41.184  14.997
58919W        W31234  23.218  12.949   2.323
58920W        W31235  11.918   8.637   3.660
58921W        W31236  33.916  16.268   3.173
58922W        W31237  42.995   5.861  10.785
58923W        W31238  35.053   3.706   0.349
58924W        W31239  42.452  24.673  10.594
58925W        W31240  30.038  28.226  13.425
58926W        W31241   9.131   2.931  11.418
58927W        W31242  14.736  12.749   1.625
58928W        W31243   7.256  20.902  10.265
58929W        W31244  40.566  35.102   1.755
58930W        W31245  17.495  21.766   1.043
58931W        W31246  10.814  11.923   2.244
58932W        W31247  11.221  39.222   3.366
58933W        W31248  32.444  30.623   1.295
58934W        W31249  37.906   5.272   1.000
58935W        W31250  34.063  19.690  11.590
58936W        W31251  35.652  12.964  14.331
58937W        W31252  20.812  44.315  14.147
58938W        W31253  32.670  35.968   0.859
58939W        W31254   4.748  33.492   3.152
58940W        W31255  11.156  31.657   2.422
58941W        W31256  33.352   6.622  12.009
58942W        W31257  33.134  39.911   2.111
58943W        W31258  20.105  28.709   2.385
58944W        W31259  44.753  38.405  13.056
58945W        W31260  27.011   0.704  11.941
58946W        W31261   4.373  18.717  11.628
58947W        W31262  19.981  14.759   1.490
58948W        W31263   7.198   0.646  11.143
58949W        W31264  36.035   5.875   0.490
58950W        W31265  44.857  18.075  10.484
58951W        W31266  12.230  29.065   1.927
58952W        W31267  13.226   4.250   3.880
58953W        W31268   3.547  13.786   1.765
58954W        W31269   4.968  40.426   0.700
58955W        W31270  38.929  36.806   3.051
58956W        W31271  40.062  29.705  14.780
58957W        W31272  25.403  21.769   1.372
58958W        W31273  41.487  42.784   0.834
58959W        W31274   8.083  42.927  11.624
58960W        W31275   2.346  15.097   4.000
58961W        W31276  42.291   7.090  10.917
58962W        W31277   3.990  17.268   1.728
58963W        W31278   0.507   7.425  12.491
58964W        W31279  39.080  40.381  11.388
58965W        W31280  39.380  36.057  12.377
58966W        W31281  10.684  36.887  13.361
58967W        W31282   0.504  35.025  12.585
58968W        W31283  42.091  27.720   1.635
58969W        W31284  18.808  36.607  11.866
58970W        W31285  10.114  38.849   5.091
58971W        W31286  28.080  36.498   4.600
58972W        W31287  17.065  32.166   2.170
58973W        W31288   6.852  31.074  11.217
58974W        W31289  28.162  43.403   1.341
58975W        W31290  12.232   3.442  11.964
58976W        W31291   7.969  22.184  12.977
58977W        W31292  27.999  18.195   0.218
58978W        W31293  17.635  15.817  11.992
58979W        W31294  41.773  39.095  14.864
58980W        W31295  36.527  32.148  13.897
58981W        W31296  35.563  38.815  13.845
58982W        W31297   8.089  16.994   1.662
58983W        W31298  18.035  34.956  10.537
58984W        W31299  40.362  44.954  13.414
58985W        W31300  35.578  44.504  14.375
58986W        W31301  24.986   1.487  14.802
58987W        W31302  29.370  17.295  14.019
58988W        W31303  41.338   7.441   0.448
58989W        W31304  11.675  23.760  14.495
58990W        W31305  25.221  44.958   1.819
58991W        W31306   0.380  41.550  11.939
58992W        W31307  38.243  15.627   0.451
58993W        W31308  34.839   2.759  11.236
58994W        W31309  33.139   0.735  12.353
58995W        W31310  43.431  42.258  11.034
58996W        W31311  21.335  33.123   4.157
58997W        W31312  39.789  27.518   1.681
58998W        W31313  19.534   8.437  10.293
58999W        W31314  37.133  27.509   0.052
59000W        W31315  42.501   5.686   4.612
59001W        W31316   9.082  24.103   2.844
59002W        W31317  43.762  11.597   1.856
59003W        W31318  39.598   5.675   0.553
59004W        W31319   6.681  19.141  13.459
59005W        W31320  41.684  38.561  11.506
59006W        W31321  27.267  38.846  14.405
59007W        W31322   1.129  39.552  11.021
59008W        W31323  43.510  43.200   4.546
59009W        W31324  37.034  17.124   2.395
59010W        W31325  21.210  22.698   0.923
59011W        W31326  16.834  19.537   2.834
59012W        W31327  20.053  20.631   4.710
59013W        W31328   0.207   6.158   0.144
59014W        W31329  25.071  36.467  11.989
59015W        W31330  16.965  41.401   1.007
59016W        W31331  20.511  33.584   1.553
59017W        W31332  32.319  24.198   2.955
59018W        W31333  32.780  36.895  12.448
59019W        W31334   5.422  24.570  14.319
59020W        W31335  19.069  32.675  12.740
59021W        W31336   7.288  21.043  12.070
59022W        W31337  12.954  38.117  13.902
59023W        W31338  24.242  35.054   1.756
59024W        W31339  11.230   9.631  12.145
59025W        W31340   4.393   4.240  10.799
59026W        W31341  14.230  44.220  13.251
59027W        W31342  12.954  19.543  13.896
59028W        W31343  41.704   5.171   0.759
59029W        W31344   7.890  27.651  10.846
59030W        W31345  22.563  23.233   3.747
59031W        W31346  43.796  33.103  13.914
59032W        W31347   2.557  11.301  13.894
59033W        W31348   1.510   4.454   2.422
59034W        W31349  29.653  21.501  11.158
59035W        W31350   8.887  24.008  11.116
59036W        W31351  34.850  14.543  10.761
59037W        W31352   2.749  23.619  10.687
59038W        W31353   8.743  23.043  12.564
59039W        W31354   8.063  10.339  14.907
59040W        W31355  33.008  21.496  12.559
59041W        W31356  26.731  11.650  12.647
59042W        W31357  11.621   0.580   1.753
59043W        W31358   6.144   6.715  12.103
59044W        W31359   5.681  13.837  13.282
59045W        W31360  39.355  15.608  11.117
59046W        W31361  22.580  30.931  10.700
59047W        W31362  33.875  26.053  11.437
59048W        W31363   3.773  34.648   1.767
59049W        W31364  10.863  12.978   3.244
59050W        W31365  31.673  42.535  12.101
59051W        W31366  26.671  34.759   3.276
59052W        W31367  15.015   7.651   4.428
59053W        W31368  27.030   0.022   0.336
59054W        W31369  39.942  15.112  10.682
59055W        W31370  10.357  20.569  11.884
59056W        W31371   7.846  40.504   1.887
59057W        W31372  11.225  21.985  10.215
59058W        W31373  14.520  28.530   3.157
59059W        W31374  40.003  31.686  13.278
59060W        W31375  32.050  10.655  11.439
59061W        W31376   4.210  19.741   3.820
59062W        W31377  29.987   4.506  11.883
59063W        W31378  21.620  25.288  12.201
59064W        W31379  20.252  15.383  12.473
59065W        W31380  22.759  21.021  11.071
59066W        W31381  21.970  22.276  11.063
59067W        W31382   8.273   2.532   4.223
59068W        W31383  25.545  18.569  14.018
59069W        W31384   5.267  33.438  12.929
59070W        W31385  41.103  32.018   0.872
59071W        W31386  17.650  14.843  11.126
59072W        W31387  16.623  34.017   0.491
59073W        W31388  36.913  35.314  11.148
59074W        W31389   2.982  28.040   1.240
59075W        W31390  18.248   3.929   3.788
59076W        W31391  36.943   8.633   4.430
59077W        W31392  12.462  13.796  11.511
59078W        W31393   0.885  24.455   4.641
59079W        W31394  10.345  34.979  13.591
59080W        W31395  33.440   1.329   2.789
59081W        W31396  36.833   2.502   1.798
59082W        W31397  14.544  23.207   1.753
59083W        W31398  20.540  17.165  13.001
59084W        W31399   7.672  11.352  14.730
59085W        W31400  28.468  42.782  12.449
59086W        W31401  24.923  18.545  12.097
59087W        W31402   8.786  15.331  14.908
59088W        W31403   3.961  26.883   4.592
59089W        W31404   1.942   3.985   4.152
59090W        W31405  35.863  26.100  13.357
59091W        W31406  35.057  42.423  13.939
59092W        W31407  21.206  16.314  13.558
59093W        W31408  13.917  33.055   1.274
59094W        W31409  30.332  41.476  11.395
59095W        W31410  22.747   7.721  13.410
59096W        W31411  19.560  31.936  13.564
59097W        W31412  33.713  20.766   0.405
59098W        W31413  39.750   4.352  10.620
59099W        W31414  28.589  23.390  13.456
59100W        W31415  32.177  33.761  13.472
59101W        W31416  32.257  40.259   3.841
59102W        W31417  27.442  15.116   3.646
59103W        W31418  43.018  22.113   4.366
59104W        W31419  36.048  38.828  10.998
59105W        W31420  42.099  16.104   3.218
59106W        W31421  11.735  12.178  14.902
59107W        W31422  11.531  31.933  11.987
59108W        W31423   0.415  21.487  12.054
59109W        W31424  17.750  13.325  12.025
59110W        W31425   0.263  25.145  14.538
59111W        W31426  33.206  19.730  12.039
59112W        W31427   8.284  15.560  12.912
59113W        W31428  18.524  13.015   4.132
59114W        W31429  17.353   9.358  14.459
59115W        W31430  39.388  21.093   3.242
59116W        W31431  13.573  13.499   0.295
59117W        W31432  13.110  17.770   4.117
59118W        W31433  21.369  16.065  13.984
59119W        W31434  21.776  12.608   1.155
59120W        W31435  21.477  22.194  10.925
59121W        W31436  36.582  15.419   1.858
59122W        W31437  40.920  20.336   1.236
59123W        W31438  31.580  12.096   3.603
59124W        W31439  44.374  29.010  10.105
59125W        W31440   9.823  41.392   1.258
59126W        W31441   4.855   8.270  10.658
59127W        W31442   0.682  38.136  10.763
59128W        W31443  33.476   5.701   3.806
59129W        W31444  21.043   1.935   4.738
59130W        W31445  11.836   6.648   2.079
59131W        W31446  22.369  44.056  10.853
59132W        W31447  22.687  30.117   5.090
59133W        W31448  12.834  25.526   2.846
59134W        W31449  24.612  12.026  12.481
59135W        W31450  27.938  23.117   5.038
59136W        W31451  43.506  17.205   3.765
59137W        W31452  13.290  16.715  13.224
59138W        W31453  30.879   7.144   3.132
59139W        W31454  23.713  14.120  13.027
59140W        W31455  27.256  35.144  10.352
59141W        W31456  25.734  35.903  10.780
59142W        W31457  31.190   0.785  12.206
59143W        W31458  39.531  38.599  13.340
59144W        W31459   2.923   1.072  14.790
59145W        W31460  14.364   9.297  14.487
59146W        W31461  20.592  32.084  11.610
59147W        W31462   1.032  38.975   1.698
59148W        W31463   5.726  25.898  13.985
59149W        W31464  38.509   5.176  13.012
59150W        W31465  24.553  26.565   0.338
59151W        W31466  31.443  13.065  12.430
59152W        W31467  43.001  40.832  13.052
59153W        W31468   4.414  15.729   2.258
59154W        W31469  14.609  18.529   3.803
59155W        W31470  19.065  18.362   2.606
59156W        W31471  32.952  14.936  12.585
59157W        W31472  43.758  28.210   3.363
59158W        W31473  21.621  13.064  11.146
59159W        W31474   8.680  16.979   2.843
59160W        W31475   1.205  16.978  12.476
59161W        W31476  37.869   0.474   4.073
59162W        W31477  30.374  43.346  13.287
59163W        W31478  15.242   2.457   0.681
59164W        W31479  20.561  34.656  14.688
59165W        W31480  12.667   3.245  12.184
59166W        W31481  22.213  22.589  13.458
59167W        W31482  31.206   6.943  11.888
59168W        W31483  14.473  19.588  13.989
59169W        W31484  35.318  18.653  12.329
59170W        W31485  16.990  39.487   1.803
59171W        W31486   8.724   7.408  10.745
59172W        W31487  42.801  43.447  14.756
59173W        W31488  33.591  43.503   0.923
59174W        W31489  23.458  24.521  12.939
59175W        W31490   4.701  41.554   3.683
59176W        W31491  42.242  33.128   4.294
59177W        W31492  24.394  41.041   3.178
59178W        W31493  12.042  37.286   2.273
59179W        W31494  13.209  33.320   2.354
59180W        W31495  32.532  17.684  13.820
59181W        W31496   9.425   1.902  14.960
59182W        W31497  11.800  25.476  13.164
59183W        W31498  10.481   8.090   5.131
59184W        W31499  31.584   7.199  11.206
59185W        W31500  24.919  37.446   4.549
59186W        W31501   4.872  15.697  12.103
59187W        W31502  34.938   4.449  11.929
59188W        W31503  20.582  28.981  10.993
59189W        W31504  29.206  36.816  12.590
59190W        W31505  10.112  41.359  10.561
59191W        W31506  41.337  44.738   0.413
59192W        W31507  13.557  40.520  13.992
59193W        W31508  18.803  43.206  10.674
59194W        W31509  40.975   4.418  13.542
59195W        W31510  29.077  16.603   0.325
59196W        W31511  25.140   3.269   2.876
59197W        W31512  15.076  29.595   3.164
59198W        W31513  44.523  22.495   1.008
59199W        W31514  23.656  18.015  11.789
59200W        W31515   2.500  17.844   2.183
59201W        W31516  40.013   5.873   0.809
59202W        W31517  17.937  39.673  12.488
59203W        W31518  18.398   4.108   1.732
59204W        W31519  33.127  44.859  11.321
59205W        W31520   1.919  32.675   2.832
59206W        W31521  15.436  26.064  12.900
59207W        W31522  14.632  15.741  13.982
59208W        W31523  32.686  21.744   3.448
59209W        W31524  38.057  23.693  13.536
59210W        W31525  20.454  39.070  12.032
59211W        W31526  34.020  16.228  14.958
59212W        W31527  17.030  10.700   2.693
59213W        W31528  17.153  18.618  10.619
59214W        W31529  40.056  33.882   0.956
59215W        W31530  40.996  44.610  14.650
59216W        W31531  42.229  26.035  10.996
59217W        W31532  28.096  41.392   2.705
59218W        W31533  13.283  24.437  12.955
59219W        W31534  33.795   9.399   0.316
59220W        W31535  31.101  31.559  11.253
59221W        W31536  38.447  33.042  12.981
59222W        W31537  20.262   0.286   3.538
59223W        W31538  13.128  32.195  14.114
59224W        W31539   4.901  33.487   0.028
59225W        W31540   2.022  12.185  14.914
59226W        W31541  28.691  31.430  11.152
59227W        W31542  39.477   8.168  10.863
59228W        W31543  25.180  24.573   4.672
59229W        W31544   7.555  26.579  10.227
59230W        W31545   6.403  12.885  14.858
59231W        W31546   5.970  34.320  11.207
59232W        W31547  16.635  10.167   0.776
59233W        W31548  31.276  16.580   3.701
59234W        W31549  37.772   8.702  10.630
59235W        W31550  16.339  38.515  12.446
59236W        W31551   7.491  22.254   0.211
59237W        W31552  37.407  36.105  14.527
59238W        W31553  27.433  43.383  10.978
59239W        W31554  29.609  30.347   4.270
59240W        W31555  19.467   4.822   1.510
59241W        W31556  27.477  34.442  13.472
59242W        W31557   7.601  34.518  14.290
59243W        W31558  16.525  20.539  11.468
59244W        W31559  41.975   0.503   3.669
59245W        W31560  10.301   6.366  13.874
59246W        W31561   9.093  41.727   0.219
59247W        W31562   9.430  43.519  14.982
59248W        W31563  37.601  20.230   4.363
59249W        W31564   2.337   7.783  12.212
59250W        W31565   2.953   3.438  14.956
59251W        W31566  10.179  33.350  11.257
59252W        W31567   9.829   8.670   1.936
59253W        W31568   0.724  22.431   5.076
59254W        W31569   6.161  29.868  11.562
59255W        W31570  31.555   0.944  12.875
59256W        W31571  37.270  15.235  11.656
59257W        W31572   4.997  33.172   4.118
59258W        W31573  28.501  44.754   4.716
59259W        W31574  23.706  29.056   4.640
59260W        W31575  29.420   7.703   0.337
59261W        W31576  21.178  23.249   0.313
59262W        W31577  31.126   3.682   0.321
59263W        W31578   8.401  30.652   2.364
59264W        W31579  39.912  28.573   1.943
59265W        W31580  11.956  13.783  11.548
59266W        W31581  36.308  24.669  14.959
59267W        W31582  19.530  31.029   2.707
59268W        W31583   0.950  24.159   2.449
59269W        W31584   4.240  35.435   3.284
59270W        W31585   1.356   3.934   4.516
59271W        W31586  29.071   1.614   1.234
59272W        W31587  13.943  15.333  12.016
59273W        W31588  12.854  18.027  14.215
59274W        W31589   4.677  23.512  13.873
59275W        W31590  12.945  35.620  13.459
59276W        W31591  30.091  15.537   4.968
59277W        W31592  18.703  39.131   4.583
59278W        W31593  44.972  36.529   1.653
59279W        W31594  23.538   2.957   1.434
59280W        W31595  18.181  26.627  10.969
59281W        W31596  42.357  42.721  12.504
59282W        W31597  34.656  37.923   2.123
59283W        W31598  25.282  39.938  12.624
59284W        W31599  19.327   9.001  11.669
59285W        W31600  43.919  14.021  12.862
59286W        W31601  30.860  15.711  10.637
59287W        W31602  44.412   4.565   3.848
59288W        W31603  23.808  42.494  14.047
59289W        W31604  21.175  20.552  14.848
59290W        W31605  23.566  12.821   3.230
59291W        W31606  19.441  15.318   0.956
59292W        W31607   2.400   7.104  11.132
59293W        W31608  14.348  14.297   0.716
59294W        W31609   9.695  20.201   2.213
59295W        W31610   0.827  12.569   4.615
59296W        W31611  28.096  15.073   2.286
59297W        W31612   8.796   1.721  11.138
59298W        W31613  38.364  26.064   5.402
59299W        W31614  20.200   3.398  12.118
59300W        W31615  27.472   1.312  13.031
59301W        W31616  26.289  43.717   1.908
59302W        W31617  22.217   6.401   3.707
59303W        W31618  24.601  42.981  14.232
59304W        W31619  41.473  14.531   2.360
59305W        W31620  12.369   0.436  14.772
59306W        W31621  37.512   6.336  11.640
59307W        W31622   2.508  16.136   2.375
59308W        W31623   4.472  28.529   1.726
59309W        W31624   3.333  26.777   4.827
59310W        W31625  31.194  44.265   2.328
59311W        W31626   2.407  29.684   1.945
59312W        W31627   2.509  34.054   3.782
59313W        W31628  32.596  26.407  12.014
59314W        W31629  24.492  17.362   4.920
59315W        W31630  18.057  10.455   2.659
59316W        W31631   4.923   2.300   1.644
59317W        W31632  25.270  24.093  14.038
59318W        W31633  33.318  13.856  14.740
59319W        W31634  39.879  29.217  14.872
59320W        W31635   3.496  24.492  14.246
59321W        W31636  28.651  24.766  14.699
59322W        W31637  19.984  31.555   0.340
59323W        W31638  30.337  16.772  11.673
59324W        W31639  34.082  22.032  13.227
59325W        W31640   7.312   4.520  12.462
59326W        W31641  35.424   0.841  14.041
59327W        W31642  17.721  27.994   2.796
59328W        W31643  21.297  38.058   0.452
59329W        W31644  35.430  33.463  10.320
59330W        W31645  42.505  26.950   3.197
59331W        W31646  29.878  38.431  11.593
59332W        W31647  22.476  32.386   4.668
59333W        W31648   6.358  22.547   1.277
59334W        W31649   7.933  19.071   2.857
59335W        W31650   0.094  12.245   5.448
59336W        W31651  15.857   3.436  13.007
59337W        W31652   2.488   4.034  11.173
59338W        W31653  21.307   9.747   2.192
59339W        W31654  22.893  42.948   1.682
59340W        W31655  31.989  21.554   1.647
59341W        W31656   9.190  43.388   0.850
59342W        W31657  24.125  13.577   0.874
59343W        W31658  29.154  31.706  11.097
59344W        W31659  21.738  26.146  12.437
59345W        W31660  37.674  19.232   0.714
59346W        W31661   0.765  29.153   1.980
59347W        W31662  21.811   9.429   3.212
59348W        W31663   0.303   0.148  10.442
59349W        W31664  37.363  11.219  12.177
59350W        W31665  16.739   3.969   3.260
59351W        W31666  40.044  20.191  11.224
59352W        W31667  37.665  15.284   4.235
59353W        W31668  38.240  21.652   1.374
59354W        W31669  36.756  43.544  13.614
59355W        W31670  29.374  35.953   5.151
59356W        W31671  36.826   4.953   2.781
59357W        W31672  43.316  26.115  14.845
59358W        W31673  31.224  37.615   5.041
59359W        W31674   4.728  39.635  12.561
59360W        W31675  19.262  23.467   4.915
59361W        W31676  31.150  11.318   1.309
59362W        W31677  30.699  36.693  10.982
59363W        W31678  38.576  10.621  12.890
59364W        W31679  42.833  25.425   3.260
59365W        W31680  22.667   1.447   1.223
59366W        W31681  37.455  13.719  12.474
59367W        W31682  37.325   3.515  11.638
59368W        W31683   8.267  23.736   3.102
59369W        W31684  32.458  23.593   3.204
59370W        W31685   6.180  22.445  14.354
59371W        W31686  16.200   7.692  14.431
59372W        W31687  21.758  29.768   4.255
59373W        W31688  32.597  36.480  12.714
59374W        W31689  44.847  34.033  13.523
59375W        W31690  18.615  20.014  10.584
59376W        W31691  12.770   7.202  14.525
59377W        W31692  42.659   8.825   2.268
59378W        W31693   5.103  29.391   3.725
59379W        W31694  13.778  20.297  12.155
59380W        W31695  19.967  44.709  12.413
59381W        W31696   0.303   1.309  12.571
59382W        W31697  25.759  29.320   2.622
59383W        W31698  19.756   8.005   3.693
59384W        W31699   6.874  40.517  13.855
59385W        W31700  14.262  15.074  13.407
59386W        W31701   2.352  25.711  13.164
59387W        W31702  11.481   0.334   2.190
59388W        W31703   8.808  28.550   1.248
59389W        W31704  30.089   0.583  12.940
59390W        W31705  14.515  20.918   2.675
59391W        W31706  23.241   8.769  11.694
59392W        W31707  26.158   9.743  11.071
59393W        W31708  31.846  22.624   0.882
59394W        W31709  32.620  34.926  13.298
59395W        W31710   5.916  14.567  12.830
59396W        W31711  13.788  19.798   4.542
59397W        W31712   5.374  27.475   1.947
59398W        W31713  26.477   8.191  13.555
59399W        W31714  15.687  39.217   5.109
59400W        W31715  34.838  13.813  11.257
59401W        W31716   6.169  11.215   3.202
59402W        W31717  34.962  10.122   4.343
59403W        W31718  38.544  16.864  11.516
59404W        W31719  41.502   9.420  10.782
59405W        W31720  40.372  27.602   3.853
59406W        W31721  41.923   7.939   0.483
59407W        W31722   5.349   2.218   4.207
59408W        W31723  20.176   8.911  10.360
59409W        W31724  12.713   6.253  10.748
59410W        W31725  42.253  30.153  11.165
59411W        W31726  37.484  16.804   4.637
59412W        W31727  39.415  24.080  12.587
59413W        W31728   9.190  33.991   1.709
59414W        W31729  13.136  24.113  10.462
59415W        W31730  34.039  14.809   1.674
59416W        W31731  28.152  43.903   4.640
59417W        W31732  32.002  21.047  12.549
59418W        W31733   3.368  18.086   2.726
59419W        W31734   1.741  23.500  10.742
59420W        W31735   7.679  37.523   0.484
59421W        W31736  42.284  10.140  14.821
59422W        W31737  17.222  29.601   2.391
59423W        W31738  29.261   4.853   0.432
59424W        W31739  23.058  37.883   0.747
59425W        W31740   4.407  29.203  10.560
59426W        W31741  28.671   6.794   5.593
59427W        W31742  39.810  25.748   5.529
59428W        W31743  35.045  34.635  14.367
59429W        W31744  27.656  13.898   0.927
59430W        W31745  13.637   6.235   1.299
59431W        W31746  33.084   0.233   3.333
59432W        W31747  14.353  14.137  11.548
59433W        W31748  11.264  15.921  11.907
59434W        W31749   5.524  25.339  11.650
59435W        W31750   3.262  38.163  12.572
59436W        W31751   1.986  38.051   3.161
59437W        W31752  34.066  30.150   1.204
59438W        W31753  17.754  42.720  13.958
59439W        W31754   2.860  25.779  14.006
59440W        W31755  33.034  17.358  12.039
59441W        W31756  30.045  14.996  11.959
59442W        W31757  26.586   0.852  13.065
59443W        W31758  18.107  16.047  10.733
59444W        W31759   8.664   0.427  14.470
59445W        W31760   4.080  12.876  13.858
59446W        W31761  30.145  40.864   3.302
59447W        W31762  36.369  38.909  12.167
59448W        W31763  37.980   2.377  13.794
59449W        W31764  29.020  14.078   0.432
59450W        W31765  13.625  22.155  11.171
59451W        W31766  33.990  39.914  14.143
59452W        W31767  26.961  34.342   3.174
59453W        W31768  22.518  22.373   0.195
59454W        W31769  22.697  35.538  10.609
59455W        W31770   9.174  27.911  14.895
59456W        W31771   6.677   9.719  13.838
59457W        W31772  18.216  29.518  10.713
59458W        W31773   7.828  28.960   0.880
59459W        W31774  27.424  44.222   0.488
59460W        W31775  37.465   9.353  14.420
59461W        W31776  41.850  25.953  14.152
59462W        W31777  23.211  19.035   4.756
59463W        W31778  41.767   9.830   3.700
59464W        W31779  43.806  32.872  10.352
59465W        W31780  36.105  13.469   4.892
59466W        W31781  35.449  24.095  11.515
59467W        W31782  41.361  23.723   1.057
59468W        W31783  22.494  21.573  12.781
59469W        W31784  28.602  27.329   3.281
59470W        W31785  15.639  18.662  14.615
59471W        W31786  30.443  39.634  14.469
59472W        W31787  20.134  34.846  14.900
59473W        W31788  14.791  29.092  14.061
59474W        W31789  25.715   1.811   5.046
59475W        W31790   6.591  27.389  13.390
59476W        W31791  32.826   7.761  10.808
59477W        W31792  36.641  37.612   0.614
59478W        W31793  30.735  21.115  13.924
59479W        W31794  21.283  42.777   0.768
59480W        W31795  36.096  18.396  14.838
59481W        W31796   7.248  14.903  14.874
59482W        W31797  42.536  28.059  14.358
59483W        W31798  24.646   6.963   2.732
59484W        W31799  34.940   6.212  13.360
59485W        W31800  23.906   3.954  14.450
59486W        W31801   3.335  18.154   4.840
59487W        W31802  25.185  25.944   2.487
59488W        W31803  10.697  33.152  11.118
59489W        W31804  33.948  26.844  12.573
59490W        W31805   1.951  10.472   0.766
59491W        W31806   9.130   6.232  11.950
59492W        W31807   6.340  31.060  12.929
59493W        W31808   0.930  31.272  11.855
59494W        W31809   5.155  34.927  14.833
59495W        W31810  25.152  22.892  13.020
59496W        W31811  34.402  10.172   4.830
59497W        W31812   8.310  24.050   1.433
59498W        W31813  11.199   7.812   0.986
59499W        W31814  24.069  19.465  13.889
59500W        W31815   1.412  11.865   1.748
59501W        W31816   4.844  16.665   1.954
59502W        W31817  13.387  18.812  14.235
59503W        W31818  32.170  41.404   1.234
59504W        W31819  24.041  21.623  13.491
59505W        W31820  36.350  32.888  11.511
59506W        W31821   8.335  13.751  10.370
59507W        W31822  15.874  37.092   0.326
59508W        W31823  15.542  11.911   2.413
59509W        W31824  30.987  26.460  12.577
59510W        W31825  13.330  41.272   0.226
59511W        W31826  41.324   7.840   1.818
59512W        W31827  25.748  17.282  12.875
59513W        W31828   4.338   8.126  11.898
59514W        W31829  41.784  40.862   0.291
59515W        W31830  39.127   8.392  12.922
59516W        W31831   2.054  13.042  14.970
59517W        W31832  25.758   3.269   2.821
59518W        W31833  33.017  25.505  14.982
59519W        W31834   1.261  27.551   2.436
59520W        W31835  30.935   8.557   2.197
59521W        W31836  37.508  20.046  11.691
59522W        W31837  10.562  34.628   4.810
59523W        W31838  16.537  17.099  11.611
59524W        W31839  33.886  37.882   9.987
59525W        W31840  43.409  21.803  13.316
59526W        W31841  36.696  10.860  11.487
59527W        W31842  26.569   6.817  12.966
59528W        W31843  36.489  14.899  13.851
59529W        W31844  29.663  20.084  13.464
59530W        W31845  25.451  41.003  11.572
59531W        W31846   9.226  13.524   3.725
59532W        W31847  25.457  29.574  12.985
59533W        W31848  32.870  24.579   3.175
59534W        W31849   4.153   2.618   4.253
59535W        W31850  33.900  37.589  11.724
59536W        W31851  27.000  14.787   0.956
59537W        W31852  34.278  35.410   4.434
59538W        W31853  13.095  26.807  14.243
59539W        W31854   8.695   0.723   4.299
59540W        W31855  42.664  11.574   3.553
59541W        W31856  11.841  16.102   3.843
59542W        W31857   4.705  38.466   4.413
59543W        W31858   6.727  22.149  10.733
59544W        W31859   5.201  11.043  10.707
59545W        W31860  16.833  25.552  11.056
59546W        W31861   5.883   7.093  11.851
59547W        W31862   0.940  13.871  14.214
59548W        W31863  35.663   1.010   4.391
59549W        W31864  42.090  18.471  12.064
59550W        W31865   8.062  11.783   1.808
59551W        W31866  25.891  25.657   0.819
59552W        W31867  38.882  22.119   1.949
59553W        W31868  39.857  27.677   2.986
59554W        W31869   2.783  13.067  13.155
59555W        W31870  33.511  32.128  14.985
59556W        W31871  15.539  17.575   3.786
59557W        W31872  16.134  23.596  10.617
59558W        W31873  28.948  22.441   4.482
59559W        W31874  24.133  11.171   0.874
59560W        W31875  30.435  31.931   3.716
59561W        W31876  40.461  37.855  14.806
59562W        W31877  25.745   2.317   3.735
59563W        W31878   4.710  42.383  12.895
59564W        W31879   2.430  39.838  14.829
59565W        W31880  22.511   5.906   3.385
59566W        W31881  31.047   4.694   4.196
59567W        W31882  44.463  40.976   0.474
59568W        W31883  43.255  34.064  11.943
59569W        W31884   0.564   0.904  10.102
59570W        W31885   8.704   1.443   3.264
59571W        W31886  19.779  28.902  13.374
59572W        W31887  35.405  37.682   0.727
59573W        W31888  10.344  27.043  13.617
59574W        W31889  25.103  22.835  10.351
59575W        W31890  10.365  13.647   3.628
59576W        W31891  21.612  12.045  11.077
59577W        W31892  20.382  11.402   5.473
59578W        W31893  23.485   7.965   0.321
59579W        W31894   6.931  40.597   4.476
59580W        W31895  24.972  37.002   3.857
59581W        W31896  17.654  20.087  10.627
59582W        W31897  28.880   9.443   1.778
59583W        W31898  21.707  20.229   3.316
59584W        W31899  39.439  10.922  13.994
59585W        W31900  23.265  10.721  12.939
59586W        W31901   6.663  29.132  12.930
59587W        W31902  30.858   0.911  11.295
59588W        W31903   7.899  27.252   4.539
59589W        W31904   8.227  21.113  12.036
59590W        W31905  37.139   1.027   3.900
59591W        W31906  37.066  40.017  10.451
59592W        W31907  17.105  28.046   1.741
59593W        W31908  26.720   0.100  13.498
59594W        W31909  29.392   6.438  13.920
59595W        W31910  31.431  32.106   3.877
59596W        W31911  43.112  44.255   0.112
59597W        W31912  19.752  23.613  10.497
59598W        W31913  39.900  38.310   4.277
59599W        W31914  18.610  42.769  10.892
59600W        W31915  26.620  42.373   1.279
59601W        W31916  33.094  18.129   0.676
59602W        W31917  33.267  39.392   2.242
59603W        W31918  22.644  28.418  14.818
59604W        W31919  36.057  38.017  10.807
59605W        W31920   3.788   2.454   2.322
59606W        W31921  42.999  16.214   1.958
59607W        W31922  25.244  18.770   0.717
59608W        W31923  25.054   2.056   5.092
59609W        W31924  25.459  33.310  12.403
59610W        W31925  25.746  34.009   2.426
59611W        W31926  21.277  26.451  14.917
59612W        W31927  12.229  11.834   2.232
59613W        W31928  39.917  30.303  14.338
59614W        W31929  38.435  26.349   1.745
59615W        W31930  21.197   5.789   0.989
59616W        W31931  12.613  43.723  13.303
59617W        W31932  21.664   6.889   4.119
59618W        W31933   6.382   6.257  12.080
59619W        W31934   3.415  24.373   3.736
59620W        W31935   2.780  21.859   4.147
59621W        W31936  32.342  20.352   5.016
59622W        W31937  24.427  20.797   2.714
59623W        W31938  20.552   3.551  13.337
59624W        W31939  12.217  18.450  10.878
59625W        W31940   7.027  28.919  11.137
59626W        W31941  37.064   3.903  13.454
59627W        W31942  11.399  39.039  11.469
59628W        W31943  22.645   8.192   3.969
59629W        W31944  37.392  41.800   4.687
59630W        W31945  25.924   8.499  12.898
59631W        W31946   7.809   4.642  12.547
59632W        W31947   9.513  22.864  11.916
59633W        W31948   5.227  31.582   3.757
59634W        W31949  18.032  34.973   0.813
59635W        W31950  41.818  35.877  10.800
59636W        W31951   5.109  11.209  12.046
59637W        W31952   5.209  17.493   2.417
59638W        W31953  12.175  27.954   4.145
59639W        W31954  17.697   5.073   2.325
59640W        W31955  10.560  21.470  11.916
59641W        W31956  17.361  14.024  10.161
59642W        W31957  31.566  29.223   3.779
59643W        W31958   9.912  31.541  13.429
59644W        W31959  16.588  39.889  12.911
59645W        W31960   5.434  11.339   2.239
59646W        W31961  15.841  41.724  11.089
59647W        W31962   8.131  43.550  14.015
59648W        W31963  30.711  29.472  13.094
59649W        W31964   8.205  33.001   4.846
59650W        W31965  22.000  11.261  11.561
59651W        W31966  13.132  10.376   1.331
59652W        W31967  15.999  28.545  13.453
59653W        W31968  29.890  35.091   1.225
59654W        W31969  42.447  34.997   2.154
59655W        W31970  11.759  15.214   3.172
59656W        W31971   2.718   0.019  14.741
59657W        W31972  12.847   8.443   0.403
59658W        W31973  17.181  20.926  10.676
59659W        W31974   0.321   5.900  12.394
59660W        W31975  27.954  11.910   2.845
59661W        W31976   0.706  44.299   4.024
59662W        W31977  35.905  11.081  13.979
59663W        W31978  42.997  10.650  14.858
59664W        W31979   8.409   3.827  14.429
59665W        W31980  22.575  32.281  13.781
59666W        W31981  25.562  12.113  13.402
59667W        W31982  41.912  36.630  13.420
59668W        W31983  44.987  31.538  11.159
59669W        W31984  19.091  11.831   3.683
59670W        W31985  44.727   4.853  13.559
59671W        W31986   9.648  44.008   0.011
59672W        W31987  30.212  27.178  13.469
59673W        W31988   7.085  34.724   2.945
59674W        W31989  22.788  44.745   0.998
59675W        W31990  27.434  12.819   2.266
59676W        W31991   0.541  21.989  12.016
59677W        W31992  31.585  16.667  13.084
59678W        W31993  22.414  14.405   1.809
59679W        W31994  40.402  17.077   0.420
59680W        W31995  42.620  26.042   1.358
59681W        W31996  32.038   4.665   2.883
59682W        W31997  24.457  32.633   4.537
59683W        W31998   5.210  27.601   3.740
59684W        W31999  23.326  38.996  13.070
59685W        W32000  30.860   1.513   4.148
59686W        W32001  43.403  12.327  13.790
59687W        W32002  26.490  42.938  13.998
59688W        W32003   7.989   2.078   4.221
59689W        W32004  20.114   5.236   1.723
59690W        W32005  22.787   8.158   2.963
59691W        W32006  39.031  32.447  12.840
59692W        W32007  26.524  37.667  10.046
59693W        W32008  35.392  35.046  11.124
59694W        W32009  24.345  24.731   0.062
59695W        W32010  33.629  22.229  13.120
59696W        W32011  22.484  37.393  14.707
59697W        W32012  18.398  40.276  10.671
59698W        W32013  32.914  16.468  12.412
59699W        W32014  32.003  11.434   1.848
59700W        W32015  25.455  29.015  14.103
59701W        W32016   5.112  30.536   2.453
59702W        W32017  18.008   0.831   4.695
59703W        W32018  19.300  17.329   1.738
59704W        W32019  39.532   3.456   1.802
59705W        W32020  30.074  31.031   0.412
59706W        W32021   2.999  17.347   4.244
59707W        W32022  44.863  15.365   2.145
59708W        W32023  27.135  43.679  13.927
59709W        W32024  12.226  11.315   2.948
59710W        W32025  44.314  14.543  10.756
59711W        W32026  37.955  21.109  13.885
59712W        W32027  31.408  36.432   2.690
59713W        W32028  32.906   2.725  14.384
59714W        W32029  22.820  19.352   2.880
59715W        W32030  41.838  43.365  12.032
59716W        W32031  15.659  16.673   3.970
59717W        W32032  22.720  27.304  14.673
59718W        W32033  37.993  10.633  11.856
59719W        W32034  26.484  29.599  13.657
59720W        W32035   7.330   8.155  10.520
59721W        W32036   7.197  36.055  14.809
59722W        W32037  26.899   8.158  13.879
59723W        W32038  10.098  18.178   4.976
59724W        W32039  42.437  20.447  13.402
59725W        W32040   1.449   6.718   4.803
59726W        W32041  22.641  31.519   2.170
59727W        W32042  37.102   2.233  13.808
59728W        W32043  10.079  32.064   4.128
59729W        W32044  36.591  40.301  14.902
59730W        W32045  36.206   8.183  13.105
59731W        W32046  33.996  10.821   1.433
59732W        W32047  44.835  19.517   0.225
59733W        W32048   5.797  37.137  11.928
59734W        W32049   6.248  15.246  14.845
59735W        W32050  23.004  15.783   0.847
59736W        W32051  27.709  28.146   1.724
59737W        W32052  44.795   1.996  10.732
59738W        W32053  21.935  14.761   4.279
59739W        W32054  25.536  33.377   4.871
59740W        W32055  14.641   2.487  14.917
59741W        W32056  28.746   3.918   9.804
59742W        W32057  21.095  25.674   0.394
59743W        W32058  34.620  13.026  11.585
59744W        W32059  42.766   7.831  11.363
59745W        W32060  42.038   3.862   2.160
59746W        W32061  44.030   2.270  14.910
59747W        W32062  10.232  23.149  11.377
59748W        W32063   1.171  22.845  13.536
59749W        W32064  18.616   8.632  10.297
59750W        W32065  19.241   9.379  13.007
59751W        W32066  11.606  18.974  14.456
59752W        W32067  28.171  21.809  12.369
59753W        W32068  29.257   2.381  13.428
59754W        W32069  37.890  36.324   4.098
59755W        W32070  26.491  36.278   2.023
59756W        W32071  36.904  26.405   3.785
59757W        W32072  27.698  41.114   0.296
59758W        W32073  23.444  15.206  11.589
59759W        W32074  33.066  22.498  12.011
59760W        W32075  27.637   1.866   3.563
59761W        W32076  19.517  21.560   3.283
59762W        W32077  40.739   6.231   1.557
59763W        W32078   3.014  11.859  12.463
59764W        W32079  43.537  25.208   0.457
59765W        W32080  14.531   7.168   0.862
59766W        W32081  21.108  20.157  10.578
59767W        W32082  24.215  38.046   4.516
59768W        W32083  12.426   8.332  13.715
59769W        W32084  20.765  24.421  14.962
59770W        W32085  16.781  24.336  14.456
59771W        W32086  17.248  22.426   1.797
59772W        W32087  16.600   2.874   0.382
59773W        W32088  21.282  37.322   2.265
59774W        W32089  20.827  40.562   3.569
59775W        W32090  13.773  15.152   0.741
59776W        W32091  39.034  22.819  12.321
59777W        W32092  31.697  19.691   5.062
59778W        W32093  34.324  14.028   0.350
59779W        W32094  29.748  28.216  11.151
59780W        W32095  14.662  21.356   2.359
59781W        W32096  30.624  34.942  12.073
59782W        W32097  17.971  44.004  10.795
59783W        W32098   6.919   0.961  12.944
59784W        W32099   5.161  12.040  13.199
59785W        W32100  30.030  26.745  11.160
59786W        W32101  21.157  44.399   3.606
59787W        W32102  29.649  34.865   2.579
59788W        W32103  24.124  22.015  12.008
59789W        W32104  28.882  21.978  11.711
59790W        W32105   9.151  11.810  14.122
59791W        W32106  37.045  32.932   3.690
59792W        W32107  36.277  26.416   3.184
59793W        W32108  19.479  41.706   3.564
59794W        W32109  38.388  27.646  11.179
59795W        W32110  20.235  44.177   4.776
59796W        W32111  11.246  31.863   0.548
59797W        W32112  26.796  23.569   1.824
59798W        W32113   6.914  31.027  14.157
59799W        W32114  34.402  36.349  13.351
59800W        W32115   1.336  30.544   2.905
59801W        W32116  24.261  32.531   3.907
59802W        W32117  26.175  44.045  14.678
59803W        W32118   5.230  18.665   3.857
59804W        W32119  38.901  31.881  10.235
59805W        W32120   9.348   7.046   4.852
59806W        W32121   9.715   3.477  13.041
59807W        W32122  25.135   2.926  10.665
59808W        W32123  44.936   0.995   1.871
59809W        W32124  43.408  36.336  10.372
59810W        W32125  29.871  21.505   0.914
59811W        W32126  25.998   9.682   2.713
59812W        W32127  23.029  18.359  14.557
59813W        W32128  24.636  28.819   3.642
59814W        W32129  44.287   4.658  12.718
59815W        W32130  27.747  39.095   1.886
59816W        W32131  32.483  30.506   4.836
59817W        W32132  18.840  35.069  11.036
59818W        W32133  21.042  17.580   4.148
59819W        W32134  23.493   1.232   1.976
59820W        W32135  38.822  17.651  12.368
59821W        W32136  19.443  14.679   1.484
59822W        W32137  26.673  31.359   2.132
59823W        W32138   9.853  39.301   0.007
59824W        W32139   0.940  26.784  13.460
59825W        W32140  23.070  34.453   4.592
59826W        W32141  38.400  33.390  10.667
59827W        W32142  43.002  21.163  10.920
59828W        W32143  37.609  30.498   2.932
59829W        W32144  17.065  33.658   1.362
59830W        W32145   8.393  28.093   2.439
59831W        W32146   1.490  44.082  11.501
59832W        W32147   1.586  10.680   1.149
59833W        W32148  30.029  33.374   1.031
59834W        W32149   7.750  10.665  13.058
59835W        W32150   0.674  18.210  13.854
59836W        W32151   0.939  16.103  14.957
59837W        W32152  28.548  39.717   0.783
59838W        W32153  14.129  27.913   0.759
59839W        W32154   3.519  23.109   1.630
59840W        W32155  39.319   1.803   1.366
59841W        W32156  25.043   3.816  10.694
59842W        W32157  22.016  29.456   4.601
59843W        W32158   2.160  33.677  13.395
59844W        W32159  22.500  16.551   4.515
59845W        W32160  25.116  24.728   0.451
59846W        W32161  10.483  21.525   3.642
59847W        W32162  41.031  33.570  14.407
59848W        W32163  25.216  25.527   3.183
59849W        W32164  39.443  26.940   9.753
59850W        W32165  29.991  24.137  11.161
59851W        W32166  42.997   4.340  13.859
59852W        W32167  30.561  38.548   2.197
59853W        W32168  34.971  42.499   1.843
59854W        W32169   6.603  10.710   1.986
59855W        W32170   1.797  11.324   5.360
59856W        W32171  26.279  34.574  14.175
59857W        W32172  15.318  40.946  14.613
59858W        W32173  31.617   2.819  13.228
59859W        W32174  26.959   1.941  11.474
59860W        W32175   3.372  39.468  11.047
59861W        W32176  17.042   7.127   3.212
59862W        W32177  28.525   2.650  12.462
59863W        W32178   3.703  42.801  14.056
59864W        W32179  37.973  27.027  10.652
59865W        W32180  29.041   7.276   1.455
59866W        W32181   3.932  39.387   1.205
59867W        W32182  12.069  29.560   1.040
59868W        W32183  23.590   4.529   1.916
59869W        W32184  18.271  13.706   0.904
59870W        W32185   4.011  17.456  14.891
59871W        W32186  16.325  18.208   1.419
59872W        W32187  14.590  29.095   3.994
59873W        W32188  21.677  34.281  14.957
59874W        W32189  42.271   1.301  12.151
59875W        W32190  34.417  13.746  14.777
59876W        W32191  40.729  17.278   3.426
59877W        W32192   3.279   8.411   2.284
59878W        W32193  13.166  15.443  11.046
59879W        W32194  29.935  13.092   3.713
59880W        W32195  37.008   4.658  14.095
59881W        W32196  42.348  36.761  11.437
59882W        W32197   0.650  18.124   4.477
59883W        W32198  21.054  20.201   0.192
59884W        W32199  29.988  14.077   3.452
59885W        W32200  33.301   9.173   0.262
59886W        W32201   7.608  14.101  13.346
59887W        W32202  11.521   5.862   3.693
59888W        W32203  20.029  35.864  14.430
59889W        W32204  35.922   2.735  14.727
59890W        W32205  38.006   3.881   0.270
59891W        W32206  31.322  30.090  12.091
59892W        W32207   9.412  10.137   3.909
59893W        W32208   5.724   5.779   4.802
59894W        W32209  42.836  34.194  14.874
59895W        W32210  24.148  15.849   2.698
59896W        W32211  15.200  13.540   2.057
59897W        W32212   9.786  15.322  10.968
59898W        W32213  29.138   4.464   5.402
59899W        W32214  15.672   7.754   2.165
59900W        W32215   9.417  32.458  14.365
59901W        W32216  23.162   1.290   4.450
59902W        W32217  35.059  28.482  14.465
59903W        W32218  30.586  32.729  12.701
59904W        W32219  28.717   3.795  13.862
59905W        W32220  19.701  19.711   2.796
59906W        W32221  40.938   8.704  10.641
59907W        W32222  44.432   4.097  11.974
59908W        W32223  44.362  14.106  12.441
59909W        W32224  35.871  16.686   1.776
59910W        W32225  39.766   0.488   0.054
59911W        W32226  15.774  15.333   4.132
59912W        W32227  23.496  19.101   5.399
59913W        W32228  25.414   0.811  12.575
59914W        W32229   1.976  20.585   3.817
59915W        W32230   6.828   8.337  14.530
59916W        W32231  41.396  34.274   0.054
59917W        W32232  11.348  30.009  11.920
59918W        W32233  18.767  29.243   2.783
59919W        W32234  24.703  11.559   1.747
59920W        W32235  39.304  22.064  14.473
59921W        W32236  28.560  37.264  14.976
59922W        W32237  20.303  36.407   4.194
59923W        W32238  37.446   3.274   1.821
59924W        W32239  27.196  32.690  10.908
59925W        W32240  35.896  26.514   2.321
59926W        W32241  10.784  42.947  11.720
59927W        W32242  40.001   1.480   2.704
59928W        W32243   6.186   8.935   3.805
59929W        W32244  24.451   7.382  11.652
59930W        W32245  14.336  39.382   4.626
59931W        W32246   9.334  42.588   1.276
59932W        W32247   7.163  23.681  12.061
59933W        W32248   2.309  41.980   3.732
59934W        W32249   8.365  33.197  11.536
59935W        W32250  41.694  15.904   4.609
59936W        W32251  44.250   5.902   2.368
59937W        W32252  22.179  24.476   3.268
59938W        W32253  22.256   5.346  14.211
59939W        W32254  37.057  32.192   1.662
59940W        W32255  41.540  33.889  12.888
59941W        W32256  30.916  26.952   3.950
59942W        W32257  33.171   8.005   4.202
59943W        W32258   4.928   2.689   0.069
59944W        W32259   0.313  12.358   0.834
59945W        W32260   0.212  35.743   5.472
59946W        W32261   1.017  43.777  11.378
59947W        W32262  12.878  44.226  10.607
59948W        W32263  36.859  16.832  11.080
59949W        W32264   3.938  19.157   4.407
59950W        W32265  23.730   9.273  13.857
59951W        W32266  37.388   9.858   2.940
59952W        W32267  41.909   6.227   2.275
59953W        W32268   3.329  36.856  12.932
59954W        W32269  35.400  43.367  13.752
59955W        W32270  13.437  36.565   2.957
59956W        W32271  14.656  27.233  11.130
59957W        W32272  32.147   2.459   0.519
59958W        W32273  40.540   0.908  13.515
59959W        W32274  38.252   8.913   3.150
59960W        W32275  18.113  14.850   1.395
59961W        W32276  18.359  16.509   3.977
59962W        W32277  12.152  14.488  13.953
59963W        W32278   1.641  14.528  13.900
59964W        W32279  20.671  44.070  11.398
59965W        W32280  24.934  33.418   1.588
59966W        W32281   1.885  19.506   0.275
59967W        W32282   5.121  29.397   0.855
59968W        W32283  44.450  32.897  11.586
59969W        W32284  18.036   6.401  11.929
59970W        W32285   6.653   6.727  12.007
59971W        W32286  34.527  40.017  13.741
59972W        W32287   6.294   7.128   3.397
59973W        W32288  43.224  22.150  10.304
59974W        W32289  27.947  38.524   0.426
59975W        W32290  43.545  15.518   2.115
59976W        W32291  17.081  29.555   0.328
59977W        W32292  16.236  26.920  10.525
59978W        W32293  33.458  25.781   0.785
59979W        W32294  10.826  28.206   4.176
59980W        W32295  28.959   6.242  11.951
59981W        W32296   3.215  16.127  13.362
59982W        W32297   6.947  37.758   4.254
59983W        W32298  30.611  22.180   1.637
59984W        W32299   5.307  10.577   4.113
59985W        W32300  12.069  25.645  10.764
59986W        W32301  19.245  28.119   1.604
59987W        W32302  33.758  38.455   0.898
59988W        W32303  28.656  33.372  12.033
59989W        W32304  32.895  23.524  13.890
59990W        W32305  13.165  17.323  10.664
59991W        W32306  12.139  22.940  14.729
59992W        W32307   1.961  15.369   1.836
59993W        W32308  28.170  20.386   4.704
59994W        W32309  31.470   3.288   1.713
59995W        W32310   0.247  24.545  10.672
59996W        W32311  30.734   7.158   0.304
59997W        W32312  17.910  37.880   9.880
59998W        W32313  16.116  15.590   4.506
59999W        W32314   3.416   4.922  14.830
60000W        W32315  26.441  21.260   2.798
60001W        W32316   3.705  23.414   0.369
60002W        W32317  19.033  11.693  13.316
60003W        W32318  26.199   3.948   2.285
60004W        W32319  40.561  25.124  12.775
60005W        W32320  37.992  24.692   2.717
60006W        W32321  24.443  39.839   1.140
60007W        W32322   8.904   7.278   3.649
60008W        W32323   2.743   6.704   0.577
60009W        W32324   5.903  10.806   2.940
60010W        W32325  36.964   7.385   1.724
60011W        W32326  37.338  16.119   1.876
60012W        W32327   8.969  19.308  12.917
60013W        W32328  39.383  37.576  12.955
60014W        W32329  22.530  14.343  14.930
60015W        W32330  40.909   3.719   4.729
60016W        W32331   2.701  13.885   2.198
60017W        W32332  35.513  39.949  12.366
60018W        W32333  10.712   4.779   0.139
60019W        W32334  14.646   4.447   3.338
60020W        W32335  41.355  12.349   3.371
60021W        W32336   6.690  32.082  10.215
60022W        W32337   9.379  28.891  11.266
60023W        W32338  37.497  22.336   3.457
60024W        W32339   7.265  10.848  11.090
60025W        W32340  39.016  32.088   0.041
60026W        W32341  25.040   8.393  11.374
60027W        W32342   9.715  29.429  11.966
60028W        W32343  17.031  30.609   9.879
60029W        W32344  19.594  18.778  11.571
60030W        W32345  17.974   2.027  12.095
60031W        W32346   9.442   1.236   3.785
60032W        W32347  18.537  27.251  10.726
60033W        W32348  13.314   2.796   3.617
60034W        W32349   2.059  33.015  12.871
60035W        W32350  10.789  38.767   1.303
60036W        W32351  32.464  43.767  10.651
60037W        W32352  29.746  30.584   2.416
60038W        W32353   7.790  15.192   3.152
60039W        W32354  30.371   7.225   3.217
60040W        W32355  18.595  40.253   2.220
60041W        W32356  33.196  13.212   1.561
60042W        W32357  44.428   0.288  10.730
60043W        W32358  42.626  44.834   4.127
60044W        W32359   8.397  15.186  13.744
60045W        W32360   7.190  21.632  13.942
60046W        W32361   0.533  33.315  11.861
60047W        W32362  44.809   1.240   2.320
60048W        W32363  18.904  39.250  12.511
60049W        W32364  19.873  12.310  12.819
60050W        W32365  33.381  32.638  12.973
60051W        W32366  33.968  23.179   1.080
60052W        W32367  44.912  41.042   1.796
60053W        W32368  28.045  24.952   1.737
60054W        W32369  37.922  24.516   3.640
60055W        W32370  30.495  20.420   2.787
60056W        W32371  15.103  37.464  11.716
60057W        W32372  21.222  27.147   2.703
60058W        W32373  21.947  14.205  14.255
60059W        W32374  29.532  16.493  10.751
60060W        W32375  35.119   2.308   1.188
60061W        W32376  32.615  34.857   0.250
60062W        W32377  21.609   5.715   4.726
60063W        W32378  16.827  39.970   1.843
60064W        W32379   8.857   1.391   0.174
60065W        W32380  40.905   1.744  10.608
60066W        W32381  22.175   9.330   2.834
60067W        W32382  26.950  34.014  12.393
60068W        W32383  42.968  41.412  13.809
60069W        W32384   6.177  30.600  13.851
60070W        W32385  36.926  31.226   2.727
60071W        W32386  10.456   8.622   5.049
60072W        W32387  19.352  21.425  11.187
60073W        W32388   6.245  43.372  11.154
60074W        W32389  27.347   7.346  11.430
60075W        W32390  31.150   7.212  10.537
60076W        W32391   4.458   7.577  13.619
60077W        W32392  41.613   8.843   3.807
60078W        W32393  21.023   0.368  13.385
60079W        W32394  25.221  16.032   0.419
60080W        W32395  38.903  22.587   2.158
60081W        W32396  23.560  28.089   2.266
60082W        W32397  22.993  17.699   0.352
60083W        W32398  37.718  19.584   0.287
60084W        W32399  41.448  12.199   0.067
60085W        W32400  43.036   3.359   1.892
60086W        W32401  18.829  22.250  14.020
60087W        W32402   1.692  22.580  10.697
60088W        W32403  42.957  13.065   3.658
60089W        W32404  37.317   4.874   0.722
60090W        W32405  43.783  12.391  13.444
60091W        W32406  23.276  14.274   2.091
60092W        W32407  13.698  29.689   2.884
60093W        W32408  32.618   6.535  10.992
60094W        W32409   1.722  10.628   4.587
60095W        W32410  11.181  39.716   3.221
60096W        W32411  34.043   4.332   1.427
60097W        W32412  28.121  34.087  11.417
60098W        W32413  25.093  28.603   4.422
60099W        W32414  43.414  24.745  14.264
60100W        W32415  28.474  39.768   3.896
60101W        W32416   1.950  16.016   3.115
60102W        W32417   0.258  31.813   3.576
60103W        W32418  22.109  25.627   3.133
60104W        W32419  19.222  13.235  11.180
60105W        W32420  40.253   2.267  12.323
60106W        W32421  31.897  38.078  11.190
60107W        W32422  20.459  30.700   0.685
60108W        W32423  26.661  13.577  13.713
60109W        W32424  16.108  30.047   2.357
60110W        W32425  37.692  23.601  14.822
60111W        W32426  38.085   4.965  14.725
60112W        W32427  35.542  20.304  10.725
60113W        W32428  24.044  24.200  11.595
60114W        W32429  28.217  26.051   3.682
60115W        W32430  22.968  17.499  12.015
60116W        W32431  40.777  23.483   4.713
60117W        W32432  25.074  26.733  11.068
60118W        W32433  41.154   2.173  13.420
60119W        W32434  11.394   5.970   1.982
60120W        W32435  17.338  32.037  12.748
60121W        W32436  11.276  22.329  13.891
60122W        W32437  18.109  44.912   1.842
60123W        W32438  23.511  28.565  12.056
60124W        W32439   2.866   3.930  13.504
60125W        W32440   6.655  11.161  14.765
60126W        W32441  40.414   2.811   3.181
60127W        W32442  26.476   4.365  13.660
60128W        W32443   7.826  12.666   2.715
60129W        W32444   6.264  15.457  11.700
60130W        W32445   7.708  31.039   3.233
60131W        W32446  10.652  42.584   3.396
60132W        W32447   1.994   1.965  10.755
60133W        W32448  37.197  39.299  14.376
60134W        W32449  41.909   2.734   3.747
60135W        W32450  33.939  30.576   3.118
60136W        W32451  19.084  19.912  14.285
60137W        W32452  25.708   9.922  12.861
60138W        W32453  15.228   4.716   0.372
60139W        W32454   2.955  35.294   1.989
60140W        W32455  30.617  16.815  14.276
60141W        W32456  33.093  19.105  14.341
60142W        W32457  14.578  27.625   0.827
60143W        W32458   9.228  26.502   0.920
60144W        W32459  27.912  43.552   0.875
60145W        W32460   2.835  24.354   1.451
60146W        W32461   3.777   1.216  10.380
60147W        W32462   8.619  38.408  12.642
60148W        W32463  19.811  11.546  14.591
60149W        W32464   6.522  34.579  12.036
60150W        W32465  41.991  29.006  13.948
60151W        W32466  33.457  34.131   0.930
60152W        W32467  29.211  35.969   0.947
60153W        W32468  26.861  36.639   4.947
60154W        W32469   9.917  17.760  11.616
60155W        W32470  15.573  34.918   4.581
60156W        W32471  34.406  21.783   0.281
60157W        W32472  20.670  30.291   4.223
60158W        W32473  18.077  20.916  10.625
60159W        W32474  24.991   6.936  11.568
60160W        W32475  30.492   0.225  12.906
60161W        W32476  25.640  29.943   2.020
60162W        W32477  42.324  35.090  10.641
60163W        W32478  19.712  37.658  14.749
60164W        W32479  12.592   8.226   1.797
60165W        W32480  15.062  33.102  13.513
60166W        W32481  17.834  29.632   0.004
60167W        W32482  20.349  31.938  11.172
60168W        W32483  18.146  10.774  11.610
60169W        W32484   8.126  28.868   1.767
60170W        W32485   2.837   0.186  13.846
60171W        W32486  29.883  15.696  10.679
60172W        W32487  38.585  34.047  11.094
60173W        W32488  13.310   2.628  11.416
60174W        W32489   6.180  28.864   1.846
60175W        W32490  40.397  27.069   4.083
60176W        W32491  11.736   7.659   2.752
60177W        W32492   7.333  10.564   1.284
60178W        W32493  23.323   2.313  13.096
60179W        W32494  19.226   8.154   1.794
60180W        W32495  40.028  17.325   4.302
60181W        W32496  26.969   7.172   1.735
60182W        W32497  15.748   8.508   0.364
60183W        W32498  31.668  17.253  11.566
60184W        W32499  23.755  17.196   2.804
60185W        W32500  34.515   5.678   4.532
60186W        W32501   5.451  21.643   0.864
60187W        W32502  36.841  22.701  13.586
60188W        W32503  26.072  24.567   3.830
60189W        W32504   0.607   9.769   5.119
60190W        W32505  28.508  13.385   3.143
60191W        W32506   8.724  44.121  12.493
60192W        W32507   2.290  11.630  10.054
60193W        W32508   5.986  40.521  14.997
60194W        W32509   4.202  20.156  14.944
60195W        W32510  18.657   8.195  13.220
60196W        W32511  44.804  14.864   1.972
60197W        W32512  24.072  24.432   3.572
60198W        W32513  30.190  26.474   4.120
60199W        W32514  34.004  20.438  13.042
60200W        W32515  36.622  11.728  10.490
60201W        W32516   4.220  11.211   1.827
60202W        W32517  10.165  13.867   1.794
60203W        W32518  17.972  18.608  14.328
60204W        W32519   4.882  24.595   4.608
60205W        W32520   6.367   5.343   1.251
60206W        W32521  10.397  36.060  12.503
60207W        W32522   2.730   8.398   2.246
60208W        W32523   4.738  32.551   2.224
60209W        W32524   2.166  15.746   1.234
60210W        W32525  43.958  30.072   3.604
60211W        W32526  17.617   3.663  11.383
60212W        W32527  17.594  30.865  10.410
60213W        W32528  32.563   6.913   1.819
60214W        W32529   5.276   6.245  10.408
60215W        W32530  26.536  28.196  12.614
60216W        W32531  39.231   0.235   4.131
60217W        W32532  24.233  25.735  13.912
60218W        W32533  15.098  33.087  12.955
60219W        W32534  16.693  34.058   4.335
60220W        W32535  33.957   7.306  13.801
60221W        W32536  29.725   1.703  14.430
60222W        W32537  43.697  23.452  14.201
60223W        W32538  38.733   1.407   4.614
60224W        W32539  11.588  42.360  13.796
60225W        W32540  31.461  32.572  14.480
60226W        W32541   1.927  20.909   1.719
60227W        W32542   9.705  43.887  12.959
60228W        W32543  36.249  38.310   2.429
60229W        W32544  19.006  35.644   3.691
60230W        W32545   9.117  22.824   3.825
60231W        W32546  11.149   9.575   3.193
60232W        W32547  28.390  26.156   1.492
60233W        W32548   6.291  13.406  12.552
60234W        W32549  27.989  36.904   2.782
60235W        W32550  42.710   4.375  10.750
60236W        W32551   8.938  17.041  14.292
60237W        W32552  14.345  19.544  14.909
60238W        W32553   9.104  21.432   4.227
60239W        W32554  23.654  14.635   1.928
60240W        W32555  39.131  34.628   5.236
60241W        W32556  29.493  37.733  10.921
60242W        W32557  43.675   5.423   0.781
60243W        W32558  20.165  10.938   2.700
60244W        W32559  17.797  30.783   5.535
60245W        W32560  20.167   5.773  12.844
60246W        W32561  41.774   3.952   3.145
60247W        W32562  18.566  25.600   4.109
60248W        W32563  22.158   0.553  14.391
60249W        W32564  26.122  14.849  12.553
60250W        W32565  35.481   9.920  11.150
60251W        W32566  23.511  42.942   2.412
60252W        W32567  40.379  18.196   2.389
60253W        W32568  14.772  40.981  13.996
60254W        W32569   1.671  32.090   0.697
60255W        W32570  10.829  39.159  13.044
60256W        W32571  14.026  42.867  11.427
60257W        W32572  25.974  27.017   0.321
60258W        W32573  17.182  10.365  14.476
60259W        W32574  36.923   4.912  10.656
60260W        W32575   8.993  21.013  12.514
60261W        W32576  31.588  23.524  13.341
60262W        W32577   7.953  13.749  14.502
60263W        W32578  20.210   9.680   0.732
60264W        W32579  30.666  21.059   4.657
60265W        W32580  28.319  13.841   1.163
60266W        W32581  37.610  13.224  12.630
60267W        W32582  44.902  44.415  14.838
60268W        W32583  35.654  10.670   1.241
60269W        W32584  32.958  24.109   0.416
60270W        W32585  32.385  10.328  13.541
60271W        W32586  19.714  37.990   4.834
60272W        W32587   6.753   8.572   1.217
60273W        W32588   4.530  20.109  12.536
60274W        W32589  23.973   2.085   4.156
60275W        W32590  28.477  14.563   0.753
60276W        W32591   7.974   0.962   4.993
60277W        W32592  15.080  32.163  12.949
60278W        W32593  34.012  44.233  13.607
60279W        W32594  38.667  21.037  11.094
60280W        W32595  43.463  25.263   1.790
60281W        W32596  39.938  25.694   9.666
60282W        W32597  36.059  12.736   3.397
60283W        W32598   6.350  14.773   0.015
60284W        W32599   9.680   4.798   1.925
60285W        W32600  43.924  43.048   0.403
60286W        W32601  33.459  43.469  10.642
60287W        W32602  11.418  32.573   1.741
60288W        W32603   6.360  39.477   4.804
60289W        W32604   8.145  34.165   0.982
60290W        W32605  26.344   6.286  11.885
60291W        W32606  40.736  15.582  11.651
60292W        W32607  21.288  31.082  13.405
60293W        W32608  36.522   6.898   3.178
60294W        W32609  33.599  12.647  11.981
60295W        W32610  20.200   6.739  13.951
60296W        W32611  28.534   8.447   4.264
60297W        W32612  25.873  17.204   4.619
60298W        W32613  27.474  40.469   1.944
60299W        W32614  12.828  26.990  13.820
60300W        W32615   9.399  13.066  12.928
60301W        W32616  36.115  17.430  14.811
60302W        W32617  43.729  34.783  14.939
60303W        W32618  22.188  12.617   1.875
60304W        W32619  23.420  36.088  12.612
60305W        W32620  20.207  15.260   1.323
60306W        W32621  39.648  22.989  14.142
60307W        W32622  20.214  12.586   0.708
60308W        W32623   7.299  28.136  12.429
60309W        W32624   6.982  22.231  11.658
60310W        W32625  23.294   4.959  13.902
60311W        W32626  38.072  35.608  10.710
60312W        W32627  36.829  16.111   2.388
60313W        W32628  31.531  26.947  13.944
60314W        W32629  33.961  24.615  13.127
60315W        W32630  26.980  38.159   0.360
60316W        W32631  17.647  15.739  11.465
60317W        W32632  27.036   0.570   4.196
60318W        W32633  33.204  21.690   0.865
60319W        W32634  18.067  37.826   3.242
60320W        W32635  17.237  32.597  11.520
60321W        W32636  25.081  21.790   3.120
60322W        W32637  13.573  19.814  13.044
60323W        W32638  22.236  10.970  13.554
60324W        W32639  22.584  36.939  14.951
60325W        W32640  17.284  36.508   0.492
60326W        W32641  43.042  27.335   4.650
60327W        W32642  19.404   3.432   0.761
60328W        W32643  33.495  26.554  10.915
60329W        W32644  34.599   3.358   1.753
60330W        W32645  39.598   7.419  11.536
60331W        W32646   7.816  37.874   2.898
60332W        W32647  37.217  31.387   2.291
60333W        W32648  20.221   8.462   1.840
60334W        W32649  33.425  19.836   5.143
60335W        W32650  13.779  16.367  14.819
60336W        W32651  32.394  26.929  12.022
60337W        W32652  16.584   5.830   2.343
60338W        W32653  42.506   3.880   2.930
60339W        W32654   0.100   9.784   4.998
60340W        W32655   2.208  26.723  12.424
60341W        W32656   1.487   0.022   4.311
60342W        W32657  29.847  10.932   2.186
60343W        W32658  29.745   3.671  11.087
60344W        W32659  10.272  25.106   1.320
60345W        W32660  38.337  18.121   1.224
60346W        W32661  17.153   2.395  11.736
60347W        W32662  39.224  12.287   0.360
60348W        W32663  11.482  36.935  12.366
60349W        W32664  41.591  33.616   1.437
60350W        W32665  13.542   8.272  10.642
60351W        W32666   1.040   1.799   5.123
60352W        W32667   4.941  16.740   5.192
60353W        W32668  42.504   8.274  11.483
60354W        W32669  12.714  16.042   1.339
60355W        W32670  39.434  41.024   0.479
60356W        W32671   5.421  34.678   0.278
60357W        W32672  39.361  16.376   3.783
60358W        W32673  18.768  29.605   1.803
60359W        W32674  43.418  25.527   0.031
60360W        W32675  44.319  44.857  12.913
60361W        W32676  25.280   6.329   1.239
60362W        W32677  11.410  43.533  14.952
60363W        W32678  41.824  39.259  12.976
60364W        W32679  40.824  34.438   1.844
60365W        W32680  10.166  17.986   1.271
60366W        W32681  21.237  13.360  12.451
60367W        W32682  28.466  23.684  10.898
60368W        W32683   7.616  16.055   2.718
60369W        W32684   5.183  24.252   3.334
60370W        W32685  28.467  42.453   1.361
60371W        W32686  30.225  30.416   2.550
60372W        W32687  31.111  20.668   2.419
60373W        W32688  13.184  11.426  13.634
60374W        W32689  11.292  34.868   0.570
60375W        W32690  32.633  22.683  13.993
60376W        W32691  31.902  18.177  12.054
60377W        W32692  26.112  36.377   0.252
60378W        W32693   2.723  19.652  13.339
60379W        W32694  37.684  36.597  12.178
60380W        W32695   8.797  22.175  10.828
60381W        W32696  20.396   8.359  11.478
60382W        W32697   4.849   7.909   4.587
60383W        W32698  12.674  15.334   2.963
60384W        W32699  43.983  16.541  10.630
60385W        W32700   0.520  42.665  11.160
60386W        W32701  24.669  31.659  10.638
60387W        W32702  12.220   7.416  13.373
60388W        W32703   9.701  10.165   1.159
60389W        W32704  24.998  24.527  10.319
60390W        W32705   6.426  39.155   2.037
60391W        W32706   4.797  22.794   1.861
60392W        W32707  37.458  34.494  14.942
60393W        W32708  33.413  26.352   2.893
60394W        W32709  37.846  31.657  10.980
60395W        W32710  17.417   4.259  12.962
60396W        W32711  30.165  37.320   1.250
60397W        W32712  33.391  19.508  13.432
60398W        W32713  20.542  15.348  13.045
60399W        W32714  44.890   0.437  10.587
60400W        W32715  22.556  24.486  12.505
60401W        W32716  28.086  41.584  12.515
60402W        W32717  26.083  28.262   3.333
60403W        W32718  44.517  16.676   3.320
60404W        W32719  20.610  30.029  12.148
60405W        W32720   3.703  30.059  14.991
60406W        W32721  37.328  37.996  12.069
60407W        W32722  33.812  27.505   3.383
60408W        W32723  32.202  15.665   4.672
60409W        W32724  38.935   1.032   4.301
60410W        W32725  26.092  11.109   2.803
60411W        W32726  25.486  20.843  10.967
60412W        W32727  25.563  22.589   4.618
60413W        W32728  40.357  13.852   2.081
60414W        W32729  41.469  27.409  13.934
60415W        W32730  44.333  39.718   4.217
60416W        W32731  22.098   6.078  12.992
60417W        W32732  36.468  31.814  10.312
60418W        W32733  15.784  40.204   2.341
60419W        W32734  11.618  39.800   1.374
60420W        W32735  41.944   6.758  14.090
60421W        W32736  35.440  37.398   2.559
60422W        W32737  21.884  33.644   1.921
60423W        W32738  21.561  22.985   4.719
60424W        W32739  35.535  15.747   1.840
60425W        W32740  22.943  12.104   0.510
60426W        W32741   3.603  35.204   0.814
60427W        W32742  28.448  42.826   4.248
60428W        W32743  14.991  30.862  10.747
60429W        W32744   6.617  15.599  14.888
60430W        W32745   6.423  13.286  13.886
60431W        W32746  22.629  19.475   4.082
60432W        W32747  17.032  44.037   4.286
60433W        W32748  22.509  29.921  12.593
60434W        W32749  33.874  25.555   2.420
60435W        W32750  16.784  23.613   2.694
60436W        W32751  25.069  26.575   5.007
60437W        W32752  27.398  16.585   3.521
60438W        W32753  16.166  14.809  10.660
60439W        W32754  27.932  27.914  11.580
60440W        W32755   0.683  32.964  14.883
60441W        W32756   9.285   0.002   1.323
60442W        W32757  38.068  14.222  14.523
60443W        W32758  41.952  13.220  13.080
60444W        W32759  31.447  43.852  11.490
60445W        W32760  15.631   7.583  11.475
60446W        W32761  18.275   6.204   4.461
60447W        W32762  24.099  19.745   0.940
60448W        W32763  28.471   9.466   4.182
60449W        W32764   3.830   9.745   1.249
60450W        W32765  11.289  41.133   1.292
60451W        W32766  33.598  16.324   1.837
60452W        W32767  20.003  24.868   4.532
60453W        W32768   7.920  36.878  10.326
60454W        W32769  31.055  10.900  14.002
60455W        W32770  14.333  30.401  13.918
60456W        W32771   3.767  31.188  12.879
60457W        W32772  25.079  36.560   1.980
60458W        W32773   6.287  31.488   2.711
60459W        W32774  22.717   2.918  10.733
60460W        W32775  22.676   6.931   4.248
60461W        W32776  32.857  27.628  11.575
60462W        W32777  43.449  22.049   4.728
60463W        W32778  43.245  18.601  13.943
60464W        W32779   4.267  35.790  11.079
60465W        W32780   5.228  41.981  13.521
60466W        W32781  32.509  34.006   3.158
60467W        W32782  38.448  19.896   1.241
60468W        W32783  30.049  40.637   2.825
60469W        W32784  19.478  24.672   2.724
60470W        W32785  18.511  35.437  12.595
60471W        W32786  35.230  26.993  11.642
60472W        W32787  43.944  41.972   2.687
60473W        W32788  11.850  41.450  11.217
60474W        W32789  14.241  39.255  13.893
60475W        W32790  28.468   0.209   1.247
60476W        W32791  33.401  23.050  14.730
60477W        W32792  34.884  11.955   0.334
60478W        W32793  32.067  30.431   4.523
60479W        W32794  44.796  36.536   3.167
60480W        W32795  16.585  29.487   1.747
60481W        W32796  25.154  37.638  11.374
60482W        W32797  28.282   8.231  14.475
60483W        W32798  32.457   3.234   0.416
60484W        W32799  37.007  30.041   0.783
60485W        W32800  20.024  41.336  12.039
60486W        W32801  14.189  36.409   2.310
60487W        W32802   6.094  27.020  14.781
60488W        W32803  14.164  31.151  13.055
60489W        W32804  33.758  11.480  12.856
60490W        W32805  31.151  26.190   3.348
60491W        W32806  35.944  22.193   2.879
60492W        W32807  24.458  15.659   3.169
60493W        W32808   4.645  40.768  11.992
60494W        W32809  41.229  17.634  13.288
60495W        W32810   5.501  26.205   1.708
60496W        W32811   2.758  31.667  10.928
60497W        W32812   4.536  20.958   1.306
60498W        W32813  11.564  35.840   0.353
60499W        W32814   3.290  40.594  12.159
60500W        W32815  20.384  34.709  11.412
60501W        W32816  21.532  15.983   0.925
60502W        W32817   9.244   0.777   3.670
60503W        W32818  29.529  15.844   2.190
60504W        W32819  28.571   2.854  14.345
60505W        W32820   4.838  23.697   0.822
60506W        W32821  14.555   0.961  14.939
60507W        W32822  33.918  37.435   2.674
60508W        W32823  13.562   0.802  13.111
60509W        W32824  43.755  24.534  11.225
60510W        W32825  33.005   3.018  13.470
60511W        W32826   9.166  21.149   0.190
60512W        W32827  34.913  24.069  10.395
60513W        W32828  20.285  27.139  12.101
60514W        W32829  39.560   2.211   4.325
60515W        W32830  42.787  41.481   0.923
60516W        W32831  26.943  41.268  14.283
60517W        W32832   4.339  27.116  11.407
60518W        W32833  35.077  15.275   3.200
60519W        W32834  34.641  37.971  14.088
60520W        W32835  44.634  32.399  13.018
60521W        W32836  31.053  43.274  10.147
60522W        W32837  13.680  19.287   4.691
60523W        W32838   5.497   2.636  13.098
60524W        W32839  15.307  13.756  11.864
60525W        W32840  12.866  29.356  12.285
60526W        W32841  16.828  23.859  14.254
60527W        W32842  22.095  21.328  14.963
60528W        W32843  32.483   3.420  14.923
60529W        W32844  16.130  39.399   0.416
60530W        W32845   8.417   2.188   0.164
60531W        W32846  40.049  11.327  10.732
60532W        W32847  18.613  36.798  10.693
60533W        W32848   7.257  23.005  11.124
60534W        W32849  15.452   6.380  12.241
60535W        W32850  35.597  36.738  11.099
60536W        W32851  13.049   5.820   0.752
60537W        W32852  37.295   3.745   1.916
60538W        W32853  19.620  32.415  13.390
60539W        W32854  17.494  35.819   2.657
60540W        W32855   7.003  27.407   1.824
60541W        W32856   7.744   9.586  12.131
60542W        W32857  13.311  13.537  13.022
60543W        W32858  44.114  21.386   9.978
60544W        W32859   9.423  38.463  14.950
60545W        W32860  37.056   6.642  12.516
60546W        W32861  22.282  38.487  14.448
60547W        W32862  15.112  15.828   2.345
60548W        W32863   5.206  21.505  12.537
60549W        W32864   3.899  35.875  10.717
60550W        W32865   1.664  16.264  12.257
60551W        W32866   2.849  39.077   1.719
60552W        W32867  17.555  42.240  14.729
60553W        W32868  35.650   2.040  13.154
60554W        W32869  22.994   7.676   2.858
60555W        W32870  20.082   5.957   2.221
60556W        W32871  34.307  20.227   3.311
60557W        W32872  39.752   2.302  11.114
60558W        W32873   5.082  37.250   3.309
60559W        W32874  17.271  43.857   1.755
60560W        W32875   9.832  29.591  12.431
60561W        W32876  39.065  22.730   4.060
60562W        W32877   7.606   6.173  11.772
60563W        W32878   7.807  34.986  14.369
60564W        W32879   0.764  16.998  12.181
60565W        W32880  33.113  26.556   0.063
60566W        W32881  24.734  37.898   1.563
60567W        W32882  19.213   8.406  13.847
60568W        W32883  39.296  10.134   9.786
60569W        W32884  39.278  29.196  13.665
60570W        W32885  24.056  35.513   2.505
60571W        W32886  27.888  32.417  14.847
60572W        W32887   4.430  35.329   0.574
60573W        W32888   0.962  21.103  13.736
60574W        W32889   6.595   1.755   4.602
60575W        W32890   2.922  41.950  10.631
60576W        W32891  18.215  23.507   1.326
60577W        W32892   5.058   2.755  14.586
60578W        W32893  38.825  43.738  13.943
60579W        W32894   0.690   8.426   2.209
60580W        W32895   7.144  16.787   2.203
60581W        W32896  38.870  32.311  14.039
60582W        W32897  12.166  37.830  12.888
60583W        W32898  44.913   6.473   1.838
60584W        W32899  40.336  31.909   3.780
60585W        W32900  10.774  18.493   0.437
60586W        W32901  39.741  20.639   1.865
60587W        W32902   2.970  21.121  10.469
60588W        W32903  35.080  42.553  12.090
60589W        W32904   6.101  19.312  14.804
60590W        W32905  40.424  17.975   4.079
60591W        W32906   0.223  23.292   0.207
60592W        W32907  11.687  14.987   1.447
60593W        W32908  18.568  21.342   3.357
60594W        W32909   0.492  40.156  11.211
60595W        W32910  39.359   3.735   2.352
60596W        W32911  27.096  36.466  13.430
60597W        W32912  10.399   5.120   2.459
60598W        W32913  33.529  17.762   2.388
60599W        W32914   7.129  11.091  14.519
60600W        W32915  34.021  15.226   2.471
60601W        W32916  30.254  32.100   3.258
60602W        W32917   8.404  23.282   3.333
60603W        W32918  15.677  31.746  12.150
60604W        W32919  11.243  14.110   3.240
60605W        W32920   8.701   7.350   1.443
60606W        W32921  40.288  23.476   4.394
60607W        W32922  12.440  17.670  10.517
60608W        W32923  18.248  28.502   0.690
60609W        W32924  42.293  32.446  14.271
60610W        W32925  41.494  44.497  12.361
60611W        W32926  26.587  15.584  14.324
60612W        W32927  32.029  25.738   3.358
60613W        W32928   0.929  30.816  13.981
60614W        W32929  13.319  43.506   3.821
60615W        W32930   8.646   9.800   2.398
60616W        W32931   3.387  39.786  14.945
60617W        W32932   6.043   2.968   4.416
60618W        W32933  21.301  10.559  13.941
60619W        W32934  35.306   6.532  13.133
60620W        W32935  39.075  20.692  11.423
60621W        W32936  17.011  14.042   4.990
60622W        W32937  34.569   3.762   3.943
60623W        W32938  26.173  18.757  14.349
60624W        W32939  43.074  38.808   2.380
60625W        W32940  44.038   4.125  11.183
60626W        W32941   8.430  20.635   1.166
60627W        W32942   6.609  14.332  13.349
60628W        W32943  30.954  27.606   4.194
60629W        W32944  41.884  16.845  11.849
60630W        W32945  30.161  31.834  10.974
60631W        W32946   0.398  31.974  11.936
60632W        W32947  34.876  43.271   1.262
60633W        W32948  15.575  20.521  14.925
60634W        W32949  44.306   4.779   2.890
60635W        W32950  41.390  29.715  12.563
60636W        W32951  16.307   2.409   2.416
60637W        W32952  41.055  12.671  13.033
60638W        W32953  31.523  23.966  13.591
60639W        W32954  11.388   8.141   1.329
60640W        W32955  23.154   2.157   1.883
60641W        W32956  25.734   6.419   4.636
60642W        W32957   4.977  31.123  14.893
60643W        W32958  37.827  41.774   4.273
60644W        W32959  20.668  29.414  10.697
60645W        W32960   7.506  11.872   3.994
60646W        W32961  30.941   5.373  13.469
60647W        W32962  35.362  18.184  12.102
60648W        W32963  18.867  29.820  11.517
60649W        W32964   4.280  32.657  14.908
60650W        W32965  31.726  19.592   4.556
60651W        W32966   8.444  18.817  11.103
60652W        W32967  27.881  20.741  11.112
60653W        W32968   0.550  21.340  10.410
60654W        W32969  31.189  38.739   3.664
60655W        W32970  30.573  22.552  12.143
60656W        W32971  28.990  35.088   0.361
60657W        W32972   1.198  15.663  11.608
60658W        W32973  25.490  34.466  11.517
60659W        W32974  36.402  11.172   3.045
60660W        W32975  41.920  25.642  11.668
60661W        W32976  36.123  27.494  14.794
60662W        W32977  16.629   6.974  12.775
60663W        W32978  15.306  22.419  11.031
60664W        W32979  17.441  14.127   0.321
60665W        W32980  44.069  17.612  11.175
60666W        W32981  17.554   4.938   2.803
60667W        W32982   5.421  21.132   0.263
60668W        W32983   1.529   6.264   2.266
60669W        W32984  12.126  13.072  11.202
60670W        W32985  16.591  29.035   4.351
60671W        W32986   6.723  13.290  11.643
60672W        W32987   6.822  42.271  13.006
60673W        W32988  38.043   7.853   0.819
60674W        W32989   5.541  24.087   2.669
60675W        W32990   6.219  14.076  11.749
60676W        W32991   6.206   1.307  14.922
60677W        W32992  19.797  10.844  14.997
60678W        W32993  34.190   3.640   0.219
60679W        W32994  26.532  13.922   1.456
60680W        W32995  23.640   3.199   2.357
60681W        W32996  14.859  36.045   3.015
60682W        W32997  22.458  27.542  10.945
60683W        W32998  18.987   6.491  11.212
60684W        W32999  14.740  30.010  12.799
60685W        W33000  11.259  12.620  12.867
60686W        W33001  24.673  41.719  14.543
60687W        W33002  19.198  31.369   1.312
60688W        W33003   1.537  36.099   4.518
60689W        W33004   8.637  23.524   3.988
60690W        W33005  29.190  33.471  11.973
60691W        W33006   6.301  34.413   0.841
60692W        W33007  15.240   0.325  12.671
60693W        W33008  19.041  18.816   4.152
60694W        W33009  33.675  21.098  14.053
60695W        W33010   7.817  43.520   2.154
60696W        W33011  42.516  17.095   3.677
60697W        W33012  12.359  12.283   3.648
60698W        W33013   4.690  26.255   1.298
60699W        W33014  21.573   0.011   3.251
60700W        W33015  35.930  37.488   0.345
60701W        W33016  34.677  43.451   0.211
60702W        W33017  39.467  32.807   4.097
60703W        W33018  38.961  14.906  10.747
60704W        W33019  37.333   4.663  10.356
60705W        W33020  33.425  41.055  13.799
60706W        W33021  36.488  39.271   0.752
60707W        W33022  17.781  13.156  13.846
60708W        W33023   4.882   7.287  14.709
60709W        W33024  12.807  20.597   4.547
60710W        W33025  13.546  36.481  11.934
60711W        W33026  30.307  19.714  12.814
60712W        W33027  42.265   0.173   0.326
60713W        W33028  14.691  11.908   1.503
60714W        W33029  10.479  28.832  12.587
60715W        W33030  15.296  33.606   4.182
60716W        W33031   7.777   4.725   1.737
60717W        W33032  27.144  23.245   1.191
60718W        W33033   0.476  35.115   2.530
60719W        W33034  33.574  24.225  11.566
60720W        W33035  40.845  32.097  13.326
60721W        W33036  10.422  32.143  12.383
60722W        W33037  15.579  18.687  10.980
60723W        W33038  35.431  39.830  13.922
60724W        W33039  10.383  22.167   4.160
60725W        W33040  34.535  39.260  13.671
60726W        W33041   6.922  21.889  13.025
60727W        W33042  37.988  19.241   4.396
60728W        W33043   1.774   1.012   2.255
60729W        W33044  33.947  25.706   2.914
60730W        W33045  39.063  12.503  10.482
60731W        W33046  21.125  40.302   0.505
60732W        W33047   9.398   8.937  13.402
60733W        W33048  31.912  16.483  12.285
60734W        W33049  22.571  20.665  14.336
60735W        W33050   8.453   0.463   0.349
60736W        W33051  43.001  34.945   3.827
60737W        W33052  30.929   9.825   1.679
60738W        W33053  15.535  13.706  13.376
60739W        W33054  42.374   0.553  13.502
60740W        W33055   8.377  18.309  11.060
60741W        W33056  42.088  38.080  14.005
60742W        W33057  16.067  16.775  14.798
60743W        W33058  40.500   3.657   2.367
60744W        W33059  11.106  31.177   2.269
60745W        W33060  25.520  44.868  11.513
60746W        W33061   7.306  42.482  14.470
60747W        W33062  40.966   3.927  10.718
60748W        W33063   5.937  44.874   0.697
60749W        W33064  40.868   6.349   4.875
60750W        W33065  17.736  18.511   2.825
60751W        W33066   4.458   0.892   3.233
60752W        W33067  11.941  10.924   4.528
60753W        W33068  15.562  43.829   3.297
60754W        W33069  31.312   4.264   4.127
60755W        W33070  23.056  38.641  14.831
60756W        W33071  16.466   9.899  14.812
60757W        W33072  28.064  19.444   1.778
60758W        W33073   0.738  13.575  11.846
60759W        W33074   0.755   3.739  13.327
60760W        W33075   8.125  43.012  10.753
60761W        W33076  18.687  26.349   3.023
60762W        W33077  11.283  18.211   2.917
60763W        W33078  13.632   3.642   2.780
60764W        W33079  28.173  12.470  11.498
60765W        W33080  18.192  15.340   1.250
60766W        W33081  34.038  21.002   3.250
60767W        W33082   8.011   9.270   1.306
60768W        W33083  40.251  21.213  11.927
60769W        W33084  36.789  29.475  10.485
60770W        W33085   7.070   6.750   4.418
60771W        W33086  15.736   4.238   9.992
60772W        W33087  34.498  16.130   4.851
60773W        W33088  24.142  40.326   4.493
60774W        W33089  13.292  10.336  12.511
60775W        W33090   1.799  10.928  11.008
60776W        W33091   0.025   2.732   3.311
60777W        W33092   8.672  33.658  11.961
60778W        W33093   9.345  14.408  14.811
60779W        W33094  34.568   0.926  12.479
60780W        W33095   5.234  30.042  14.345
60781W        W33096  15.694  10.393   0.810
60782W        W33097  44.704  13.659  11.196
60783W        W33098   6.438   1.490   3.510
60784W        W33099  28.680  33.451   2.835
60785W        W33100  42.772   3.473   1.266
60786W        W33101  44.372  16.387   4.600
60787W        W33102  34.429   5.771  11.843
60788W        W33103  10.301  43.750  13.448
60789W        W33104   9.184   0.990   0.355
60790W        W33105   7.342  30.843  12.936
60791W        W33106  27.457  14.085   2.675
60792W        W33107  37.754   5.517   4.198
60793W        W33108  40.934   0.975  14.723
60794W        W33109  41.001  41.068   4.613
60795W        W33110  23.452  20.577  13.471
60796W        W33111   9.377  36.112  12.413
60797W        W33112   6.203  22.055  12.581
60798W        W33113  39.855  29.917   2.753
60799W        W33114   0.147  34.310  12.202
60800W        W33115  28.611  17.620   2.197
60801W        W33116  20.695   9.173  14.794
60802W        W33117  36.932  33.160   4.161
60803W        W33118   8.442  36.737  14.324
60804W        W33119  23.065   3.992  14.981
60805W        W33120  15.330  33.140   1.815
60806W        W33121   6.643  19.200   0.839
60807W        W33122  32.069   0.441  11.678
60808W        W33123  34.309  41.622   0.021
60809W        W33124  40.824  17.349   0.420
60810W        W33125  13.723  36.005  11.902
60811W        W33126  39.238   2.350   4.707
60812W        W33127  35.958   3.489   3.257
60813W        W33128  32.507  12.102  13.551
60814W        W33129   3.127  38.603   3.289
60815W        W33130  16.821   8.139  11.074
60816W        W33131   4.002  29.131  11.720
60817W        W33132  17.244  19.300  12.680
60818W        W33133  12.232  32.434  13.791
60819W        W33134  12.260  19.513  10.684
60820W        W33135   2.512  44.270   3.165
60821W        W33136  33.999  28.811   0.663
60822W        W33137   9.065  41.069  11.512
60823W        W33138  22.094   1.325  13.541
60824W        W33139  12.116   0.611  11.264
60825W        W33140  36.574  14.758  11.401
60826W        W33141  13.082  24.390  14.748
60827W        W33142  11.580  43.405   4.830
60828W        W33143  14.362  43.559  11.508
60829W        W33144  18.331  30.009  14.320
60830W        W33145  36.401  42.932   5.011
60831W        W33146  43.090  12.432  10.109
60832W        W33147  37.345   0.825  13.012
60833W        W33148  30.616  16.382  11.846
60834W        W33149  15.007  16.186   0.381
60835W        W33150  28.644  23.936  13.423
60836W        W33151  42.199  37.953   4.399
60837W        W33152   0.013  20.629   3.958
60838W        W33153  13.684  37.955   4.529
60839W        W33154  24.714   3.258   1.369
60840W        W33155   9.155  33.294  12.485
60841W        W33156  11.797  21.020   0.540
60842W        W33157  21.042  31.670   0.259
60843W        W33158  22.582   2.807   1.994
60844W        W33159  13.791  19.055   1.740
60845W        W33160  44.419  28.893  11.469
60846W        W33161  28.902  24.589   4.236
60847W        W33162  29.442   8.594   5.157
60848W        W33163  38.774   4.218   1.903
60849W        W33164  13.948   5.762  10.654
60850W        W33165  18.256  22.008   3.125
60851W        W33166  29.490  32.038   5.284
60852W        W33167  24.671  20.172  11.182
60853W        W33168  19.089  18.243  12.981
60854W        W33169   9.198   4.459  14.481
60855W        W33170  37.379  13.284   4.864
60856W        W33171  32.194  40.447  11.140
60857W        W33172  20.174  13.735   2.238
60858W        W33173   3.854  36.416  10.684
60859W        W33174  35.390  44.317  13.897
60860W        W33175   5.129  38.281  11.533
60861W        W33176  17.861  23.478   4.359
60862W        W33177   3.174  44.874  13.006
60863W        W33178  34.877   5.817  12.205
60864W        W33179  28.529   6.437   2.254
60865W        W33180  39.909  25.768  10.651
60866W        W33181  24.987   4.296   5.057
60867W        W33182  23.076   8.154   1.482
60868W        W33183  11.278  23.549  11.564
60869W        W33184  40.483  28.232  13.293
60870W        W33185  18.882   9.489   0.669
60871W        W33186   4.313  30.527   0.528
60872W        W33187  30.627  18.260  13.005
60873W        W33188  36.643  14.116   4.284
60874W        W33189  42.234  12.211   2.356
60875W        W33190  13.128  26.912   0.670
60876W        W33191   7.695  11.248   4.678
60877W        W33192   2.907  16.230   0.702
60878W        W33193  37.717   4.786  10.681
60879W        W33194  33.488   6.502   4.110
60880W        W33195  23.504   7.664   2.839
60881W        W33196  33.445  26.081  11.148
60882W        W33197  29.345  43.939  11.107
60883W        W33198  39.484  13.858  13.401
60884W        W33199   9.599   5.642  13.943
60885W        W33200  42.126  26.907  14.397
60886W        W33201  35.070  26.836   2.249
60887W        W33202  11.217   7.796  10.476
60888W        W33203   0.941   4.174  12.048
60889W        W33204  25.682  27.762   1.469
60890W        W33205  25.632  43.498  10.662
60891W        W33206  22.105  28.458  14.811
60892W        W33207   9.293  35.283  13.376
60893W        W33208  13.686  23.723   4.612
60894W        W33209  34.153  13.374  12.914
60895W        W33210   2.840   0.786   2.407
60896W        W33211  29.487  32.468  12.454
60897W        W33212   9.668  36.442  14.031
60898W        W33213  25.737   3.321  12.121
60899W        W33214  27.944  42.826   4.164
60900W        W33215  31.094  20.312   3.670
60901W        W33216  17.319  34.835   4.953
60902W        W33217  37.545  24.993  13.419
60903W        W33218   8.271  32.397   2.714
60904W        W33219  15.852  21.119  10.296
60905W        W33220   6.866  44.771   2.171
60906W        W33221   2.672   9.817  11.993
60907W        W33222  44.307  41.585   2.727
60908W        W33223  21.205  23.231   1.724
60909W        W33224  20.073  14.293   3.744
60910W        W33225  18.285  17.693  14.503
60911W        W33226  14.102  26.453  13.851
60912W        W33227  20.645  28.246  12.599
60913W        W33228  16.293  10.845   1.774
60914W        W33229  10.356  44.792  11.930
60915W        W33230  36.877   9.738  12.912
60916W        W33231  21.148  28.021  13.963
60917W        W33232  35.914  41.815  14.270
60918W        W33233   4.976  32.568  13.587
60919W        W33234   3.699   5.402  10.828
60920W        W33235  28.577  29.465  13.061
60921W        W33236  29.494  24.090  11.311
60922W        W33237  32.630   2.126  14.392
60923W        W33238  21.486  30.541   0.667
60924W        W33239  29.540  39.079  13.367
60925W        W33240   6.002  23.989  12.886
60926W        W33241  16.676  28.561  12.699
60927W        W33242  10.418  10.259   4.770
60928W        W33243  17.192  37.531  10.244
60929W        W33244  10.874  33.695  13.427
60930W        W33245  17.796  19.063   0.257
60931W        W33246  24.148  34.203  11.208
60932W        W33247  36.181  18.064   3.659
60933W        W33248  12.294  36.370   0.326
60934W        W33249   0.723   9.092  11.936
60935W        W33250  21.677  21.464   9.696
60936W        W33251  13.367  28.651  10.387
60937W        W33252  24.657  44.472   0.741
60938W        W33253  30.005  32.656   4.124
60939W        W33254   8.117  27.010  11.545
60940W        W33255  20.451  44.069   0.758
60941W        W33256   7.156  16.781  14.299
60942W        W33257   8.473  34.038   3.262
60943W        W33258  20.956  31.500  13.361
60944W        W33259  35.975  42.938  12.637
60945W        W33260  15.424  14.608  10.217
60946W        W33261  32.996  25.528   3.279
60947W        W33262  17.786  22.559  14.810
60948W        W33263   4.193  11.057   3.895
60949W        W33264   3.465  43.405   0.833
60950W        W33265   6.863  20.266   1.889
60951W        W33266  28.415  33.608  13.894
60952W        W33267  29.207  17.778  14.233
60953W        W33268  14.035   1.566  13.081
60954W        W33269  21.716  14.286  12.206
60955W        W33270  20.488  18.108  11.962
60956W        W33271  14.896  29.303   3.614
60957W        W33272  37.970  35.443   3.677
60958W        W33273   7.577   0.859   1.414
60959W        W33274  13.433  12.790   1.492
60960W        W33275   1.698   2.935  10.533
60961W        W33276  26.665  44.772   4.247
60962W        W33277  43.775  40.543   4.219
60963W        W33278  42.286  36.321   2.765
60964W        W33279  43.023  40.006  11.153
60965W        W33280   1.931  23.490   3.667
60966W        W33281  22.459  34.426  14.288
60967W        W33282  29.343  24.143  11.801
60968W        W33283  43.022   3.703  14.526
60969W        W33284  44.595  16.297  13.579
60970W        W33285   1.453  23.061  14.234
60971W        W33286  20.096  43.403   4.353
60972W        W33287  25.903  16.106   4.058
60973W        W33288  14.190  43.185   0.862
60974W        W33289  33.769   3.843  11.021
60975W        W33290  10.935   6.686  14.313
60976W        W33291  25.540  30.179  12.666
60977W        W33292   1.200  34.957  11.081
60978W        W33293   6.245  13.084  14.345
60979W        W33294   8.418  10.688  13.687
60980W        W33295  24.556   0.999  13.827
60981W        W33296  41.988   3.306   1.719
60982W        W33297  32.578  27.328   4.791
60983W        W33298   2.026  11.301  13.906
60984W        W33299  42.842  28.425  10.642
60985W        W33300  25.651   4.724  10.642
60986W        W33301  10.199  21.054  14.548
60987W        W33302  13.611   3.247   1.300
60988W        W33303  44.059   6.946  10.677
60989W        W33304  35.215  30.631  14.841
60990W        W33305   1.982  23.767  12.553
60991W        W33306  16.382  14.644   2.295
60992W        W33307  23.277  29.082  11.125
60993W        W33308  21.261  10.708  11.401
60994W        W33309  42.103   2.931   1.144
60995W        W33310  13.264  21.068   2.382
60996W        W33311  35.493  38.313  12.907
60997W        W33312  38.674  23.224   2.844
60998W        W33313  29.600   4.964   1.769
60999W        W33314  44.747  12.888  11.486
61000W        W33315   0.921  39.894  11.888
61001W        W33316  43.953  38.324  12.433
61002W        W33317  24.394  29.721  13.015
61003W        W33318  27.237   7.520  13.424
61004W        W33319   8.255  39.579   0.866
61005W        W33320  26.730  35.174  13.033
61006W        W33321  20.032  44.806  14.773
61007W        W33322  39.047   2.035   0.965
61008W        W33323  10.284  42.779   4.590
61009W        W33324  28.642  22.091   2.676
61010W        W33325  39.444  44.008   0.868
61011W        W33326   2.843  25.652  12.864
61012W        W33327   5.897  12.231   0.219
61013W        W33328  27.818  10.968   1.259
61014W        W33329  44.778  20.679   4.418
61015W        W33330   5.200   1.375  14.668
61016W        W33331  21.142  41.972  14.312
61017W        W33332   8.121   6.715  10.668
61018W        W33333  17.242  18.631   0.751
61019W        W33334  30.415  37.831  10.351
61020W        W33335   8.269  44.867   2.768
61021W        W33336  25.040  23.253   2.766
61022W        W33337   1.009  18.339  11.058
61023W        W33338  32.953  35.936  13.895
61024W        W33339   7.837   4.691  11.180
61025W        W33340  22.981  40.999   1.409
61026W        W33341  14.103  14.618  11.462
61027W        W33342   4.171   8.192   3.215
61028W        W33343   4.304  17.174   4.735
61029W        W33344  28.479  11.878   1.557
61030W        W33345  39.584  43.744  14.473
61031W        W33346  16.281  10.613   3.364
61032W        W33347  13.382   8.387   4.128
61033W        W33348  29.104  10.432   1.811
61034W        W33349   9.307  14.339   1.490
61035W        W33350  41.591  34.153   4.358
61036W        W33351  34.844   3.711  13.885
61037W        W33352   5.725  14.752   4.632
61038W        W33353  23.184  22.510  11.111
61039W        W33354  23.131  22.061  10.314
61040W        W33355  16.354  19.651  13.841
61041W        W33356  15.089  40.798  11.904
61042W        W33357   1.229  26.939  11.989
61043W        W33358  33.366   4.473  10.532
61044W        W33359   6.594  21.210  11.630
61045W        W33360   2.837   0.397  12.439
61046W        W33361  11.700  27.986   1.392
61047W        W33362  43.369  29.954   0.778
61048W        W33363  18.146  34.920   2.402
61049W        W33364  35.745  19.627  12.967
61050W        W33365  40.434  30.321  14.397
61051W        W33366   4.980   8.377   2.832
61052W        W33367   5.425  40.495   4.286
61053W        W33368  36.995  27.406  12.974
61054W        W33369  38.951  37.354   3.763
61055W        W33370   1.189  28.904  12.803
61056W        W33371  12.413  31.009   0.782
61057W        W33372  26.834  41.597   3.990
61058W        W33373  21.984  40.007   1.341
61059W        W33374  16.112  20.276   1.888
61060W        W33375   2.379   7.998  14.854
61061W        W33376  41.799  22.763   1.899
61062W        W33377  41.816  36.652   3.229
61063W        W33378  26.084   3.656  13.187
61064W        W33379  29.744  44.254  11.228
61065W        W33380  31.990  43.586  14.473
61066W        W33381  11.700  41.484  13.526
61067W        W33382  24.943   6.605  14.796
61068W        W33383  28.211   0.278   0.768
61069W        W33384   4.438   3.775  13.984
61070W        W33385   6.246  14.848  12.418
61071W        W33386  10.694   4.246  12.212
61072W        W33387   7.876  15.200   4.885
61073W        W33388  44.714  28.975   0.707
61074W        W33389  40.428  32.072  12.133
61075W        W33390  28.530  42.727   0.914
61076W        W33391  14.206  36.962   1.085
61077W        W33392  23.806  43.970   4.317
61078W        W33393  11.190  32.722  11.498
61079W        W33394  35.704  25.168  10.680
61080W        W33395  34.250  11.382  12.114
61081W        W33396  23.663  31.500   4.043
61082W        W33397  22.704  12.543  12.446
61083W        W33398  16.311  40.807   3.289
61084W        W33399   9.208  24.580  10.546
61085W        W33400  28.927   2.896   1.483
61086W        W33401  20.708  24.924  12.961
61087W        W33402   6.371  40.422  12.891
61088W        W33403  15.750  29.261   2.867
61089W        W33404   4.386  42.073  14.890
61090W        W33405  33.901  20.618   2.872
61091W        W33406   0.370  35.034   1.571
61092W        W33407  15.709   2.901  13.898
61093W        W33408  43.494  44.924   4.383
61094W        W33409  11.183  34.129  12.031
61095W        W33410  42.611  33.183   3.445
61096W        W33411   4.498  17.794  13.972
61097W        W33412   4.805  20.583  11.675
61098W        W33413  33.594   1.300   4.672
61099W        W33414  17.109  34.824  12.695
61100W        W33415  16.965   9.680  11.601
61101W        W33416  11.425   7.911  12.408
61102W        W33417   5.261  14.197  10.682
61103W        W33418   9.772   6.948   4.553
61104W        W33419  31.883  15.569  14.041
61105W        W33420  26.057  18.435  13.925
61106W        W33421  31.010   3.827  10.789
61107W        W33422  15.192   3.874   4.552
61108W        W33423  43.766  34.905  10.639
61109W        W33424  42.280  34.514  13.046
61110W        W33425   2.639  32.602   3.630
61111W        W33426  29.777  35.943   4.194
61112W        W33427  41.519   4.974   3.363
61113W        W33428  16.043  13.757   1.892
61114W        W33429   8.705   6.860  10.687
61115W        W33430  37.806   9.256   4.780
61116W        W33431  34.951  19.340  12.834
61117W        W33432  27.988  41.080  11.089
61118W        W33433   5.983  41.813  10.776
61119W        W33434  11.678   9.913  14.774
61120W        W33435  33.442  19.146   2.552
61121W        W33436  18.602  32.911   0.410
61122W        W33437  20.786  42.396   2.237
61123W        W33438  41.338   1.000   0.484
61124W        W33439  36.103  35.145   4.520
61125W        W33440   7.782  15.638  11.118
61126W        W33441  30.142  40.941  11.948
61127W        W33442   5.656  25.900  14.950
61128W        W33443   4.361  29.535  10.943
61129W        W33444  39.333  28.867   0.672
61130W        W33445  35.324  20.785   1.715
61131W        W33446  25.882  16.933   2.856
61132W        W33447  35.129  37.043   4.717
61133W        W33448  11.178  38.349   2.958
61134W        W33449  37.816  22.639  11.137
61135W        W33450  14.026  10.659  14.387
61136W        W33451  34.913   5.936  11.710
61137W        W33452  31.082  37.981  11.544
61138W        W33453  27.132  41.845   2.676
61139W        W33454  16.233  24.654  13.387
61140W        W33455  22.207  35.049  13.787
61141W        W33456   6.724  10.675  11.451
61142W        W33457  22.577   5.169  11.507
61143W        W33458  30.119  18.832  12.608
61144W        W33459  12.298  15.343   0.946
61145W        W33460   2.747  41.487  10.444
61146W        W33461  16.418  30.346  13.635
61147W        W33462   2.428  25.319  12.826
61148W        W33463  31.165  19.148  10.640
61149W        W33464  14.798  24.646  13.923
61150W        W33465  26.754  29.349   3.756
61151W        W33466   3.461  37.986  14.336
61152W        W33467  36.562  39.000   2.382
61153W        W33468   5.336  43.181  14.963
61154W        W33469   2.411  19.682   1.287
61155W        W33470   7.124  27.550   3.116
61156W        W33471  41.418  27.750   2.815
61157W        W33472  37.558  32.998   1.716
61158W        W33473  13.568   1.425  10.469
61159W        W33474  18.241  29.970  10.987
61160W        W33475  43.691  12.171  12.943
61161W        W33476  22.902   0.974  11.837
61162W        W33477  12.200  16.313  10.878
61163W        W33478  28.566  20.442  12.330
61164W        W33479   3.769  34.958  12.839
61165W        W33480  14.741  38.958   2.896
61166W        W33481   7.645   4.232   3.429
61167W        W33482  24.592  40.561   4.367
61168W        W33483  40.884   0.360  14.062
61169W        W33484  13.099  44.556   3.326
61170W        W33485  32.425   3.941   2.507
61171W        W33486  34.438  39.127  14.237
61172W        W33487  18.228  42.025   0.944
61173W        W33488  21.045  17.207  13.094
61174W        W33489  41.028  24.495  13.332
61175W        W33490  37.508  42.058   5.143
61176W        W33491  16.611   5.198   4.177
61177W        W33492  41.295   1.939   4.469
61178W        W33493  44.345  20.982  12.946
61179W        W33494  38.270  37.822  12.803
61180W        W33495  34.144  40.918  12.100
61181W        W33496  24.594   5.808  11.042
61182W        W33497  26.247  11.762  13.974
61183W        W33498  10.306  28.741   4.857
61184W        W33499  14.767  15.811   1.413
61185W        W33500  14.886  32.540  11.926
61186W        W33501   7.871   7.641   0.624
61187W        W33502  11.821  24.579   1.039
61188W        W33503  38.004  13.252   1.928
61189W        W33504   9.893  17.668   3.067
61190W        W33505  33.932   0.818   0.887
61191W        W33506  33.347  15.066  14.297
61192W        W33507  16.318   6.732   2.781
61193W        W33508   3.858  14.395  10.679
61194W        W33509   0.793  19.887  11.040
61195W        W33510  25.418  16.631   3.686
61196W        W33511  40.137   1.611   4.866
61197W        W33512  12.671   0.453   4.422
61198W        W33513  32.537  21.517  14.277
61199W        W33514  20.535  34.468  10.514
61200W        W33515  19.279  40.991  14.945
61201W        W33516   8.300   4.026   0.413
61202W        W33517  11.917   4.808   0.694
61203W        W33518   3.552  22.144  14.128
61204W        W33519   2.844  40.427  11.116
61205W        W33520  44.574   4.244  12.969
61206W        W33521   6.991   0.483  13.724
61207W        W33522  35.075   2.803  10.748
61208W        W33523  27.575  19.323   4.127
61209W        W33524  26.567   9.159   2.327
61210W        W33525   5.620   0.554   4.753
61211W        W33526  25.788  27.591  14.318
61212W        W33527  23.074  43.537   0.081
61213W        W33528   2.919  15.641   4.542
61214W        W33529  33.553   8.813   2.695
61215W        W33530   8.277   7.390   4.108
61216W        W33531  32.314  21.742   0.153
61217W        W33532  23.637  15.116   4.618
61218W        W33533  42.547  32.631  11.563
61219W        W33534  43.004  28.921  10.587
61220W        W33535  27.985   9.000  12.735
61221W        W33536  13.565  16.716   1.627
61222W        W33537  27.992   8.697   4.156
61223W        W33538  35.529  27.516  13.396
61224W        W33539  40.884  35.164  13.026
61225W        W33540  21.981  29.004  13.978
61226W        W33541   5.180  44.855   4.484
61227W        W33542  25.511  32.999  14.055
61228W        W33543  34.896  28.174  13.341
61229W        W33544  13.651  42.217   3.775
61230W        W33545  38.463  20.107   1.735
61231W        W33546  15.529   6.427   2.673
61232W        W33547   0.367  27.706  10.863
61233W        W33548  19.533  36.591  14.189
61234W        W33549   0.377  41.530  14.724
61235W        W33550   5.226  29.219   4.186
61236W        W33551  24.278  18.198  11.486
61237W        W33552   6.849  10.563   2.491
61238W        W33553  34.095  23.238   2.100
61239W        W33554  31.743  14.296   5.110
61240W        W33555   5.523  32.649  14.355
61241W        W33556  39.399  37.535  12.449
61242W        W33557   5.435  22.263  11.965
61243W        W33558  41.577  29.672  10.700
61244W        W33559   3.806   5.793   4.118
61245W        W33560  10.144  23.557   1.953
61246W        W33561   4.576  19.587   0.377
61247W        W33562  14.374  35.653  13.402
61248W        W33563  13.112  20.547  11.006
61249W        W33564  37.314  41.267   0.471
61250W        W33565  37.047  41.266   0.963
61251W        W33566  29.777  18.249   3.830
61252W        W33567  16.735  31.985   4.667
61253W        W33568  19.464  41.530   0.872
61254W        W33569  34.783  30.692  13.883
61255W        W33570  10.430  38.879  12.851
61256W        W33571  33.352  44.201  14.203
61257W        W33572   7.233  27.931   2.787
61258W        W33573  23.612  12.338  12.902
61259W        W33574  16.681  22.879  12.629
61260W        W33575  29.442  20.886  13.782
61261W        W33576  44.446  19.183   0.221
61262W        W33577   7.462  17.167  14.547
61263W        W33578  42.483   4.881   4.167
61264W        W33579   0.765  37.887  11.992
61265W        W33580  22.139   0.056  10.401
61266W        W33581   4.780   5.012  11.488
61267W        W33582   1.725  27.823  14.961
61268W        W33583  23.567  36.823   3.796
61269W        W33584   4.764  19.578   3.320
61270W        W33585  13.225   6.670   1.949
61271W        W33586  26.294  35.163  13.374
61272W        W33587  34.147   3.181   1.007
61273W        W33588   3.381  12.134  13.758
61274W        W33589  41.879  34.146   2.308
61275W        W33590  13.311   3.407  12.566
61276W        W33591  44.734  34.018   3.177
61277W        W33592  35.399  32.052  14.906
61278W        W33593  36.304   4.243  12.040
61279W        W33594  16.806  32.830  11.278
61280W        W33595  29.624  35.267  13.551
61281W        W33596  42.228  36.353   1.671
61282W        W33597  15.311  16.671   1.513
61283W        W33598  17.823  44.524  12.690
61284W        W33599   7.089  36.261  11.705
61285W        W33600  29.031  25.957  14.581
61286W        W33601  14.433  41.611   1.698
61287W        W33602   6.778  28.414   1.362
61288W        W33603  13.737   6.383   3.279
61289W        W33604   8.714  20.001  12.484
61290W        W33605   4.795  43.765  13.431
61291W        W33606  26.319  21.247  14.267
61292W        W33607  16.320  18.243  14.069
61293W        W33608  22.257   4.599   4.212
61294W        W33609  15.617  34.942   3.673
61295W        W33610  16.866  42.050  12.026
61296W        W33611  26.949  31.747  13.002
61297W        W33612  24.520  10.726  11.065
61298W        W33613   1.990   2.759  14.821
61299W        W33614  26.204   6.351  10.175
61300W        W33615   4.746  40.874  11.121
61301W        W33616  17.135  24.922  12.974
61302W        W33617  43.352  29.916  11.568
61303W        W33618  29.750   9.376  14.687
61304W        W33619  28.956   8.916   3.134
61305W        W33620  39.111  16.589   1.515
61306W        W33621  17.205  26.114   3.324
61307W        W33622  18.565   4.824   3.645
61308W        W33623  26.176  29.629  11.454
61309W        W33624  25.476  10.869  14.873
61310W        W33625  19.526   8.935  12.191
61311W        W33626  39.416  28.577  12.397
61312W        W33627  11.822  42.571  12.517
61313W        W33628  36.519  21.637   0.885
61314W        W33629  18.697   0.185  14.445
61315W        W33630  27.138  17.099   4.445
61316W        W33631  28.925   2.201   2.215
61317W        W33632  41.641   8.512  12.296
61318W        W33633  39.935  28.695  14.860
61319W        W33634  16.731  25.985   4.249
61320W        W33635  31.167   9.404   4.911
61321W        W33636  16.009  27.942  12.461
61322W        W33637  24.173  26.414   3.751
61323W        W33638  31.924  41.455   0.233
61324W        W33639  35.435  30.091   2.741
61325W        W33640  41.951  37.158   3.229
61326W        W33641  25.396  19.276  14.398
61327W        W33642   3.494   8.242  10.806
61328W        W33643   7.668  36.925   3.265
61329W        W33644   2.716  44.746   3.153
61330W        W33645  21.001  34.383  11.944
61331W        W33646  16.755  16.620  11.468
61332W        W33647  31.691  38.867  10.617
61333W        W33648  35.556   4.915  14.616
61334W        W33649  28.281  37.958   3.766
61335W        W33650  23.083  37.438  13.273
61336W        W33651  21.047  16.329   1.635
61337W        W33652  36.442  24.050   1.371
61338W        W33653  15.465  28.608   3.189
61339W        W33654  15.081  32.581  13.561
61340W        W33655   7.162  38.283   1.627
61341W        W33656   9.887  44.363   1.690
61342W        W33657  11.534  11.703  14.869
61343W        W33658   8.820  21.982  14.984
61344W        W33659   9.247   2.707   2.171
61345W        W33660  44.977   8.856   2.973
61346W        W33661   7.181  38.842   2.283
61347W        W33662  34.005  44.660  12.438
61348W        W33663   9.356   8.230   0.908
61349W        W33664  41.751  18.736  12.415
61350W        W33665  31.937  13.726  10.802
61351W        W33666  42.295   0.871  12.448
61352W        W33667  42.030  20.746   0.467
61353W        W33668  16.798  43.901   0.465
61354W        W33669  21.759  41.901   0.918
61355W        W33670  27.180  35.043  12.639
61356W        W33671  35.096   6.191   1.429
61357W        W33672   4.371  41.498   2.706
61358W        W33673  15.490  24.954   4.656
61359W        W33674  41.599  44.904  10.623
61360W        W33675  32.810  24.683  14.944
61361W        W33676  33.504  16.003   1.440
61362W        W33677  43.806  15.710  10.029
61363W        W33678  10.875  35.862  13.385
61364W        W33679   3.327  40.816   1.708
61365W        W33680  37.283   1.336   2.348
61366W        W33681  37.600  34.028  11.947
61367W        W33682  18.574   9.301  11.873
61368W        W33683  40.108  10.439   3.210
61369W        W33684  30.451  15.080   0.968
61370W        W33685  20.265  43.032   0.653
61371W        W33686  18.104  20.564   3.598
61372W        W33687  30.483  41.559   2.741
61373W        W33688  35.149  29.764  11.019
61374W        W33689  16.322   5.943  10.854
61375W        W33690   2.332  35.187   9.969
61376W        W33691  42.674   3.807  11.123
61377W        W33692  34.019  15.810  11.187
61378W        W33693   2.387  24.724   0.385
61379W        W33694  13.379  17.058   4.690
61380W        W33695  12.916  44.548  11.905
61381W        W33696  34.388   0.971   2.743
61382W        W33697   2.006  24.872   4.173
61383W        W33698   6.432  18.155   2.153
61384W        W33699  19.064   5.358  13.954
61385W        W33700  16.869  38.120   1.983
61386W        W33701  32.964  22.808  13.332
61387W        W33702  25.987  11.362   1.391
61388W        W33703  32.720  15.876  13.139
61389W        W33704  30.131  37.309  12.422
61390W        W33705  36.499   3.636  10.413
61391W        W33706  11.935  41.465  14.160
61392W        W33707  22.036  27.362   3.207
61393W        W33708  36.996  22.013  11.037
61394W        W33709   9.359  34.586  10.554
61395W        W33710  22.112  19.339  11.161
61396W        W33711  30.597   5.749  13.085
61397W        W33712  10.735  22.719  11.387
61398W        W33713  37.451  32.086   3.539
61399W        W33714  24.824   2.365   1.246
61400W        W33715  37.389   8.099  11.178
61401W        W33716  25.463   9.490  13.049
61402W        W33717  12.780  10.322  12.591
61403W        W33718  11.060  14.794   2.764
61404W        W33719  13.541  32.200  13.205
61405W        W33720  19.609  30.560   1.357
61406W        W33721  29.100   5.147  12.914
61407W        W33722  36.343  13.262   0.757
61408W        W33723   5.437  10.501  14.211
61409W        W33724   9.331  10.402  11.007
61410W        W33725  40.073  43.485   3.703
61411W        W33726  26.516  10.202  12.450
61412W        W33727  41.319  32.521   2.386
61413W        W33728  22.027  20.156  14.899
61414W        W33729  36.882  37.903  13.543
61415W        W33730  43.784  12.619   4.634
61416W        W33731   4.471  42.837   1.433
61417W        W33732  14.302  18.640   0.928
61418W        W33733  42.351  44.239   2.371
61419W        W33734  42.333  36.193   4.492
61420W        W33735  26.060  19.129  10.820
61421W        W33736  20.226  11.604   0.786
61422W        W33737   7.731  44.026  13.358
61423W        W33738  33.499  19.020   0.902
61424W        W33739  41.789  40.429  13.919
61425W        W33740  31.874  17.816   1.286
61426W        W33741   6.722  22.935  11.099
61427W        W33742   1.253  17.093   1.322
61428W        W33743  12.242  37.582   2.675
61429W        W33744  22.512  36.158   2.212
61430W        W33745  18.241  38.781   2.799
61431W        W33746  19.492  32.735  12.444
61432W        W33747  38.385  27.299   1.430
61433W        W33748  31.414  42.084  12.071
61434W        W33749  26.419   3.300  14.007
61435W        W33750  23.042  13.356   3.508
61436W        W33751  26.623  10.535  13.771
61437W        W33752  20.833   7.419  12.575
61438W        W33753  32.454  10.333  11.199
61439W        W33754  16.479  32.839  13.372
61440W        W33755  27.585  23.404   3.066
61441W        W33756   4.858  20.083   1.679
61442W        W33757   5.437  25.579   4.918
61443W        W33758  12.765  26.739   2.226
61444W        W33759  19.019   5.307  11.455
61445W        W33760   0.285  40.897   2.164
61446W        W33761  33.000  18.456  10.873
61447W        W33762  11.185  16.455  11.815
61448W        W33763   4.444  25.980  12.870
61449W        W33764  22.752  10.750  11.540
61450W        W33765  20.307  32.946  14.952
61451W        W33766  36.917  21.938   2.303
61452W        W33767  14.192  39.842  12.583
61453W        W33768  16.328  31.706  13.103
61454W        W33769   2.428  17.394  11.180
61455W        W33770  28.895  40.737  10.741
61456W        W33771   0.393  12.219  13.015
61457W        W33772  13.207   9.819   2.306
61458W        W33773  33.604  39.918   3.924
61459W        W33774  25.122  17.697   0.764
61460W        W33775   8.265  19.936  11.856
61461W        W33776  34.983   4.690  11.464
61462W        W33777  16.459  22.987  11.876
61463W        W33778  26.969  30.017   2.667
61464W        W33779   8.217   3.738  12.087
61465W        W33780   5.883   4.509   3.652
61466W        W33781  28.791  39.003  14.262
61467W        W33782  21.027  44.925  14.943
61468W        W33783   0.044  30.111  11.283
61469W        W33784  23.086   0.278   3.767
61470W        W33785  44.759  10.727  10.259
61471W        W33786  11.345  34.630  11.538
61472W        W33787  33.470  18.328   2.437
61473W        W33788   8.776  24.006  12.560
61474W        W33789  12.593  39.043  12.430
61475W        W33790  31.237  15.742   2.812
61476W        W33791   3.974  15.881  13.399
61477W        W33792  11.404  34.146   1.246
61478W        W33793  27.562  16.182  12.579
61479W        W33794   2.940  28.386  14.799
61480W        W33795  22.949  39.839  12.114
61481W        W33796  24.443  17.314  11.096
61482W        W33797  38.587   1.892  14.683
61483W        W33798  27.157  13.897   2.260
61484W        W33799   1.073  30.172   3.795
61485W        W33800  23.714  16.492   0.889
61486W        W33801  25.487   3.806  12.779
61487W        W33802  18.234  24.612   4.359
61488W        W33803  31.785  17.430   5.071
61489W        W33804  31.447  40.049   3.688
61490W        W33805  19.693  32.631  12.907
61491W        W33806  36.548  25.100  10.146
61492W        W33807  26.025  14.104  14.744
61493W        W33808  15.575  21.766  12.024
61494W        W33809  43.375  21.239   3.399
61495W        W33810  23.964  10.379   0.403
61496W        W33811  42.267   1.303  13.999
61497W        W33812  36.776  28.890   2.206
61498W        W33813  20.818  31.605  14.775
61499W        W33814   0.669  26.679  14.942
61500W        W33815  26.546  24.153   1.165
61501W        W33816   1.265  26.910   3.687
61502W        W33817   2.448  39.760   3.596
61503W        W33818  24.015  27.559  14.796
61504W        W33819  21.022   0.622   5.050
61505W        W33820  16.000   2.711  10.619
61506W        W33821   8.368  37.908  14.831
61507W        W33822  31.104   1.294   2.365
61508W        W33823  23.252  30.403  14.780
61509W        W33824   8.626  35.627   4.413
61510W        W33825  23.024  24.306   2.685
61511W        W33826  20.279  15.635   3.234
61512W        W33827  24.147  37.322  13.234
61513W        W33828  25.405   8.494   1.199
61514W        W33829   7.106   6.510  13.065
61515W        W33830  10.028  35.356   4.609
61516W        W33831  17.556  25.997  13.617
61517W        W33832  38.608  31.682  11.425
61518W        W33833  44.952  42.442   4.631
61519W        W33834  27.102  41.544  11.594
61520W        W33835  25.886  28.534   0.895
61521W        W33836  40.795  22.770   0.380
61522W        W33837  27.995  44.785  11.647
61523W        W33838  33.997  27.368  13.477
61524W        W33839  20.805  28.030  13.038
61525W        W33840   6.146  26.120   0.141
61526W        W33841  40.246  39.375  14.761
61527W        W33842  33.901  42.862   3.504
61528W        W33843  36.575   6.843  12.517
61529W        W33844  34.849  36.173  11.957
61530W        W33845  23.248  14.874  12.984
61531W        W33846  23.311  31.173   4.267
61532W        W33847   3.800   2.299   1.315
61533W        W33848   2.832  20.283   1.023
61534W        W33849  42.390  33.325  14.896
61535W        W33850  10.603  13.082  14.927
61536W        W33851  20.759   9.871  12.534
61537W        W33852  24.077  31.645   0.811
61538W        W33853  43.600  42.235   0.764
61539W        W33854  28.908  17.070   2.175
61540W        W33855   2.340  42.438   3.177
61541W        W33856   0.635  22.611  10.756
61542W        W33857  16.613  38.298  13.825
61543W        W33858   8.351  19.085   1.432
61544W        W33859  28.552  17.453   3.435
61545W        W33860  15.285  19.079   1.538
61546W        W33861  25.951  35.820   2.842
61547W        W33862   1.306  33.356  13.863
61548W        W33863  24.158  37.838   4.041
61549W        W33864  37.720  26.901   4.544
61550W        W33865  19.287   5.798   2.917
61551W        W33866  36.313  32.494  13.542
61552W        W33867  36.833  30.613   0.772
61553W        W33868   4.321  38.882   4.736
61554W        W33869  23.937  26.706   4.104
61555W        W33870   0.003  43.402  12.364
61556W        W33871   6.216  35.943   5.354
61557W        W33872  44.518  41.970   1.928
61558W        W33873  44.028   7.388   0.048
61559W        W33874  23.449   3.230  11.191
61560W        W33875  24.179  14.348  12.959
61561W        W33876   2.543  15.740  14.811
61562W        W33877  20.676  15.180   0.407
61563W        W33878  30.879  37.006  11.359
61564W        W33879  44.060  41.310   3.685
61565W        W33880  25.887   3.769  14.222
61566W        W33881  28.162   5.326   2.656
61567W        W33882  28.819  44.827   1.268
61568W        W33883  10.346  10.165   4.277
61569W        W33884  35.028  26.663  14.293
61570W        W33885  31.610   6.232   4.670
61571W        W33886  38.437  42.007   0.484
61572W        W33887  13.051  15.607   4.414
61573W        W33888  19.101  38.952   1.356
61574W        W33889   9.399   6.767  12.883
61575W        W33890   0.944  13.108   4.580
61576W        W33891  40.917  13.564   0.316
61577W        W33892  11.147  44.976   3.837
61578W        W33893  25.292  20.558  14.782
61579W        W33894  15.764  27.509  13.028
61580W        W33895  15.693  13.665  11.528
61581W        W33896  42.388  21.063   4.181
61582W        W33897   2.395  23.150  11.801
61583W        W33898   4.400   7.715   4.288
61584W        W33899   4.677  30.633  12.079
61585W        W33900  11.080  29.499  12.659
61586W        W33901  27.238  30.793   0.890
61587W        W33902  30.826  31.040  14.891
61588W        W33903   8.087  34.127   1.771
61589W        W33904  19.093  44.913  13.492
61590W        W33905  32.865  26.927   4.609
61591W        W33906  39.433  32.488   3.667
61592W        W33907   9.840  19.623   3.336
61593W        W33908  26.448  12.864  13.457
61594W        W33909   1.285  32.145   3.431
61595W        W33910  39.232  29.424   1.523
61596W        W33911  19.183  37.231   2.804
61597W        W33912  26.139  36.955   3.662
61598W        W33913  21.923  30.881  12.075
61599W        W33914   2.493  29.193  13.378
61600W        W33915   3.793  31.454   2.257
61601W        W33916  15.530  21.993   0.715
61602W        W33917  34.077  34.550   3.586
61603W        W33918   8.748  19.200  13.390
61604W        W33919  42.866   8.027   3.507
61605W        W33920  38.713  36.805  12.382
61606W        W33921   1.356   0.307   0.087
61607W        W33922  17.229   5.626  13.195
61608W        W33923   9.253  39.553  11.516
61609W        W33924   0.442  15.202  11.970
61610W        W33925  13.225  13.355  13.510
61611W        W33926  18.704   0.033   3.618
61612W        W33927  16.565   6.385   1.633
61613W        W33928  12.768   1.410   0.423
61614W        W33929  23.208  26.132   2.335
61615W        W33930  40.797  41.806  12.898
61616W        W33931  20.090  41.848  14.384
61617W        W33932   0.676   0.477  12.007
61618W        W33933  23.991  34.677  14.021
61619W        W33934  11.298  43.703   0.439
61620W        W33935  32.478  11.186   1.910
61621W        W33936  15.922  10.360  12.909
61622W        W33937  12.622   1.838   0.698
61623W        W33938  38.607  21.611   0.949
61624W        W33939   2.844  24.953   0.546
61625W        W33940  32.458  15.317   1.679
61626W        W33941  10.661  35.291  14.967
61627W        W33942   4.785  41.780  14.580
61628W        W33943   7.618   5.768   1.722
61629W        W33944  37.962  35.459   3.168
61630W        W33945  17.522  25.169  13.416
61631W        W33946   6.642   2.838   3.783
61632W        W33947  14.261  25.949   3.766
61633W        W33948  44.460  11.104   1.740
61634W        W33949  35.968  30.385   2.027
61635W        W33950  33.984   6.710   4.061
61636W        W33951  21.353   7.318   4.136
61637W        W33952  21.569   6.925   1.455
61638W        W33953  39.454  40.520   1.410
61639W        W33954  13.201  14.228   1.915
61640W        W33955  37.418  11.198   1.182
61641W        W33956  21.118  13.834  14.349
61642W        W33957  11.804  18.272  12.525
61643W        W33958  29.766  41.783  12.001
61644W        W33959  13.690  43.478   0.490
61645W        W33960   5.156  18.162  13.813
61646W        W33961  18.029  33.613  14.804
61647W        W33962   1.054  38.062  14.329
61648W        W33963  17.769  22.653   2.524
61649W        W33964  33.571  12.311   3.656
61650W        W33965  20.350  33.136   4.573
61651W        W33966  11.214  41.944   4.865
61652W        W33967  16.395  13.997  14.315
61653W        W33968  17.142  13.997  11.948
61654W        W33969  34.591  18.675   0.364
61655W        W33970  38.859   0.480  11.523
61656W        W33971  20.183  32.400   4.628
61657W        W33972  39.089   8.789  11.014
61658W        W33973  18.875   8.393   4.606
61659W        W33974  17.690  44.454   1.191
61660W        W33975  30.098  16.109  11.157
61661W        W33976  11.898  27.548  13.350
61662W        W33977   6.188  44.047   0.443
61663W        W33978  12.073  14.980  11.095
61664W        W33979   3.984  17.478   2.376
61665W        W33980  11.928  12.303  14.426
61666W        W33981   0.235  21.819  12.878
61667W        W33982  40.443  40.582  13.911
61668W        W33983  20.609  27.502  12.957
61669W        W33984  30.824   9.734   3.129
61670W        W33985   5.928  15.064  11.588
61671W        W33986  37.070  41.916  10.671
61672W        W33987  27.011  28.203  10.557
61673W        W33988  31.011  14.072   2.840
61674W        W33989  14.496  31.496   0.253
61675W        W33990  24.039  40.121   2.571
61676W        W33991  23.266  34.084  11.536
61677W        W33992   9.746  14.222  13.960
61678W        W33993   6.464   3.374  13.857
61679W        W33994  22.222  37.337  11.476
61680W        W33995  41.690  10.263   0.486
61681W        W33996  18.640   4.117   2.237
61682W        W33997   1.697  12.250  11.623
61683W        W33998   1.744  35.608   3.356
61684W        W33999  29.671  28.809  13.391
61685W        W34000  15.096  40.945   3.242
61686W        W34001  25.222   6.781  13.888
61687W        W34002  22.074  10.924   2.734
61688W        W34003  25.560  20.975   0.758
61689W        W34004  34.145   6.237  13.767
61690W        W34005  44.246  28.155   1.121
61691W        W34006  23.206   0.254  10.619
61692W        W34007   3.040  32.792   3.371
61693W        W34008  28.412   1.355  12.953
61694W        W34009  15.417   5.538   1.659
61695W        W34010  13.442  18.460   4.996
61696W        W34011  38.787   2.781   3.938
61697W        W34012   8.798  20.286   1.212
61698W        W34013  13.641  13.798   0.737
61699W        W34014  14.105  26.080  14.310
61700W        W34015  10.696  35.341   1.641
61701W        W34016  32.543  23.757  14.751
61702W        W34017  36.670  44.615   1.514
61703W        W34018  11.727   6.878  10.902
61704W        W34019  15.192  39.542   0.145
61705W        W34020  18.834  32.005  13.020
61706W        W34021  17.191  21.767   3.698
61707W        W34022  39.259   9.934   1.895
61708W        W34023  22.771  35.858   2.734
61709W        W34024  14.544  41.874  12.378
61710W        W34025  43.355  32.330  14.082
61711W        W34026  40.945  43.057  13.373
61712W        W34027   1.783  36.467  10.243
61713W        W34028  39.999   9.364   3.832
61714W        W34029  30.456   0.758  11.592
61715W        W34030  30.135  20.944  10.703
61716W        W34031  27.326  26.513   4.653
61717W        W34032   0.835  29.782  11.551
61718W        W34033  34.367  20.018   1.890
61719W        W34034   9.605  22.672   4.036
61720W        W34035  31.459   5.927   2.801
61721W        W34036  44.556  29.908  12.119
61722W        W34037   2.717  26.706  12.622
61723W        W34038   1.734   8.373  12.882
61724W        W34039  24.797   6.709  14.292
61725W        W34040  23.641  13.851   0.785
61726W        W34041  15.289  31.059  14.562
61727W        W34042  14.582  24.105   1.249
61728W        W34043  40.519  11.360  11.950
61729W        W34044  32.332  33.804   4.996
61730W        W34045  26.604  44.954  12.980
61731W        W34046  31.988   8.716   0.795
61732W        W34047  22.637  18.669  10.862
61733W        W34048  22.680  23.518  10.618
61734W        W34049  25.458  37.456   1.491
61735W        W34050  33.251  29.462  11.928
61736W        W34051   3.762   6.937  14.334
61737W        W34052  41.597  26.658  10.779
61738W        W34053  13.693  35.805   4.161
61739W        W34054  14.116  40.989  11.175
61740W        W34055  14.186  10.517   2.696
61741W        W34056  38.932  30.116  13.467
61742W        W34057  37.693   3.897   1.009
61743W        W34058  27.095  21.896  13.734
61744W        W34059  39.033  10.350   2.752
61745W        W34060   4.282   2.993   0.175
61746W        W34061  16.792   5.660  11.530
61747W        W34062   7.931  42.548  12.483
61748W        W34063  40.513   1.425   2.803
61749W        W34064  15.341  18.716   3.194
61750W        W34065  12.839  43.442   1.918
61751W        W34066  40.894   5.218  10.917
61752W        W34067  27.472  37.108  11.985
61753W        W34068  28.132  20.282   2.810
61754W        W34069   3.193  41.115   0.342
61755W        W34070   8.242  31.333  11.128
61756W        W34071  32.993  29.659   0.368
61757W        W34072   0.481  29.851  13.427
61758W        W34073   2.597  25.338   1.472
61759W        W34074  17.550  13.583   3.227
61760W        W34075  21.563   8.055  11.177
61761W        W34076  36.870   6.928  12.103
61762W        W34077   0.839   7.570   2.691
61763W        W34078  12.416  12.381  14.256
61764W        W34079  22.938  28.136   4.930
61765W        W34080  26.082  20.703   2.443
61766W        W34081  14.785  29.541  13.393
61767W        W34082  25.252  37.089  12.035
61768W        W34083  33.517   7.923  12.583
61769W        W34084  19.444  18.506   4.195
61770W        W34085  42.912  32.795  11.133
61771W        W34086  10.262   9.245  11.871
61772W        W34087  20.027  33.910   2.234
61773W        W34088  44.973   4.821  11.140
61774W        W34089  34.971  31.126   4.126
61775W        W34090  29.120   6.792  11.142
61776W        W34091  14.878   4.753   2.140
61777W        W34092  32.082  36.761  10.517
61778W        W34093  43.441  25.888   3.212
61779W        W34094  16.418  33.470   2.229
61780W        W34095   2.780  34.538  13.892
61781W        W34096  12.209  18.649  14.313
61782W        W34097   5.239  10.755   1.703
61783W        W34098  15.356  21.126  11.159
61784W        W34099  26.660  33.847  14.539
61785W        W34100   4.147  40.726   0.949
61786W        W34101  25.536  28.691  13.284
61787W        W34102   8.028  24.383   1.688
61788W        W34103  31.689  33.992  11.089
61789W        W34104  29.581  18.263  13.072
61790W        W34105  34.557  20.672  10.588
61791W        W34106  27.208  42.535  14.404
61792W        W34107  36.595  39.402   2.072
61793W        W34108  34.449  33.167   0.717
61794W        W34109  28.172  40.985  12.011
61795W        W34110  23.769   8.324   3.196
61796W        W34111   6.843  33.044   3.063
61797W        W34112   1.392  35.647  11.492
61798W        W34113  24.532  15.786  13.949
61799W        W34114   8.180  31.883  14.030
61800W        W34115   6.942  23.947   1.520
61801W        W34116  22.461  40.729  12.381
61802W        W34117  20.143  32.380   0.553
61803W        W34118  20.671   6.349   2.401
61804W        W34119  39.998  16.810  14.807
61805W        W34120  23.726  33.387   4.086
61806W        W34121  30.595  17.615  10.762
61807W        W34122  37.344  21.745   5.085
61808W        W34123  42.748  17.924   2.340
61809W        W34124  36.365  27.652  11.935
61810W        W34125  25.981   0.880   0.007
61811W        W34126  28.056  24.117   2.348
61812W        W34127  18.910  23.253   3.091
61813W        W34128   3.272  19.112   2.583
61814W        W34129  42.755  41.490  10.915
61815W        W34130  34.961  34.898  10.897
61816W        W34131  39.362  34.854   0.466
61817W        W34132   9.396   1.662   2.337
61818W        W34133  16.508   5.611   3.892
61819W        W34134  34.835  12.709  14.029
61820W        W34135  44.550  14.270  11.971
61821W        W34136  37.937  25.445   3.323
61822W        W34137  25.734  31.507   4.997
61823W        W34138  12.047  27.926  12.898
61824W        W34139  40.242   0.587  12.812
61825W        W34140  41.836  35.514  14.275
61826W        W34141  35.998  28.476  12.371
61827W        W34142  41.486  15.703   4.146
61828W        W34143   0.617  22.779  13.821
61829W        W34144  23.263   6.735   2.729
61830W        W34145  38.880  27.451   2.195
61831W        W34146  17.699  35.985  13.433
61832W        W34147  19.253  30.576  11.865
61833W        W34148  34.094  36.461  14.544
61834W        W34149  16.551  34.628   2.162
61835W        W34150  30.924  14.199   3.711
61836W        W34151  41.970   7.667  14.963
61837W        W34152  35.661   6.788  10.792
61838W        W34153  10.358  43.454  14.962
61839W        W34154  20.603  34.630  14.171
61840W        W34155  29.114  28.291   1.187
61841W        W34156  31.194  42.757   4.587
61842W        W34157  42.903  42.305   3.253
61843W        W34158  23.949  29.380   2.418
61844W        W34159  33.957  38.387   2.729
61845W        W34160  31.014   4.906   3.236
61846W        W34161   6.267  40.360  10.637
61847W        W34162   9.925  40.268   1.867
61848W        W34163   1.276  22.714  11.974
61849W        W34164  25.186  24.210   0.387
61850W        W34165  42.629  20.114  14.212
61851W        W34166  32.696  19.669  12.988
61852W        W34167  25.536  20.134  14.675
61853W        W34168  16.903  27.401  13.523
61854W        W34169  13.622   1.945  14.908
61855W        W34170   9.186  21.993   3.420
61856W        W34171   8.285  18.124  11.527
61857W        W34172  28.644  20.560  14.069
61858W        W34173  34.649  21.294  14.425
61859W        W34174  13.142  11.556  10.994
61860W        W34175  37.093   5.106   3.222
61861W        W34176  14.947  38.552   1.769
61862W        W34177  27.226   0.910   0.666
61863W        W34178  34.500  44.986   2.628
61864W        W34179  31.919  31.611  12.677
61865W        W34180   6.235  18.164   2.636
61866W        W34181  12.529  23.643  13.603
61867W        W34182   3.849   9.800   4.130
61868W        W34183  26.635   4.246   1.921
61869W        W34184  38.476  39.733  10.513
61870W        W34185  32.566   1.829  11.549
61871W        W34186  15.108  44.443   4.596
61872W        W34187  17.907  36.055   4.085
61873W        W34188  27.929  32.827   0.165
61874W        W34189  27.246   7.327   4.000
61875W        W34190  27.278  17.812  14.187
61876W        W34191  30.843  13.266   3.940
61877W        W34192  14.283  37.923  11.349
61878W        W34193  42.819  19.473   2.888
61879W        W34194  24.172  14.103   2.265
61880W        W34195   9.138  38.390   1.838
61881W        W34196  17.767  20.616   2.222
61882W        W34197  33.602  11.637   0.923
61883W        W34198  15.285   8.567   4.321
61884W        W34199  42.214   8.409  11.038
61885W        W34200   2.756  39.836  11.659
61886W        W34201  42.365  25.619   1.147
61887W        W34202  33.854  17.418  12.346
61888W        W34203  27.174  18.082   1.452
61889W        W34204  43.625   5.751  13.161
61890W        W34205  12.275  33.843   4.305
61891W        W34206  17.563  26.771   3.805
61892W        W34207  18.512   9.161  11.361
61893W        W34208  28.386  22.793  12.490
61894W        W34209  35.755  32.449   2.789
61895W        W34210  43.406  15.095   2.852
61896W        W34211  29.528  13.581   2.000
61897W        W34212   5.687  28.286   1.344
61898W        W34213  42.611  19.074  12.431
61899W        W34214  16.683  33.943   3.351
61900W        W34215  30.903   9.912   3.619
61901W        W34216  22.221   0.893  13.858
61902W        W34217  29.612  39.774   0.318
61903W        W34218  36.843  32.145   2.158
61904W        W34219  35.543  44.421  12.995
61905W        W34220  25.455  13.731   4.344
61906W        W34221  43.488  35.340  13.318
61907W        W34222   7.779  10.153   3.594
61908W        W34223  39.709  30.025   1.373
61909W        W34224  25.608  44.381  11.639
61910W        W34225  30.546  17.094  14.694
61911W        W34226  44.965  25.220   3.196
61912W        W34227  25.429   1.849   3.603
61913W        W34228  40.482   0.770   5.066
61914W        W34229  32.754  22.873   2.632
61915W        W34230   4.305  15.992  11.566
61916W        W34231   8.460  15.517   1.812
61917W        W34232  14.112  25.083   4.843
61918W        W34233  42.854  32.874   3.777
61919W        W34234  16.178  22.193  13.107
61920W        W34235  14.680   7.887  12.464
61921W        W34236  30.053   2.279   1.174
61922W        W34237   6.216  14.730  10.418
61923W        W34238  15.712   6.274  13.731
61924W        W34239  27.301   7.208   0.778
61925W        W34240   5.976   0.788  12.076
61926W        W34241  18.972   8.406  12.480
61927W        W34242   6.685  43.841   1.115
61928W        W34243  22.458  17.273  10.680
61929W        W34244  16.600  34.484  14.240
61930W        W34245  39.469  13.693  12.800
61931W        W34246   5.724  32.573   1.298
61932W        W34247  32.020  28.504   3.940
61933W        W34248  32.667  35.641  12.069
61934W        W34249  41.415  31.209  12.413
61935W        W34250   4.719  32.573  14.045
61936W        W34251  15.109  36.916  14.762
61937W        W34252  32.394  14.240   0.883
61938W        W34253  30.849  34.647   1.772
61939W        W34254   2.900  10.439  10.029
61940W        W34255  31.636  36.959  13.227
61941W        W34256  31.366  43.469  13.054
61942W        W34257  21.157  36.658   4.059
61943W        W34258   7.381  35.090   2.694
61944W        W34259  27.272  29.131  13.120
61945W        W34260  28.458  23.296  11.242
61946W        W34261  38.242   9.601   4.030
61947W        W34262   8.188  43.712  14.931
61948W        W34263  23.722  22.671   3.290
61949W        W34264  24.584  44.059   1.305
61950W        W34265   5.366   3.747   2.283
61951W        W34266  32.630  38.260   2.834
61952W        W34267  19.699  39.331  13.855
61953W        W34268  40.369  35.890  11.700
61954W        W34269  25.012   0.926  11.055
61955W        W34270  42.292  21.971  12.074
61956W        W34271  39.749  21.088   3.645
61957W        W34272  25.028  19.916   3.220
61958W        W34273  34.083  34.110   4.922
61959W        W34274  25.992   5.520   2.302
61960W        W34275   3.677   5.503  11.370
61961W        W34276  33.980  43.328   3.725
61962W        W34277  15.050  33.482  14.857
61963W        W34278  22.245  28.596  11.533
61964W        W34279  42.530  22.403   2.365
61965W        W34280  35.722  39.881  14.351
61966W        W34281  18.633  41.355   9.872
61967W        W34282   4.355   4.775  14.086
61968W        W34283   1.282  35.867  14.640
61969W        W34284  36.298  43.299  12.478
61970W        W34285  37.253  34.580   2.798
61971W        W34286  24.783  22.593  11.904
61972W        W34287  28.157  33.379  10.078
61973W        W34288  23.147   5.232  12.517
61974W        W34289  43.798  44.789  13.566
61975W        W34290  18.848   0.346   4.694
61976W        W34291  12.312   6.726  14.741
61977W        W34292   5.681  39.856  13.850
61978W        W34293   4.301  39.051  13.787
61979W        W34294  23.747  23.771  14.999
61980W        W34295  35.076  28.911   1.426
61981W        W34296  30.849   2.043   4.073
61982W        W34297  39.600  12.669   3.542
61983W        W34298  10.092  15.081  12.399
61984W        W34299   2.398  32.422  10.363
61985W        W34300  31.483  17.371  11.104
61986W        W34301   4.481  20.492  13.343
61987W        W34302  22.454  27.581   1.263
61988W        W34303  42.883  31.511   3.709
61989W        W34304  40.382  12.715   4.417
61990W        W34305  10.106  27.411   1.287
61991W        W34306  29.866  17.080   3.733
61992W        W34307  11.036  41.054  11.502
61993W        W34308  11.402  15.632   3.142
61994W        W34309  14.507  40.128  11.620
61995W        W34310  24.454   6.479  13.967
61996W        W34311  35.822  20.048   2.371
61997W        W34312  25.275  32.919  14.874
61998W        W34313  12.705   0.043   2.672
61999W        W34314   1.982  25.918   4.165
62000W        W34315  25.392  20.584   1.623
62001W        W34316  33.369  29.602   4.092
62002W        W34317  17.671  27.156  14.914
62003W        W34318   6.948   4.152  13.417
62004W        W34319  38.860  10.782   0.049
62005W        W34320  38.010  41.729  11.138
62006W        W34321  43.255  28.425   1.213
62007W        W34322  25.427  13.161  13.404
62008W        W34323   9.671  14.230  14.464
62009W        W34324   9.163  19.297   3.671
62010W        W34325  15.731  14.588   3.706
62011W        W34326   2.885  40.288   1.263
62012W        W34327   3.608  42.537  10.738
62013W        W34328  40.081  25.423   1.983
62014W        W34329  30.562  38.076   3.334
62015W        W34330  42.329  21.491   0.329
62016W        W34331   6.192  39.829  11.222
62017W        W34332  10.567  34.524  11.510
62018W        W34333  26.930   9.490  13.732
62019W        W34334  41.457  41.021  11.961
62020W        W34335  23.692  30.598  10.589
62021W        W34336  32.611  38.936  11.648
62022W        W34337   5.272  10.070   4.364
62023W        W34338  17.356  27.560   9.688
62024W        W34339  27.535  22.336   1.623
62025W        W34340  20.781  34.161   3.763
62026W        W34341  27.233  34.446   4.947
62027W        W34342   5.797  11.662   4.585
62028W        W34343  26.986  18.172   1.914
62029W        W34344   8.413   4.854  14.264
62030W        W34345  25.451  30.106  13.492
62031W        W34346  37.449  40.972   1.227
62032W        W34347  26.448  40.876  11.531
62033W        W34348  16.130  33.529   1.806
62034W        W34349  40.505  44.803  14.821
62035W        W34350  19.786  42.699  13.011
62036W        W34351   1.642  33.293   5.012
62037W        W34352  44.543  39.255  12.210
62038W        W34353  43.784  21.664  14.401
62039W        W34354  32.651  27.145  11.537
62040W        W34355  44.402   9.990   9.815
62041W        W34356  10.117  39.076  11.098
62042W        W34357  11.300  26.907  13.618
62043W        W34358  35.908  38.826   3.290
62044W        W34359  28.894  21.566  12.818
62045W        W34360  32.946   0.268  10.581
62046W        W34361  18.195  37.171  12.339
62047W        W34362  41.714   8.290   0.857
62048W        W34363  34.507  14.309  12.031
62049W        W34364   7.608  29.634   2.412
62050W        W34365  10.188  31.315   1.380
62051W        W34366  34.880  20.020  14.522
62052W        W34367  27.939  21.618  11.955
62053W        W34368  14.088   5.910  12.301
62054W        W34369  23.290   8.315  10.951
62055W        W34370  13.706  26.174   3.675
62056W        W34371  33.393  37.648  11.623
62057W        W34372   1.824  31.581   4.124
62058W        W34373  14.617   5.858   1.896
62059W        W34374  16.058  26.992   2.762
62060W        W34375  17.657  10.878  12.376
62061W        W34376  13.253  11.397   4.191
62062W        W34377  39.187   4.227  10.660
62063W        W34378  30.935  25.025   0.743
62064W        W34379  10.936  38.041   3.895
62065W        W34380  16.927  43.076  14.439
62066W        W34381  30.901   3.652  12.546
62067W        W34382   4.447  40.323   4.128
62068W        W34383  44.488  40.458  13.373
62069W        W34384  12.876  16.817   4.551
62070W        W34385   6.730  28.130   3.322
62071W        W34386  31.272  37.320   3.767
62072W        W34387  25.517  12.783   3.225
62073W        W34388  33.108  17.516   2.226
62074W        W34389  12.829  14.727  11.143
62075W        W34390  19.663  16.290   3.654
62076W        W34391   0.456  24.179   4.529
62077W        W34392  21.868  44.470  12.078
62078W        W34393  16.402   1.414  14.906
62079W        W34394   5.172  26.492  12.996
62080W        W34395  39.071   3.692   2.796
62081W        W34396  21.749  40.220   2.926
62082W        W34397  10.127  12.049  13.975
62083W        W34398  35.598  32.407  11.464
62084W        W34399  18.832   6.143   2.414
62085W        W34400  34.828  19.065   2.747
62086W        W34401   5.951   1.809  14.696
62087W        W34402   2.196  12.151  12.566
62088W        W34403  15.305  11.069   1.384
62089W        W34404  36.958  13.593   4.775
62090W        W34405  37.350  25.563  14.944
62091W        W34406   8.050   2.640   1.364
62092W        W34407   5.593   3.236   1.314
62093W        W34408  34.529  10.350   4.189
62094W        W34409   1.925   6.256   4.256
62095W        W34410  39.834  24.140  13.950
62096W        W34411  19.469   3.465   4.547
62097W        W34412  25.427  33.921   3.886
62098W        W34413  28.465  25.394   2.443
62099W        W34414  42.083   8.038  12.413
62100W        W34415  19.453  32.092  14.421
62101W        W34416  40.564  19.322  13.295
62102W        W34417  22.101  39.334  12.553
62103W        W34418  27.700  15.160  13.443
62104W        W34419  26.604  31.219   4.007
62105W        W34420  30.668  11.385  11.445
62106W        W34421  24.455  26.566  13.018
62107W        W34422  16.781   8.712  12.886
62108W        W34423  40.878  43.867   0.270
62109W        W34424  33.039  36.092   3.470
62110W        W34425  28.659  12.353  11.552
62111W        W34426  14.368  28.995   1.771
62112W        W34427  44.451   0.327   0.206
62113W        W34428  30.054  41.052  13.039
62114W        W34429  17.132  26.937  11.048
62115W        W34430  11.122   7.793   2.400
62116W        W34431  37.411  29.500   2.917
62117W        W34432  20.923  23.752  11.196
62118W        W34433  39.956  17.149  12.840
62119W        W34434  24.666   0.040  12.084
62120W        W34435  35.084  23.265   1.794
62121W        W34436  15.114  43.873  12.312
62122W        W34437   1.300   3.361   0.676
62123W        W34438  41.445  29.458  13.545
62124W        W34439  35.019   2.573   1.627
62125W        W34440   9.740  39.551  12.910
62126W        W34441  10.946   8.627  11.515
62127W        W34442  12.626  15.733   0.840
62128W        W34443   2.777  19.294   2.332
62129W        W34444   8.153  12.271  14.326
62130W        W34445  14.189   9.104  11.284
62131W        W34446   3.495  32.560   4.996
62132W        W34447   3.520  19.106   0.320
62133W        W34448   1.780   2.188   4.517
62134W        W34449  40.300  27.242   4.600
62135W        W34450   6.473   6.918  12.461
62136W        W34451  10.282  22.154   1.701
62137W        W34452  17.139  23.443  10.752
62138W        W34453  37.730   7.948   5.167
62139W        W34454  30.117   8.743   4.228
62140W        W34455  39.841   4.005   3.204
62141W        W34456   1.487  43.322   1.302
62142W        W34457  10.455  25.552  12.815
62143W        W34458  28.470  24.185  12.970
62144W        W34459  22.129  28.076   1.501
62145W        W34460  44.988  15.775  14.081
62146W        W34461  42.396   4.706  10.464
62147W        W34462  38.399  27.093   1.933
62148W        W34463  35.599  38.731  11.200
62149W        W34464  12.645  40.192   3.950
62150W        W34465   3.837  28.174   0.515
62151W        W34466  23.725  11.870   4.109
62152W        W34467  26.925  31.097  14.929
62153W        W34468   1.393  26.120  14.978
62154W        W34469   0.977   0.174  13.013
62155W        W34470  43.580  27.223  10.586
62156W        W34471   8.501  16.679   1.544
62157W        W34472  25.227   1.756  12.091
62158W        W34473   6.063   3.671   1.813
62159W        W34474  11.366  23.052   2.350
62160W        W34475  44.751  29.005  11.100
62161W        W34476  24.590  29.935   4.323
62162W        W34477  33.977   1.112   1.927
62163W        W34478  12.667   6.854   3.233
62164W        W34479   7.408  22.154  13.862
62165W        W34480   5.511  13.017  12.162
62166W        W34481  25.216  14.806   3.675
62167W        W34482  31.406  26.017   4.654
62168W        W34483  12.387  41.551  14.343
62169W        W34484  13.624   5.047  14.277
62170W        W34485  43.861   8.024  12.832
62171W        W34486   2.889  23.075  14.436
62172W        W34487  19.091  31.504   4.609
62173W        W34488  43.308  14.216   2.225
62174W        W34489  27.984  12.766   5.046
62175W        W34490  14.212  35.069  12.572
62176W        W34491  37.413  38.729   5.263
62177W        W34492  15.834   9.366  11.069
62178W        W34493  14.992  23.215   3.503
62179W        W34494   2.737   9.950   1.593
62180W        W34495  44.032  25.409   1.326
62181W        W34496  44.018  36.904   4.510
62182W        W34497   8.994   9.375  14.683
62183W        W34498  16.983  41.312  14.039
62184W        W34499  20.534   0.231  13.371
62185W        W34500   3.510   1.705   2.151
62186W        W34501  38.981  40.952   2.885
62187W        W34502  27.003   3.535   1.874
62188W        W34503   4.864  34.170   4.409
62189W        W34504   7.222  30.304   1.321
62190W        W34505   1.683   6.303   1.237
62191W        W34506  28.588  27.064   2.772
62192W        W34507  41.557  23.106   3.744
62193W        W34508  42.311  15.994  12.993
62194W        W34509  18.568  23.774   9.839
62195W        W34510  10.070  10.760  12.891
62196W        W34511  18.974   0.736  12.011
62197W        W34512  41.148  44.034  12.633
62198W        W34513  21.904  17.797   4.430
62199W        W34514  35.548   8.314   3.538
62200W        W34515   9.943  32.486   0.422
62201W        W34516   6.567  12.825   1.788
62202W        W34517  35.493   6.331  14.140
62203W        W34518   0.410  31.947  13.282
62204W        W34519   9.946  39.773   0.173
62205W        W34520   3.263   3.681   3.333
62206W        W34521  18.508  38.410  14.220
62207W        W34522  13.740  42.824  13.310
62208W        W34523  18.324  33.834  11.115
62209W        W34524  28.999  41.003  14.856
62210W        W34525  10.210  16.504   2.245
62211W        W34526  43.787  19.153   4.590
62212W        W34527  26.279  37.480  13.906
62213W        W34528  23.090  10.195  11.399
62214W        W34529  12.726   0.821   1.659
62215W        W34530  37.041  22.622   3.427
62216W        W34531  14.205   7.964  13.368
62217W        W34532  31.952  33.402   2.277
62218W        W34533  11.160   9.873   0.308
62219W        W34534  22.954  32.937  11.139
62220W        W34535  10.560  31.207  10.824
62221W        W34536  25.631  39.301   2.133
62222W        W34537  40.563  21.564  14.920
62223W        W34538  40.466  17.620  14.455
62224W        W34539  43.428  32.201   1.678
62225W        W34540  31.538  27.024  13.446
62226W        W34541  37.117  38.957   3.234
62227W        W34542   7.604  32.483  13.938
62228W        W34543  14.409  20.023  11.125
62229W        W34544  26.690  19.855  11.796
62230W        W34545  13.803  37.554  10.836
62231W        W34546   2.836  17.252   5.185
62232W        W34547  38.567  11.724   0.346
62233W        W34548   6.903  38.929   2.728
62234W        W34549   8.657   4.613  11.310
62235W        W34550   6.288   2.408   3.061
62236W        W34551   9.268  21.960  12.194
62237W        W34552   7.144  18.040   4.097
62238W        W34553  31.248   6.235   0.695
62239W        W34554   0.292  19.093   3.780
62240W        W34555  20.389  18.073   2.468
62241W        W34556   6.427  24.197  13.033
62242W        W34557  20.962  33.562   0.261
62243W        W34558  18.193  38.559   5.751
62244W        W34559  14.571  34.994  11.656
62245W        W34560  24.679  28.009   4.244
62246W        W34561  42.971  41.576  14.334
62247W        W34562   9.992  12.138   2.246
62248W        W34563  42.977  44.914   4.513
62249W        W34564   1.948  10.346  11.688
62250W        W34565  24.935  30.342   3.230
62251W        W34566  37.369  32.070   1.258
62252W        W34567  30.067  29.387  10.609
62253W        W34568   7.951   8.322   1.704
62254W        W34569   9.365  42.352  13.574
62255W        W34570  43.287  40.306   0.870
62256W        W34571  21.785  10.727   3.639
62257W        W34572   4.768  28.624   0.017
62258W        W34573  11.605  12.724   0.749
62259W        W34574  29.682  29.071   3.584
62260W        W34575  27.885  30.595  14.496
62261W        W34576   6.837  28.594   0.865
62262W        W34577  23.788  43.021   0.737
62263W        W34578  21.086   7.292  13.036
62264W        W34579  21.546   6.290  14.752
62265W        W34580  33.662  34.815  10.794
62266W        W34581  34.356  39.301  13.186
62267W        W34582  34.240  26.063   0.439
62268W        W34583  25.685  32.905  13.021
62269W        W34584  25.907  42.810   4.148
62270W        W34585   3.372   5.944  12.796
62271W        W34586  44.938  15.217  11.792
62272W        W34587   5.329  32.639  12.588
62273W        W34588  17.784  25.635  13.331
62274W        W34589  33.855  25.427   1.921
62275W        W34590   1.768  31.605  13.469
62276W        W34591   4.265   3.001   4.568
62277W        W34592  34.391   5.904   4.088
62278W        W34593  14.201  28.942   0.924
62279W        W34594  33.918  35.109   1.569
62280W        W34595  14.194  37.868   3.962
62281W        W34596  13.975  43.838  14.561
62282W        W34597   2.189  26.908   3.765
62283W        W34598  12.643  15.069   3.402
62284W        W34599  34.487  23.556  14.486
62285W        W34600  27.368   1.847  14.714
62286W        W34601  16.650   1.341   4.668
62287W        W34602   8.214  17.995  12.005
62288W        W34603  24.328  38.881  13.835
62289W        W34604  33.320  29.158  10.486
62290W        W34605  35.129   5.686   1.387
62291W        W34606  35.318  23.739   1.822
62292W        W34607  40.883  25.211   9.771
62293W        W34608  28.591  16.876   0.452
62294W        W34609  35.295   8.741  13.134
62295W        W34610   5.844  43.003  11.180
62296W        W34611  16.562  38.513  11.951
62297W        W34612  38.119  40.277  14.321
62298W        W34613   2.988   4.098  11.967
62299W        W34614  12.743  44.037   2.865
62300W        W34615  32.507  22.788   3.877
62301W        W34616   2.449  38.909   0.401
62302W        W34617  38.620  15.202   0.290
62303W        W34618  36.475   2.449   2.181
62304W        W34619  11.703  20.183   1.759
62305W        W34620  28.325   1.947   2.797
62306W        W34621  42.703  33.443  12.909
62307W        W34622   4.693  13.851  13.572
62308W        W34623  44.210  19.745   2.048
62309W        W34624  40.517   0.797  10.608
62310W        W34625  39.395  27.111   0.347
62311W        W34626   5.256  39.170  14.695
62312W        W34627  19.195   7.957   0.666
62313W        W34628  11.806  44.203  10.809
62314W        W34629  27.014  15.734  14.541
62315W        W34630   3.446  27.741   1.400
62316W        W34631  19.553  25.870  12.018
62317W        W34632  38.849  44.358   9.990
62318W        W34633  26.428  36.054  13.936
62319W        W34634  35.351  34.880   0.844
62320W        W34635  37.938  12.041   2.221
62321W        W34636   0.310   1.001   3.263
62322W        W34637  25.054  24.953   2.848
62323W        W34638  36.645   9.623   0.449
62324W        W34639  22.623  31.668   0.215
62325W        W34640  41.090   3.240  12.080
62326W        W34641   7.789   8.795  14.855
62327W        W34642  18.079  15.626  11.734
62328W        W34643  16.749  25.897   3.454
62329W        W34644  28.459  19.590  13.051
62330W        W34645  19.488  30.847   5.097
62331W        W34646  26.658  14.319   4.179
62332W        W34647  32.061  22.232   2.210
62333W        W34648  19.072  44.544   1.288
62334W        W34649   3.247  18.580  13.061
62335W        W34650  26.197  39.971  13.924
62336W        W34651   8.204  21.426  12.843
62337W        W34652   9.653  10.179  13.877
62338W        W34653  12.819  25.475   1.755
62339W        W34654  27.960  14.307  11.082
62340W        W34655  42.101  34.464   4.591
62341W        W34656   5.408  42.438  11.993
62342W        W34657   5.265   7.132  13.432
62343W        W34658  31.050   4.911  12.874
62344W        W34659   4.379  12.980   3.184
62345W        W34660   4.666  41.454  11.591
62346W        W34661  10.687  40.441  12.129
62347W        W34662  13.826   5.854  13.053
62348W        W34663  17.330  32.060  12.238
62349W        W34664  30.457  44.369  10.627
62350W        W34665   6.611   8.193   0.438
62351W        W34666  23.139  33.899  14.461
62352W        W34667  17.140  43.565   0.748
62353W        W34668  13.157   4.174  11.225
62354W        W34669   1.719  30.111  11.861
62355W        W34670  20.216  37.304  11.355
62356W        W34671   4.757  15.654  13.675
62357W        W34672  24.950  19.879  10.824
62358W        W34673   9.444   2.986   2.618
62359W        W34674  21.443  15.125   0.708
62360W        W34675   9.604  10.566   1.478
62361W        W34676  15.676  22.167  13.359
62362W        W34677   1.717  23.781   1.267
62363W        W34678   6.807  33.856  13.477
62364W        W34679  36.507  10.691   3.640
62365W        W34680  15.658  38.550   3.149
62366W        W34681   0.790  33.868   3.208
62367W        W34682   1.548  20.873   3.929
62368W        W34683   9.351  33.854   0.293
62369W        W34684  10.185  21.790   3.207
62370W        W34685  10.415  18.763  13.445
62371W        W34686  29.726   6.383   4.604
62372W        W34687   0.335  17.613  11.610
62373W        W34688   2.123  16.962   0.941
62374W        W34689   5.173  38.528   4.597
62375W        W34690  30.811  36.825  13.480
62376W        W34691  26.021  43.276  12.486
62377W        W34692  28.216  15.110   3.144
62378W        W34693   5.552  25.465  11.175
62379W        W34694  31.861  19.738   3.162
62380W        W34695  27.666  40.951  11.898
62381W        W34696  43.383  43.482   0.576
62382W        W34697  31.381  21.586  12.183
62383W        W34698  29.318  37.237  13.515
62384W        W34699  25.227  21.020   1.337
62385W        W34700  38.175  34.590   3.739
62386W        W34701  20.404  40.491   0.440
62387W        W34702  30.852  19.597  14.830
62388W        W34703  42.327  13.265   0.329
62389W        W34704  28.122  17.497   2.505
62390W        W34705  27.208  15.467   0.444
62391W        W34706  17.714   1.747   1.756
62392W        W34707  27.428  33.402   5.024
62393W        W34708  28.688  30.106  13.061
62394W        W34709  41.445   7.622   2.353
62395W        W34710  14.813   5.835  10.684
62396W        W34711   1.948  19.670   1.053
62397W        W34712   0.349  19.492  13.129
62398W        W34713  14.705  28.416   0.354
62399W        W34714  38.543   5.914   1.442
62400W        W34715  41.884  18.076   1.456
62401W        W34716  16.697  30.001  12.793
62402W        W34717   5.815  11.644  13.823
62403W        W34718   1.340  14.184   1.452
62404W        W34719  26.274  20.304  13.947
62405W        W34720  17.735  23.016   3.545
62406W        W34721   3.818  37.421   1.015
62407W        W34722  38.994  38.348   0.741
62408W        W34723  21.067  18.017  12.935
62409W        W34724  24.600   6.012  11.705
62410W        W34725  19.982  37.648  13.521
62411W        W34726  16.348  35.706  10.449
62412W        W34727  42.245   7.772   1.388
62413W        W34728  13.091  20.040  11.412
62414W        W34729  43.822  15.688   0.060
62415W        W34730  13.144   9.798  13.914
62416W        W34731  34.445  25.820   4.688
62417W        W34732   0.146  38.426  12.357
62418W        W34733   4.191  36.658  12.110
62419W        W34734   6.349  37.447   1.277
62420W        W34735  43.382  40.330   5.075
62421W        W34736  26.925  30.042  14.090
62422W        W34737  40.810  32.453   1.692
62423W        W34738  11.648  38.514  14.337
62424W        W34739  37.165  33.013   0.776
62425W        W34740  14.433   7.324  11.101
62426W        W34741  34.582  33.832  13.504
62427W        W34742   9.546  11.327  14.972
62428W        W34743  38.002   0.476  10.522
62429W        W34744   2.024   0.217   3.406
62430W        W34745  22.152   9.442  12.530
62431W        W34746   8.404  43.547  14.474
62432W        W34747  31.067   6.657   3.242
62433W        W34748  31.358  39.065  12.494
62434W        W34749   5.951   6.891  12.546
62435W        W34750  38.530   7.003  14.430
62436W        W34751   8.117  27.114   1.342
62437W        W34752  34.934   2.332  12.362
62438W        W34753  13.030  38.573   3.263
62439W        W34754   0.259  33.865  13.259
62440W        W34755  38.351  19.251  10.733
62441W        W34756  36.947  36.363   2.299
62442W        W34757   2.748  35.955  10.427
62443W        W34758   4.391  32.851  11.544
62444W        W34759  36.271  17.003   1.630
62445W        W34760  13.510   2.449  14.912
62446W        W34761  10.119  15.184   4.478
62447W        W34762  24.040  42.306  14.822
62448W        W34763  40.624  12.989  13.018
62449W        W34764  35.896  10.791  14.947
62450W        W34765  11.220  14.760   4.127
62451W        W34766  16.897  37.427   2.065
62452W        W34767   1.882  42.253   3.545
62453W        W34768  39.374   0.406   0.902
62454W        W34769  39.438  33.916  12.917
62455W        W34770  39.726   3.837  12.003
62456W        W34771  16.005  26.517   4.760
62457W        W34772  11.147  37.897  10.783
62458W        W34773  43.866  24.120  12.951
62459W        W34774   3.000  44.958   2.732
62460W        W34775  28.173  34.514   3.559
62461W        W34776   7.642  29.121   0.401
62462W        W34777  18.535  33.047  11.572
62463W        W34778  22.743  26.395  14.337
62464W        W34779  41.065  25.477   0.204
62465W        W34780  14.237  18.774  12.518
62466W        W34781  22.707  13.460  13.530
62467W        W34782  10.148  18.783   3.129
62468W        W34783  20.503  30.646   3.221
62469W        W34784   5.726  25.372  13.869
62470W        W34785  10.337  30.083  13.100
62471W        W34786  43.936   9.835   5.049
62472W        W34787  33.701  40.022  12.251
62473W        W34788  28.893  23.587  11.166
62474W        W34789  43.021   1.838  12.468
62475W        W34790  27.702  27.919   4.103
62476W        W34791   4.193  16.060  10.711
62477W        W34792  27.519  32.621  11.562
62478W        W34793   1.596  31.418  12.476
62479W        W34794  40.390  26.184  13.712
62480W        W34795  29.372  11.139  12.700
62481W        W34796   1.551  23.038   2.295
62482W        W34797  14.869   5.881  11.650
62483W        W34798  21.021  31.100  14.756
62484W        W34799  19.229  19.528   4.768
62485W        W34800  22.121  42.695  12.987
62486W        W34801  20.158  37.475   3.811
62487W        W34802  10.678  39.478   1.760
62488W        W34803  22.219   9.806  13.259
62489W        W34804   6.623  23.620   2.310
62490W        W34805  40.531   7.667  14.903
62491W        W34806  21.765   3.227   1.320
62492W        W34807  40.058  40.380  11.950
62493W        W34808  23.250  14.342  12.304
62494W        W34809  33.306  37.101   4.125
62495W        W34810  20.606  40.439  14.728
62496W        W34811   5.197  44.488  10.640
62497W        W34812  36.076  31.161  13.848
62498W        W34813  32.130  28.226  11.254
62499W        W34814  31.462  29.952  12.927
62500W        W34815  41.623  37.666  12.280
62501W        W34816  27.085  10.417  13.979
62502W        W34817  29.141  14.682   4.657
62503W        W34818  10.247  15.515  10.137
62504W        W34819   4.832  43.405   1.809
62505W        W34820  31.578  34.100   3.164
62506W        W34821  34.460  38.041   1.659
62507W        W34822  34.946  29.660  14.283
62508W        W34823  33.163  20.974  10.712
62509W        W34824   5.305  16.110   4.372
62510W        W34825   4.247   4.685   2.797
62511W        W34826  35.976  19.978  12.065
62512W        W34827  12.705  23.592   1.755
62513W        W34828  41.273  18.499  14.907
62514W        W34829  43.623  15.634   3.094
62515W        W34830  44.237  22.989  10.633
62516W        W34831  39.657   0.818  12.010
62517W        W34832   0.264  41.933   0.539
62518W        W34833  33.178   1.930   2.931
62519W        W34834   6.855   5.352   1.457
62520W        W34835  44.293  19.271   4.609
62521W        W34836  13.198  26.610   4.355
62522W        W34837  39.581   8.652   3.287
62523W        W34838   2.947  28.899  11.257
62524W        W34839  13.620   8.828   1.177
62525W        W34840  23.741  17.333   1.406
62526W        W34841  28.087  44.061  10.268
62527W        W34842  21.265   9.897  12.688
62528W        W34843  15.793  32.129   4.697
62529W        W34844  23.399  13.435   2.396
62530W        W34845  18.060  38.835   3.717
62531W        W34846   3.254   3.562   1.857
62532W        W34847  15.063   0.489  14.096
62533W        W34848  41.318   0.946   1.476
62534W        W34849  42.763   1.425  13.964
62535W        W34850  20.843  23.936   3.840
62536W        W34851  34.019  35.496   2.382
62537W        W34852   0.615  44.331  14.456
62538W        W34853  14.120  16.812  13.489
62539W        W34854   6.117  38.269   3.012
62540W        W34855   3.464  16.105   1.325
62541W        W34856  33.802  28.339  13.390
62542W        W34857  22.966  20.264  10.734
62543W        W34858  14.773  40.470  12.894
62544W        W34859   9.343  10.259  10.482
62545W        W34860  21.203  14.281   2.380
62546W        W34861  34.791   3.692  12.898
62547W        W34862   2.790  34.777   0.336
62548W        W34863  10.254  20.817  13.734
62549W        W34864  29.799  38.981   1.034
62550W        W34865  17.157  30.713   4.478
62551W        W34866   9.295  43.952  14.179
62552W        W34867  24.135  13.666   1.862
62553W        W34868  22.746  38.951  12.560
62554W        W34869  32.878  23.057   4.331
62555W        W34870   4.449  15.197  11.408
62556W        W34871  16.034  41.391   3.758
62557W        W34872  42.533   5.192  10.699
62558W        W34873  14.137  29.429   1.970
62559W        W34874   3.578  23.905   3.713
62560W        W34875  11.596  31.965  14.222
62561W        W34876   4.361  15.619   1.319
62562W        W34877  40.343  44.016   0.409
62563W        W34878  20.939   9.956   3.604
62564W        W34879  34.912  26.253  14.588
62565W        W34880  40.031  28.088   1.744
62566W        W34881  38.867  44.580  11.482
62567W        W34882  27.293   8.043  13.566
62568W        W34883  18.802  28.080  11.927
62569W        W34884  15.023  30.445   1.655
62570W        W34885  18.642   1.424  14.399
62571W        W34886   7.657  27.802   3.095
62572W        W34887   5.437  15.697  12.940
62573W        W34888  39.429  21.972   2.852
62574W        W34889  26.960  19.599   2.221
62575W        W34890  17.001  10.866   0.007
62576W        W34891  19.254  38.407   5.003
62577W        W34892  22.765  43.995  11.957
62578W        W34893  25.588  20.610  14.348
62579W        W34894  27.111  39.288   1.039
62580W        W34895  36.012  14.349  13.423
62581W        W34896   0.229  15.608   3.811
62582W        W34897  12.191  39.368  10.878
62583W        W34898  35.804  32.115  11.049
62584W        W34899  12.341  19.963  11.975
62585W        W34900  43.024  31.509  14.926
62586W        W34901  39.352  18.564  11.564
62587W        W34902  11.636  37.967  13.606
62588W        W34903  22.896   2.414  14.063
62589W        W34904  25.681  21.834   5.416
62590W        W34905  11.300   3.490   0.004
62591W        W34906   2.754  20.573   1.761
62592W        W34907  35.587  25.977  13.798
62593W        W34908  33.761  27.017  13.009
62594W        W34909  22.508  33.995  10.950
62595W        W34910  20.005  32.902  12.549
62596W        W34911  11.981   1.236   3.617
62597W        W34912  14.276  19.495   2.955
62598W        W34913  31.034  34.623   1.288
62599W        W34914  17.583  42.288  13.116
62600W        W34915  28.074  29.857   1.934
62601W        W34916  20.927   9.256   0.291
62602W        W34917  39.434  37.132  14.295
62603W        W34918  25.194  43.458  10.356
62604W        W34919  36.512  14.676   3.580
62605W        W34920  25.556  37.476  11.103
62606W        W34921  30.670  30.493   2.226
62607W        W34922  12.876  20.426   1.259
62608W        W34923   6.220   3.261  14.565
62609W        W34924  28.176  36.157   3.828
62610W        W34925  17.265  13.060   3.688
62611W        W34926  10.392  12.816   3.397
62612W        W34927   6.038   2.331  12.452
62613W        W34928  22.252  25.445  11.554
62614W        W34929  35.650   8.455   2.510
62615W        W34930  19.394  25.316  11.167
62616W        W34931  40.422  23.873  13.386
62617W        W34932   5.680  16.076   2.915
62618W        W34933  15.858  30.147   3.939
62619W        W34934  27.876  28.614  14.306
62620W        W34935  43.712  33.459  13.002
62621W        W34936  25.495  36.484   1.643
62622W        W34937  13.225  12.012  14.422
62623W        W34938  34.300  41.109  11.655
62624W        W34939  44.785  17.771  13.365
62625W        W34940   5.276  21.046   2.637
62626W        W34941  15.070  21.004   3.680
62627W        W34942  35.077   6.235  14.943
62628W        W34943  16.999  44.252   3.612
62629W        W34944   5.585  29.462   1.052
62630W        W34945  15.004  29.570  13.913
62631W        W34946  20.190   0.756  10.125
62632W        W34947  39.316  16.684  14.589
62633W        W34948  14.712  39.623   3.855
62634W        W34949  13.077  42.473   3.176
62635W        W34950  26.920  24.574   2.374
62636W        W34951   1.193  29.533  13.335
62637W        W34952  12.121  15.308   1.430
62638W        W34953  11.928  37.603  14.732
62639W        W34954   1.404  35.079  11.535
62640W        W34955   7.197  39.551  12.850
62641W        W34956   4.791  22.175   4.123
62642W        W34957  36.565  37.586  12.158
62643W        W34958  29.343  12.826  11.898
62644W        W34959  10.185  35.865  14.291
62645W        W34960  33.698  32.046  11.875
62646W        W34961   9.661  28.981   2.663
62647W        W34962  10.907  14.214  11.008
62648W        W34963  14.717  38.756  11.129
62649W        W34964  29.634  42.014   3.101
62650W        W34965   2.901  42.274   4.352
62651W        W34966  15.322   6.365  14.998
62652W        W34967  26.718   8.299   2.795
62653W        W34968  38.793  41.762  12.622
62654W        W34969   5.451   4.686  11.494
62655W        W34970  28.052  41.524  14.788
62656W        W34971  37.638  19.254  13.899
62657W        W34972  16.299  20.070   2.309
62658W        W34973  16.631  22.730   2.764
62659W        W34974  39.884  36.898   3.657
62660W        W34975  21.034   2.991  13.066
62661W        W34976  24.682  22.434   1.291
62662W        W34977   1.857  39.336   2.872
62663W        W34978  21.461  44.491   4.220
62664W        W34979  22.591  38.118  13.608
62665W        W34980  24.360  26.673   3.306
62666W        W34981  12.309  14.813  12.321
62667W        W34982   6.295   5.682  10.261
62668W        W34983  33.777  24.423   4.201
62669W        W34984  42.603   7.315  13.550
62670W        W34985   5.253   8.143  13.361
62671W        W34986  35.892  26.677   1.354
62672W        W34987  24.428  44.758  13.967
62673W        W34988  20.025  10.693  11.085
62674W        W34989  42.028  26.489  11.763
62675W        W34990  39.801  11.004   1.306
62676W        W34991  13.130  32.972  13.291
62677W        W34992  34.089  30.126  12.561
62678W        W34993  38.925  39.981  14.551
62679W        W34994  13.311  32.055   0.536
62680W        W34995  19.241  11.819   2.191
62681W        W34996  22.536  11.121  14.738
62682W        W34997   6.780  35.881   0.074
62683W        W34998   4.960   6.316  10.977
62684W        W34999  37.214  29.127   2.318
62685W        W35000  17.698  13.849  12.914
62686W        W35001  18.909  39.750  12.522
62687W        W35002  18.655  36.099   2.343
62688W        W35003  32.845  30.040   0.956
62689W        W35004  31.037   2.807  13.862
62690W        W35005  32.147  34.349  14.780
62691W        W35006   3.950  38.071  12.871
62692W        W35007  15.320  31.025  12.500
62693W        W35008  32.999  25.100   0.926
62694W        W35009  16.977  37.145   2.913
62695W        W35010   7.253  42.877  13.372
62696W        W35011  11.521   7.165  14.878
62697W        W35012  25.496  25.191   2.884
62698W        W35013  39.967   8.288   1.372
62699W        W35014   5.889  31.476  11.593
62700W        W35015  20.203  42.979  11.056
62701W        W35016  33.975   3.229  13.841
62702W        W35017  40.930  18.743  10.395
62703W        W35018  22.456   8.772  13.941
62704W        W35019  43.535  12.878  12.028
62705W        W35020  28.532  36.390   0.525
62706W        W35021  18.084   3.697   1.747
62707W        W35022  18.537  14.817   4.768
62708W        W35023  38.407  42.981   2.737
62709W        W35024  26.118  44.042   3.879
62710W        W35025  24.642  27.786   3.772
62711W        W35026  19.581  23.556  12.553
62712W        W35027  38.274   2.577   4.789
62713W        W35028   1.788   1.824   0.214
62714W        W35029   6.564  39.933   4.046
62715W        W35030   3.894  13.274   4.844
62716W        W35031  14.330  40.836  12.953
62717W        W35032  28.502  28.904  13.935
62718W        W35033   3.513  34.441   1.337
62719W        W35034  34.279  44.333   3.646
62720W        W35035  14.528  19.571  12.047
62721W        W35036  36.890   1.187   1.268
62722W        W35037  30.719  41.578   1.407
62723W        W35038  26.995  35.926   2.338
62724W        W35039  32.176  33.095   3.160
62725W        W35040  29.686  27.018   0.029
62726W        W35041   6.504  20.692   4.050
62727W        W35042  38.964  15.300  10.391
62728W        W35043  21.065  39.048  14.341
62729W        W35044  13.604  33.387   1.592
62730W        W35045  38.139  18.559  14.515
62731W        W35046  44.531  15.770   1.371
62732W        W35047  38.888  32.218   2.404
62733W        W35048   1.707   1.138   0.332
62734W        W35049  17.145  18.333   4.567
62735W        W35050  23.798  12.324  11.899
62736W        W35051  34.959  44.448  11.636
62737W        W35052  36.317  38.008   0.425
62738W        W35053  41.020  37.706  11.423
62739W        W35054  18.056  11.371   9.776
62740W        W35055  29.762  40.631   4.120
62741W        W35056   6.450  22.245   1.898
62742W        W35057  18.573  17.383  14.804
62743W        W35058  21.028  15.261   4.032
62744W        W35059   5.340  41.778   2.578
62745W        W35060  28.704   7.422   0.163
62746W        W35061  22.646   8.361  14.639
62747W        W35062  17.310  30.561  11.814
62748W        W35063  14.304   9.214   2.625
62749W        W35064  16.816  42.873  12.240
62750W        W35065  12.636  20.663   2.712
62751W        W35066  14.143   9.077  14.950
62752W        W35067  26.059   9.358   0.314
62753W        W35068   4.358  20.964   2.618
62754W        W35069   8.880  34.480  13.025
62755W        W35070  25.108   8.426  13.802
62756W        W35071   3.943   8.218   1.011
62757W        W35072  38.841  28.473   4.804
62758W        W35073  27.294  18.735  14.298
62759W        W35074  18.233  26.488  10.444
62760W        W35075   1.898  23.796   2.652
62761W        W35076   3.851  43.260   0.437
62762W        W35077  10.276  27.815   2.250
62763W        W35078  26.506   7.786   2.757
62764W        W35079  20.126  29.409   0.893
62765W        W35080  29.066  40.542  12.453
62766W        W35081  24.117   8.972   4.960
62767W        W35082  17.465  32.145   1.801
62768W        W35083  40.407   1.540   3.574
62769W        W35084  11.395  35.348   0.393
62770W        W35085  29.405   5.691   4.540
62771W        W35086  15.324  11.078   3.308
62772W        W35087   9.901  30.636  10.726
62773W        W35088  26.023  18.659  11.046
62774W        W35089  32.785  39.877  12.383
62775W        W35090  32.000   6.204  10.617
62776W        W35091  12.086  28.451   4.831
62777W        W35092  30.612  32.653   1.885
62778W        W35093  33.046   9.941   4.086
62779W        W35094  33.444  40.297   5.103
62780W        W35095  20.311  41.480   3.833
62781W        W35096  12.854  12.337  12.763
62782W        W35097  44.387   9.554  11.266
62783W        W35098  43.133   1.367   0.392
62784W        W35099  26.965   2.990   3.158
62785W        W35100  19.132  31.726   3.282
62786W        W35101  36.355  35.510  14.894
62787W        W35102  20.180  34.132  13.493
62788W        W35103   4.511  13.674  10.934
62789W        W35104  12.341  33.629   1.977
62790W        W35105  22.768  35.509  12.400
62791W        W35106   3.876  26.136  12.109
62792W        W35107  16.734  23.246   0.519
62793W        W35108   3.608  36.171  14.893
62794W        W35109  26.982  44.509   3.845
62795W        W35110  43.479  34.841  13.187
62796W        W35111  31.640  14.693  13.931
62797W        W35112   8.845  20.504  12.507
62798W        W35113  37.151  39.113   3.748
62799W        W35114  19.720  26.938  13.079
62800W        W35115  30.091  13.196  11.931
62801W        W35116  16.076  42.742  13.340
62802W        W35117  42.651  21.589  10.709
62803W        W35118  12.889  21.792  14.463
62804W        W35119  13.327  21.708  14.121
62805W        W35120  34.075  11.210   1.761
62806W        W35121   5.771  35.028   5.067
62807W        W35122  16.658   2.268   3.775
62808W        W35123  42.725  13.246   2.353
62809W        W35124   2.364  18.742   3.221
62810W        W35125  15.114  40.373   1.956
62811W        W35126  42.966  33.083  14.215
62812W        W35127  24.172  39.103   4.529
62813W        W35128  40.610  36.173   3.856
62814W        W35129  37.094  44.794   0.231
62815W        W35130  40.405  40.096   2.502
62816W        W35131  14.747  20.353   1.107
62817W        W35132  14.855  42.863   1.413
62818W        W35133   0.302  20.573   0.977
62819W        W35134  10.900  14.087  11.948
62820W        W35135  32.814  35.540  14.220
62821W        W35136  11.140  15.622  14.554
62822W        W35137  14.198  32.832  11.197
62823W        W35138  41.970  10.081   2.491
62824W        W35139  16.790  20.994  13.231
62825W        W35140  23.503   2.184  12.109
62826W        W35141  31.424  29.748   2.834
62827W        W35142  13.820  10.256   1.896
62828W        W35143  41.102  27.077  13.757
62829W        W35144  11.210   9.190   3.551
62830W        W35145  27.885  21.131   3.193
62831W        W35146  44.862  28.662   0.301
62832W        W35147  44.233  12.323   0.496
62833W        W35148  37.339  31.019  11.634
62834W        W35149  21.986  39.107   1.832
62835W        W35150   6.482  18.729  11.668
62836W        W35151  42.700  17.722  14.699
62837W        W35152  22.090  31.034   2.878
62838W        W35153   6.894  43.350   3.889
62839W        W35154  28.199  29.098   0.787
62840W        W35155  16.719  30.200   9.806
62841W        W35156  12.931  36.130   0.938
62842W        W35157  33.094  21.105  14.280
62843W        W35158  20.290  44.419  10.355
62844W        W35159  33.600  12.339  13.128
62845W        W35160   9.097  43.707   4.333
62846W        W35161  16.515  17.270  10.312
62847W        W35162   2.356  16.273  14.994
62848W        W35163  11.796  18.245  10.289
62849W        W35164  18.566   8.306   1.817
62850W        W35165  17.556  39.521  14.796
62851W        W35166  31.556  11.287  11.892
62852W        W35167  43.794  43.255   3.225
62853W        W35168  11.887  16.171  13.060
62854W        W35169   0.655  10.668   0.990
62855W        W35170   1.260  26.128  13.837
62856W        W35171  35.905   0.258  14.380
62857W        W35172   3.299  43.351  11.171
62858W        W35173  13.160  18.060  12.817
62859W        W35174  27.616  14.871   2.255
62860W        W35175  38.392  36.079  14.300
62861W        W35176  42.215  42.763   1.472
62862W        W35177  37.562  17.226   1.274
62863W        W35178  29.753  21.267  13.949
62864W        W35179   6.882   2.563   1.869
62865W        W35180   5.866  29.607  10.707
62866W        W35181  19.631  44.653  11.984
62867W        W35182  28.867  23.380  11.651
62868W        W35183   5.997  20.728   4.087
62869W        W35184  10.795  11.411   2.230
62870W        W35185  23.140  16.099  11.959
62871W        W35186  34.508  20.015   3.742
62872W        W35187  23.005  41.222   2.732
62873W        W35188  37.329  10.152  10.699
62874W        W35189  40.085   5.984  13.540
62875W        W35190  32.965   8.731  11.950
62876W        W35191  13.145  37.103  12.396
62877W        W35192  19.202  20.662  10.556
62878W        W35193  18.172  22.706   3.457
62879W        W35194  38.825  38.946   4.142
62880W        W35195  26.226   5.460  14.539
62881W        W35196  35.128  41.266   2.875
62882W        W35197  19.051  24.998   1.968
62883W        W35198  16.360   5.624  13.862
62884W        W35199  36.621   1.210  12.458
62885W        W35200  29.494   1.210  12.590
62886W        W35201  29.621   4.859  11.991
62887W        W35202  41.380   1.040   4.264
62888W        W35203   4.264  26.592   2.698
62889W        W35204  17.559  25.543   0.845
62890W        W35205  35.028  32.660   2.297
62891W        W35206  17.112  41.870  10.433
62892W        W35207  24.111  13.481   0.333
62893W        W35208  41.300  15.037  13.617
62894W        W35209  16.017  34.347   1.421
62895W        W35210  23.151  15.061   1.511
62896W        W35211  41.265  22.734   1.992
62897W        W35212  27.197  38.923   0.623
62898W        W35213   4.278  41.919  12.365
62899W        W35214  24.565   6.245  10.780
62900W        W35215  22.828  12.771  12.882
62901W        W35216   9.306  35.033  14.659
62902W        W35217   5.348  30.125   4.490
62903W        W35218  36.883  14.354  11.547
62904W        W35219  15.173  33.721  12.396
62905W        W35220  14.440   5.852  14.975
62906W        W35221  27.063   4.339  14.663
62907W        W35222  31.547  21.032   0.447
62908W        W35223  15.615  32.225  12.048
62909W        W35224   9.007  12.800   4.152
62910W        W35225  15.742  29.825   0.458
62911W        W35226  17.236  19.724   2.556
62912W        W35227  30.698   4.224  12.901
62913W        W35228  43.809  29.516  11.143
62914W        W35229  40.418  34.613  14.124
62915W        W35230  32.545   8.829   4.606
62916W        W35231  37.998  29.071   4.025
62917W        W35232  17.699  23.717   1.192
62918W        W35233  42.074  38.886   0.826
62919W        W35234   2.397  35.583   1.361
62920W        W35235  31.519  16.887   3.192
62921W        W35236  15.037  15.337   0.339
62922W        W35237   8.301  17.608   0.805
62923W        W35238  43.470   5.240  12.984
62924W        W35239  11.776  31.175  14.065
62925W        W35240   3.909  44.270   0.231
62926W        W35241   1.545  44.240  10.598
62927W        W35242   2.475  42.506  13.525
62928W        W35243  10.929  12.775  11.513
62929W        W35244  35.790  42.021   2.847
62930W        W35245  36.078  39.914  10.704
62931W        W35246   1.133  44.482  12.154
62932W        W35247   8.466  44.263  11.760
62933W        W35248  37.767  22.737   3.637
62934W        W35249  17.665  26.630  12.833
62935W        W35250  38.745  27.981  12.894
62936W        W35251  38.115   7.118   4.602
62937W        W35252  23.241   6.171  10.953
62938W        W35253  42.432  22.789   0.857
62939W        W35254   1.220  34.579  14.898
62940W        W35255  19.368  17.220  11.134
62941W        W35256  44.360  43.797   4.547
62942W        W35257  33.827   0.449   0.501
62943W        W35258  20.069  18.647  13.418
62944W        W35259  12.949  28.901   4.612
62945W        W35260  38.592  31.196   0.212
62946W        W35261  26.548  30.043  13.380
62947W        W35262  21.913   6.095   4.555
62948W        W35263  25.105  24.712  13.340
62949W        W35264  28.191   0.796   1.367
62950W        W35265  20.949  16.064  14.805
62951W        W35266   5.866  25.212  14.357
62952W        W35267  33.119   2.763  13.919
62953W        W35268   2.772  41.390  11.916
62954W        W35269  44.497  39.416  10.708
62955W        W35270  16.949  19.715  12.604
62956W        W35271  24.188  29.522   0.314
62957W        W35272  30.540   2.444   4.067
62958W        W35273  26.942   4.225   0.153
62959W        W35274  37.540  36.196   1.681
62960W        W35275   2.129   3.417  12.454
62961W        W35276   5.605   6.213   1.269
62962W        W35277  24.509  33.608   0.290
62963W        W35278   7.805   0.262   3.487
62964W        W35279  22.621  30.521  10.142
62965W        W35280  20.260  11.961  12.892
62966W        W35281   3.693  38.885  12.185
62967W        W35282  41.899  41.382   3.230
62968W        W35283  27.751  43.772  13.100
62969W        W35284  42.827  31.151   2.263
62970W        W35285  28.611  44.250  14.073
62971W        W35286   7.247  11.177   0.519
62972W        W35287  21.754  29.913  14.899
62973W        W35288  34.502  21.239   3.180
62974W        W35289  37.321  30.029  14.426
62975W        W35290   8.800   6.447   1.067
62976W        W35291  26.662  32.762   0.405
62977W        W35292  44.548  35.863  11.544
62978W        W35293  11.441  12.814  11.571
62979W        W35294  18.634  15.582   2.392
62980W        W35295   3.007  34.392   2.391
62981W        W35296  27.570   0.873  13.280
62982W        W35297  40.203  18.311  11.184
62983W        W35298  11.022   7.360   2.155
62984W        W35299   4.464   7.263  12.377
62985W        W35300  16.346  33.150  14.925
62986W        W35301   9.913   0.990   1.902
62987W        W35302  38.636  24.402   2.226
62988W        W35303  27.604  33.851   1.216
62989W        W35304  36.034  14.776   0.007
62990W        W35305  40.193  16.354  11.950
62991W        W35306   8.613  22.554  13.412
62992W        W35307  18.153  44.163  11.472
62993W        W35308  35.402  32.114   1.787
62994W        W35309  44.765   5.208  12.493
62995W        W35310  32.367   6.435  12.586
62996W        W35311  21.022   5.441  10.758
62997W        W35312  26.138  42.857  13.102
62998W        W35313  42.536  44.082  13.277
62999W        W35314  31.408  33.062  14.402
63000W        W35315  31.552  41.902   2.631
63001W        W35316   7.738  19.187   4.890
63002W        W35317  30.632  36.175  10.979
63003W        W35318  29.979  14.098   4.750
63004W        W35319  39.331   7.246  11.984
63005W        W35320  32.958  15.712   1.098
63006W        W35321  24.375  15.724  10.754
63007W        W35322  11.666  11.174   1.709
63008W        W35323  12.882  24.551   4.110
63009W        W35324  28.276  19.128   1.031
63010W        W35325   6.078   5.977  12.429
63011W        W35326   8.486  44.684   1.866
63012W        W35327  13.786  19.011  11.517
63013W        W35328  35.484  42.754  11.873
63014W        W35329  23.028   2.848   4.039
63015W        W35330  15.559  27.155  13.788
63016W        W35331  25.776   0.877  10.687
63017W        W35332   7.450  38.008   1.308
63018W        W35333  22.128  23.643   2.096
63019W        W35334   6.062  32.101  11.011
63020W        W35335   4.471  12.676  13.007
63021W        W35336  41.257  25.663   3.765
63022W        W35337  24.671  41.078   0.682
63023W        W35338  19.693  39.304  11.010
63024W        W35339  26.601  30.928  12.644
63025W        W35340  19.376  40.283  11.581
63026W        W35341  43.299  15.104  11.098
63027W        W35342  26.446  43.263   0.352
63028W        W35343  43.356  19.360  11.990
63029W        W35344  18.618  24.762  10.753
63030W        W35345  33.276  41.626  14.802
63031W        W35346  11.632  44.311   4.994
63032W        W35347  34.376  26.686   9.831
63033W        W35348  11.763  25.252   2.906
63034W        W35349   8.689   5.701  13.282
63035W        W35350  17.045   3.312   1.398
63036W        W35351  11.214  20.685  10.825
63037W        W35352  42.132  34.610  11.316
63038W        W35353  27.162  35.414  14.849
63039W        W35354  26.771  29.369  14.685
63040W        W35355  27.084   1.932   3.570
63041W        W35356  38.508  41.656   1.902
63042W        W35357  32.999  11.095   4.704
63043W        W35358  35.919  44.018  13.432
63044W        W35359   5.139  14.689  11.533
63045W        W35360  22.234  29.411  13.377
63046W        W35361   4.216   2.058  11.791
63047W        W35362  14.271  21.381   2.701
63048W        W35363  33.559  24.178   3.492
63049W        W35364  43.784  31.221  13.558
63050W        W35365  19.790  10.516   5.167
63051W        W35366  26.587  29.447  14.169
63052W        W35367  14.319   0.463  12.189
63053W        W35368  19.535   5.286  14.826
63054W        W35369  17.248  31.644  14.448
63055W        W35370  27.529  26.997   0.478
63056W        W35371   7.191  23.995  10.857
63057W        W35372  24.399  13.879  13.957
63058W        W35373  38.978  42.284   4.216
63059W        W35374  15.280  40.013   2.449
63060W        W35375  11.847  25.935   3.681
63061W        W35376  40.537   9.243   2.524
63062W        W35377  43.829  11.226  10.188
63063W        W35378  43.432  42.554   1.165
63064W        W35379  15.547   5.411   3.017
63065W        W35380  39.849  38.089   0.411
63066W        W35381  42.469  31.496  12.892
63067W        W35382  18.536  36.844  11.416
63068W        W35383  41.547  16.789  11.465
63069W        W35384  20.288  20.795   0.705
63070W        W35385  35.925  20.767  12.494
63071W        W35386  33.998  35.969  14.806
63072W        W35387  20.751  39.396  13.124
63073W        W35388  20.638   5.335  13.960
63074W        W35389  35.796   3.808  13.061
63075W        W35390   5.369  15.140  14.788
63076W        W35391  13.996  19.203  10.303
63077W        W35392   0.218   9.733   2.900
63078W        W35393  27.327  26.204  14.891
63079W        W35394  25.729  39.001  11.515
63080W        W35395  19.230   0.158   2.382
63081W        W35396  44.002  14.179   2.689
63082W        W35397  14.266  24.167  12.131
63083W        W35398  31.194   3.802  14.755
63084W        W35399  43.222  17.326  13.872
63085W        W35400   4.194  17.740  11.683
63086W        W35401  37.953  10.922   0.209
63087W        W35402  11.894   3.761  11.112
63088W        W35403  27.190  37.594  12.119
63089W        W35404  17.462  20.207   2.410
63090W        W35405  43.955   3.534  11.518
63091W        W35406  23.594  31.133  13.232
63092W        W35407   1.028  12.165   0.802
63093W        W35408  31.876  43.900   4.449
63094W        W35409   2.241  13.211   3.759
63095W        W35410  14.648  10.740  12.520
63096W        W35411  34.012  41.345  10.467
63097W        W35412  23.633  42.932  14.252
63098W        W35413   6.108   3.945   0.967
63099W        W35414  40.884  11.939   4.632
63100W        W35415   6.011  30.095  13.983
63101W        W35416  35.992  10.367  14.511
63102W        W35417  22.247   1.300   0.259
63103W        W35418  17.817  20.717   4.643
63104W        W35419  10.311  16.797  13.716
63105W        W35420   8.662  44.467   2.795
63106W        W35421  42.498  42.883  12.979
63107W        W35422  29.057   1.287   0.041
63108W        W35423  21.933   8.959  14.343
63109W        W35424   5.548  44.782   4.071
63110W        W35425  28.041  19.865  12.933
63111W        W35426  24.913   1.969  14.959
63112W        W35427  17.013   3.265   0.321
63113W        W35428  15.061   1.788   2.163
63114W        W35429  16.695   5.850   1.803
63115W        W35430  30.171   7.414  12.450
63116W        W35431   3.768  38.374  12.048
63117W        W35432  11.964  35.448  14.272
63118W        W35433   2.920   0.270  14.346
63119W        W35434  31.160   8.385  13.817
63120W        W35435  24.370  13.837  12.101
63121W        W35436  41.746   5.574   1.659
63122W        W35437   9.024  22.606  10.529
63123W        W35438   6.427  31.980   2.572
63124W        W35439  33.675   6.336  14.542
63125W        W35440  14.201   5.278   3.811
63126W        W35441  34.379  31.024  12.937
63127W        W35442   4.399   0.156  12.893
63128W        W35443  29.887  23.694  11.408
63129W        W35444  30.532  19.319   0.755
63130W        W35445  20.102  43.498   1.914
63131W        W35446  35.423  39.354  12.960
63132W        W35447   8.879  12.271  10.713
63133W        W35448  41.823   2.322  11.131
63134W        W35449  12.849  43.979  12.898
63135W        W35450   7.908  15.793   4.212
63136W        W35451  32.578   0.858   4.851
63137W        W35452   9.423  41.509  12.159
63138W        W35453   9.397   9.867   1.798
63139W        W35454  43.562   9.643   3.565
63140W        W35455  22.050  27.937   2.332
63141W        W35456   5.979   8.637   3.396
63142W        W35457  33.862  30.453  11.600
63143W        W35458  19.263  32.417   1.678
63144W        W35459  38.304  34.639   2.697
63145W        W35460  11.773   8.619  10.686
63146W        W35461  11.125  40.203   0.436
63147W        W35462  40.788  10.160  13.031
63148W        W35463  32.422  12.766  12.844
63149W        W35464   4.881  43.245   0.757
63150W        W35465  41.618  34.973  13.330
63151W        W35466  14.723   5.412   2.192
63152W        W35467   1.551  24.084  13.328
63153W        W35468  17.932   3.073  10.753
63154W        W35469  17.227  29.094   2.184
63155W        W35470  11.252  14.625   3.214
63156W        W35471  42.251   5.607   1.808
63157W        W35472  25.229  13.667  13.474
63158W        W35473  33.534  32.632  14.874
63159W        W35474  21.318   5.844  10.864
63160W        W35475  18.156  41.510  12.917
63161W        W35476  42.075  14.723   0.694
63162W        W35477   7.791  26.314  12.462
63163W        W35478  30.322  26.540  13.986
63164W        W35479  25.719   0.804  11.574
63165W        W35480   1.417  30.416   1.449
63166W        W35481  42.988  15.059   3.657
63167W        W35482  17.158  23.957  11.447
63168W        W35483   7.820   7.025  10.352
63169W        W35484  36.572   8.775  14.454
63170W        W35485  16.371   2.239  12.886
63171W        W35486   9.753  15.088  13.353
63172W        W35487   8.865  16.269  11.852
63173W        W35488  32.896  10.558   3.400
63174W        W35489  20.144  16.618   3.686
63175W        W35490  30.985  33.658  12.799
63176W        W35491  29.121   6.352   2.882
63177W        W35492   6.004  17.686  10.575
63178W        W35493  26.913   9.819  12.251
63179W        W35494   7.917  42.034  11.617
63180W        W35495  29.572  34.280   3.254
63181W        W35496  39.449  26.001  10.589
63182W        W35497  17.016  41.747   2.350
63183W        W35498   8.334   5.990  11.710
63184W        W35499  12.627   1.792   3.637
63185W        W35500  40.043  34.180   1.878
63186W        W35501  18.478  19.855   1.333
63187W        W35502  27.198   7.736  13.977
63188W        W35503  14.024  33.118  11.598
63189W        W35504   0.932  33.176   5.478
63190W        W35505  18.690  16.578  11.155
63191W        W35506  36.620  44.996   1.854
63192W        W35507  44.913  10.899  14.900
63193W        W35508  23.641   4.571  13.842
63194W        W35509  10.621  22.406   3.769
63195W        W35510  23.678  44.445   3.238
63196W        W35511  15.805  15.504  11.901
63197W        W35512  24.307   0.016  14.885
63198W        W35513   6.932   3.295  13.017
63199W        W35514  44.725  44.911  14.917
63200W        W35515  27.599  27.944  12.517
63201W        W35516  30.794  22.494   5.071
63202W        W35517   2.969  40.379   4.325
63203W        W35518  19.554  34.376   2.322
63204W        W35519   8.565  38.341   1.012
63205W        W35520   1.742  29.926  14.296
63206W        W35521  25.489  24.946   0.974
63207W        W35522  39.376  33.320   4.101
63208W        W35523  19.928   3.304   4.703
63209W        W35524  31.854   5.454  13.909
63210W        W35525  38.428  17.720   1.534
63211W        W35526  39.962  36.857   2.110
63212W        W35527  22.807  23.257   2.293
63213W        W35528  39.295  15.687  10.602
63214W        W35529  25.088  19.557   2.712
63215W        W35530  21.124  42.280  10.347
63216W        W35531   9.732  10.368  12.921
63217W        W35532  37.887  13.253   2.764
63218W        W35533  13.571  44.776   3.236
63219W        W35534  15.260  35.423   1.793
63220W        W35535  10.603  25.014  13.101
63221W        W35536   5.165  17.821   4.682
63222W        W35537  14.070  22.478  12.780
63223W        W35538   5.469  41.527  12.584
63224W        W35539  18.691  40.843   9.867
63225W        W35540  17.375  26.451  11.073
63226W        W35541  31.901  23.338   1.396
63227W        W35542  35.624  25.203  13.514
63228W        W35543  41.559  27.610  12.104
63229W        W35544   8.403   3.488  10.964
63230W        W35545  10.768  21.930  11.946
63231W        W35546   7.029  34.764   1.950
63232W        W35547   4.754  11.656  12.277
63233W        W35548  35.403  22.552   2.345
63234W        W35549   6.894  24.006  12.816
63235W        W35550  12.759  40.712   3.775
63236W        W35551   9.202   4.656   2.870
63237W        W35552  20.020  38.732  12.864
63238W        W35553  22.175   2.365  11.448
63239W        W35554  20.265  25.647  13.306
63240W        W35555  25.269  21.195  11.295
63241W        W35556  23.391  15.602  10.909
63242W        W35557  43.826  43.474   1.415
63243W        W35558  43.001   4.147  12.055
63244W        W35559  23.823  32.931   1.385
63245W        W35560  11.355  32.948  13.695
63246W        W35561  42.483  10.413  14.412
63247W        W35562  13.847  43.423  14.915
63248W        W35563  20.132  26.199   2.417
63249W        W35564  20.606  11.640  14.473
63250W        W35565  32.150  30.011  12.365
63251W        W35566   9.446  44.918  13.041
63252W        W35567  42.269  11.199  13.918
63253W        W35568  25.592  39.233   1.624
63254W        W35569  30.500  38.586   3.254
63255W        W35570  11.046  33.491  12.926
63256W        W35571  33.626  21.324   3.398
63257W        W35572  42.226  15.058   0.324
63258W        W35573  15.454   6.242   4.689
63259W        W35574   1.703  23.303   0.957
63260W        W35575   4.034  36.549   3.877
63261W        W35576  30.689   2.237   3.616
63262W        W35577  34.582   5.799  10.712
63263W        W35578   7.612  33.906  10.708
63264W        W35579   4.612  38.966   0.706
63265W        W35580  16.689  35.631   1.217
63266W        W35581   3.116  10.074  11.953
63267W        W35582   5.536  13.860   4.792
63268W        W35583   7.010  34.099  13.881
63269W        W35584  19.163  11.889   1.198
63270W        W35585   3.431  33.432   0.355
63271W        W35586  30.136  16.170  13.005
63272W        W35587  36.551  34.530  10.683
63273W        W35588  12.916   3.665   0.766
63274W        W35589  18.290  17.770   1.543
63275W        W35590  40.857  31.588   3.818
63276W        W35591  25.175  34.503  10.502
63277W        W35592  13.740  24.257  12.096
63278W        W35593  30.163  21.557   1.381
63279W        W35594   5.444  20.730  12.018
63280W        W35595  12.046  14.835   2.349
63281W        W35596   2.250  23.029   4.231
63282W        W35597  26.881  40.752   0.813
63283W        W35598   5.865  37.940  13.899
63284W        W35599  35.666  32.198  11.938
63285W        W35600  13.660   3.743   4.685
63286W        W35601  16.542   3.298  11.073
63287W        W35602  29.175  16.094  13.174
63288W        W35603  38.918  21.655  11.513
63289W        W35604  26.540  25.963  14.441
63290W        W35605  12.655  33.442  14.789
63291W        W35606  30.515  35.130   1.742
63292W        W35607  41.391  31.232  14.554
63293W        W35608   3.252  31.480   2.320
63294W        W35609  19.048  23.216  10.769
63295W        W35610  40.436  18.726   3.634
63296W        W35611  41.446  37.022   0.544
63297W        W35612  35.380   0.436   2.798
63298W        W35613   5.060   9.690   3.222
63299W        W35614   2.253   0.295  10.643
63300W        W35615  29.054  39.303   2.366
63301W        W35616  15.654  15.909  12.890
63302W        W35617  43.567  11.825   2.330
63303W        W35618   1.877   8.129   1.319
63304W        W35619  38.109  30.966   3.786
63305W        W35620  13.521  13.344   2.203
63306W        W35621  12.352  24.522  11.092
63307W        W35622   0.731  19.742  13.434
63308W        W35623  37.494  17.649  12.520
63309W        W35624  39.857  26.715  11.091
63310W        W35625  27.706  35.902   4.752
63311W        W35626  13.630   6.321  12.925
63312W        W35627  16.856  39.891  11.920
63313W        W35628  43.937  36.425   0.794
63314W        W35629  32.925  12.739   1.349
63315W        W35630  27.649  16.388   0.393
63316W        W35631  10.179  22.554  14.433
63317W        W35632  30.851  30.888  12.938
63318W        W35633   9.386  40.874  14.394
63319W        W35634  17.194   0.478  11.888
63320W        W35635  37.989  42.507  11.880
63321W        W35636  30.372  42.559   0.229
63322W        W35637  33.502  21.291  10.454
63323W        W35638  14.183  39.519  14.924
63324W        W35639  16.436  14.796  14.493
63325W        W35640  11.348  12.113   3.410
63326W        W35641   0.146  12.083  11.772
63327W        W35642  43.355  29.122   2.383
63328W        W35643   0.167  44.065  11.628
63329W        W35644  37.261  26.400   3.150
63330W        W35645  20.676  16.669   2.929
63331W        W35646  17.143  30.390  12.374
63332W        W35647  14.858  39.522  12.911
63333W        W35648   3.739  31.944   0.937
63334W        W35649  24.690  10.714   2.417
63335W        W35650   5.741  26.628   3.298
63336W        W35651  20.074  23.479   4.160
63337W        W35652  22.648  35.058   2.292
63338W        W35653  27.977  24.620   2.212
63339W        W35654  21.365  42.899   0.256
63340W        W35655  12.169  11.752  10.616
63341W        W35656  40.356  25.573   1.445
63342W        W35657  15.342  44.268  14.381
63343W        W35658  37.030  11.629   0.254
63344W        W35659  39.380  15.124  14.044
63345W        W35660  23.991  36.542   4.548
63346W        W35661  18.053   5.624  13.463
63347W        W35662  10.176  23.064   2.139
63348W        W35663   0.859  21.605   3.959
63349W        W35664   7.693  39.527  11.968
63350W        W35665  29.998  18.689   4.637
63351W        W35666  11.675  20.596  12.737
63352W        W35667   5.850  31.110   1.022
63353W        W35668  25.766  23.194   1.936
63354W        W35669  17.244  32.158   0.371
63355W        W35670  37.654  32.111  10.866
63356W        W35671  42.361   9.410   1.329
63357W        W35672  22.115  38.498  13.015
63358W        W35673   6.566  41.310  10.311
63359W        W35674   0.409  22.494   0.810
63360W        W35675  16.754  25.149  11.676
63361W        W35676  12.351  11.797  13.298
63362W        W35677  29.054  43.351   4.225
63363W        W35678  26.242   8.823   3.153
63364W        W35679  17.814  15.096   3.257
63365W        W35680   9.858  23.929  10.729
63366W        W35681   1.516  27.020   4.549
63367W        W35682  37.604   8.397   4.383
63368W        W35683   3.663  22.454  10.615
63369W        W35684  27.919  20.718  12.887
63370W        W35685  18.976  27.935   4.556
63371W        W35686  36.790  44.444  11.001
63372W        W35687  18.982   0.441   1.727
63373W        W35688  17.629  28.502   4.758
63374W        W35689  18.384  20.778  14.714
63375W        W35690  37.371  16.873   0.400
63376W        W35691   1.929  42.267   0.831
63377W        W35692  18.513  36.171   1.311
63378W        W35693  29.111   1.473  13.979
63379W        W35694  33.407   3.109  13.121
63380W        W35695  14.044  16.519   1.839
63381W        W35696   0.523  14.733  11.276
63382W        W35697   1.847  25.182   0.924
63383W        W35698  30.651   4.308   0.907
63384W        W35699  17.807  33.390  12.403
63385W        W35700  20.549  36.658  11.106
63386W        W35701  39.735  37.410  10.983
63387W        W35702   9.920   2.327   4.613
63388W        W35703  41.510  41.256   2.372
63389W        W35704  30.140  19.487   3.981
63390W        W35705  28.425  31.842   1.896
63391W        W35706  21.048   9.486   3.690
63392W        W35707  11.803  19.078   1.675
63393W        W35708  17.606  19.659   1.258
63394W        W35709  23.942  20.583  13.979
63395W        W35710  27.986  28.980   2.236
63396W        W35711   8.509  19.287   2.685
63397W        W35712  24.664  14.925   2.478
63398W        W35713  21.492  44.194   3.040
63399W        W35714  23.840  13.168  11.439
63400W        W35715  25.432  37.498   4.506
63401W        W35716  38.407   5.532  12.067
63402W        W35717  15.279   7.879  11.186
63403W        W35718  24.082  10.566  13.479
63404W        W35719  31.586  28.175   1.835
63405W        W35720  14.647  17.165   3.414
63406W        W35721  36.386  25.225   4.670
63407W        W35722   3.431   7.797   1.760
63408W        W35723  22.998  38.481   2.120
63409W        W35724   6.723  30.323  12.491
63410W        W35725  26.013  39.973  14.832
63411W        W35726   4.229  15.459   1.823
63412W        W35727  21.312  16.980   5.118
63413W        W35728  31.900   0.404   0.407
63414W        W35729  21.940  42.872  12.540
63415W        W35730  24.522  15.884   0.949
63416W        W35731  25.440  34.783   3.596
63417W        W35732  13.163  42.281   2.719
63418W        W35733   1.701   3.418   1.349
63419W        W35734   1.462  27.038   0.745
63420W        W35735  23.577  32.506   3.259
63421W        W35736  38.776  34.250   0.351
63422W        W35737  26.223  39.368   0.294
63423W        W35738  20.611  25.978  13.884
63424W        W35739  33.462   3.335  10.378
63425W        W35740  22.660  22.492   1.924
63426W        W35741   7.333  30.861  12.041
63427W        W35742  36.489  33.451   2.291
63428W        W35743   6.748   4.383  13.841
63429W        W35744   4.287  20.265   4.721
63430W        W35745  11.427  19.637  14.955
63431W        W35746  31.156  39.031   2.738
63432W        W35747  42.765  18.582  12.416
63433W        W35748  12.798   5.219  10.586
63434W        W35749  43.013  31.956   0.786
63435W        W35750  11.270  38.833   2.066
63436W        W35751  16.522  26.610  12.690
63437W        W35752   7.372  44.271  11.675
63438W        W35753  26.060  41.348  14.263
63439W        W35754   4.115  19.849   0.347
63440W        W35755   7.171  24.753   3.226
63441W        W35756  44.356  39.897   1.195
63442W        W35757   7.950   8.739  11.637
63443W        W35758  17.156  15.639  10.192
63444W        W35759  13.701   7.639   4.157
63445W        W35760  40.182  31.803  14.469
63446W        W35761  27.244   2.779   0.923
63447W        W35762  13.163  16.240  10.604
63448W        W35763  43.957   7.080   1.955
63449W        W35764  12.160   2.701   3.971
63450W        W35765  10.254  36.478  11.584
63451W        W35766  40.462  29.058   4.543
63452W        W35767  41.486  41.572   1.519
63453W        W35768  35.501   5.817   0.487
63454W        W35769  25.954  39.728  14.346
63455W        W35770  18.562  10.425   0.800
63456W        W35771  21.287  36.343  13.807
63457W        W35772  43.505   7.380  14.847
63458W        W35773  20.272   6.694  12.110
63459W        W35774  32.963  40.325  12.211
63460W        W35775   9.703   4.965   3.698
63461W        W35776   6.739  19.408  11.589
63462W        W35777  32.772  35.451   1.963
63463W        W35778   7.820   9.936   1.833
63464W        W35779  39.168   6.634   0.302
63465W        W35780   4.897  21.962   4.625
63466W        W35781   7.093  43.787  10.912
63467W        W35782   0.275  43.749  14.343
63468W        W35783   3.339  31.756   1.874
63469W        W35784   7.715   1.708   3.322
63470W        W35785  17.234  19.823   0.330
63471W        W35786  17.617   7.853   1.343
63472W        W35787   4.378  10.366  10.582
63473W        W35788  42.583  31.526   4.174
63474W        W35789  42.911  42.808   3.278
63475W        W35790   7.372  41.740   2.379
63476W        W35791  11.234  20.979  12.921
63477W        W35792   5.978  31.892   2.867
63478W        W35793  28.617  44.441  11.732
63479W        W35794  18.303   6.378   0.333
63480W        W35795  17.295   0.222   1.366
63481W        W35796   0.452  19.655   2.165
63482W        W35797  37.892   1.539  12.982
63483W        W35798   8.505  19.519  11.634
63484W        W35799  10.769  27.133  12.829
63485W        W35800   1.060  25.529   1.901
63486W        W35801   8.948   2.997   2.470
63487W        W35802   2.082  34.320  10.155
63488W        W35803  13.775  14.550   4.549
63489W        W35804  31.673  36.138   4.128
63490W        W35805  44.303   0.712  13.917
63491W        W35806   1.521  11.636   3.186
63492W        W35807   9.095  40.527  11.543
63493W        W35808   5.447  17.718  11.163
63494W        W35809  33.909  32.150   1.388
63495W        W35810   7.668  30.087   0.294
63496W        W35811  16.890  29.064   3.932
63497W        W35812  17.163  35.801  12.625
63498W        W35813  20.601   2.522  13.422
63499W        W35814  26.531  37.893   0.336
63500W        W35815  40.738   0.411   2.225
63501W        W35816  20.150  37.741   0.803
63502W        W35817   8.916  37.672   2.093
63503W        W35818  39.873  16.652  10.648
63504W        W35819  40.313  17.153   2.000
63505W        W35820   6.388  22.197   2.901
63506W        W35821  41.710  22.924   0.602
63507W        W35822  31.175  24.082  12.666
63508W        W35823  36.132   2.860  10.647
63509W        W35824  13.054  41.074  12.642
63510W        W35825   1.985  10.166   1.831
63511W        W35826  27.635  36.973  10.435
63512W        W35827  42.033  11.891  11.092
63513W        W35828  16.117  38.287   3.145
63514W        W35829  28.193  36.118  14.882
63515W        W35830  26.334  13.707   0.561
63516W        W35831   4.439  14.748   0.359
63517W        W35832  12.280  12.790  14.529
63518W        W35833  18.143  21.218  11.028
63519W        W35834   5.254  28.676  13.764
63520W        W35835   5.214  32.791  11.665
63521W        W35836  41.867  20.800   3.314
63522W        W35837  38.850  19.306   2.720
63523W        W35838   6.935   6.371  14.915
63524W        W35839  24.158   1.011   0.023
63525W        W35840  38.382  11.808  11.727
63526W        W35841   9.964  29.966   2.742
63527W        W35842  14.153   3.921   4.725
63528W        W35843  22.566  13.584   0.776
63529W        W35844  10.750  20.028  10.503
63530W        W35845   8.802   9.348   2.199
63531W        W35846  30.904   4.878  14.351
63532W        W35847  23.666  26.096   0.555
63533W        W35848  38.472  17.284  14.695
63534W        W35849  16.373  16.826   3.248
63535W        W35850   8.928  15.599  12.166
63536W        W35851  36.834   0.493   1.932
63537W        W35852  10.659   1.875   1.202
63538W        W35853  16.865  39.454  13.015
63539W        W35854  16.981  27.085   1.315
63540W        W35855  24.726  13.057   2.881
63541W        W35856   0.907  27.772  13.762
63542W        W35857   0.055   9.135   1.185
63543W        W35858  15.694  22.743  11.642
63544W        W35859  37.603  10.251   0.852
63545W        W35860  31.298  13.817   2.135
63546W        W35861  22.754  26.978   3.212
63547W        W35862  23.992  32.868  11.671
63548W        W35863  39.261  13.342  14.068
63549W        W35864  28.613  40.911   4.516
63550W        W35865  21.676   8.150   3.979
63551W        W35866  19.780  11.643   0.496
63552W        W35867  37.476   2.771   1.689
63553W        W35868  42.924   4.660   3.988
63554W        W35869   8.890  39.877  14.367
63555W        W35870   7.803  13.869   2.378
63556W        W35871  16.192  34.081   3.247
63557W        W35872  32.372  32.534  12.108
63558W        W35873  12.696  11.948   1.371
63559W        W35874  16.121  30.875   3.306
63560W        W35875  14.114  21.867   0.909
63561W        W35876   8.580  26.533  14.484
63562W        W35877  31.508  20.789  10.723
63563W        W35878  31.474  25.269  11.815
63564W        W35879   6.232   3.884  12.135
63565W        W35880  28.649  34.488   0.058
63566W        W35881  11.982   1.072  12.938
63567W        W35882  22.017  43.958   3.672
63568W        W35883   6.721   9.210  10.695
63569W        W35884  44.361  21.141   4.546
63570W        W35885  44.755  30.155   1.736
63571W        W35886  23.002  28.674  12.046
63572W        W35887   0.287   7.398  14.484
63573W        W35888  21.539  12.057   0.281
63574W        W35889   5.909  32.637   4.150
63575W        W35890  23.048  27.061   1.876
63576W        W35891  18.331   3.213   0.792
63577W        W35892  23.437  26.560   4.102
63578W        W35893  21.000  29.035  14.535
63579W        W35894  28.625  44.953   0.792
63580W        W35895   0.771  41.071   3.347
63581W        W35896   1.792  19.594   2.069
63582W        W35897  38.747  19.564   9.867
63583W        W35898  10.147  29.078   5.225
63584W        W35899   0.242  44.864  12.634
63585W        W35900  32.846  15.282   1.355
63586W        W35901   1.181  38.826   4.825
63587W        W35902  24.184  33.872   2.296
63588W        W35903  37.090  34.549  12.553
63589W        W35904  18.667  38.556  10.674
63590W        W35905   4.264   1.242  10.549
63591W        W35906  32.682  13.809   4.663
63592W        W35907  24.281   3.478   1.187
63593W        W35908   5.901   1.406  13.909
63594W        W35909  29.624  17.316  11.030
63595W        W35910  20.242  21.156  11.025
63596W        W35911   0.854  38.013   3.294
63597W        W35912  36.072   3.545   4.348
63598W        W35913  38.637  22.005   1.501
63599W        W35914  36.425  37.041  14.380
63600W        W35915  33.979  29.632   1.267
63601W        W35916   7.275  19.220  10.739
63602W        W35917  10.315   0.937  11.625
63603W        W35918   0.257  32.607  10.734
63604W        W35919  14.521  24.701   1.070
63605W        W35920  24.735  13.078   0.568
63606W        W35921  43.472  33.948  11.469
63607W        W35922  21.761  42.850   3.203
63608W        W35923  25.265  18.134   2.636
63609W        W35924  26.557  32.124  14.025
63610W        W35925   5.755  39.612  13.385
63611W        W35926  31.467  19.229   0.423
63612W        W35927  11.500  32.063   4.124
63613W        W35928  37.946  37.602  11.850
63614W        W35929  36.856  20.109  13.144
63615W        W35930   6.419  15.297  13.824
63616W        W35931  37.782  24.247  10.672
63617W        W35932   6.693  42.973   1.677
63618W        W35933  43.404  44.559  13.325
63619W        W35934  13.682  39.819   1.384
63620W        W35935   4.781   6.448  10.517
63621W        W35936   4.757  44.663   4.719
63622W        W35937   3.933  14.185   2.898
63623W        W35938   6.058   4.741  11.136
63624W        W35939   5.748  27.028   4.170
63625W        W35940  11.784   2.824  13.602
63626W        W35941   7.662  31.741  14.282
63627W        W35942  22.591   6.055   5.132
63628W        W35943  32.184  32.618   1.818
63629W        W35944  43.858  42.760  14.980
63630W        W35945  41.764  40.972  12.587
63631W        W35946   5.908  24.696  14.425
63632W        W35947  38.494  20.733  13.394
63633W        W35948  34.539   1.206   0.969
63634W        W35949  25.656  38.917  10.634
63635W        W35950  27.553  17.748  11.470
63636W        W35951   1.290   8.455  13.111
63637W        W35952   3.886  19.277  12.986
63638W        W35953  42.663  31.069   3.813
63639W        W35954  16.025  15.360   1.220
63640W        W35955  21.058   7.236  10.835
63641W        W35956  26.278   5.875  12.180
63642W        W35957  30.950  28.731  13.433
63643W        W35958   7.660  12.600  13.519
63644W        W35959  37.504   0.372  10.418
63645W        W35960  35.982  33.646  11.053
63646W        W35961  29.061  31.491   0.176
63647W        W35962  13.190  44.206  11.620
63648W        W35963   5.734  23.685   1.247
63649W        W35964  37.453  32.442  13.354
63650W        W35965  13.213  19.586   1.485
63651W        W35966   2.582  27.265  14.893
63652W        W35967   8.327  13.716   2.580
63653W        W35968   6.126   9.589  11.175
63654W        W35969   2.391  41.929  14.402
63655W        W35970  25.207  42.962  13.559
63656W        W35971  13.691  44.174  11.676
63657W        W35972  38.537  24.194  10.272
63658W        W35973  16.664  30.424  13.099
63659W        W35974  28.195  20.332  13.075
63660W        W35975  26.006  21.321  10.071
63661W        W35976  12.334  43.491   1.673
63662W        W35977   4.953  18.737   0.915
63663W        W35978   2.194   4.124   3.734
63664W        W35979  22.095  16.336   2.599
63665W        W35980  34.630  42.321  14.239
63666W        W35981  42.918  42.258   2.451
63667W        W35982  33.962  32.883   0.017
63668W        W35983  37.846  14.216   2.882
63669W        W35984   5.004  31.993   1.291
63670W        W35985  41.008  12.535  11.435
63671W        W35986   8.327   1.151   1.967
63672W        W35987  35.063  38.022  12.860
63673W        W35988   1.481  39.284  14.409
63674W        W35989  21.075  13.231   3.727
63675W        W35990   6.263  22.016  13.432
63676W        W35991  30.398  40.100   2.242
63677W        W35992  37.078   5.901   0.336
63678W        W35993  29.908  40.948   2.370
63679W        W35994  40.526  16.044   0.504
63680W        W35995  19.944  34.953   5.249
63681W        W35996  13.541  23.080   1.615
63682W        W35997  20.832  37.897  13.412
63683W        W35998  32.666  43.288  13.500
63684W        W35999  10.731  41.838   2.228
63685W        W36000  21.120  21.627   1.856
63686W        W36001   8.296  34.883   3.792
63687W        W36002   7.322  20.157   1.683
63688W        W36003  15.233  32.837  13.974
63689W        W36004  18.150  22.284   0.739
63690W        W36005  43.808  42.460   1.978
63691W        W36006  20.051   0.254   2.233
63692W        W36007  14.311  31.911  14.404
63693W        W36008  26.450  28.663  12.812
63694W        W36009   1.272  15.701   4.151
63695W        W36010  22.679  13.201  12.106
63696W        W36011   4.937  44.236  11.422
63697W        W36012  32.371  15.245  12.865
63698W        W36013   7.391  19.508  12.117
63699W        W36014   3.808  18.511  11.090
63700W        W36015  30.396  34.090   3.249
63701W        W36016  36.878  22.128  14.893
63702W        W36017  28.608  44.883  14.044
63703W        W36018  21.132  22.723   0.374
63704W        W36019  26.183  32.357  11.474
63705W        W36020  41.997  42.758  12.901
63706W        W36021  43.492  26.546  14.477
63707W        W36022  39.342   4.999   4.521
63708W        W36023  31.047   9.642   1.211
63709W        W36024  33.852  12.727   2.729
63710W        W36025   0.201  35.779   4.216
63711W        W36026  27.012  34.718   0.442
63712W        W36027  31.354  31.472   0.351
63713W        W36028  15.829   3.520   4.227
63714W        W36029  43.530  26.216   0.361
63715W        W36030  27.084   0.863   1.623
63716W        W36031   2.932  39.425  11.383
63717W        W36032  23.733  12.158   2.135
63718W        W36033  26.114  27.625   1.759
63719W        W36034   0.148  33.401  10.948
63720W        W36035  34.087   6.732  13.592
63721W        W36036  34.497  25.193   4.914
63722W        W36037  38.139  19.117  13.774
63723W        W36038  19.284   9.635   0.246
63724W        W36039  29.629  19.161  14.238
63725W        W36040  39.748  13.141  13.948
63726W        W36041  38.033  26.483  12.371
63727W        W36042  30.960  11.169   3.345
63728W        W36043  18.601  23.513  10.874
63729W        W36044  33.000  23.921   1.420
63730W        W36045   0.969  27.932   0.829
63731W        W36046  33.116  19.278   4.563
63732W        W36047  39.400  18.516  13.006
63733W        W36048   1.459  24.033   1.713
63734W        W36049  23.071  18.025  14.960
63735W        W36050   1.876  14.807  14.275
63736W        W36051  10.428   7.927  12.593
63737W        W36052  39.993  42.277  12.453
63738W        W36053  21.152   8.623  12.989
63739W        W36054  23.188  33.988   0.465
63740W        W36055  25.571  35.321   4.515
63741W        W36056  30.474  14.765  12.543
63742W        W36057  16.071  33.594   0.005
63743W        W36058  23.714  32.322   2.392
63744W        W36059  33.909   6.121  12.448
63745W        W36060   4.353  23.654   3.726
63746W        W36061  20.257  38.294   4.202
63747W        W36062  37.331  16.298   2.355
63748W        W36063   1.839  28.117   3.388
63749W        W36064  13.108   1.370   4.742
63750W        W36065   3.800  21.299   9.513
63751W        W36066  33.370   5.281   0.010
63752W        W36067  10.291  12.086  14.855
63753W        W36068  32.913  12.804  12.969
63754W        W36069   7.437  17.281  12.014
63755W        W36070   4.750  14.378  10.643
63756W        W36071  19.714   4.830   4.745
63757W        W36072   8.109  34.401   3.819
63758W        W36073   3.354  40.423   2.909
63759W        W36074   1.961   2.869   0.685
63760W        W36075   5.735  24.976   0.780
63761W        W36076  40.823   1.813   3.701
63762W        W36077   3.372  34.917  11.682
63763W        W36078  13.177  41.764   2.702
63764W        W36079  24.630  41.417  11.012
63765W        W36080  40.064   4.153   4.495
63766W        W36081  14.630  40.982  12.157
63767W        W36082  40.200  15.835  12.551
63768W        W36083  43.026  42.053  14.147
63769W        W36084  14.986  22.069   0.968
63770W        W36085  10.932  43.230  10.800
63771W        W36086   0.245  37.430   2.518
63772W        W36087   4.714  12.131   3.708
63773W        W36088  12.021   9.489  14.904
63774W        W36089  27.664  13.243  12.976
63775W        W36090  35.042  29.478   2.207
63776W        W36091  27.536  32.389  14.010
63777W        W36092  29.175  22.916  11.669
63778W        W36093  12.701  40.559  11.130
63779W        W36094  24.535  22.899   1.187
63780W        W36095  23.965  15.130  11.570
63781W        W36096  28.031  24.545   3.142
63782W        W36097   9.754   5.694   3.216
63783W        W36098  29.686   0.320   2.507
63784W        W36099   2.398   8.006  12.648
63785W        W36100  16.794  17.775   3.221
63786W        W36101  29.003  16.849  12.035
63787W        W36102  36.073  13.331   2.781
63788W        W36103  20.517  17.830  10.676
63789W        W36104  11.400  16.735   9.645
63790W        W36105   3.101  11.756  10.548
63791W        W36106   8.956   9.960   3.403
63792W        W36107  21.281  11.355  14.420
63793W        W36108  42.010  13.093   1.639
63794W        W36109  28.537  15.834   0.320
63795W        W36110   4.268  26.608  11.492
63796W        W36111  17.127  29.680   4.596
63797W        W36112   0.381  41.809  13.877
63798W        W36113  21.519   0.198  14.437
63799W        W36114  10.219  35.087  14.823
63800W        W36115  32.666  34.083   1.670
63801W        W36116  44.873  44.780   0.814
63802W        W36117   9.190  27.431   1.776
63803W        W36118  41.444  28.021   1.373
63804W        W36119   3.477  10.211   3.338
63805W        W36120  18.056   6.694   4.630
63806W        W36121  35.988  14.535  11.988
63807W        W36122  29.121  13.311  13.493
63808W        W36123  32.058  35.252  11.022
63809W        W36124   2.183  42.283  13.083
63810W        W36125  44.820  27.183  11.851
63811W        W36126  20.749   8.711   2.266
63812W        W36127  14.307  38.733  13.831
63813W        W36128  33.584  31.376   1.691
63814W        W36129   5.967   1.404   3.757
63815W        W36130   6.933   7.273  11.660
63816W        W36131  33.494  13.223   4.403
63817W        W36132  18.914  39.024   0.746
63818W        W36133  38.057   9.742  12.391
63819W        W36134  27.539   2.316  14.898
63820W        W36135  28.677  10.182  10.668
63821W        W36136  11.288  38.321  12.927
63822W        W36137  32.048  34.873   2.383
63823W        W36138   7.236   2.197  12.184
63824W        W36139  19.530  18.048   0.027
63825W        W36140  17.156  15.507  10.703
63826W        W36141   6.346  34.652  13.435
63827W        W36142  17.370   2.907  14.511
63828W        W36143   3.171  35.818   2.657
63829W        W36144   3.397  16.139   2.255
63830W        W36145  28.610  36.433   3.412
63831W        W36146  19.117  15.638   1.435
63832W        W36147  22.725   4.237   3.142
63833W        W36148  42.414   0.735   3.988
63834W        W36149   7.185  27.840   0.589
63835W        W36150  23.467  17.473  11.155
63836W        W36151   4.229  29.546   1.393
63837W        W36152  30.270   3.222   5.179
63838W        W36153   0.890  40.110   3.192
63839W        W36154  12.010   2.755   2.853
63840W        W36155  27.487  42.056   0.294
63841W        W36156  11.674  27.912  12.023
63842W        W36157  23.266   6.274  12.391
63843W        W36158  27.792  35.032   4.569
63844W        W36159   5.913  35.082   3.983
63845W        W36160  16.838   0.429   1.495
63846W        W36161  10.259  27.375  14.817
63847W        W36162   7.353  35.420  13.009
63848W        W36163  35.033  33.623  13.382
63849W        W36164  23.591  41.797   3.976
63850W        W36165  29.532  10.628  11.940
63851W        W36166  32.992  10.393   0.722
63852W        W36167   3.448   0.198  12.655
63853W        W36168  30.079  13.301  11.411
63854W        W36169  14.023  35.117   4.886
63855W        W36170  23.703  44.346   0.574
63856W        W36171  20.649  20.271   4.145
63857W        W36172  11.569  22.373   0.795
63858W        W36173  24.780  36.911  11.959
63859W        W36174  35.298  44.484   2.465
63860W        W36175  29.518  27.954  14.990
63861W        W36176   3.328  39.267   3.773
63862W        W36177   2.429   0.835  14.972
63863W        W36178  21.420   9.852   3.814
63864W        W36179  31.170  42.638   1.161
63865W        W36180   6.459  41.625  12.552
63866W        W36181  25.038  33.552  12.543
63867W        W36182  14.226  37.302   0.012
63868W        W36183   5.420  15.127  11.583
63869W        W36184  19.773  18.632  13.826
63870W        W36185  10.082  12.782  10.297
63871W        W36186  13.203   6.121   4.041
63872W        W36187  44.268   9.019  12.678
63873W        W36188  37.154  33.953  11.231
63874W        W36189  30.647  44.014   0.718
63875W        W36190   2.443   3.820   3.020
63876W        W36191  36.421  20.927   5.075
63877W        W36192  12.684  33.224   0.781
63878W        W36193   7.718  27.918   0.332
63879W        W36194  19.564   4.461   4.414
63880W        W36195  31.378  17.246  11.979
63881W        W36196  34.511  21.150  10.369
63882W        W36197  11.338  37.769   4.118
63883W        W36198   9.265  43.021   0.022
63884W        W36199  24.599  39.571   0.734
63885W        W36200  27.620  33.829  14.381
63886W        W36201  32.598  11.859  14.900
63887W        W36202  17.642  43.703   0.755
63888W        W36203   3.297  41.737  12.987
63889W        W36204  31.035  42.535  14.515
63890W        W36205   2.133  21.575  11.131
63891W        W36206  25.594  26.795  13.019
63892W        W36207  20.578  30.035  11.178
63893W        W36208  44.335  43.430  13.131
63894W        W36209   7.439  28.916  12.096
63895W        W36210  30.736  26.601   4.823
63896W        W36211  21.839  41.471   3.794
63897W        W36212  42.952   4.232   2.990
63898W        W36213  24.214  22.922  10.991
63899W        W36214  23.923  21.297   2.175
63900W        W36215  37.073  36.514   4.574
63901W        W36216  16.211  30.630   4.594
63902W        W36217  13.666  21.029   4.274
63903W        W36218  20.191  26.597   1.394
63904W        W36219  31.457   4.620   3.217
63905W        W36220  12.704  42.200  14.732
63906W        W36221  38.860  33.572   1.863
63907W        W36222   4.279  26.233  12.450
63908W        W36223   6.765  38.285  14.527
63909W        W36224  32.898  37.038   1.120
63910W        W36225  44.689   7.171   4.452
63911W        W36226  28.015  42.046  14.926
63912W        W36227  21.749  27.204  11.682
63913W        W36228  41.302  25.550  14.356
63914W        W36229  32.912  39.908  13.500
63915W        W36230  38.120  32.570  11.754
63916W        W36231  38.936   4.676   0.982
63917W        W36232  42.753  41.409   1.848
63918W        W36233   7.433  24.497   0.412
63919W        W36234  24.373  15.083  13.456
63920W        W36235  16.090  18.131   4.598
63921W        W36236  15.547  18.155  14.424
63922W        W36237  29.558  38.032  14.824
63923W        W36238   1.369   3.834   3.983
63924W        W36239  38.906  20.256   1.463
63925W        W36240  25.195  22.714  13.496
63926W        W36241   4.966  10.182  14.932
63927W        W36242  11.380  44.401   2.757
63928W        W36243  16.531  32.891  14.296
63929W        W36244  20.206  38.291   0.222
63930W        W36245   3.353  16.239  11.050
63931W        W36246  36.404  34.768  11.626
63932W        W36247  15.068  39.614   1.516
63933W        W36248  39.777  44.177   1.694
63934W        W36249   9.764  18.577  12.050
63935W        W36250  20.484  31.076  13.044
63936W        W36251  21.921  24.570  10.655
63937W        W36252  10.535   4.800  11.150
63938W        W36253   9.449  22.143   2.488
63939W        W36254  30.976  26.417   1.414
63940W        W36255  43.198  38.031  14.746
63941W        W36256  28.449  25.763   1.829
63942W        W36257  36.482  11.409  11.317
63943W        W36258  29.835  29.143   4.788
63944W        W36259  21.080  23.108  13.085
63945W        W36260  43.963  19.676   4.686
63946W        W36261  36.386  22.279   3.578
63947W        W36262  43.340  14.765  12.077
63948W        W36263  29.869  27.226  11.098
63949W        W36264  16.468  43.013   2.038
63950W        W36265  40.767  28.089   4.737
63951W        W36266  16.814  13.648   0.514
63952W        W36267  18.827  10.173  12.542
63953W        W36268  38.422  16.733  14.387
63954W        W36269   2.896  16.047  12.816
63955W        W36270  34.220  27.994   2.621
63956W        W36271  32.946  27.533   0.779
63957W        W36272  10.155  12.669   2.231
63958W        W36273  18.998  39.448   1.836
63959W        W36274  18.828  14.762  12.016
63960W        W36275  43.566  34.124  10.394
63961W        W36276  13.694  16.660   0.247
63962W        W36277  42.998  41.464   1.389
63963W        W36278  42.453  42.397   2.730
63964W        W36279   0.210  31.064   4.757
63965W        W36280   6.938  28.094   0.991
63966W        W36281  28.092  15.127  10.518
63967W        W36282  11.524  38.005   3.201
63968W        W36283   1.780  32.965   0.850
63969W        W36284  15.305   2.911   4.538
63970W        W36285  25.383  29.267  11.201
63971W        W36286  13.056  39.719  10.662
63972W        W36287  40.909  12.279   0.898
63973W        W36288  28.966  10.283   0.814
63974W        W36289  27.158  29.089  13.619
63975W        W36290   1.012  33.793  10.665
63976W        W36291  21.730   2.672  11.654
63977W        W36292  31.001  41.774   1.901
63978W        W36293  35.943  26.023   4.543
63979W        W36294  11.706  39.135   3.619
63980W        W36295   0.190  31.463  10.686
63981W        W36296  22.001  35.886   3.255
63982W        W36297  19.847  16.748   1.323
63983W        W36298  35.951   1.770  12.278
63984W        W36299  26.972   6.593   3.363
63985W        W36300  34.820  36.502   2.229
63986W        W36301  34.968   2.000  13.359
63987W        W36302  27.263  37.894  14.399
63988W        W36303  43.797  25.901   0.928
63989W        W36304  17.503  24.034   1.978
63990W        W36305  20.665   9.167   1.416
63991W        W36306  28.119  35.849   3.401
63992W        W36307  44.991  11.625   0.489
63993W        W36308  26.989   6.205   0.742
63994W        W36309   5.376  24.974  14.009
63995W        W36310   7.812   4.491   0.913
63996W        W36311  15.702  21.072   4.785
63997W        W36312  27.938  41.866   2.909
63998W        W36313  44.746  34.909   1.737
63999W        W36314  31.760  38.422   2.321
64000W        W36315  24.059   3.713  13.955
64001W        W36316   9.696  22.229   4.733
64002W        W36317  31.973   1.750  13.046
64003W        W36318  16.201   1.909  14.795
64004W        W36319   3.963  18.093   0.753
64005W        W36320  34.603  30.931   3.767
64006W        W36321  31.058  33.005  11.990
64007W        W36322  19.609  14.278  10.639
64008W        W36323  18.407  33.893  11.964
64009W        W36324  23.027  24.513  12.014
64010W        W36325  23.157  24.990   0.189
64011W        W36326  34.367   0.132  12.088
64012W        W36327  33.567   0.654   1.230
64013W        W36328  28.875  24.810  12.576
64014W        W36329  18.166  13.503  13.740
64015W        W36330  11.301  32.374  14.324
64016W        W36331   2.464  44.060  11.395
64017W        W36332  25.519  18.735  11.566
64018W        W36333  24.983  35.420  12.906
64019W        W36334  12.382  30.502   3.185
64020W        W36335  20.513  44.165   3.960
64021W        W36336   7.754  19.933   4.969
64022W        W36337  10.525  36.456  10.787
64023W        W36338  33.950  44.311  14.441
64024W        W36339  17.164  38.362   4.158
64025W        W36340  22.139   1.231  12.367
64026W        W36341  39.883  29.449   2.321
64027W        W36342   2.845  35.385   1.490
64028W        W36343   3.034  18.590  10.586
64029W        W36344  24.685  37.939   3.344
64030W        W36345  12.328  22.055   0.656
64031W        W36346  15.586  22.101   1.792
64032W        W36347   7.238   1.462   2.078
64033W        W36348   5.922   2.549   1.804
64034W        W36349  21.611  16.986  14.214
64035W        W36350  26.901  12.344   4.171
64036W        W36351   9.788  33.021  11.242
64037W        W36352  29.098   0.058  14.970
64038W        W36353  37.326  36.570   1.406
64039W        W36354  24.650   8.816  14.264
64040W        W36355  18.549  44.399  14.717
64041W        W36356   8.945  38.498  11.170
64042W        W36357   8.977  27.193  13.969
64043W        W36358  22.040  10.626   1.903
64044W        W36359  23.597  11.132  12.978
64045W        W36360  10.876  14.645   0.665
64046W        W36361   4.212  11.674   4.671
64047W        W36362  31.455  21.106   5.039
64048W        W36363  29.596  36.812  11.836
64049W        W36364  41.503  11.201   0.815
64050W        W36365   2.791   3.953   2.459
64051W        W36366  38.404  41.733   0.927
64052W        W36367  17.276  20.663   0.723
64053W        W36368  40.752   4.218  12.959
64054W        W36369  17.646  34.289   3.422
64055W        W36370  38.149   8.939  11.903
64056W        W36371  15.632  13.449  12.917
64057W        W36372  28.399   0.450   3.091
64058W        W36373  22.088  29.537   2.507
64059W        W36374  18.113   4.540   0.540
64060W        W36375  35.531  24.472  12.819
64061W        W36376   9.036   2.927   1.350
64062W        W36377  36.797   8.742   3.229
64063W        W36378  38.511  38.230   1.754
64064W        W36379  43.398   8.734   0.640
64065W        W36380  31.846  42.848   0.752
64066W        W36381  19.591  24.571  11.619
64067W        W36382  40.518  36.029   0.837
64068W        W36383  13.089  27.470   2.803
64069W        W36384  26.010   4.982   1.436
64070W        W36385   4.527  42.434  11.527
64071W        W36386  19.789   6.858  14.906
64072W        W36387   5.698  19.065   1.870
64073W        W36388  28.543  37.310   0.515
64074W        W36389  10.410  39.353   3.407
64075W        W36390  17.582  36.862   2.364
64076W        W36391   4.305  42.960   4.610
64077W        W36392  13.270  21.468   0.457
64078W        W36393  38.321  17.656  10.460
64079W        W36394  35.923  17.203  11.629
64080W        W36395   3.011  39.815   1.390
64081W        W36396  29.457  10.674  11.059
64082W        W36397  38.805  42.301   2.225
64083W        W36398   7.279  12.064   0.506
64084W        W36399  15.504  36.914  11.971
64085W        W36400   2.276   4.204   4.821
64086W        W36401  44.824   9.260   2.038
64087W        W36402  36.547  31.723  13.042
64088W        W36403   8.207  23.696   1.090
64089W        W36404   6.234  20.803  11.591
64090W        W36405  34.099  15.057  13.897
64091W        W36406  19.744  31.093   0.476
64092W        W36407  23.092  35.629  10.974
64093W        W36408  34.206  19.601   3.713
64094W        W36409   2.749   4.342   4.594
64095W        W36410  28.178  21.571  10.078
64096W        W36411  26.279   4.403  12.860
64097W        W36412  21.080   4.457  10.735
64098W        W36413   2.366  23.465  11.394
64099W        W36414   4.194  42.378   2.107
64100W        W36415   0.424  21.158  14.542
64101W        W36416  36.294  44.062  11.440
64102W        W36417  44.684  42.060  14.268
64103W        W36418  34.520  30.308   3.157
64104W        W36419  37.893  37.834  11.400
64105W        W36420  27.033  26.957  14.523
64106W        W36421  27.712   6.321  10.268
64107W        W36422  27.306  23.595   2.693
64108W        W36423  25.725   6.997   2.868
64109W        W36424  16.443  34.586  14.732
64110W        W36425  20.450  28.261   3.114
64111W        W36426  21.059  40.041  12.055
64112W        W36427  27.598  31.288   9.738
64113W        W36428  27.002  20.136   0.944
64114W        W36429  26.209  21.710   3.641
64115W        W36430  31.865  36.193  12.844
64116W        W36431  44.401  28.266   4.666
64117W        W36432  20.433  33.376  11.557
64118W        W36433  20.420   6.430   1.256
64119W        W36434  28.081  32.474  13.348
64120W        W36435  17.677  41.046   2.787
64121W        W36436  44.377  14.479  14.284
64122W        W36437  23.049  20.280   0.977
64123W        W36438   4.940   0.724   3.285
64124W        W36439  20.026  29.214   2.350
64125W        W36440  14.688   5.139   4.057
64126W        W36441  11.490  26.408  13.614
64127W        W36442   6.483  31.007   2.817
64128W        W36443  26.922  32.416   4.294
64129W        W36444  35.645  38.220   2.405
64130W        W36445  40.452  12.686  14.928
64131W        W36446   3.545  27.195   4.577
64132W        W36447   3.058  39.036   3.025
64133W        W36448  20.872   8.198   9.868
64134W        W36449  23.913  38.370   3.304
64135W        W36450  20.282  40.047   2.830
64136W        W36451  33.263  38.621   0.890
64137W        W36452  29.200  34.255   5.448
64138W        W36453  19.547  17.538  12.148
64139W        W36454  35.386  42.417   2.176
64140W        W36455  17.245   6.811  11.112
64141W        W36456  40.976  30.749  14.692
64142W        W36457  37.370  28.956  13.337
64143W        W36458   3.410  22.577   2.290
64144W        W36459  36.011  32.177  12.505
64145W        W36460   0.174   0.385  11.874
64146W        W36461  32.107  33.714   0.882
64147W        W36462  24.396  20.134   0.733
64148W        W36463   5.312   0.974   0.395
64149W        W36464  21.672   3.465  12.109
64150W        W36465  42.642   0.784  12.045
64151W        W36466  40.977  39.285  13.019
64152W        W36467   1.814  25.602   1.240
64153W        W36468  41.760  33.417  13.799
64154W        W36469   9.567   7.429   4.510
64155W        W36470  29.041  36.507  14.740
64156W        W36471   2.588  39.091   0.899
64157W        W36472  24.967  35.815  11.120
64158W        W36473  11.782   6.292  12.388
64159W        W36474  27.616   0.477  10.820
64160W        W36475  19.954  22.754   1.532
64161W        W36476  21.147  43.959   3.877
64162W        W36477  29.513  43.758   4.639
64163W        W36478   1.782  13.068   1.958
64164W        W36479  44.854  42.918   2.185
64165W        W36480  16.220   0.537  14.144
64166W        W36481   4.780  25.168  13.371
64167W        W36482  44.714  40.778  11.146
64168W        W36483   0.297   0.789  12.804
64169W        W36484  27.306  41.557  10.758
64170W        W36485  13.253   7.316   4.731
64171W        W36486   1.277   5.081  13.477
64172W        W36487   4.617  33.583   2.122
64173W        W36488  32.316  17.500   3.819
64174W        W36489  31.184   3.396   2.432
64175W        W36490  12.821   4.248   4.204
64176W        W36491  28.896  30.096   0.571
64177W        W36492  11.820   5.453   1.493
64178W        W36493  44.017  11.417   0.872
64179W        W36494  44.015  39.384  10.901
64180W        W36495   0.877  21.970   2.517
64181W        W36496  44.754  17.110   3.158
64182W        W36497   9.246  30.601  13.951
64183W        W36498   6.608  32.104  11.037
64184W        W36499  17.664   4.552   2.435
64185W        W36500  11.798   0.584   4.267
64186W        W36501  41.939   8.160   1.298
64187W        W36502  38.393  24.241   3.669
64188W        W36503  28.959  41.493   2.160
64189W        W36504  35.637   5.359   0.294
64190W        W36505  17.074  36.913   2.455
64191W        W36506  16.814  41.756  13.813
64192W        W36507  33.983   9.320  11.574
64193W        W36508  27.591  30.507  14.091
64194W        W36509  29.522   3.948  10.684
64195W        W36510  22.205  40.015   2.237
64196W        W36511  18.006  26.602   2.772
64197W        W36512  34.976   0.954  13.345
64198W        W36513  38.811  36.446   1.968
64199W        W36514  31.986  19.983  11.521
64200W        W36515  36.914  43.050   1.772
64201W        W36516  30.179   5.660  13.560
64202W        W36517  41.065  40.783   3.122
64203W        W36518  30.048  12.838  12.947
64204W        W36519  28.685  28.038  14.069
64205W        W36520  40.694  44.058  11.424
64206W        W36521  40.883  26.976   0.403
64207W        W36522  11.119  22.151  13.431
64208W        W36523   3.892   8.826  12.127
64209W        W36524  24.652   1.694   0.358
64210W        W36525  22.077  44.777  13.444
64211W        W36526  10.605   2.787  11.675
64212W        W36527  20.476  20.940   1.973
64213W        W36528  27.064  16.312   3.821
64214W        W36529  33.270  16.420  11.515
64215W        W36530   9.563  35.217  12.573
64216W        W36531   0.318  34.509   5.171
64217W        W36532  10.702   7.955   3.697
64218W        W36533  32.352   9.811   3.381
64219W        W36534  25.256  27.010   4.114
64220W        W36535  24.765   9.229   1.705
64221W        W36536   7.443  37.383  13.553
64222W        W36537  22.062  28.821   0.193
64223W        W36538  15.513  14.076  12.210
64224W        W36539   6.836   0.531  13.222
64225W        W36540   4.690  18.319   4.125
64226W        W36541   7.026   4.482  14.272
64227W        W36542  33.521  28.117  12.503
64228W        W36543  26.451  23.592   1.424
64229W        W36544  44.488  29.644  10.551
64230W        W36545  29.510  29.522   4.969
64231W        W36546  27.196  12.234  12.480
64232W        W36547   9.087  11.226   3.288
64233W        W36548  21.016  18.739   4.129
64234W        W36549  43.924  20.171  12.067
64235W        W36550  36.386  19.971   2.353
64236W        W36551  34.403  22.648   2.351
64237W        W36552  36.714  19.674  12.895
64238W        W36553  10.913  18.778  10.310
64239W        W36554  19.345   1.658  13.007
64240W        W36555  37.624   5.834  11.596
64241W        W36556   4.682  38.944  12.005
64242W        W36557  14.826  39.892  11.982
64243W        W36558   6.708   6.750   4.824
64244W        W36559  22.712  18.234   0.865
64245W        W36560   4.941  41.573   2.307
64246W        W36561  14.884  18.031  11.138
64247W        W36562  18.689  14.648  12.534
64248W        W36563  43.933  27.108   1.931
64249W        W36564  26.472  37.560   0.785
64250W        W36565  14.695   5.696   4.553
64251W        W36566  26.703  16.085  13.285
64252W        W36567  34.026  34.993   2.515
64253W        W36568  26.174  27.430  12.582
64254W        W36569  18.593  43.733   2.218
64255W        W36570  17.659  41.880   1.776
64256W        W36571  26.513  35.419   1.115
64257W        W36572   9.341  32.435  12.628
64258W        W36573  25.457  40.902   3.276
64259W        W36574  25.222   7.234  11.939
64260W        W36575   0.010   9.537   2.451
64261W        W36576  30.268  35.917   1.850
64262W        W36577  10.450  18.668   1.943
64263W        W36578  14.176  27.695   5.087
64264W        W36579   5.318   0.009   2.759
64265W        W36580   6.432  12.379  12.369
64266W        W36581  11.292   8.686  14.372
64267W        W36582  16.617  37.557  14.657
64268W        W36583  39.247   8.378  11.274
64269W        W36584  18.185   5.981  14.275
64270W        W36585  20.773   8.409   1.827
64271W        W36586   9.467   8.250   4.856
64272W        W36587  21.478  41.401   4.153
64273W        W36588  35.561  15.913  11.983
64274W        W36589   0.318  14.321  12.595
64275W        W36590  34.014   7.722  10.657
64276W        W36591  21.102  42.458  12.581
64277W        W36592  19.776   6.420  12.182
64278W        W36593  44.558  34.680  11.042
64279W        W36594  14.706  28.683   2.167
64280W        W36595  31.464  24.146   4.596
64281W        W36596  16.684  37.414   1.250
64282W        W36597   1.728  41.236  12.342
64283W        W36598   6.648  38.240  11.695
64284W        W36599  39.372   7.934  13.072
64285W        W36600  44.492  26.189   0.365
64286W        W36601  35.365  35.008   3.879
64287W        W36602  24.137   4.274   3.577
64288W        W36603   4.779   0.203   3.361
64289W        W36604  23.513  18.673  10.619
64290W        W36605  39.486   0.299  14.612
64291W        W36606  20.744  18.169   2.873
64292W        W36607  22.922   9.632   3.761
64293W        W36608  40.449  11.277   0.661
64294W        W36609  21.256   8.003   3.584
64295W        W36610  13.275  30.451   1.385
64296W        W36611   0.538  37.895  12.985
64297W        W36612  13.872  27.565  11.850
64298W        W36613   2.950  17.531  14.883
64299W        W36614  44.506  33.156   4.328
64300W        W36615  35.430  41.398  12.887
64301W        W36616   3.257  19.136   2.067
64302W        W36617  33.803  19.028   2.881
64303W        W36618  24.197  21.234   3.272
64304W        W36619  19.147   6.764  11.643
64305W        W36620  44.754  18.818   1.019
64306W        W36621  22.926  22.292   2.801
64307W        W36622  31.578  35.237  13.904
64308W        W36623  21.171  24.263   0.276
64309W        W36624   1.704  34.555   9.879
64310W        W36625  33.924   1.211  10.489
64311W        W36626  26.332  40.481  13.961
64312W        W36627  42.237  10.882  14.478
64313W        W36628  36.123  33.480  13.976
64314W        W36629  20.181  32.139  10.698
64315W        W36630  18.861  38.783   2.147
64316W        W36631  19.665   0.890   3.590
64317W        W36632  30.024  23.701  12.269
64318W        W36633   1.967  22.917  14.296
64319W        W36634  23.648  20.682  13.003
64320W        W36635  37.560  29.144  14.280
64321W        W36636   8.750   3.148   3.677
64322W        W36637  14.272   4.392   1.759
64323W        W36638   0.821   7.269  12.877
64324W        W36639   0.061   5.704   4.553
64325W        W36640   2.172  24.114  11.172
64326W        W36641  26.624  14.842   1.330
64327W        W36642   9.092   4.826  11.124
64328W        W36643  33.037  43.768   2.590
64329W        W36644   9.868  36.591   0.425
64330W        W36645   5.842  37.056  14.305
64331W        W36646   4.337  28.724   4.207
64332W        W36647  28.443  27.662   1.265
64333W        W36648   4.132  28.244   4.251
64334W        W36649  12.043  28.239  11.869
64335W        W36650  32.639  26.496   0.778
64336W        W36651  15.077  36.899   1.619
64337W        W36652  16.867  35.306  11.118
64338W        W36653  42.787  38.391   4.576
64339W        W36654   3.400  39.716  13.378
64340W        W36655   6.442  31.637  14.727
64341W        W36656  20.510  40.982  10.631
64342W        W36657  44.273  35.892   3.996
64343W        W36658  42.547   4.874   1.402
64344W        W36659  10.106  13.575  10.698
64345W        W36660  14.880  10.799   1.969
64346W        W36661  11.153  11.257   0.426
64347W        W36662  30.126  13.563   3.512
64348W        W36663  31.075  40.066   4.546
64349W        W36664  44.253  33.909   3.216
64350W        W36665   1.358  39.895  12.551
64351W        W36666   7.607   7.689  13.167
64352W        W36667  30.984  34.150   0.954
64353W        W36668  13.804  14.999   1.680
64354W        W36669  38.150  40.976   0.599
64355W        W36670  25.863  42.398  12.943
64356W        W36671   8.261   8.740  14.315
64357W        W36672  13.204  26.567  13.799
64358W        W36673   9.118  28.392   0.855
64359W        W36674  16.243  27.425  10.661
64360W        W36675  11.816  18.502   4.210
64361W        W36676  25.659  44.557   1.161
64362W        W36677   8.430  27.232   2.664
64363W        W36678  17.476  23.748  13.964
64364W        W36679  10.727  18.231  12.570
64365W        W36680  11.561  24.792   2.801
64366W        W36681  11.420   5.743  10.708
64367W        W36682  43.922   5.708   1.143
64368W        W36683  35.836   9.124   4.073
64369W        W36684   9.738  19.059   3.297
64370W        W36685   1.435  13.069   0.735
64371W        W36686  44.709  29.544   1.293
64372W        W36687  36.914  44.781   4.554
64373W        W36688  31.315  11.796   2.301
64374W        W36689  27.456  39.151  14.791
64375W        W36690  10.551  23.565  13.482
64376W        W36691  28.935  42.737  13.437
64377W        W36692  44.020  43.705   0.970
64378W        W36693  32.598  18.009   1.470
64379W        W36694  30.981  15.834   2.338
64380W        W36695  11.645   6.691  12.770
64381W        W36696   7.536  32.596   0.172
64382W        W36697   8.732  13.359   0.335
64383W        W36698  14.326  37.813  14.936
64384W        W36699  21.557  27.006   0.539
64385W        W36700  25.088  20.734  10.638
64386W        W36701  22.829  15.667  13.034
64387W        W36702   7.770  28.202  11.046
64388W        W36703   0.524   6.496   3.329
64389W        W36704   0.442   7.236   4.672
64390W        W36705  40.525   2.206   0.997
64391W        W36706  39.963  44.016  14.733
64392W        W36707   9.239  21.707  14.856
64393W        W36708  27.442   6.404   3.290
64394W        W36709  33.030  42.746   2.600
64395W        W36710  31.041   6.696   2.128
64396W        W36711  34.859   8.448  13.304
64397W        W36712  13.286  16.061  13.986
64398W        W36713   7.673   8.402   1.256
64399W        W36714  42.357   4.717  13.307
64400W        W36715   5.459   4.240   2.120
64401W        W36716   0.776   2.301   0.478
64402W        W36717  36.078   4.258  13.925
64403W        W36718  43.626  32.544  13.093
64404W        W36719  32.420   2.604  14.284
64405W        W36720  15.156  42.362   3.084
64406W        W36721  27.188   6.249  13.278
64407W        W36722  23.429  15.219   3.743
64408W        W36723  20.015  44.555  11.604
64409W        W36724  22.963  37.640  14.737
64410W        W36725  25.964  25.101  12.410
64411W        W36726   7.750  16.361  12.910
64412W        W36727  27.477   4.386   3.865
64413W        W36728  27.674   3.685  12.474
64414W        W36729  28.956  39.393   0.607
64415W        W36730  41.849  35.416   1.801
64416W        W36731   1.524  23.918   0.798
64417W        W36732  16.157  12.444  12.050
64418W        W36733   9.472  10.913  11.520
64419W        W36734  34.605  16.386   2.670
64420W        W36735  36.635   3.579  12.942
64421W        W36736  24.111  11.235  10.604
64422W        W36737   5.749  39.745   2.135
64423W        W36738   9.226   2.858  14.980
64424W        W36739  11.985  39.077   0.011
64425W        W36740  21.061  20.066  12.952
64426W        W36741  10.585   0.457   2.277
64427W        W36742   9.728   6.431   0.861
64428W        W36743   5.382  20.512  14.749
64429W        W36744  28.191  35.623  14.795
64430W        W36745  20.701  30.420  14.365
64431W        W36746  13.331  15.543  14.003
64432W        W36747   3.124  23.600   4.150
64433W        W36748   9.180   4.056   4.509
64434W        W36749  39.000  15.124  14.820
64435W        W36750  15.512  27.841  12.366
64436W        W36751  16.161  23.655   1.836
64437W        W36752  30.136  11.658  13.528
64438W        W36753  28.539  14.544  13.244
64439W        W36754  13.846  11.256   3.436
64440W        W36755  40.850  44.012  13.493
64441W        W36756  30.459  38.314   0.257
64442W        W36757  19.269  29.097  10.665
64443W        W36758  32.094   1.402   1.384
64444W        W36759   4.381   1.734  10.355
64445W        W36760   5.731   9.919  14.450
64446W        W36761  11.041   4.077  13.863
64447W        W36762   5.602  37.004   4.626
64448W        W36763  29.078  23.212   4.080
64449W        W36764   7.733  34.078  11.438
64450W        W36765  29.062  40.497   4.884
64451W        W36766  29.239  35.081  14.381
64452W        W36767   9.155  41.341   1.643
64453W        W36768  44.003  18.786  11.824
64454W        W36769  41.014   8.419  14.247
64455W        W36770  16.759  15.703  11.463
64456W        W36771  40.041   7.152  11.525
64457W        W36772  42.064  44.190   2.822
64458W        W36773  39.171  27.612   0.189
64459W        W36774  15.241  25.086  14.371
64460W        W36775   7.937  18.588  11.021
64461W        W36776  12.770  41.242   2.378
64462W        W36777   1.262  34.678  10.585
64463W        W36778  39.778  24.111  12.176
64464W        W36779  20.606  36.506   0.955
64465W        W36780  23.125  39.304   1.861
64466W        W36781  40.030  17.830  11.211
64467W        W36782  38.410  33.966  10.584
64468W        W36783  26.770  26.084   1.191
64469W        W36784  39.943   8.239   4.073
64470W        W36785   1.418   8.562   1.894
64471W        W36786  32.460   8.636   1.029
64472W        W36787  36.491  12.180   0.682
64473W        W36788  29.892  24.526  14.054
64474W        W36789  16.937   5.392   1.792
64475W        W36790  35.583  14.073  13.510
64476W        W36791   8.959  38.990  10.268
64477W        W36792  23.079  17.572   4.362
64478W        W36793  41.828  15.518  13.956
64479W        W36794   1.934   9.205   4.996
64480W        W36795   8.820  12.776   3.262
64481W        W36796   0.901  24.659  13.915
64482W        W36797  39.292   2.340   1.674
64483W        W36798   3.473   3.935  10.725
64484W        W36799  41.374   7.283  12.910
64485W        W36800  10.224   9.241   3.118
64486W        W36801  15.704  41.293   0.489
64487W        W36802  20.112  19.132   4.110
64488W        W36803  20.416   1.028   3.357
64489W        W36804  39.847   4.000   2.387
64490W        W36805  35.386  23.425   0.932
64491W        W36806  24.357  26.023   2.205
64492W        W36807  31.533  17.540   4.045
64493W        W36808  39.496  34.158  11.902
64494W        W36809  36.402  37.554  14.369
64495W        W36810  19.356  20.720   1.695
64496W        W36811   2.887  40.568   2.760
64497W        W36812  44.316  24.688   4.636
64498W        W36813  12.448  10.685   4.610
64499W        W36814  31.350   9.747  12.893
64500W        W36815   9.693  16.147   0.372
64501W        W36816   9.739  20.632   1.776
64502W        W36817  25.072  42.285   0.278
64503W        W36818  30.544   9.393  12.733
64504W        W36819   7.094  21.126  11.613
64505W        W36820   5.337  13.388   4.791
64506W        W36821  36.378   9.169   0.430
64507W        W36822  42.536  39.332   4.526
64508W        W36823  13.575   7.477   1.783
64509W        W36824  14.547  44.751   3.187
64510W        W36825   9.814  22.679  12.826
64511W        W36826  22.248  10.723  11.576
64512W        W36827  30.416  17.162   4.789
64513W        W36828  15.114  37.066  13.482
64514W        W36829  37.663   0.016  14.433
64515W        W36830  17.329  21.240  12.400
64516W        W36831  11.696  39.384   4.965
64517W        W36832  10.076  42.238  13.851
64518W        W36833  26.648  14.318  11.845
64519W        W36834  20.082   3.806   4.635
64520W        W36835   5.351  24.481   1.256
64521W        W36836   9.958  17.340  12.364
64522W        W36837  30.339  42.961  14.893
64523W        W36838  42.444  37.505   2.575
64524W        W36839  13.932  26.124  10.698
64525W        W36840  38.620  35.534  11.522
64526W        W36841  38.426  10.113  14.436
64527W        W36842  42.795   0.914  14.881
64528W        W36843  44.969  30.699   3.258
64529W        W36844   8.370  19.357  14.300
64530W        W36845   2.909  40.312  13.686
64531W        W36846  41.762   7.895  13.760
64532W        W36847  43.268   1.438   4.205
64533W        W36848  37.889  42.449   3.221
64534W        W36849  42.994  35.054   1.980
64535W        W36850  37.953  40.787   4.554
64536W        W36851  26.768   7.278  13.306
64537W        W36852  43.146  43.011  11.853
64538W        W36853  30.722  10.295  10.270
64539W        W36854  44.825  43.526  12.857
64540W        W36855   3.009  12.099  14.894
64541W        W36856  33.740  23.573   1.917
64542W        W36857  33.313   8.164  10.028
64543W        W36858  20.727  12.168  13.570
64544W        W36859  36.523  44.720  12.421
64545W        W36860  18.327   7.653   1.856
64546W        W36861  35.874   4.670   1.913
64547W        W36862  20.260  25.170   2.789
64548W        W36863  39.313   5.252   0.431
64549W        W36864  12.804  13.422  10.757
64550W        W36865   6.926   4.827   4.182
64551W        W36866  11.429   6.289   0.633
64552W        W36867  24.017  24.706   0.469
64553W        W36868   8.888  29.029  14.919
64554W        W36869  14.173   8.746   2.337
64555W        W36870  38.345  15.173  13.824
64556W        W36871  11.839  31.386   3.294
64557W        W36872  34.335  24.267  13.300
64558W        W36873  32.587  24.647   2.771
64559W        W36874  14.331  19.112   0.649
64560W        W36875  23.801   0.219   0.618
64561W        W36876  29.255  23.005   0.291
64562W        W36877  41.954  11.653  12.089
64563W        W36878  34.790  10.986  12.427
64564W        W36879  34.779  13.612  10.800
64565W        W36880   3.404  20.741  10.876
64566W        W36881   2.809  11.872   0.426
64567W        W36882  26.993  14.299  12.596
64568W        W36883  38.110  33.048  13.361
64569W        W36884  42.991  27.435  10.645
64570W        W36885  40.231   0.763   0.021
64571W        W36886  14.955  19.356  10.850
64572W        W36887  16.120  32.389  12.047
64573W        W36888  18.820   5.835  13.992
64574W        W36889  19.495  26.412  11.204
64575W        W36890  27.586  13.417   0.735
64576W        W36891  11.357  39.781  11.037
64577W        W36892  12.257   7.038  13.013
64578W        W36893  25.746  18.359   2.705
64579W        W36894  29.434  40.561  14.947
64580W        W36895  37.005  30.939   1.180
64581W        W36896  21.234  14.211  12.106
64582W        W36897  34.453  34.155   0.000
64583W        W36898  39.957  10.306   1.735
64584W        W36899   4.482  43.001  13.831
64585W        W36900  19.093  22.242   1.392
64586W        W36901   6.530  38.466  13.434
64587W        W36902  39.516  40.832  12.698
64588W        W36903  26.427  35.875   1.347
64589W        W36904  17.576  19.904   3.591
64590W        W36905  42.282  41.778   1.037
64591W        W36906  27.521  18.425  10.677
64592W        W36907   6.143  15.626  13.403
64593W        W36908   8.854   9.010   3.792
64594W        W36909  40.078  26.179   5.429
64595W        W36910  18.809   0.853   2.897
64596W        W36911  14.350   8.415   3.249
64597W        W36912  39.286  24.733   0.470
64598W        W36913  26.630  31.281   2.645
64599W        W36914  10.625  29.638  12.462
64600W        W36915  26.628  19.131   2.884
64601W        W36916  41.728   3.805   0.872
64602W        W36917  43.023  11.419  14.380
64603W        W36918  13.061  35.618  10.959
64604W        W36919   8.237  33.675  13.558
64605W        W36920  35.293  30.381   0.440
64606W        W36921  12.258  34.040  11.428
64607W        W36922  32.335  15.838  13.912
64608W        W36923  11.101  22.761   4.445
64609W        W36924  28.755  41.423  14.445
64610W        W36925  41.585  28.690  13.998
64611W        W36926  22.174  23.978   3.422
64612W        W36927  32.728  13.796   0.974
64613W        W36928  17.786  23.469  14.767
64614W        W36929  37.091   4.525   2.838
64615W        W36930   1.764  11.340  13.456
64616W        W36931  29.920  39.499   3.699
64617W        W36932  27.374  20.735  11.044
64618W        W36933  40.348  21.689   2.351
64619W        W36934  21.798   1.677  14.562
64620W        W36935  17.117  37.919   3.231
64621W        W36936  31.784  19.639  11.197
64622W        W36937  35.834   1.826  14.390
64623W        W36938   3.995  14.105   1.791
64624W        W36939  27.645  40.505   3.301
64625W        W36940   8.954   9.919  11.947
64626W        W36941  15.340  12.666  14.366
64627W        W36942  41.999  21.990   1.745
64628W        W36943  17.695  11.123  10.592
64629W        W36944  17.518  29.963   3.289
64630W        W36945  35.375   4.516  11.170
64631W        W36946  22.543   2.217  14.921
64632W        W36947   5.652  33.143   2.737
64633W        W36948   7.813  23.102   0.406
64634W        W36949  22.932  15.309  14.076
64635W        W36950  19.293  36.346   0.586
64636W        W36951  36.874  14.372  13.368
64637W        W36952  29.653  19.588  14.526
64638W        W36953  41.435  23.379  14.512
64639W        W36954  39.272   1.346  11.076
64640W        W36955   7.517  42.760  13.829
64641W        W36956   6.757  28.737   2.638
64642W        W36957   7.835  37.788  12.356
64643W        W36958  42.830  23.533   2.116
64644W        W36959  10.083  37.282  12.186
64645W        W36960  20.098  24.478   4.204
64646W        W36961  44.837   2.401  14.355
64647W        W36962  11.598  22.161   3.344
64648W        W36963  41.521  31.150  10.727
64649W        W36964  32.430  11.801  11.304
64650W        W36965  31.934  22.175   4.227
64651W        W36966  35.144  35.836   1.916
64652W        W36967  29.195   0.511  14.791
64653W        W36968  42.349  24.715  13.095
64654W        W36969  25.479   9.742   4.002
64655W        W36970  21.079   5.319   3.676
64656W        W36971  11.173  19.532  13.030
64657W        W36972   3.962  29.596   1.833
64658W        W36973   6.643  28.565   3.612
64659W        W36974  32.849   2.128  11.220
64660W        W36975  32.078  30.568  11.929
64661W        W36976  15.520  35.996   2.438
64662W        W36977  35.127   2.258   2.911
64663W        W36978  33.426  37.155  11.521
64664W        W36979  35.899  29.140  12.466
64665W        W36980  20.453  28.537   0.918
64666W        W36981  36.867  17.734   2.700
64667W        W36982  39.300  13.614   4.155
64668W        W36983  44.547  43.980  14.909
64669W        W36984   2.247   1.372   4.310
64670W        W36985  31.864   5.701  12.390
64671W        W36986  42.628  32.811  14.464
64672W        W36987  30.711  42.804   1.333
64673W        W36988  27.025  39.394  13.849
64674W        W36989  27.380  42.681  11.636
64675W        W36990  17.047   5.275   3.217
64676W        W36991  38.841  24.381  11.190
64677W        W36992   0.080  11.601  11.631
64678W        W36993  24.595  17.053  14.943
64679W        W36994  31.678  13.855  11.798
64680W        W36995  27.527  25.505   4.851
64681W        W36996  42.893   6.947  12.907
64682W        W36997  32.704  34.259   4.562
64683W        W36998  33.662   2.918  10.626
64684W        W36999  12.778  12.796   3.738
64685W        W37000  30.039  19.773   0.746
64686W        W37001  27.703  38.345  11.085
64687W        W37002  30.258  12.687   3.678
64688W        W37003  27.919  28.116  14.192
64689W        W37004  23.982  23.486  11.095
64690W        W37005   8.822  27.443  12.319
64691W        W37006   1.456  12.151  13.892
64692W        W37007  11.222  34.682   1.237
64693W        W37008   5.491  39.821   0.288
64694W        W37009  25.469   7.248  13.772
64695W        W37010  14.625  44.014  10.623
64696W        W37011  19.788  34.429   4.207
64697W        W37012  28.461  16.298   1.613
64698W        W37013  12.187  19.580  11.599
64699W        W37014   7.688  26.782  12.196
64700W        W37015  19.835   1.994  11.117
64701W        W37016  28.470   9.418   1.350
64702W        W37017  41.927   6.372  11.952
64703W        W37018  19.550  18.323   1.803
64704W        W37019   6.862  31.046  12.922
64705W        W37020  43.400   0.352  11.004
64706W        W37021   7.875  35.732   1.113
64707W        W37022  16.284  31.769   3.133
64708W        W37023  35.899  25.264   0.878
64709W        W37024   0.061  28.092   1.737
64710W        W37025  38.026  24.525   0.696
64711W        W37026  35.306  12.825   2.726
64712W        W37027  30.867  16.306  13.564
64713W        W37028  11.649  39.465  10.700
64714W        W37029  26.135  39.844   1.611
64715W        W37030   6.805  15.834   3.638
64716W        W37031  19.877   6.203  14.481
64717W        W37032  24.963   2.754   3.554
64718W        W37033  30.099  23.513  13.809
64719W        W37034   5.776  13.182  12.580
64720W        W37035   5.303  25.756   3.362
64721W        W37036  33.857  11.837  14.305
64722W        W37037  11.612  10.754  10.403
64723W        W37038  32.860  42.787   1.731
64724W        W37039  30.966   7.322  14.282
64725W        W37040  19.563  22.272  13.482
64726W        W37041  42.058   6.836  12.678
64727W        W37042  35.063  41.756   1.684
64728W        W37043   1.768   0.293   2.961
64729W        W37044   5.735  37.604   2.788
64730W        W37045  26.958  37.950   4.289
64731W        W37046  42.386  30.570   1.261
64732W        W37047  41.531  25.710  13.535
64733W        W37048  27.463  30.684  12.454
64734W        W37049   4.711   1.668  11.199
64735W        W37050  11.832   2.460   0.318
64736W        W37051  36.597   9.828  12.498
64737W        W37052  40.290  13.164  13.910
64738W        W37053  16.606  19.045   0.953
64739W        W37054  36.083  33.024  13.352
64740W        W37055   1.846   4.646   0.784
64741W        W37056  40.440   2.522   1.403
64742W        W37057   0.662  31.692  10.692
64743W        W37058  35.359   7.821  13.566
64744W        W37059  27.872  35.085  12.035
64745W        W37060  27.371   9.815  13.601
64746W        W37061  36.537   5.152   0.273
64747W        W37062  13.830   8.372   2.460
64748W        W37063  10.300  40.734   3.689
64749W        W37064   2.740  25.081  10.771
64750W        W37065  42.889  43.414  14.228
64751W        W37066  26.066  23.615  12.857
64752W        W37067  42.436  20.128  11.553
64753W        W37068   5.809  35.889   1.379
64754W        W37069  26.599  38.139   3.111
64755W        W37070  19.304  10.676  12.025
64756W        W37071  22.556  23.967  12.414
64757W        W37072  37.403  40.887   4.656
64758W        W37073   3.634  20.350   5.071
64759W        W37074   6.959  34.737   1.449
64760W        W37075   4.043   5.110  11.131
64761W        W37076  19.009   3.941  11.971
64762W        W37077   7.999   1.353  13.413
64763W        W37078  40.043   6.239  14.005
64764W        W37079  23.241   4.514   3.169
64765W        W37080  30.985   3.615   3.527
64766W        W37081  26.175   7.832   1.239
64767W        W37082  29.374  34.866   1.291
64768W        W37083  36.557  15.912  12.027
64769W        W37084   3.933  17.030  11.076
64770W        W37085  21.553   2.881   2.638
64771W        W37086   9.648  30.717   1.376
64772W        W37087  27.047  17.289   3.413
64773W        W37088  36.297  13.081  13.525
64774W        W37089  22.718   3.221   0.339
64775W        W37090  39.920  35.849   2.173
64776W        W37091   2.444   0.440  13.099
64777W        W37092  29.968  15.711  14.424
64778W        W37093   7.698  20.640  13.850
64779W        W37094   5.677  14.213   0.548
64780W        W37095   8.753   4.388   2.888
64781W        W37096  11.636  34.140   2.771
64782W        W37097  20.158   3.636   3.751
64783W        W37098   9.841  28.991   0.029
64784W        W37099  38.262  38.380  14.472
64785W        W37100  44.594  41.476   3.682
64786W        W37101  29.850   5.472   3.624
64787W        W37102  31.029  20.537  14.460
64788W        W37103  19.197   0.176  14.283
64789W        W37104   8.075  41.504  11.562
64790W        W37105  12.196  20.868  11.082
64791W        W37106  38.843   0.493   4.373
64792W        W37107  12.294  26.088   3.899
64793W        W37108  34.899  22.194  11.690
64794W        W37109  21.092  30.612  13.520
64795W        W37110  19.564  27.833  10.709
64796W        W37111  36.570  43.563  10.753
64797W        W37112   5.801  44.279  13.871
64798W        W37113  31.402  29.746   1.923
64799W        W37114  16.496  37.689  11.513
64800W        W37115  24.788   7.058   0.011
64801W        W37116   7.697   1.211  14.451
64802W        W37117  43.757  25.771  12.092
64803W        W37118  40.939   5.326   0.273
64804W        W37119   9.449  36.132   2.364
64805W        W37120  36.850  22.561   0.396
64806W        W37121   8.641  17.665  12.942
64807W        W37122   2.337  30.274  11.230
64808W        W37123   7.894  42.449   3.042
64809W        W37124  44.736   9.739  12.926
64810W        W37125  14.000  11.221  11.126
64811W        W37126  20.365   8.863  11.559
64812W        W37127  18.567   0.537  13.718
64813W        W37128   5.277   9.660   0.787
64814W        W37129  11.770  37.614  10.330
64815W        W37130   3.034  11.314  14.794
64816W        W37131   9.004  26.111  11.142
64817W        W37132   7.114  15.344  11.566
64818W        W37133  25.046   4.408   3.716
64819W        W37134  30.524  40.016  12.555
64820W        W37135  13.639  15.214   1.240
64821W        W37136  20.707  30.549   4.660
64822W        W37137  16.701  36.086  14.869
64823W        W37138  16.786   5.249  12.402
64824W        W37139  20.639  39.238   1.504
64825W        W37140   4.979  28.991   2.310
64826W        W37141   3.197  35.210  14.395
64827W        W37142   4.122  30.015   0.335
64828W        W37143  38.369  31.414  13.958
64829W        W37144  36.122  39.626   2.782
64830W        W37145  43.325  39.229   2.582
64831W        W37146  40.282  12.365  14.441
64832W        W37147  28.936  31.404   9.798
64833W        W37148   9.355  39.443   4.825
64834W        W37149  39.630  21.165   4.148
64835W        W37150  29.132  18.835  10.660
64836W        W37151  35.424  38.009  10.717
64837W        W37152  13.130  36.893   4.990
64838W        W37153   0.554  42.596  12.048
64839W        W37154  31.968  20.303  11.943
64840W        W37155  29.637  43.561   2.207
64841W        W37156  44.244  19.645   4.231
64842W        W37157  31.041  30.527  12.188
64843W        W37158  17.392  28.086   4.575
64844W        W37159  38.611  17.223   4.195
64845W        W37160  29.922  37.341  11.109
64846W        W37161  15.982  20.784   1.871
64847W        W37162  26.906  30.439  13.342
64848W        W37163  20.070  38.709   5.450
64849W        W37164  44.626  34.623  12.881
64850W        W37165  23.046   4.693  12.085
64851W        W37166  39.631  24.563   2.360
64852W        W37167   5.215   3.945   1.729
64853W        W37168  40.746  26.861  14.483
64854W        W37169  17.645  40.923  11.581
64855W        W37170   4.202  42.919  13.378
64856W        W37171  19.581  42.894  12.328
64857W        W37172  39.997  37.984  11.509
64858W        W37173  33.087  44.262   3.171
64859W        W37174  30.672  43.308   1.496
64860W        W37175  10.074  29.746   4.571
64861W        W37176  29.805  10.369   4.350
64862W        W37177  42.858  39.496   2.804
64863W        W37178   7.540   2.299  11.096
64864W        W37179  25.774  26.925   3.250
64865W        W37180  13.196  25.978   0.229
64866W        W37181   5.152  32.913   2.777
64867W        W37182  24.174   0.519   4.311
64868W        W37183  34.656  13.639   0.224
64869W        W37184  15.803  13.703  12.025
64870W        W37185  39.914  35.856  14.242
64871W        W37186  27.201   7.389   3.466
64872W        W37187  18.550  37.604   1.181
64873W        W37188   6.088   7.156   0.345
64874W        W37189   2.813  24.943   3.893
64875W        W37190  22.972  24.102  11.123
64876W        W37191  18.738  39.345  11.866
64877W        W37192  44.936  17.548   1.351
64878W        W37193  17.246  23.576  14.405
64879W        W37194  41.579  13.869  12.513
64880W        W37195   9.270   2.901   0.875
64881W        W37196  31.222   4.760  14.732
64882W        W37197  12.745  21.794  11.383
64883W        W37198  33.964  14.315   4.972
64884W        W37199   9.798   9.673  13.888
64885W        W37200   2.519  20.295  10.761
64886W        W37201  21.561  44.300  10.710
64887W        W37202   7.723  27.980  13.979
64888W        W37203  19.028  27.013   3.187
64889W        W37204  38.552  37.047   3.375
64890W        W37205  36.688  39.461  14.336
64891W        W37206   3.673  13.268  14.033
64892W        W37207  10.387  22.537   5.122
64893W        W37208   8.796   9.862  14.733
64894W        W37209  34.541  44.238   4.180
64895W        W37210  29.390  36.366   2.252
64896W        W37211  37.943   5.508   1.985
64897W        W37212   8.938  21.593   3.771
64898W        W37213  31.922  26.172   3.722
64899W        W37214  34.277  13.309   0.348
64900W        W37215  26.954  13.718  11.309
64901W        W37216  19.975  14.668  10.682
64902W        W37217  27.099  33.095   3.734
64903W        W37218   2.708  40.373   4.798
64904W        W37219   5.262  12.059   2.825
64905W        W37220   2.042  35.125   2.299
64906W        W37221  32.920   5.256  11.907
64907W        W37222  42.484  40.884   4.468
64908W        W37223  19.336  11.182   1.171
64909W        W37224  43.469  19.871  13.324
64910W        W37225  22.079  30.087   0.321
64911W        W37226  18.590  38.366   1.895
64912W        W37227  39.355  40.352  13.890
64913W        W37228  30.946  43.513  11.826
64914W        W37229  41.540   8.318  13.525
64915W        W37230  44.657   7.499  11.896
64916W        W37231  33.491  44.650  14.373
64917W        W37232  11.788  16.139  11.180
64918W        W37233  35.208  26.280   4.084
64919W        W37234  27.426  32.442   4.168
64920W        W37235  43.860  23.483   4.081
64921W        W37236   2.154  10.846   3.348
64922W        W37237  28.112  37.067   1.435
64923W        W37238  30.304  30.871  10.679
64924W        W37239   3.856  11.063  10.953
64925W        W37240  25.329  32.956   0.475
64926W        W37241  15.074  32.242   3.587
64927W        W37242  20.768  13.544   0.085
64928W        W37243  22.787  14.892   0.357
64929W        W37244  10.613  42.847  13.085
64930W        W37245   8.606  42.035   1.731
64931W        W37246   9.346   4.360  13.451
64932W        W37247   2.436   0.417  14.541
64933W        W37248  15.662  25.375  14.414
64934W        W37249  21.538   5.644   3.725
64935W        W37250  15.080  17.036  14.834
64936W        W37251  32.039   6.721   1.876
64937W        W37252  38.894   8.846  13.020
64938W        W37253   0.190  40.746   4.136
64939W        W37254  27.094  39.927  13.033
64940W        W37255  26.460  10.654   2.092
64941W        W37256   1.012  37.191   2.649
64942W        W37257  32.514   4.261   1.787
64943W        W37258  29.971  21.720   0.027
64944W        W37259  24.715  10.214   3.316
64945W        W37260   3.794  33.336   1.236
64946W        W37261   7.393  23.182   2.318
64947W        W37262  31.441  39.469   0.765
64948W        W37263  13.266  41.334  10.259
64949W        W37264  22.543  24.353  12.014
64950W        W37265  21.845  21.779  13.588
64951W        W37266   7.784  31.630  11.996
64952W        W37267  32.389   8.395   2.325
64953W        W37268  26.785  30.227   0.307
64954W        W37269  17.040  22.184  12.810
64955W        W37270  23.121  31.643   0.410
64956W        W37271   5.787   7.492   3.594
64957W        W37272  10.215  28.287   4.579
64958W        W37273  14.388  41.436  12.071
64959W        W37274  28.099  27.984   2.728
64960W        W37275  38.247  36.798   0.331
64961W        W37276  12.945  14.117   5.055
64962W        W37277  31.571  32.898  13.552
64963W        W37278   4.675  17.000   3.439
64964W        W37279  10.092   0.472  13.791
64965W        W37280   4.912  38.800  14.783
64966W        W37281  39.116  26.952  12.618
64967W        W37282  19.588  30.437  10.496
64968W        W37283  20.822  19.256   4.178
64969W        W37284   3.366  38.894   1.770
64970W        W37285  13.101  22.641   2.290
64971W        W37286  24.053   1.187  12.573
64972W        W37287  13.303  38.878  11.067
64973W        W37288  14.236  37.018  12.362
64974W        W37289   0.917  23.647   2.267
64975W        W37290  33.514   7.116  12.885
64976W        W37291  21.083  41.086   1.412
64977W        W37292   1.314  15.048  12.540
64978W        W37293  24.220  25.196   4.718
64979W        W37294  31.390   1.351   1.922
64980W        W37295  12.412  11.446   3.961
64981W        W37296  24.665  44.340  14.726
64982W        W37297  43.291  26.677   2.222
64983W        W37298  10.743  16.777  13.374
64984W        W37299  18.336  43.375  12.874
64985W        W37300  18.739  30.250  10.610
64986W        W37301   4.193   1.989  11.291
64987W        W37302  36.964  32.351   4.515
64988W        W37303  13.125  13.247   0.881
64989W        W37304   8.876  15.341  11.009
64990W        W37305  38.837   5.398  13.376
64991W        W37306  11.203  20.663  12.507
64992W        W37307  16.747  43.662  12.432
64993W        W37308  33.131  24.163  11.830
64994W        W37309  43.733  30.974  14.837
64995W        W37310  35.167  23.834  13.472
64996W        W37311  11.553  18.310   1.719
64997W        W37312   4.187  42.203  12.782
64998W        W37313  39.860  23.166  11.381
64999W        W37314  26.140  43.511   2.670
65000W        W37315   7.456  33.965   2.381
65001W        W37316   3.386  35.900  12.072
65002W        W37317  39.053  32.907   0.700
65003W        W37318  28.550  35.349  11.160
65004W        W37319   6.403  28.108  14.346
65005W        W37320  31.949  11.265  13.439
65006W        W37321   4.458  25.946   3.715
65007W        W37322  22.517  19.151   5.720
65008W        W37323  30.483   0.675   2.201
65009W        W37324  29.420  24.522   1.048
65010W        W37325  40.543  15.720   2.707
65011W        W37326  30.530  43.971   4.160
65012W        W37327  11.386  26.294  14.464
65013W        W37328  21.075  30.211   0.326
65014W        W37329  35.332  42.636  13.490
65015W        W37330  19.249  31.618  14.311
65016W        W37331   8.621  15.375  11.451
65017W        W37332   1.706   1.982   0.987
65018W        W37333  27.175   1.448   0.685
65019W        W37334  10.227   9.437  13.444
65020W        W37335  20.989  38.209   2.178
65021W        W37336  14.781  23.055   0.768
65022W        W37337  31.000   7.717  11.434
65023W        W37338  39.506  23.781  14.387
65024W        W37339  34.023  28.934  12.154
65025W        W37340  28.264   2.468  13.832
65026W        W37341  15.692   4.726  13.462
65027W        W37342  24.456  30.597  13.059
65028W        W37343  12.170  20.340  11.064
65029W        W37344  16.212  35.785   1.498
65030W        W37345   4.831   7.912  13.552
65031W        W37346  44.078  18.607  10.959
65032W        W37347  38.517  43.042   1.579
65033W        W37348  34.296  43.403  14.845
65034W        W37349  20.602   8.199  13.754
65035W        W37350  11.682  36.083  12.999
65036W        W37351  34.618  25.067   2.413
65037W        W37352   1.399  26.959   1.242
65038W        W37353  36.013   6.321  14.961
65039W        W37354  23.423  26.115   1.011
65040W        W37355  26.915  26.230  12.605
65041W        W37356  35.416  27.640  13.913
65042W        W37357  29.859  12.146  11.022
65043W        W37358  34.465  44.059  10.528
65044W        W37359  34.585  10.792  13.984
65045W        W37360  26.387  38.035  13.009
65046W        W37361   2.739  18.169  10.711
65047W        W37362   6.128  31.871   1.635
65048W        W37363  22.297  15.350   1.452
65049W        W37364  18.049   0.090   3.294
65050W        W37365  10.939   4.629  14.707
65051W        W37366  20.402  16.648   0.211
65052W        W37367  23.880  30.733   1.507
65053W        W37368  26.730  37.734   3.682
65054W        W37369  42.410  23.315   0.879
65055W        W37370  21.572  11.896  14.371
65056W        W37371  41.152   4.196  13.970
65057W        W37372   3.680   4.359  12.487
65058W        W37373  24.471  29.974   0.258
65059W        W37374   3.291  36.140   1.006
65060W        W37375  39.926  33.614   0.244
65061W        W37376  23.275  32.540  11.143
65062W        W37377  28.475  30.074  10.936
65063W        W37378  42.471  16.264  12.551
65064W        W37379  24.690   2.378  11.592
65065W        W37380  10.782   0.247   1.309
65066W        W37381  28.106  12.508   4.586
65067W        W37382   1.676  37.062  14.921
65068W        W37383  25.672   9.024  12.891
65069W        W37384  16.228  11.268   1.470
65070W        W37385   0.864  23.632  10.920
65071W        W37386  42.298  20.262   2.203
65072W        W37387  29.550  36.137   4.655
65073W        W37388  44.829  32.178   4.150
65074W        W37389  29.699   1.437   0.880
65075W        W37390  14.689  26.019  12.553
65076W        W37391  30.525   9.721   0.513
65077W        W37392  44.312   6.019   5.044
65078W        W37393  18.290  10.347  14.904
65079W        W37394  23.312  13.157  14.435
65080W        W37395  35.143  33.485   4.450
65081W        W37396   8.014  32.581   3.187
65082W        W37397  42.126  22.283  14.922
65083W        W37398  30.530  40.843   4.759
65084W        W37399  24.683  15.757   2.267
65085W        W37400  16.726  15.698  10.483
65086W        W37401  36.957  24.547   4.603
65087W        W37402   1.013   5.164   0.869
65088W        W37403  27.164  36.301   1.232
65089W        W37404  35.902  13.003  13.879
65090W        W37405  30.557  11.317   4.151
65091W        W37406  17.253   2.328  10.850
65092W        W37407   6.460  14.800   2.455
65093W        W37408  32.025  19.527  10.737
65094W        W37409  30.429  14.804   3.985
65095W        W37410  31.939  43.396   3.772
65096W        W37411  17.526  32.993  13.368
65097W        W37412   1.935  29.576   1.163
65098W        W37413  15.845  12.060   0.019
65099W        W37414  30.186  26.022  12.842
65100W        W37415  34.095  14.256  13.179
65101W        W37416  31.864   4.962   4.543
65102W        W37417  41.066   3.848   3.781
65103W        W37418  30.993  29.170   0.063
65104W        W37419  29.056  44.563   4.827
65105W        W37420  26.148  18.779   0.816
65106W        W37421  25.478  40.035   4.641
65107W        W37422  24.487  27.118   0.325
65108W        W37423  31.623  39.838  14.438
65109W        W37424  33.496   4.998  10.367
65110W        W37425  14.843   8.779  10.551
65111W        W37426  10.862   1.547   0.799
65112W        W37427  36.745  27.129  13.524
65113W        W37428  31.916   0.550   0.909
65114W        W37429  42.458  36.785  14.002
65115W        W37430  29.607  33.411  11.584
65116W        W37431   2.258  36.124  12.511
65117W        W37432  38.115  12.747   2.072
65118W        W37433  37.545  17.841  13.962
65119W        W37434  14.573  20.857  10.793
65120W        W37435  37.371   0.455  14.516
65121W        W37436  32.925  33.533   4.452
65122W        W37437  20.651  27.846  14.000
65123W        W37438   2.663  19.794  10.823
65124W        W37439   9.719  25.000   4.412
65125W        W37440  36.995  11.377   0.851
65126W        W37441  20.061  37.948   2.441
65127W        W37442   3.903  41.992  14.750
65128W        W37443  13.668  29.051   2.266
65129W        W37444   0.697  32.534   0.228
65130W        W37445  33.942   3.780  11.543
65131W        W37446   5.260  35.841   4.182
65132W        W37447   2.149  31.434   4.540
65133W        W37448   2.676  36.887   4.388
65134W        W37449  29.551  44.225   3.643
65135W        W37450  35.868   1.721  14.897
65136W        W37451  15.767  27.207   3.678
65137W        W37452  34.566  25.145  14.840
65138W        W37453  27.767   3.388  13.614
65139W        W37454  31.648  29.941  14.800
65140W        W37455  42.119  22.213   4.220
65141W        W37456  10.748   6.959   0.179
65142W        W37457  41.773  32.629   1.388
65143W        W37458  41.911   6.441   0.405
65144W        W37459  24.302   3.479   5.049
65145W        W37460  23.573  40.960  11.650
65146W        W37461  12.277   9.081   3.641
65147W        W37462  39.981  32.091   2.905
65148W        W37463  32.365  30.505  11.497
65149W        W37464  16.855  31.962  12.949
65150W        W37465   3.220  19.825  14.788
65151W        W37466  10.166  21.036   0.924
65152W        W37467  29.468   4.458  13.589
65153W        W37468  30.563  29.104  13.921
65154W        W37469  30.789  44.777  10.678
65155W        W37470   9.106  10.154  13.581
65156W        W37471  43.863  14.825   2.835
65157W        W37472   4.724  15.224   2.598
65158W        W37473   9.544  32.993  14.265
65159W        W37474   1.934  23.473  11.667
65160W        W37475   7.025  31.233   4.156
65161W        W37476  10.558  24.980   4.156
65162W        W37477  26.571   8.423  10.957
65163W        W37478   8.644   0.369  10.600
65164W        W37479  15.353   6.653   0.438
65165W        W37480   0.497   6.231  14.294
65166W        W37481  22.986  24.572  13.392
65167W        W37482  15.619  15.670   4.576
65168W        W37483   1.857   8.231   0.357
65169W        W37484   3.814   6.654   3.955
65170W        W37485  25.012  39.215   3.844
65171W        W37486  15.533  36.544  12.361
65172W        W37487  39.426  12.583  11.579
65173W        W37488  28.557  27.467  14.989
65174W        W37489  40.907   6.319  14.891
65175W        W37490  25.599   2.430  11.725
65176W        W37491  19.599  19.103  13.994
65177W        W37492  29.201   8.079  13.935
65178W        W37493  28.178  42.950   4.656
65179W        W37494  25.895  42.972   0.341
65180W        W37495  32.214   7.220   2.799
65181W        W37496  22.266  28.467  10.671
65182W        W37497  12.253  30.048  12.426
65183W        W37498  14.117  38.913   4.555
65184W        W37499  26.360   2.518   2.632
65185W        W37500  20.308   1.681  13.585
65186W        W37501   5.160  21.749  13.897
65187W        W37502   4.167   8.732   2.858
65188W        W37503  23.808   4.715  11.101
65189W        W37504  16.747  37.311   4.593
65190W        W37505  37.994  30.988  11.519
65191W        W37506  39.095   9.226  11.616
65192W        W37507  30.011  40.326   0.009
65193W        W37508  35.253  32.390  14.450
65194W        W37509  27.138  23.122   0.685
65195W        W37510   6.238  13.705   0.704
65196W        W37511  27.096   8.465  11.165
65197W        W37512  25.722   4.687   4.581
65198W        W37513  37.200  39.927  11.390
65199W        W37514  21.676  15.991   1.866
65200W        W37515  29.996  25.576  13.110
65201W        W37516   2.230  23.568   1.418
65202W        W37517  24.622   0.715   3.184
65203W        W37518  42.420  40.038   0.455
65204W        W37519  43.936  41.773  13.481
65205W        W37520  43.801  38.065   0.245
65206W        W37521  16.101  40.193   9.776
65207W        W37522  31.103  34.563  14.831
65208W        W37523   9.570  16.737   1.395
65209W        W37524  35.134   0.426  12.451
65210W        W37525  34.798  12.865   2.862
65211W        W37526  34.196  44.379   3.102
65212W        W37527  37.622  40.049   2.617
65213W        W37528  35.727  34.405   4.375
65214W        W37529  17.048  16.764  11.048
65215W        W37530  35.163  35.388   0.841
65216W        W37531   1.844   3.839  12.413
65217W        W37532  13.960  31.577   0.257
65218W        W37533  33.142  41.926  13.520
65219W        W37534   2.160   5.877  11.389
65220W        W37535  19.890   4.346  12.577
65221W        W37536  30.845   8.615  13.377
65222W        W37537  12.791  35.836   1.899
65223W        W37538   8.761  28.614   2.203
65224W        W37539  43.825  15.220   3.323
65225W        W37540  23.473  15.833   3.329
65226W        W37541  42.018  22.716   4.286
65227W        W37542  27.581  27.953   3.093
65228W        W37543   9.488  10.822  12.856
65229W        W37544  30.432  40.066  14.775
65230W        W37545  29.544  10.556   0.689
65231W        W37546  18.142  43.578  13.298
65232W        W37547  11.372  10.731  13.729
65233W        W37548  39.771  40.831   2.335
65234W        W37549  10.937  18.068  13.038
65235W        W37550  34.503  22.577  11.865
65236W        W37551  34.440  12.357  12.056
65237W        W37552  43.526   4.383  14.398
65238W        W37553  40.037  20.321   3.007
65239W        W37554  11.245  33.907   3.659
65240W        W37555  33.985  38.138   0.447
65241W        W37556   7.185  39.421   1.696
65242W        W37557   5.234  31.409  11.965
65243W        W37558   3.937  36.387   4.346
65244W        W37559  38.884   6.268   1.721
65245W        W37560  37.551  29.092  13.777
65246W        W37561  11.527   3.900  14.735
65247W        W37562  40.906   4.426  12.007
65248W        W37563  34.438  23.672   2.254
65249W        W37564  35.577  41.495   3.582
65250W        W37565  27.636  15.766   0.425
65251W        W37566  42.325  11.761  13.304
65252W        W37567  23.919  19.316  13.266
65253W        W37568  32.162  13.880  11.673
65254W        W37569  40.556  39.810  14.773
65255W        W37570  40.620  11.414  10.951
65256W        W37571   3.306   3.226   2.243
65257W        W37572  30.827  15.861   3.647
65258W        W37573  16.253   6.175   1.297
65259W        W37574  14.303  28.119  10.888
65260W        W37575  16.743   7.946   4.088
65261W        W37576   7.862  40.692   2.727
65262W        W37577  18.120   9.330  14.840
65263W        W37578  13.140  39.294   4.605
65264W        W37579  35.965  36.386   3.750
65265W        W37580  31.966  30.006  12.843
65266W        W37581  26.322  41.670  11.851
65267W        W37582  18.556   9.491   4.622
65268W        W37583  35.532  33.160  11.893
65269W        W37584  10.894  34.104  13.745
65270W        W37585  44.749   9.862   2.163
65271W        W37586  12.757  18.740   5.721
65272W        W37587   4.579  37.354   3.321
65273W        W37588  42.985  39.555  14.273
65274W        W37589  44.439  12.882  14.397
65275W        W37590  10.810  37.729  14.860
65276W        W37591  14.373  14.261   2.650
65277W        W37592  41.558  39.511  12.064
65278W        W37593  24.879  39.124  14.862
65279W        W37594  28.921  25.504  10.750
65280W        W37595  39.827   4.799  13.928
65281W        W37596  19.560   2.580   5.117
65282W        W37597  27.127  21.050   1.707
65283W        W37598  44.002  33.189   4.094
65284W        W37599  15.075  21.766   4.489
65285W        W37600   3.129  42.854  12.467
65286W        W37601   8.660  12.372   0.428
65287W        W37602  44.817   8.287  13.092
65288W        W37603  30.999  25.505  12.642
65289W        W37604  29.427   8.307  11.987
65290W        W37605  29.903  20.231   0.517
65291W        W37606  44.840  23.567  14.987
65292W        W37607  38.451  27.710   0.423
65293W        W37608  36.308   5.325  12.740
65294W        W37609  22.446  12.751   4.525
65295W        W37610  26.140  15.347  12.482
65296W        W37611  14.769  10.634   4.298
65297W        W37612  16.020  14.718   1.003
65298W        W37613   9.816  40.529   2.851
65299W        W37614  26.540   7.112   0.353
65300W        W37615  28.930  39.687  12.820
65301W        W37616  19.250  15.264   0.281
65302W        W37617   7.843  27.026   1.828
65303W        W37618  39.487  15.164   0.526
65304W        W37619  25.532   8.095   0.835
65305W        W37620  30.201  27.412  12.179
65306W        W37621   4.544  33.953  12.542
65307W        W37622  12.314  36.290   2.221
65308W        W37623  20.474  29.770  14.989
65309W        W37624  15.325  37.454   0.964
65310W        W37625   2.978  35.876   1.349
65311W        W37626   2.565  10.928   2.596
65312W        W37627  37.337  20.744  11.061
65313W        W37628  42.557  11.121  14.902
65314W        W37629  26.106  30.948   2.904
65315W        W37630  22.267  28.123   3.828
65316W        W37631   2.888  29.529  11.158
65317W        W37632  22.467  12.070   0.738
65318W        W37633   4.328  16.771   2.001
65319W        W37634   7.365  12.167   2.161
65320W        W37635  24.317  40.333   2.178
65321W        W37636  26.426  10.472  14.829
65322W        W37637  11.248  39.284   4.290
65323W        W37638   1.201  20.142  12.688
65324W        W37639   2.330   9.886  13.328
65325W        W37640  41.259  19.420   1.409
65326W        W37641  26.304  28.036  14.867
65327W        W37642  11.269  42.850  10.924
65328W        W37643  15.703  12.371   3.261
65329W        W37644  30.203  32.905   1.649
65330W        W37645  11.884   9.589   2.785
65331W        W37646  41.069   1.335   1.800
65332W        W37647  13.759  28.593  13.990
65333W        W37648  36.807  29.169   4.609
65334W        W37649  38.820  42.875   0.209
65335W        W37650  21.754  17.614  10.666
65336W        W37651  29.956  43.987   1.424
65337W        W37652  30.229  14.553  12.141
65338W        W37653  27.419  13.661  12.732
65339W        W37654  39.522  42.265  14.892
65340W        W37655  44.852  40.449   3.295
65341W        W37656  36.018  42.293   3.898
65342W        W37657   3.592  44.998   1.852
65343W        W37658  28.070  41.321   1.642
65344W        W37659  18.674  36.333   2.846
65345W        W37660  44.211  18.819  10.477
65346W        W37661  16.643  22.685   2.250
65347W        W37662  10.139  38.477   4.309
65348W        W37663  19.098  17.571   2.153
65349W        W37664  33.607  18.120   4.582
65350W        W37665  34.889   3.718   1.443
65351W        W37666  34.911  14.615   4.442
65352W        W37667  17.837  32.969  12.971
65353W        W37668  41.312   4.340  10.640
65354W        W37669   7.666  31.257  10.713
65355W        W37670  26.138  35.057   1.830
65356W        W37671  40.510  23.070  11.261
65357W        W37672  34.515  35.863  11.561
65358W        W37673  31.666  39.121   1.691
65359W        W37674  10.858  39.534   4.085
65360W        W37675  16.179  14.176   1.614
65361W        W37676  24.392   5.827   0.330
65362W        W37677  33.948   6.910   1.725
65363W        W37678  21.129  17.870  11.190
65364W        W37679  33.250  21.160  13.771
65365W        W37680   7.594  28.752   1.495
65366W        W37681  38.471  12.926   2.944
65367W        W37682  24.641   1.942   0.966
65368W        W37683  12.873  13.228   4.645
65369W        W37684  34.235  13.273  11.990
65370W        W37685  44.911  18.317   0.938
65371W        W37686  32.530   1.429  14.106
65372W        W37687  21.686  15.731  11.299
65373W        W37688  13.167  34.400   2.380
65374W        W37689  26.778  10.149   2.839
65375W        W37690  27.510  24.443   1.745
65376W        W37691  28.258  12.237   1.973
65377W        W37692  29.235  16.914  14.367
65378W        W37693   0.966   9.385  10.638
65379W        W37694  36.613  44.023  13.753
65380W        W37695  21.777  11.438   2.247
65381W        W37696   7.405  18.612   0.785
65382W        W37697  43.711  29.996  13.968
65383W        W37698  38.326  16.861  12.028
65384W        W37699  35.516  19.112   2.112
65385W        W37700  12.846  31.294   3.123
65386W        W37701  33.604  34.786   3.429
65387W        W37702   7.758  22.320  12.071
65388W        W37703  20.667   5.773   4.268
65389W        W37704  26.564  37.045   4.795
65390W        W37705  12.827  41.411  13.511
65391W        W37706   6.393  12.164   2.537
65392W        W37707  17.029  17.152  14.836
65393W        W37708  32.873  34.272   2.247
65394W        W37709  25.935  14.421   0.769
65395W        W37710  37.181  43.245   3.508
65396W        W37711  37.890   5.278   0.474
65397W        W37712   6.830  38.864   0.896
65398W        W37713   3.273  41.946  12.426
65399W        W37714  11.258   4.366  10.812
65400W        W37715  29.714   0.867   4.644
65401W        W37716   3.373   3.766   1.062
65402W        W37717  18.275   0.239  11.019
65403W        W37718  23.303  42.354  13.541
65404W        W37719  31.598  22.093   4.620
65405W        W37720  34.338  31.091  12.079
65406W        W37721  27.417  33.933  12.645
65407W        W37722  28.638   4.180  12.428
65408W        W37723  18.079   2.745   0.882
65409W        W37724  21.222  42.894  12.840
65410W        W37725  40.369  25.654  14.588
65411W        W37726  22.780  14.305   3.122
65412W        W37727  18.291  31.149   5.009
65413W        W37728   1.033  10.255   9.851
65414W        W37729  21.288  23.403  10.294
65415W        W37730  17.039  24.730  12.517
65416W        W37731  17.649  28.990   4.892
65417W        W37732   7.350  30.594   4.643
65418W        W37733   2.418  38.156   1.058
65419W        W37734  27.197  26.090   3.834
65420W        W37735  27.036  40.485   2.322
65421W        W37736   3.209   1.466  14.457
65422W        W37737  31.680  22.636  12.933
65423W        W37738  40.407  12.629   3.893
65424W        W37739  21.011   5.285   1.791
65425W        W37740  17.264  16.066   4.691
65426W        W37741  22.067  43.582   0.901
65427W        W37742  33.442  16.183  12.295
65428W        W37743  41.878  17.767   1.889
65429W        W37744  24.280  40.891  13.917
65430W        W37745   6.248  29.615  12.389
65431W        W37746  16.217   9.464  14.609
65432W        W37747  29.430  18.968   4.057
65433W        W37748  11.767  19.626   2.404
65434W        W37749  25.718   5.365  13.512
65435W        W37750  44.492  32.672   1.546
65436W        W37751  30.764  40.457   2.277
65437W        W37752  13.866  42.858  12.304
65438W        W37753  35.887  24.575   2.133
65439W        W37754  16.830  24.631   3.116
65440W        W37755  37.836  40.947  13.845
65441W        W37756  18.774  33.002  13.042
65442W        W37757  29.011  11.936   4.596
65443W        W37758  31.845   5.722  10.533
65444W        W37759  16.219   2.843   4.258
65445W        W37760   9.920  17.082   2.880
65446W        W37761  26.094  11.051   4.625
65447W        W37762  27.017  33.403   0.931
65448W        W37763  32.560  18.221  10.584
65449W        W37764   3.905  20.695   1.876
65450W        W37765  16.308  43.813   3.830
65451W        W37766  23.607   3.485   2.804
65452W        W37767  30.954  13.238   2.350
65453W        W37768  36.305  17.040  10.343
65454W        W37769  36.015  25.015   1.339
65455W        W37770  17.674  21.708   2.435
65456W        W37771   1.976  30.523  12.059
65457W        W37772   0.439  37.895   2.756
65458W        W37773  35.612  37.503  14.813
65459W        W37774  33.967   4.727  12.625
65460W        W37775  23.446   5.645  11.152
65461W        W37776   4.255  10.694   1.728
65462W        W37777  26.025  37.397  10.889
65463W        W37778   7.154  17.106   4.229
65464W        W37779   8.498  25.553   5.157
65465W        W37780  17.234  12.679  10.687
65466W        W37781  17.178   6.833  10.608
65467W        W37782  41.354   9.127   3.377
65468W        W37783  24.030  26.952   3.646
65469W        W37784   6.375  35.645  11.443
65470W        W37785   4.951  41.329  14.369
65471W        W37786   4.765  43.749   4.692
65472W        W37787  16.182   8.786   1.263
65473W        W37788  27.627  27.170  11.313
65474W        W37789  20.569  37.088   5.049
65475W        W37790  41.371  24.080   2.807
65476W        W37791  38.916   5.874  13.074
65477W        W37792  37.942  13.824  12.330
65478W        W37793   3.812  16.522  13.860
65479W        W37794  19.770  44.550   3.837
65480W        W37795  44.305   5.723  13.960
65481W        W37796  16.647  12.332   4.839
65482W        W37797   1.826  26.063  14.372
65483W        W37798  41.877  23.063  10.891
65484W        W37799  42.315  40.760  13.521
65485W        W37800  20.332  28.961  13.365
65486W        W37801  25.110  11.220  11.658
65487W        W37802  36.378  42.964  14.310
65488W        W37803  20.973  44.345  10.328
65489W        W37804  25.208  22.345   2.386
65490W        W37805  19.630  20.111   4.083
65491W        W37806  10.685  28.185   1.266
65492W        W37807  28.096  29.586   1.478
65493W        W37808  36.111   4.886  13.275
65494W        W37809  38.437   5.503   1.824
65495W        W37810  24.201  10.071  12.071
65496W        W37811  36.248  13.773  10.574
65497W        W37812   6.540   7.741  13.360
65498W        W37813  33.517  21.452  12.843
65499W        W37814  10.962   2.797   0.243
65500W        W37815  38.663  24.699  10.493
65501W        W37816   2.030   6.700  12.951
65502W        W37817   2.430  36.888  10.810
65503W        W37818   6.314  14.997  11.915
65504W        W37819  14.841   8.303   1.239
65505W        W37820  16.165   8.920   1.759
65506W        W37821   9.407  14.334   1.997
65507W        W37822  35.411  18.285  10.613
65508W        W37823  12.649  42.547  12.776
65509W        W37824  19.622  23.098   4.809
65510W        W37825  35.357  25.123  11.072
65511W        W37826  18.814  16.264   4.587
65512W        W37827  40.799  10.714  14.900
65513W        W37828  32.117   6.379  14.458
65514W        W37829  35.778  31.550  14.048
65515W        W37830  28.114  27.882  12.472
65516W        W37831  13.309  18.838  12.357
65517W        W37832   1.105  21.964   0.685
65518W        W37833  40.359   3.373  13.252
65519W        W37834  24.937  41.828   2.124
65520W        W37835  42.271   0.465   3.012
65521W        W37836  24.661   3.206   0.258
65522W        W37837   4.325  23.893   4.498
65523W        W37838  22.251  13.288  14.455
65524W        W37839  43.425   4.466   3.177
65525W        W37840  32.686  12.598  13.417
65526W        W37841  40.940  38.073  14.839
65527W        W37842  32.963  18.097  12.492
65528W        W37843  10.674  24.886  11.568
65529W        W37844  30.080   8.795  13.850
65530W        W37845   7.355  16.537   3.504
65531W        W37846   5.432  30.581   3.678
65532W        W37847   0.188  38.814   0.575
65533W        W37848  14.740  12.558  13.245
65534W        W37849   1.253  19.841   1.936
65535W        W37850  34.050  10.189   4.113
65536W        W37851  15.684  39.032   3.338
65537W        W37852  44.918  37.702  13.566
65538W        W37853  35.132  11.636   3.246
65539W        W37854  31.420  12.570  11.506
65540W        W37855   0.471  33.183  10.313
65541W        W37856  36.893  17.229  11.980
65542W        W37857  20.489  19.263   0.881
65543W        W37858  21.835   6.832  14.988
65544W        W37859  40.436  37.622  14.287
65545W        W37860  44.937  19.659   2.104
65546W        W37861   2.946  35.393  12.422
65547W        W37862  44.102   4.182   4.132
65548W        W37863  32.602  38.963   3.418
65549W        W37864  23.716  22.203   4.594
65550W        W37865   3.441  35.104   1.977
65551W        W37866  43.007  10.040  11.963
65552W        W37867  27.704   7.684  12.673
65553W        W37868   0.486  17.107  13.639
65554W        W37869  36.569  40.883  13.084
65555W        W37870  21.146  43.317   1.896
65556W        W37871  42.487  36.006   3.537
65557W        W37872  12.711  21.077   3.046
65558W        W37873   6.432  38.012  12.449
65559W        W37874   7.789  15.708   5.039
65560W        W37875   8.890   3.229  12.158
65561W        W37876  26.342  20.378   4.567
65562W        W37877  14.045   9.754   3.908
65563W        W37878  44.802  24.711  11.010
65564W        W37879  27.738   5.747   0.491
65565W        W37880   9.757  36.805  14.941
65566W        W37881  18.552  42.625  10.394
65567W        W37882  26.655  23.015   2.667
65568W        W37883  39.940  25.781  13.170
65569W        W37884   2.550  29.951   2.899
65570W        W37885  40.941  20.811  11.581
65571W        W37886  18.736  44.795  11.677
65572W        W37887  33.513  32.894   0.317
65573W        W37888  30.234  33.809   3.672
65574W        W37889  23.081  13.966   3.847
65575W        W37890  32.537  12.148  12.159
65576W        W37891   9.249  42.457  11.928
65577W        W37892   5.120  18.633  13.652
65578W        W37893   3.919   4.026   4.301
65579W        W37894  36.919  21.706  14.147
65580W        W37895  27.433   0.283   1.337
65581W        W37896  34.788   4.919   1.899
65582W        W37897  44.530  33.163  12.926
65583W        W37898   4.913   7.395  10.060
65584W        W37899   7.921  18.665   3.174
65585W        W37900   7.305   0.665   2.855
65586W        W37901  19.183  38.802   2.828
65587W        W37902  17.321  38.091   2.779
65588W        W37903  44.122  18.288  13.821
65589W        W37904  31.415  36.346   0.497
65590W        W37905  38.817  29.571   0.499
65591W        W37906  27.964  19.019   1.440
65592W        W37907  32.915  33.606   1.594
65593W        W37908  39.249  38.523   2.688
65594W        W37909  36.099  27.608  12.454
65595W        W37910   6.074  11.601  11.083
65596W        W37911  44.380  23.477  10.756
65597W        W37912  30.132  16.611  11.221
65598W        W37913  12.393  34.073   0.366
65599W        W37914  12.800  30.685  11.010
65600W        W37915  15.120   8.278   2.578
65601W        W37916  37.543  31.870   0.811
65602W        W37917  12.200  37.327  13.849
65603W        W37918  30.925  11.890   3.736
65604W        W37919  43.270  41.568  12.061
65605W        W37920  29.578  16.721  12.934
65606W        W37921  37.545  30.652  10.699
65607W        W37922  20.477  42.089  13.032
65608W        W37923  42.074  44.871  13.746
65609W        W37924  32.805  21.504   4.739
65610W        W37925  30.323  37.319   2.781
65611W        W37926  19.719  22.791   1.983
65612W        W37927   0.549   8.398   0.425
65613W        W37928  30.673   3.269   4.261
65614W        W37929  43.548  31.776   4.272
65615W        W37930   5.211  32.340  14.019
65616W        W37931   6.385  23.722  13.770
65617W        W37932  27.428  15.757  13.155
65618W        W37933  38.655   5.756   4.181
65619W        W37934  27.627   6.139  11.008
65620W        W37935  17.138   8.408   4.687
65621W        W37936  41.976  39.299   4.696
65622W        W37937  19.024  26.681   3.595
65623W        W37938  27.257  12.910  12.989
65624W        W37939  26.280   8.306  12.537
65625W        W37940   2.396  22.633  11.703
65626W        W37941  38.819  41.872   2.911
65627W        W37942   0.019  11.785   1.458
65628W        W37943  16.586  23.134   0.999
65629W        W37944  25.736  30.435   0.332
65630W        W37945  21.745  28.748   4.113
65631W        W37946  25.589  15.235   4.329
65632W        W37947  24.745   5.169  12.151
65633W        W37948  22.988   3.409   0.832
65634W        W37949   4.939  16.711  10.148
65635W        W37950  23.847  17.822   1.371
65636W        W37951  26.975  31.899  10.572
65637W        W37952  14.120   6.331  11.983
65638W        W37953  17.659  10.404  12.880
65639W        W37954   2.996  39.438  13.200
65640W        W37955  43.948  34.052  11.690
65641W        W37956  29.059   2.436   1.731
65642W        W37957  28.909  15.092   4.888
65643W        W37958  13.873  43.522   2.403
65644W        W37959   8.784  40.940   3.754
65645W        W37960  39.717   3.314   0.407
65646W        W37961  35.349   6.521   3.217
65647W        W37962  37.046   8.855  11.103
65648W        W37963  26.196  43.916   0.554
65649W        W37964  44.363  13.440   4.514
65650W        W37965   2.834  17.351  14.370
65651W        W37966  33.103   6.975   1.795
65652W        W37967  12.825  41.602  11.060
65653W        W37968  25.634  40.899  13.573
65654W        W37969  26.705  19.602  14.283
65655W        W37970  40.858  44.560   0.152
65656W        W37971  40.571  39.489  12.031
65657W        W37972  12.269  41.933  14.013
65658W        W37973  42.741  42.845   0.481
65659W        W37974  21.823  30.825   3.294
65660W        W37975  12.725  40.359  10.649
65661W        W37976  19.154  28.220  13.444
65662W        W37977  26.159   0.251  11.014
65663W        W37978  38.053  37.533  13.766
65664W        W37979  24.442  28.526  10.949
65665W        W37980  15.865  22.960  14.035
65666W        W37981  23.121  37.732   2.664
65667W        W37982  30.427  23.169   1.315
65668W        W37983   6.487  12.519  12.841
65669W        W37984   3.706  23.978   0.435
65670W        W37985   2.794   2.577   4.041
65671W        W37986  10.368   2.878   3.319
65672W        W37987  35.913  30.138  12.362
65673W        W37988   9.729  27.115   1.955
65674W        W37989  38.607  27.990   2.165
65675W        W37990  10.083  35.313  10.550
65676W        W37991  15.606  39.213   1.351
65677W        W37992  37.118  25.033   4.767
65678W        W37993   5.360  19.134   3.691
65679W        W37994  28.038   7.128   3.360
65680W        W37995  37.483  27.487  13.156
65681W        W37996  18.784  23.917  11.153
65682W        W37997   5.695  36.143  12.063
65683W        W37998  28.528  32.662   3.829
65684W        W37999  35.448   0.896  13.540
65685W        W38000  16.783  42.910  11.207
65686W        W38001  37.360  41.097   1.746
65687W        W38002   6.641   8.316  11.408
65688W        W38003  42.904   2.953  10.703
65689W        W38004   4.446  41.899   4.729
65690W        W38005  41.809  37.869  10.937
65691W        W38006   5.962  21.173   4.722
65692W        W38007  19.442  22.611   4.810
65693W        W38008  18.266  43.759   4.601
65694W        W38009  26.245  17.495  14.841
65695W        W38010  32.898  44.953   2.412
65696W        W38011  29.080  40.025   3.272
65697W        W38012  30.973   6.314   4.126
65698W        W38013  22.198  18.830  11.101
65699W        W38014  21.220   3.921   2.432
65700W        W38015  39.407  32.136  12.565
65701W        W38016  21.275   4.603  10.268
65702W        W38017   4.644  39.344  14.050
65703W        W38018  17.545  11.339   9.555
65704W        W38019  10.803  35.117  12.846
65705W        W38020  11.157  36.046  13.009
65706W        W38021   5.650  21.644  13.271
65707W        W38022  30.336  31.175  14.965
65708W        W38023  36.222  38.077   4.619
65709W        W38024   8.724  22.265   3.104
65710W        W38025   0.975  26.186  13.357
65711W        W38026  38.508  30.563   3.921
65712W        W38027  40.024  27.644  14.956
65713W        W38028  17.634  36.515  12.515
65714W        W38029   0.297   0.614   1.744
65715W        W38030   0.707  22.243  13.948
65716W        W38031  28.531  16.054   3.517
65717W        W38032  20.759  37.443  12.160
65718W        W38033  38.106  28.915  10.743
65719W        W38034   4.328  15.975   3.241
65720W        W38035   4.860  29.812   4.432
65721W        W38036  43.885   2.326   3.635
65722W        W38037  43.213  34.911   0.806
65723W        W38038   0.565  16.432   4.076
65724W        W38039  13.346  39.936  12.803
65725W        W38040  17.901   6.352   2.087
65726W        W38041  44.089  42.265   3.400
65727W        W38042  23.754  17.819  10.807
65728W        W38043  14.608  33.020  12.850
65729W        W38044  34.704  29.870   2.270
65730W        W38045  27.909  18.791  10.694
65731W        W38046  35.069  13.014  11.827
65732W        W38047   6.888  18.536   0.764
65733W        W38048  18.682   6.568   3.837
65734W        W38049  40.467  27.138   1.849
65735W        W38050  26.182   1.154   4.167
65736W        W38051  17.841   6.399  14.360
65737W        W38052  43.829  24.188   1.197
65738W        W38053  13.780  27.376   1.246
65739W        W38054  32.686   9.905  13.411
65740W        W38055  29.225  42.873   2.462
65741W        W38056  15.836  27.447   3.222
65742W        W38057  44.626  26.670   1.652
65743W        W38058  43.715  18.329  12.617
65744W        W38059  43.014  13.971  13.912
65745W        W38060  39.585  42.060   1.277
65746W        W38061  26.725  24.185  12.090
65747W        W38062  32.061  36.046   4.831
65748W        W38063  19.416  13.727   4.942
65749W        W38064  27.400  20.754  12.848
65750W        W38065   1.247  42.355  13.900
65751W        W38066  20.793  36.951  11.997
65752W        W38067  11.139  18.540  11.454
65753W        W38068   7.316   3.613   2.236
65754W        W38069  24.767  26.663   1.815
65755W        W38070   4.983   7.231  12.499
65756W        W38071  43.496   0.459  13.814
65757W        W38072  27.376  22.400  11.615
65758W        W38073  16.667   4.445  12.113
65759W        W38074  43.977  21.759   3.095
65760W        W38075  34.942  43.758   0.884
65761W        W38076  14.643  17.263  10.710
65762W        W38077   3.846  34.049  10.710
65763W        W38078  40.757  28.930   3.261
65764W        W38079   4.206  40.046  11.502
65765W        W38080  19.223   9.499  13.525
65766W        W38081  27.448  20.455   2.798
65767W        W38082  24.718  22.100  11.693
65768W        W38083  28.504  41.256   3.510
65769W        W38084  11.106  39.924  10.603
65770W        W38085  13.085  14.757  14.089
65771W        W38086  35.812   9.934   4.427
65772W        W38087  22.246   6.200   2.248
65773W        W38088  43.387  44.111  11.158
65774W        W38089  37.200   0.421  10.845
65775W        W38090  20.213   6.806  13.019
65776W        W38091  36.170  29.442   0.251
65777W        W38092  37.574  40.164   1.841
65778W        W38093  34.117  27.495  14.887
65779W        W38094   0.478  26.498   2.671
65780W        W38095  13.744  32.717  11.428
65781W        W38096  16.775  11.143   2.853
65782W        W38097   4.866   7.363   3.582
65783W        W38098  29.543   1.350  14.780
65784W        W38099  25.877  19.990   2.201
65785W        W38100  25.495   2.698   4.046
65786W        W38101  30.412  20.268   5.055
65787W        W38102  22.089  25.961  10.694
65788W        W38103  30.253   8.759  14.830
65789W        W38104   6.951  33.315  11.558
65790W        W38105  30.119  20.556  11.087
65791W        W38106  13.083   5.601  12.243
65792W        W38107  17.753  10.214   2.297
65793W        W38108   6.608  40.494   2.278
65794W        W38109  20.561  29.523  12.017
65795W        W38110   5.215  40.812  13.884
65796W        W38111  12.148  42.517   2.165
65797W        W38112   3.231  29.419   5.134
65798W        W38113  32.954  42.745   4.200
65799W        W38114   7.697  16.212  10.474
65800W        W38115  44.199  39.401   1.061
65801W        W38116  37.333  38.831  13.740
65802W        W38117   7.308  11.680   2.310
65803W        W38118  33.703  19.067   4.753
65804W        W38119  10.778   6.683  13.807
65805W        W38120  15.553  42.682  11.089
65806W        W38121   1.426  43.556  13.521
65807W        W38122  27.716  38.365   4.940
65808W        W38123  37.014  36.528  12.877
65809W        W38124  40.168   0.525  13.329
65810W        W38125  37.108  14.688   2.316
65811W        W38126  26.669  40.853  12.007
65812W        W38127  15.291  43.312  14.539
65813W        W38128  29.732  26.012  13.074
65814W        W38129  35.873  21.478  13.911
65815W        W38130  21.555  27.579   3.134
65816W        W38131  32.937   2.477  12.168
65817W        W38132  33.569   8.192  12.151
65818W        W38133  20.244   2.955   4.499
65819W        W38134  34.826   9.390  11.182
65820W        W38135  25.971  17.606  12.108
65821W        W38136  42.746  33.825   5.152
65822W        W38137   9.792  28.469   3.846
65823W        W38138  33.005   6.288  12.827
65824W        W38139  30.187   2.655   2.979
65825W        W38140  19.194  38.029   0.901
65826W        W38141  36.406   8.413   0.751
65827W        W38142   8.710  33.093   4.740
65828W        W38143  40.575  29.493  14.426
65829W        W38144  34.558   0.667  11.117
65830W        W38145  39.173   0.010   2.888
65831W        W38146  38.739  25.056   3.861
65832W        W38147  31.911  37.110   0.716
65833W        W38148  36.758  30.743   2.764
65834W        W38149  30.004  22.482  10.663
65835W        W38150  10.269   4.341   1.291
65836W        W38151  12.794   7.883  11.661
65837W        W38152  11.479   0.753   5.281
65838W        W38153  30.148  39.878  13.409
65839W        W38154   8.894   4.346   3.789
65840W        W38155  29.641   2.733   2.301
65841W        W38156  20.049  33.365   0.288
65842W        W38157  31.037   3.112  11.449
65843W        W38158  11.785  26.098  12.922
65844W        W38159  37.589  37.780  12.474
65845W        W38160  23.253   7.364  12.484
65846W        W38161  16.610  43.738  13.274
65847W        W38162  27.570  32.527  10.584
65848W        W38163  19.454   2.644   2.214
65849W        W38164  44.967   3.684   4.598
65850W        W38165  16.609   8.666   1.927
65851W        W38166  18.146  13.645  14.992
65852W        W38167  25.388  26.597  14.240
65853W        W38168  35.829  25.717   2.701
65854W        W38169   4.623  27.994   3.334
65855W        W38170  31.395  13.094   2.743
65856W        W38171  38.533  16.017   4.354
65857W        W38172  33.223  38.666  13.008
65858W        W38173  15.923  16.075   0.695
65859W        W38174  13.876  14.265  14.707
65860W        W38175  33.106  36.908   2.200
65861W        W38176  19.562  43.966  10.654
65862W        W38177  27.720  38.308   0.004
65863W        W38178  27.956  10.304  14.761
65864W        W38179  32.327  12.368   2.943
65865W        W38180  39.813  22.095  13.524
65866W        W38181   6.861  39.039   4.552
65867W        W38182   3.681  14.132  14.282
65868W        W38183  12.736  19.746   1.325
65869W        W38184   7.197  38.977  14.883
65870W        W38185   3.329  10.882  11.099
65871W        W38186  18.347  36.401  13.658
65872W        W38187  35.312  38.901  14.287
65873W        W38188  29.497  43.513  13.853
65874W        W38189  15.821  22.598  13.135
65875W        W38190   7.871   3.406   0.021
65876W        W38191  25.094   2.847  14.405
65877W        W38192  18.771  30.231   0.377
65878W        W38193  31.643  43.801   3.683
65879W        W38194  42.625  19.757   1.298
65880W        W38195  44.917   8.987  13.970
65881W        W38196  21.261  17.559   3.674
65882W        W38197  14.389  43.337  12.907
65883W        W38198  44.039  24.900  12.419
65884W        W38199  29.650  26.629   1.245
65885W        W38200  33.413  17.288   3.382
65886W        W38201   4.361  41.251   1.811
65887W        W38202  42.722   5.710   2.742
65888W        W38203   3.216  10.173   3.781
65889W        W38204  43.758  39.001  13.852
65890W        W38205   5.693   1.213   1.068
65891W        W38206  42.277  37.080  13.561
65892W        W38207  14.751  27.502   2.392
65893W        W38208   2.681   1.673   4.262
65894W        W38209  10.319   6.080   2.287
65895W        W38210  16.767  30.146  14.010
65896W        W38211  20.016  35.302  12.077
65897W        W38212  34.568   0.258  14.377
65898W        W38213  35.791  33.266  14.360
65899W        W38214  30.919  36.032   4.753
65900W        W38215  14.694   3.944  11.640
65901W        W38216  35.392  31.843  13.269
65902W        W38217  26.745  31.032   3.119
65903W        W38218   5.902  16.036  11.190
65904W        W38219  19.198  39.017  12.865
65905W        W38220  41.845  39.413  12.467
65906W        W38221  20.297  43.884   4.364
65907W        W38222   7.528  34.903   3.166
65908W        W38223  38.801  32.665  13.665
65909W        W38224  40.104  34.899  13.337
65910W        W38225   3.372  10.414   5.122
65911W        W38226  18.520  20.562   3.886
65912W        W38227  25.064  10.517   3.655
65913W        W38228  36.137  24.162  14.865
65914W        W38229  30.455  38.066   1.261
65915W        W38230  21.575  36.509   3.713
65916W        W38231   4.623  11.663   3.922
65917W        W38232  24.446  15.270   3.803
65918W        W38233  24.733  12.410  10.842
65919W        W38234   9.724  42.296   0.354
65920W        W38235  20.650  19.554   2.714
65921W        W38236  33.012   1.834  14.920
65922W        W38237  16.795  11.900   3.962
65923W        W38238  34.340  11.221   1.317
65924W        W38239  34.340  25.918  11.241
65925W        W38240   8.113  27.489   4.110
65926W        W38241  17.761  35.124  12.075
65927W        W38242  27.131   4.301  12.295
65928W        W38243  16.509   2.782  10.584
65929W        W38244   3.260  38.295   0.814
65930W        W38245  43.480  26.965   3.334
65931W        W38246  30.955  44.297  10.480
65932W        W38247  18.747  29.735   0.197
65933W        W38248  14.654   0.392  12.965
65934W        W38249  30.235  21.293  12.033
65935W        W38250  40.075  23.193  13.930
65936W        W38251  40.216  43.913  11.556
65937W        W38252   8.854  38.039   3.432
65938W        W38253  22.066   6.805  13.841
65939W        W38254  17.714  15.875  12.970
65940W        W38255  27.104  31.413   1.703
65941W        W38256   8.839  25.011  14.312
65942W        W38257  41.567   2.442  10.691
65943W        W38258   8.550  29.684  12.489
65944W        W38259  14.217  33.455  14.319
65945W        W38260  20.774  19.753   3.175
65946W        W38261  14.657  38.649   4.028
65947W        W38262  18.683  27.940   4.153
65948W        W38263   3.350  33.663  14.885
65949W        W38264   9.588  18.221  11.622
65950W        W38265  23.296  15.714   4.427
65951W        W38266  39.860   7.643   3.858
65952W        W38267   1.790  18.682   3.278
65953W        W38268  20.286  29.124   2.817
65954W        W38269  36.800  40.142  11.119
65955W        W38270  14.868  14.775  14.293
65956W        W38271   6.708  43.537  14.597
65957W        W38272   0.535  44.318   1.172
65958W        W38273  22.565  29.561   3.823
65959W        W38274   7.483  34.600  12.057
65960W        W38275  11.117  44.802  11.664
65961W        W38276   0.399  13.585   2.939
65962W        W38277  35.658  42.967  14.015
65963W        W38278  36.035  20.960  12.011
65964W        W38279  35.993  43.514  14.889
65965W        W38280  28.109  40.602   4.513
65966W        W38281  43.823   3.223   2.734
65967W        W38282  10.341  36.817  14.284
65968W        W38283  34.379   1.500  14.010
65969W        W38284  29.238   6.871   1.801
65970W        W38285  29.979  10.609  13.148
65971W        W38286   6.436  29.659   0.489
65972W        W38287  19.123  10.999  13.973
65973W        W38288  20.397  18.602  12.051
65974W        W38289  15.324  32.716   4.265
65975W        W38290  35.916  39.462   0.643
65976W        W38291  39.804  19.702  12.049
65977W        W38292  43.892  30.859   0.289
65978W        W38293   9.666  40.440  14.348
65979W        W38294  30.119  41.886   0.210
65980W        W38295  43.190  41.883   2.213
65981W        W38296  28.586  42.450   4.605
65982W        W38297  22.375  31.471  14.783
65983W        W38298  20.052  28.679   0.264
65984W        W38299  16.636  27.573  12.682
65985W        W38300  23.702   8.947  11.621
65986W        W38301  37.400  41.508   2.235
65987W        W38302  42.841  39.844   2.407
65988W        W38303  10.879   3.853   1.225
65989W        W38304   9.656  15.121   4.258
65990W        W38305  23.016   4.454   2.288
65991W        W38306  18.800  16.621  12.587
65992W        W38307  43.763   0.296  13.392
65993W        W38308  14.879   5.843   1.362
65994W        W38309  12.573  14.860  13.999
65995W        W38310  27.083  17.344  14.095
65996W        W38311  14.353  26.985   2.560
65997W        W38312   5.425   5.326  10.351
65998W        W38313  34.089   9.476  12.974
65999W        W38314  27.123  33.702   1.365
66000W        W38315  24.911  11.334   0.393
66001W        W38316  42.852   5.360   0.388
66002W        W38317   9.669  18.178  14.327
66003W        W38318  33.060  15.046  10.986
66004W        W38319  12.864  20.060   4.617
66005W        W38320   3.484  15.529  14.763
66006W        W38321   1.200  34.050  13.616
66007W        W38322  21.304  42.851  11.560
66008W        W38323   1.651   1.589  10.734
66009W        W38324   2.696   3.368   3.783
66010W        W38325  37.267  29.079  12.496
66011W        W38326  40.814  10.292   3.760
66012W        W38327  31.906  20.312  13.800
66013W        W38328  31.211   0.163  12.583
66014W        W38329  19.521  20.299   1.938
66015W        W38330  17.271  43.828  12.413
66016W        W38331  25.635  11.387  13.816
66017W        W38332  32.640  33.466  14.951
66018W        W38333  16.247  20.033  14.986
66019W        W38334  18.582  18.052   1.905
66020W        W38335   8.729  26.247   3.160
66021W        W38336   8.163  22.638   1.403
66022W        W38337  30.440  16.748   2.195
66023W        W38338  39.507  21.471   2.868
66024W        W38339  38.624  27.489  14.492
66025W        W38340  33.030   9.437  13.893
66026W        W38341  14.114  40.341   3.646
66027W        W38342  32.382  27.670   4.448
66028W        W38343   2.419  28.433   2.709
66029W        W38344  15.556   4.270   4.707
66030W        W38345  11.266  41.453   3.224
66031W        W38346   9.596  35.599   2.281
66032W        W38347  26.580  16.499  13.548
66033W        W38348  32.570  14.792   4.726
66034W        W38349   7.928  10.049  11.953
66035W        W38350  31.425  25.034  14.477
66036W        W38351  38.459   7.538   0.489
66037W        W38352  15.632  41.481   3.157
66038W        W38353  44.959   5.218  11.537
66039W        W38354   8.716   8.798  12.357
66040W        W38355  24.516  42.686   2.045
66041W        W38356  37.947  22.321   4.543
66042W        W38357  19.698  38.935   4.505
66043W        W38358   7.648  31.900  12.433
66044W        W38359   2.476  18.375  13.093
66045W        W38360  32.824  16.071  14.815
66046W        W38361   1.400  43.770   2.230
66047W        W38362  38.829  27.267   1.712
66048W        W38363  41.709  29.473   1.427
66049W        W38364  22.350  27.336  11.383
66050W        W38365  21.436  14.312   1.904
66051W        W38366  20.604   1.239  14.813
66052W        W38367  34.849  31.821  11.592
66053W        W38368  37.091  21.257  14.373
66054W        W38369  40.791  10.256   1.099
66055W        W38370  33.672  28.048   0.858
66056W        W38371   6.171  20.237   3.975
66057W        W38372  36.856   6.649   2.171
66058W        W38373  31.951   1.479   2.772
66059W        W38374   9.243  24.741  12.593
66060W        W38375  32.694   0.552   3.117
66061W        W38376   9.407  34.632   4.101
66062W        W38377  42.517  19.282  11.554
66063W        W38378  11.160  31.928  14.599
66064W        W38379  22.836  25.146   3.138
66065W        W38380  29.135  12.069   0.412
66066W        W38381  40.714  40.907  13.567
66067W        W38382  12.521   9.857  10.571
66068W        W38383   8.807  35.977   1.747
66069W        W38384  43.911   4.014  11.689
66070W        W38385  14.583   5.407  14.373
66071W        W38386  19.201  12.939   1.448
66072W        W38387  26.661  26.433   4.088
66073W        W38388  44.748   2.150   2.447
66074W        W38389  11.714   9.889   1.196
66075W        W38390  38.433  25.729  12.432
66076W        W38391  19.243  41.136   2.262
66077W        W38392  41.940  33.894  11.006
66078W        W38393  29.115   3.477   2.774
66079W        W38394   8.215   2.778  14.059
66080W        W38395  12.152  24.205  14.865
66081W        W38396  13.990  42.467   1.635
66082W        W38397  13.275  32.082   0.033
66083W        W38398   5.687  38.871  14.767
66084W        W38399  34.218  43.041  10.558
66085W        W38400   9.090  35.435   2.335
66086W        W38401  10.079   7.721  10.764
66087W        W38402  28.074  23.066   1.732
66088W        W38403   4.368   1.382  14.723
66089W        W38404  16.556   4.646  10.430
66090W        W38405   0.936  32.944  11.027
66091W        W38406  39.835   9.269   0.399
66092W        W38407  19.035  42.834   2.526
66093W        W38408  34.808  14.061  10.542
66094W        W38409   9.153  10.097   4.785
66095W        W38410  30.313   8.901  11.141
66096W        W38411   2.726  44.526   2.683
66097W        W38412  15.327  29.366   3.907
66098W        W38413  16.840   1.798   2.815
66099W        W38414  12.146   4.919   0.229
66100W        W38415  29.155   6.782   1.316
66101W        W38416  26.680   9.308   4.176
66102W        W38417   8.282   5.438  11.483
66103W        W38418  36.807  16.300   1.923
66104W        W38419   3.650  30.987   1.273
66105W        W38420  21.210  36.023  10.769
66106W        W38421  31.838   6.174  14.852
66107W        W38422   4.229  17.848   0.370
66108W        W38423  33.339  32.651   0.769
66109W        W38424  35.444  11.864   1.654
66110W        W38425   8.508   7.200  11.494
66111W        W38426  12.247  33.911  13.803
66112W        W38427   5.674  37.365  11.504
66113W        W38428  18.875  32.305   2.365
66114W        W38429  17.011  15.709   3.263
66115W        W38430  11.640  10.266  13.413
66116W        W38431  30.530  24.462   3.273
66117W        W38432  12.310  17.896  14.879
66118W        W38433  41.292  28.597  11.635
66119W        W38434  26.213  13.609  13.991
66120W        W38435  24.109  29.923  11.901
66121W        W38436  39.807   1.341  12.959
66122W        W38437  24.039  29.810   3.255
66123W        W38438   4.726  38.530  10.675
66124W        W38439  25.910   8.952   4.088
66125W        W38440  43.522   1.591   4.644
66126W        W38441  35.503  33.387  14.864
66127W        W38442  22.189   7.175  12.955
66128W        W38443  11.872   7.886   0.417
66129W        W38444   8.878  21.362   5.176
66130W        W38445  12.846   2.752  12.046
66131W        W38446   5.352  36.053   0.650
66132W        W38447  17.954  37.981   5.011
66133W        W38448  44.695  32.008   1.408
66134W        W38449  39.551  33.040   2.784
66135W        W38450  10.759  33.983   2.108
66136W        W38451  15.713  32.728  12.080
66137W        W38452  29.440  26.648   9.615
66138W        W38453  14.988  16.369  13.404
66139W        W38454  12.454  35.165   1.675
66140W        W38455   3.131  36.032   4.430
66141W        W38456  34.057  34.089  12.496
66142W        W38457  10.922  32.693  14.535
66143W        W38458  12.615  28.650  14.396
66144W        W38459   7.227  25.034  11.653
66145W        W38460  30.609  44.801   1.702
66146W        W38461  21.660  28.549  14.550
66147W        W38462  13.260  14.643  11.428
66148W        W38463  10.788   6.236  14.054
66149W        W38464   6.806  38.124   0.458
66150W        W38465  15.062  10.658  14.807
66151W        W38466  19.801  10.400  11.499
66152W        W38467   7.754  10.812   2.387
66153W        W38468  17.129  10.166   1.004
66154W        W38469  24.766  26.328  14.823
66155W        W38470  21.119  39.042   0.246
66156W        W38471  44.406  33.563  14.224
66157W        W38472   9.126   1.059   1.288
66158W        W38473  21.601  13.820  14.118
66159W        W38474  22.543   8.399   2.166
66160W        W38475   2.879   9.675   2.554
66161W        W38476  37.102   9.606   3.292
66162W        W38477   9.371  16.651  12.444
66163W        W38478  29.881  34.467  14.578
66164W        W38479  38.836   7.729   2.260
66165W        W38480  30.809  20.860   2.828
66166W        W38481  29.173   8.130  14.866
66167W        W38482  17.304  12.540   3.708
66168W        W38483  24.194   2.347  13.463
66169W        W38484   0.097  11.349   5.316
66170W        W38485  38.585   9.132  11.689
66171W        W38486  26.139  19.531   3.146
66172W        W38487  15.585  15.617   3.748
66173W        W38488  31.032  23.730  13.522
66174W        W38489  17.686  33.135  10.685
66175W        W38490  22.969  28.997  12.445
66176W        W38491  22.988   2.473   3.175
66177W        W38492  13.550  10.764  11.470
66178W        W38493  26.507  42.011  14.644
66179W        W38494  19.673   8.300  13.572
66180W        W38495  22.482  17.844   1.740
66181W        W38496  29.595  17.966  10.400
66182W        W38497  25.571  27.998   2.451
66183W        W38498   1.918  25.524  14.294
66184W        W38499  40.543  22.668   0.970
66185W        W38500  22.897  13.142  11.172
66186W        W38501  23.419   5.358  11.645
66187W        W38502   1.228  33.892  14.492
66188W        W38503  26.754  10.124   4.188
66189W        W38504  13.849  24.321   3.780
66190W        W38505  21.829  23.354   2.410
66191W        W38506   4.705  23.982  11.023
66192W        W38507   2.282  35.850   1.785
66193W        W38508  17.610  12.280  12.084
66194W        W38509   5.929  17.392  14.594
66195W        W38510  32.139   8.748  10.694
66196W        W38511  24.251  15.586  11.617
66197W        W38512  42.451  20.649   4.867
66198W        W38513   7.067  23.464   2.008
66199W        W38514  16.298  12.221  13.152
66200W        W38515  43.269   8.199  11.985
66201W        W38516  22.790   3.382  12.064
66202W        W38517  11.123  19.036   2.219
66203W        W38518  33.486   3.246   2.774
66204W        W38519   5.281  30.868  12.829
66205W        W38520  22.279   5.030   0.285
66206W        W38521  18.271  21.969   0.313
66207W        W38522  16.161  10.320   0.551
66208W        W38523  20.309  10.451   4.298
66209W        W38524  43.100  25.966   1.503
66210W        W38525  41.474  43.430  14.552
66211W        W38526  35.818  17.623  10.706
66212W        W38527   9.305  25.455  11.639
66213W        W38528  27.106  36.865   0.847
66214W        W38529  13.180  13.754   0.518
66215W        W38530  39.452  17.593   2.654
66216W        W38531   4.414  19.693   2.896
66217W        W38532  39.421  41.759  13.094
66218W        W38533  21.305  26.985  11.152
66219W        W38534  33.169  43.036  11.391
66220W        W38535   4.753  37.856  13.541
66221W        W38536  31.321  33.283  12.930
66222W        W38537  23.038  13.406  14.936
66223W        W38538   6.139  32.227   2.017
66224W        W38539  11.829  38.800   1.331
66225W        W38540  37.937  24.226   2.469
66226W        W38541   6.468  33.981  13.840
66227W        W38542  13.466  33.105  12.454
66228W        W38543  41.460  10.283  10.257
66229W        W38544  34.089  16.740   4.499
66230W        W38545  13.717  36.687   1.238
66231W        W38546  13.595  16.056   3.206
66232W        W38547  30.354  32.559  13.993
66233W        W38548  16.023  10.961   2.719
66234W        W38549  30.351  39.379  14.949
66235W        W38550  41.947  34.870  10.913
66236W        W38551   8.374  24.199   3.343
66237W        W38552   1.154   6.192   1.310
66238W        W38553  29.776  35.369  11.954
66239W        W38554  29.350  13.914  14.180
66240W        W38555  23.520  10.113   3.755
66241W        W38556  37.072  23.199   2.781
66242W        W38557  17.273  20.341   0.303
66243W        W38558  25.696  13.257   2.321
66244W        W38559  12.368  31.649   0.193
66245W        W38560  37.278  28.023  11.014
66246W        W38561  21.062  13.774   2.297
66247W        W38562  40.474  12.123  13.956
66248W        W38563  32.458  15.634   1.283
66249W        W38564  12.994  35.243   2.762
66250W        W38565  43.874  26.917  10.876
66251W        W38566   6.835  40.699   2.692
66252W        W38567  13.836  34.340   1.879
66253W        W38568  36.963   0.744   0.395
66254W        W38569  34.944  29.694  11.478
66255W        W38570  12.037  25.180  12.490
66256W        W38571  14.983  24.475   1.173
66257W        W38572  23.686  39.668  14.298
66258W        W38573  23.264  36.090  11.140
66259W        W38574   8.695  37.197   2.340
66260W        W38575  37.940  12.780   0.216
66261W        W38576   7.196  37.302   0.410
66262W        W38577   5.796  27.253   1.229
66263W        W38578  21.485   8.643  13.383
66264W        W38579  18.163   6.911  11.620
66265W        W38580  30.617   0.727  12.929
66266W        W38581  33.960   3.267  12.449
66267W        W38582  26.712  13.547  12.831
66268W        W38583  39.268  20.221   0.187
66269W        W38584  33.602   1.274  12.018
66270W        W38585  14.147  30.063  14.287
66271W        W38586  24.473   1.948  11.072
66272W        W38587  34.350  42.206  11.561
66273W        W38588  10.607  26.679  12.044
66274W        W38589  32.701   4.820  11.652
66275W        W38590   0.200  23.542   2.802
66276W        W38591  30.606   3.981   0.469
66277W        W38592  22.244  12.809   0.316
66278W        W38593  38.494   7.809   4.652
66279W        W38594   7.082  20.272   0.353
66280W        W38595   2.847  31.181  13.890
66281W        W38596  35.853  38.482   0.463
66282W        W38597  26.460  14.600   2.973
66283W        W38598  28.511  17.178   2.448
66284W        W38599  20.528  44.219  10.763
66285W        W38600  30.410  24.858   4.532
66286W        W38601  26.047  42.223  11.131
66287W        W38602  27.567  23.532  10.745
66288W        W38603  26.234  23.881   0.098
66289W        W38604   8.798  41.936  12.585
66290W        W38605  21.515  13.811   4.185
66291W        W38606   8.520  17.685   5.081
66292W        W38607  11.995  22.934   3.170
66293W        W38608  41.958   3.969  12.530
66294W        W38609   0.542  30.102   3.921
66295W        W38610  11.272  20.371  12.062
66296W        W38611  28.928  27.744   3.277
66297W        W38612  14.358  42.325  13.446
66298W        W38613  40.035  18.056  11.831
66299W        W38614  36.065  34.399   0.269
66300W        W38615  32.499  15.824  10.676
66301W        W38616   6.716  11.834  13.531
66302W        W38617   1.813  31.062  10.421
66303W        W38618  36.961   7.713   0.924
66304W        W38619  29.439  44.945  12.368
66305W        W38620  30.543   3.260  11.514
66306W        W38621  28.335   8.181   0.616
66307W        W38622  28.541  38.588   3.220
66308W        W38623  22.139  18.641  10.628
66309W        W38624  32.722  30.976   4.744
66310W        W38625  21.545   7.892  12.042
66311W        W38626  38.077  21.083  11.686
66312W        W38627   5.678  40.794  12.192
66313W        W38628  28.314   0.895  12.627
66314W        W38629  26.606  18.606   3.021
66315W        W38630  20.503  34.493  13.668
66316W        W38631  24.511  31.271   4.575
66317W        W38632   3.138  20.608   4.313
66318W        W38633  17.042  38.006  13.876
66319W        W38634   6.730  13.822  13.369
66320W        W38635  16.227  12.038  12.669
66321W        W38636   5.475  30.714   2.796
66322W        W38637  42.036  38.559   1.384
66323W        W38638  35.585   8.117  14.446
66324W        W38639  21.149  15.821   1.677
66325W        W38640  23.710  40.062  13.941
66326W        W38641  19.692  35.583   0.792
66327W        W38642   4.313  44.976   0.583
66328W        W38643  31.718  12.282  12.943
66329W        W38644  18.454  38.002   5.211
66330W        W38645  12.247   2.332  13.350
66331W        W38646  39.341  41.117   2.454
66332W        W38647  12.234  23.068   3.628
66333W        W38648   5.438  15.652   2.557
66334W        W38649  34.597   3.473  14.327
66335W        W38650   1.295  44.470  11.204
66336W        W38651  43.924  21.036   3.697
66337W        W38652  40.439  41.916   1.927
66338W        W38653  13.143   6.672  11.999
66339W        W38654  27.264   0.191  11.109
66340W        W38655  39.228  24.878   3.766
66341W        W38656  37.948  22.584   1.307
66342W        W38657  37.179  40.479  11.988
66343W        W38658  33.836  44.693   4.936
66344W        W38659  15.288  43.385  12.500
66345W        W38660  14.644   8.798   1.320
66346W        W38661   6.838  25.280  11.457
66347W        W38662   8.724  21.673  13.948
66348W        W38663   8.285   3.660   1.272
66349W        W38664  12.318  24.610   1.232
66350W        W38665  27.831  34.497  11.467
66351W        W38666  40.268  44.216   2.644
66352W        W38667  29.399  39.301  11.593
66353W        W38668  24.743   3.728  13.436
66354W        W38669  32.830  26.532  11.551
66355W        W38670  24.700  37.890   4.697
66356W        W38671   8.687  33.094   1.822
66357W        W38672  14.370  20.788  14.883
66358W        W38673   7.845  15.283   4.350
66359W        W38674  29.075   8.680  11.854
66360W        W38675  23.925  36.428  12.945
66361W        W38676   6.463  31.140  14.883
66362W        W38677  11.370  23.512   1.251
66363W        W38678   6.981  44.681  13.929
66364W        W38679  40.901   0.692  11.849
66365W        W38680  37.040  43.418  14.903
66366W        W38681  29.241  11.337  14.418
66367W        W38682   8.101  34.975  12.172
66368W        W38683  19.486  10.949   5.055
66369W        W38684  44.278  25.352  14.441
66370W        W38685  40.145   3.779  12.961
66371W        W38686  29.148  28.197   4.512
66372W        W38687   5.765   3.617   2.644
66373W        W38688  42.357  14.990  12.979
66374W        W38689  33.728  26.194  13.862
66375W        W38690  39.577  21.138   0.419
66376W        W38691  23.722   3.866  13.553
66377W        W38692  40.198  38.664  12.819
66378W        W38693  21.949  32.538  10.736
66379W        W38694  15.617  37.776   2.394
66380W        W38695   8.630  15.105   2.859
66381W        W38696  39.849  17.061   1.064
66382W        W38697  14.242  14.318   0.187
66383W        W38698  40.701  32.559   0.121
66384W        W38699  10.157   7.740   1.209
66385W        W38700  20.710  18.878  11.755
66386W        W38701  36.505   8.943  10.114
66387W        W38702   3.212   0.939  13.485
66388W        W38703  19.582  27.585   0.758
66389W        W38704  36.780  21.118  12.373
66390W        W38705  16.827  37.998   4.042
66391W        W38706  32.757  41.541  14.808
66392W        W38707   2.998  34.052   3.650
66393W        W38708   2.007  40.478   1.345
66394W        W38709  21.141  11.353  11.197
66395W        W38710  17.252   0.180   2.337
66396W        W38711  43.726  16.980   0.268
66397W        W38712  10.612   4.262  14.885
66398W        W38713  15.117  40.888   1.892
66399W        W38714  29.840  42.819  14.883
66400W        W38715  23.209   7.388  11.969
66401W        W38716  19.534  21.060   0.981
66402W        W38717  17.333   4.583  13.919
66403W        W38718  24.449   9.247  14.499
66404W        W38719  17.163  22.744  11.515
66405W        W38720  15.699  32.255  14.340
66406W        W38721  41.306   7.862   2.801
66407W        W38722   1.947  20.762   0.606
66408W        W38723  30.083  14.232   2.976
66409W        W38724  22.595  30.144   4.209
66410W        W38725  31.086  15.072  13.974
66411W        W38726  31.132  43.119   1.413
66412W        W38727  13.077  16.812  10.464
66413W        W38728   2.719   8.517  11.351
66414W        W38729  36.830  17.801  10.734
66415W        W38730  36.964   4.656   4.937
66416W        W38731  11.456  40.367   4.319
66417W        W38732  21.577  24.274  11.423
66418W        W38733  38.854  27.408  13.715
66419W        W38734  36.008  27.098  14.424
66420W        W38735   4.958   1.006  13.778
66421W        W38736   2.722  18.253  12.642
66422W        W38737  23.184  37.365  11.401
66423W        W38738   2.913  42.990  12.023
66424W        W38739  44.757  42.502  12.455
66425W        W38740  31.908  17.098   0.424
66426W        W38741  36.256  17.696  14.360
66427W        W38742  36.092  31.669  11.177
66428W        W38743  17.071   5.811  12.746
66429W        W38744  22.778  37.890   1.878
66430W        W38745  31.623  26.499   1.791
66431W        W38746  13.879  10.440   4.564
66432W        W38747  19.720   7.844   2.392
66433W        W38748  37.985  38.803  11.198
66434W        W38749  34.841   3.286   9.533
66435W        W38750  39.970  44.895   0.730
66436W        W38751  38.588  13.915   3.568
66437W        W38752  36.898  29.392   3.649
66438W        W38753   3.000  23.738  12.453
66439W        W38754  21.056  34.304  12.444
66440W        W38755   6.250  30.638   1.364
66441W        W38756  20.014  11.968   2.752
66442W        W38757  17.130   6.906   2.328
66443W        W38758  21.491  10.302  14.366
66444W        W38759  43.490   9.425   1.731
66445W        W38760  44.828   3.052   1.885
66446W        W38761  39.987   9.071  14.886
66447W        W38762  34.974  25.993  11.990
66448W        W38763   5.509  42.577  12.504
66449W        W38764  13.628  19.079   2.892
66450W        W38765  43.530  24.583   4.709
66451W        W38766   1.377  32.586  13.440
66452W        W38767  35.122   6.232   4.563
66453W        W38768  25.556  42.796  13.903
66454W        W38769  17.658  21.504   3.480
66455W        W38770  11.503  36.076   3.141
66456W        W38771  43.325   7.260   4.529
66457W        W38772   4.307  14.291   0.131
66458W        W38773  19.828  27.438  12.537
66459W        W38774  34.401  42.801  14.434
66460W        W38775  12.567  12.208   4.470
66461W        W38776  12.168  10.075  14.824
66462W        W38777   2.380   4.282   1.851
66463W        W38778   3.163   6.692   3.711
66464W        W38779  18.687  20.585  13.357
66465W        W38780  11.761  24.466  12.022
66466W        W38781  24.671  18.446   1.227
66467W        W38782  39.239  24.652   3.298
66468W        W38783  13.311   4.695  12.417
66469W        W38784  13.309  17.256  12.448
66470W        W38785  24.833  39.855  12.918
66471W        W38786  14.115   3.441  14.490
66472W        W38787  37.371  33.033   1.243
66473W        W38788  14.137  25.035   2.697
66474W        W38789   5.243  31.925  10.590
66475W        W38790  17.177   6.634  10.124
66476W        W38791   8.206  40.455  11.506
66477W        W38792   3.807   0.524   3.358
66478W        W38793   6.317   3.487   0.012
66479W        W38794  28.049   7.318  12.150
66480W        W38795  19.597  31.900   3.505
66481W        W38796  38.053  17.694   1.022
66482W        W38797  19.596  14.568  13.444
66483W        W38798  27.352  36.517   1.671
66484W        W38799  31.117  15.094   4.111
66485W        W38800  31.509  13.228   4.689
66486W        W38801  29.425   9.119   1.229
66487W        W38802  26.629  14.317  13.471
66488W        W38803  18.192   8.003  11.537
66489W        W38804  35.861  23.531  12.796
66490W        W38805  10.219  37.393   1.025
66491W        W38806  11.149  43.949  13.483
66492W        W38807  21.407   8.454  14.070
66493W        W38808  35.819  34.912  12.461
66494W        W38809  31.502  41.385   2.620
66495W        W38810  12.918  26.736   1.390
66496W        W38811  44.894  11.064   0.948
66497W        W38812  39.843  44.604   4.543
66498W        W38813   7.379  36.896   1.870
66499W        W38814  30.622  40.965  12.158
66500W        W38815   4.469  21.308   0.493
66501W        W38816  26.370  16.181  11.222
66502W        W38817  20.241   3.962  10.963
66503W        W38818  14.789  11.733  13.113
66504W        W38819  38.413  22.712  14.294
66505W        W38820  23.546  10.934  12.095
66506W        W38821  20.185   1.282   0.808
66507W        W38822  36.038  25.221   4.313
66508W        W38823  43.909  36.345   0.222
66509W        W38824  14.862  24.984   1.338
66510W        W38825   4.287  43.018   3.783
66511W        W38826  15.576  42.846   2.656
66512W        W38827   7.981   0.605  12.434
66513W        W38828   8.219  36.046   0.663
66514W        W38829   7.929   0.457  14.905
66515W        W38830  41.852  26.767   1.880
66516W        W38831  21.561  35.067  10.145
66517W        W38832  43.615  26.679   1.277
66518W        W38833  38.173  40.300   4.667
66519W        W38834  24.251  25.572  10.370
66520W        W38835  22.991  41.370  10.829
66521W        W38836  44.906   4.380   2.202
66522W        W38837  34.155  18.282  14.118
66523W        W38838  33.307  33.326  10.566
66524W        W38839  22.474   1.897   2.361
66525W        W38840  27.670  30.461  10.977
66526W        W38841  31.161   9.925  11.062
66527W        W38842  38.659   6.245   4.316
66528W        W38843  37.327  24.662   2.008
66529W        W38844   7.867  29.446   4.679
66530W        W38845  16.606   6.924  14.665
66531W        W38846  18.205  11.787  10.056
66532W        W38847  28.426  23.715   4.092
66533W        W38848  32.072  23.193  10.723
66534W        W38849  30.558   5.280  13.807
66535W        W38850  19.569  31.964  11.627
66536W        W38851  10.653  16.535   1.322
66537W        W38852  39.366   8.913  12.354
66538W        W38853  26.059  15.102  14.900
66539W        W38854  35.179  20.314  11.071
66540W        W38855   2.805   7.712  12.428
66541W        W38856  25.939   5.955   4.527
66542W        W38857  36.855  22.170   3.323
66543W        W38858   0.382  31.018  10.876
66544W        W38859  33.456  25.675  10.323
66545W        W38860   6.734  38.007  13.392
66546W        W38861   8.709  24.626  11.682
66547W        W38862  24.410   2.397   2.809
66548W        W38863  42.128   6.711   2.339
66549W        W38864   2.265  20.346  13.414
66550W        W38865  28.984  44.551  14.903
66551W        W38866  11.042  36.857   2.230
66552W        W38867  36.055  42.305   0.730
66553W        W38868  29.632  25.158   5.048
66554W        W38869  39.969   5.490  12.624
66555W        W38870  17.350  33.458   2.310
66556W        W38871  38.271   4.900   3.206
66557W        W38872  37.209  17.854   0.304
66558W        W38873  11.793   3.636   2.763
66559W        W38874   8.847  15.294   4.712
66560W        W38875   1.370  43.953   2.719
66561W        W38876  37.087   0.962  13.448
66562W        W38877  42.828  31.042  11.786
66563W        W38878  15.117  39.045  13.460
66564W        W38879  24.565  37.644  12.585
66565W        W38880  38.149  26.537  10.513
66566W        W38881  29.463  21.696  13.798
66567W        W38882   8.390   5.266  13.370
66568W        W38883  37.371  34.909   4.631
66569W        W38884  31.931  38.415  10.710
66570W        W38885   0.535   1.024   4.168
66571W        W38886  36.610  18.694  10.991
66572W        W38887  34.969   8.754   5.113
66573W        W38888  29.007  44.941   3.604
66574W        W38889  35.907  35.378  12.209
66575W        W38890   8.671  12.186  14.161
66576W        W38891  39.513  20.064   4.696
66577W        W38892  10.784  41.297   1.365
66578W        W38893   8.157  38.549   0.786
66579W        W38894  29.479  34.964   0.367
66580W        W38895  25.470  15.537  10.400
66581W        W38896  10.382   3.991   1.907
66582W        W38897   0.871  35.462   2.855
66583W        W38898  22.086  34.139   3.162
66584W        W38899   8.148  31.648   2.488
66585W        W38900   0.858  14.150  10.704
66586W        W38901  43.548  37.198  13.990
66587W        W38902  11.075  17.345  12.590
66588W        W38903  38.057  27.068  13.924
66589W        W38904  22.956  20.402  12.571
66590W        W38905  31.928  40.981  14.434
66591W        W38906   2.252   3.526  13.807
66592W        W38907  18.429  25.359  11.447
66593W        W38908   4.350  21.413  13.241
66594W        W38909  28.980   1.899  12.481
66595W        W38910  10.667   4.168  13.442
66596W        W38911   2.714  29.473   3.285
66597W        W38912  18.242  30.084  12.941
66598W        W38913  38.909   3.986  13.505
66599W        W38914  25.144   0.909   2.945
66600W        W38915  12.060  10.626  13.135
66601W        W38916  35.626  35.398   1.063
66602W        W38917   2.269  22.491  14.414
66603W        W38918   7.873  15.624   2.896
66604W        W38919  34.867  18.601   0.931
66605W        W38920   1.474   1.782   1.554
66606W        W38921  11.138  28.942  14.926
66607W        W38922  11.564  39.891  11.514
66608W        W38923   4.897  15.599  14.763
66609W        W38924  26.614  17.890  14.848
66610W        W38925  15.749  37.061   2.724
66611W        W38926   8.369  21.225   4.627
66612W        W38927  27.271  17.713   3.633
66613W        W38928  15.317   7.259   4.549
66614W        W38929  43.923   4.539   0.335
66615W        W38930  26.678   5.744   3.928
66616W        W38931   3.496  31.910   1.394
66617W        W38932   3.941  10.690  10.600
66618W        W38933  12.339  37.257   5.028
66619W        W38934  41.995   5.287  10.723
66620W        W38935  44.009  16.269   3.772
66621W        W38936  20.948   3.055   0.270
66622W        W38937  28.268  25.503   0.420
66623W        W38938   6.235  39.984   0.694
66624W        W38939  31.048  30.954  12.471
66625W        W38940  11.964  18.880   9.621
66626W        W38941  22.905   7.181   4.999
66627W        W38942  10.272  24.506   2.569
66628W        W38943  15.317   7.362  11.985
66629W        W38944   2.996  28.160  13.863
66630W        W38945  24.942  40.446  13.795
66631W        W38946  34.741  27.359  13.006
66632W        W38947  32.424  40.989  12.986
66633W        W38948  41.784  12.282   2.063
66634W        W38949  19.249  14.286  14.561
66635W        W38950   9.983   3.530   0.961
66636W        W38951  27.572  24.601   4.315
66637W        W38952  18.769  30.084  12.961
66638W        W38953  14.830  44.363  13.183
66639W        W38954   5.239  41.536  11.610
66640W        W38955   0.813  23.675  12.364
66641W        W38956  31.622  18.507  13.859
66642W        W38957  16.359  20.630  13.499
66643W        W38958  22.977  44.458  14.809
66644W        W38959  43.767  25.636  12.858
66645W        W38960   8.345  31.879   3.807
66646W        W38961   0.889  33.425  12.618
66647W        W38962   8.968  32.812  12.484
66648W        W38963  14.340  24.531   4.018
66649W        W38964  10.638  36.731  13.855
66650W        W38965  23.642  26.029   4.461
66651W        W38966   6.736  20.865  13.065
66652W        W38967  21.661  19.221  14.885
66653W        W38968  31.682  26.176  12.891
66654W        W38969  32.188  21.199   3.069
66655W        W38970  34.920   1.844   0.317
66656W        W38971  18.524  35.737   3.533
66657W        W38972  30.393  27.230   1.208
66658W        W38973  30.141   4.335   2.886
66659W        W38974  20.116   5.937  13.322
66660W        W38975  21.011  29.730   0.027
66661W        W38976  35.881  35.009  10.950
66662W        W38977  19.320  37.915  12.078
66663W        W38978   6.293   8.618   0.387
66664W        W38979  21.281  19.825   4.933
66665W        W38980  11.551  44.024  14.813
66666W        W38981  27.484  40.983  11.031
66667W        W38982  33.345   9.070   4.424
66668W        W38983  19.293  40.643   0.850
66669W        W38984  14.140  13.877   1.311
66670W        W38985  30.904  43.378   3.771
66671W        W38986  28.550   8.886   1.361
66672W        W38987   7.315  40.360  10.997
66673W        W38988  19.634  11.120   3.335
66674W        W38989  36.368  31.098   1.966
66675W        W38990  33.466  30.389  14.367
66676W        W38991  35.412   2.032   2.407
66677W        W38992   4.165  33.091   0.356
66678W        W38993  37.032   6.874   1.734
66679W        W38994  30.097   9.298   1.797
66680W        W38995  32.086  33.063  12.987
66681W        W38996  21.185  20.758   3.630
66682W        W38997  24.129  25.275   1.351
66683W        W38998  43.251   4.483  14.837
66684W        W38999  14.564  29.540  12.927
66685W        W39000  13.296   2.925  11.865
66686W        W39001  22.022  12.102  10.654
66687W        W39002  28.071  31.840  11.413
66688W        W39003  11.883   7.735   3.661
66689W        W39004  28.423  19.031  13.059
66690W        W39005   5.985  11.595  10.590
66691W        W39006   0.806  30.545   4.603
66692W        W39007  28.997  34.455   3.724
66693W        W39008  26.876  22.172   4.758
66694W        W39009  30.575   4.664   4.674
66695W        W39010  34.639   1.820  12.994
66696W        W39011   7.400   7.976   0.913
66697W        W39012  15.680   4.171  12.209
66698W        W39013  32.986   1.349   0.729
66699W        W39014   4.406   5.685  13.001
66700W        W39015  40.661  42.906  14.534
66701W        W39016  20.493  23.110   4.177
66702W        W39017  28.935  26.782  13.478
66703W        W39018  32.310   5.965  12.363
66704W        W39019  44.495  42.530  14.873
66705W        W39020  10.832  32.401   2.858
66706W        W39021  40.028   1.878  11.107
66707W        W39022  37.880   1.908  11.153
66708W        W39023  33.548  24.055  11.086
66709W        W39024  22.278  10.853   3.641
66710W        W39025   2.672  19.564  12.575
66711W        W39026  24.606  23.023   2.590
66712W        W39027  14.756  19.384   0.846
66713W        W39028  30.122   1.108   2.732
66714W        W39029  25.569  35.065  12.496
66715W        W39030  28.469   5.432   2.177
66716W        W39031  21.999   6.681  12.351
66717W        W39032  18.161  15.846   1.145
66718W        W39033   9.609  40.345   2.344
66719W        W39034  37.963  23.726   0.355
66720W        W39035  42.148  35.127  14.389
66721W        W39036  17.761   3.938  13.657
66722W        W39037  16.617  21.660  13.843
66723W        W39038  22.560   1.396  10.891
66724W        W39039  34.030  30.357   1.671
66725W        W39040   0.298  43.755  10.789
66726W        W39041  39.306  43.970   2.225
66727W        W39042  34.121  15.295  11.209
66728W        W39043  22.281  34.023   3.623
66729W        W39044  14.284  27.783  13.422
66730W        W39045  22.017  38.070   3.099
66731W        W39046  44.529  41.343   1.371
66732W        W39047  39.284  41.131  12.334
66733W        W39048  27.482  40.634   0.280
66734W        W39049   1.759  36.112   1.762
66735W        W39050  29.256  26.203  11.593
66736W        W39051  14.064  25.994   3.294
66737W        W39052  40.531  38.997  13.005
66738W        W39053  32.614  18.017   2.886
66739W        W39054  18.052   1.525   4.392
66740W        W39055   3.593  12.083   4.225
66741W        W39056  38.251  36.301   3.701
66742W        W39057   6.262   1.377  12.127
66743W        W39058   0.560  15.213   3.842
66744W        W39059  34.649  41.575  14.268
66745W        W39060  17.299  36.841   3.876
66746W        W39061  37.286   8.934   2.364
66747W        W39062   8.776   0.995  13.016
66748W        W39063   0.390  34.485  13.897
66749W        W39064   0.750  17.854   1.455
66750W        W39065  38.278  13.437   0.861
66751W        W39066   0.816  30.980   0.339
66752W        W39067  34.363   6.153  11.507
66753W        W39068  37.383  19.097  10.805
66754W        W39069  33.521  28.763  12.457
66755W        W39070   5.276  38.076  12.379
66756W        W39071  30.906   2.790   4.102
66757W        W39072   5.491  27.107   2.277
66758W        W39073   4.335  44.509   1.716
66759W        W39074  34.207  21.993  14.796
66760W        W39075   8.227  21.569   2.746
66761W        W39076  41.330  26.591   1.919
66762W        W39077   2.336   0.672   3.311
66763W        W39078  39.309   4.875   3.161
66764W        W39079  30.865  41.917   3.876
66765W        W39080  34.864  37.486   5.000
66766W        W39081  43.426  38.407   0.840
66767W        W39082  32.094  25.009   1.245
66768W        W39083  43.983  39.569   3.863
66769W        W39084  27.465  10.810  11.256
66770W        W39085  44.447  19.563  13.433
66771W        W39086  23.031   4.912  11.615
66772W        W39087  14.551  44.758  14.558
66773W        W39088  18.101  28.572  10.580
66774W        W39089  12.130  12.193   1.839
66775W        W39090  27.962  39.493  13.049
66776W        W39091   4.742  23.648   1.841
66777W        W39092  15.167  17.094   2.711
66778W        W39093   4.217  13.150  13.023
66779W        W39094  10.910  39.018   1.738
66780W        W39095   9.017  34.949   2.101
66781W        W39096   8.874   1.600   2.715
66782W        W39097   2.670  27.606  10.772
66783W        W39098  27.706  22.073  10.513
66784W        W39099  43.266  36.949   2.141
66785W        W39100  17.361  30.432   2.756
66786W        W39101   0.329  17.495  13.116
66787W        W39102  26.579  16.304   3.635
66788W        W39103   2.304  37.921  14.425
66789W        W39104   9.875  32.211  14.434
66790W        W39105  10.286  14.671  10.680
66791W        W39106  19.027  20.049  13.368
66792W        W39107  20.500  44.716  13.437
66793W        W39108  21.727  25.935   1.487
66794W        W39109   5.691   3.667  13.825
66795W        W39110  10.695   2.740  14.817
66796W        W39111   4.724  14.019   9.980
66797W        W39112  24.200   9.755   3.239
66798W        W39113  15.867  44.803   1.369
66799W        W39114  38.504  26.885  10.693
66800W        W39115   5.749  21.175  12.005
66801W        W39116  44.346  32.477   0.693
66802W        W39117  19.230  36.048  12.454
66803W        W39118  43.648  18.235  14.017
66804W        W39119   7.968   8.219   4.174
66805W        W39120  44.978  40.731  14.337
66806W        W39121  20.043  23.490  12.350
66807W        W39122  15.489  24.578   3.758
66808W        W39123  25.976  10.463   3.631
66809W        W39124   7.729  23.849  14.911
66810W        W39125  30.523  21.026   0.468
66811W        W39126  35.277  33.316   3.709
66812W        W39127  31.983  34.921   3.764
66813W        W39128  16.290  18.719  12.076
66814W        W39129  24.485  26.506  12.113
66815W        W39130  29.391   3.602   3.285
66816W        W39131   8.199  26.763   2.784
66817W        W39132  42.324  12.577  11.201
66818W        W39133  21.579  31.900   1.233
66819W        W39134  24.603  17.580   3.542
66820W        W39135   2.848  32.616  11.070
66821W        W39136  22.537  24.134  11.540
66822W        W39137  12.262  21.640   3.919
66823W        W39138   5.956  39.224   0.273
66824W        W39139  43.968  25.421   3.851
66825W        W39140   8.239  40.856   1.960
66826W        W39141  21.425  33.999   0.704
66827W        W39142  18.376  25.412   2.232
66828W        W39143  39.036  42.461  14.968
66829W        W39144  41.548  26.902  13.951
66830W        W39145   4.764   7.446   0.623
66831W        W39146   5.372  13.707  11.535
66832W        W39147  36.352  33.036  14.865
66833W        W39148  33.966  12.877  12.887
66834W        W39149  15.651  28.174  13.951
66835W        W39150  32.830  30.577   0.887
66836W        W39151  26.542  13.588  10.525
66837W        W39152   8.398   7.887   4.173
66838W        W39153  35.870  34.903   3.743
66839W        W39154  31.408   2.988   0.756
66840W        W39155   2.322  24.414   1.385
66841W        W39156  25.244  43.863  13.542
66842W        W39157   0.297   9.873  11.136
66843W        W39158  34.365  35.191  14.969
66844W        W39159  23.950  43.264  12.316
66845W        W39160   1.683  14.682   4.297
66846W        W39161  18.285  17.171  14.306
66847W        W39162  25.797  29.427   0.778
66848W        W39163   8.648  18.905   2.306
66849W        W39164   4.600  19.129  14.824
66850W        W39165   6.836  44.444  13.495
66851W        W39166   0.046  44.386   2.198
66852W        W39167  19.265  37.305  11.458
66853W        W39168   5.280   3.435  12.959
66854W        W39169  18.570  25.787  12.293
66855W        W39170  20.596   9.621   4.725
66856W        W39171  13.066  25.954   1.738
66857W        W39172  23.622  15.195  12.091
66858W        W39173   9.452   0.412  11.105
66859W        W39174   6.886   8.773  13.730
66860W        W39175   9.132  28.774  12.528
66861W        W39176   9.310  30.333  11.185
66862W        W39177  11.164  41.230   4.579
66863W        W39178  31.134   4.334   1.861
66864W        W39179  12.398  17.994  11.045
66865W        W39180  36.606  18.771  14.014
66866W        W39181  22.070  41.347  13.930
66867W        W39182  23.025  37.965  13.361
66868W        W39183  31.138  30.597   3.713
66869W        W39184  38.285  11.278   3.720
66870W        W39185  11.985  43.718   2.439
66871W        W39186  18.946  14.902  10.710
66872W        W39187   4.981  15.663   3.821
66873W        W39188  16.044  26.532  10.855
66874W        W39189   2.115   0.132   1.794
66875W        W39190  13.278   4.956  10.577
66876W        W39191  21.211  26.942   3.159
66877W        W39192  29.626  12.704   4.532
66878W        W39193  25.508  17.396   1.739
66879W        W39194   3.854  31.500   4.191
66880W        W39195  34.941  13.222  13.927
66881W        W39196   1.104  24.829  14.899
66882W        W39197   1.260  25.962   1.196
66883W        W39198  29.098  23.230   3.242
66884W        W39199   9.928  18.114  12.989
66885W        W39200  28.164  36.818  11.594
66886W        W39201   0.347  21.918  11.158
66887W        W39202  13.159  10.623   2.686
66888W        W39203  37.425  36.902  14.816
66889W        W39204  44.532   3.877   2.843
66890W        W39205  26.219  25.582  13.014
66891W        W39206  27.221  42.312   2.947
66892W        W39207  22.945   1.298  13.100
66893W        W39208  14.106   2.178  10.929
66894W        W39209   6.380  30.251  14.786
66895W        W39210  42.101  24.350   0.680
66896W        W39211  37.930  34.860  11.973
66897W        W39212  11.566   6.309  14.075
66898W        W39213  27.830  44.073   3.799
66899W        W39214  11.238  24.185   3.674
66900W        W39215  17.365  17.071   3.680
66901W        W39216   8.258  21.211   3.714
66902W        W39217  16.082  26.824   3.832
66903W        W39218  36.289  23.188   2.361
66904W        W39219  16.675  39.599  14.337
66905W        W39220  12.722  30.307   2.837
66906W        W39221   6.044  24.564  13.532
66907W        W39222  14.239  38.134  13.003
66908W        W39223  16.745   5.237   2.669
66909W        W39224  42.014   4.225   1.774
66910W        W39225  18.769  39.403  11.357
66911W        W39226  39.855  34.502   0.003
66912W        W39227  18.664   5.425   1.798
66913W        W39228   3.724  24.718  14.716
66914W        W39229  16.638  35.801   3.684
66915W        W39230  33.413  34.509  10.063
66916W        W39231   6.709  10.624  13.930
66917W        W39232   8.101  19.580   2.802
66918W        W39233  25.294  13.286  12.914
66919W        W39234  38.561  30.681  14.341
66920W        W39235  14.165   5.820  11.335
66921W        W39236  27.795  31.129  10.178
66922W        W39237  15.416  26.649  11.428
66923W        W39238  26.910  32.850  11.728
66924W        W39239   1.357  38.875   2.120
66925W        W39240   6.182  25.707  13.853
66926W        W39241  33.398  39.107  12.345
66927W        W39242  12.156   4.746  11.159
66928W        W39243  33.474  36.948  14.566
66929W        W39244  23.500  13.136   3.681
66930W        W39245  17.574  40.381   1.639
66931W        W39246   2.665  39.689   2.692
66932W        W39247   3.015  31.441  12.400
66933W        W39248  41.315  37.270   3.803
66934W        W39249  25.735   2.330   2.334
66935W        W39250  19.635  16.634   1.794
66936W        W39251  17.070  38.541  13.915
66937W        W39252  29.658  20.587  14.166
66938W        W39253  34.302  24.475  14.037
66939W        W39254  24.440  42.123   1.479
66940W        W39255  30.899  37.052  14.009
66941W        W39256  24.030   3.056   4.926
66942W        W39257  29.473  34.099   1.459
66943W        W39258  24.673  36.330   3.672
66944W        W39259  20.311  35.324  11.011
66945W        W39260  41.728   2.379   2.920
66946W        W39261  19.583  44.499  13.360
66947W        W39262  27.529   5.754   4.567
66948W        W39263  21.748   4.402  10.342
66949W        W39264  13.176  21.289   1.419
66950W        W39265  18.539   2.915  13.558
66951W        W39266  26.898  12.451   2.229
66952W        W39267  43.024   3.976   1.210
66953W        W39268  36.466  29.997   2.859
66954W        W39269  16.824   6.732  11.378
66955W        W39270  12.580  35.438   3.114
66956W        W39271  35.875  20.512   1.126
66957W        W39272  22.342  31.904   2.624
66958W        W39273   4.675  12.589  12.110
66959W        W39274  42.899  40.266  13.055
66960W        W39275  15.912  31.957  11.710
66961W        W39276  19.104  36.899  14.966
66962W        W39277  35.243   5.490  11.591
66963W        W39278  36.899  15.649  11.729
66964W        W39279  11.265   9.351  14.441
66965W        W39280  41.489  21.286  13.523
66966W        W39281  23.262   0.432  14.960
66967W        W39282  38.817  18.117  14.039
66968W        W39283  26.203   6.819   2.884
66969W        W39284  43.451  27.643   4.658
66970W        W39285   4.505  41.499   1.329
66971W        W39286  33.413  11.828  15.000
66972W        W39287  18.540  26.218   2.005
66973W        W39288   2.880   9.676  14.437
66974W        W39289  14.540  11.270   2.670
66975W        W39290  12.172  39.009  11.972
66976W        W39291  11.338  16.797  13.418
66977W        W39292  35.594  43.450   2.780
66978W        W39293  44.786   7.694  14.338
66979W        W39294  43.505   0.301  12.919
66980W        W39295  12.885  35.831  12.472
66981W        W39296  26.068  24.691  14.996
66982W        W39297  31.713  23.497  12.040
66983W        W39298   3.946   1.190  14.976
66984W        W39299  28.435   7.373   3.591
66985W        W39300  36.077   4.946  14.741
66986W        W39301  14.775  11.898  14.049
66987W        W39302  24.176   7.351  12.181
66988W        W39303  36.074  11.883  14.935
66989W        W39304  24.681  41.499   3.226
66990W        W39305   7.655   0.236   0.828
66991W        W39306  18.760  11.326  11.012
66992W        W39307  33.116  31.417  14.867
66993W        W39308   5.702  43.843   0.702
66994W        W39309   2.027  42.453  11.793
66995W        W39310  11.824  38.681   2.393
66996W        W39311  10.083   3.711   3.315
66997W        W39312  17.392  20.184   4.030
66998W        W39313  44.455   5.242   2.166
66999W        W39314  33.396  34.639   0.792
67000W        W39315   5.833  19.007   3.116
67001W        W39316  20.090   3.802   1.345
67002W        W39317  11.452  39.835   1.903
67003W        W39318  40.878   4.853   4.281
67004W        W39319   0.769   3.907  12.464
67005W        W39320  41.322   2.618   2.630
67006W        W39321   7.334  35.463   0.449
67007W        W39322   0.806   7.062   2.649
67008W        W39323  28.844  29.215   3.265
67009W        W39324  37.864   4.847   1.418
67010W        W39325   4.738   4.989  13.704
67011W        W39326  40.461  41.558   0.978
67012W        W39327  13.569   0.959   1.930
67013W        W39328  19.319  31.102   3.689
67014W        W39329  26.147   6.393  11.037
67015W        W39330  43.781  37.512   0.912
67016W        W39331   8.470  36.434  13.260
67017W        W39332  22.159  27.437   0.848
67018W        W39333  38.489  34.874  10.408
67019W        W39334  13.289  17.671  13.526
67020W        W39335   3.245   4.237   2.651
67021W        W39336  22.122   2.553  11.937
67022W        W39337  38.713  42.304  11.556
67023W        W39338   3.928  40.612  12.746
67024W        W39339  18.184  32.177  14.916
67025W        W39340  21.848  13.719  13.207
67026W        W39341  17.048  11.373  11.872
67027W        W39342  10.242  24.301  13.303
67028W        W39343   5.445   2.940   2.935
67029W        W39344  31.194  16.598  10.798
67030W        W39345   4.759  37.435  14.288
67031W        W39346  14.652  25.093  12.094
67032W        W39347  22.039  19.883   9.903
67033W        W39348   3.104  17.201   0.660
67034W        W39349  14.854  20.301   4.628
67035W        W39350  36.851  31.122   4.349
67036W        W39351   0.216  36.100   2.551
67037W        W39352  33.066   8.104  12.771
67038W        W39353  34.574  27.271  11.084
67039W        W39354  29.588  27.896   4.518
67040W        W39355  24.511  10.265  13.752
67041W        W39356  24.711  16.252  12.101
67042W        W39357  13.695  19.968  13.780
67043W        W39358  35.137  26.048   0.016
67044W        W39359  33.243  17.741   1.776
67045W        W39360  36.315  38.788   1.961
67046W        W39361  32.564  19.347   3.305
67047W        W39362  23.135  25.577   2.231
67048W        W39363  21.717  22.690  13.583
67049W        W39364   2.801  11.297  11.655
67050W        W39365  31.133   9.371  10.702
67051W        W39366   6.468  31.873   4.110
67052W        W39367  15.438   2.792  13.365
67053W        W39368  11.763   6.363  10.642
67054W        W39369  22.130  32.061  13.628
67055W        W39370   0.800   9.537  13.655
67056W        W39371  16.917  35.787   2.662
67057W        W39372  16.597  25.987   0.913
67058W        W39373  23.232  44.776   4.674
67059W        W39374  22.478  41.386  10.858
67060W        W39375   3.770  14.377   1.407
67061W        W39376  32.464   6.767   2.727
67062W        W39377  44.541  18.758   5.217
67063W        W39378   8.961  22.831   0.914
67064W        W39379  30.394  37.091  11.170
67065W        W39380  43.954   5.926  12.784
67066W        W39381  10.656  27.401  11.491
67067W        W39382  30.566  41.708   0.530
67068W        W39383  18.232  14.359  13.421
67069W        W39384  11.249  14.827   1.706
67070W        W39385  31.650  44.591   0.009
67071W        W39386  36.402  14.165   3.440
67072W        W39387  11.626   2.473   2.247
67073W        W39388  19.192  32.696  13.254
67074W        W39389  10.832  27.691   4.201
67075W        W39390  39.716  44.050  11.457
67076W        W39391  33.873  15.635   2.781
67077W        W39392  19.557  34.638  10.795
67078W        W39393  40.280  39.065  12.017
67079W        W39394  16.295  37.635   0.945
67080W        W39395  14.800   9.826  12.594
67081W        W39396  15.988  16.352   1.176
67082W        W39397  40.693   1.287  10.658
67083W        W39398  25.700  24.321  13.888
67084W        W39399  14.204  27.690   1.216
67085W        W39400  14.051   8.255   0.902
67086W        W39401  35.983  11.060   1.826
67087W        W39402  11.926  17.674  13.813
67088W        W39403  34.820  40.390  11.655
67089W        W39404  29.000   4.415   1.419
67090W        W39405  13.769  16.641   4.034
67091W        W39406   3.249  44.406  13.424
67092W        W39407  43.771  18.284   4.571
67093W        W39408  36.073  11.653   4.235
67094W        W39409  13.861  24.212   1.745
67095W        W39410  18.523  20.733   0.218
67096W        W39411  20.055  41.393  14.778
67097W        W39412  13.137  19.089  13.034
67098W        W39413   8.913   7.709  14.536
67099W        W39414  35.919   8.273  13.531
67100W        W39415  34.340  10.766   1.905
67101W        W39416  33.887  37.647   2.148
67102W        W39417  14.323  29.949  11.535
67103W        W39418  19.172   0.924  11.568
67104W        W39419  20.526  41.847  11.615
67105W        W39420  40.805   8.440   2.714
67106W        W39421  34.904   7.714   1.131
67107W        W39422  35.678  13.460  11.205
67108W        W39423  19.131   0.460   2.785
67109W        W39424  12.569  28.127   0.268
67110W        W39425  26.678   6.733  11.033
67111W        W39426  12.902  39.427   4.129
67112W        W39427  26.177  11.917   0.443
67113W        W39428  34.591   7.718   1.732
67114W        W39429   6.619  37.433   1.737
67115W        W39430   5.841  30.400  12.722
67116W        W39431  23.674   6.969   3.691
67117W        W39432   3.185  22.173   4.154
67118W        W39433  30.949  11.741  11.778
67119W        W39434  14.211  19.666  10.428
67120W        W39435  25.646   8.716  12.472
67121W        W39436   3.161  13.133   2.329
67122W        W39437  24.795   8.227   2.503
67123W        W39438  41.078   3.463   4.152
67124W        W39439   5.827  17.565  12.620
67125W        W39440  12.057  10.728   0.846
67126W        W39441  22.099  30.182   4.393
67127W        W39442   0.230  29.592   4.797
67128W        W39443  12.571   5.588  12.413
67129W        W39444  25.207  40.913  13.901
67130W        W39445  10.608  23.647  12.965
67131W        W39446  28.364  16.949   3.204
67132W        W39447  18.779   7.753  13.477
67133W        W39448  26.938   1.914   0.623
67134W        W39449  11.068  43.962   4.627
67135W        W39450  25.057  14.871  12.688
67136W        W39451  17.077   0.864   3.606
67137W        W39452  37.688  41.997   3.829
67138W        W39453  21.727  12.580   0.273
67139W        W39454  20.746  11.716   0.002
67140W        W39455   1.472  15.540  12.993
67141W        W39456  17.138  38.547   9.800
67142W        W39457  40.524  38.550  14.289
67143W        W39458  18.684  23.148   1.317
67144W        W39459   3.687  21.557   1.445
67145W        W39460   3.386  10.593   4.047
67146W        W39461  43.769   6.204   0.087
67147W        W39462  37.898  25.156   2.380
67148W        W39463  17.675   9.248  13.059
67149W        W39464  28.197  43.061   3.553
67150W        W39465  13.249  36.081   4.061
67151W        W39466  39.947  20.244   4.029
67152W        W39467  20.403  20.153  11.220
67153W        W39468  26.721  36.103   4.573
67154W        W39469  33.127  41.023   1.264
67155W        W39470  19.733  12.601  11.910
67156W        W39471  12.172  29.030  10.877
67157W        W39472  10.253  31.538  10.163
67158W        W39473  38.443  17.807   2.069
67159W        W39474   9.769  30.555   4.860
67160W        W39475   6.667  28.818  12.515
67161W        W39476  11.739  43.285   2.984
67162W        W39477  31.796  34.155   4.122
67163W        W39478   8.133  44.364   2.733
67164W        W39479  37.618  26.009  10.665
67165W        W39480  19.557  10.415   0.938
67166W        W39481  16.657   4.873   1.562
67167W        W39482  37.520  16.866  13.107
67168W        W39483  20.619   2.230  12.925
67169W        W39484  23.878  30.837   0.427
67170W        W39485  20.316  22.216  12.337
67171W        W39486  18.021  11.578   1.258
67172W        W39487  37.866   4.806   0.750
67173W        W39488  26.220  24.252   2.842
67174W        W39489  26.038  30.716   0.012
67175W        W39490   7.312  13.119   0.358
67176W        W39491  42.397  27.367   0.222
67177W        W39492  42.494  30.347  12.031
67178W        W39493   8.818   6.053  13.651
67179W        W39494  38.411  14.093  11.528
67180W        W39495   7.744  16.584  13.385
67181W        W39496  28.528   4.459  12.006
67182W        W39497  12.796  34.849  14.405
67183W        W39498  39.179   4.172   2.713
67184W        W39499  18.259  40.371   1.310
67185W        W39500  18.855  23.799   1.952
67186W        W39501  21.683  37.524  11.122
67187W        W39502  10.339  17.325  13.625
67188W        W39503  32.415  38.805   3.867
67189W        W39504  25.446  26.119  14.441
67190W        W39505  30.658  29.113   2.045
67191W        W39506  11.795  10.260   0.841
67192W        W39507  16.822  32.417  13.459
67193W        W39508  22.895  13.243   5.336
67194W        W39509  40.799  25.453   4.594
67195W        W39510  27.466   4.161  14.935
67196W        W39511   4.114   9.803  12.899
67197W        W39512   6.331  32.509  12.576
67198W        W39513  26.245  43.855  13.150
67199W        W39514  19.301  26.874  14.752
67200W        W39515  26.657  20.297  13.042
67201W        W39516  20.482  16.299   2.264
67202W        W39517  29.423  37.241   2.771
67203W        W39518  34.622  11.349  11.241
67204W        W39519  34.582   6.464  13.636
67205W        W39520  26.508   3.748   1.782
67206W        W39521  41.449  21.253   1.812
67207W        W39522  17.965   9.231  10.171
67208W        W39523  32.556  41.237   3.818
67209W        W39524   0.763  14.275  13.035
67210W        W39525  39.768   0.823   2.291
67211W        W39526  28.079   9.913   3.337
67212W        W39527  41.950  13.583   0.502
67213W        W39528  38.261  28.470  14.767
67214W        W39529  18.112  11.412  10.816
67215W        W39530  17.287  12.272  13.458
67216W        W39531  44.307   1.793   2.600
67217W        W39532  31.062  38.064  14.592
67218W        W39533  43.787  32.588  13.896
67219W        W39534  36.075  31.612   3.603
67220W        W39535  20.737  18.113  13.320
67221W        W39536  41.671  25.619   4.969
67222W        W39537  24.741  25.116  11.846
67223W        W39538  32.950  32.172   2.788
67224W        W39539  42.340   4.410   0.466
67225W        W39540  19.676  21.998   0.352
67226W        W39541   4.905  24.471  12.529
67227W        W39542  31.244   5.864   3.267
67228W        W39543  27.793  36.430  11.619
67229W        W39544  33.531  15.567  12.650
67230W        W39545  34.674  30.518  14.776
67231W        W39546  28.990  27.180  11.581
67232W        W39547  27.242   8.280   2.705
67233W        W39548  29.467  11.699   1.708
67234W        W39549  18.260  31.344  13.513
67235W        W39550  40.853  41.296  13.021
67236W        W39551  10.854  21.640  11.494
67237W        W39552  24.216  30.737   4.614
67238W        W39553  37.344   8.476  10.841
67239W        W39554  36.941  38.083  14.079
67240W        W39555  42.427  40.976  11.893
67241W        W39556   7.203  40.985  14.938
67242W        W39557  23.681  18.089  13.350
67243W        W39558   4.455   0.870  12.105
67244W        W39559  30.508   2.730   0.755
67245W        W39560  23.007  29.572  12.020
67246W        W39561  37.192  26.216  10.118
67247W        W39562   7.915  35.410  14.090
67248W        W39563  28.517  24.876   2.330
67249W        W39564  16.507  15.159   2.369
67250W        W39565  37.550   6.699  13.832
67251W        W39566  27.703  26.052   3.812
67252W        W39567  28.520  21.687   4.741
67253W        W39568  23.593  18.869  11.634
67254W        W39569  44.354  24.656   1.732
67255W        W39570  20.682  31.190   4.169
67256W        W39571  17.845   2.002   0.409
67257W        W39572   8.765  39.460  13.801
67258W        W39573  34.147   2.282   1.471
67259W        W39574   6.793  11.237   4.364
67260W        W39575  44.242  17.151   3.216
67261W        W39576   4.264  41.052  14.756
67262W        W39577  13.505  26.728   1.986
67263W        W39578  22.819  44.331   2.943
67264W        W39579  25.517  15.704   0.693
67265W        W39580  39.946  40.509  13.538
67266W        W39581   1.979   5.312  10.929
67267W        W39582  44.708  32.702   0.423
67268W        W39583  33.944  19.747   5.029
67269W        W39584   8.920  16.172   0.747
67270W        W39585  42.977   4.885  13.834
67271W        W39586  29.031  24.370   0.748
67272W        W39587  39.356  15.658  14.832
67273W        W39588   7.772  35.560   2.769
67274W        W39589  25.784  25.459   4.225
67275W        W39590  31.842   7.365  13.739
67276W        W39591   1.983  31.426   1.750
67277W        W39592   6.838  13.576  13.820
67278W        W39593  21.097   3.422  11.647
67279W        W39594  16.366  31.108   1.746
67280W        W39595  38.860   3.381   0.198
67281W        W39596  16.001  17.046  12.046
67282W        W39597  26.383  14.187   0.719
67283W        W39598  17.678  40.602  10.284
67284W        W39599  44.001   8.615  14.039
67285W        W39600   7.675  26.370   5.042
67286W        W39601  44.579  13.114  13.935
67287W        W39602  13.972  20.474  14.788
67288W        W39603  35.162  12.569   3.144
67289W        W39604  33.991  33.105   0.475
67290W        W39605  37.154  12.337   2.670
67291W        W39606  14.349  39.559  13.003
67292W        W39607  41.673   1.992   5.112
67293W        W39608  15.727  10.421   0.272
67294W        W39609  17.714  24.253   3.821
67295W        W39610  23.516   7.215  13.333
67296W        W39611   6.344  15.018   3.453
67297W        W39612  11.726   1.686   1.040
67298W        W39613  27.953  10.302  12.737
67299W        W39614   3.694   2.755  14.258
67300W        W39615  21.487   0.522   3.288
67301W        W39616  29.902  32.601  14.554
67302W        W39617  25.591  16.014  10.658
67303W        W39618  35.608   7.163   4.803
67304W        W39619  22.458  20.498  14.898
67305W        W39620  22.078  32.737   1.943
67306W        W39621  13.707  12.830   4.352
67307W        W39622  36.945  24.087  12.858
67308W        W39623  27.788  42.535  11.151
67309W        W39624  26.577  26.988  13.452
67310W        W39625  17.617  22.088   1.789
67311W        W39626   1.236  15.073  13.126
67312W        W39627  35.566   1.507   4.631
67313W        W39628   3.452  35.176  13.848
67314W        W39629  19.028  21.498   3.216
67315W        W39630  28.837  14.750  12.687
67316W        W39631  25.219  29.598   2.701
67317W        W39632  38.923  32.457   0.438
67318W        W39633   6.870  44.858   2.679
67319W        W39634  44.494  33.872   0.815
67320W        W39635   8.693  16.345   1.908
67321W        W39636  11.480  28.418   3.707
67322W        W39637  30.901  34.919   0.501
67323W        W39638  28.704   7.861   1.565
67324W        W39639  38.280  33.579  14.488
67325W        W39640  38.811  24.975   0.469
67326W        W39641  35.563   4.242   4.600
67327W        W39642  10.266   9.944   3.826
67328W        W39643  29.457  14.226   4.705
67329W        W39644  20.374  24.305   3.808
67330W        W39645  17.083   2.198  10.385
67331W        W39646  31.925  29.060  11.238
67332W        W39647  39.827  39.826  11.213
67333W        W39648  33.903  12.832   1.336
67334W        W39649  11.308  19.827   1.740
67335W        W39650  18.157  11.595  12.616
67336W        W39651   3.950  41.114   3.804
67337W        W39652  27.131  15.587   1.323
67338W        W39653  37.033  27.598   4.752
67339W        W39654  41.292  32.498   0.967
67340W        W39655  26.971  15.829   0.765
67341W        W39656  31.566   9.302  13.070
67342W        W39657  14.684  28.737   2.699
67343W        W39658  21.754  13.841  10.880
67344W        W39659  15.105  44.970   1.664
67345W        W39660  40.040  22.539  14.716
67346W        W39661  43.539  26.075  12.463
67347W        W39662  32.875  41.306  13.921
67348W        W39663  41.255   0.204  11.123
67349W        W39664   5.640  12.249  13.119
67350W        W39665   9.275  42.767   1.763
67351W        W39666   2.339  34.084   4.919
67352W        W39667   5.205   5.258   3.631
67353W        W39668   9.547  32.428   3.165
67354W        W39669  38.343  21.534   5.063
67355W        W39670   9.451  36.620   2.156
67356W        W39671  44.857   9.268  11.459
67357W        W39672  32.905  44.493   4.620
67358W        W39673   5.495  22.682   3.118
67359W        W39674  17.402  24.551   1.249
67360W        W39675   5.691   2.451  11.184
67361W        W39676   7.956   1.884   2.468
67362W        W39677  27.692  17.408  10.574
67363W        W39678  12.702  10.562  11.962
67364W        W39679  38.841   9.263   1.794
67365W        W39680  21.817  20.675   1.718
67366W        W39681  10.189  28.424  13.376
67367W        W39682  10.288  20.081  10.986
67368W        W39683  17.186  41.945  12.995
67369W        W39684  27.635  36.497  13.382
67370W        W39685  42.725  10.810   2.652
67371W        W39686  17.560  32.006   2.843
67372W        W39687  33.872  42.070  10.723
67373W        W39688  35.825   1.349   2.221
67374W        W39689   3.285   3.410   4.629
67375W        W39690   9.005  15.264   3.819
67376W        W39691  35.036  43.017   1.718
67377W        W39692  28.685  15.716  13.946
67378W        W39693  35.326  12.813  13.924
67379W        W39694  13.596  10.405   3.262
67380W        W39695  25.235  38.963   0.809
67381W        W39696   5.885  32.050  14.365
67382W        W39697  37.595  21.214   0.172
67383W        W39698  13.190   2.870  13.404
67384W        W39699   1.734  39.906   3.038
67385W        W39700  25.275  38.028  12.113
67386W        W39701  28.743  17.234   1.322
67387W        W39702  13.753  32.696  12.539
67388W        W39703  44.392  34.362   1.620
67389W        W39704   9.652  38.412   1.824
67390W        W39705  38.843  44.096  11.057
67391W        W39706  42.479   8.830   0.226
67392W        W39707   3.027  23.831  11.441
67393W        W39708  40.359  39.313   2.886
67394W        W39709   7.507  25.180   1.105
67395W        W39710  17.279   7.183   1.376
67396W        W39711  27.740   5.681   1.918
67397W        W39712   6.182  43.857  10.918
67398W        W39713  12.876  17.522  12.424
67399W        W39714   3.254  33.919  13.526
67400W        W39715  18.336  18.142  11.614
67401W        W39716   6.411  19.122   0.152
67402W        W39717  43.965   8.559  12.755
67403W        W39718   0.880  22.646   1.268
67404W        W39719   8.983  22.961  14.693
67405W        W39720  22.568  42.995   1.264
67406W        W39721  21.564  40.509   0.335
67407W        W39722   1.766  14.953  11.976
67408W        W39723   4.877  19.577  14.935
67409W        W39724  30.132  28.605  11.064
67410W        W39725  10.682  29.528  10.983
67411W        W39726  25.627  16.353   0.371
67412W        W39727  12.540   0.528  13.459
67413W        W39728  23.012  29.423   3.565
67414W        W39729   7.802  24.712   3.708
67415W        W39730  25.595  12.057  11.532
67416W        W39731  35.928  32.327   0.970
67417W        W39732  12.111  37.787   3.597
67418W        W39733  31.732  35.943   1.846
67419W        W39734  11.493  14.360  13.367
67420W        W39735   8.893  36.936  14.593
67421W        W39736  20.491  14.497  12.219
67422W        W39737   8.871  11.430  14.374
67423W        W39738  23.987  21.748   0.451
67424W        W39739  10.741  41.992  10.869
67425W        W39740  43.331   0.460  11.853
67426W        W39741  41.139   8.729   3.652
67427W        W39742  23.249  22.343   5.442
67428W        W39743  40.608  37.467   2.679
67429W        W39744  20.787  43.768  14.734
67430W        W39745   0.713   7.296  10.709
67431W        W39746  36.200  29.713   4.286
67432W        W39747  12.401  29.560  12.408
67433W        W39748  35.303  40.862   4.725
67434W        W39749   3.460  13.676  12.990
67435W        W39750   1.198  39.269   4.505
67436W        W39751   9.402  23.169   4.066
67437W        W39752  36.833   1.343  11.720
67438W        W39753  21.215  23.634  13.030
67439W        W39754  21.797  44.987  12.090
67440W        W39755  27.241  28.251   3.992
67441W        W39756   5.323  41.049  12.484
67442W        W39757  13.229  10.874   4.097
67443W        W39758  15.570  13.894  10.616
67444W        W39759  16.145  26.578  14.841
67445W        W39760   6.372   7.015   9.853
67446W        W39761  13.828   8.179   4.896
67447W        W39762  29.667   1.731   4.684
67448W        W39763  39.873  34.409   3.722
67449W        W39764  33.151   4.773   1.248
67450W        W39765   8.799  19.284  12.010
67451W        W39766  29.103  31.042   4.200
67452W        W39767  38.107  39.819  11.098
67453W        W39768  29.979  38.965   0.094
67454W        W39769  16.043  34.711   4.594
67455W        W39770  16.134  26.054   1.159
67456W        W39771   7.303   1.636   1.179
67457W        W39772  31.726  43.087  12.913
67458W        W39773  23.495  17.772   0.391
67459W        W39774   2.943   7.676   4.359
67460W        W39775  32.492  15.562  13.468
67461W        W39776  24.058  41.275   4.549
67462W        W39777  31.859  13.793   4.031
67463W        W39778  25.181  13.736   1.256
67464W        W39779  22.674  36.618   2.302
67465W        W39780   3.998   6.596  11.258
67466W        W39781  10.205  24.509  10.658
67467W        W39782  14.023  24.758  10.527
67468W        W39783  40.810  13.681   4.023
67469W        W39784   8.255  20.146  12.783
67470W        W39785   2.700  28.043   4.448
67471W        W39786  19.490  33.159   2.549
67472W        W39787  23.693  40.031   4.492
67473W        W39788   6.676  41.072   2.322
67474W        W39789  30.870  41.268   1.814
67475W        W39790   5.786  13.689  11.216
67476W        W39791  19.320  16.161   0.802
67477W        W39792  28.150  26.397  12.424
67478W        W39793  18.801   5.239  10.662
67479W        W39794  17.329  19.517  13.958
67480W        W39795  26.027  21.313  11.898
67481W        W39796  27.954   2.660   4.598
67482W        W39797  11.420  27.397  13.488
67483W        W39798  19.086  12.959  10.475
67484W        W39799  12.906  27.917   3.030
67485W        W39800  16.803  25.137   4.260
67486W        W39801  32.886  29.423   4.147
67487W        W39802   3.147  19.677  14.289
67488W        W39803   1.305  29.974  11.583
67489W        W39804  12.492  17.644   9.979
67490W        W39805   2.842  14.274   1.301
67491W        W39806  40.057   2.888  11.926
67492W        W39807  25.290  35.063  14.029
67493W        W39808  44.557  39.102  14.904
67494W        W39809  17.091  15.193   3.794
67495W        W39810  12.832  43.734   0.459
67496W        W39811   7.379  27.594   0.140
67497W        W39812  20.722   6.623  12.940
67498W        W39813   1.940  40.817   2.849
67499W        W39814  34.051   8.910   5.026
67500W        W39815  18.114  10.176  12.941
67501W        W39816  35.037  11.217  13.804
67502W        W39817  30.984  43.059   3.323
67503W        W39818  19.113  33.101  12.460
67504W        W39819  42.952  10.387   2.909
67505W        W39820  17.034  24.996  12.085
67506W        W39821  20.532   2.681  12.006
67507W        W39822   5.243  24.614  14.796
67508W        W39823  11.712  39.120  13.136
67509W        W39824  36.823  33.088   4.856
67510W        W39825  37.616  21.902   4.666
67511W        W39826  31.009  20.300   2.762
67512W        W39827  40.244  24.547   0.463
67513W        W39828  13.920  10.810   3.078
67514W        W39829  23.070  30.327   2.594
67515W        W39830  38.093  33.429  10.227
67516W        W39831   3.206  44.363   2.895
67517W        W39832  36.434  29.198   0.644
67518W        W39833  35.814  37.125  13.573
67519W        W39834   2.468  40.532   1.062
67520W        W39835  40.552  40.635   3.131
67521W        W39836  31.218  19.563  12.052
67522W        W39837   9.237  29.376  11.293
67523W        W39838  38.010   9.407  13.411
67524W        W39839  23.555   8.118   4.188
67525W        W39840   3.734  18.141   1.209
67526W        W39841  40.892   6.705   1.924
67527W        W39842  21.116  44.987  13.728
67528W        W39843  23.301  29.638  10.698
67529W        W39844  31.131  37.084  10.551
67530W        W39845  34.536  34.768  10.669
67531W        W39846  12.956   8.172  13.060
67532W        W39847  42.034  39.317  11.985
67533W        W39848  42.463  18.085   2.762
67534W        W39849  27.436  34.091  10.266
67535W        W39850  23.745  39.436   0.547
67536W        W39851  40.766   7.239   1.195
67537W        W39852  38.478   7.183  13.864
67538W        W39853  16.218  29.025   0.732
67539W        W39854  28.395  35.851  13.065
67540W        W39855  20.380  42.357  14.268
67541W        W39856   0.683  44.757  12.355
67542W        W39857  19.177  10.476  13.973
67543W        W39858  43.480  23.673   2.865
67544W        W39859  27.219  16.590   1.799
67545W        W39860   0.564   7.155  12.029
67546W        W39861  10.916  41.783  14.997
67547W        W39862  23.548  11.045   1.107
67548W        W39863   1.275  30.026  14.080
67549W        W39864   1.838   8.277  13.951
67550W        W39865  30.261  31.536  13.772
67551W        W39866  38.959   6.937  13.790
67552W        W39867  19.336  38.477   3.204
67553W        W39868   9.403  25.704   4.308
67554W        W39869  28.307  22.587   0.991
67555W        W39870  26.043  27.239   0.797
67556W        W39871  18.709  19.806   4.193
67557W        W39872  12.206  18.884  12.872
67558W        W39873  16.372  15.381   3.242
67559W        W39874  36.556  30.385  10.871
67560W        W39875  15.296  22.699  12.953
67561W        W39876  43.750   9.204   1.308
67562W        W39877   4.845   1.960  12.996
67563W        W39878  24.159   6.275   0.225
67564W        W39879  39.282  32.450   0.820
67565W        W39880  33.845   6.160  11.543
67566W        W39881  32.984  22.658   3.543
67567W        W39882  39.411  30.836   0.366
67568W        W39883  19.692  12.962  11.122
67569W        W39884  11.189  22.623  14.327
67570W        W39885  18.458   7.751  13.018
67571W        W39886   3.275   5.139   1.153
67572W        W39887  16.514  18.696  14.946
67573W        W39888  43.516  20.742   3.205
67574W        W39889  10.203  21.687   4.077
67575W        W39890  43.518  43.097  13.482
67576W        W39891  38.259  10.925   0.710
67577W        W39892  10.803  29.124  14.304
67578W        W39893  22.751  16.995  11.978
67579W        W39894  12.275  44.363  11.628
67580W        W39895  31.451  28.025  10.623
67581W        W39896  10.865  39.790   1.376
67582W        W39897  44.928  39.576   4.662
67583W        W39898  15.293   7.180  10.382
67584W        W39899  31.075  28.535   4.396
67585W        W39900  43.964  43.779   4.094
67586W        W39901   6.034  36.894   4.900
67587W        W39902  36.413  24.128   3.970
67588W        W39903  30.413  29.764   3.782
67589W        W39904  12.157   3.342  13.416
67590W        W39905   7.589  40.050  14.243
67591W        W39906  23.403  11.120   0.575
67592W        W39907  38.356  10.700   2.944
67593W        W39908  17.778   3.020   4.769
67594W        W39909  38.389   9.260  14.850
67595W        W39910  20.456  14.426  10.991
67596W        W39911  38.588   9.202   1.325
67597W        W39912  34.605  26.681   0.895
67598W        W39913  27.347   7.429  10.932
67599W        W39914  33.935  18.264  12.630
67600W        W39915  35.542  10.659  14.478
67601W        W39916  14.282  37.526  11.002
67602W        W39917  31.026  24.103   0.942
67603W        W39918   8.605   5.937  14.140
67604W        W39919  44.311  20.952   2.328
67605W        W39920  29.140  33.690   5.458
67606W        W39921  32.033  42.928  10.754
67607W        W39922   2.392  22.748   3.081
67608W        W39923  12.536  29.145   4.355
67609W        W39924   6.659  16.731  14.560
67610W        W39925  43.263   7.655  14.022
67611W        W39926  43.827   8.885   0.889
67612W        W39927  19.119  38.736  13.304
67613W        W39928  10.787  16.374   4.608
67614W        W39929  44.771  39.842  14.265
67615W        W39930  36.503  31.694  12.132
67616W        W39931  12.380  22.160   4.218
67617W        W39932  33.155  29.013   4.399
67618W        W39933  26.009  28.003   0.285
67619W        W39934  41.278  24.656   3.845
67620W        W39935   9.212  20.247   3.571
67621W        W39936  37.904  44.833  12.315
67622W        W39937  11.896  32.553  10.731
67623W        W39938  12.231   1.155   0.363
67624W        W39939  39.045  34.750   0.874
67625W        W39940  17.135  16.866   0.886
67626W        W39941  16.925  40.684   1.324
67627W        W39942   4.526  42.763   5.038
67628W        W39943   0.444  12.129  12.173
67629W        W39944  23.538  30.948   4.672
67630W        W39945  20.113  11.346  14.974
67631W        W39946  23.797  19.097  10.614
67632W        W39947   9.921  28.465  13.822
67633W        W39948  20.496  26.207   0.062
67634W        W39949  22.106  19.069  13.455
67635W        W39950  12.584  27.101   2.580
67636W        W39951  23.571  35.870  10.698
67637W        W39952  44.955  36.183  13.616
67638W        W39953  44.808  18.156  14.454
67639W        W39954  10.154  28.629  14.856
67640W        W39955  38.752  41.714   3.853
67641W        W39956   0.565  44.704   0.318
67642W        W39957   3.465  28.988  11.643
67643W        W39958   2.127  28.571  10.832
67644W        W39959  43.098  16.237  14.782
67645W        W39960  26.524  31.067  13.638
67646W        W39961   3.607  17.797   4.506
67647W        W39962  18.143   3.745  11.495
67648W        W39963  29.188  15.335   1.821
67649W        W39964  43.496  34.002   0.728
67650W        W39965   4.838   1.010  14.624
67651W        W39966  27.713   4.404  13.338
67652W        W39967  20.416  40.501   3.867
67653W        W39968  20.690   4.685  14.783
67654W        W39969  42.717  30.088   2.998
67655W        W39970  42.579  38.863   0.917
67656W        W39971  43.019  30.423  12.917
67657W        W39972   2.395  44.512  12.906
67658W        W39973  19.966  40.018  14.265
67659W        W39974  28.594  37.763  11.147
67660W        W39975  43.429  42.913  10.642
67661W        W39976  24.959  17.750   2.362
67662W        W39977  27.894  17.715  12.864
67663W        W39978  12.326  25.203  10.568
67664W        W39979  29.640  18.588  14.988
67665W        W39980  30.132  21.409  14.274
67666W        W39981  12.649  35.128  14.839
67667W        W39982  31.897  37.357   1.972
67668W        W39983  18.805  32.601  13.588
67669W        W39984   4.469  26.458   3.717
67670W        W39985  15.838  34.186  13.507
67671W        W39986   8.920  14.133  14.809
67672W        W39987  20.704  40.367   2.208
67673W        W39988  36.555  20.118   2.832
67674W        W39989  42.330   7.177   0.881
67675W        W39990   8.382  20.140  11.028
67676W        W39991   0.979  36.541  13.919
67677W        W39992   9.335  34.276  12.350
67678W        W39993  43.542   8.352  13.955
67679W        W39994  19.071   4.971  12.770
67680W        W39995  41.198  17.278   1.699
67681W        W39996   5.772   2.908   3.574
67682W        W39997  35.447  18.772  13.264
67683W        W39998   1.366  24.283  12.875
67684W        W39999  19.770  36.002   2.214
67685W        W40000  17.214  44.488   4.545
67686W        W40001  14.629  17.600  11.110
67687W        W40002  39.257   4.377   1.720
67688W        W40003  24.915   6.493   4.260
67689W        W40004  22.402  26.130  13.382
67690W        W40005  26.166  17.804   0.679
67691W        W40006   6.671   7.286  13.123
67692W        W40007  37.569   2.707  10.571
67693W        W40008  22.279  33.419   4.172
67694W        W40009  33.934  38.173  12.573
67695W        W40010   6.370   4.846   1.974
67696W        W40011   0.731  19.896   4.449
67697W        W40012  36.757  21.372  11.554
67698W        W40013  33.631  24.562  11.186
67699W        W40014  41.317  44.335   4.039
67700W        W40015  19.206   9.658   2.455
67701W        W40016  27.772  10.354  11.151
67702W        W40017  44.768  20.542   2.513
67703W        W40018   6.735  32.087  14.795
67704W        W40019  18.293   1.272   4.805
67705W        W40020  40.226  32.228   4.163
67706W        W40021  39.024  23.902  11.175
67707W        W40022  13.262  30.344  12.988
67708W        W40023  15.364  37.410  13.957
67709W        W40024  17.678   8.664  14.406
67710W        W40025  30.901  32.900  10.967
67711W        W40026  13.636  25.770   2.719
67712W        W40027   2.323  28.164   2.259
67713W        W40028   5.302  31.129  12.398
67714W        W40029  30.861   3.110   0.813
67715W        W40030  24.210  44.679   4.617
67716W        W40031  25.457  21.080  12.291
67717W        W40032   7.924  21.640  14.484
67718W        W40033  18.033  16.350   2.678
67719W        W40034  17.454  31.126  12.618
67720W        W40035  44.543   4.918  11.421
67721W        W40036  34.371  17.065   1.548
67722W        W40037  36.319   3.200  13.502
67723W        W40038  36.208  11.588  12.056
67724W        W40039   3.978  36.966  11.450
67725W        W40040   1.247   4.659  12.577
67726W        W40041   0.066  37.988  14.380
67727W        W40042  29.909   9.694  14.309
67728W        W40043  12.331  31.933  11.001
67729W        W40044  35.018  28.984   4.122
67730W        W40045   3.152  16.354   1.681
67731W        W40046   6.724  19.015  13.954
67732W        W40047  37.315  32.575   1.890
67733W        W40048   8.015  35.654   0.068
67734W        W40049  19.270  26.545   3.156
67735W        W40050  23.064  37.151  13.984
67736W        W40051  39.483  12.660  10.740
67737W        W40052  35.522  30.593  13.297
67738W        W40053  17.738  24.594   4.200
67739W        W40054   8.957  18.595   3.177
67740W        W40055  36.476  33.127   0.825
67741W        W40056   1.346  41.183  11.520
67742W        W40057   7.307  38.095  14.051
67743W        W40058  44.405  21.723  11.530
67744W        W40059  13.776   1.735   0.358
67745W        W40060   3.418  26.727   2.234
67746W        W40061  22.999  16.065   1.328
67747W        W40062   7.082  44.274   4.823
67748W        W40063  43.325  22.231  11.169
67749W        W40064  18.109  14.171   1.125
67750W        W40065  26.689  34.124  13.027
67751W        W40066  27.631  10.670   5.059
67752W        W40067  10.610  26.105  14.866
67753W        W40068  36.193  32.368  10.778
67754W        W40069  20.841   9.141   0.843
67755W        W40070   7.130  24.773  12.105
67756W        W40071  22.591  11.837  14.273
67757W        W40072  23.790  22.015  12.518
67758W        W40073  40.912  28.427   1.813
67759W        W40074   0.414   6.857  10.695
67760W        W40075   3.332  41.422   4.077
67761W        W40076  43.238  10.598   4.935
67762W        W40077   3.815   9.336  12.025
67763W        W40078  43.444   6.216   1.257
67764W        W40079  41.824  38.756  11.058
67765W        W40080  32.443   9.227  11.558
67766W        W40081  14.253  42.352  10.742
67767W        W40082  10.672   4.214  14.357
67768W        W40083  31.481  29.594   0.991
67769W        W40084  37.426  44.038   0.490
67770W        W40085  42.596   4.691  12.823
67771W        W40086  13.618  13.627  13.765
67772W        W40087  11.944  18.959   3.399
67773W        W40088  27.596   8.939  14.003
67774W        W40089  35.596  19.071  14.836
67775W        W40090  44.575  43.627   2.274
67776W        W40091  27.777   0.728   2.857
67777W        W40092  39.038   3.996   4.109
67778W        W40093  38.603  44.896   1.698
67779W        W40094  38.429  42.609   2.351
67780W        W40095  37.988  24.665  12.325
67781W        W40096  29.429  31.588   9.885
67782W        W40097   3.242   8.313  11.472
67783W        W40098  12.758   2.085  13.347
67784W        W40099  18.001  12.319  12.472
67785W        W40100  11.547  17.253  12.438
67786W        W40101  10.800  10.251   0.246
67787W        W40102  44.649  22.305   2.227
67788W        W40103  24.257  40.897  14.910
67789W        W40104  35.864  14.749   2.419
67790W        W40105  33.836   9.128  11.111
67791W        W40106  42.261   7.239  11.828
67792W        W40107  40.375   1.734  10.651
67793W        W40108  34.451  28.599  12.457
67794W        W40109  30.408  32.484   1.436
67795W        W40110  17.270   2.425   1.406
67796W        W40111  36.174  20.249  11.267
67797W        W40112  11.252  36.865   4.083
67798W        W40113  26.994   2.800  13.497
67799W        W40114  33.930  31.836  14.972
67800W        W40115  23.274  19.207  10.597
67801W        W40116  21.645  10.288   0.313
67802W        W40117   3.331  18.125  14.352
67803W        W40118  40.410   5.785   3.256
67804W        W40119  19.199  42.278   0.342
67805W        W40120   1.847  36.425  12.382
67806W        W40121   4.610  13.820   0.881
67807W        W40122   8.499   2.888   3.233
67808W        W40123  15.783  11.942  10.123
67809W        W40124  22.591  24.016  14.455
67810W        W40125  10.314  32.515   2.860
67811W        W40126  23.061  33.415  13.720
67812W        W40127  33.822   4.862   2.269
67813W        W40128  41.354   2.038   1.234
67814W        W40129   2.745  23.864  14.254
67815W        W40130   1.561   0.864  11.599
67816W        W40131  24.721   5.235  14.470
67817W        W40132  11.639   3.480   1.816
67818W        W40133   8.306   9.389   3.887
67819W        W40134  37.722  44.101   4.274
67820W        W40135  10.351  37.169   4.090
67821W        W40136   6.272  14.357   2.247
67822W        W40137  34.436  31.346  13.339
67823W        W40138   7.084   2.248   2.758
67824W        W40139  37.359  23.849   5.157
67825W        W40140  17.156  29.296  11.238
67826W        W40141  37.639  28.069   3.741
67827W        W40142   3.949  16.524  10.987
67828W        W40143   9.694   2.933   2.086
67829W        W40144  27.194  15.263   2.377
67830W        W40145  44.571  37.981  14.530
67831W        W40146   5.237  39.520  13.294
67832W        W40147  11.893  40.767   2.257
67833W        W40148  35.551  22.586  10.424
67834W        W40149  19.121  14.913  12.402
67835W        W40150   5.076  36.966   0.842
67836W        W40151   8.667  10.605  12.888
67837W        W40152  27.659   5.865   5.608
67838W        W40153  15.082  41.464   3.316
67839W        W40154  16.968  23.580   3.793
67840W        W40155  32.565  27.941   1.826
67841W        W40156  43.318  14.065   3.779
67842W        W40157  18.225  19.775  13.352
67843W        W40158  21.538  21.739  11.858
67844W        W40159   4.414   2.056   0.435
67845W        W40160  31.847  32.028  12.404
67846W        W40161  11.789  10.742  14.123
67847W        W40162  44.058  11.164  12.878
67848W        W40163  16.357  10.623  12.961
67849W        W40164   2.809  44.046   2.802
67850W        W40165  15.022  42.780   3.697
67851W        W40166   4.289   6.159  14.236
67852W        W40167  17.894  41.045  11.137
67853W        W40168  44.020  15.821   1.345
67854W        W40169  22.086   3.396   2.235
67855W        W40170  34.000  14.215  12.670
67856W        W40171  36.520  12.528  14.408
67857W        W40172   5.624  12.899  14.941
67858W        W40173  14.807  31.591  11.143
67859W        W40174  35.429  42.097   0.436
67860W        W40175   9.818  22.022  11.614
67861W        W40176  23.153   5.787  12.575
67862W        W40177   4.192  32.997   2.621
67863W        W40178  29.330  27.367  12.857
67864W        W40179  18.881  42.290  10.744
67865W        W40180  36.829  31.048  13.426
67866W        W40181   7.270  26.721  13.057
67867W        W40182  10.626  19.021  13.834
67868W        W40183   1.032  38.566   4.090
67869W        W40184  16.355  11.546  12.584
67870W        W40185  17.460  14.344   4.877
67871W        W40186  30.904  19.126  12.879
67872W        W40187   2.231   7.145  10.296
67873W        W40188  38.080  36.358   3.211
67874W        W40189  26.178  44.184   1.705
67875W        W40190  42.567  42.806  11.798
67876W        W40191  40.012   0.949  11.668
67877W        W40192  34.336  11.770   3.839
67878W        W40193  29.418  23.431   2.771
67879W        W40194  44.895  42.487   3.771
67880W        W40195  29.427  37.548  14.997
67881W        W40196  24.010  20.114  14.223
67882W        W40197   4.838  34.664   4.602
67883W        W40198  39.002   7.866  12.022
67884W        W40199  19.265  20.215   1.019
67885W        W40200  40.664   6.380   1.063
67886W        W40201   6.666  31.342  12.525
67887W        W40202   4.901  37.526  12.109
67888W        W40203  43.230  28.132   0.790
67889W        W40204   6.281  27.237  13.780
67890W        W40205  16.260  18.160  10.690
67891W        W40206  21.302  42.339  13.605
67892W        W40207  28.507   1.245  10.537
67893W        W40208  18.724   6.174   4.201
67894W        W40209  38.093  33.647   0.542
67895W        W40210  27.432  18.133  11.133
67896W        W40211   6.288  24.966  11.647
67897W        W40212  40.145  27.150  11.054
67898W        W40213  30.535  39.353   1.784
67899W        W40214  25.888  31.486  14.968
67900W        W40215  39.939  20.205   1.655
67901W        W40216  44.206   9.860  12.958
67902W        W40217  34.326  17.573   1.729
67903W        W40218  33.887  38.144   2.269
67904W        W40219  18.134  20.463   1.272
67905W        W40220  16.844  15.632  14.248
67906W        W40221  19.856  39.437  11.516
67907W        W40222  11.860  19.243  10.493
67908W        W40223  22.670  18.693  14.454
67909W        W40224  18.357   8.745   9.627
67910W        W40225  16.656  33.446   1.714
67911W        W40226  12.335   8.764  13.424
67912W        W40227  42.877  14.301   0.669
67913W        W40228  23.108  15.641   3.008
67914W        W40229  40.390  20.653   0.449
67915W        W40230   6.307  31.577  10.807
67916W        W40231  35.238  17.227   2.071
67917W        W40232  37.861  33.443  10.717
67918W        W40233  20.061  34.861   4.173
67919W        W40234   8.791  41.908  13.112
67920W        W40235  32.575  21.607  12.896
67921W        W40236  31.999  38.739  14.840
67922W        W40237  18.488  39.415   2.856
67923W        W40238  38.580   9.667  12.522
67924W        W40239  34.476  38.041  12.596
67925W        W40240  19.077  31.261   4.128
67926W        W40241  23.080  33.416  11.005
67927W        W40242   3.891  31.223   2.732
67928W        W40243  28.048  17.040   2.281
67929W        W40244  42.973  31.196   4.236
67930W        W40245  26.160   1.916  10.735
67931W        W40246  36.676  10.249   3.910
67932W        W40247   6.431  22.763   1.748
67933W        W40248   5.865   1.207  13.432
67934W        W40249  17.386   1.419  10.926
67935W        W40250  25.713  20.196  11.491
67936W        W40251  43.818   8.376  13.229
67937W        W40252  30.706  14.812   1.326
67938W        W40253  38.526  41.022  10.664
67939W        W40254   1.324   3.949   2.694
67940W        W40255  37.533  10.467  13.430
67941W        W40256   9.704  35.365  13.055
67942W        W40257   6.249  25.193  13.953
67943W        W40258  20.553  23.342   2.833
67944W        W40259  37.077  23.523   4.512
67945W        W40260  16.654   6.026  12.979
67946W        W40261  15.236   0.754  12.963
67947W        W40262  13.040  11.297  12.391
67948W        W40263  20.751   6.210   1.818
67949W        W40264  25.716   8.109   1.441
67950W        W40265  35.623  31.396   3.039
67951W        W40266   5.596  42.777  14.731
67952W        W40267  14.065   4.525   0.364
67953W        W40268  22.568  44.784   2.878
67954W        W40269  35.032  15.107   1.526
67955W        W40270  17.076   6.292   2.833
67956W        W40271   5.624  14.626  11.591
67957W        W40272  43.595  16.198  14.789
67958W        W40273  26.456  18.664  11.858
67959W        W40274  20.380  39.276  11.558
67960W        W40275   5.253   0.300   3.183
67961W        W40276  42.764   9.473   2.602
67962W        W40277  22.186  12.450  14.496
67963W        W40278  26.481  27.294  13.018
67964W        W40279  22.177  21.739  11.121
67965W        W40280  35.284  12.751  12.564
67966W        W40281   3.904  38.325  11.567
67967W        W40282  34.936  40.293   1.428
67968W        W40283  43.582  17.019   2.180
67969W        W40284  24.020  23.419   3.883
67970W        W40285   8.363   0.996   4.633
67971W        W40286   0.060  12.737   2.273
67972W        W40287  28.376  14.640   2.849
67973W        W40288  36.923  32.496  12.595
67974W        W40289  36.458  21.267  11.954
67975W        W40290  26.445  12.350  11.072
67976W        W40291  33.543  34.593  13.391
67977W        W40292  17.768  41.384   9.815
67978W        W40293  13.704   4.369   4.059
67979W        W40294  39.262  38.497  10.656
67980W        W40295  19.025  25.534  11.465
67981W        W40296   8.768  41.458   4.796
67982W        W40297  42.461  34.130   4.409
67983W        W40298  22.631  29.178   3.132
67984W        W40299  38.080  21.731   4.559
67985W        W40300  43.750  29.731   3.929
67986W        W40301  40.289  43.136   1.166
67987W        W40302   7.865  27.205  10.529
67988W        W40303  35.509   9.159   3.457
67989W        W40304  12.871  11.328   3.683
67990W        W40305  21.741  43.821   4.172
67991W        W40306  44.925   2.305  13.297
67992W        W40307  30.088  17.837  10.562
67993W        W40308   3.288  36.412   4.984
67994W        W40309  12.351  21.342  14.030
67995W        W40310  12.280   9.219  11.063
67996W        W40311  39.426   6.440  14.360
67997W        W40312  22.454  30.539   1.137
67998W        W40313  43.041  17.284   1.356
67999W        W40314  11.904   0.748   0.939
68000W        W40315  37.891  22.571   0.276
68001W        W40316  44.933  21.204  11.903
68002W        W40317  25.461  24.140   3.597
68003W        W40318   5.681  34.575  10.830
68004W        W40319  31.406  24.239  11.211
68005W        W40320  41.186  31.954  11.956
68006W        W40321   0.759  28.804  13.931
68007W        W40322  31.420  40.907   2.371
68008W        W40323   1.462  44.976  13.083
68009W        W40324  44.953  37.710   5.002
68010W        W40325  28.904  31.935  12.039
68011W        W40326  27.578  41.939   3.578
68012W        W40327   9.212  37.741   3.684
68013W        W40328  27.860  11.552   3.684
68014W        W40329  38.338   6.520  12.198
68015W        W40330   1.835   9.337   1.972
68016W        W40331  44.264  12.610   2.799
68017W        W40332  15.231  10.894  11.453
68018W        W40333  27.881  27.031   1.390
68019W        W40334  18.432  35.972   0.339
68020W        W40335  22.517  40.368   0.239
68021W        W40336   3.752  13.540  12.478
68022W        W40337  40.780  23.790   3.676
68023W        W40338  28.697   7.209  13.505
68024W        W40339  38.893   3.007   4.387
68025W        W40340  24.181   4.325  11.202
68026W        W40341  18.756  12.326   4.673
68027W        W40342  28.542  41.307  10.966
68028W        W40343  14.839  14.369  13.523
68029W        W40344  41.399  24.354   3.234
68030W        W40345  11.088  30.453   0.420
68031W        W40346  31.681  32.485  14.933
68032W        W40347   0.445  11.658  14.461
68033W        W40348   8.380   8.068   2.478
68034W        W40349  44.965  20.319  10.735
68035W        W40350   6.377  37.579  12.094
68036W        W40351  25.033  16.496   1.317
68037W        W40352  17.172   2.321   4.585
68038W        W40353  37.558  25.489   1.702
68039W        W40354   3.135  35.551   0.703
68040W        W40355  17.331  18.189   2.845
68041W        W40356  11.225  36.864   4.602
68042W        W40357  15.282  42.599  10.644
68043W        W40358  17.401  21.069   2.697
68044W        W40359  42.507  20.976  13.482
68045W        W40360  26.551  39.905  10.676
68046W        W40361  39.876  18.696   0.290
68047W        W40362  21.632  33.464   2.749
68048W        W40363   1.818   5.422   4.397
68049W        W40364  17.047  18.814  12.608
68050W        W40365   1.335  21.457   1.359
68051W        W40366  15.507  33.173  13.235
68052W        W40367  34.122  13.207   3.610
68053W        W40368  19.286  37.365  14.805
68054W        W40369  26.511  11.222  14.411
68055W        W40370  43.970  36.025  13.296
68056W        W40371   7.944  19.430  11.627
68057W        W40372  22.086   6.934  10.981
68058W        W40373   7.540  23.006  11.603
68059W        W40374  41.296  11.111   0.300
68060W        W40375  18.238   8.663   0.460
68061W        W40376  14.607  24.266  11.506
68062W        W40377  30.885   7.358  14.815
68063W        W40378  42.725  39.335  13.307
68064W        W40379  25.247  31.752  10.732
68065W        W40380  23.166  20.633   1.795
68066W        W40381   7.772  21.041   0.479
68067W        W40382   8.594  11.457   1.392
68068W        W40383   8.187  11.195  11.196
68069W        W40384  16.831  33.101   3.134
68070W        W40385  34.921   1.362  11.454
68071W        W40386  16.483  31.636  13.859
68072W        W40387  23.658  33.024  10.378
68073W        W40388  36.872  24.600  12.735
68074W        W40389  36.519  36.186   1.087
68075W        W40390  42.528  13.085   2.825
68076W        W40391  29.006  32.499  12.274
68077W        W40392  18.131  25.684  11.996
68078W        W40393   8.323  24.576  10.800
68079W        W40394  42.428  42.619   3.198
68080W        W40395   5.869   3.910   2.217
68081W        W40396  23.544  34.076  12.855
68082W        W40397  35.884  36.620  13.526
68083W        W40398   5.329  34.428   5.083
68084W        W40399  17.804   5.902  13.098
68085W        W40400  43.961  18.105  10.586
68086W        W40401  12.107  43.347   4.669
68087W        W40402   0.079  28.089  11.609
68088W        W40403   8.467  17.532   2.292
68089W        W40404  43.797  20.793   1.307
68090W        W40405  39.544  28.210   3.632
68091W        W40406  42.484  29.731  14.943
68092W        W40407  13.161  16.087  12.581
68093W        W40408  42.428   6.928  11.399
68094W        W40409  24.714  34.114   4.568
68095W        W40410  22.895  15.198  12.711
68096W        W40411  31.924  35.302  14.959
68097W        W40412  18.417   6.952  14.548
68098W        W40413  42.470  13.086   3.880
68099W        W40414   1.216   7.696   2.097
68100W        W40415   7.010   3.039   4.080
68101W        W40416  13.244  28.102   1.277
68102W        W40417  43.062  31.840   2.843
68103W        W40418  29.826  14.445   5.089
68104W        W40419  40.581  17.817  14.938
68105W        W40420  18.071  24.205   3.183
68106W        W40421  36.634   5.782  13.466
68107W        W40422   4.452   3.670   2.719
68108W        W40423  39.415  29.873  12.528
68109W        W40424  38.564  39.440   1.335
68110W        W40425   6.836  42.884   4.111
68111W        W40426  37.016  31.796  13.972
68112W        W40427  28.069  18.964  11.134
68113W        W40428  13.116  38.067   3.193
68114W        W40429  16.506  43.039  14.084
68115W        W40430  32.688  39.213   2.696
68116W        W40431  32.366  35.357   2.748
68117W        W40432  26.142  19.246   2.691
68118W        W40433  10.172  31.112   1.923
68119W        W40434  44.466  32.380  11.569
68120W        W40435  41.352   8.905  11.501
68121W        W40436  29.701   4.898   4.619
68122W        W40437   5.867  24.863  13.944
68123W        W40438  38.303   9.583   2.571
68124W        W40439  21.989  35.525  12.950
68125W        W40440   4.867  13.105   1.743
68126W        W40441   5.723   5.135   2.777
68127W        W40442  36.195  16.485   0.866
68128W        W40443   5.816   1.961   1.835
68129W        W40444   8.761  22.579   5.005
68130W        W40445   6.851  30.530   4.912
68131W        W40446  10.777  31.058   0.945
68132W        W40447   2.162  17.839   4.499
68133W        W40448  14.302  43.259  10.671
68134W        W40449  26.981  28.981   2.430
68135W        W40450   3.630  20.980   3.257
68136W        W40451  25.710  13.080  10.740
68137W        W40452   1.465   7.206  10.964
68138W        W40453  34.564   3.499  11.284
68139W        W40454  36.620  39.613  11.039
68140W        W40455  27.400  41.357  13.986
68141W        W40456   0.470  37.363  14.001
68142W        W40457   7.878  20.453  13.344
68143W        W40458  17.065  19.136   3.091
68144W        W40459  12.605  19.833  13.006
68145W        W40460   5.765  23.281   4.659
68146W        W40461  34.764  13.804   2.722
68147W        W40462  36.434  14.271   2.941
68148W        W40463  15.264  14.489   1.754
68149W        W40464  10.289   2.581  13.060
68150W        W40465   7.364  38.343   4.164
68151W        W40466  42.776   0.935   4.924
68152W        W40467  39.143  43.486   3.836
68153W        W40468  21.569   7.097  10.989
68154W        W40469  35.194  39.584   2.381
68155W        W40470   5.115   6.151   0.280
68156W        W40471  38.446  40.303   2.826
68157W        W40472  44.336  15.182   3.187
68158W        W40473  27.108  17.176  14.600
68159W        W40474  19.662  41.801  13.246
68160W        W40475  24.111  33.076   4.576
68161W        W40476  44.750  22.574  13.791
68162W        W40477  19.017   5.061   1.376
68163W        W40478   7.138   7.440   4.881
68164W        W40479  38.448  42.266  11.992
68165W        W40480  19.195  37.723   4.259
68166W        W40481   1.711  18.670  12.044
68167W        W40482   1.737  23.163   4.355
68168W        W40483  30.611  39.626   1.350
68169W        W40484   0.588  33.454   5.748
68170W        W40485  32.785  20.972   5.306
68171W        W40486   4.129   1.359   2.290
68172W        W40487  40.320   9.694  11.561
68173W        W40488  43.166  15.319   4.148
68174W        W40489  35.375  25.882   3.669
68175W        W40490   2.982  20.725  11.815
68176W        W40491  35.539   4.790   2.307
68177W        W40492   9.853  37.787   4.358
68178W        W40493  27.570  31.476   5.517
68179W        W40494  19.527   5.079  11.503
68180W        W40495  13.486  34.955   2.684
68181W        W40496  33.502  39.400   3.331
68182W        W40497  39.798  24.689   1.405
68183W        W40498  17.166  31.036   4.106
68184W        W40499  42.924  21.126   9.876
68185W        W40500  42.748   8.238  11.044
68186W        W40501  39.601  21.192   2.209
68187W        W40502   4.250  30.130  12.622
68188W        W40503  22.713   9.657  14.867
68189W        W40504  13.975  16.004   1.835
68190W        W40505  26.231  44.539  14.826
68191W        W40506  11.218  30.860  12.465
68192W        W40507  40.579  11.289  11.450
68193W        W40508  17.338  17.837   0.638
68194W        W40509  44.473  18.007   2.706
68195W        W40510  22.030  43.883   2.446
68196W        W40511   0.836  31.892   3.346
68197W        W40512   6.101   0.166  11.612
68198W        W40513  10.636  34.113   4.564
68199W        W40514  41.949   7.417   2.317
68200W        W40515  17.606  18.190   2.402
68201W        W40516  44.515   6.691  10.708
68202W        W40517  44.328  25.690  14.861
68203W        W40518  10.849  33.355  14.797
68204W        W40519   3.292   8.427  12.541
68205W        W40520  36.393  43.495   3.169
68206W        W40521  23.041  38.298   0.365
68207W        W40522   5.756  14.245   2.341
68208W        W40523   6.833  12.366   2.865
68209W        W40524  44.685  10.622   1.776
68210W        W40525  22.256  17.666   2.838
68211W        W40526  40.801   8.881   9.975
68212W        W40527   5.658  36.891   1.283
68213W        W40528  42.764  10.187  12.387
68214W        W40529  17.347  10.373  11.209
68215W        W40530   1.752  25.495  10.660
68216W        W40531  40.980   1.963  11.884
68217W        W40532   6.436  11.039   1.475
68218W        W40533  12.331  33.263  12.045
68219W        W40534   6.121  28.501   3.652
68220W        W40535  37.416   2.420  10.984
68221W        W40536  13.806  23.209  13.357
68222W        W40537  15.605  31.077   3.180
68223W        W40538  30.543  20.834  14.355
68224W        W40539   3.746  23.771  14.963
68225W        W40540  28.596  36.311  13.055
68226W        W40541  34.313  30.864   1.363
68227W        W40542   0.685  39.587  14.543
68228W        W40543  14.558  21.230   1.746
68229W        W40544  35.985  13.377   2.273
68230W        W40545  38.791   4.459   1.437
68231W        W40546  21.243  40.595  14.551
68232W        W40547  27.772  40.963   3.143
68233W        W40548   4.809  28.164  10.159
68234W        W40549   5.124  16.068  13.141
68235W        W40550  30.148  28.458   0.960
68236W        W40551  34.178  18.129  13.616
68237W        W40552  24.864  19.292   0.560
68238W        W40553  11.234  14.256   4.291
68239W        W40554  23.804  19.057   0.810
68240W        W40555   3.836  27.918   4.574
68241W        W40556  34.068  16.078  11.633
68242W        W40557   1.007  11.702   0.431
68243W        W40558  15.271   1.736  13.488
68244W        W40559  41.277   5.862   3.352
68245W        W40560  41.277  10.290   1.315
68246W        W40561  20.286  33.487   2.520
68247W        W40562  41.057  36.002  11.090
68248W        W40563   1.277  13.783  13.203
68249W        W40564  17.256  31.433  14.982
68250W        W40565   6.646  31.096  12.011
68251W        W40566   5.610  27.066   1.696
68252W        W40567  21.791  15.663   2.289
68253W        W40568  41.257  12.500  14.379
68254W        W40569  21.289  28.052   1.865
68255W        W40570   9.820   0.836   4.550
68256W        W40571   9.810  32.386  10.437
68257W        W40572  10.283  19.452  12.852
68258W        W40573  19.173   6.603   0.440
68259W        W40574  12.196  10.578   3.740
68260W        W40575  13.053  39.545  14.014
68261W        W40576  15.550  27.128  11.263
68262W        W40577  23.678  43.443   3.241
68263W        W40578  11.559  21.636   9.978
68264W        W40579  43.004   5.121  11.547
68265W        W40580   2.278  24.489  11.508
68266W        W40581  22.768  36.679   1.297
68267W        W40582  31.773  37.086   3.304
68268W        W40583  10.663  37.482  10.706
68269W        W40584  35.009  43.830  12.002
68270W        W40585  34.317  30.528  11.381
68271W        W40586  42.425  41.448  14.271
68272W        W40587  36.838  20.130  13.673
68273W        W40588   8.308  33.625  12.497
68274W        W40589   3.836   8.265  14.832
68275W        W40590  44.169  31.619   2.253
68276W        W40591  13.200  31.610  14.803
68277W        W40592   9.198   5.856   3.169
68278W        W40593  16.783  43.545  11.526
68279W        W40594  22.836  19.182  14.391
68280W        W40595  41.526  12.993  12.517
68281W        W40596   7.361  33.610   2.757
68282W        W40597  11.657   6.796   0.360
68283W        W40598   1.273  17.729  14.802
68284W        W40599  28.525  38.187  14.168
68285W        W40600   0.544  32.662  11.191
68286W        W40601   6.512  27.093  12.895
68287W        W40602  29.085  32.706  10.986
68288W        W40603  17.657  40.068  10.314
68289W        W40604  19.295   0.998  13.318
68290W        W40605  13.776  10.120  12.490
68291W        W40606  19.219  24.612   0.787
68292W        W40607  44.740  25.164   2.653
68293W        W40608  32.426  12.207   4.393
68294W        W40609  42.193   4.317  10.770
68295W        W40610  33.014  42.835  13.528
68296W        W40611   4.737   8.901  13.779
68297W        W40612  29.848   5.137  12.493
68298W        W40613   6.676  24.656  13.351
68299W        W40614   8.214   5.744   0.026
68300W        W40615  41.469   7.292   1.338
68301W        W40616  13.723  22.268   2.806
68302W        W40617  26.593  21.355   3.722
68303W        W40618   2.877  39.895  13.391
68304W        W40619  32.949  13.684   1.981
68305W        W40620  23.521  12.717   4.481
68306W        W40621  12.626  41.895  13.645
68307W        W40622  17.843  10.291   4.688
68308W        W40623   3.007  43.346   5.027
68309W        W40624  31.101  26.756  13.513
68310W        W40625   3.754  32.424   3.243
68311W        W40626  15.286   4.237  10.672
68312W        W40627  44.730  22.657   3.800
68313W        W40628  10.666  13.147  12.382
68314W        W40629   2.350  13.860  14.823
68315W        W40630  23.746  15.319  11.152
68316W        W40631  14.516  12.587  11.053
68317W        W40632  23.080  13.170  13.789
68318W        W40633  27.509  25.353  13.041
68319W        W40634  43.843   9.181   0.385
68320W        W40635  41.946   1.721  12.528
68321W        W40636  35.040  10.355   3.857
68322W        W40637   2.329  27.427  14.034
68323W        W40638  27.601  19.088   4.579
68324W        W40639  27.699  12.269  11.558
68325W        W40640   8.150   4.299   3.350
68326W        W40641  29.629  26.761   1.782
68327W        W40642  37.185  26.761  11.947
68328W        W40643  24.424  16.216  12.534
68329W        W40644  38.374  16.682  10.626
68330W        W40645  30.617  27.163  10.562
68331W        W40646  36.436   8.848  12.942
68332W        W40647  39.873  39.967  12.242
68333W        W40648   8.835  13.853   0.441
68334W        W40649  17.818  42.295  10.698
68335W        W40650  33.362  11.695  11.993
68336W        W40651   6.244  18.962   0.620
68337W        W40652  22.682   7.452  12.090
68338W        W40653  16.706  37.089  14.859
68339W        W40654  37.783  40.740  11.160
68340W        W40655  31.518   5.764  14.577
68341W        W40656  39.998  32.646   4.390
68342W        W40657  24.065  40.610  10.638
68343W        W40658  31.038  14.624  11.947
68344W        W40659  11.776  10.282  12.096
68345W        W40660  31.578   9.044   0.851
68346W        W40661  27.674  11.201  14.236
68347W        W40662   0.007   6.737   2.787
68348W        W40663  26.599   0.251  10.746
68349W        W40664  35.530  20.831  10.399
68350W        W40665  21.701  26.547   0.218
68351W        W40666   5.296  43.747  13.559
68352W        W40667   0.765  18.725   1.775
68353W        W40668  39.523  15.746   1.150
68354W        W40669  31.598  10.039  10.156
68355W        W40670  14.930  32.481   2.430
68356W        W40671  27.464  16.697  11.402
68357W        W40672  33.780  14.903  11.199
68358W        W40673  17.336   3.159   1.821
68359W        W40674  10.539  38.790  12.021
68360W        W40675  10.263   3.664   2.829
68361W        W40676  10.147  17.952  14.316
68362W        W40677  27.593  34.927  10.676
68363W        W40678  14.207  25.692   2.117
68364W        W40679   3.343  39.280  14.997
68365W        W40680  17.623  18.268   0.913
68366W        W40681  35.072  27.700  11.661
68367W        W40682  21.030   4.466  14.405
68368W        W40683  23.534  12.737  12.107
68369W        W40684  14.853  37.527  13.405
68370W        W40685  40.267  24.646  11.507
68371W        W40686  38.172   6.367   4.486
68372W        W40687  19.347   6.752   2.664
68373W        W40688  25.012   8.376  13.261
68374W        W40689  27.091   4.527   4.601
68375W        W40690   3.215  11.040  12.539
68376W        W40691   4.739  21.633  14.171
68377W        W40692  30.140  30.956  12.560
68378W        W40693   9.939  32.090   2.246
68379W        W40694  37.760  19.346   1.213
68380W        W40695  34.028  35.904   2.072
68381W        W40696  14.028  18.096  10.644
68382W        W40697   9.713  13.563   3.411
68383W        W40698  15.339  34.901   4.113
68384W        W40699  43.718  16.602  12.819
68385W        W40700  17.283  24.267   0.837
68386W        W40701  13.506  37.774   3.375
68387W        W40702  26.179  37.408   2.891
68388W        W40703  14.342  14.614  14.350
68389W        W40704  35.553  30.150  13.853
68390W        W40705  41.494  40.925   0.730
68391W        W40706   3.924  37.664   0.031
68392W        W40707  41.059  24.148  13.759
68393W        W40708  12.204  15.825  12.118
68394W        W40709  27.392  21.645  11.952
68395W        W40710  17.594  41.839  11.570
68396W        W40711  27.063   1.545  14.372
68397W        W40712  32.045  31.484   2.802
68398W        W40713   0.789  24.249   1.981
68399W        W40714   3.394  37.326   0.690
68400W        W40715  15.657  37.619   4.532
68401W        W40716  28.479   3.213   4.045
68402W        W40717  38.908  19.639  11.476
68403W        W40718  40.964   4.355   0.813
68404W        W40719  42.432  15.748  14.725
68405W        W40720  29.375  11.081  14.842
68406W        W40721  34.432  32.890   0.264
68407W        W40722  36.574  29.982  13.803
68408W        W40723  10.575  29.578   4.478
68409W        W40724   0.898  23.678  13.927
68410W        W40725   2.727   2.716   2.672
68411W        W40726   6.752  40.840   4.055
68412W        W40727  26.624  43.203   2.781
68413W        W40728  15.209   2.427   4.399
68414W        W40729  23.224  25.608  10.648
68415W        W40730  37.371   2.105   4.583
68416W        W40731  10.633  34.762  11.053
68417W        W40732  26.209  28.523  13.802
68418W        W40733  14.765  13.541   2.381
68419W        W40734  31.922  15.630   4.167
68420W        W40735   6.295  21.939   0.935
68421W        W40736   0.860   0.825   1.989
68422W        W40737  11.052  28.258  12.749
68423W        W40738  25.689  41.361   3.122
68424W        W40739  26.134  37.897  12.517
68425W        W40740  11.288  10.872  11.494
68426W        W40741  43.752  40.012   0.008
68427W        W40742   0.998  14.881   3.389
68428W        W40743   4.843   2.468   2.548
68429W        W40744  12.288  36.053   3.593
68430W        W40745   0.463   8.442  14.548
68431W        W40746  40.974  29.475   3.200
68432W        W40747   7.806   7.809   3.842
68433W        W40748   6.314   0.926   4.294
68434W        W40749  28.956  35.898   2.841
68435W        W40750  36.397   2.901  11.086
68436W        W40751   1.722  20.482   1.512
68437W        W40752   0.022  21.068  14.179
68438W        W40753  10.143   3.035  13.969
68439W        W40754  42.381  10.420  13.566
68440W        W40755   8.420  19.585  13.386
68441W        W40756  44.731  30.936   2.768
68442W        W40757  24.494  21.850  12.976
68443W        W40758  19.481  26.066   3.103
68444W        W40759  22.676  35.158   1.391
68445W        W40760   8.591  31.502  10.764
68446W        W40761  40.279   9.114   1.660
68447W        W40762  36.994  44.265   1.272
68448W        W40763   6.213  23.587   1.003
68449W        W40764  34.148  10.685  13.494
68450W        W40765  24.670  38.355  14.481
68451W        W40766  38.915  41.551  14.465
68452W        W40767  13.022  41.794  10.623
68453W        W40768  32.257  23.007   2.591
68454W        W40769  40.004  36.026   0.760
68455W        W40770  33.930  16.895  14.012
68456W        W40771   8.752   2.130   2.695
68457W        W40772  31.553  41.284   0.874
68458W        W40773  44.378  24.494   3.623
68459W        W40774  11.190  18.362  11.920
68460W        W40775  37.783  23.815   1.200
68461W        W40776  17.845  22.143  11.115
68462W        W40777   1.757   2.047  14.724
68463W        W40778  32.624   0.968   1.449
68464W        W40779  34.063  10.706  12.587
68465W        W40780  40.534  22.698  12.011
68466W        W40781  33.134  10.438  10.565
68467W        W40782  29.595  12.451  13.798
68468W        W40783  14.099  44.013  10.524
68469W        W40784  31.495   4.162  13.016
68470W        W40785  27.155  30.960   0.395
68471W        W40786  39.675  27.700  11.612
68472W        W40787  29.236  10.397  14.465
68473W        W40788  40.161   7.522  11.879
68474W        W40789  42.612   7.131   0.396
68475W        W40790  28.053  18.594  14.760
68476W        W40791   5.449  30.209   2.824
68477W        W40792  37.178  37.407  14.774
68478W        W40793  18.108  21.262   0.794
68479W        W40794  27.889  41.259  13.410
68480W        W40795  16.267  23.722  14.958
68481W        W40796  41.444  39.019  12.023
68482W        W40797   2.134   8.345  14.386
68483W        W40798  26.754   3.811  10.628
68484W        W40799  35.996   2.505   4.147
68485W        W40800   7.305  14.108   4.681
68486W        W40801  13.225  25.438   0.248
68487W        W40802  25.776  27.663  13.555
68488W        W40803  27.569  43.871  14.835
68489W        W40804  10.400  40.345   3.309
68490W        W40805  27.749   8.822   4.610
68491W        W40806  37.104   8.769   2.828
68492W        W40807  36.300  24.026   0.342
68493W        W40808  34.771  18.897  12.098
68494W        W40809  29.973   1.405  14.071
68495W        W40810   7.145   3.659  13.387
68496W        W40811  36.878  28.960   1.400
68497W        W40812  21.187  15.223   0.274
68498W        W40813  34.599  43.896  12.326
68499W        W40814  43.477  20.454  10.925
68500W        W40815   8.850  40.913   2.332
68501W        W40816  37.581  36.044  11.131
68502W        W40817   1.927  25.579   0.261
68503W        W40818  31.906  24.524   2.814
68504W        W40819   6.843  11.709  11.161
68505W        W40820  37.578  41.047   3.581
68506W        W40821  30.527   6.464   1.822
68507W        W40822  28.860   1.974  11.135
68508W        W40823  11.777  30.105   0.490
68509W        W40824  10.885  28.913  10.517
68510W        W40825   3.191  37.547   2.196
68511W        W40826  36.394  43.240  13.401
68512W        W40827  29.934   2.772   4.325
68513W        W40828   6.563   1.774  13.328
68514W        W40829   5.325  40.077   2.035
68515W        W40830   4.424  34.925   4.019
68516W        W40831  33.064  44.893  12.563
68517W        W40832  40.435   7.912  13.507
68518W        W40833   5.936  15.406   1.399
68519W        W40834  29.166  21.268  14.718
68520W        W40835   6.223  11.199  13.440
68521W        W40836  40.320   2.137  12.800
68522W        W40837  32.656  32.607  11.685
68523W        W40838  17.830  16.086   4.590
68524W        W40839  15.069  39.067   1.621
68525W        W40840  24.702  38.808   1.828
68526W        W40841  18.219  41.054   3.162
68527W        W40842  19.504  32.534   4.259
68528W        W40843   2.388  37.408   0.256
68529W        W40844  29.906   6.832   4.354
68530W        W40845   8.620  36.381  12.687
68531W        W40846  30.628  21.561   2.358
68532W        W40847  33.085  12.607  11.928
68533W        W40848  17.817  13.607  12.468
68534W        W40849  37.348   1.737  12.071
68535W        W40850   7.138  28.744  13.677
68536W        W40851  35.598  22.179  12.048
68537W        W40852  36.640  39.896  11.641
68538W        W40853  29.869  10.504   2.818
68539W        W40854   4.195  10.799   1.232
68540W        W40855  30.410  40.957   3.858
68541W        W40856  34.943   0.737  14.401
68542W        W40857   6.929  41.346  13.246
68543W        W40858  40.591   8.376   2.236
68544W        W40859  23.390  43.210   1.856
68545W        W40860  35.154  33.167   1.241
68546W        W40861  21.589  28.067   3.265
68547W        W40862  26.503  16.296   0.911
68548W        W40863   9.974  23.211  14.851
68549W        W40864  16.589  37.065  10.706
68550W        W40865  41.459   4.176  13.423
68551W        W40866  17.372   1.862  10.677
68552W        W40867   6.165  33.406   0.832
68553W        W40868  36.456  16.166   0.289
68554W        W40869   3.319  28.175  10.374
68555W        W40870  18.684   4.479  12.015
68556W        W40871   0.520  20.642   0.503
68557W        W40872  37.342   3.072   2.774
68558W        W40873   5.228  32.557   2.385
68559W        W40874  16.790  36.709  12.958
68560W        W40875  15.681  22.958   2.802
68561W        W40876   0.303  25.455  11.559
68562W        W40877  14.615  32.479   2.005
68563W        W40878  10.413  29.659  13.536
68564W        W40879  26.192  14.059   4.275
68565W        W40880  42.042   9.167  14.967
68566W        W40881  33.239  38.797   3.401
68567W        W40882  13.880  25.716  11.018
68568W        W40883   0.060  14.339  11.924
68569W        W40884  24.498  40.695  11.157
68570W        W40885  39.485  22.966  12.604
68571W        W40886   9.310  33.842   4.640
68572W        W40887  30.184  12.688   4.524
68573W        W40888  41.888  14.743  14.289
68574W        W40889  30.754   8.119  12.611
68575W        W40890  10.852  19.162   5.485
68576W        W40891  15.233  29.029  11.784
68577W        W40892  25.519  26.166   4.834
68578W        W40893  21.468   0.410  11.047
68579W        W40894  13.885  38.501   1.394
68580W        W40895  21.464  24.420   1.503
68581W        W40896  33.236  13.087  12.074
68582W        W40897   7.379  43.276  13.795
68583W        W40898  15.196   1.471  11.194
68584W        W40899  17.800  26.585   1.433
68585W        W40900  28.376  44.932   3.288
68586W        W40901  15.778  44.467  11.458
68587W        W40902  17.432  25.511  14.471
68588W        W40903  22.704  35.142   0.466
68589W        W40904   4.813  28.859   4.854
68590W        W40905  29.898  43.774  11.100
68591W        W40906   1.365   0.861   1.393
68592W        W40907  14.086  33.007  10.736
68593W        W40908  29.608  12.825  14.209
68594W        W40909  28.648   8.890  10.095
68595W        W40910  22.278   1.785  14.399
68596W        W40911  39.819  30.555   5.214
68597W        W40912  39.108  42.504   1.874
68598W        W40913  34.495  21.061  10.910
68599W        W40914   5.820  24.190  14.481
68600W        W40915  24.964  42.416   0.781
68601W        W40916  35.887   8.640  12.465
68602W        W40917  42.833  39.536  10.675
68603W        W40918  44.877  12.831  12.508
68604W        W40919  30.634  43.427   2.430
68605W        W40920  17.858  25.506   2.230
68606W        W40921  40.173  44.491   0.487
68607W        W40922  24.248  44.563  10.984
68608W        W40923  33.660  14.403   2.369
68609W        W40924   8.285  40.442   3.826
68610W        W40925  13.643  40.872   4.239
68611W        W40926  18.337   9.380  14.260
68612W        W40927   4.289  12.780  11.343
68613W        W40928  27.909  25.584  14.416
68614W        W40929   7.681   0.501  11.587
68615W        W40930  34.852  41.767   1.193
68616W        W40931  30.907  37.240  12.763
68617W        W40932   8.751  12.401   2.851
68618W        W40933  34.281  16.714  10.983
68619W        W40934  39.476  33.646  12.462
68620W        W40935  30.096  38.894  11.656
68621W        W40936   5.942   6.450   2.259
68622W        W40937  24.962   5.274   1.864
68623W        W40938  34.471  27.475   4.679
68624W        W40939  34.343  16.433   2.223
68625W        W40940   2.384  30.248   1.226
68626W        W40941  32.584  29.150  13.398
68627W        W40942  13.723  16.818  13.867
68628W        W40943   7.754   7.237  12.960
68629W        W40944   5.263   6.800   2.361
68630W        W40945   4.988  24.365   5.134
68631W        W40946   8.436  19.305   0.869
68632W        W40947  42.928   8.887  10.360
68633W        W40948  29.754  43.034  10.686
68634W        W40949  43.117  12.818  11.663
68635W        W40950  44.948  16.990   2.220
68636W        W40951  43.473  32.030   2.603
68637W        W40952  37.969  16.648  12.950
68638W        W40953  27.200  25.475   0.323
68639W        W40954  43.867  16.074   0.418
68640W        W40955  42.554  19.827   0.517
68641W        W40956  23.029   2.646   1.778
68642W        W40957  25.202  30.522   4.603
68643W        W40958   8.991  29.526  12.823
68644W        W40959  17.555   1.815  12.880
68645W        W40960   9.023  35.092  12.459
68646W        W40961  34.621  39.086  10.369
68647W        W40962   4.443  29.946  13.851
68648W        W40963  14.715  10.324   4.975
68649W        W40964  34.368  12.111   1.253
68650W        W40965   0.394  23.756  14.047
68651W        W40966   1.968  40.392  12.963
68652W        W40967  40.074  33.670   2.276
68653W        W40968  19.684  30.652   4.640
68654W        W40969  11.667   6.773   4.649
68655W        W40970  35.832  15.138   4.036
68656W        W40971   9.768  45.000   4.782
68657W        W40972   4.375  35.976  12.664
68658W        W40973  23.368  23.628  13.861
68659W        W40974   8.433  43.266   3.299
68660W        W40975  39.489  43.172  11.605
68661W        W40976   7.248  13.792   2.284
68662W        W40977  22.672  22.765  13.275
68663W        W40978   2.953  18.537   3.530
68664W        W40979  25.634   2.678  13.893
68665W        W40980  38.542  13.327  12.170
68666W        W40981   5.255  27.192  11.823
68667W        W40982  31.423  40.284  11.334
68668W        W40983  25.605  36.335   3.735
68669W        W40984  30.062  35.023   4.359
68670W        W40985  33.549  38.273   9.975
68671W        W40986  32.664  18.297  14.493
68672W        W40987  30.574  24.417  13.670
68673W        W40988   0.838   4.027   2.760
68674W        W40989  15.720  19.053   3.573
68675W        W40990  31.899  40.280  11.536
68676W        W40991  43.721   7.782  14.293
68677W        W40992  22.517  42.343  12.871
68678W        W40993  28.741  18.941   1.124
68679W        W40994  41.497  37.286   2.858
68680W        W40995  11.683  27.578   2.841
68681W        W40996  14.617  12.914  14.685
68682W        W40997  24.605  31.936  12.840
68683W        W40998  12.012  17.681   9.838
68684W        W40999   3.780  27.041   4.132
68685W        W41000  13.693  40.211  13.507
68686W        W41001  10.706  21.267   0.814
68687W        W41002   7.768  21.565  12.584
68688W        W41003  34.530  11.144   4.601
68689W        W41004  12.705  17.809  12.848
68690W        W41005   0.959  12.563   5.444
68691W        W41006   8.211  40.223  11.046
68692W        W41007  18.099  30.043  14.811
68693W        W41008  27.891  27.628  12.896
68694W        W41009  14.295  39.093   5.085
68695W        W41010  31.666  13.284   4.193
68696W        W41011   6.877  29.110   0.843
68697W        W41012  34.538  40.615  14.757
68698W        W41013  23.919  14.843  13.370
68699W        W41014  25.670  18.878   2.749
68700W        W41015  32.570  41.037   4.360
68701W        W41016  42.869   2.427   4.578
68702W        W41017  14.347  25.523  11.014
68703W        W41018  37.026  39.368   2.378
68704W        W41019  43.909  12.221  13.952
68705W        W41020  28.040  37.977   1.299
68706W        W41021  43.860   6.469  10.605
68707W        W41022  28.956  39.566   1.087
68708W        W41023  22.044  43.231   1.961
68709W        W41024   5.145  44.309  12.964
68710W        W41025   8.166   8.777  12.944
68711W        W41026  22.522  40.782   2.697
68712W        W41027   2.943  25.477  13.466
68713W        W41028  20.098  37.386  14.965
68714W        W41029  18.168  40.813  10.166
68715W        W41030  14.297  39.591   0.449
68716W        W41031  23.117  11.130   2.753
68717W        W41032  11.497   9.400  10.700
68718W        W41033  22.329  16.694  10.619
68719W        W41034  43.192  38.553  13.491
68720W        W41035  10.383  38.047  14.944
68721W        W41036  42.860   2.490  13.074
68722W        W41037  22.554   6.911  13.969
68723W        W41038  37.121  33.934  11.735
68724W        W41039   9.563  39.894  11.293
68725W        W41040  21.461  38.909  13.440
68726W        W41041   0.948  41.623   0.509
68727W        W41042  30.427  36.482   0.784
68728W        W41043  11.474  21.105  11.689
68729W        W41044  39.455   6.653   4.808
68730W        W41045  15.223  30.757   2.367
68731W        W41046  41.723   0.686   0.653
68732W        W41047  39.508   1.293   0.684
68733W        W41048  27.995  43.907  12.002
68734W        W41049  22.698   4.477  10.722
68735W        W41050  10.485  30.613  14.676
68736W        W41051  37.608   3.896   2.786
68737W        W41052   7.899   6.120  13.992
68738W        W41053  21.866   5.380   2.420
68739W        W41054  44.734  40.544   1.766
68740W        W41055   2.336  19.305   0.069
68741W        W41056  33.468  30.912  14.320
68742W        W41057  20.594  18.288  14.968
68743W        W41058  10.239   6.211  10.625
68744W        W41059  35.316  40.417  12.353
68745W        W41060  25.767  31.620  11.050
68746W        W41061  15.276  35.960   4.241
68747W        W41062  25.733  21.548  10.567
68748W        W41063   1.367  36.637  12.511
68749W        W41064  38.336  39.199  13.940
68750W        W41065  19.193   1.021  10.566
68751W        W41066  38.114   1.423   3.265
68752W        W41067  18.538  15.637   0.848
68753W        W41068  23.726  20.207  12.366
68754W        W41069  24.490   1.008   3.672
68755W        W41070  10.721  23.316   2.803
68756W        W41071  19.561  20.204  10.974
68757W        W41072  16.690  30.832   3.993
68758W        W41073  20.481  39.050   0.808
68759W        W41074  22.294  36.156  11.233
68760W        W41075   4.235  39.407   0.085
68761W        W41076   2.384   6.189   0.415
68762W        W41077  44.794  31.546  12.500
68763W        W41078  12.242  41.363  12.788
68764W        W41079  11.407  17.878  14.957
68765W        W41080  19.292   5.992  12.701
68766W        W41081  44.790  22.041  13.688
68767W        W41082  24.807  28.824  12.807
68768W        W41083  15.848   1.867  10.718
68769W        W41084  28.775   3.341  14.529
68770W        W41085   1.658  28.879  14.436
68771W        W41086   3.440  22.726   4.447
68772W        W41087   5.997  36.007  10.778
68773W        W41088  44.345  24.745  12.796
68774W        W41089  32.840  10.124   1.134
68775W        W41090  44.409  24.175   4.023
68776W        W41091  36.474  28.367  14.424
68777W        W41092  33.642  23.062  13.361
68778W        W41093   8.276  26.583   3.290
68779W        W41094   2.885  27.426   3.832
68780W        W41095  10.301  21.074   2.806
68781W        W41096  14.782   9.575  13.604
68782W        W41097  13.678  40.965  13.053
68783W        W41098  35.449   2.153   3.292
68784W        W41099  37.923  19.351  10.988
68785W        W41100  37.100  35.359   4.607
68786W        W41101  29.950  40.467   4.650
68787W        W41102  16.541  43.042   2.549
68788W        W41103  25.663  38.145  11.813
68789W        W41104  34.558  18.239  11.063
68790W        W41105   9.434  13.650  12.850
68791W        W41106   3.031  11.299  11.204
68792W        W41107  22.807  27.006  11.150
68793W        W41108  27.987  11.465  11.611
68794W        W41109  23.531  34.964  12.152
68795W        W41110   5.684  20.987   3.279
68796W        W41111  39.586  25.094  14.761
68797W        W41112   6.359  14.266  12.924
68798W        W41113  41.158  41.293   0.506
68799W        W41114  24.233  28.527   1.889
68800W        W41115   9.130   4.809  13.376
68801W        W41116  41.831  26.574   2.884
68802W        W41117  14.918  22.245   3.232
68803W        W41118  34.919  43.825   3.502
68804W        W41119  19.647  19.085   1.393
68805W        W41120   5.593  37.539   1.750
68806W        W41121  37.051  43.552   1.775
68807W        W41122  14.778  39.045   4.870
68808W        W41123  40.389  16.118  14.762
68809W        W41124   9.632  39.462   0.463
68810W        W41125  31.185  34.191  11.040
68811W        W41126   0.043   4.436  12.894
68812W        W41127   5.701  20.186   2.600
68813W        W41128  44.997  34.442  13.221
68814W        W41129  28.173   2.207  14.319
68815W        W41130  24.084   6.726   3.932
68816W        W41131  16.142  22.584  11.892
68817W        W41132  37.113  42.872   3.868
68818W        W41133  36.262  12.273   3.572
68819W        W41134   2.758  32.314   1.964
68820W        W41135  39.508  35.440  11.646
68821W        W41136  16.378   5.945  11.371
68822W        W41137  40.062   6.296   2.341
68823W        W41138  38.592  28.146  13.427
68824W        W41139   4.419  25.090  10.660
68825W        W41140  21.523  13.519   1.506
68826W        W41141   3.326  37.305   5.104
68827W        W41142  41.545  15.795   0.517
68828W        W41143   4.806   9.843   4.232
68829W        W41144   2.339  30.230   4.232
68830W        W41145   9.742  31.171   1.637
68831W        W41146  41.035  40.830   3.671
68832W        W41147  29.452  33.683  11.123
68833W        W41148   9.746  11.722   4.183
68834W        W41149  31.149  42.762   2.315
68835W        W41150  35.158  36.424   2.619
68836W        W41151  19.178  22.039   3.199
68837W        W41152  28.782   5.213   0.818
68838W        W41153  17.183  20.695  11.126
68839W        W41154  43.846  15.090   2.324
68840W        W41155   1.204  27.464   0.930
68841W        W41156   2.235   6.381  11.539
68842W        W41157  20.898   7.235  11.662
68843W        W41158  31.333   2.891   3.806
68844W        W41159  29.574  27.492  13.385
68845W        W41160  29.054  42.603   1.991
68846W        W41161  19.062  38.339   3.631
68847W        W41162   7.548  23.027  14.248
68848W        W41163  36.914  19.800   1.215
68849W        W41164   4.947   4.362  10.234
68850W        W41165  17.365  22.018  13.942
68851W        W41166  34.966  23.160  11.369
68852W        W41167   7.433  32.000   2.412
68853W        W41168  44.553  37.304   0.504
68854W        W41169  12.656  33.686   0.979
68855W        W41170  42.304   3.620  11.897
68856W        W41171   1.199  23.075   0.254
68857W        W41172  35.635  25.221   2.676
68858W        W41173  21.303  11.784  11.417
68859W        W41174  26.516   4.144   0.464
68860W        W41175  15.354  41.906   3.303
68861W        W41176  24.178  26.469  14.372
68862W        W41177  25.684  44.424   4.631
68863W        W41178  40.948  31.542  12.136
68864W        W41179  39.252  13.478   3.317
68865W        W41180  41.470  18.514   2.652
68866W        W41181  15.374  26.086  11.941
68867W        W41182  24.132  34.487  10.745
68868W        W41183  33.813  22.324  14.820
68869W        W41184   1.530   0.799  14.922
68870W        W41185   5.168  40.862  12.027
68871W        W41186   1.845   7.831  12.065
68872W        W41187   1.397  14.522  14.392
68873W        W41188  17.855  25.026  14.882
68874W        W41189   4.862  43.331  11.154
68875W        W41190  31.550  37.923  14.404
68876W        W41191  15.145  14.343  11.974
68877W        W41192  10.613  44.807  11.470
68878W        W41193  33.338  15.100  13.399
68879W        W41194   5.962  32.690   1.752
68880W        W41195  23.172   7.897  11.634
68881W        W41196  18.533  10.506  12.854
68882W        W41197  23.091   0.441  12.555
68883W        W41198  42.841  34.526  10.505
68884W        W41199  19.430  22.163  11.520
68885W        W41200  21.784  27.981  11.914
68886W        W41201   3.822   9.215  14.509
68887W        W41202  41.300  27.231   2.649
68888W        W41203   2.262  40.895  14.482
68889W        W41204  13.725  32.172  12.665
68890W        W41205  23.450  14.653  11.093
68891W        W41206  30.835  37.250  14.726
68892W        W41207  11.696  12.254  11.043
68893W        W41208  17.731  14.606   2.120
68894W        W41209  13.154  22.767  14.363
68895W        W41210  10.088   4.500  11.055
68896W        W41211  44.943  26.559  14.452
68897W        W41212  12.256  18.725   5.530
68898W        W41213  25.030   9.616   3.157
68899W        W41214  28.547  25.047   0.440
68900W        W41215  38.920   2.751   3.410
68901W        W41216   9.176  25.082  10.707
68902W        W41217  29.982  39.306   2.333
68903W        W41218  37.410  27.761   3.389
68904W        W41219  11.245  21.820   1.736
68905W        W41220  44.725  18.134   4.321
68906W        W41221  38.640  24.934   1.710
68907W        W41222  20.912   8.374  11.457
68908W        W41223  22.979  34.503   2.619
68909W        W41224  11.926  40.790   4.095
68910W        W41225  39.384  10.264  13.345
68911W        W41226  20.258   1.899  13.107
68912W        W41227   9.271   1.014  10.633
68913W        W41228  12.335  12.682   4.000
68914W        W41229  30.407   0.515  11.149
68915W        W41230  38.742   8.395  13.804
68916W        W41231  38.543  15.133   3.183
68917W        W41232   6.181  20.955   3.171
68918W        W41233  42.096  31.929   0.929
68919W        W41234  23.068   8.323  12.427
68920W        W41235  16.424  33.070  12.505
68921W        W41236  11.202   4.046   3.204
68922W        W41237  41.293  34.092  12.460
68923W        W41238  26.011   8.907  14.124
68924W        W41239  42.703  35.850   4.588
68925W        W41240  35.252  15.116  11.477
68926W        W41241  41.904  27.587   2.651
68927W        W41242  20.685  23.207   1.345
68928W        W41243  34.117  24.132   0.710
68929W        W41244   5.412  42.077  11.591
68930W        W41245  19.004  17.200  12.536
68931W        W41246  13.645  28.371   1.495
68932W        W41247  44.784  20.729   0.991
68933W        W41248  36.297  30.428  13.828
68934W        W41249   0.685  44.780  12.864
68935W        W41250  11.914   8.159  10.881
68936W        W41251  32.490  40.847  11.248
68937W        W41252  42.136  43.261  12.918
68938W        W41253  27.017  27.698  11.504
68939W        W41254  21.222  33.279   2.993
68940W        W41255   2.451  10.557   0.868
68941W        W41256  13.144  11.329   3.242
68942W        W41257  34.435  43.298  10.939
68943W        W41258  25.217  31.127  11.980
68944W        W41259   9.912   9.180  12.247
68945W        W41260  35.032   9.110   4.761
68946W        W41261  14.382  26.042  12.126
68947W        W41262  28.601  37.771  14.881
68948W        W41263  34.387  37.010  14.065
68949W        W41264  11.322   4.980   4.562
68950W        W41265  14.704  34.111  12.041
68951W        W41266   1.937  14.149   0.670
68952W        W41267  35.450  25.123   4.635
68953W        W41268   6.317  15.671  10.742
68954W        W41269  40.602   2.125   1.675
68955W        W41270  44.390  10.942   0.794
68956W        W41271   5.896  33.942   2.295
68957W        W41272  39.867  30.241  10.530
68958W        W41273  20.308  12.791   0.221
68959W        W41274  35.330   2.984   3.639
68960W        W41275  29.108  10.606  11.607
68961W        W41276  14.620   1.728   3.113
68962W        W41277  30.708  22.255  10.032
68963W        W41278   6.963   3.956  14.361
68964W        W41279   7.263   2.819  10.434
68965W        W41280  31.062  37.405   4.358
68966W        W41281  27.525  39.498  11.991
68967W        W41282  43.491  14.005   2.937
68968W        W41283  23.609  24.242   0.153
68969W        W41284  38.764  26.937  14.515
68970W        W41285  35.043  15.091   0.423
68971W        W41286  43.440  40.277  11.565
68972W        W41287  30.049  33.381   3.436
68973W        W41288  35.219  39.349   2.854
68974W        W41289  20.311  44.952  12.997
68975W        W41290   3.917  44.736   2.471
68976W        W41291  39.799   6.838  12.819
68977W        W41292  39.279  13.842  14.318
68978W        W41293   1.457  35.917   1.321
68979W        W41294   9.296   6.881   4.354
68980W        W41295  11.627  32.560  12.410
68981W        W41296  39.484  28.045  12.454
68982W        W41297  31.896  37.627   4.530
68983W        W41298  19.737  34.836   1.350
68984W        W41299  31.760  31.671  14.063
68985W        W41300  15.573  35.822   3.832
68986W        W41301  39.972   4.377   2.036
68987W        W41302   2.817  32.206  14.056
68988W        W41303  41.917  22.558  10.968
68989W        W41304   0.937  30.452  11.998
68990W        W41305  38.910  28.916  12.494
68991W        W41306  44.541  40.020  13.750
68992W        W41307  22.768  31.872   1.356
68993W        W41308  11.385  25.516  14.894
68994W        W41309  20.084  22.507  11.034
68995W        W41310  36.373  12.420  13.091
68996W        W41311   4.461  26.864   0.740
68997W        W41312  42.290  21.205   1.982
68998W        W41313  43.343  31.823  10.213
68999W        W41314  34.614  24.622   2.113
69000W        W41315  20.732   6.469  12.415
69001W        W41316  19.160   8.925   3.730
69002W        W41317   0.314  21.999   3.143
69003W        W41318   2.721  32.122  11.171
69004W        W41319   2.135  25.515  12.412
69005W        W41320  29.172  39.359   4.235
69006W        W41321  18.379   5.757   4.178
69007W        W41322  43.841  24.953  11.562
69008W        W41323   9.577  38.011  12.460
69009W        W41324  41.559  27.484  11.179
69010W        W41325  20.273  20.418  13.219
69011W        W41326   4.776  23.780   3.985
69012W        W41327  14.843  41.978   3.249
69013W        W41328   5.466  27.540   4.640
69014W        W41329  34.860   5.204  11.407
69015W        W41330  24.774  38.635  12.279
69016W        W41331  32.892   3.018  12.957
69017W        W41332  15.646  38.158  11.252
69018W        W41333  42.775  36.898   2.274
69019W        W41334  33.538   7.240   4.595
69020W        W41335  26.617  17.237   0.972
69021W        W41336  38.602  11.774  10.994
69022W        W41337  40.331  42.072  11.944
69023W        W41338  40.896  17.566   4.599
69024W        W41339  31.000  29.453  12.348
69025W        W41340  18.548   6.438   0.798
69026W        W41341  16.194  19.654   1.282
69027W        W41342  30.001  19.003   2.857
69028W        W41343  38.670  40.076  13.465
69029W        W41344  42.326  37.869  10.641
69030W        W41345   7.224  25.501   3.827
69031W        W41346  34.813   5.432  11.858
69032W        W41347  22.104  40.441   2.592
69033W        W41348   8.834  41.829   0.972
69034W        W41349   7.841  17.260   3.255
69035W        W41350  15.953  15.987   3.637
69036W        W41351   0.440   3.583   0.919
69037W        W41352  13.240  19.059   0.243
69038W        W41353  17.236  14.481  10.394
69039W        W41354  14.061  32.673  14.802
69040W        W41355  29.119  12.391   3.664
69041W        W41356  18.296  33.465  13.359
69042W        W41357  10.223  38.753  14.414
69043W        W41358  25.165  11.373   2.371
69044W        W41359  16.792  40.554  13.445
69045W        W41360  16.153  32.099   1.711
69046W        W41361  23.793  28.991   2.723
69047W        W41362  23.822  13.248  14.386
69048W        W41363  42.857  24.157  12.072
69049W        W41364   6.208  16.938  14.716
69050W        W41365  14.259   2.848  14.842
69051W        W41366  34.931  10.081  12.857
69052W        W41367  14.881  26.022   4.484
69053W        W41368  41.252   1.348  14.065
69054W        W41369  19.566  41.423  14.983
69055W        W41370  17.978  39.574   2.195
69056W        W41371  13.543  32.685  13.434
69057W        W41372  20.713  19.623   2.180
69058W        W41373   6.827   5.267   0.968
69059W        W41374  16.776  36.581  14.878
69060W        W41375  14.853   6.938  14.415
69061W        W41376  12.672  43.200  13.421
69062W        W41377  15.933  25.273  13.318
69063W        W41378   7.801  24.119   0.360
69064W        W41379  12.696  19.020  11.130
69065W        W41380   4.303  23.502  12.875
69066W        W41381  33.018  10.854  13.939
69067W        W41382   2.232  35.308   5.496
69068W        W41383  32.172   4.653  11.988
69069W        W41384  11.248   1.710  11.876
69070W        W41385  11.349  21.613   1.275
69071W        W41386   0.985   1.684   0.212
69072W        W41387  13.661  17.633   4.073
69073W        W41388   0.987  35.072   2.404
69074W        W41389  32.377  42.948  12.695
69075W        W41390  23.682  23.652   2.935
69076W        W41391   3.887  27.536   3.400
69077W        W41392  40.038  29.735   3.978
69078W        W41393  37.217  22.400   3.867
69079W        W41394  35.320  14.727  10.785
69080W        W41395  34.936  41.345  13.033
69081W        W41396  15.290  13.965  11.033
69082W        W41397  13.677  14.817  11.689
69083W        W41398  14.681   7.333  14.691
69084W        W41399  21.794  20.076   4.270
69085W        W41400   1.811   7.100   4.121
69086W        W41401  42.081  24.198  11.631
69087W        W41402  10.291  42.988   3.336
69088W        W41403  28.845   7.751  12.846
69089W        W41404  39.482  23.445   1.873
69090W        W41405  18.535  32.342  14.543
69091W        W41406  31.366  41.782   0.804
69092W        W41407  41.533   1.902   2.145
69093W        W41408  27.906   8.753  13.625
69094W        W41409  28.261  16.275   4.492
69095W        W41410  10.751  41.910  13.755
69096W        W41411   0.115  40.922   2.682
69097W        W41412  28.014   2.884   0.235
69098W        W41413  41.878  26.588   5.288
69099W        W41414  17.158  23.887  10.479
69100W        W41415  14.044   0.552   3.466
69101W        W41416  16.209  17.735  13.925
69102W        W41417  12.396  20.132   2.415
69103W        W41418  41.925  40.873   3.079
69104W        W41419   9.852  15.172  11.940
69105W        W41420  13.802  15.636  11.578
69106W        W41421  18.239  17.589   1.051
69107W        W41422  32.396  37.026   0.456
69108W        W41423   2.472  26.275   2.100
69109W        W41424  20.000  34.164  12.984
69110W        W41425  42.326  34.180  11.155
69111W        W41426  34.267  31.010  11.573
69112W        W41427  23.027  27.507   4.135
69113W        W41428  18.322  34.546  11.518
69114W        W41429  21.063   6.892  14.328
69115W        W41430  12.717  19.052   4.982
69116W        W41431  44.880   8.092   2.756
69117W        W41432  42.495   1.117   3.648
69118W        W41433  10.127  17.317   1.610
69119W        W41434  38.913  37.476  12.635
69120W        W41435  15.134  19.832  14.511
69121W        W41436  28.061   5.742   2.329
69122W        W41437   8.214  24.019   0.017
69123W        W41438  37.702   6.350  13.063
69124W        W41439  10.726   1.502   2.268
69125W        W41440  42.967  16.148   0.478
69126W        W41441  34.927  16.012   4.084
69127W        W41442  11.722  39.321   3.142
69128W        W41443  10.231  18.499   1.195
69129W        W41444  28.259  30.094   1.449
69130W        W41445   6.679  29.445   4.368
69131W        W41446  35.395  36.844  14.980
69132W        W41447  17.540  44.883   4.382
69133W        W41448   3.956  28.665   1.823
69134W        W41449  19.586  34.549   4.664
69135W        W41450  34.522   3.466   3.122
69136W        W41451  16.670  43.539  14.464
69137W        W41452  22.530  11.639   4.496
69138W        W41453  11.815  34.432   1.883
69139W        W41454   1.755  11.291   2.595
69140W        W41455  36.043  18.173  11.550
69141W        W41456   6.208  15.908  14.839
69142W        W41457   8.278  36.153  13.726
69143W        W41458   0.706  19.651  11.924
69144W        W41459  34.588  22.128  12.087
69145W        W41460   5.451   5.223  11.414
69146W        W41461  30.455  35.780   3.848
69147W        W41462  36.263  21.168  12.418
69148W        W41463  41.506  29.591   3.123
69149W        W41464  26.668  40.618   3.163
69150W        W41465  40.762   6.739   2.814
69151W        W41466  20.719  18.018   1.494
69152W        W41467  39.277  23.198  10.531
69153W        W41468  11.582  22.501  12.156
69154W        W41469  34.190  35.556  12.107
69155W        W41470   7.380  28.633   4.749
69156W        W41471   3.259  17.625   1.754
69157W        W41472   7.710  16.289  13.824
69158W        W41473  38.873  21.671   2.206
69159W        W41474   6.457  18.137   1.638
69160W        W41475  23.101  16.037  10.996
69161W        W41476  16.430  15.802   3.550
69162W        W41477  33.362  31.169  11.575
69163W        W41478  43.848  23.853   0.702
69164W        W41479  17.674  15.782   1.328
69165W        W41480  31.229  39.355  10.749
69166W        W41481  18.329  40.544  14.469
69167W        W41482   5.155  35.838  14.808
69168W        W41483  19.134   6.066  10.914
69169W        W41484   9.641  30.361  14.934
69170W        W41485  14.320  30.658  14.825
69171W        W41486   0.170  31.722   1.402
69172W        W41487  38.062  34.608  10.596
69173W        W41488   6.476  32.517  10.697
69174W        W41489  17.669  20.600  10.883
69175W        W41490   2.091   1.053  13.851
69176W        W41491  42.861   3.863  14.073
69177W        W41492  19.496   6.509   0.855
69178W        W41493   5.269  16.353   3.178
69179W        W41494   0.026   8.749  12.978
69180W        W41495   6.719  26.589   0.700
69181W        W41496  27.465  32.038  10.639
69182W        W41497  33.720   2.920  11.953
69183W        W41498  23.494  20.306   4.766
69184W        W41499  36.011  34.934  11.966
69185W        W41500  13.877  38.070   3.613
69186W        W41501  10.310  16.486  12.506
69187W        W41502  31.157   6.370  13.480
69188W        W41503  34.143   3.783  10.682
69189W        W41504  34.902   9.962  13.358
69190W        W41505  28.899  20.173   1.341
69191W        W41506  11.657   1.347   2.265
69192W        W41507  40.428  27.000   0.131
69193W        W41508  37.095  16.145  11.679
69194W        W41509   0.982   7.418   3.589
69195W        W41510  27.877  41.767   1.410
69196W        W41511  23.358  35.114   4.886
69197W        W41512  44.551  12.757   2.224
69198W        W41513  39.642   9.301  13.115
69199W        W41514  34.376   7.692  12.104
69200W        W41515  38.860  11.370   4.359
69201W        W41516  40.054  21.568  14.766
69202W        W41517  32.201  13.286  10.966
69203W        W41518   3.603  15.841  10.293
69204W        W41519  20.999  23.236  11.098
69205W        W41520   6.833  40.625  12.080
69206W        W41521  35.547   9.540  11.492
69207W        W41522  44.289  18.375  14.386
69208W        W41523  43.311  43.573  13.584
69209W        W41524   3.991   9.772  11.208
69210W        W41525   1.791  34.055   9.770
69211W        W41526  40.467  31.021   1.776
69212W        W41527  15.066  20.451   2.835
69213W        W41528  10.293   8.683  14.513
69214W        W41529   9.163  27.247   4.112
69215W        W41530  15.134  10.868   2.880
69216W        W41531  21.785  15.297  13.693
69217W        W41532   3.225  44.254  12.387
69218W        W41533  35.131  11.725   0.722
69219W        W41534  25.518  37.446  10.601
69220W        W41535   6.332  24.151  10.684
69221W        W41536  18.067   8.500  11.482
69222W        W41537  27.699   1.881   4.987
69223W        W41538  32.217  36.033  14.408
69224W        W41539  33.706  13.332   1.441
69225W        W41540  15.137  38.081  10.616
69226W        W41541  42.481  16.568  14.360
69227W        W41542   4.643   2.873   2.302
69228W        W41543   4.355  28.872   2.813
69229W        W41544  12.213   4.735   4.578
69230W        W41545  23.476  19.171   4.053
69231W        W41546  33.601  36.975   4.538
69232W        W41547  40.310  33.880   3.245
69233W        W41548  44.241  31.044   3.819
69234W        W41549  35.919  12.377   2.390
69235W        W41550  35.936  44.554   0.288
69236W        W41551   5.282   9.360   2.115
69237W        W41552  25.487   4.407   4.183
69238W        W41553  34.514  25.938   3.730
69239W        W41554  26.303  11.687  11.742
69240W        W41555  41.552  43.898  14.333
69241W        W41556  44.301  19.443  12.058
69242W        W41557  11.581   2.048  13.009
69243W        W41558  35.669  43.019  11.474
69244W        W41559  19.682  12.666   2.350
69245W        W41560   3.315  33.516   1.303
69246W        W41561   5.159   1.911  12.578
69247W        W41562  28.603  35.318  14.955
69248W        W41563   9.243  13.808   0.817
69249W        W41564   8.731  37.501   3.627
69250W        W41565   8.805  41.223   0.387
69251W        W41566  33.227  32.149   0.717
69252W        W41567   5.324   3.834   2.814
69253W        W41568  32.591   1.320   2.387
69254W        W41569  42.013  33.333   3.394
69255W        W41570  29.694  35.795   0.897
69256W        W41571  18.842  44.834   4.523
69257W        W41572  16.662   9.785   9.781
69258W        W41573   7.880   5.400  14.796
69259W        W41574  32.683  43.490   4.204
69260W        W41575  42.305   6.205  10.661
69261W        W41576  21.864   0.974   0.080
69262W        W41577  38.273  11.087  14.313
69263W        W41578  44.373   7.210  12.841
69264W        W41579  15.600  40.804  13.757
69265W        W41580  12.727  32.603  14.072
69266W        W41581  25.510  10.414  12.836
69267W        W41582  33.564  22.902   4.844
69268W        W41583  20.627  43.567  12.916
69269W        W41584   2.440  26.208   4.262
69270W        W41585   6.635  38.127   2.861
69271W        W41586  29.684  39.576  13.433
69272W        W41587  40.837  18.947  11.196
69273W        W41588  33.876   7.623  13.372
69274W        W41589  39.496  22.788   4.353
69275W        W41590  30.634  19.047  10.684
69276W        W41591   4.407  22.229   0.350
69277W        W41592  30.686   9.785  14.531
69278W        W41593  32.907  20.156  14.815
69279W        W41594  18.766  34.474   4.139
69280W        W41595   1.151  33.209  11.968
69281W        W41596  41.481  13.141  14.934
69282W        W41597  43.377  39.476  14.873
69283W        W41598  20.974  27.190  14.431
69284W        W41599   9.081  20.120   0.105
69285W        W41600   3.497  42.532  13.328
69286W        W41601  33.682  16.111   2.736
69287W        W41602  15.290  25.610   2.245
69288W        W41603  44.358  21.037   0.804
69289W        W41604   7.196  44.319   3.810
69290W        W41605   5.698  23.901  14.989
69291W        W41606   8.304  37.619  10.723
69292W        W41607   7.002  16.337  14.470
69293W        W41608  31.883  31.701   3.423
69294W        W41609  19.500  30.305  12.657
69295W        W41610  26.219  33.808   0.352
69296W        W41611  38.985  12.628   1.811
69297W        W41612   5.772  38.826   3.456
69298W        W41613  31.008   0.339  12.025
69299W        W41614  16.535  10.455   1.451
69300W        W41615   5.929   6.735  14.412
69301W        W41616   1.838   1.354  12.431
69302W        W41617   6.414  27.669  11.955
69303W        W41618  10.923  15.668  10.726
69304W        W41619  17.017  39.342  12.386
69305W        W41620  35.752  12.875   4.272
69306W        W41621  27.491  12.126   2.762
69307W        W41622  43.593  29.720   3.395
69308W        W41623  28.001  42.410   2.267
69309W        W41624  43.963  40.891   1.158
69310W        W41625  18.066   7.978   4.592
69311W        W41626  23.118  23.656   2.355
69312W        W41627  30.860  16.810  11.713
69313W        W41628  43.525   6.712  14.306
69314W        W41629  34.562  16.672   1.251
69315W        W41630  15.296  10.682  13.868
69316W        W41631  26.574  20.531   4.130
69317W        W41632  26.687   9.938  10.578
69318W        W41633   5.292  43.395  11.431
69319W        W41634  16.266  31.705  11.388
69320W        W41635  27.517  14.124   3.677
69321W        W41636  40.009   5.799   2.526
69322W        W41637  33.602  34.674   2.678
69323W        W41638  12.857   3.166   3.172
69324W        W41639  32.137  26.214  10.557
69325W        W41640  26.652  44.074  13.438
69326W        W41641   9.547  38.926   3.607
69327W        W41642   2.802  18.062  11.204
69328W        W41643  23.481  28.656   3.437
69329W        W41644  22.641  33.149  11.489
69330W        W41645  37.438  24.618  14.552
69331W        W41646  18.833  34.376   0.915
69332W        W41647  37.290  44.753   4.190
69333W        W41648  11.843  13.318  12.971
69334W        W41649  44.348  34.384  13.916
69335W        W41650  33.409  23.645   1.561
69336W        W41651  20.691   0.211  14.674
69337W        W41652  44.029  26.730   4.129
69338W        W41653  35.425  37.424   4.517
69339W        W41654  37.838  27.027  11.531
69340W        W41655  27.530  36.601   2.145
69341W        W41656  19.549  10.691  10.699
69342W        W41657  34.859  25.233  10.985
69343W        W41658  21.727  35.610  13.407
69344W        W41659   3.865  22.636  13.230
69345W        W41660  43.316  38.364   4.333
69346W        W41661  19.629   0.752  11.348
69347W        W41662   1.100  24.908   0.453
69348W        W41663  39.539  21.811   1.353
69349W        W41664  41.081   8.463  12.418
69350W        W41665  21.791  21.632   2.676
69351W        W41666  13.665  14.662   1.025
69352W        W41667  20.894  16.240  14.025
69353W        W41668  39.445  29.418   3.349
69354W        W41669  34.787  41.017   2.458
69355W        W41670  39.543  24.761  12.888
69356W        W41671  22.235   8.819   2.269
69357W        W41672   2.635  41.311   2.324
69358W        W41673  16.212  20.212  12.644
69359W        W41674  29.655  12.711   2.261
69360W        W41675  30.086  36.137  13.603
69361W        W41676  12.308  27.120   0.041
69362W        W41677  19.747  42.225  13.521
69363W        W41678  18.443  28.046   4.600
69364W        W41679  22.747  22.476   1.193
69365W        W41680  40.692   3.436  11.221
69366W        W41681  21.203  20.958   5.041
69367W        W41682  16.059   1.405   1.250
69368W        W41683  26.989   3.311  14.949
69369W        W41684  26.452  36.903   2.799
69370W        W41685  21.323  43.338  10.930
69371W        W41686  38.580  26.061   0.225
69372W        W41687  13.251  32.135  12.445
69373W        W41688   0.163   9.375  11.068
69374W        W41689  26.005  33.909   2.871
69375W        W41690   6.482   3.868   4.184
69376W        W41691  34.587   8.866   1.144
69377W        W41692  43.441  38.761  11.614
69378W        W41693  12.343   8.852  10.689
69379W        W41694  29.991  41.303  14.912
69380W        W41695  39.769  24.446   3.568
69381W        W41696  38.494  30.553   0.769
69382W        W41697  10.460  24.106   3.280
69383W        W41698  23.918  28.523   4.736
69384W        W41699  32.086  14.089  12.131
69385W        W41700   0.702  42.834  12.497
69386W        W41701   1.365  44.569  11.714
69387W        W41702   1.968   1.303   0.756
69388W        W41703  32.475  26.675   1.330
69389W        W41704  36.035   2.765   3.711
69390W        W41705  19.810  31.142  13.167
69391W        W41706  26.967  14.828  12.570
69392W        W41707  14.303  22.861   3.143
69393W        W41708  43.397  31.411   0.936
69394W        W41709  27.617  22.453   2.133
69395W        W41710  29.014  33.343   0.838
69396W        W41711  26.895   2.687  11.169
69397W        W41712   1.737  17.155   2.467
69398W        W41713  43.344  25.047  10.663
69399W        W41714  10.413  26.397   2.274
69400W        W41715  20.693   9.368   1.881
69401W        W41716  12.098   9.892  12.093
69402W        W41717  34.441  25.889   2.917
69403W        W41718  41.320  30.872  11.129
69404W        W41719  30.916  13.650  11.154
69405W        W41720  39.913  25.557  10.176
69406W        W41721  25.188  40.316  11.487
69407W        W41722  21.155  35.403  13.816
69408W        W41723  25.897  25.080  11.055
69409W        W41724  22.970   6.241  13.331
69410W        W41725   3.010  27.039   2.392
69411W        W41726  33.901  15.368   3.380
69412W        W41727  30.798  30.075  12.019
69413W        W41728  38.438  42.772  11.916
69414W        W41729  34.184  24.772   4.942
69415W        W41730  36.890   0.839  11.044
69416W        W41731  43.530  38.180  13.443
69417W        W41732  30.989  22.772   0.371
69418W        W41733  20.755   5.831  14.974
69419W        W41734  39.611  33.526   3.704
69420W        W41735   5.969  10.751  13.351
69421W        W41736  17.167  21.522   4.713
69422W        W41737  26.987  28.124  13.998
69423W        W41738  29.142  28.648   0.792
69424W        W41739   5.722  34.976   1.342
69425W        W41740  29.426  15.159   4.778
69426W        W41741   3.792   0.362   5.282
69427W        W41742  21.564  17.260  13.007
69428W        W41743   8.673  35.269   1.213
69429W        W41744  14.559  34.146   2.338
69430W        W41745  27.684  43.521  12.426
69431W        W41746   0.153  24.165  13.813
69432W        W41747  36.805   7.709   2.411
69433W        W41748  28.132  32.402   2.671
69434W        W41749  12.402  28.565  11.657
69435W        W41750  30.405  41.934   1.170
69436W        W41751  22.895  37.030  11.053
69437W        W41752  43.567  35.848  14.387
69438W        W41753  19.115   1.691   3.129
69439W        W41754   7.875  11.868   0.927
69440W        W41755   9.623   6.339  14.521
69441W        W41756  31.716   3.286   5.042
69442W        W41757  30.145   4.253   0.462
69443W        W41758  27.075  31.327   5.395
69444W        W41759  39.643  11.472  11.964
69445W        W41760  44.466  33.003  13.430
69446W        W41761   3.500  25.959   2.806
69447W        W41762  20.794  20.773  13.047
69448W        W41763   5.638  10.710   4.930
69449W        W41764   8.863   8.763  11.850
69450W        W41765   0.914  12.356   1.291
69451W        W41766  39.172   9.161  10.687
69452W        W41767  41.431  34.065  11.974
69453W        W41768  18.624  11.637  14.369
69454W        W41769  10.935  25.580   4.092
69455W        W41770  24.672  32.416  14.381
69456W        W41771   6.707  26.616   4.857
69457W        W41772  22.204  36.690  14.116
69458W        W41773  11.712  28.598  13.494
69459W        W41774  28.936   6.712   0.664
69460W        W41775  33.052  32.197  11.634
69461W        W41776  34.495  40.852  12.473
69462W        W41777  24.685  17.338  12.991
69463W        W41778  30.051  21.288  14.764
69464W        W41779  32.786   9.189  11.132
69465W        W41780  28.121  42.365  12.026
69466W        W41781   5.197  39.940   4.561
69467W        W41782   3.001  13.284   4.179
69468W        W41783  44.066   4.632  11.112
69469W        W41784  22.441   7.902  12.002
69470W        W41785  41.414  36.323   3.186
69471W        W41786  33.838  10.329  11.641
69472W        W41787  14.145   2.018  14.199
69473W        W41788  18.755   8.260  10.617
69474W        W41789  25.690  40.508   4.644
69475W        W41790  35.370  18.900   4.101
69476W        W41791   7.906  30.578   2.395
69477W        W41792  32.847   6.111  14.942
69478W        W41793  29.825  25.798   1.655
69479W        W41794  30.203   3.873   1.697
69480W        W41795  32.024  31.623   1.736
69481W        W41796  19.367  16.678   0.017
69482W        W41797  20.949  32.112   2.668
69483W        W41798  13.655  24.955   4.278
69484W        W41799  20.542  25.501  13.717
69485W        W41800  16.648  23.832  11.520
69486W        W41801  34.620  42.924   0.932
69487W        W41802  23.531  27.553  13.907
69488W        W41803  23.977  19.229   3.362
69489W        W41804  18.738  30.695  13.336
69490W        W41805  36.000   8.095   0.919
69491W        W41806   5.914  21.056   0.397
69492W        W41807   6.294  38.329   1.911
69493W        W41808  17.081  14.580  12.747
69494W        W41809   9.211  27.728   3.389
69495W        W41810  30.341  42.699  11.737
69496W        W41811  28.009   0.733   2.358
69497W        W41812  23.726  42.806  12.264
69498W        W41813  26.513  15.118   2.789
69499W        W41814   4.201   1.029   3.671
69500W        W41815   6.696  44.224   3.862
69501W        W41816  27.684  22.163  13.049
69502W        W41817  13.331  37.144   0.503
69503W        W41818  37.272  24.219  12.085
69504W        W41819  41.902  24.291  13.064
69505W        W41820  22.263  35.969  12.836
69506W        W41821  17.346  15.355  12.044
69507W        W41822   8.432  34.137  11.245
69508W        W41823  24.518  27.853   4.714
69509W        W41824  18.259  29.421   0.979
69510W        W41825  11.882   8.913  12.507
69511W        W41826  10.028  21.897  11.125
69512W        W41827  37.147  30.306   3.643
69513W        W41828  43.843   0.290   1.930
69514W        W41829  22.800  32.351   3.697
69515W        W41830  36.637  15.010  12.391
69516W        W41831  35.030  42.723   2.734
69517W        W41832   8.422   9.224  12.903
69518W        W41833  31.411  39.535   1.880
69519W        W41834  33.068  18.198   1.199
69520W        W41835  11.442  20.427  14.027
69521W        W41836  39.579  27.606   1.191
69522W        W41837  15.397  34.981   0.447
69523W        W41838  27.917  31.880   3.493
69524W        W41839  43.465  36.654  12.058
69525W        W41840  24.474  10.364  14.700
69526W        W41841  44.272  30.623   2.804
69527W        W41842  39.749  19.226   2.758
69528W        W41843  31.204   4.737   1.473
69529W        W41844  40.907  34.534   4.494
69530W        W41845  11.301  15.736   4.161
69531W        W41846   4.330   2.373   2.363
69532W        W41847  10.862  39.668  14.786
69533W        W41848  34.986  29.032   4.643
69534W        W41849  41.920  25.200   3.314
69535W        W41850  44.484   5.497  13.400
69536W        W41851  42.005  40.046  14.326
69537W        W41852   1.823   9.400  14.912
69538W        W41853  18.271   5.956   3.273
69539W        W41854  25.065  44.817   4.155
69540W        W41855  35.555  34.639   2.593
69541W        W41856   9.255  15.912  11.407
69542W        W41857   7.906   7.197   0.884
69543W        W41858  17.243  30.331  10.937
69544W        W41859  44.380  20.205   1.847
69545W        W41860   4.713  13.265   2.216
69546W        W41861  26.770   9.336   1.732
69547W        W41862   6.210  25.138   0.542
69548W        W41863   8.708  31.618  12.053
69549W        W41864  40.206  28.489   0.278
69550W        W41865   5.158   5.344  14.533
69551W        W41866  24.052   1.042  13.981
69552W        W41867   0.683  34.918   3.382
69553W        W41868  37.376  33.491   0.947
69554W        W41869  38.912  32.999  14.828
69555W        W41870  40.983  34.081  14.366
69556W        W41871   9.919  42.476   4.832
69557W        W41872  41.883  44.434   1.644
69558W        W41873  15.678  38.034   2.867
69559W        W41874  21.105   7.295  12.150
69560W        W41875  21.767   7.345  13.960
69561W        W41876  22.470  20.227  12.138
69562W        W41877  41.782  42.052   0.791
69563W        W41878  13.596  39.026   4.616
69564W        W41879  31.024  13.845  13.469
69565W        W41880  41.304  13.902   3.759
69566W        W41881  43.205  23.503   1.738
69567W        W41882  17.090   3.857   4.241
69568W        W41883  21.911  39.851  13.206
69569W        W41884  43.000  36.566  13.317
69570W        W41885  11.568  31.594  13.856
69571W        W41886  17.607  36.479   4.179
69572W        W41887  21.968  30.359  12.931
69573W        W41888  32.621  15.550  11.530
69574W        W41889  38.391   0.324   0.951
69575W        W41890  20.045   1.794  11.539
69576W        W41891  28.968   3.172   3.668
69577W        W41892  41.995  28.205   4.658
69578W        W41893  20.576   2.824  13.853
69579W        W41894  14.322   2.629  11.130
69580W        W41895  25.016  29.642  12.081
69581W        W41896  20.476  37.717   2.141
69582W        W41897  41.347  35.148   4.635
69583W        W41898  12.807   1.866  14.474
69584W        W41899  13.850  34.853   1.847
69585W        W41900   1.327   0.356   1.310
69586W        W41901  20.657   7.684   3.640
69587W        W41902  43.574  36.340  10.887
69588W        W41903  17.273   9.108  10.859
69589W        W41904   9.438  13.113   3.259
69590W        W41905  16.222  15.155  12.787
69591W        W41906   9.549  42.432   0.820
69592W        W41907   5.998  18.242  12.494
69593W        W41908  34.329  37.076   0.440
69594W        W41909  40.808  13.562   2.746
69595W        W41910   8.067  38.618  14.881
69596W        W41911  16.102  27.939  11.101
69597W        W41912  24.276  41.826  14.875
69598W        W41913   2.947  37.263  14.566
69599W        W41914  12.593  44.890  11.293
69600W        W41915  32.402   8.092   4.060
69601W        W41916   7.336   8.975   3.418
69602W        W41917  26.234  12.279   0.823
69603W        W41918  21.519   9.089  11.124
69604W        W41919  40.916  32.572   4.390
69605W        W41920  32.217  10.311   0.274
69606W        W41921   4.877  24.543   1.472
69607W        W41922  13.640  39.913  11.503
69608W        W41923  23.980  39.771   2.195
69609W        W41924  37.073  16.118   4.082
69610W        W41925  10.105  43.184  13.784
69611W        W41926  12.370  31.544   1.615
69612W        W41927  28.186  27.241   1.041
69613W        W41928   2.847   8.213   0.957
69614W        W41929  14.521   0.356  13.925
69615W        W41930  11.925  41.159   4.470
69616W        W41931   9.399   0.027  11.958
69617W        W41932  15.277  22.433  13.603
69618W        W41933  18.625  27.480  13.689
69619W        W41934  22.445   3.479   5.068
69620W        W41935  30.464  34.258  11.156
69621W        W41936  19.035   5.301  14.962
69622W        W41937  21.071   8.834  14.883
69623W        W41938   2.281  25.511  11.500
69624W        W41939  28.495  42.196  12.351
69625W        W41940  23.738   7.775  14.327
69626W        W41941   6.769  33.872   0.434
69627W        W41942  35.992  39.914  11.632
69628W        W41943  18.806  33.566  13.396
69629W        W41944  26.990  17.026  10.712
69630W        W41945  36.915  12.652   2.261
69631W        W41946   7.336   2.757  10.946
69632W        W41947   1.827  41.193   3.668
69633W        W41948  13.301  28.653   0.359
69634W        W41949  13.408  35.392   4.243
69635W        W41950  19.593  13.765   1.348
69636W        W41951  17.365  17.909   2.015
69637W        W41952  34.895   2.761   3.761
69638W        W41953  18.830  27.448  11.096
69639W        W41954  20.320  36.463  11.527
69640W        W41955  34.856  34.050   2.938
69641W        W41956   7.389  41.484  12.985
69642W        W41957   2.756  35.426  10.447
69643W        W41958  33.120   5.036  11.452
69644W        W41959  40.302  11.141  12.580
69645W        W41960  15.411   5.883   1.270
69646W        W41961   3.692  33.321   2.207
69647W        W41962  41.682  25.494  14.022
69648W        W41963  24.091  18.877  14.927
69649W        W41964  16.998  26.022  13.228
69650W        W41965  17.833   1.657  10.778
69651W        W41966  10.515  42.477   4.945
69652W        W41967  33.858   0.712  11.633
69653W        W41968  37.624  36.885  13.922
69654W        W41969   3.525  43.977  13.915
69655W        W41970  42.017  41.735   3.624
69656W        W41971  42.108  30.115   4.844
69657W        W41972  16.196  38.995  12.575
69658W        W41973  21.396  10.243  12.323
69659W        W41974  10.845   8.186   4.439
69660W        W41975  42.897  16.255  14.319
69661W        W41976  44.096  18.842  13.421
69662W        W41977   7.684  22.875   2.654
69663W        W41978  33.153   3.958   2.718
69664W        W41979   6.749  39.420   2.832
69665W        W41980  21.445  36.392   2.679
69666W        W41981  15.730  29.634  13.435
69667W        W41982  14.552   3.906  12.901
69668W        W41983  38.391  25.727   3.354
69669W        W41984  21.955  44.301   4.213
69670W        W41985  30.586  33.175   0.982
69671W        W41986  30.579  13.661  14.735
69672W        W41987  15.981  16.238  11.405
69673W        W41988  12.128  26.773   1.746
69674W        W41989  25.506   0.540   2.543
69675W        W41990  42.303  29.214  14.919
69676W        W41991  21.763   5.682  12.876
69677W        W41992  24.541  16.636  13.026
69678W        W41993   2.784  44.760   0.850
69679W        W41994   1.767  22.072  13.768
69680W        W41995  18.213  33.877  13.672
69681W        W41996  14.321  29.774  12.535
69682W        W41997   3.860  12.974   4.432
69683W        W41998   3.231  33.195   0.829
69684W        W41999   8.948   4.937  14.378
69685W        W42000  22.033  20.102  11.825
69686W        W42001  11.279  13.891  10.772
69687W        W42002   5.845   2.272  12.935
69688W        W42003  15.311  33.578  14.420
69689W        W42004  17.683  40.134   3.232
69690W        W42005  42.025  12.125  13.950
69691W        W42006  21.175  40.815   0.514
69692W        W42007   3.188  36.353  12.216
69693W        W42008  24.913   0.290  13.095
69694W        W42009  39.538  11.711  10.498
69695W        W42010  24.735  36.304   2.827
69696W        W42011   2.763  19.343  14.450
69697W        W42012  36.586   5.126   3.249
69698W        W42013  38.280  38.016  11.921
69699W        W42014   5.350  21.624  10.724
69700W        W42015  32.869  20.531  10.708
69701W        W42016  27.074  13.242  12.605
69702W        W42017  17.147  11.789  13.667
69703W        W42018  10.692  36.139   2.871
69704W        W42019  26.494  23.847  14.170
69705W        W42020   1.272  30.955  11.602
69706W        W42021  39.002  21.768  10.528
69707W        W42022   1.768  13.695   2.989
69708W        W42023  30.651  33.937   4.083
69709W        W42024  31.233  18.855  11.046
69710W        W42025  18.156  37.663   2.017
69711W        W42026  16.359  40.943   3.821
69712W        W42027  11.656  29.031  12.828
69713W        W42028   1.770  33.928   0.465
69714W        W42029  28.673  10.850  11.817
69715W        W42030  16.575  12.151  14.239
69716W        W42031  43.970  17.343   2.098
69717W        W42032   4.558  41.380   0.380
69718W        W42033  15.095  43.524   1.565
69719W        W42034  41.329  28.233   0.439
69720W        W42035  38.368  42.130   2.037
69721W        W42036  15.268  16.065   4.566
69722W        W42037   6.408  37.971  13.790
69723W        W42038   2.249  34.878   1.867
69724W        W42039  16.816  17.335   4.528
69725W        W42040  27.707  22.937   2.288
69726W        W42041  12.088  32.985   1.330
69727W        W42042  22.049  30.036  11.618
69728W        W42043  42.750  16.758  13.170
69729W        W42044  25.864   1.376   3.308
69730W        W42045   6.297  34.189   4.647
69731W        W42046  12.655  23.072  12.416
69732W        W42047  43.287  27.621   4.098
69733W        W42048  43.179  28.871  14.432
69734W        W42049  29.708   0.969  11.839
69735W        W42050  12.849   3.852  10.989
69736W        W42051  32.555   4.594   2.774
69737W        W42052  18.476  18.451  14.442
69738W        W42053  23.612  25.288  13.434
69739W        W42054  10.344  23.035   2.621
69740W        W42055  38.239   5.739   2.329
69741W        W42056  35.424  11.832  13.025
69742W        W42057   2.269  30.472  14.849
69743W        W42058   0.698  33.056   2.043
69744W        W42059  27.161  30.527  13.789
69745W        W42060   1.519   0.945  12.954
69746W        W42061  12.844   6.199   4.873
69747W        W42062  10.170   9.065   0.778
69748W        W42063   4.370  32.533  10.692
69749W        W42064  18.057  37.435   0.999
69750W        W42065  21.667   6.095  11.135
69751W        W42066  43.435  37.795  13.121
69752W        W42067  21.165  12.359  12.625
69753W        W42068   6.447   1.609  13.992
69754W        W42069   5.417  34.128   3.626
69755W        W42070  35.200  41.456  11.647
69756W        W42071   1.356   2.408  12.900
69757W        W42072   5.905  21.528   3.979
69758W        W42073   5.527  25.825   1.324
69759W        W42074   6.828  44.393   2.898
69760W        W42075  32.705  11.034   2.820
69761W        W42076  35.113  28.864  10.919
69762W        W42077  38.533  10.371  14.875
69763W        W42078  30.420  28.474   2.733
69764W        W42079  28.439  43.508   0.819
69765W        W42080  29.025  18.847  12.999
69766W        W42081  22.814  12.768  13.996
69767W        W42082  33.788  25.655  12.529
69768W        W42083  15.613  18.541   3.665
69769W        W42084   3.890  19.652   3.123
69770W        W42085  35.165  18.584   2.669
69771W        W42086  19.855  44.192  12.003
69772W        W42087  11.820  26.640   5.094
69773W        W42088  14.396  15.031  13.909
69774W        W42089  26.680  36.465   4.149
69775W        W42090   4.674  12.568  14.832
69776W        W42091  37.579  39.937   4.301
69777W        W42092  27.508  31.731   0.254
69778W        W42093  17.321  35.080  11.138
69779W        W42094  37.097  16.238   2.815
69780W        W42095  25.110  18.262   1.623
69781W        W42096   1.820  37.946   2.123
69782W        W42097   4.293  41.699   0.864
69783W        W42098  42.313  18.592   2.737
69784W        W42099  44.241  34.260  10.970
69785W        W42100   3.851  23.484  14.030
69786W        W42101  33.145   0.843   1.498
69787W        W42102  25.241  14.895   0.667
69788W        W42103  16.349  28.103  13.454
69789W        W42104  39.799  30.162   3.816
69790W        W42105  26.875  30.116  12.552
69791W        W42106  17.624  19.347  14.858
69792W        W42107  21.078   5.762   3.946
69793W        W42108  14.807  23.370   4.684
69794W        W42109   4.446   0.019   3.712
69795W        W42110  43.071  30.745  11.423
69796W        W42111  33.805   7.431   2.901
69797W        W42112  25.525  19.963   5.672
69798W        W42113  21.122   5.836   0.453
69799W        W42114  16.076  21.778  14.937
69800W        W42115   2.298  17.890  11.295
69801W        W42116  28.397   6.341   3.673
69802W        W42117   9.459  13.312   0.781
69803W        W42118  23.048   2.918   2.223
69804W        W42119  43.004   8.784   1.896
69805W        W42120  30.587  42.029   2.170
69806W        W42121  27.442  35.892   1.426
69807W        W42122  38.016  18.099   2.132
69808W        W42123  33.075  34.579   0.224
69809W        W42124  42.106   6.556   4.991
69810W        W42125  36.983  30.083  11.422
69811W        W42126  16.189  20.621  12.982
69812W        W42127  35.105  11.015  13.316
69813W        W42128  35.582  30.910  11.042
69814W        W42129  36.501  34.194  14.049
69815W        W42130   2.033  19.116   3.381
69816W        W42131  26.155  20.045  11.055
69817W        W42132  20.160   0.763   3.720
69818W        W42133  10.139  28.003  14.160
69819W        W42134  33.019  39.735   3.200
69820W        W42135  11.159  29.436   0.094
69821W        W42136  42.099  18.154   4.610
69822W        W42137   9.482  22.180  13.474
69823W        W42138   2.222   8.294   3.181
69824W        W42139  13.611   6.926  14.346
69825W        W42140  21.133  18.317  14.787
69826W        W42141  27.079  12.822   4.175
69827W        W42142  15.376   4.453  13.991
69828W        W42143   5.251  38.356  14.023
69829W        W42144  25.177  10.291   4.637
69830W        W42145   3.811  22.946   2.272
69831W        W42146  22.218   8.646   1.757
69832W        W42147   2.839   2.413   2.274
69833W        W42148  34.373  12.164  14.801
69834W        W42149  31.470  16.495   4.157
69835W        W42150  32.672   4.089   0.684
69836W        W42151  15.861  30.443  11.080
69837W        W42152   0.927   0.073   2.514
69838W        W42153  23.919   9.889  10.511
69839W        W42154  44.530  22.768   4.672
69840W        W42155  17.314  21.225   3.183
69841W        W42156  12.336   3.188   0.424
69842W        W42157   7.378  20.743   3.078
69843W        W42158  41.277   5.692   1.875
69844W        W42159   3.455  21.166  10.617
69845W        W42160  11.566  19.107  12.215
69846W        W42161  26.698  41.571   2.642
69847W        W42162  38.529  24.994  13.769
69848W        W42163  25.665  14.567  11.655
69849W        W42164  37.159  19.637   1.680
69850W        W42165  29.480  10.075   0.847
69851W        W42166  36.431   3.462   2.245
69852W        W42167  31.846  21.731  12.959
69853W        W42168  13.853  27.197  13.965
69854W        W42169  34.674  27.046   3.390
69855W        W42170   1.478   6.483   4.327
69856W        W42171  14.835   9.375  12.359
69857W        W42172  28.186  39.385   2.170
69858W        W42173  28.479  44.279   1.758
69859W        W42174  40.025  42.687  11.215
69860W        W42175  30.555  33.491  13.653
69861W        W42176  22.035   0.757   2.318
69862W        W42177  18.520  38.614  11.162
69863W        W42178  10.781  18.292  10.323
69864W        W42179   3.476  31.274  11.035
69865W        W42180  20.089  44.711   2.164
69866W        W42181   5.212  40.423  10.654
69867W        W42182  31.546   0.917  11.101
69868W        W42183  39.908   2.926  10.515
69869W        W42184  24.985  28.154  11.124
69870W        W42185  16.917  38.222   3.589
69871W        W42186   2.154  43.825   4.316
69872W        W42187   2.787  31.867   0.792
69873W        W42188  30.197  20.150   3.743
69874W        W42189  16.738   0.509  14.279
69875W        W42190  30.982   6.486  11.935
69876W        W42191  12.766  24.033  11.707
69877W        W42192   3.288  35.599   4.830
69878W        W42193  20.638  23.024  12.795
69879W        W42194  23.628  24.910  13.884
69880W        W42195  38.057  42.967  11.632
69881W        W42196  34.012  33.385   0.911
69882W        W42197   0.829   9.777   1.486
69883W        W42198  23.527  13.639  14.266
69884W        W42199  30.594  35.502  12.828
69885W        W42200  44.670   9.214  10.982
69886W        W42201   2.356  23.224  12.514
69887W        W42202  32.937  29.027  11.200
69888W        W42203  31.414   9.280   2.175
69889W        W42204   2.018  18.808  11.646
69890W        W42205   7.218  21.091  12.912
69891W        W42206   0.419  10.860  13.778
69892W        W42207  25.088  12.290  13.069
69893W        W42208  21.100   1.305   1.704
69894W        W42209  26.781  32.832   4.607
69895W        W42210  39.375  40.332  12.817
69896W        W42211   3.244  10.430  10.881
69897W        W42212  21.980  22.059  14.418
69898W        W42213  13.144  21.056  13.291
69899W        W42214  42.366   2.301  13.915
69900W        W42215  35.838   5.744  12.021
69901W        W42216  23.447  35.488  13.786
69902W        W42217  38.728  43.045   4.637
69903W        W42218  28.092  15.549   0.412
69904W        W42219   4.361  41.723   3.340
69905W        W42220  16.759  44.319  11.152
69906W        W42221  38.585  37.197  11.088
69907W        W42222   2.614  19.142   4.216
69908W        W42223  36.412  43.394  14.613
69909W        W42224  38.277   9.477  11.997
69910W        W42225  35.326  18.199   4.668
69911W        W42226  42.483   0.306   0.872
69912W        W42227  16.517  20.666   0.446
69913W        W42228  26.028  27.126  11.192
69914W        W42229  26.433  11.732  13.062
69915W        W42230   5.477  10.070   3.293
69916W        W42231  41.994  21.780  14.931
69917W        W42232  11.637  38.190   2.414
69918W        W42233  41.936  35.324  12.357
69919W        W42234   4.536  25.294  12.412
69920W        W42235  33.197  36.074  14.386
69921W        W42236  43.513  34.935  10.185
69922W        W42237   2.545  38.915  12.932
69923W        W42238  19.886  16.257  13.881
69924W        W42239   6.214  30.061   0.793
69925W        W42240  32.547  26.968   2.724
69926W        W42241  27.463  13.750   1.398
69927W        W42242  28.986  40.714  12.923
69928W        W42243  10.778   2.317  11.924
69929W        W42244  10.232  41.770  12.646
69930W        W42245  33.568  33.122   0.784
69931W        W42246  14.689  30.615   3.667
69932W        W42247   8.904  14.943  11.410
69933W        W42248  38.922  40.321   4.484
69934W        W42249   6.799  27.897  11.664
69935W        W42250  16.800   1.775   1.913
69936W        W42251  24.547  32.747   2.288
69937W        W42252  30.500  14.603   1.806
69938W        W42253  30.009  22.042   0.917
69939W        W42254  26.081  24.642  12.595
69940W        W42255   2.900   3.211  13.149
69941W        W42256  13.242  28.602  11.008
69942W        W42257  14.548  26.582   4.478
69943W        W42258   2.389  44.502   0.435
69944W        W42259  21.465  40.368   4.284
69945W        W42260  33.009  30.527   4.638
69946W        W42261  34.810  33.070   4.538
69947W        W42262  39.032  10.262   2.238
69948W        W42263  25.501  27.031   4.565
69949W        W42264   1.973  22.952  11.594
69950W        W42265  29.485   0.338  10.177
69951W        W42266   2.387   2.766   1.261
69952W        W42267  33.103  12.272  11.503
69953W        W42268  23.615  36.519   4.202
69954W        W42269  22.204  10.395  14.733
69955W        W42270   0.718  34.429  11.357
69956W        W42271  23.296  15.919  13.051
69957W        W42272  18.175   6.153   1.693
69958W        W42273  41.862  34.503   1.850
69959W        W42274  25.267  18.554  13.364
69960W        W42275  13.305  25.579  12.375
69961W        W42276  12.211  25.402  13.443
69962W        W42277  25.739  43.406  11.619
69963W        W42278  37.937  35.962   1.903
69964W        W42279   3.423   3.070  12.291
69965W        W42280  26.637   7.806  10.201
69966W        W42281   1.152  12.320   1.789
69967W        W42282  29.609  41.224   0.521
69968W        W42283  40.278  35.068  14.296
69969W        W42284  22.239  24.826  13.922
69970W        W42285  30.950  30.087   4.640
69971W        W42286  33.905  32.607  13.547
69972W        W42287  34.032  23.589   0.763
69973W        W42288  39.777  20.922  11.906
69974W        W42289  18.644  23.882  14.972
69975W        W42290   8.402  19.781   3.743
69976W        W42291  11.133  44.879  14.822
69977W        W42292  40.008  33.504  12.375
69978W        W42293  33.848  30.336   2.628
69979W        W42294  37.354   1.241   0.283
69980W        W42295   5.494  22.743  13.016
69981W        W42296  28.636   3.034   3.297
69982W        W42297   5.334   7.735  11.200
69983W        W42298  29.696   9.913   2.209
69984W        W42299   0.621  39.941  10.410
69985W        W42300  23.955   2.463  12.054
69986W        W42301  11.348  36.112  13.495
69987W        W42302  33.083   5.611   4.415
69988W        W42303  19.776  26.579  10.433
69989W        W42304  29.856  20.565  13.631
69990W        W42305  44.344   6.341   4.637
69991W        W42306  26.032  32.551   4.032
69992W        W42307  22.339  14.279  10.139
69993W        W42308  26.647  23.136   1.285
69994W        W42309  18.794  23.666  11.636
69995W        W42310  23.188  10.690   4.556
69996W        W42311   0.871  39.552   1.681
69997W        W42312  37.399  28.616   0.395
69998W        W42313  35.947  32.576  13.119
69999W        W42314  18.147  26.056   0.468
70000W        W42315  33.960  27.848  12.598
70001W        W42316  22.158   2.908  10.697
70002W        W42317  18.708  30.817  12.407
70003W        W42318   2.371  37.165  12.660
70004W        W42319  14.741  37.277   5.426
70005W        W42320  18.078  44.429   0.414
70006W        W42321  35.321  35.054   0.244
70007W        W42322   6.918  20.426  13.344
70008W        W42323  18.392  14.251   0.690
70009W        W42324  36.164  16.751  12.574
70010W        W42325  18.617   3.188  13.057
70011W        W42326   0.880  22.231  10.483
70012W        W42327  19.201   8.940  13.835
70013W        W42328  11.191  11.152   1.914
70014W        W42329  16.222  29.092   4.700
70015W        W42330  30.450  44.013   1.226
70016W        W42331  12.090   7.639   2.264
70017W        W42332   8.904  32.412  10.555
70018W        W42333  35.129  38.125   2.264
70019W        W42334  14.193   7.412   4.155
70020W        W42335   0.950  31.099   1.858
70021W        W42336   2.874  30.499   4.319
70022W        W42337  30.708  21.131  11.993
70023W        W42338  28.493   4.942   5.155
70024W        W42339  16.668  33.141   2.648
70025W        W42340   7.011  30.320  11.616
70026W        W42341  23.992  38.502  12.653
70027W        W42342   5.878   8.887  10.600
70028W        W42343   2.935   7.101   0.286
70029W        W42344   7.626  35.576  12.587
70030W        W42345  38.222   0.673   1.288
70031W        W42346  31.446   7.380   3.795
70032W        W42347  43.615  12.015  11.764
70033W        W42348  13.246  26.321  14.259
70034W        W42349   3.683   7.892  14.440
70035W        W42350  44.409   7.317  12.327
70036W        W42351  30.080  12.730   1.904
70037W        W42352  27.508  24.252  13.937
70038W        W42353   5.457   9.408   0.267
70039W        W42354  44.394  13.609  14.043
70040W        W42355  44.038  43.978  13.814
70041W        W42356   1.281  38.508  11.520
70042W        W42357  16.133  19.135   4.644
70043W        W42358  26.545  26.014  13.417
70044W        W42359  24.565  32.482   3.109
70045W        W42360  20.130   0.574  14.225
70046W        W42361  39.814  33.201  12.020
70047W        W42362   9.311   8.763   3.775
70048W        W42363  18.987   9.990   3.267
70049W        W42364  11.120  15.048  11.536
70050W        W42365   8.898  43.361  14.934
70051W        W42366  33.422  14.598   0.221
70052W        W42367   8.976   8.307  12.097
70053W        W42368   7.460  40.423   4.584
70054W        W42369  12.115  32.933  13.023
70055W        W42370  42.852  36.238  14.833
70056W        W42371  16.585   0.750   3.793
70057W        W42372  30.605   1.738   3.735
70058W        W42373   0.468  30.747   3.278
70059W        W42374  29.851  44.270   0.050
70060W        W42375  42.430  23.032   1.319
70061W        W42376   7.960  32.040   1.156
70062W        W42377  23.781   7.808   3.277
70063W        W42378   5.216  17.100  12.933
70064W        W42379  14.384  38.228  13.961
70065W        W42380  35.464  16.011   2.879
70066W        W42381  20.204  20.013  11.677
70067W        W42382  10.744  33.070   4.601
70068W        W42383  40.162   7.263   4.107
70069W        W42384   6.709  35.921  14.584
70070W        W42385  12.754  20.289   0.384
70071W        W42386  34.035   6.397   3.622
70072W        W42387  20.042   3.824   3.287
70073W        W42388  44.338  16.595  14.901
70074W        W42389   1.194   8.924  14.407
70075W        W42390  42.938  37.566   2.841
70076W        W42391  15.333  38.269  13.710
70077W        W42392   4.748  15.852   4.799
70078W        W42393  22.550  12.215   4.546
70079W        W42394  14.786   2.247  14.462
70080W        W42395  28.063  36.039  13.890
70081W        W42396  17.259  36.956   3.314
70082W        W42397  21.103  36.582  11.035
70083W        W42398   9.254  32.212  14.789
70084W        W42399   4.997   9.321  14.012
70085W        W42400  20.134  18.702  11.612
70086W        W42401   5.906  44.014  13.383
70087W        W42402   2.016  17.948  14.962
70088W        W42403   3.824  39.451  14.771
70089W        W42404  36.621  35.944   4.056
70090W        W42405  39.058   8.450  12.017
70091W        W42406  38.318  29.024  11.196
70092W        W42407  44.403  38.445   3.264
70093W        W42408   6.462  36.075   4.570
70094W        W42409  38.346  12.744   1.305
70095W        W42410   3.912  43.730   4.426
70096W        W42411  39.901   9.882  10.659
70097W        W42412  18.170   7.919   4.088
70098W        W42413   1.762  31.972   1.173
70099W        W42414  35.547  13.896  11.985
70100W        W42415  20.484  25.200   2.310
70101W        W42416   7.899   8.751   4.751
70102W        W42417   5.871   7.495  10.597
70103W        W42418  38.133  38.424   3.536
70104W        W42419  22.745  13.449  12.581
70105W        W42420  32.330  17.900  11.144
70106W        W42421  15.867  32.338   2.448
70107W        W42422  38.362  22.997  12.904
70108W        W42423  24.965   2.455   0.706
70109W        W42424  13.451  42.928   4.448
70110W        W42425  16.708  36.282  11.194
70111W        W42426  36.952  20.562  13.376
70112W        W42427  16.756  30.032   4.677
70113W        W42428  19.297  27.430   3.316
70114W        W42429   5.757  27.931  13.567
70115W        W42430  34.511  22.211   4.937
70116W        W42431  30.680  38.846   3.699
70117W        W42432  15.339  34.095  14.381
70118W        W42433  34.078  19.074  13.328
70119W        W42434  40.813   3.792  13.753
70120W        W42435  10.105  33.896   1.615
70121W        W42436  37.307  31.562   0.444
70122W        W42437  40.749  22.490   1.963
70123W        W42438  35.054  24.803  13.602
70124W        W42439  27.751  30.042   1.584
70125W        W42440   5.255  41.765  14.839
70126W        W42441  31.571  13.728   1.670
70127W        W42442   2.457  31.940  10.121
70128W        W42443  30.049  15.759  11.685
70129W        W42444  11.802  16.629  11.044
70130W        W42445  25.080  31.081   3.721
70131W        W42446  26.625  26.446  10.563
70132W        W42447  18.179  41.658  13.413
70133W        W42448  10.228  12.325   3.559
70134W        W42449   5.293   0.295  13.000
70135W        W42450  33.231  42.670  10.992
70136W        W42451   7.754   4.709   4.543
70137W        W42452  19.603  36.307   2.602
70138W        W42453  32.956   2.760  14.928
70139W        W42454  21.041  24.633  13.379
70140W        W42455  41.118  11.268   2.882
70141W        W42456  39.602  18.503   0.822
70142W        W42457  21.211  11.930  14.864
70143W        W42458  28.319  31.085  10.096
70144W        W42459  34.616  15.173  14.013
70145W        W42460  44.450  32.715   4.663
70146W        W42461  34.005   1.903  11.104
70147W        W42462  35.114  13.684  12.172
70148W        W42463   7.711  32.138  12.921
70149W        W42464  15.136  34.982  14.087
70150W        W42465   2.215  21.049  12.409
70151W        W42466  36.817  31.673  11.028
70152W        W42467   5.443  24.614  11.092
70153W        W42468  29.478  13.611  10.887
70154W        W42469  30.014  29.173   0.404
70155W        W42470  14.644  26.176  11.698
70156W        W42471  41.874  15.102   2.646
70157W        W42472  42.251  38.455   2.259
70158W        W42473  14.374  39.764  11.107
70159W        W42474   0.363  17.153  14.579
70160W        W42475   0.247   4.447  12.421
70161W        W42476   7.703  18.423  11.468
70162W        W42477  16.983  31.722  13.989
70163W        W42478  37.458   8.469  12.517
70164W        W42479  39.938   1.474  11.524
70165W        W42480  18.208  19.434   0.273
70166W        W42481  17.144  27.547   1.523
70167W        W42482   3.820  28.210  10.545
70168W        W42483  43.551  41.413   5.114
70169W        W42484  11.131  21.322   2.895
70170W        W42485  32.846   6.676  14.119
70171W        W42486   7.424  16.768  13.821
70172W        W42487  24.410  16.704   3.699
70173W        W42488  10.723  41.866  14.491
70174W        W42489  36.655   8.840   1.488
70175W        W42490  40.256  43.630   0.977
70176W        W42491   0.809   5.997  11.630
70177W        W42492  26.258  39.359   4.222
70178W        W42493  37.349  25.173   0.805
70179W        W42494  33.569  32.847   1.219
70180W        W42495  22.091  41.819   3.205
70181W        W42496  39.300   6.690   2.684
70182W        W42497   4.135   2.722  13.018
70183W        W42498  25.495  14.736   3.232
70184W        W42499   5.503  22.051   2.355
70185W        W42500  18.694   1.374   2.276
70186W        W42501  10.723  30.867  11.651
70187W        W42502  16.296  34.081   0.006
70188W        W42503  38.153   3.192   5.006
70189W        W42504   3.210  27.666   2.232
70190W        W42505  44.509  34.608   0.206
70191W        W42506  44.460  33.368   0.644
70192W        W42507   2.917  22.647  13.483
70193W        W42508  40.810  23.296   0.279
70194W        W42509  43.841  26.937   2.805
70195W        W42510  16.225   6.496   0.900
70196W        W42511   0.934   0.299  11.604
70197W        W42512  18.035   6.855  14.183
70198W        W42513  19.679   6.353   1.844
70199W        W42514  12.239  37.057  11.582
70200W        W42515  13.301  18.694  10.644
70201W        W42516  26.104  17.983  14.785
70202W        W42517  15.289  16.165  10.674
70203W        W42518  16.089   2.622   2.002
70204W        W42519  13.488  39.926   3.844
70205W        W42520  15.052  15.510   0.863
70206W        W42521   3.893  18.093  11.973
70207W        W42522   6.989  27.915   2.348
70208W        W42523  33.117  28.422  12.459
70209W        W42524  20.688  19.962   0.480
70210W        W42525  26.929  12.172  11.977
70211W        W42526   7.149  17.006  14.942
70212W        W42527   4.392  25.461  11.942
70213W        W42528  40.070  18.247   2.876
70214W        W42529  24.124  26.562   2.784
70215W        W42530  24.925   6.768   0.465
70216W        W42531   1.244  13.052  13.768
70217W        W42532  36.621   4.799  14.895
70218W        W42533   5.029  22.363  13.005
70219W        W42534  19.724   4.794  14.872
70220W        W42535  39.986  38.914  12.416
70221W        W42536  10.891  31.703  13.382
70222W        W42537  23.459   8.826  13.898
70223W        W42538  25.215   0.812  11.513
70224W        W42539  39.761  11.270  11.206
70225W        W42540  16.935  13.244  12.362
70226W        W42541  43.439  38.352  10.654
70227W        W42542  12.285  43.290  11.232
70228W        W42543   4.913  18.496  12.489
70229W        W42544  39.867  22.684  11.204
70230W        W42545  43.469  43.214   2.811
70231W        W42546  38.999  35.536   2.181
70232W        W42547  15.817  25.342   1.402
70233W        W42548  14.828  22.464  12.238
70234W        W42549  17.229  32.684   0.366
70235W        W42550   0.106  32.918  11.135
70236W        W42551  42.317  41.290   0.852
70237W        W42552  21.211  27.087  13.546
70238W        W42553  28.352  31.623   1.393
70239W        W42554  42.952  36.140  13.619
70240W        W42555  22.353  37.034   4.099
70241W        W42556  16.163  11.251   0.488
70242W        W42557  34.360  17.754  11.037
70243W        W42558  15.359   4.874  12.456
70244W        W42559  42.954  15.232  14.430
70245W        W42560  34.589  30.651  10.976
70246W        W42561  22.512  12.986  13.615
70247W        W42562  27.420  18.175   3.387
70248W        W42563  41.499  32.091  14.607
70249W        W42564  41.532  43.815  10.716
70250W        W42565  38.021  28.706   1.201
70251W        W42566  37.485  34.064   0.790
70252W        W42567  24.498   4.608  13.322
70253W        W42568  43.936  17.824   4.743
70254W        W42569  24.510  16.519   1.262
70255W        W42570   7.318   8.466  12.913
70256W        W42571  35.088  27.972  14.388
70257W        W42572  27.482  37.124  12.935
70258W        W42573  12.207  43.345   2.744
70259W        W42574  25.408  21.244   4.599
70260W        W42575  42.900   1.756   3.372
70261W        W42576  19.004  12.658  12.938
70262W        W42577  15.540  29.912  13.060
70263W        W42578  23.164  32.178   1.258
70264W        W42579  41.793  34.590  14.814
70265W        W42580  15.401  16.714   2.991
70266W        W42581  33.152  16.682  12.008
70267W        W42582  37.464  18.396   4.892
70268W        W42583  23.243  15.765  11.416
70269W        W42584  40.625  34.003  13.493
70270W        W42585  17.757   0.283  10.994
70271W        W42586  22.777  27.556  13.359
70272W        W42587  36.198  37.854   3.295
70273W        W42588  42.135  23.806  10.115
70274W        W42589  33.935  35.996   2.561
70275W        W42590  23.757  39.776  12.457
70276W        W42591  32.046  12.182   4.746
70277W        W42592   1.952  23.073   1.947
70278W        W42593  21.909   6.603   4.504
70279W        W42594   6.041  32.038   5.034
70280W        W42595  13.235  27.592  11.248
70281W        W42596  39.342  42.834  12.000
70282W        W42597  33.956  11.259   2.709
70283W        W42598  40.351  26.944   1.103
70284W        W42599  43.364  23.361   1.247
70285W        W42600  20.264  19.597  11.388
70286W        W42601   3.689  11.156  10.472
70287W        W42602   2.354  36.044   9.719
70288W        W42603  44.915  39.861  11.190
70289W        W42604  22.783  32.826   3.891
70290W        W42605  13.351  29.598  12.125
70291W        W42606  39.373   3.494   1.029
70292W        W42607  23.277  13.831   4.305
70293W        W42608   1.184  26.596  14.917
70294W        W42609  36.537  42.586  10.358
70295W        W42610  42.027  11.367   4.562
70296W        W42611  29.720  32.805   1.848
70297W        W42612  28.466  20.891  13.713
70298W        W42613   7.368   3.400   0.879
70299W        W42614  21.073  28.944   2.350
70300W        W42615  26.559  15.319   4.663
70301W        W42616   4.977   3.213   4.381
70302W        W42617   6.604   5.925  12.398
70303W        W42618   5.008  16.763   4.684
70304W        W42619  21.222  11.644   0.409
70305W        W42620  21.552  44.248  11.559
70306W        W42621  13.901   3.211  13.000
70307W        W42622  24.219   8.485   4.786
70308W        W42623  41.358  26.590  12.535
70309W        W42624  29.499  16.212   0.318
70310W        W42625   3.630   9.627   1.720
70311W        W42626   7.153  36.598  12.573
70312W        W42627  33.970   3.590   3.321
70313W        W42628  24.236   5.760  11.422
70314W        W42629  18.580  24.273  13.523
70315W        W42630  42.808  13.806  12.921
70316W        W42631  27.896   1.256  11.866
70317W        W42632  11.832   7.347  14.501
70318W        W42633   9.915   8.437  12.339
70319W        W42634   8.160  32.785   0.127
70320W        W42635  37.512  35.942   0.951
70321W        W42636  21.525   2.002   3.194
70322W        W42637   3.578  25.168  12.557
70323W        W42638  24.262  21.865  14.942
70324W        W42639  40.946  13.633  13.449
70325W        W42640  36.827  25.083  12.915
70326W        W42641  38.902   3.453   2.378
70327W        W42642  18.810  26.986   0.824
70328W        W42643  18.214  35.833  10.311
70329W        W42644   1.884  41.354   3.170
70330W        W42645  22.105  32.381  14.989
70331W        W42646   4.476  13.372  14.467
70332W        W42647  40.925   9.259   4.902
70333W        W42648  38.034  16.973  11.628
70334W        W42649  26.450  32.294  12.516
70335W        W42650  29.123  20.978  13.381
70336W        W42651  15.107  29.910  10.245
70337W        W42652  29.045   9.775   0.682
70338W        W42653  26.030  19.519  14.832
70339W        W42654   5.590   8.569  12.593
70340W        W42655  38.578  41.864  10.465
70341W        W42656  19.499  14.517   4.157
70342W        W42657  14.534  26.169   0.163
70343W        W42658  32.838  35.185   3.514
70344W        W42659  24.351  23.294   1.652
70345W        W42660  38.943  40.019  14.022
70346W        W42661  15.382   7.171   3.658
70347W        W42662  24.864  40.180   5.081
70348W        W42663  12.852  38.873   0.287
70349W        W42664  14.704  37.590   1.680
70350W        W42665  32.634  39.767  10.620
70351W        W42666  34.893  11.885  14.324
70352W        W42667   6.654   3.683   2.787
70353W        W42668  18.831  14.356  13.913
70354W        W42669   2.924  30.510  11.413
70355W        W42670  26.649  41.458  10.909
70356W        W42671  22.215  33.369  12.030
70357W        W42672  31.594  22.517  11.222
70358W        W42673  28.749  25.643  13.792
70359W        W42674  24.660  16.259   2.462
70360W        W42675   7.683  16.090   1.821
70361W        W42676   5.914  15.640  13.870
70362W        W42677  21.175  11.731   2.186
70363W        W42678  33.545  16.940   0.479
70364W        W42679  33.220  23.207   1.884
70365W        W42680  27.406   8.718   3.763
70366W        W42681  32.997  27.270  11.166
70367W        W42682   4.492  15.722  11.171
70368W        W42683  15.536   1.750  11.994
70369W        W42684  17.156  23.050   9.926
70370W        W42685   9.873  22.474  11.911
70371W        W42686  21.797  22.258  14.871
70372W        W42687  40.356  43.395  11.616
70373W        W42688   9.423   0.801   0.787
70374W        W42689  39.943  44.097   4.351
70375W        W42690  30.577  19.586  11.942
70376W        W42691  13.291  42.316   1.475
70377W        W42692  35.932  18.241  10.748
70378W        W42693  43.802  37.092   1.415
70379W        W42694   0.666  30.701  10.133
70380W        W42695  16.181  31.886  12.177
70381W        W42696  44.402  28.883  13.888
70382W        W42697   6.080  17.329  12.118
70383W        W42698  42.538   7.763  12.144
70384W        W42699  12.649  13.819   2.897
70385W        W42700  13.637  29.984   2.205
70386W        W42701  11.389  36.358   0.367
70387W        W42702  43.790  29.057  12.058
70388W        W42703  12.740   8.047  14.060
70389W        W42704  13.188  12.774  14.910
70390W        W42705  32.689  41.961   0.466
70391W        W42706  14.140  16.987   4.705
70392W        W42707  39.786  31.881   2.483
70393W        W42708  30.182  24.705   2.447
70394W        W42709  22.053  13.027   0.890
70395W        W42710  44.948  14.196   1.392
70396W        W42711  17.122  25.290   0.822
70397W        W42712  14.224   0.926   1.219
70398W        W42713  17.682  33.233   0.685
70399W        W42714  16.395  39.512   5.373
70400W        W42715   3.437   1.686   0.751
70401W        W42716  44.233  32.030  12.935
70402W        W42717   8.997  17.477   0.818
70403W        W42718  12.571  27.658   3.826
70404W        W42719  34.053  42.097   2.445
70405W        W42720  31.452  44.228   2.791
70406W        W42721  40.404   1.517   4.095
70407W        W42722  31.169  22.246  14.496
70408W        W42723  24.213  27.496   3.651
70409W        W42724  35.964  14.792   1.412
70410W        W42725  28.547   2.414  14.614
70411W        W42726   3.772  16.343  12.489
70412W        W42727  24.171  11.109   0.013
70413W        W42728  23.821  39.652   4.182
70414W        W42729  11.781   0.751   3.399
70415W        W42730  37.404  11.162  13.064
70416W        W42731  32.015  16.223  13.071
70417W        W42732   5.796  29.076   0.768
70418W        W42733   8.722  16.707  12.077
70419W        W42734  11.808  33.353  10.985
70420W        W42735   3.971  32.890   2.149
70421W        W42736   1.374   2.366   3.696
70422W        W42737  37.053  36.018   2.783
70423W        W42738   1.854  15.869   1.888
70424W        W42739  29.999  19.280   0.918
70425W        W42740  22.629  23.363  12.078
70426W        W42741   5.227  19.712   5.019
70427W        W42742  29.387  19.834   1.889
70428W        W42743  23.949  39.492   0.051
70429W        W42744  10.383  33.380   3.894
70430W        W42745   8.375  14.084   4.949
70431W        W42746   4.466  40.045  10.671
70432W        W42747  42.064  28.461  12.172
70433W        W42748  12.337   5.206   2.758
70434W        W42749   7.588  25.839   5.047
70435W        W42750   9.624  21.412   4.052
70436W        W42751  33.576   0.373  13.358
70437W        W42752  13.492   3.817   2.298
70438W        W42753  12.785  25.549  11.642
70439W        W42754  14.523  23.313   3.292
70440W        W42755  19.626  12.333   4.660
70441W        W42756  42.398  10.413  13.052
70442W        W42757  18.902  12.904   0.639
70443W        W42758  15.885  41.176  12.959
70444W        W42759  43.278  18.694   2.754
70445W        W42760  24.863  19.317  12.322
70446W        W42761  29.668   9.207   0.759
70447W        W42762  33.867  34.511   3.100
70448W        W42763   7.344   3.358   3.823
70449W        W42764  37.488   1.911  13.593
70450W        W42765  39.503  26.275  11.027
70451W        W42766  42.344   9.169   2.692
70452W        W42767  21.937  24.620   1.445
70453W        W42768  21.635  26.973   2.438
70454W        W42769   9.235  35.993   4.662
70455W        W42770  16.868  23.125   1.432
70456W        W42771  20.279  28.484   1.702
70457W        W42772  22.602  27.723   3.234
70458W        W42773  44.376  19.702   3.686
70459W        W42774  30.609  42.088   0.192
70460W        W42775  16.237  14.617  11.985
70461W        W42776  20.093  16.304   1.315
70462W        W42777   2.548  16.365  12.582
70463W        W42778  26.197  13.819  13.507
70464W        W42779  24.074  43.562  13.243
70465W        W42780   8.424  43.403  11.646
70466W        W42781  35.603  15.148   0.769
70467W        W42782   9.392  17.073  14.003
70468W        W42783  37.138  32.851   4.504
70469W        W42784   5.278  33.095   3.678
70470W        W42785  37.575  30.577  11.549
70471W        W42786  36.167  36.935  13.934
70472W        W42787  21.761  32.049   4.211
70473W        W42788  16.205  28.716  11.536
70474W        W42789  12.745  16.081   2.270
70475W        W42790  35.558   0.562   4.654
70476W        W42791  11.338  18.771  11.038
70477W        W42792  28.454  40.488  10.589
70478W        W42793  14.660  30.023  13.306
70479W        W42794  22.501  27.711   4.093
70480W        W42795  25.811  28.495   0.392
70481W        W42796  15.415  43.384  13.004
70482W        W42797  13.767   0.430   3.875
70483W        W42798  21.304  12.569  12.002
70484W        W42799  20.239  12.926   4.164
70485W        W42800  41.378   7.479  13.741
70486W        W42801  10.872  19.983   0.743
70487W        W42802  22.776   6.332  11.207
70488W        W42803  43.718  38.825   3.241
70489W        W42804  20.055  40.511   2.802
70490W        W42805  35.636   6.263   4.660
70491W        W42806  34.591  19.541   2.725
70492W        W42807   3.553   5.845  11.766
70493W        W42808   2.865   2.931  13.843
70494W        W42809  37.977  12.389   1.261
70495W        W42810  37.555  43.221  11.009
70496W        W42811  23.943  18.243   3.138
70497W        W42812  36.213  12.663   4.285
70498W        W42813  31.258  43.780  12.640
70499W        W42814  13.162  34.008  11.401
70500W        W42815  33.537  20.337   0.818
70501W        W42816  26.208  18.713  12.567
70502W        W42817  44.829   2.887  13.280
70503W        W42818  40.615  31.870  11.669
70504W        W42819  40.775  22.324   2.869
70505W        W42820  20.567  33.920   0.276
70506W        W42821  11.148  28.762   4.593
70507W        W42822  33.613  40.153  10.356
70508W        W42823  40.813  33.544   2.859
70509W        W42824   3.949   0.986   3.187
70510W        W42825  15.219  20.559  11.849
70511W        W42826  20.669  33.816  11.688
70512W        W42827   6.076   1.815  12.401
70513W        W42828  19.786  10.943  11.530
70514W        W42829   3.801   6.684  13.871
70515W        W42830  26.381  22.731   1.835
70516W        W42831  18.198  32.607  12.397
70517W        W42832   3.535  14.047   3.640
70518W        W42833   9.983  13.335   0.680
70519W        W42834  19.699  25.209   1.251
70520W        W42835   1.874  23.702   1.780
70521W        W42836  21.317   0.369   0.727
70522W        W42837  34.583  27.555  11.980
70523W        W42838  24.503  28.580   1.029
70524W        W42839  21.244  42.819   3.294
70525W        W42840  17.928   8.891   3.976
70526W        W42841   7.907   2.633  11.267
70527W        W42842  39.621  36.575  14.051
70528W        W42843  13.732   3.199   3.389
70529W        W42844  14.281  26.910  14.003
70530W        W42845   0.779   6.368   1.670
70531W        W42846  22.565  18.744   3.012
70532W        W42847   6.400  38.075   4.147
70533W        W42848  16.017  16.340  13.460
70534W        W42849  27.089  15.845   3.575
70535W        W42850  37.746  44.971   4.089
70536W        W42851  44.691   0.099   4.586
70537W        W42852   0.189  27.164   0.779
70538W        W42853  21.024   0.861   1.458
70539W        W42854  41.084  10.829  12.491
70540W        W42855   1.882  34.832   0.493
70541W        W42856   4.392   1.884  10.845
70542W        W42857  25.238   7.400   4.570
70543W        W42858  29.455  36.735   2.628
70544W        W42859  32.987  25.222   2.850
70545W        W42860  35.069  30.761  11.098
70546W        W42861  25.968  16.697  10.569
70547W        W42862  43.466  21.110  12.787
70548W        W42863  14.815  20.445  11.128
70549W        W42864  36.047  22.443  11.183
70550W        W42865  38.923  18.794   1.797
70551W        W42866  43.005  26.764   3.223
70552W        W42867   5.317  29.402  11.936
70553W        W42868   9.368  19.743  13.602
70554W        W42869  32.191   8.884   2.332
70555W        W42870  33.936   2.113   4.676
70556W        W42871  21.550  28.907   0.886
70557W        W42872  37.750  14.393  14.949
70558W        W42873  25.922  38.833   1.459
70559W        W42874  36.478  43.607   0.097
70560W        W42875   7.232  22.517   3.999
70561W        W42876  10.504  37.846  14.461
70562W        W42877   9.684   8.830  12.596
70563W        W42878   3.253  42.552   0.473
70564W        W42879  17.173  36.102   1.724
70565W        W42880   2.487  19.422  13.740
70566W        W42881  19.157  32.546   4.734
70567W        W42882  35.248  29.993   2.275
70568W        W42883  25.546  22.504  14.417
70569W        W42884  28.251  37.750   0.727
70570W        W42885   3.971   2.486   1.825
70571W        W42886  22.060   8.762   2.752
70572W        W42887  17.135  26.603  10.640
70573W        W42888  23.998  22.955   1.820
70574W        W42889  29.325  31.041   0.911
70575W        W42890   5.421   0.979  11.490
70576W        W42891  17.315  19.501  12.218
70577W        W42892  43.230   9.090  11.995
70578W        W42893   1.007  40.514   1.285
70579W        W42894  25.334  25.256  11.679
70580W        W42895  34.385  37.059   1.777
70581W        W42896  36.664  25.525   2.839
70582W        W42897  25.192  10.901   3.949
70583W        W42898  31.585  17.035   4.209
70584W        W42899  32.416   0.994  12.934
70585W        W42900  25.592  42.516   2.168
70586W        W42901   4.983  34.967   0.343
70587W        W42902  20.637  28.040   4.491
70588W        W42903   0.839  11.829   5.338
70589W        W42904  13.685  15.974  12.673
70590W        W42905  17.718  10.581   4.264
70591W        W42906  44.315  25.905   3.410
70592W        W42907   8.715  31.234   3.258
70593W        W42908   7.147   6.918   3.120
70594W        W42909  33.539  14.779   3.201
70595W        W42910   0.280  18.538  11.676
70596W        W42911  16.769   0.513   3.356
70597W        W42912  43.739  10.129  11.044
70598W        W42913  41.327  32.973  14.094
70599W        W42914   5.495  22.465   1.626
70600W        W42915  41.940  39.834   4.013
70601W        W42916  19.173  29.727  13.482
70602W        W42917  35.335  14.658   4.777
70603W        W42918   7.774  26.735   4.017
70604W        W42919  26.004   9.619   1.251
70605W        W42920  14.020   5.796   4.045
70606W        W42921   9.721  29.384   4.446
70607W        W42922   3.321  28.210   0.273
70608W        W42923  29.019  11.341   1.676
70609W        W42924   7.556  27.998  14.803
70610W        W42925  15.126   5.503  13.100
70611W        W42926  33.025   8.197  13.286
70612W        W42927  24.677  32.080  10.251
70613W        W42928  44.366  20.094   4.013
70614W        W42929  17.279   5.138   0.287
70615W        W42930   4.224  39.889   0.393
70616W        W42931  37.395  38.862  10.784
70617W        W42932   5.779  38.775  12.925
70618W        W42933  37.636  36.933   1.222
70619W        W42934  28.671  36.121   1.919
70620W        W42935  42.062  36.370   2.264
70621W        W42936  20.799  13.030   0.155
70622W        W42937   4.697   4.428  14.401
70623W        W42938  42.079  42.002  13.413
70624W        W42939   7.146  29.211   0.395
70625W        W42940  43.013  24.753  14.985
70626W        W42941  28.038  40.051  14.264
70627W        W42942  10.899  33.701  11.203
70628W        W42943  21.740  12.081  13.832
70629W        W42944  38.980  40.401   1.644
70630W        W42945  20.527  16.354  11.593
70631W        W42946  32.151   1.532   0.881
70632W        W42947  17.214   8.378  12.835
70633W        W42948  36.510  17.723  11.118
70634W        W42949  27.428   5.125  10.221
70635W        W42950  15.650  43.047   2.194
70636W        W42951  31.965  12.997  11.321
70637W        W42952  12.170  43.156   1.311
70638W        W42953  39.022  25.252   1.899
70639W        W42954  44.824  37.518   0.888
70640W        W42955   6.030   2.087   0.928
70641W        W42956  36.197  33.529   0.354
70642W        W42957   3.754  13.025  12.418
70643W        W42958  23.062  44.949  12.715
70644W        W42959   1.076  23.911   3.769
70645W        W42960   3.627  31.802  10.077
70646W        W42961  16.846  35.565  12.951
70647W        W42962  22.244  11.209   2.314
70648W        W42963  29.446  10.882  14.293
70649W        W42964  12.778  28.806   3.400
70650W        W42965  28.296  26.790  12.722
70651W        W42966  43.297  24.919  12.066
70652W        W42967   0.737  14.842   1.239
70653W        W42968  37.547  32.988   2.623
70654W        W42969  25.459  36.677   4.138
70655W        W42970  30.840  44.853   1.026
70656W        W42971  24.662   2.861  11.404
70657W        W42972  12.654  28.884   2.854
70658W        W42973  43.414  35.908   3.774
70659W        W42974  44.291  35.095   0.777
70660W        W42975  34.022  19.345  11.957
70661W        W42976   8.341  23.354  11.486
70662W        W42977  42.977   3.933  10.705
70663W        W42978  23.036  22.989   3.754
70664W        W42979  33.408  27.881  14.998
70665W        W42980  26.465  18.598   4.264
70666W        W42981  34.021  21.105  14.443
70667W        W42982  13.693   6.743   3.643
70668W        W42983  33.955   2.078   0.280
70669W        W42984  11.154  40.544  14.482
70670W        W42985  36.084  14.081  13.873
70671W        W42986  12.601  15.132   2.498
70672W        W42987  24.201   6.987   2.382
70673W        W42988  15.146  35.072   0.894
70674W        W42989   3.922   9.117  12.585
70675W        W42990   6.290  21.105  11.159
70676W        W42991  12.475  32.414  11.202
70677W        W42992  44.979  35.652  13.615
70678W        W42993  12.283  14.077  13.081
70679W        W42994  13.190  18.615  13.323
70680W        W42995   9.378  27.587  10.420
70681W        W42996  27.060  37.885   3.293
70682W        W42997  42.781  41.112  14.473
70683W        W42998   6.406   6.391   5.120
70684W        W42999  25.984  20.647  11.518
70685W        W43000  13.777  41.301  13.457
70686W        W43001   7.786   6.320  14.463
70687W        W43002  28.484  15.326  13.034
70688W        W43003  24.024  21.233  11.573
70689W        W43004  26.580  37.593   4.222
70690W        W43005  26.512   6.175   1.665
70691W        W43006  22.020  35.902  14.356
70692W        W43007  36.509  12.568   3.231
70693W        W43008   8.433  24.243  13.073
70694W        W43009  12.114  19.207   2.066
70695W        W43010  32.341  30.124  13.276
70696W        W43011   4.785  14.398   4.503
70697W        W43012  15.844  33.110   1.712
70698W        W43013  26.494   8.112   1.884
70699W        W43014  20.101  29.969   0.942
70700W        W43015  43.420  21.122  11.728
70701W        W43016  32.650  23.152  11.613
70702W        W43017  24.113  17.158   3.198
70703W        W43018  35.107  39.349  14.433
70704W        W43019  39.972  36.364   2.261
70705W        W43020   1.738   3.942   1.387
70706W        W43021  14.255   8.417  13.064
70707W        W43022   3.069   7.437  14.907
70708W        W43023  21.060  21.753   3.640
70709W        W43024  23.238  22.042  12.045
70710W        W43025  38.896  30.089   4.416
70711W        W43026   0.812  23.171   3.313
70712W        W43027  38.241  10.107  11.042
70713W        W43028   0.218  36.857   9.828
70714W        W43029   6.487  44.952  14.819
70715W        W43030  14.786  11.622  13.605
70716W        W43031  40.326  14.181   4.764
70717W        W43032   3.086  43.979   1.620
70718W        W43033  32.509   4.741   0.467
70719W        W43034  24.038  11.772   0.533
70720W        W43035  21.135  19.693   0.268
70721W        W43036  23.928  11.109   4.114
70722W        W43037   6.015  12.132  10.658
70723W        W43038  34.414  13.367  13.876
70724W        W43039  12.461  12.447   1.521
70725W        W43040  25.163   5.300   4.271
70726W        W43041  10.626  35.607   2.856
70727W        W43042  20.914  12.751   3.592
70728W        W43043   7.756  36.771   0.993
70729W        W43044  43.936  32.098   2.276
70730W        W43045  16.324   4.466   2.332
70731W        W43046  33.696  28.897   3.718
70732W        W43047  12.345  28.659  13.943
70733W        W43048  38.135   5.189   2.354
70734W        W43049  43.211  25.969  11.601
70735W        W43050  43.694  27.253  13.430
70736W        W43051   2.699  38.968  11.534
70737W        W43052  25.695   4.251   5.439
70738W        W43053  31.139  29.559  12.816
70739W        W43054   7.618  44.243  14.377
70740W        W43055  29.201  17.182  14.823
70741W        W43056  14.554  18.743   1.405
70742W        W43057   7.454  30.021  14.795
70743W        W43058  15.183  12.375   3.854
70744W        W43059   8.855  29.603  13.300
70745W        W43060  13.698   3.525   1.879
70746W        W43061  16.742   1.035   4.219
70747W        W43062  34.091  34.531  10.771
70748W        W43063  25.202  18.046  13.480
70749W        W43064  29.385  13.702   0.420
70750W        W43065  10.642   9.167   2.810
70751W        W43066  18.555  32.416  11.115
70752W        W43067  15.288   8.196   3.545
70753W        W43068   4.034  33.007   3.135
70754W        W43069  41.623  24.256   3.701
70755W        W43070  21.194  28.538  14.294
70756W        W43071  37.107  21.671  10.666
70757W        W43072  22.586  12.737  11.167
70758W        W43073  30.184  28.507   3.208
70759W        W43074  22.931  14.316  11.501
70760W        W43075  20.645   1.915   3.718
70761W        W43076   0.507  20.044   3.463
70762W        W43077  36.859  22.116   2.806
70763W        W43078  20.201  16.257  13.464
70764W        W43079  12.595  14.456   4.266
70765W        W43080   2.942  15.514  12.053
70766W        W43081  29.209   8.751  14.951
70767W        W43082  18.837   7.298  13.218
70768W        W43083  21.782  14.868   2.713
70769W        W43084  44.996  10.703  11.281
70770W        W43085  12.054  19.222  10.006
70771W        W43086  41.968  20.050   1.819
70772W        W43087  37.685  22.710  10.638
70773W        W43088  15.541  31.998   4.262
70774W        W43089  14.016  26.409  14.951
70775W        W43090  32.941  41.421  13.033
70776W        W43091  43.736  19.676   2.900
70777W        W43092   3.516  31.867  14.475
70778W        W43093  16.417  13.316  13.513
70779W        W43094  41.059   9.556  11.507
70780W        W43095   7.075  16.981  13.049
70781W        W43096  13.549  42.416  12.100
70782W        W43097  36.766  24.989  11.490
70783W        W43098  35.497  34.193   2.931
70784W        W43099  27.475  23.455  11.673
70785W        W43100  39.364   1.529  10.590
70786W        W43101  18.281  44.572  12.944
70787W        W43102  26.422  31.205   0.832
70788W        W43103  29.275  33.168   5.367
70789W        W43104  38.069  33.096   1.738
70790W        W43105  35.102  16.243  14.534
70791W        W43106  39.368  16.983   0.847
70792W        W43107   9.274  44.522  11.430
70793W        W43108  32.908  43.965  10.314
70794W        W43109  44.564  43.373   3.656
70795W        W43110  17.614  39.137   3.513
70796W        W43111  17.757   0.273  12.431
70797W        W43112  36.526   4.675   1.967
70798W        W43113  23.734   7.227   2.203
70799W        W43114  32.969  23.412   1.446
70800W        W43115   7.133  42.467   2.859
70801W        W43116  21.823  13.431   4.414
70802W        W43117  29.252  21.539   4.480
70803W        W43118  39.247  34.960   4.392
70804W        W43119  30.606  18.577   3.773
70805W        W43120  15.113  15.225  14.401
70806W        W43121  32.460  42.459  12.910
70807W        W43122   7.191  15.033  12.879
70808W        W43123  20.128   5.327  14.535
70809W        W43124   1.930  42.866  11.061
70810W        W43125  37.766  14.018   2.427
70811W        W43126   7.827  29.146   3.297
70812W        W43127  35.101  10.875   2.427
70813W        W43128  12.799  34.047   4.227
70814W        W43129  30.953  31.141   4.645
70815W        W43130  30.042  43.903   4.424
70816W        W43131   1.260  28.125  13.984
70817W        W43132  37.813  10.692  12.845
70818W        W43133  33.563  42.165   4.574
70819W        W43134  20.726  22.320  10.175
70820W        W43135  19.970  28.679   2.874
70821W        W43136  20.854  14.443   3.129
70822W        W43137  19.814  32.968  12.075
70823W        W43138  36.858  18.225   2.554
70824W        W43139   3.705  10.744  13.205
70825W        W43140   3.016  20.077  12.459
70826W        W43141  14.723  35.535  13.022
70827W        W43142  18.550  26.034  13.282
70828W        W43143  35.930  37.783  13.532
70829W        W43144  29.515   6.100  10.553
70830W        W43145  27.954  23.568  14.320
70831W        W43146   0.346  31.010   2.265
70832W        W43147  42.444   5.680   0.482
70833W        W43148  24.746   0.887   0.745
70834W        W43149  33.354  37.049   0.073
70835W        W43150   8.218   2.512  12.459
70836W        W43151  34.831  17.584  10.845
70837W        W43152  16.687  19.590  13.456
70838W        W43153  33.694  24.461   1.992
70839W        W43154   1.289  42.061   4.752
70840W        W43155  36.843  43.078  14.550
70841W        W43156  33.623  28.753  10.783
70842W        W43157  20.507   2.767   1.361
70843W        W43158   5.788   3.969  10.853
70844W        W43159   2.710   9.909  12.907
70845W        W43160   8.086  10.226  12.426
70846W        W43161  41.554  24.599   0.843
70847W        W43162   1.238  35.496   3.265
70848W        W43163  22.508  27.333   2.918
70849W        W43164  28.743   5.614   1.764
70850W        W43165  42.262  40.056  11.579
70851W        W43166  10.441   5.934   1.809
70852W        W43167  20.361  35.863  11.076
70853W        W43168  19.316  43.741   2.896
70854W        W43169  33.966   9.165  13.425
70855W        W43170   7.908  43.063   1.448
70856W        W43171   0.905   3.408  11.560
70857W        W43172  11.714  35.857  12.115
70858W        W43173  41.895   7.278   4.214
70859W        W43174  44.879   9.653   4.122
70860W        W43175  36.112  37.301   3.196
70861W        W43176  36.402  26.185   1.904
70862W        W43177  21.424  15.000   3.427
70863W        W43178  31.403  19.674   1.804
70864W        W43179  28.464   6.345   1.741
70865W        W43180  18.388  29.242   1.791
70866W        W43181   5.794  37.587  14.436
70867W        W43182  44.935   9.012   2.480
70868W        W43183  11.145  24.288   0.854
70869W        W43184  39.125  17.622   4.170
70870W        W43185  19.044  40.772   1.312
70871W        W43186  17.685  28.174  11.249
70872W        W43187  11.609  34.314  11.820
70873W        W43188   0.818  27.929  14.243
70874W        W43189  30.139  34.616  13.066
70875W        W43190  12.502  41.807  12.350
70876W        W43191  41.321  17.760  11.606
70877W        W43192  37.766  44.549  10.773
70878W        W43193  13.652  20.239   0.255
70879W        W43194  36.443  21.045   2.114
70880W        W43195   0.447  21.227   0.464
70881W        W43196   7.120  42.287  11.190
70882W        W43197  30.617  28.997  12.902
70883W        W43198  44.296  39.588   1.584
70884W        W43199  44.813  44.565  11.956
70885W        W43200  25.157  19.791   4.529
70886W        W43201  18.369  31.192   1.594
70887W        W43202  10.974  41.463  13.888
70888W        W43203  22.915  19.742  11.455
70889W        W43204  25.527  33.678   4.437
70890W        W43205  40.351  14.962   0.456
70891W        W43206  12.433  26.236  11.049
70892W        W43207  39.645  30.087  12.021
70893W        W43208  20.575  13.591  12.323
70894W        W43209  13.081  35.103  13.544
70895W        W43210   9.168  34.459   1.437
70896W        W43211   9.430  27.522  12.100
70897W        W43212   5.922   7.978  10.427
70898W        W43213  38.915   8.291   1.213
70899W        W43214  38.367  28.930  13.100
70900W        W43215  26.530  33.063   0.809
70901W        W43216  40.607  15.823   2.195
70902W        W43217  17.021  15.249   2.464
70903W        W43218  11.688   8.813   4.545
70904W        W43219  11.789  40.925   3.611
70905W        W43220  34.325  26.623   1.328
70906W        W43221  21.052  22.330   4.742
70907W        W43222  10.694   1.413  13.453
70908W        W43223   0.759   9.278  12.438
70909W        W43224  25.967  25.122  14.687
70910W        W43225  22.098  41.457  12.440
70911W        W43226  36.388   1.039  11.121
70912W        W43227   5.313  25.614  14.497
70913W        W43228  37.009   4.220   2.447
70914W        W43229  37.106  18.256  12.097
70915W        W43230   6.883   2.578  14.316
70916W        W43231  12.222  26.284   0.558
70917W        W43232  19.147  17.542   4.949
70918W        W43233  43.515   2.918   3.158
70919W        W43234   4.899   0.791   0.127
70920W        W43235  11.857  19.761  12.361
70921W        W43236   0.469  26.165   3.255
70922W        W43237  13.715  42.701   3.592
70923W        W43238  22.684  15.226  14.714
70924W        W43239  34.543  38.981   1.265
70925W        W43240  22.895  39.395   0.951
70926W        W43241  31.661  18.279   1.316
70927W        W43242  32.348  42.855  14.325
70928W        W43243  14.838   8.201   3.256
70929W        W43244  28.077   9.923  11.108
70930W        W43245   0.402  20.017  12.477
70931W        W43246  42.250  27.668  11.644
70932W        W43247  35.326   0.058  13.635
70933W        W43248  42.372  18.515   1.815
70934W        W43249   3.443   0.241   3.151
70935W        W43250   7.579  36.883  13.222
70936W        W43251   6.564  42.320   2.912
70937W        W43252  30.241  28.565  11.623
70938W        W43253  41.472  14.865   1.472
70939W        W43254   6.670  22.029   3.927
70940W        W43255  22.740  41.847   2.798
70941W        W43256  44.882  38.010   4.404
70942W        W43257   6.232  14.044   1.429
70943W        W43258  44.473  24.211   1.969
70944W        W43259  21.534  12.704  13.404
70945W        W43260  19.103   0.092  14.771
70946W        W43261   0.012   3.870  13.742
70947W        W43262   5.257  37.619   3.689
70948W        W43263   8.899   4.301   1.531
70949W        W43264  15.743  38.911   3.818
70950W        W43265  36.658  43.294   3.590
70951W        W43266  32.492  15.138  14.968
70952W        W43267  23.603  15.716   2.807
70953W        W43268  30.723  13.904   1.277
70954W        W43269  23.144  38.020  14.407
70955W        W43270  16.595   8.395  14.799
70956W        W43271  42.495  20.114   0.113
70957W        W43272  37.950  20.322   1.818
70958W        W43273   3.294  15.158   0.078
70959W        W43274  27.087  24.076   0.976
70960W        W43275  40.266  19.572   4.184
70961W        W43276   4.283  33.903   1.870
70962W        W43277   1.689  42.790  10.618
70963W        W43278   0.421  27.858   3.255
70964W        W43279  35.659   2.026  11.946
70965W        W43280  25.105  30.600   1.766
70966W        W43281  42.508  20.125   0.944
70967W        W43282  26.111  24.432   1.332
70968W        W43283   3.208  37.524   4.647
70969W        W43284  14.954   5.138   0.227
70970W        W43285  26.489  30.144   4.104
70971W        W43286  41.280  23.156   0.436
70972W        W43287  12.684  39.348  10.676
70973W        W43288  29.702  18.579   2.753
70974W        W43289  22.472  28.588   3.710
70975W        W43290   9.042  31.666  13.914
70976W        W43291  42.994   7.765  11.823
70977W        W43292  29.041  29.484  11.912
70978W        W43293   8.657  15.860  13.088
70979W        W43294  40.276  17.615   1.645
70980W        W43295  15.242  42.081   1.266
70981W        W43296  23.192  17.093   0.649
70982W        W43297   9.140   1.472   0.607
70983W        W43298  19.747  26.592   1.665
70984W        W43299  17.560   2.705  10.656
70985W        W43300   4.767  35.715   1.928
70986W        W43301  29.201  31.436   2.380
70987W        W43302  37.419   7.938   0.781
70988W        W43303   7.150  37.835  14.494
70989W        W43304  42.348  35.753  14.935
70990W        W43305   9.832  20.789  12.421
70991W        W43306  11.681   5.969   4.502
70992W        W43307   3.352  28.697   1.001
70993W        W43308  20.068   9.300  12.100
70994W        W43309  26.025   9.882  13.861
70995W        W43310  15.473  37.183   4.751
70996W        W43311  15.228  16.561   4.400
70997W        W43312  42.111  19.392   3.248
70998W        W43313  30.653  20.647  12.127
70999W        W43314  20.039  42.412   1.397
71000W        W43315  11.717  13.883   0.333
71001W        W43316  22.774  39.683   1.756
71002W        W43317  33.859  42.804   2.985
71003W        W43318  38.189  42.431  11.423
71004W        W43319  28.224  35.548   4.175
71005W        W43320  22.193  25.150   2.298
71006W        W43321  26.205   2.763   4.623
71007W        W43322  26.178  31.433   0.407
71008W        W43323   6.303  32.520  11.184
71009W        W43324  39.072   5.411   4.840
71010W        W43325  15.793  18.533   0.842
71011W        W43326  32.838  12.808  11.427
71012W        W43327  12.378   4.792  13.391
71013W        W43328  16.628  13.092  14.781
71014W        W43329  34.899  21.547  12.971
71015W        W43330  35.344  43.413  11.578
71016W        W43331  12.131  29.538  10.651
71017W        W43332  35.124  13.568  12.673
71018W        W43333   8.234   5.609   2.546
71019W        W43334  38.410   2.809   4.312
71020W        W43335  35.974  34.010   2.838
71021W        W43336   7.715  44.251   3.731
71022W        W43337  10.248  40.285   4.596
71023W        W43338  16.720  13.668   1.408
71024W        W43339  37.856   6.222  10.406
71025W        W43340  22.326  12.433   1.385
71026W        W43341  37.347  28.047  10.507
71027W        W43342  19.291  17.752  13.165
71028W        W43343   2.305  15.239   3.490
71029W        W43344  29.820   8.031   0.397
71030W        W43345  44.307  33.811  11.964
71031W        W43346  31.108   2.368  14.816
71032W        W43347   0.496   5.825  12.873
71033W        W43348   0.382  33.242   0.804
71034W        W43349   5.783  38.491   3.824
71035W        W43350  41.820   5.995   3.004
71036W        W43351   4.357  19.855   1.669
71037W        W43352   2.188  36.879   2.649
71038W        W43353  11.585   1.051   4.374
71039W        W43354   1.090  28.530  14.246
71040W        W43355  10.263   1.292   2.167
71041W        W43356   2.542  27.588  14.476
71042W        W43357   0.791  12.717  11.519
71043W        W43358  41.731  10.317  11.646
71044W        W43359  40.666  43.349   0.845
71045W        W43360  12.668  42.302  12.319
71046W        W43361  42.448  40.098   3.190
71047W        W43362   0.066  44.175   0.302
71048W        W43363  39.847  11.660  11.547
71049W        W43364  34.094   0.937  12.978
71050W        W43365  21.337  21.572  13.427
71051W        W43366  12.338  15.822  10.747
71052W        W43367  31.856  30.489   2.979
71053W        W43368  24.736  10.683  12.358
71054W        W43369  28.834  30.590  14.191
71055W        W43370  13.919  35.614   0.396
71056W        W43371  34.127  36.393  11.124
71057W        W43372  24.390  29.654   2.233
71058W        W43373  25.091   1.673   1.302
71059W        W43374   1.878  16.807   2.108
71060W        W43375  17.168  27.255  11.526
71061W        W43376  20.093  35.681  13.499
71062W        W43377   5.302  22.772  11.996
71063W        W43378  23.016  40.847  14.005
71064W        W43379  15.121  22.581  10.591
71065W        W43380  41.982  25.717   1.880
71066W        W43381  22.020  39.033  11.960
71067W        W43382  27.953  24.227   4.297
71068W        W43383  32.560   3.951  14.866
71069W        W43384   0.893  10.251  14.265
71070W        W43385  19.239  26.823   2.314
71071W        W43386   8.873  29.001   0.925
71072W        W43387   7.796  17.328  14.963
71073W        W43388  15.335   6.762  14.256
71074W        W43389  38.876  17.759   1.802
71075W        W43390  20.296  21.495  10.653
71076W        W43391   6.254  21.721   4.325
71077W        W43392   9.378  32.450   0.298
71078W        W43393  34.886  43.330  13.552
71079W        W43394  39.949   4.108  13.336
71080W        W43395  34.551  34.258  10.812
71081W        W43396   5.744  22.074  13.542
71082W        W43397  35.969  21.466  12.039
71083W        W43398  22.368  20.214  10.120
71084W        W43399   8.789  16.545   1.092
71085W        W43400  33.768  15.778  14.803
71086W        W43401  25.226   3.413   1.412
71087W        W43402  17.255  36.535   1.024
71088W        W43403  33.329  32.046  10.468
71089W        W43404  17.200  40.728   3.367
71090W        W43405  44.063  43.499   2.258
71091W        W43406  35.018  17.000  13.587
71092W        W43407  22.990  37.236   2.733
71093W        W43408  43.019  37.405  13.158
71094W        W43409   0.813  28.267   3.699
71095W        W43410  22.019  29.590   3.837
71096W        W43411  11.715  10.875   1.262
71097W        W43412  12.005   6.076   2.778
71098W        W43413  11.215  25.226   2.918
71099W        W43414  17.666   4.424  14.301
71100W        W43415  11.120   2.932   1.837
71101W        W43416  40.058  40.022   2.891
71102W        W43417  41.280   1.623   3.582
71103W        W43418  36.434  35.970   1.576
71104W        W43419   0.411  24.112   4.024
71105W        W43420  28.517  15.289  10.790
71106W        W43421  20.986  23.674  12.034
71107W        W43422  13.701  35.663   1.334
71108W        W43423   4.555  28.168  14.791
71109W        W43424  24.779  34.669  13.324
71110W        W43425  12.689  25.376   3.710
71111W        W43426  32.306  14.541   1.294
71112W        W43427  42.096  23.657  11.494
71113W        W43428  21.731  12.069   4.174
71114W        W43429  33.609  25.966   2.617
71115W        W43430   3.779   7.351   4.735
71116W        W43431  27.087  41.293  11.142
71117W        W43432   6.845  32.839   0.819
71118W        W43433   0.844  20.662  14.542
71119W        W43434  32.575  34.058  12.003
71120W        W43435   4.954  10.198   3.279
71121W        W43436  42.917  21.284   3.138
71122W        W43437  43.492  28.906  11.449
71123W        W43438  18.617   8.352   2.808
71124W        W43439   2.298  38.673   1.012
71125W        W43440  21.078   0.908   2.431
71126W        W43441  15.283  44.991  14.120
71127W        W43442  40.566   3.308   3.371
71128W        W43443  14.574  41.033   3.246
71129W        W43444  10.190  29.256  10.318
71130W        W43445  36.550   6.344  10.286
71131W        W43446  16.843   6.720   1.918
71132W        W43447   3.464   2.136  12.793
71133W        W43448  20.011   7.019  10.619
71134W        W43449  33.994   2.773   0.738
71135W        W43450  19.655   3.342   1.204
71136W        W43451  17.874  30.980  12.898
71137W        W43452  38.317  21.518  13.815
71138W        W43453  20.654  35.331   2.157
71139W        W43454   7.869  14.261   3.091
71140W        W43455  30.576  15.812  14.319
71141W        W43456  40.056  34.014   2.797
71142W        W43457  26.149  33.495   3.198
71143W        W43458  26.661   6.199  11.024
71144W        W43459  32.336  41.245  10.631
71145W        W43460  39.359   4.600   0.059
71146W        W43461   6.136  30.579   2.263
71147W        W43462  10.283   3.244   0.652
71148W        W43463  39.049  13.188   1.343
71149W        W43464  38.042  34.367   1.205
71150W        W43465   2.746  43.128  14.561
71151W        W43466  19.949  11.833  12.444
71152W        W43467   1.724  42.498   0.391
71153W        W43468  10.760  33.549  14.307
71154W        W43469  26.022   8.806   0.133
71155W        W43470  37.863   3.802  10.515
71156W        W43471  19.773   0.587   4.997
71157W        W43472  12.224  39.509   2.947
71158W        W43473  26.798  23.564   2.722
71159W        W43474   5.337  26.654   2.918
71160W        W43475   6.915  14.097   3.349
71161W        W43476  41.579  16.969   0.006
71162W        W43477  24.218  10.236   4.532
71163W        W43478   4.740   8.174  12.615
71164W        W43479  21.408  37.249   4.259
71165W        W43480   1.812  36.927  12.564
71166W        W43481  33.078  41.888   3.254
71167W        W43482  34.843   9.912  14.898
71168W        W43483  31.147   9.119  14.665
71169W        W43484  37.572  19.972   1.755
71170W        W43485  18.053   9.408   4.682
71171W        W43486   5.756  35.963   2.295
71172W        W43487  30.193  17.672  14.294
71173W        W43488  19.271  44.218   0.908
71174W        W43489  15.360  36.404  13.998
71175W        W43490   5.694  36.200   1.814
71176W        W43491  33.381   8.157   2.255
71177W        W43492   9.974   4.307   3.660
71178W        W43493  10.753  20.604   3.431
71179W        W43494  12.367  44.327   1.750
71180W        W43495  30.575  42.867   4.952
71181W        W43496  28.503   6.418  10.188
71182W        W43497  33.985  20.005   0.712
71183W        W43498  25.011  35.690   2.445
71184W        W43499  14.307  13.284   1.842
71185W        W43500   3.839  11.917  12.003
71186W        W43501   5.414  12.014   3.329
71187W        W43502  37.312  26.313   2.655
71188W        W43503  23.023   4.985   2.292
71189W        W43504  35.076  27.357   2.204
71190W        W43505  11.716  26.024   3.178
71191W        W43506   6.576  36.892   4.189
71192W        W43507  43.771  22.037   2.718
71193W        W43508  17.203   1.998   0.402
71194W        W43509  26.377   3.449   2.203
71195W        W43510  15.901  34.410  12.514
71196W        W43511   2.497  21.498  12.367
71197W        W43512  24.452  28.193  12.044
71198W        W43513  26.250  19.625   4.024
71199W        W43514  12.181   5.837   0.269
71200W        W43515  20.568   6.126  12.774
71201W        W43516  31.072  43.029  11.873
71202W        W43517  22.992  29.907   2.904
71203W        W43518  18.750   4.322   0.320
71204W        W43519  21.176  35.803   0.893
71205W        W43520  23.878   9.188  12.063
71206W        W43521  32.243  10.098   1.164
71207W        W43522  35.293  20.259   3.126
71208W        W43523   1.203  39.067  10.825
71209W        W43524  37.420  17.376   0.350
71210W        W43525  25.189  38.592   2.200
71211W        W43526  36.089  31.641   3.066
71212W        W43527  22.565   2.569   4.008
71213W        W43528   1.818  32.824  11.467
71214W        W43529   7.383   0.445  14.133
71215W        W43530  22.305  25.681  11.097
71216W        W43531   4.921  26.767   4.675
71217W        W43532   2.105  21.567   3.665
71218W        W43533  19.736  20.624   3.936
71219W        W43534  30.117  36.787  13.016
71220W        W43535  44.264  14.242  11.545
71221W        W43536  21.426  36.024   1.349
71222W        W43537  44.011  33.909   2.772
71223W        W43538  19.865  37.062   0.495
71224W        W43539  17.067   6.290   1.712
71225W        W43540  17.193  34.085   3.200
71226W        W43541  28.584   1.755  13.513
71227W        W43542  29.896  16.811  12.529
71228W        W43543  33.807  14.803  14.883
71229W        W43544  21.961  18.161  14.209
71230W        W43545   4.238  18.113   1.285
71231W        W43546  20.560  40.784   3.173
71232W        W43547  32.087  13.559   1.739
71233W        W43548  11.829   0.976  11.695
71234W        W43549  39.368  23.124   3.187
71235W        W43550  22.995  32.562  13.783
71236W        W43551  21.178  38.807   4.947
71237W        W43552   7.428   7.389  11.588
71238W        W43553  38.847   8.408  14.782
71239W        W43554  38.383  21.278   0.165
71240W        W43555   9.631   0.464   3.634
71241W        W43556  12.011  42.128   4.447
71242W        W43557   5.712  41.773   3.982
71243W        W43558  25.661  42.861  12.832
71244W        W43559  33.668  32.476  10.404
71245W        W43560  25.423  42.562  11.576
71246W        W43561   6.689  18.853   3.751
71247W        W43562  18.850   7.462   4.553
71248W        W43563  37.197  26.603   1.729
71249W        W43564  28.206  17.782  14.519
71250W        W43565  15.142  28.030  12.065
71251W        W43566  26.732  33.133  12.979
71252W        W43567  42.284  15.343   3.913
71253W        W43568   0.739  36.150   1.747
71254W        W43569  29.012  34.774  12.412
71255W        W43570  26.461  28.555   1.018
71256W        W43571   2.907  19.501   3.771
71257W        W43572  33.476   2.567  12.298
71258W        W43573  29.124  39.734  10.491
71259W        W43574  36.880  34.872  10.925
71260W        W43575  30.652  35.663  11.015
71261W        W43576   0.916   3.437   0.352
71262W        W43577   0.299  37.759  10.690
71263W        W43578  13.607  17.082  10.612
71264W        W43579  30.658  26.614   1.782
71265W        W43580   1.374  39.578  13.982
71266W        W43581  39.683  25.530   2.889
71267W        W43582  24.920  22.476  11.381
71268W        W43583   9.386  20.506  10.673
71269W        W43584   9.771  13.014  13.807
71270W        W43585  13.155  17.517   1.358
71271W        W43586  14.056  37.902  13.526
71272W        W43587  24.596  33.111  13.768
71273W        W43588   1.306   6.668   1.170
71274W        W43589   0.207   6.973  12.384
71275W        W43590  30.911   4.281  14.765
71276W        W43591  16.414  25.428  12.482
71277W        W43592  19.737  43.819  12.323
71278W        W43593  19.653  26.429  12.992
71279W        W43594  43.759   1.354  13.905
71280W        W43595   2.109  22.087  11.083
71281W        W43596   7.914  24.566   3.232
71282W        W43597   5.355  18.070  14.825
71283W        W43598  31.551  12.337   1.173
71284W        W43599   4.960  25.817   1.303
71285W        W43600  18.225   0.081  13.087
71286W        W43601   1.275  36.845   2.323
71287W        W43602  24.755   6.229   4.668
71288W        W43603  33.454  42.395  11.922
71289W        W43604   8.473   7.136  14.908
71290W        W43605  43.933  42.233  12.091
71291W        W43606  17.281  18.515  13.030
71292W        W43607  39.345  17.948   3.634
71293W        W43608  27.067  21.303   0.811
71294W        W43609  33.521  36.468   4.595
71295W        W43610  24.446   1.778  10.175
71296W        W43611  29.373  26.894   3.593
71297W        W43612  24.939  20.579  12.986
71298W        W43613  21.177   2.811  14.882
71299W        W43614  20.087  34.890   2.710
71300W        W43615  15.848   2.348  12.306
71301W        W43616  32.033   9.686   1.463
71302W        W43617   0.920   6.456  12.473
71303W        W43618   5.334  38.589  12.455
71304W        W43619  28.141  21.006   3.647
71305W        W43620  30.133  39.346   1.384
71306W        W43621  26.972  28.584  12.809
71307W        W43622  14.066  19.600  13.096
71308W        W43623  42.233  26.771  12.982
71309W        W43624  12.926   5.716   2.648
71310W        W43625  23.535   2.957   4.205
71311W        W43626  22.150  21.235  11.432
71312W        W43627   8.395   2.025   3.184
71313W        W43628   6.745  40.769   1.396
71314W        W43629  19.253   9.168  14.477
71315W        W43630   2.476  22.900  14.197
71316W        W43631  29.552  35.594   3.316
71317W        W43632  36.851  38.933   4.637
71318W        W43633  32.930  13.647   1.430
71319W        W43634  16.843   9.118   5.520
71320W        W43635  11.221  23.264   4.242
71321W        W43636  16.970  42.347   3.709
71322W        W43637  14.728  29.061   4.515
71323W        W43638   1.915  35.285   5.078
71324W        W43639  13.389   3.778   0.970
71325W        W43640  19.558  35.043  11.542
71326W        W43641  12.229  42.841  10.993
71327W        W43642  25.179  19.421   3.195
71328W        W43643  31.181  19.808   3.686
71329W        W43644  15.583  24.890  10.141
71330W        W43645  32.943  31.664   2.702
71331W        W43646   5.158  17.120   3.665
71332W        W43647  30.633   6.866  12.078
71333W        W43648  27.235   6.923  11.167
71334W        W43649   3.859  40.624   3.727
71335W        W43650  39.735  35.160   4.087
71336W        W43651  23.448  36.734   4.635
71337W        W43652   2.146   3.370   3.817
71338W        W43653   8.903  36.771  11.211
71339W        W43654  16.223  39.108  10.583
71340W        W43655  28.065  20.464   1.800
71341W        W43656  40.041  41.749   3.396
71342W        W43657   9.481  32.904  12.427
71343W        W43658   3.838  35.536  12.908
71344W        W43659  34.012  12.262  11.682
71345W        W43660  29.412   5.879  10.999
71346W        W43661  28.734  40.889   3.180
71347W        W43662  21.260  41.262   3.208
71348W        W43663  14.053  21.537   0.495
71349W        W43664  44.465  44.439   2.193
71350W        W43665  21.045  11.579   3.332
71351W        W43666   3.510  18.108   1.683
71352W        W43667  28.047  29.565   0.961
71353W        W43668  41.844  23.571   1.233
71354W        W43669  25.625  32.322  11.536
71355W        W43670  14.654   1.383   4.581
71356W        W43671  19.476  34.064   4.001
71357W        W43672   2.936  34.433  12.414
71358W        W43673   1.351  40.186  14.405
71359W        W43674   4.330  42.219   0.813
71360W        W43675  37.542  36.513   2.430
71361W        W43676  25.988  14.496   4.134
71362W        W43677  41.012  31.536   2.282
71363W        W43678   2.715  34.243   0.290
71364W        W43679   9.172  36.803  12.135
71365W        W43680  38.658  32.086  11.104
71366W        W43681  22.596  32.593  14.188
71367W        W43682  32.599  36.479  12.207
71368W        W43683  14.244  21.550   3.870
71369W        W43684  39.432  21.080   4.615
71370W        W43685  11.095  25.089   2.436
71371W        W43686  38.339   7.289  11.077
71372W        W43687   8.086  42.664  13.861
71373W        W43688  29.426  24.570  10.566
71374W        W43689  30.627  44.446   3.204
71375W        W43690   8.201  22.910  12.577
71376W        W43691  17.801  30.106   2.793
71377W        W43692   4.874   6.422   4.520
71378W        W43693  37.730  25.205   4.223
71379W        W43694  16.142  17.029   2.344
71380W        W43695   9.153   2.492  10.517
71381W        W43696   8.683   0.483  13.091
71382W        W43697  44.735  36.046   3.834
71383W        W43698  17.497   0.677  14.888
71384W        W43699  26.353  27.978   2.816
71385W        W43700   2.667  20.587   4.597
71386W        W43701  43.472  18.702   4.554
71387W        W43702  38.850  35.555  13.374
71388W        W43703  21.568  39.353   1.195
71389W        W43704   5.157  18.076   4.228
71390W        W43705   1.327  16.415  13.661
71391W        W43706  44.327  32.572   2.553
71392W        W43707   5.482   4.103  14.022
71393W        W43708  42.335   1.212   2.251
71394W        W43709  44.657  29.740  13.925
71395W        W43710  41.800  15.687   3.314
71396W        W43711  37.954   6.121   3.688
71397W        W43712  11.120  35.806  13.863
71398W        W43713  23.041  41.200   0.036
71399W        W43714  15.421   0.333  10.214
71400W        W43715  11.404   0.623   2.611
71401W        W43716  12.229  13.846  11.971
71402W        W43717  34.772  20.469   3.772
71403W        W43718   5.324   7.407   2.922
71404W        W43719  43.061   9.800  14.525
71405W        W43720   4.698  20.360  12.106
71406W        W43721  22.459  42.457  14.966
71407W        W43722  32.868   3.853   4.530
71408W        W43723  28.726   3.778   1.366
71409W        W43724  13.266  31.047  13.371
71410W        W43725  37.053  35.420  10.667
71411W        W43726  16.191  14.177   2.150
71412W        W43727  40.327  12.209  11.890
71413W        W43728  13.749  20.160   4.142
71414W        W43729  37.846  13.397  10.572
71415W        W43730  17.344  35.444   2.341
71416W        W43731  31.427  16.745   2.282
71417W        W43732  40.627  28.580  13.649
71418W        W43733  28.873  41.405   3.167
71419W        W43734  40.497  12.346  11.431
71420W        W43735  21.717  17.591  11.614
71421W        W43736  15.777   8.287  13.904
71422W        W43737  27.590  16.093  10.735
71423W        W43738  32.444   0.685  10.510
71424W        W43739  28.165   4.761   4.776
71425W        W43740   3.704  12.298  14.388
71426W        W43741  34.131  40.485  13.470
71427W        W43742   1.666   7.625   1.837
71428W        W43743  23.270  34.713   4.178
71429W        W43744  10.719  38.812  14.536
71430W        W43745  30.626  37.301  12.309
71431W        W43746  17.668   8.172   3.293
71432W        W43747  19.080  38.532   1.740
71433W        W43748  44.841   1.213  13.452
71434W        W43749  32.036   2.066   5.109
71435W        W43750  15.658   2.729   0.875
71436W        W43751  29.624  30.991   1.358
71437W        W43752  35.939   4.816   3.824
71438W        W43753  16.307   9.413  14.080
71439W        W43754  35.650   3.688  10.462
71440W        W43755   3.681  29.987  14.330
71441W        W43756  30.867  26.857   0.385
71442W        W43757  28.637  23.240  13.948
71443W        W43758   6.792  22.490   3.590
71444W        W43759  26.552   7.307  12.830
71445W        W43760   4.050  12.092  12.426
71446W        W43761  22.563  25.538   2.900
71447W        W43762  17.604  31.882   0.081
71448W        W43763  11.500  17.538  14.369
71449W        W43764   7.872  25.920  14.841
71450W        W43765  19.710  35.172   3.881
71451W        W43766  42.945  23.459  14.987
71452W        W43767  24.654  21.666  12.133
71453W        W43768  15.976  42.813   0.304
71454W        W43769  26.893  10.442  12.964
71455W        W43770  34.480  30.704  14.321
71456W        W43771  41.047  11.584   3.818
71457W        W43772  38.102  40.256  12.010
71458W        W43773   4.976  23.193   0.998
71459W        W43774   1.907  11.906   3.360
71460W        W43775  19.174  21.104   0.016
71461W        W43776  19.680  36.099   0.867
71462W        W43777  27.605  20.725   1.687
71463W        W43778   4.892  36.011   0.336
71464W        W43779  30.126  30.934   3.614
71465W        W43780   7.178  41.870  12.471
71466W        W43781  31.964  25.986   2.368
71467W        W43782  44.351   9.195   0.225
71468W        W43783  31.615  37.942   1.077
71469W        W43784  36.289   4.416  13.453
71470W        W43785  24.585  34.103   1.223
71471W        W43786   4.046  16.740   2.917
71472W        W43787   6.225  37.412  12.569
71473W        W43788  35.404  42.310   4.142
71474W        W43789   7.293  43.250  12.406
71475W        W43790  24.610   3.510  11.787
71476W        W43791   5.335   8.181   4.542
71477W        W43792  36.955   9.995  11.566
71478W        W43793  30.065  13.569  14.812
71479W        W43794  42.760  44.406   3.324
71480W        W43795  36.481  22.767  12.022
71481W        W43796   6.425   1.153  12.586
71482W        W43797   4.264   5.320  14.771
71483W        W43798  17.321  34.825   0.045
71484W        W43799  20.746  10.707  14.622
71485W        W43800  32.001   6.347  13.903
71486W        W43801  19.087   1.215  12.903
71487W        W43802  11.158  18.638  14.562
71488W        W43803  17.259  31.986  13.281
71489W        W43804   9.908  19.034  11.157
71490W        W43805  24.247  20.192  11.500
71491W        W43806  12.426  37.449   0.772
71492W        W43807  11.567   9.257   3.143
71493W        W43808  15.608  44.812  14.483
71494W        W43809  41.570  38.285  11.106
71495W        W43810   6.440   7.864  10.608
71496W        W43811  31.970  31.983   0.747
71497W        W43812   6.433  25.326   2.828
71498W        W43813  30.221  23.834  11.789
71499W        W43814  31.571  33.564   0.761
71500W        W43815  44.352  30.456  11.587
71501W        W43816  22.684  21.992  11.555
71502W        W43817   6.834   1.327  10.673
71503W        W43818  15.159  34.291  11.444
71504W        W43819  10.253  17.831  12.027
71505W        W43820   3.323   1.643  12.346
71506W        W43821  42.938  30.028   1.686
71507W        W43822  20.064  39.141  14.300
71508W        W43823  13.892  40.758   2.389
71509W        W43824  15.168  38.812  11.372
71510W        W43825  11.756  27.590  14.469
71511W        W43826  24.951  38.039  12.512
71512W        W43827   1.010  32.168   4.585
71513W        W43828   0.295   1.646   0.643
71514W        W43829  18.132  33.943   3.253
71515W        W43830  26.291  16.037  14.794
71516W        W43831  44.243  19.572   2.905
71517W        W43832   8.301  39.564  14.875
71518W        W43833  16.689  25.167  12.994
71519W        W43834  22.801  32.138  10.592
71520W        W43835  41.416  15.290  10.980
71521W        W43836  16.112  39.943  10.616
71522W        W43837  26.669  25.014   0.928
71523W        W43838  29.949  13.741  10.705
71524W        W43839  35.907  32.530   3.263
71525W        W43840  31.113   7.753  12.361
71526W        W43841  11.714  24.192  11.588
71527W        W43842  13.120   4.092  12.960
71528W        W43843   1.012  37.389   1.322
71529W        W43844  39.904  14.233   1.050
71530W        W43845   6.194  22.141   3.374
71531W        W43846  28.976   6.240   5.106
71532W        W43847   2.977  21.040   4.584
71533W        W43848  34.658  24.921   4.024
71534W        W43849   1.377  31.036   3.204
71535W        W43850  31.876   8.778   2.701
71536W        W43851   2.285  14.279  12.859
71537W        W43852  28.027   7.443   4.886
71538W        W43853  43.841  23.245   4.657
71539W        W43854  37.799   9.604   2.744
71540W        W43855  20.296  37.784   4.301
71541W        W43856  28.906  21.728   1.753
71542W        W43857  14.077  40.425  14.886
71543W        W43858  43.866  40.346  12.181
71544W        W43859  41.279  41.569  12.859
71545W        W43860  24.468  26.067  12.814
71546W        W43861   6.273   6.608  10.694
71547W        W43862   2.987  12.309   2.882
71548W        W43863   3.368  28.462  14.500
71549W        W43864  18.580  42.928  14.294
71550W        W43865  16.273   7.320  12.950
71551W        W43866   3.234  27.117   1.401
71552W        W43867   0.324  37.665   0.819
71553W        W43868  24.776  43.814   4.221
71554W        W43869  15.997  43.077  13.753
71555W        W43870   0.801  16.758   3.684
71556W        W43871  25.070  38.437  13.255
71557W        W43872  14.750  44.504   0.796
71558W        W43873   3.166  23.708  11.946
71559W        W43874  35.222   7.621  11.723
71560W        W43875  36.772  43.840  11.410
71561W        W43876  22.295   4.122  13.576
71562W        W43877   1.631  32.965   1.722
71563W        W43878  15.273  30.737   2.902
71564W        W43879  23.703   9.871   3.277
71565W        W43880  35.378  23.074  11.667
71566W        W43881   7.024  21.072  10.715
71567W        W43882  43.265  23.709  13.540
71568W        W43883  11.269  10.716  14.218
71569W        W43884  23.477   8.672  14.732
71570W        W43885   5.014   0.796   4.138
71571W        W43886  16.878  38.089  12.021
71572W        W43887  26.058   7.928   3.173
71573W        W43888  28.127  40.527  10.182
71574W        W43889  22.084  36.370   2.958
71575W        W43890  38.371  30.027   2.128
71576W        W43891  31.958  33.045   2.668
71577W        W43892  26.094  44.500   3.017
71578W        W43893  15.183  41.575  10.581
71579W        W43894  25.345  42.887  14.495
71580W        W43895  20.967  38.198  12.172
71581W        W43896  14.151   6.775  12.334
71582W        W43897  23.549  39.531   3.774
71583W        W43898   5.223   1.261  11.978
71584W        W43899  25.702  21.733   3.757
71585W        W43900  27.081   1.036  14.370
71586W        W43901  34.021  20.508   0.738
71587W        W43902  28.112  31.977   5.049
71588W        W43903  36.740  25.010  13.472
71589W        W43904  35.489  16.421  11.996
71590W        W43905  24.305  18.651  14.507
71591W        W43906  28.531  25.278   3.220
71592W        W43907  11.727   8.156   2.850
71593W        W43908  40.819  28.851  12.264
71594W        W43909  10.456  11.656  13.072
71595W        W43910  44.439  11.131  14.979
71596W        W43911  21.993  37.169  14.190
71597W        W43912  11.307   9.581  12.703
71598W        W43913  14.841  29.929  10.681
71599W        W43914  17.827  19.120  14.390
71600W        W43915   1.946   5.684   2.649
71601W        W43916  35.384  15.442   4.911
71602W        W43917  30.011  23.288   0.454
71603W        W43918  19.620  38.765   9.787
71604W        W43919  41.895   9.007   3.277
71605W        W43920   9.774  38.368  11.174
71606W        W43921  32.044  33.990   2.916
71607W        W43922   2.883  38.581  10.341
71608W        W43923  21.982  13.688   2.077
71609W        W43924  22.048  20.953   3.647
71610W        W43925   6.405  22.755  12.887
71611W        W43926  23.715  34.842   3.453
71612W        W43927  14.615   1.263  12.425
71613W        W43928   8.136   3.223  14.318
71614W        W43929   2.971  40.925  14.912
71615W        W43930   2.151  21.005   4.134
71616W        W43931  39.434  39.618   4.057
71617W        W43932  28.056  29.866  10.696
71618W        W43933  32.108   5.373   1.964
71619W        W43934   5.041  21.035  12.666
71620W        W43935  27.147  37.908  11.440
71621W        W43936  17.074  32.459   0.901
71622W        W43937  40.827   4.914   4.798
71623W        W43938   3.607  29.474  11.605
71624W        W43939  25.021  12.741   4.559
71625W        W43940  36.846  14.154  11.071
71626W        W43941   5.817  10.640  11.163
71627W        W43942  40.900   7.628  14.134
71628W        W43943  37.510  29.460  13.404
71629W        W43944  31.976  41.891  10.462
71630W        W43945   4.199  32.536  13.884
71631W        W43946   7.771  10.327  10.146
71632W        W43947  33.351  39.269  14.790
71633W        W43948   5.931  25.292  12.554
71634W        W43949   7.832  37.646   3.900
71635W        W43950  26.472  34.281  11.686
71636W        W43951  38.010  42.754   4.045
71637W        W43952  34.304  44.462  12.816
71638W        W43953  40.079   3.361  13.987
71639W        W43954  44.991  21.544  11.469
71640W        W43955   4.279  24.511  12.886
71641W        W43956  19.835  24.803  13.463
71642W        W43957  20.331  30.001   2.898
71643W        W43958  19.723  17.977  11.200
71644W        W43959  29.998  39.952  12.449
71645W        W43960  35.884   2.945  11.103
71646W        W43961  22.004  16.819   2.793
71647W        W43962  25.453   2.337  12.862
71648W        W43963   6.231  21.567  10.856
71649W        W43964   7.615  25.027   3.268
71650W        W43965  26.388  27.201  13.976
71651W        W43966  37.936  22.219   3.680
71652W        W43967  37.402  13.086  10.759
71653W        W43968  28.001  23.619   2.176
71654W        W43969  15.245   5.784   4.136
71655W        W43970  43.338  20.353  13.488
71656W        W43971  40.829  32.497  10.614
71657W        W43972  12.936  14.592   0.814
71658W        W43973   8.025  23.784  11.113
71659W        W43974  24.944  12.957  12.444
71660W        W43975  39.450  30.529  12.918
71661W        W43976  40.296  20.986  10.559
71662W        W43977  43.054   0.643  12.898
71663W        W43978   4.744  33.557  13.410
71664W        W43979  13.667  32.710   2.956
71665W        W43980  21.915   3.613   4.061
71666W        W43981   2.755  15.359  10.847
71667W        W43982  39.532  10.145  14.871
71668W        W43983   8.149  13.526   2.115
71669W        W43984  15.744  11.178  13.247
71670W        W43985  26.248  35.423  11.568
71671W        W43986  13.668  25.828  14.416
71672W        W43987  14.183  19.582  14.396
71673W        W43988  35.901  44.076  11.117
71674W        W43989  16.331   0.344   1.741
71675W        W43990  36.811  19.775   4.502
71676W        W43991  15.764  37.601  11.178
71677W        W43992   7.420  27.652  12.587
71678W        W43993   8.899  17.620  11.606
71679W        W43994  16.095  17.079   4.582
71680W        W43995  28.755  34.201   0.907
71681W        W43996  33.408  43.029   0.936
71682W        W43997  25.189  41.791  10.919
71683W        W43998  24.506  12.463  14.459
71684W        W43999   3.407  39.487  12.869
71685W        W44000   8.465  34.613  12.112
71686W        W44001  44.066  10.893   1.457
71687W        W44002  18.706  10.103  10.536
71688W        W44003  43.488  32.610   2.742
71689W        W44004  17.090  26.075   3.854
71690W        W44005  18.579  34.981  13.410
71691W        W44006  34.003   8.226   1.268
71692W        W44007  15.875  23.161   1.322
71693W        W44008   2.374  22.113   3.672
71694W        W44009  28.654  23.026   2.396
71695W        W44010   9.199  41.642   4.988
71696W        W44011  33.491   8.959  11.691
71697W        W44012  10.603  19.528  13.996
71698W        W44013   3.721  41.260  14.019
71699W        W44014   6.506  30.094  13.851
71700W        W44015  12.546  30.847   1.263
71701W        W44016  30.206  13.646  12.158
71702W        W44017   0.881  27.537   3.231
71703W        W44018  36.875  31.163  11.058
71704W        W44019  43.720  20.293   1.266
71705W        W44020  40.239  32.714   2.363
71706W        W44021  25.428  34.028  13.096
71707W        W44022  32.419  23.602   0.282
71708W        W44023  18.610  36.847  12.297
71709W        W44024   0.553   4.260   1.937
71710W        W44025  35.421   4.830  14.115
71711W        W44026   1.922  33.378   1.550
71712W        W44027  32.478  39.400   3.144
71713W        W44028   3.900  41.212  11.103
71714W        W44029  35.436  41.205  12.025
71715W        W44030  18.345   7.410  13.418
71716W        W44031  13.248  19.604   4.672
71717W        W44032  38.387  33.283   0.334
71718W        W44033  39.794  40.908   1.367
71719W        W44034  14.214   6.419   3.075
71720W        W44035  34.006   9.674  13.445
71721W        W44036  43.061  32.505  11.528
71722W        W44037  11.454  40.964   0.811
71723W        W44038   6.060   1.687   4.556
71724W        W44039  25.896  21.505   4.192
71725W        W44040  28.449   8.888   3.334
71726W        W44041  10.403  34.109  12.456
71727W        W44042  27.788   4.706   1.614
71728W        W44043   7.795  19.578  11.134
71729W        W44044  42.437  22.288  13.027
71730W        W44045  41.932   3.495  14.770
71731W        W44046  38.788  35.464  13.870
71732W        W44047  28.703  10.260   2.658
71733W        W44048  39.797  43.050  12.092
71734W        W44049  15.781  42.410  14.155
71735W        W44050  40.247   8.756  12.331
71736W        W44051  35.840  33.911   4.184
71737W        W44052  32.357   9.734  13.021
71738W        W44053   5.313  30.606   1.430
71739W        W44054  20.103  37.296   4.297
71740W        W44055  17.688   7.923   2.828
71741W        W44056  28.167  38.438   3.592
71742W        W44057  32.000  15.727  14.513
71743W        W44058  40.837  22.956  13.374
71744W        W44059  44.899  22.408   1.778
71745W        W44060  36.062  24.003  12.010
71746W        W44061   5.075   0.466  10.718
71747W        W44062  36.544  26.710   9.920
71748W        W44063   0.194  11.682  12.138
71749W        W44064  39.442   9.152   1.304
71750W        W44065  24.201   9.510  11.306
71751W        W44066  42.323  31.628  11.652
71752W        W44067  39.510  31.155   3.186
71753W        W44068   7.847   8.855   5.251
71754W        W44069  31.561  43.235  10.331
71755W        W44070  44.693  37.521  10.349
71756W        W44071  26.584  35.550  13.980
71757W        W44072  34.366  19.718   3.234
71758W        W44073   8.075  29.929  11.605
71759W        W44074  18.978  30.656   0.775
71760W        W44075  43.931  18.719   4.823
71761W        W44076   9.926  38.055   0.908
71762W        W44077  19.831  22.476  11.533
71763W        W44078   1.912   8.314  11.911
71764W        W44079   5.702  36.605  11.065
71765W        W44080  17.286  28.761  12.639
71766W        W44081  31.871  21.797   0.460
71767W        W44082  28.557  42.193   0.899
71768W        W44083  32.847  20.689   0.885
71769W        W44084  18.658   4.431  13.852
71770W        W44085  43.746   7.687  13.784
71771W        W44086   9.558  21.617  11.933
71772W        W44087  36.303  16.720   0.245
71773W        W44088  25.851  28.059   2.888
71774W        W44089  11.694  43.913  12.135
71775W        W44090  42.431  34.084  12.671
71776W        W44091   5.732  31.815   4.653
71777W        W44092  29.983  10.315   3.874
71778W        W44093  19.794   1.504   1.402
71779W        W44094  22.745  37.170  13.564
71780W        W44095  30.131  40.484   0.504
71781W        W44096  29.965  27.945  13.867
71782W        W44097   0.329  10.265  13.546
71783W        W44098  35.012  27.877  10.629
71784W        W44099   1.435  31.580  13.949
71785W        W44100   2.019  21.061  10.718
71786W        W44101   7.352  22.643  11.980
71787W        W44102  41.677  43.903   0.706
71788W        W44103  13.514  43.652  11.101
71789W        W44104  38.691  22.226  11.456
71790W        W44105  20.496  15.797  11.625
71791W        W44106  42.989  32.506   0.021
71792W        W44107  40.306  14.353  11.048
71793W        W44108   1.287  22.611   0.011
71794W        W44109  42.975  36.712  12.469
71795W        W44110  23.493  22.252   3.571
71796W        W44111   0.387  32.172   1.559
71797W        W44112  43.737  23.375  11.594
71798W        W44113  14.576  11.822  12.145
71799W        W44114  16.559   8.747   4.091
71800W        W44115  34.829  31.903   2.784
71801W        W44116  34.422   4.291  14.298
71802W        W44117   8.600  39.004  11.161
71803W        W44118   7.914   1.369   0.408
71804W        W44119  29.462   3.418  10.720
71805W        W44120  31.437  14.356   2.922
71806W        W44121  18.705  25.742  10.667
71807W        W44122  23.300  13.724   1.207
71808W        W44123  44.047   8.272   4.608
71809W        W44124  35.057  28.920  12.119
71810W        W44125  17.697  40.454   0.326
71811W        W44126  29.031  15.875   1.818
71812W        W44127   4.165  25.745  12.466
71813W        W44128  44.224  40.411   1.766
71814W        W44129  21.491  44.580  13.377
71815W        W44130  36.936  22.750   1.970
71816W        W44131  29.973  31.412   2.679
71817W        W44132  11.758   7.347   0.372
71818W        W44133  12.950  13.894  12.176
71819W        W44134   1.525  17.696  10.737
71820W        W44135  36.142  16.997   2.134
71821W        W44136  23.753   0.934  12.930
71822W        W44137  34.133   2.737   1.252
71823W        W44138  43.413  20.501   2.750
71824W        W44139   0.544  43.224   0.321
71825W        W44140   0.809   0.919   0.790
71826W        W44141  22.154   7.633   1.555
71827W        W44142  43.721  39.029  11.180
71828W        W44143  16.311  27.278   3.721
71829W        W44144  37.393  34.009  14.750
71830W        W44145  36.413  22.527  13.369
71831W        W44146  31.005  19.501   0.890
71832W        W44147  29.977  28.114   3.937
71833W        W44148  11.206  40.691   3.089
71834W        W44149  32.599  12.025   2.678
71835W        W44150  27.692  44.505   2.831
71836W        W44151  43.690  15.352   4.131
71837W        W44152  24.701  39.305   0.310
71838W        W44153  11.412  32.565  11.936
71839W        W44154  18.862  21.290  11.616
71840W        W44155  25.950   9.884  13.343
71841W        W44156  40.044   3.356   1.818
71842W        W44157  20.018  27.246  14.035
71843W        W44158  20.914  14.828   4.302
71844W        W44159  11.665  35.024  10.744
71845W        W44160  37.018  36.565  10.568
71846W        W44161  28.450  12.622   0.461
71847W        W44162  35.836   8.723  11.441
71848W        W44163  41.202   0.025   1.810
71849W        W44164  38.868   6.969  11.140
71850W        W44165  29.302  33.580  12.858
71851W        W44166  42.990  18.030   2.809
71852W        W44167  25.328  13.555  14.432
71853W        W44168  10.822  38.528   2.620
71854W        W44169  20.131  33.746   0.810
71855W        W44170  13.949  14.614   1.982
71856W        W44171  33.236   8.062  11.388
71857W        W44172  18.555  35.446   1.699
71858W        W44173  32.130  34.770  13.459
71859W        W44174  15.324  44.257  13.104
71860W        W44175  32.147  17.267   2.474
71861W        W44176  18.108   0.988  11.381
71862W        W44177  13.607  31.496   2.149
71863W        W44178  11.353  24.803  12.081
71864W        W44179  29.927   6.355   4.139
71865W        W44180   6.874  22.405  13.979
71866W        W44181  27.222  43.568   1.840
71867W        W44182  25.882  37.958   2.694
71868W        W44183  18.085  17.143  11.613
71869W        W44184  38.587  42.590   0.625
71870W        W44185  18.852  29.594   3.238
71871W        W44186  21.306  18.806  13.061
71872W        W44187  37.850  23.723   5.132
71873W        W44188  15.901  18.283  10.247
71874W        W44189  14.635  31.335  13.440
71875W        W44190  15.336  41.058   1.440
71876W        W44191  30.692  37.844   0.289
71877W        W44192   1.341  28.318  11.976
71878W        W44193  31.915  23.759  12.438
71879W        W44194  38.191  37.391  11.387
71880W        W44195  32.666  26.750   3.932
71881W        W44196  34.915  18.194   4.357
71882W        W44197  10.816  11.154   2.698
71883W        W44198   4.733   8.654   1.894
71884W        W44199  13.743  12.518  10.594
71885W        W44200  30.951  21.739   0.351
71886W        W44201  13.636  40.854   0.196
71887W        W44202  25.045  20.795   3.371
71888W        W44203  20.270  15.555   2.290
71889W        W44204  30.028   2.480   0.662
71890W        W44205  14.233  27.021  11.344
71891W        W44206   5.782  31.872  12.524
71892W        W44207  10.055  22.654   2.436
71893W        W44208  31.062   5.980  14.457
71894W        W44209  24.181  18.478   2.460
71895W        W44210  22.208   9.469   4.084
71896W        W44211  36.408  40.949   3.232
71897W        W44212   3.862  23.279  14.867
71898W        W44213  36.673  30.641   4.448
71899W        W44214  20.189   4.797   2.001
71900W        W44215  16.123   0.452  13.163
71901W        W44216  34.448   8.873   1.682
71902W        W44217  29.628  39.322   1.829
71903W        W44218   6.453   3.919   0.612
71904W        W44219   1.126   7.707  12.913
71905W        W44220  43.519  19.039   4.146
71906W        W44221  11.669   7.824   4.167
71907W        W44222  13.584  39.985   4.411
71908W        W44223  14.131   5.370  11.615
71909W        W44224  41.511  23.778  12.598
71910W        W44225  27.901  34.039   3.696
71911W        W44226  11.068  26.629   1.664
71912W        W44227  34.439  27.068   2.496
71913W        W44228  11.636  29.589  11.928
71914W        W44229  18.575   7.440  14.726
71915W        W44230   4.514  21.801   0.652
71916W        W44231  36.013  24.686   4.288
71917W        W44232  39.820  34.477  10.858
71918W        W44233  41.265  33.351  13.724
71919W        W44234   7.921   8.248  13.598
71920W        W44235  13.045  34.741  12.508
71921W        W44236  38.360  21.195   1.154
71922W        W44237   5.701  25.819  11.659
71923W        W44238  18.559  29.267   0.417
71924W        W44239  25.853   8.651   1.428
71925W        W44240  24.095  26.034  11.051
71926W        W44241  13.312  14.228   0.786
71927W        W44242  10.339  33.445   0.928
71928W        W44243   2.636  44.173   4.426
71929W        W44244  23.949  43.340  11.467
71930W        W44245  41.963   3.570  12.894
71931W        W44246  43.216  20.985   2.827
71932W        W44247  41.019  37.486  13.131
71933W        W44248  41.009  11.562   0.305
71934W        W44249  29.488  15.527   4.286
71935W        W44250  35.412  25.752   1.405
71936W        W44251  36.129  40.135  14.582
71937W        W44252   5.016  25.474  12.556
71938W        W44253  44.018  37.896  14.367
71939W        W44254  19.108  33.021   0.390
71940W        W44255  38.710  24.515  12.880
71941W        W44256   8.716   8.255  13.047
71942W        W44257  13.985  15.351   2.784
71943W        W44258  12.816  12.757   2.733
71944W        W44259  15.389   4.703   2.214
71945W        W44260  33.262  20.142  12.415
71946W        W44261  19.610  28.407   0.347
71947W        W44262  34.050  41.077  10.937
71948W        W44263   5.946  38.458  11.070
71949W        W44264  17.864  14.166  14.293
71950W        W44265  19.020  35.141  13.638
71951W        W44266  11.285  43.761   4.180
71952W        W44267   2.445   2.277  11.545
71953W        W44268  25.934  13.827  12.339
71954W        W44269   5.252  35.911   2.099
71955W        W44270   0.380  35.608   0.793
71956W        W44271  28.523  14.442  10.723
71957W        W44272   3.029   1.928   2.951
71958W        W44273   9.724  14.428   3.789
71959W        W44274  14.704  37.658   3.915
71960W        W44275  33.019   4.393  13.990
71961W        W44276  21.600  16.397   2.823
71962W        W44277  24.471  38.654  12.680
71963W        W44278  38.680  26.071  13.907
71964W        W44279  16.009  42.144  13.780
71965W        W44280   3.706   2.963   2.437
71966W        W44281  32.681  14.839  13.018
71967W        W44282  19.009  38.741   4.700
71968W        W44283   9.648  41.144  14.746
71969W        W44284  28.515  12.714   1.990
71970W        W44285  30.028   9.652   3.755
71971W        W44286  19.510  26.682  14.317
71972W        W44287  21.275  29.867  14.009
71973W        W44288   7.706  41.153   3.623
71974W        W44289   9.994   6.747  11.997
71975W        W44290  36.789  30.485   1.366
71976W        W44291   8.801  10.365  14.407
71977W        W44292  41.599  36.495   4.966
71978W        W44293   5.106  24.661   0.291
71979W        W44294  14.539  43.806  14.449
71980W        W44295   2.227  20.045   4.080
71981W        W44296   9.517  11.838   0.066
71982W        W44297  41.068  32.228  10.222
71983W        W44298  12.112  22.671  10.537
71984W        W44299   9.983   3.493  14.169
71985W        W44300  31.119  20.100   3.212
71986W        W44301   9.206   7.923   1.375
71987W        W44302  34.002  40.765  12.841
71988W        W44303  18.252  30.662   2.386
71989W        W44304  39.390  26.095   5.660
71990W        W44305   5.216   7.315  12.956
71991W        W44306  38.338   6.815  14.882
71992W        W44307  17.457  18.536  12.512
71993W        W44308  29.746  14.136  11.558
71994W        W44309  19.343   5.947   3.932
71995W        W44310  30.889  42.040  10.906
71996W        W44311  21.076  36.276  12.270
71997W        W44312   3.708  22.928  11.555
71998W        W44313   6.255  17.724   1.872
71999W        W44314  12.333  43.869   3.814
72000W        W44315  40.430  26.513   0.292
72001W        W44316  25.666   0.339   4.087
72002W        W44317  23.494  10.916   1.837
72003W        W44318  37.436  12.695   3.032
72004W        W44319  42.087   8.301  12.871
72005W        W44320  14.685  33.625  11.227
72006W        W44321  37.576   7.942   4.119
72007W        W44322  20.591   5.153  10.755
72008W        W44323  17.894  11.088  11.947
72009W        W44324  44.393  19.151  13.728
72010W        W44325  40.584  27.486   0.253
72011W        W44326  11.678  37.070   0.314
72012W        W44327  24.004  42.875  10.685
72013W        W44328  25.464  18.656  12.910
72014W        W44329  43.825  21.850  12.275
72015W        W44330   7.723   5.017   3.605
72016W        W44331  35.677   8.971   4.953
72017W        W44332  37.576  39.588   1.130
72018W        W44333   0.973  12.292  14.898
72019W        W44334  38.564  22.941   3.265
72020W        W44335  18.958  13.753   3.165
72021W        W44336   6.133  24.864   1.943
72022W        W44337  16.132  23.420   2.290
72023W        W44338  39.818  17.343  11.101
72024W        W44339   1.774   6.766   0.973
72025W        W44340  26.794   7.197   4.641
72026W        W44341  14.375   5.646  10.908
72027W        W44342  43.390   2.939   0.791
72028W        W44343  34.984   7.416   1.557
72029W        W44344   9.363  35.466   5.014
72030W        W44345  13.767   8.483  12.873
72031W        W44346   9.004  43.318  10.794
72032W        W44347  35.870   0.735  12.088
72033W        W44348   0.673  10.073  10.772
72034W        W44349  42.517  36.462  10.580
72035W        W44350  34.164  41.484  14.500
72036W        W44351  40.836  43.110  10.713
72037W        W44352  12.643  43.134  11.983
72038W        W44353  23.559  19.807   4.652
72039W        W44354   5.917  33.404  13.563
72040W        W44355  33.170  13.205   3.183
72041W        W44356  19.160  17.261  10.653
72042W        W44357  18.052  11.544   3.531
72043W        W44358  27.201  22.935   4.305
72044W        W44359  11.778  28.701   1.800
72045W        W44360  30.427  23.686   3.945
72046W        W44361  41.067  36.117  12.976
72047W        W44362  26.227  35.072   0.817
72048W        W44363  23.338  11.315  11.167
72049W        W44364  25.480  12.326  11.118
72050W        W44365  21.263  17.660   2.211
72051W        W44366  12.385  14.291   3.746
72052W        W44367   7.181  24.516  13.462
72053W        W44368  28.363  38.246   0.726
72054W        W44369  15.136   3.192  12.438
72055W        W44370   6.417  26.556  14.413
72056W        W44371  17.037   7.256  12.965
72057W        W44372  39.415  32.011  10.345
72058W        W44373  11.862  25.626   0.788
72059W        W44374  38.839  40.922  11.051
72060W        W44375   5.357   5.353   1.368
72061W        W44376  41.906  43.432   0.252
72062W        W44377   5.737   2.770  13.957
72063W        W44378  36.385  40.362   2.366
72064W        W44379  16.180  35.009   2.794
72065W        W44380  11.689  17.806   2.853
72066W        W44381   6.730  34.407  12.481
72067W        W44382  27.159  23.239  14.319
72068W        W44383  26.217   3.744  13.768
72069W        W44384   2.240  44.579   2.857
72070W        W44385  38.528   8.148   2.233
72071W        W44386  35.523  11.621   2.625
72072W        W44387  44.007  13.182  12.620
72073W        W44388  30.368  22.358   4.206
72074W        W44389  20.138  13.591  11.960
72075W        W44390   8.779  16.066   4.191
72076W        W44391   0.809  37.625  10.670
72077W        W44392   3.458  35.567   0.318
72078W        W44393  32.342   5.199   4.165
72079W        W44394  27.530  44.283  13.047
72080W        W44395  30.962  23.252   0.525
72081W        W44396  43.139  33.170   1.932
72082W        W44397  17.243   2.832  12.501
72083W        W44398  17.700  19.618  10.390
72084W        W44399   3.212  19.496   0.186
72085W        W44400  13.159  14.010  13.005
72086W        W44401  21.492  23.596  13.511
72087W        W44402   6.882  20.049   3.335
72088W        W44403  17.142  17.054  10.611
72089W        W44404   1.070  14.620   0.789
72090W        W44405  19.304  27.896   3.110
72091W        W44406  12.888  38.604   4.185
72092W        W44407  22.741   1.925  12.556
72093W        W44408  27.025   2.288   0.957
72094W        W44409  15.845  40.457  11.504
72095W        W44410  33.831  36.875  12.335
72096W        W44411  43.971  40.818  10.583
72097W        W44412  33.441   0.201  11.067
72098W        W44413   0.483  11.672   0.312
72099W        W44414  38.155  36.837   3.049
72100W        W44415  15.358  36.414  14.945
72101W        W44416  27.860  38.856   3.711
72102W        W44417   3.707  25.196  11.108
72103W        W44418   5.724  35.853  14.896
72104W        W44419  26.325  14.273  11.330
72105W        W44420  33.666  42.680   0.670
72106W        W44421  18.126  37.072  12.867
72107W        W44422  25.969  19.573  13.038
72108W        W44423  37.979  44.872   4.536
72109W        W44424   4.704  28.599   2.523
72110W        W44425  24.757  16.521  14.874
72111W        W44426  10.449  26.153   1.015
72112W        W44427  25.030  33.357   5.046
72113W        W44428  22.773  41.839  10.813
72114W        W44429  30.489   8.288  14.892
72115W        W44430   7.839   6.464   5.352
72116W        W44431  30.870   5.779  10.804
72117W        W44432   6.419   5.702  11.958
72118W        W44433  35.935  29.447  13.783
72119W        W44434  14.558   5.843   0.904
72120W        W44435  19.812  29.153   1.874
72121W        W44436  15.234  21.559  14.243
72122W        W44437   4.256  18.241   4.396
72123W        W44438   1.000  19.795   3.070
72124W        W44439  35.675   1.358  13.403
72125W        W44440   6.374   2.249  10.661
72126W        W44441   3.203  33.161  11.030
72127W        W44442  13.199   1.186  11.151
72128W        W44443  33.312  24.610  13.971
72129W        W44444  42.289  34.833  13.938
72130W        W44445  16.331  19.736   2.749
72131W        W44446  26.186  19.115  12.908
72132W        W44447  29.846  42.324  12.524
72133W        W44448  29.375  24.628  13.969
72134W        W44449   9.947  41.530   2.719
72135W        W44450   8.346   3.373   3.324
72136W        W44451  27.635  33.561  11.590
72137W        W44452  21.166  15.392   4.499
72138W        W44453  15.270  43.747  14.799
72139W        W44454   2.921  13.394   0.375
72140W        W44455  14.667  36.171   2.198
72141W        W44456  37.545  10.230  14.910
72142W        W44457   6.758   8.278   2.419
72143W        W44458  23.634  18.168   9.976
72144W        W44459   4.961  42.424  13.353
72145W        W44460  37.405  40.060   3.814
72146W        W44461   5.246  18.337   1.147
72147W        W44462  15.922  43.287   4.582
72148W        W44463  17.116   2.826   0.045
72149W        W44464  17.059  23.998  13.782
72150W        W44465  20.518  32.533  14.660
72151W        W44466  20.255  24.604  14.755
72152W        W44467  44.033  39.157  12.168
72153W        W44468  14.665   0.836  13.999
72154W        W44469  22.490  18.849   9.823
72155W        W44470  38.267   5.123   3.712
72156W        W44471  29.194  22.934   1.287
72157W        W44472  28.487   2.001   3.286
72158W        W44473  18.794  21.769   1.770
72159W        W44474   8.876  43.435   1.771
72160W        W44475   6.358  25.039   4.618
72161W        W44476  17.479   2.516  14.817
72162W        W44477   2.793  34.285  11.931
72163W        W44478  11.291  36.166  12.198
72164W        W44479  26.110  16.579  13.748
72165W        W44480   6.368   1.320  13.488
72166W        W44481  39.742  34.927   4.567
72167W        W44482  15.286  17.522   0.822
72168W        W44483  15.047   1.262   4.935
72169W        W44484  38.177  24.573  12.836
72170W        W44485  38.398  38.800  12.044
72171W        W44486  13.799  35.943   4.662
72172W        W44487  41.947   0.187   2.736
72173W        W44488  10.658  27.552  14.511
72174W        W44489  41.448  10.783   1.184
72175W        W44490   6.725  26.983  13.955
72176W        W44491  22.076   7.249   2.885
72177W        W44492  19.849  19.383  11.119
72178W        W44493  31.875  11.156   1.041
72179W        W44494  35.355  16.771  13.891
72180W        W44495  31.923  40.306  13.318
72181W        W44496  12.796  36.079   2.366
72182W        W44497  37.116   5.184  12.338
72183W        W44498  32.635   9.700   4.298
72184W        W44499  33.436  23.184  11.047
72185W        W44500  11.186  31.875   1.092
72186W        W44501  19.536  41.766   1.713
72187W        W44502  40.890  12.237  12.282
72188W        W44503  40.815   7.146  14.292
72189W        W44504  25.715  24.239   4.049
72190W        W44505   7.254  38.419  11.051
72191W        W44506  36.860  38.076   0.398
72192W        W44507  44.942  33.520  14.909
72193W        W44508  16.245  27.115   3.232
72194W        W44509   9.719  18.707  11.535
72195W        W44510   5.134   2.898  11.586
72196W        W44511   3.464  33.860  11.513
72197W        W44512  22.489  22.063  13.060
72198W        W44513  14.147   4.944   4.723
72199W        W44514  26.017  14.098   0.296
72200W        W44515   5.991  39.301   2.293
72201W        W44516   8.119   2.374  11.963
72202W        W44517   9.557  40.716  11.542
72203W        W44518  41.997  29.938   0.405
72204W        W44519  33.546   3.456  12.754
72205W        W44520  19.722  14.495  11.096
72206W        W44521  17.204   4.957   2.415
72207W        W44522  33.390  11.432   4.556
72208W        W44523  11.008   4.251  11.273
72209W        W44524   5.611  36.322   2.639
72210W        W44525   5.830  19.126  13.035
72211W        W44526  15.652  18.232  12.438
72212W        W44527   9.480  20.163   1.092
72213W        W44528  17.180  17.000  14.291
72214W        W44529  15.402  32.038  11.600
72215W        W44530  10.612   7.850  14.792
72216W        W44531  12.362  22.794  13.921
72217W        W44532   8.309  17.605  11.632
72218W        W44533  33.837  17.240  10.553
72219W        W44534  15.743  30.383  13.047
72220W        W44535  29.691  21.115  12.934
72221W        W44536  31.475  27.125  11.548
72222W        W44537   3.722   4.233   1.199
72223W        W44538  12.576   0.290   0.451
72224W        W44539  39.031  44.283  14.752
72225W        W44540  19.672  37.508   0.722
72226W        W44541  14.756  42.983   0.928
72227W        W44542  25.891  24.972   4.115
72228W        W44543  43.767  44.355   2.376
72229W        W44544   6.337  10.277  13.864
72230W        W44545   9.238  24.617  14.014
72231W        W44546  22.994  34.537  11.571
72232W        W44547  33.060  42.602  12.156
72233W        W44548  11.288  26.163   4.996
72234W        W44549  18.786   8.613  12.923
72235W        W44550  33.982  35.902  13.875
72236W        W44551  18.588   7.920   4.597
72237W        W44552  19.081  25.187  12.934
72238W        W44553  12.457  24.158   0.303
72239W        W44554  29.415  13.412   3.072
72240W        W44555  32.079  16.331   1.110
72241W        W44556  35.068  25.850  11.524
72242W        W44557   7.940  10.837   4.824
72243W        W44558   1.415  24.689  13.832
72244W        W44559  37.993   3.052  13.117
72245W        W44560  39.937  43.855  13.062
72246W        W44561  20.020  41.959   1.645
72247W        W44562  12.825   3.031  13.038
72248W        W44563  14.376  14.632   3.787
72249W        W44564  34.983  16.505  11.570
72250W        W44565  19.078  16.526  13.480
72251W        W44566  14.288  38.796  11.429
72252W        W44567  32.524  43.393  12.478
72253W        W44568  43.833  19.655  10.850
72254W        W44569  22.736  14.568   4.623
72255W        W44570  31.465  27.104  10.834
72256W        W44571  15.601   9.038  10.728
72257W        W44572  43.549  39.031  12.049
72258W        W44573  28.640  16.309   2.564
72259W        W44574  36.560   4.807  11.443
72260W        W44575  43.362  23.737  14.506
72261W        W44576  29.361  19.430  14.989
72262W        W44577   8.505  21.903   0.802
72263W        W44578   5.305   4.405  10.828
72264W        W44579  39.350  12.030  11.647
72265W        W44580  19.315  23.761   1.280
72266W        W44581  30.420   0.499   1.334
72267W        W44582  44.533  10.190   0.519
72268W        W44583   5.988  37.361   4.554
72269W        W44584  30.047  25.860  10.874
72270W        W44585  23.031  23.010  14.915
72271W        W44586  33.027  19.776  13.913
72272W        W44587  20.133   4.932  10.575
72273W        W44588  20.663  19.296  11.473
72274W        W44589   1.545  14.884   1.846
72275W        W44590  10.871  17.796  10.221
72276W        W44591  25.283  29.975   3.291
72277W        W44592  37.316   5.119  12.827
72278W        W44593  27.474  36.477   0.860
72279W        W44594  14.863  21.296   0.760
72280W        W44595  13.595  32.324   4.259
72281W        W44596   9.638   1.501   3.381
72282W        W44597   9.380  12.944  14.926
72283W        W44598  10.069  42.357   0.810
72284W        W44599  44.355  40.499   3.126
72285W        W44600  26.463  15.711   0.796
72286W        W44601  42.613  31.636  11.201
72287W        W44602  12.159  42.404  12.143
72288W        W44603  27.048  34.544  12.479
72289W        W44604  27.550   4.040  10.237
72290W        W44605  41.450   5.282   0.325
72291W        W44606  31.082  22.578   3.120
72292W        W44607  31.820  38.335  12.879
72293W        W44608  26.884  11.851   3.980
72294W        W44609  10.817  13.664   0.361
72295W        W44610   5.706  29.467   2.905
72296W        W44611   2.466  18.748  11.409
72297W        W44612  34.421  22.068   2.459
72298W        W44613  17.590   7.287   0.588
72299W        W44614  23.590  22.690  13.586
72300W        W44615  14.311  20.534  11.134
72301W        W44616  44.109  14.632   2.384
72302W        W44617  29.653  34.926  11.710
72303W        W44618  17.761  11.409   5.495
72304W        W44619  42.738  20.249   1.454
72305W        W44620  16.913  30.205  13.514
72306W        W44621  28.923  28.785   1.271
72307W        W44622  20.142  22.220   4.738
72308W        W44623  21.703  44.812  10.719
72309W        W44624  30.458  25.799  12.434
72310W        W44625   8.861  11.283   1.800
72311W        W44626  14.724  23.122   2.247
72312W        W44627  35.088  27.664   0.798
72313W        W44628  10.326  43.122  10.990
72314W        W44629  10.544  36.438   4.646
72315W        W44630  41.566  18.160   4.673
72316W        W44631  39.368   5.716   2.883
72317W        W44632  13.732  10.634  12.508
72318W        W44633  28.720  29.458   3.824
72319W        W44634  12.350  14.590   1.676
72320W        W44635  32.200  16.713   1.852
72321W        W44636   1.801  12.869  10.583
72322W        W44637  21.214  29.028  14.995
72323W        W44638  30.817  31.585   3.672
72324W        W44639  16.603   5.400  11.067
72325W        W44640   9.808   8.754   2.868
72326W        W44641  16.680  35.732   4.638
72327W        W44642  27.859   4.974  11.531
72328W        W44643  25.160  43.244   4.806
72329W        W44644  23.782  27.429   4.747
72330W        W44645  36.063  44.424   1.966
72331W        W44646  35.797  19.016  12.096
72332W        W44647   3.011  28.087  11.543
72333W        W44648  27.191  13.254   2.876
72334W        W44649  11.713  13.293  10.979
72335W        W44650   1.396  15.801  14.875
72336W        W44651  39.529  37.552   4.518
72337W        W44652   8.238  30.894   2.868
72338W        W44653  23.215  13.723   2.850
72339W        W44654  27.353   4.438   0.364
72340W        W44655  25.001   2.013   3.329
72341W        W44656  21.516  12.301  10.642
72342W        W44657  25.805  43.912   4.332
72343W        W44658   6.332  22.442   3.785
72344W        W44659  19.648  42.928  14.415
72345W        W44660  35.844  31.962   2.193
72346W        W44661  40.611  14.402  13.469
72347W        W44662  28.649   4.772  14.096
72348W        W44663  37.821   1.338  10.523
72349W        W44664   9.367  22.269  14.057
72350W        W44665  35.120  43.857  13.832
72351W        W44666   7.798  40.645   3.636
72352W        W44667  30.890  23.638  11.483
72353W        W44668  32.437  43.101   1.734
72354W        W44669  38.390   2.230  11.479
72355W        W44670  35.026   7.170   1.097
72356W        W44671   2.791  12.069  13.470
72357W        W44672  30.266  10.843   1.314
72358W        W44673   3.032   1.083   2.845
72359W        W44674  15.137  10.153  14.923
72360W        W44675  30.596  42.957   2.200
72361W        W44676  14.354  28.353  12.875
72362W        W44677  25.494  25.528   1.199
72363W        W44678  40.892  38.430   3.397
72364W        W44679  31.135  27.926   1.813
72365W        W44680  11.101  32.349   0.928
72366W        W44681  32.295  10.445  12.679
72367W        W44682  14.129   9.578  10.614
72368W        W44683   2.316   0.769   1.463
72369W        W44684  19.565   0.287   2.011
72370W        W44685  15.146  24.868   0.875
72371W        W44686  26.948  37.385  12.570
72372W        W44687  17.686  33.941  10.440
72373W        W44688   6.881  30.661   2.952
72374W        W44689  39.335  36.597   2.791
72375W        W44690  25.829  13.663  14.359
72376W        W44691  34.417  40.803   2.168
72377W        W44692  18.698  24.522   3.161
72378W        W44693  38.446  31.176  14.404
72379W        W44694  33.891  44.956  14.264
72380W        W44695  12.561  42.641  11.922
72381W        W44696  32.406  33.640   1.834
72382W        W44697  37.422  40.589  12.449
72383W        W44698  13.238   0.991  10.608
72384W        W44699  21.046   6.724  12.103
72385W        W44700  17.311   6.835  13.042
72386W        W44701   8.623  43.799   4.194
72387W        W44702  18.098   5.784  10.750
72388W        W44703  26.050  13.192   4.371
72389W        W44704   9.608  28.445  12.518
72390W        W44705  15.205   5.695  13.578
72391W        W44706  31.007  20.407   1.413
72392W        W44707  20.943  17.867  12.016
72393W        W44708  39.206  22.389  11.601
72394W        W44709   5.918  22.122   2.658
72395W        W44710  30.196  36.046  11.788
72396W        W44711  12.458  38.979  11.538
72397W        W44712  35.885  39.091  12.985
72398W        W44713   9.837  44.739  11.966
72399W        W44714   7.665  21.190  14.504
72400W        W44715  17.000  29.611  12.933
72401W        W44716  22.284  23.554   4.480
72402W        W44717  23.605   8.355  11.585
72403W        W44718  20.234  35.359  13.883
72404W        W44719  31.857  24.492  14.778
72405W        W44720  11.649  21.153  12.663
72406W        W44721  23.378  21.778   3.735
72407W        W44722  35.895  13.868   0.903
72408W        W44723  33.578  15.510  13.156
72409W        W44724  23.104  27.021   2.837
72410W        W44725  19.656  15.691   1.462
72411W        W44726  34.325   5.168   1.787
72412W        W44727  18.107  34.408  12.823
72413W        W44728  38.486  10.530  12.351
72414W        W44729   2.858  12.644  14.324
72415W        W44730  41.104  39.123  10.548
72416W        W44731  16.176  15.231  10.326
72417W        W44732  35.367  16.309   3.302
72418W        W44733  30.360  19.167   2.500
72419W        W44734  27.998  42.366   2.782
72420W        W44735  25.926   0.489   2.891
72421W        W44736  22.775  21.674  10.403
72422W        W44737  17.657  36.809  10.648
72423W        W44738  30.557  22.083   0.654
72424W        W44739  26.225   9.935  12.901
72425W        W44740   2.325  34.935   2.713
72426W        W44741  25.132  29.545   4.497
72427W        W44742  20.494  29.487   3.688
72428W        W44743  17.205   0.270  14.712
72429W        W44744  23.947  40.447  14.922
72430W        W44745  15.991  21.088   2.298
72431W        W44746  36.822  10.177  10.550
72432W        W44747  10.371  17.630  12.524
72433W        W44748  34.844   6.691  14.867
72434W        W44749  34.891  24.605  12.624
72435W        W44750  27.997  14.793   1.850
72436W        W44751  34.452  29.834   1.387
72437W        W44752   2.437  44.355  13.929
72438W        W44753  37.427   7.264  14.509
72439W        W44754  22.807   0.478   9.817
72440W        W44755  14.606   2.464   2.316
72441W        W44756   4.680  15.357   4.111
72442W        W44757  40.318  41.466   0.156
72443W        W44758  32.461  28.760   1.421
72444W        W44759   3.380   2.031   5.055
72445W        W44760  38.209  20.906  14.363
72446W        W44761  27.954  23.475  13.010
72447W        W44762   9.832  35.533  14.048
72448W        W44763  17.614   1.940  13.375
72449W        W44764  22.674   5.412  10.987
72450W        W44765   7.759  38.214  11.063
72451W        W44766   8.855  40.327  13.968
72452W        W44767  10.771  42.873  11.157
72453W        W44768  18.546  26.818   3.172
72454W        W44769  25.093  34.477   4.578
72455W        W44770  14.046   5.963   0.962
72456W        W44771  25.217  29.528   0.255
72457W        W44772  36.492  38.778  12.970
72458W        W44773  28.502  44.723  10.616
72459W        W44774   0.316  12.760   4.664
72460W        W44775  23.223  23.694   0.125
72461W        W44776   2.710  41.629   1.888
72462W        W44777  11.837  24.454  11.145
72463W        W44778  42.264  39.030  12.350
72464W        W44779  22.636   9.674  12.523
72465W        W44780  28.109  11.564  10.512
72466W        W44781  23.786  23.117  14.360
72467W        W44782  21.265  12.574   1.017
72468W        W44783  44.381   3.025  13.553
72469W        W44784  11.123   9.226  13.612
72470W        W44785  26.406  24.407   2.370
72471W        W44786   6.833   3.979   1.253
72472W        W44787   1.881  34.879  12.494
72473W        W44788  30.566  28.682  12.483
72474W        W44789  20.143  40.094  13.784
72475W        W44790  40.317  31.094   1.201
72476W        W44791  31.963   6.145   3.472
72477W        W44792   1.294  23.714  13.577
72478W        W44793  26.185  25.577   0.419
72479W        W44794  23.812  42.509  13.513
72480W        W44795  26.367  42.732   0.331
72481W        W44796  38.420  17.279   1.249
72482W        W44797  18.715  28.858   4.998
72483W        W44798  26.534  15.816  12.886
72484W        W44799   3.225  17.634   0.322
72485W        W44800  39.993   4.246  11.091
72486W        W44801  33.769  44.517  10.009
72487W        W44802  28.173  27.984   1.593
72488W        W44803  17.108  14.737  13.770
72489W        W44804  32.675  42.973  13.938
72490W        W44805  43.937  21.185  14.204
72491W        W44806  14.261   7.270   0.422
72492W        W44807  26.483   3.751   4.364
72493W        W44808  41.858  37.409  11.869
72494W        W44809  15.531   5.343  12.839
72495W        W44810  16.564  29.954  14.464
72496W        W44811  41.956  24.278   0.187
72497W        W44812  37.041  19.672   4.043
72498W        W44813  37.207  22.071  14.483
72499W        W44814  24.168  44.305  10.512
72500W        W44815  34.048  14.452  14.540
72501W        W44816   2.527  19.198  11.670
72502W        W44817  21.190  28.069   0.044
72503W        W44818   1.484  29.186  12.477
72504W        W44819  37.479   2.443  13.496
72505W        W44820  22.958  17.379   3.850
72506W        W44821  24.699  24.313   4.140
72507W        W44822   3.261  31.785  11.042
72508W        W44823  11.408  33.737  11.051
72509W        W44824   2.668   8.534   4.310
72510W        W44825  15.759  18.834  11.808
72511W        W44826  41.003  42.283  12.909
72512W        W44827  18.847  15.607  14.439
72513W        W44828  37.908  41.359  12.517
72514W        W44829  15.408   8.927  11.741
72515W        W44830  36.574  36.245  12.893
72516W        W44831  30.880  41.480  11.572
72517W        W44832  30.928  44.225  13.471
72518W        W44833  36.819  19.984   5.090
72519W        W44834  37.487  27.193   1.447
72520W        W44835  37.316  28.913  11.224
72521W        W44836   2.404   7.410   1.442
72522W        W44837   5.949  44.720   4.678
72523W        W44838  26.923  26.978   2.226
72524W        W44839  35.544  12.277  10.758
72525W        W44840  33.416   7.435  12.488
72526W        W44841   5.430  29.185  11.475
72527W        W44842  31.960  32.457   1.373
72528W        W44843  40.561  26.748  13.905
72529W        W44844  28.723  13.842   2.428
72530W        W44845  14.171  23.146  13.781
72531W        W44846  36.403  39.812  14.886
72532W        W44847  38.121   6.581  13.254
72533W        W44848   0.750  24.692   3.301
72534W        W44849  13.335  12.624   2.731
72535W        W44850  16.611   2.819  13.718
72536W        W44851  20.646  24.816   1.464
72537W        W44852  15.144  10.383   1.867
72538W        W44853   3.255  35.192   4.499
72539W        W44854  14.845   0.883   4.575
72540W        W44855  10.933  33.362  13.844
72541W        W44856  43.039  41.962   2.881
72542W        W44857  41.794  42.551  10.686
72543W        W44858  35.774  25.241  11.703
72544W        W44859  33.294  31.705   4.335
72545W        W44860  12.794  14.663  11.637
72546W        W44861  11.714  30.671   3.838
72547W        W44862  22.431  26.675   4.138
72548W        W44863  22.736  29.460  12.466
72549W        W44864   6.187  34.498   1.742
72550W        W44865   5.441  25.969   2.640
72551W        W44866  38.505   6.603  11.159
72552W        W44867  11.128  37.974  14.437
72553W        W44868   4.327  25.941  11.977
72554W        W44869  14.118  41.923   2.008
72555W        W44870  26.442  35.592   0.642
72556W        W44871  23.719  37.270  12.082
72557W        W44872  41.086  23.207   1.830
72558W        W44873  38.278  27.003   4.189
72559W        W44874   7.807   5.871   2.428
72560W        W44875  28.096   1.279  14.365
72561W        W44876  28.732   8.714  11.022
72562W        W44877  36.933  22.121   9.773
72563W        W44878  40.833  32.824  11.976
72564W        W44879  43.486  33.818   3.714
72565W        W44880  33.895  33.500  13.089
72566W        W44881  41.001   7.705  12.064
72567W        W44882  18.699  21.850   3.365
72568W        W44883  29.325   6.357   3.344
72569W        W44884  31.641   9.627  11.018
72570W        W44885   6.485  34.917   0.835
72571W        W44886  22.799  38.375   2.860
72572W        W44887  44.989  42.056  10.849
72573W        W44888  18.328   7.699  11.131
72574W        W44889   5.505  15.176   1.226
72575W        W44890   4.825  23.172  10.658
72576W        W44891  22.918  30.538   0.766
72577W        W44892  10.354  15.300  11.966
72578W        W44893  31.379  15.475   2.381
72579W        W44894  21.180  25.887   2.178
72580W        W44895  20.800  42.381  13.455
72581W        W44896  24.563  12.422   3.185
72582W        W44897  31.112   1.267  14.106
72583W        W44898  44.578   3.314  14.509
72584W        W44899  14.591  40.208  12.399
72585W        W44900  33.847  18.760  12.532
72586W        W44901  41.840  36.362  14.516
72587W        W44902  38.193  40.452   0.750
72588W        W44903  22.879  11.516  11.150
72589W        W44904  42.758  27.640   0.477
72590W        W44905  31.144  23.469   1.850
72591W        W44906   3.574  12.876  13.702
72592W        W44907  21.483   2.491   0.675
72593W        W44908  20.151  21.498   4.245
72594W        W44909  13.643  33.663   4.438
72595W        W44910  28.232  25.617   4.328
72596W        W44911  32.428   3.290   1.328
72597W        W44912  10.776  33.551   1.213
72598W        W44913  26.064  33.377  14.865
72599W        W44914  38.442  36.404   2.309
72600W        W44915   9.708   1.740   2.908
72601W        W44916  14.691   9.226  13.155
72602W        W44917  24.717   7.203  10.742
72603W        W44918  15.271  41.040  14.105
72604W        W44919  34.794  22.645   4.994
72605W        W44920  24.512  44.930   3.665
72606W        W44921  17.692   7.326  13.573
72607W        W44922  31.159  31.425  14.879
72608W        W44923  44.447  18.651   3.660
72609W        W44924  35.588   9.532  12.354
72610W        W44925   9.633  27.483   1.036
72611W        W44926  44.432  37.527  11.103
72612W        W44927  39.927   7.328  13.920
72613W        W44928  14.244  13.307  13.000
72614W        W44929  30.375  43.417   2.881
72615W        W44930  38.588  19.362   2.245
72616W        W44931  38.020   2.375   0.868
72617W        W44932  36.791  41.707   4.300
72618W        W44933  43.197  29.074  11.048
72619W        W44934  37.579   3.361  12.972
72620W        W44935   1.516   4.290   4.167
72621W        W44936  42.468  27.738   0.929
72622W        W44937  20.538  40.945   1.327
72623W        W44938  44.012  42.011   1.801
72624W        W44939   7.999  23.102  11.831
72625W        W44940  30.365  34.331  14.400
72626W        W44941   6.204   3.371  11.355
72627W        W44942  36.219  34.640   4.385
72628W        W44943  31.018  11.807   1.420
72629W        W44944  23.982  17.099  14.275
72630W        W44945  34.866  32.462  12.911
72631W        W44946  27.906  21.882  14.970
72632W        W44947   1.177   3.146   3.551
72633W        W44948  44.182  20.168   3.518
72634W        W44949  41.869  41.544  10.760
72635W        W44950  27.410  36.262   4.013
72636W        W44951  17.250   5.834  11.739
72637W        W44952  19.393  22.727   2.422
72638W        W44953  14.282  11.319   0.145
72639W        W44954  30.668   4.883  11.558
72640W        W44955   4.394  29.732   3.313
72641W        W44956  41.727  30.062  12.933
72642W        W44957  23.233  10.726   1.403
72643W        W44958   6.213  17.893   0.735
72644W        W44959  18.364   1.849  14.262
72645W        W44960   6.114   0.257  10.721
72646W        W44961  31.664   6.389  13.498
72647W        W44962   6.369  28.377  10.700
72648W        W44963  18.110  12.888  12.385
72649W        W44964  39.039  20.732   5.046
72650W        W44965  24.616  23.036   3.597
72651W        W44966  20.589  10.923  13.106
72652W        W44967  11.326  30.482  12.108
72653W        W44968  14.213  35.308   3.167
72654W        W44969  17.766  39.901  13.860
72655W        W44970   1.768  27.640   2.220
72656W        W44971   4.231  28.537   3.235
72657W        W44972  42.127  22.421   4.694
72658W        W44973  30.202   0.727   1.776
72659W        W44974  33.513  27.058   1.214
72660W        W44975  21.772  10.637   1.435
72661W        W44976  35.491  23.523  10.843
72662W        W44977  20.798  30.022   2.636
72663W        W44978   1.258  36.119  13.342
72664W        W44979  41.190   5.907  14.426
72665W        W44980  19.375  36.913   0.424
72666W        W44981  42.307   5.933  13.912
72667W        W44982  30.167  40.992  11.422
72668W        W44983  35.298  41.887  10.649
72669W        W44984  31.945  43.373   2.395
72670W        W44985  17.082  12.549   3.241
72671W        W44986   9.628  14.732  12.034
72672W        W44987  23.545  43.534   2.767
72673W        W44988  17.271  40.157  11.874
72674W        W44989  23.717  18.317  10.924
72675W        W44990  28.171   2.439   0.500
72676W        W44991  23.972   1.904  11.114
72677W        W44992   2.359   9.748   3.759
72678W        W44993  19.720  28.870   3.279
72679W        W44994  41.662  36.829   0.968
72680W        W44995  23.064  34.695  12.472
72681W        W44996  36.520  18.104  14.706
72682W        W44997  31.664  21.951   1.411
72683W        W44998  31.599  23.390  10.910
72684W        W44999   2.109  28.020   1.802
72685W        W45000   9.248  20.220  13.785
72686W        W45001  36.832   6.856  12.955
72687W        W45002  34.700   3.844   1.918
72688W        W45003  17.182   7.848   4.580
72689W        W45004  20.574   8.045  10.264
72690W        W45005  17.393   0.940  13.542
72691W        W45006  31.476   2.607   4.780
72692W        W45007   1.004  43.421   1.043
72693W        W45008  16.353   2.337   1.382
72694W        W45009  43.571  28.682   3.271
72695W        W45010   2.451   3.593   2.560
72696W        W45011  41.560  28.989  11.441
72697W        W45012  15.840   5.472  13.980
72698W        W45013  36.383  38.024  13.466
72699W        W45014  38.473  38.789   0.225
72700W        W45015  43.035  38.536  14.031
72701W        W45016  13.328  38.067  11.982
72702W        W45017  43.884  27.386  14.910
72703W        W45018  17.517  34.533  13.807
72704W        W45019   4.877  39.699   2.460
72705W        W45020   3.865  15.151   3.294
72706W        W45021   9.459  39.895   0.193
72707W        W45022  27.915   6.187   3.516
72708W        W45023  37.218  38.652   2.782
72709W        W45024  19.086  43.358   0.890
72710W        W45025  15.874  39.446   0.942
72711W        W45026  27.710  16.604   3.934
72712W        W45027   9.362   4.230   0.410
72713W        W45028  11.784  17.363  11.551
72714W        W45029  41.246  19.763  13.390
72715W        W45030  36.255  18.283  12.427
72716W        W45031  43.907  16.353   2.851
72717W        W45032  15.797  16.315   3.254
72718W        W45033   0.676  10.579  11.938
72719W        W45034  21.623  42.073  12.946
72720W        W45035  36.413  37.691   4.955
72721W        W45036  16.786  12.431   0.794
72722W        W45037  38.256  37.196  14.520
72723W        W45038   8.601  22.206  12.870
72724W        W45039   4.046  27.371   2.169
72725W        W45040  17.056  35.948  11.647
72726W        W45041  28.048  32.240  13.913
72727W        W45042  34.138  10.230   0.448
72728W        W45043  24.082  35.467   1.990
72729W        W45044  29.650  13.378  13.422
72730W        W45045  35.597   3.695   4.542
72731W        W45046   6.469  18.622   2.795
72732W        W45047  13.441  27.584  13.813
72733W        W45048  28.378  29.969   0.951
72734W        W45049  23.984   8.422   4.153
72735W        W45050  14.435  30.009   2.167
72736W        W45051  19.181  25.074   2.461
72737W        W45052  19.841  14.363   0.694
72738W        W45053  36.969   1.906   3.695
72739W        W45054  37.551   1.370  13.336
72740W        W45055  28.070  11.048  10.616
72741W        W45056  43.387  15.500  14.366
72742W        W45057   5.809  17.782  12.144
72743W        W45058  11.603  31.362   1.284
72744W        W45059  42.694   8.637   4.789
72745W        W45060  27.003   7.572  12.942
72746W        W45061   3.816  44.605   3.736
72747W        W45062   8.413  41.969   3.211
72748W        W45063  23.662  42.464   3.204
72749W        W45064   9.157  36.432  14.918
72750W        W45065   2.532  14.182   3.140
72751W        W45066   8.925  42.093   4.934
72752W        W45067  27.698  32.884   4.276
72753W        W45068  14.314   5.249  13.900
72754W        W45069  25.170  36.570  11.087
72755W        W45070  37.736  41.423  11.632
72756W        W45071   8.636  34.089  14.638
72757W        W45072  26.990  14.464   2.997
72758W        W45073  27.229  14.789  10.725
72759W        W45074  18.683  17.038   0.201
72760W        W45075  15.951  27.796  10.305
72761W        W45076  19.118   1.185   3.137
72762W        W45077  31.097  39.849  10.653
72763W        W45078  24.653  11.609  11.088
72764W        W45079  11.343   6.361   4.262
72765W        W45080  12.564  11.229  11.515
72766W        W45081   3.452  14.291   4.117
72767W        W45082  40.107  29.540  12.504
72768W        W45083  23.003  30.939  11.057
72769W        W45084  12.077  32.089  14.309
72770W        W45085  16.257  10.810  10.665
72771W        W45086  40.941  18.253   1.273
72772W        W45087  25.606   4.594   3.704
72773W        W45088  26.289  22.476   3.176
72774W        W45089  32.983  32.885   0.294
72775W        W45090   7.853  13.595   0.867
72776W        W45091   6.949   9.257  13.955
72777W        W45092  33.929  37.406  12.234
72778W        W45093   4.985  39.942   1.664
72779W        W45094   2.369   5.178  11.890
72780W        W45095  24.959  41.666  11.365
72781W        W45096  32.965  20.963  13.338
72782W        W45097  13.392  44.325   0.753
72783W        W45098  19.874  38.845  11.131
72784W        W45099  36.049  26.307  14.820
72785W        W45100  26.074  32.147   5.568
72786W        W45101  32.119  10.323   2.731
72787W        W45102   3.664  40.930  12.412
72788W        W45103  34.511  28.886  12.924
72789W        W45104  27.056  15.778  13.498
72790W        W45105  14.148  18.675   0.003
72791W        W45106  16.190  37.294   1.340
72792W        W45107  34.442  15.629  12.890
72793W        W45108  29.715  42.956   4.570
72794W        W45109  33.700  14.600  11.596
72795W        W45110  17.291  13.685  14.115
72796W        W45111  35.466  21.202   3.626
72797W        W45112  39.869   2.796   3.103
72798W        W45113  24.530  30.073  13.409
72799W        W45114  37.372  22.560   0.345
72800W        W45115   1.515   9.604  12.340
72801W        W45116  38.765   1.041  10.368
72802W        W45117  16.801  13.589  12.721
72803W        W45118  34.375  28.498  14.020
72804W        W45119  28.999  29.066  10.622
72805W        W45120  44.965  35.332   0.049
72806W        W45121  33.330  31.221   3.438
72807W        W45122  14.839  13.238  14.307
72808W        W45123  22.665  22.190   4.658
72809W        W45124  30.163   7.308   3.703
72810W        W45125  28.984  44.309   3.013
72811W        W45126  10.289   5.895  14.737
72812W        W45127   7.502  27.440   1.942
72813W        W45128  38.002  23.129  11.260
72814W        W45129   8.440  11.302   0.910
72815W        W45130  12.951  29.118  14.903
72816W        W45131   3.343  24.189  11.142
72817W        W45132  38.590   1.412   3.083
72818W        W45133  33.198   0.386   2.338
72819W        W45134  36.346  36.410  14.887
72820W        W45135  23.619  15.271   0.163
72821W        W45136   4.727  18.083   4.579
72822W        W45137  31.905  24.779  14.347
72823W        W45138  36.447  15.172  14.303
72824W        W45139  18.601  10.295   2.724
72825W        W45140  41.063  39.865  14.876
72826W        W45141   1.513  36.830  13.014
72827W        W45142  14.056  19.828   3.310
72828W        W45143  24.629   2.858   1.715
72829W        W45144  36.884  16.278  13.545
72830W        W45145  31.965  17.091  11.161
72831W        W45146  26.062  38.790  14.592
72832W        W45147  17.599  23.660  10.692
72833W        W45148   0.573  38.643   0.873
72834W        W45149  34.353  36.681   0.068
72835W        W45150  26.654  37.827  12.598
72836W        W45151   0.407  43.047   2.136
72837W        W45152  44.275  17.370  14.501
72838W        W45153  36.872   9.232   3.021
72839W        W45154  39.788   1.498  14.755
72840W        W45155   2.889  12.760   2.673
72841W        W45156  37.563   5.346   1.693
72842W        W45157  42.842  23.957   0.148
72843W        W45158  42.648  36.997   4.041
72844W        W45159   0.988   8.943   3.667
72845W        W45160  30.273   4.882   2.129
72846W        W45161  33.960  23.116  12.903
72847W        W45162  21.772  18.190   4.068
72848W        W45163   8.204   7.327  14.296
72849W        W45164   8.420  32.587  10.629
72850W        W45165   1.488  25.012   3.227
72851W        W45166  29.195  19.259   3.233
72852W        W45167  29.588  23.560   4.975
72853W        W45168   1.800  17.847  12.516
72854W        W45169  41.224  15.744  12.553
72855W        W45170  18.624  15.400  14.006
72856W        W45171  36.066  24.813  11.617
72857W        W45172  19.633  36.949  13.369
72858W        W45173  11.204   4.682  12.102
72859W        W45174   0.242  24.794   1.239
72860W        W45175  40.380  16.366   0.998
72861W        W45176  43.467  24.915  13.008
72862W        W45177  35.676   5.363   4.801
72863W        W45178  13.551  38.324   3.299
72864W        W45179  40.346  44.647   0.976
72865W        W45180  21.548   2.214  13.751
72866W        W45181  22.716  24.686   3.885
72867W        W45182  25.703  15.596  12.473
72868W        W45183  40.064  35.398   3.772
72869W        W45184  24.107  35.555  14.872
72870W        W45185  44.058  33.378   2.777
72871W        W45186   4.611   5.669   3.340
72872W        W45187  13.964  44.618  12.907
72873W        W45188   1.503  32.634  14.918
72874W        W45189  37.168   9.349  12.052
72875W        W45190  40.623   7.162  14.772
72876W        W45191  20.265  16.804   1.626
72877W        W45192  14.511  43.444   5.114
72878W        W45193  34.268  27.095   5.025
72879W        W45194  15.293  29.394   0.766
72880W        W45195   8.161  15.782   0.849
72881W        W45196  25.284  31.703  14.340
72882W        W45197  12.416   9.810   1.799
72883W        W45198  37.537  44.781   1.002
72884W        W45199  12.712  14.345   2.075
72885W        W45200  41.541  13.606   2.248
72886W        W45201   6.363  41.163  12.372
72887W        W45202   9.900  12.575  12.388
72888W        W45203  41.843  19.091   0.454
72889W        W45204  10.226  31.469  11.134
72890W        W45205  13.652   1.713   4.265
72891W        W45206   4.754  13.361  12.518
72892W        W45207  24.763  36.224  14.780
72893W        W45208  29.161  20.500  13.997
72894W        W45209  30.009   2.245  10.610
72895W        W45210   1.730  41.436   2.175
72896W        W45211   1.060  43.453   3.860
72897W        W45212  38.874  12.141  14.316
72898W        W45213  26.491  34.029  12.131
72899W        W45214  21.305  40.452   3.733
72900W        W45215  17.378   4.281  13.499
72901W        W45216  25.985   1.763   2.945
72902W        W45217   0.420   5.107  13.607
72903W        W45218  23.956   8.833   4.486
72904W        W45219  39.072  17.548   2.233
72905W        W45220  10.170  30.757   0.537
72906W        W45221  15.205  15.276   3.893
72907W        W45222  21.576  22.045   2.968
72908W        W45223  15.061  33.543   1.613
72909W        W45224  37.995  26.597   0.531
72910W        W45225  41.968  40.363  13.430
72911W        W45226   1.127   8.811  10.151
72912W        W45227  10.755   3.322   2.809
72913W        W45228  36.865   1.865   3.185
72914W        W45229  27.070  33.459  13.293
72915W        W45230  25.154  36.570   3.699
72916W        W45231  44.263   9.152   0.734
72917W        W45232  24.241  39.940   4.116
72918W        W45233  34.399  24.023   4.444
72919W        W45234  24.474  36.050  13.431
72920W        W45235  22.749  16.950  10.387
72921W        W45236  25.256  36.473   2.826
72922W        W45237   5.214  28.491  14.251
72923W        W45238  44.813   0.929  12.949
72924W        W45239  32.443  29.396  14.208
72925W        W45240  32.541   4.656   1.011
72926W        W45241   5.474  34.974   0.775
72927W        W45242  35.528  33.502   1.375
72928W        W45243  15.203  34.797   2.813
72929W        W45244  19.556  32.625   2.868
72930W        W45245   3.411  23.445  12.362
72931W        W45246   2.950  25.990  10.592
72932W        W45247  28.315  29.850   2.726
72933W        W45248   7.130  19.068   0.725
72934W        W45249  18.951  35.834   1.249
72935W        W45250  21.778  43.351  10.662
72936W        W45251  24.085  31.927   4.185
72937W        W45252   4.588  26.453  11.089
72938W        W45253  19.082  42.283  13.939
72939W        W45254  14.187  28.413  12.129
72940W        W45255  20.698  12.275  13.059
72941W        W45256  23.958  32.630   4.814
72942W        W45257   1.027  40.290   2.222
72943W        W45258  15.098  40.082  14.509
72944W        W45259  43.686  10.886   3.663
72945W        W45260   5.884  17.522  14.083
72946W        W45261   6.610  42.862  14.800
72947W        W45262  10.180  12.364  14.416
72948W        W45263   6.148   6.831   0.746
72949W        W45264   7.258  42.792  11.148
72950W        W45265  21.665   7.776   1.847
72951W        W45266  12.047  22.353  12.354
72952W        W45267  39.016  33.994   2.895
72953W        W45268  13.373   9.334   2.307
72954W        W45269  23.290   0.311   4.773
72955W        W45270  34.415  30.799   3.205
72956W        W45271  43.980  31.568  12.994
72957W        W45272  10.138  20.080  11.843
72958W        W45273  35.164  14.416  13.506
72959W        W45274   0.491  27.243  11.089
72960W        W45275  27.306  30.924   1.802
72961W        W45276   8.156  18.216   3.249
72962W        W45277  27.989  34.815  11.061
72963W        W45278  19.689  28.973  12.027
72964W        W45279  16.732  31.923   2.949
72965W        W45280  23.465   7.949   1.797
72966W        W45281   0.436  24.197   2.389
72967W        W45282  20.444  11.695  12.502
72968W        W45283  13.835  39.917   3.464
72969W        W45284  11.571   7.814  14.542
72970W        W45285   0.039  13.622   3.795
72971W        W45286  42.632  22.448  11.626
72972W        W45287  16.012  33.406  10.675
72973W        W45288   3.449  28.255   1.290
72974W        W45289  10.301   5.732   4.845
72975W        W45290   9.237  13.423  11.433
72976W        W45291   9.205   2.394   3.135
72977W        W45292   1.905   8.973  11.161
72978W        W45293  12.701  10.915  13.929
72979W        W45294  35.535   7.919   3.221
72980W        W45295  38.984  41.020  12.749
72981W        W45296  44.812  42.611   1.412
72982W        W45297  30.174  13.528  14.292
72983W        W45298  18.420  24.182  12.058
72984W        W45299  34.475  17.064   4.307
72985W        W45300  44.739  37.001  10.523
72986W        W45301   2.245  42.982  13.536
72987W        W45302   4.008   5.803  10.593
72988W        W45303  25.880  35.502   1.974
72989W        W45304   8.749  39.901  13.493
72990W        W45305  18.549  39.822  11.555
72991W        W45306   4.213   0.430  14.768
72992W        W45307  29.353  44.970   0.421
72993W        W45308  34.586   4.886  11.720
72994W        W45309  44.062  39.392  10.393
72995W        W45310  15.864   7.193  12.673
72996W        W45311  14.450  11.705  11.657
72997W        W45312  44.686  34.182   0.441
72998W        W45313  25.156  44.952  13.448
72999W        W45314  40.403   8.184   3.843
73000W        W45315  17.573  28.063  12.548
73001W        W45316  37.961  26.230   0.960
73002W        W45317  25.074  40.525   3.335
73003W        W45318  19.451   2.339  11.090
73004W        W45319  41.827  32.790  13.163
73005W        W45320  12.764  37.451  12.308
73006W        W45321  18.817  15.813   5.010
73007W        W45322  14.247   0.346  11.692
73008W        W45323  40.604  25.361  12.079
73009W        W45324  34.195  43.966  12.632
73010W        W45325   4.155  35.060  12.070
73011W        W45326  22.594  25.348  14.528
73012W        W45327  31.944  17.505   0.888
73013W        W45328  10.409  13.660  14.942
73014W        W45329   2.282  10.328   3.424
73015W        W45330  25.457  37.513   5.145
73016W        W45331  42.418   7.169  12.836
73017W        W45332   5.312  14.210  11.669
73018W        W45333  30.901  35.327   2.860
73019W        W45334  22.631  28.046   0.229
73020W        W45335   6.128   8.745  11.047
73021W        W45336  26.712   2.528   1.274
73022W        W45337   5.536  44.059   4.132
73023W        W45338  35.513   5.457  13.360
73024W        W45339  44.933  36.566   4.202
73025W        W45340  37.501  24.547   2.515
73026W        W45341  14.049  22.495   0.455
73027W        W45342   2.961  38.961   0.570
73028W        W45343   9.348  26.563  14.497
73029W        W45344  31.097  12.843  10.740
73030W        W45345  21.264  33.819   1.900
73031W        W45346  26.718  18.292   5.150
73032W        W45347  35.564  13.546   1.163
73033W        W45348  41.724   4.159  10.958
73034W        W45349  16.593  28.132   2.476
73035W        W45350  16.318  29.302  12.444
73036W        W45351  27.559  11.114   0.233
73037W        W45352  32.585  27.995  11.110
73038W        W45353  24.027  22.899   3.820
73039W        W45354  36.958  37.068  10.548
73040W        W45355  43.002  29.233  11.515
73041W        W45356  38.276   1.601   4.561
73042W        W45357  24.443  42.669   1.518
73043W        W45358  13.412   5.658  14.812
73044W        W45359  20.304   3.033   1.763
73045W        W45360  27.313  19.547  12.521
73046W        W45361  20.009  44.772  13.409
73047W        W45362  26.077  26.780  14.163
73048W        W45363  11.315   5.513   1.716
73049W        W45364  14.975  20.207  11.552
73050W        W45365  24.961  36.980  14.327
73051W        W45366  42.594  17.086   0.803
73052W        W45367  27.434  24.414  11.616
73053W        W45368  19.632  28.165   1.931
73054W        W45369  44.798  34.608   2.451
73055W        W45370  41.532  16.549   4.011
73056W        W45371   7.583  43.364  11.999
73057W        W45372  12.763  39.602  12.384
73058W        W45373  43.383  16.603   1.939
73059W        W45374   2.777  35.519  11.376
73060W        W45375  38.711  34.624   1.814
73061W        W45376  20.532   7.498   0.846
73062W        W45377  27.505  16.329   2.162
73063W        W45378  10.639  42.724  12.590
73064W        W45379   4.175  29.497  14.972
73065W        W45380  21.600  39.252  14.305
73066W        W45381  27.114  39.755  12.526
73067W        W45382  41.787   5.069  11.155
73068W        W45383  22.762   7.856  14.354
73069W        W45384   9.786  20.151  10.859
73070W        W45385   0.985   2.377  11.854
73071W        W45386  23.950  20.922   2.519
73072W        W45387   9.116   3.931  13.302
73073W        W45388  18.192  14.291   2.126
73074W        W45389  29.907  12.182   3.090
73075W        W45390  25.187  15.496   4.158
73076W        W45391   3.960  42.796   9.947
73077W        W45392  21.079  17.264   1.943
73078W        W45393   4.343   4.902   0.093
73079W        W45394  11.221  33.665  14.504
73080W        W45395   3.609   4.800   3.317
73081W        W45396  14.927  15.115  11.851
73082W        W45397  42.766  12.532  10.569
73083W        W45398  40.971  30.624   1.693
73084W        W45399  19.735   1.879  13.322
73085W        W45400  42.397  15.190   2.818
73086W        W45401  39.833  39.869  10.560
73087W        W45402   5.742  32.347   4.710
73088W        W45403  23.313   4.166  11.178
73089W        W45404  40.486  18.906  12.551
73090W        W45405  36.629  41.497  13.441
73091W        W45406   6.421  39.323   0.032
73092W        W45407  24.117  31.319  14.831
73093W        W45408  23.630  25.970  13.174
73094W        W45409  23.226  42.005  12.151
73095W        W45410  16.675  21.133   4.383
73096W        W45411  21.523  18.166   4.510
73097W        W45412   9.581  14.478   0.361
73098W        W45413  42.505  29.982   2.006
73099W        W45414  13.699  28.128   0.967
73100W        W45415  32.561   7.483  12.501
73101W        W45416  36.070  32.064   2.670
73102W        W45417  37.511  24.897   2.891
73103W        W45418  40.987  41.981   4.621
73104W        W45419   9.721  19.309   3.748
73105W        W45420  44.750   6.258   4.931
73106W        W45421  34.257   9.762  12.213
73107W        W45422   2.701  26.967   3.696
73108W        W45423  34.390  36.551   1.915
73109W        W45424   2.357  27.560   4.606
73110W        W45425  25.744  10.652  11.599
73111W        W45426  33.988  13.669  13.861
73112W        W45427   4.489   1.584   4.501
73113W        W45428  27.436  41.078   2.764
73114W        W45429  27.839  26.552  12.811
73115W        W45430  29.040  43.514  10.673
73116W        W45431  20.856   1.995  11.131
73117W        W45432  27.166  31.549  11.740
73118W        W45433  38.570  20.139   4.637
73119W        W45434  21.644  24.438  12.490
73120W        W45435  43.262  36.862  14.331
73121W        W45436  21.700  21.182  10.128
73122W        W45437  28.512  33.443  11.154
73123W        W45438  32.369  24.207   4.885
73124W        W45439  27.552  13.582  13.770
73125W        W45440  40.689  29.698   1.316
73126W        W45441  28.507  15.452   4.912
73127W        W45442  10.145  35.855   0.971
73128W        W45443  44.825  38.738  13.443
73129W        W45444   0.315   1.321  14.075
73130W        W45445  10.403  33.896   0.271
73131W        W45446  17.347  25.371   2.152
73132W        W45447  28.306  39.186   4.010
73133W        W45448  19.696   8.699   4.727
73134W        W45449  36.973  33.461  11.588
73135W        W45450   1.326  44.671   3.400
73136W        W45451  37.848  31.674   3.633
73137W        W45452  32.908   6.491   1.804
73138W        W45453  27.514  25.637   1.759
73139W        W45454  27.197  29.177  11.554
73140W        W45455   8.315   8.831   0.637
73141W        W45456  21.769  39.063  12.896
73142W        W45457  19.603  22.185   0.840
73143W        W45458   6.653  15.592  13.425
73144W        W45459  11.123   2.666  11.573
73145W        W45460  31.918  32.921  14.794
73146W        W45461  14.398  29.156   2.712
73147W        W45462  43.509  36.416   2.093
73148W        W45463   8.747  20.235  12.948
73149W        W45464   0.675  15.684  12.597
73150W        W45465  37.301  41.445   1.378
73151W        W45466  18.769  17.056   1.788
73152W        W45467  27.562   6.223   0.638
73153W        W45468  25.998   2.734   3.014
73154W        W45469  28.413   1.326   1.834
73155W        W45470  38.193  41.837   3.871
73156W        W45471  35.428  26.954  14.522
73157W        W45472  19.700  19.453  13.618
73158W        W45473  36.985  36.049   0.874
73159W        W45474  36.717  33.667   0.359
73160W        W45475  22.552  36.332   2.714
73161W        W45476   5.302  19.102  13.771
73162W        W45477  16.178   8.370   2.696
73163W        W45478  18.491  44.095   3.708
73164W        W45479   1.506  25.670   4.179
73165W        W45480  27.482   8.786  10.655
73166W        W45481  34.930  29.146   0.064
73167W        W45482  44.851  40.889   4.528
73168W        W45483   3.274  33.121   4.583
73169W        W45484  40.367   8.183   4.358
73170W        W45485  10.110   4.271   2.688
73171W        W45486  22.621  39.357  13.763
73172W        W45487  22.071  29.681   2.012
73173W        W45488  29.058  37.026   0.503
73174W        W45489  29.990  27.673   4.247
73175W        W45490  21.182   7.605  10.415
73176W        W45491  44.628  39.140  13.689
73177W        W45492  16.709  41.455  13.360
73178W        W45493   2.437  43.428   0.750
73179W        W45494   2.402  31.495  14.939
73180W        W45495  37.957  13.849   0.798
73181W        W45496  40.044  19.297   0.811
73182W        W45497   4.426  24.262   1.353
73183W        W45498  27.122  40.644  11.145
73184W        W45499   0.468   5.154  13.082
73185W        W45500  21.447  41.900  11.096
73186W        W45501  29.092  24.903  13.030
73187W        W45502  25.394  15.296   0.980
73188W        W45503   8.055  26.068  13.834
73189W        W45504  41.281  26.186  13.542
73190W        W45505  27.974  36.903  13.409
73191W        W45506   1.407   3.207  11.493
73192W        W45507  13.137  18.079  14.931
73193W        W45508  43.023   7.781   0.905
73194W        W45509  23.975  16.751  13.145
73195W        W45510  42.003  42.696  14.638
73196W        W45511   1.295   2.214  11.449
73197W        W45512  25.081  35.477  10.720
73198W        W45513  34.895   3.216  13.962
73199W        W45514   6.330  39.097  11.620
73200W        W45515  36.037   9.366  14.317
73201W        W45516  35.525  11.806  12.119
73202W        W45517  30.677  42.044   3.361
73203W        W45518  25.508  28.114   0.287
73204W        W45519  13.027   7.370  14.089
73205W        W45520  16.865  14.224  11.559
73206W        W45521   5.814  32.615  13.032
73207W        W45522  42.783  20.619  14.346
73208W        W45523  25.453   8.948  10.719
73209W        W45524  13.251  31.525   3.376
73210W        W45525  32.179  14.214   4.175
73211W        W45526  14.136   9.982   0.702
73212W        W45527  22.241   6.770   2.731
73213W        W45528  40.902  28.701   3.701
73214W        W45529  32.372  40.516   0.523
73215W        W45530  42.819  41.021   0.251
73216W        W45531  38.791  37.493   0.940
73217W        W45532  31.489   1.205  12.411
73218W        W45533   2.534  30.052  13.378
73219W        W45534  17.554  18.829   1.779
73220W        W45535  39.498  14.644   0.419
73221W        W45536  44.368  41.728  13.926
73222W        W45537  28.930  33.497   1.864
73223W        W45538  23.549   1.073   4.789
73224W        W45539   9.147  29.401  13.990
73225W        W45540  21.308  25.619   3.770
73226W        W45541  40.353  10.901   1.965
73227W        W45542  32.857   7.427   1.797
73228W        W45543  44.484   8.754  13.788
73229W        W45544   1.418  23.565   1.976
73230W        W45545  26.058  16.171   1.181
73231W        W45546  16.181   7.159   3.352
73232W        W45547  20.860  29.459   4.574
73233W        W45548  34.741  23.782   3.594
73234W        W45549  20.900  37.806   1.797
73235W        W45550   0.949   8.704   3.198
73236W        W45551   9.684  26.927   1.297
73237W        W45552   8.680   2.277  10.625
73238W        W45553  44.193  35.533   3.309
73239W        W45554  41.945  21.544   2.308
73240W        W45555  21.552  39.405  10.702
73241W        W45556  39.053  18.584   4.631
73242W        W45557  43.045  19.272   0.921
73243W        W45558  24.035   3.512   2.159
73244W        W45559  15.305  36.611   0.873
73245W        W45560  29.593  28.398   4.675
73246W        W45561  28.897  14.611  11.673
73247W        W45562   8.920  40.258  12.049
73248W        W45563  27.427   4.313  10.875
73249W        W45564  18.874  43.850   0.826
73250W        W45565   6.842  27.008   2.136
73251W        W45566  27.472  18.284   4.198
73252W        W45567  29.931  42.069   3.532
73253W        W45568   4.460  28.764  13.424
73254W        W45569  10.360  26.135  14.283
73255W        W45570  30.536  19.757  13.425
73256W        W45571  19.308  24.955   0.009
73257W        W45572  17.730  26.536   2.323
73258W        W45573   8.350  10.920   3.616
73259W        W45574  38.050  24.002  14.927
73260W        W45575  23.508   5.021   1.719
73261W        W45576   5.668  10.870  11.606
73262W        W45577  18.167  38.290  13.416
73263W        W45578  42.495  43.211   1.642
73264W        W45579  37.154   1.938  12.498
73265W        W45580  21.713  10.633  14.722
73266W        W45581  29.294   8.517  14.219
73267W        W45582  25.566  21.905   4.230
73268W        W45583  29.335   0.047  12.871
73269W        W45584  31.000  13.522  12.395
73270W        W45585   8.307   4.342  14.360
73271W        W45586  36.128  28.151  13.516
73272W        W45587  10.153  38.071   2.270
73273W        W45588  39.603  36.867  14.958
73274W        W45589  12.167  35.317  11.101
73275W        W45590  44.016  17.347  13.332
73276W        W45591  34.045  16.714  13.383
73277W        W45592  37.072  34.479   0.504
73278W        W45593   6.201  19.058   2.685
73279W        W45594   8.787  30.444  12.816
73280W        W45595  25.088  28.424  11.989
73281W        W45596  35.157  17.747   1.297
73282W        W45597   6.791  11.112   0.755
73283W        W45598   2.846  21.551   4.587
73284W        W45599  43.884  17.708   1.392
73285W        W45600  44.978   1.525   1.878
73286W        W45601   6.863   1.772  14.827
73287W        W45602   9.600  12.774  10.495
73288W        W45603  14.711  32.355  10.568
73289W        W45604  29.977  30.484  14.700
73290W        W45605  32.959  43.294   2.838
73291W        W45606  21.941  12.863  14.307
73292W        W45607  36.451  28.155   3.163
73293W        W45608  35.639   4.088  12.637
73294W        W45609   0.292  21.225   2.327
73295W        W45610  34.013  42.450   0.963
73296W        W45611   4.845   6.249  13.041
73297W        W45612  41.863  16.970  12.361
73298W        W45613  37.545  13.186   1.467
73299W        W45614  24.317  22.041   4.678
73300W        W45615  17.651  38.378   4.885
73301W        W45616   7.351  20.211  11.061
73302W        W45617   9.949  40.080   1.280
73303W        W45618  13.334  44.739  14.070
73304W        W45619   7.407  12.396  14.849
73305W        W45620  20.628  11.236  14.824
73306W        W45621  13.930  40.504  13.146
73307W        W45622  38.613  40.306  12.101
73308W        W45623  32.591  25.113  12.812
73309W        W45624  41.390   4.661  12.456
73310W        W45625   3.439   8.190   4.539
73311W        W45626  16.688  40.746  10.755
73312W        W45627  40.795  21.185  11.927
73313W        W45628   2.277  21.856   0.789
73314W        W45629   7.593  40.931  14.128
73315W        W45630  18.095  40.100   2.233
73316W        W45631  31.519  44.263   0.994
73317W        W45632  13.566  25.888   3.246
73318W        W45633  16.768  41.977  13.341
73319W        W45634  16.602  36.562  10.774
73320W        W45635   0.520  29.121  12.562
73321W        W45636  24.764  44.951   4.568
73322W        W45637   9.904   4.671   2.431
73323W        W45638  38.157  13.629   3.589
73324W        W45639  13.898  44.425  14.237
73325W        W45640  28.588  22.225   3.550
73326W        W45641  24.072  15.128  14.887
73327W        W45642  22.829  15.658   4.176
73328W        W45643  32.403  18.883  12.386
73329W        W45644  17.136  21.515   2.764
73330W        W45645  14.544  17.681   0.100
73331W        W45646  25.158   4.084  13.414
73332W        W45647  32.927  34.633   4.848
73333W        W45648  28.129  44.064  13.952
73334W        W45649  22.787  43.933   4.185
73335W        W45650  20.679   4.999  11.976
73336W        W45651  40.508  32.663  11.040
73337W        W45652  22.540  19.236  10.176
73338W        W45653  33.345   4.652   0.009
73339W        W45654  19.540  39.787  11.006
73340W        W45655   9.262  27.687   1.312
73341W        W45656  44.281  41.019  12.520
73342W        W45657   1.967  27.145  11.643
73343W        W45658  39.462   4.692  11.760
73344W        W45659  38.053  21.249  13.402
73345W        W45660  36.515  26.896   2.661
73346W        W45661  37.374  33.519  12.986
73347W        W45662  30.186  22.603  12.944
73348W        W45663  40.347   7.740   4.110
73349W        W45664   3.280  31.675   0.945
73350W        W45665  41.302  42.943   3.713
73351W        W45666  36.567  33.187  14.046
73352W        W45667   3.466  33.058  13.761
73353W        W45668  43.598  29.229   4.645
73354W        W45669  35.258  28.482  13.555
73355W        W45670   6.514   0.012  10.985
73356W        W45671   4.843  36.048  10.359
73357W        W45672  43.825   2.700   0.902
73358W        W45673  25.537  40.437   3.550
73359W        W45674  24.133  18.177   0.672
73360W        W45675  37.025  34.989   4.159
73361W        W45676  41.820   2.834   1.860
73362W        W45677  37.885  37.557   3.718
73363W        W45678  24.935  29.464  14.773
73364W        W45679  15.224   9.145   3.551
73365W        W45680  16.702   2.476  14.115
73366W        W45681  35.319  14.690   0.273
73367W        W45682  32.064  28.107  10.748
73368W        W45683  36.376  15.612  11.635
73369W        W45684  17.202  42.509  12.830
73370W        W45685  28.512   2.141  12.488
73371W        W45686  36.751  36.070  14.913
73372W        W45687  25.553  21.515  14.528
73373W        W45688  13.564   2.526  12.453
73374W        W45689  15.466   2.749  12.459
73375W        W45690  15.214   7.875   3.111
73376W        W45691   7.626  41.625  12.537
73377W        W45692  23.106   3.150   1.716
73378W        W45693  22.881  13.338   2.352
73379W        W45694  41.400   5.240   4.614
73380W        W45695  20.263  27.059   0.689
73381W        W45696  19.533  17.753  14.570
73382W        W45697  17.242  14.897   4.216
73383W        W45698  41.884  27.663  14.038
73384W        W45699  42.310  36.838   2.970
73385W        W45700  11.555  18.640   3.262
73386W        W45701  40.494   6.064   0.711
73387W        W45702  36.999   0.357  13.650
73388W        W45703   4.768  44.741   1.526
73389W        W45704  25.650  14.669  12.621
73390W        W45705  27.001  32.076   3.670
73391W        W45706  24.727   7.785  13.964
73392W        W45707  22.420  18.664   0.874
73393W        W45708  36.904   0.152   1.455
73394W        W45709  19.118  10.351   2.299
73395W        W45710  34.525   9.370  11.609
73396W        W45711  10.864  29.660  13.840
73397W        W45712  41.411  35.420  13.504
73398W        W45713  26.166   3.208   3.125
73399W        W45714  14.055   6.440   4.489
73400W        W45715  17.188  29.850  11.149
73401W        W45716  26.477   2.967   1.380
73402W        W45717  21.178  38.778  12.815
73403W        W45718  28.436  27.021   4.598
73404W        W45719   5.067   4.007  14.406
73405W        W45720  22.175  13.200  11.970
73406W        W45721   6.593   7.642   5.015
73407W        W45722  40.428  32.446   3.686
73408W        W45723  35.054   7.629   4.131
73409W        W45724  13.341  16.051  14.858
73410W        W45725  21.584   3.613  13.465
73411W        W45726  21.729  19.155  11.454
73412W        W45727  20.729  19.158   1.886
73413W        W45728   9.453  12.341  11.597
73414W        W45729  27.856  23.629  14.842
73415W        W45730  22.982  36.943  12.405
73416W        W45731  17.286  37.746   1.916
73417W        W45732   3.651  29.150  14.304
73418W        W45733  31.158  34.217   2.899
73419W        W45734  39.206  41.411   2.904
73420W        W45735  40.804  32.304  11.883
73421W        W45736  18.662   7.306  14.244
73422W        W45737  28.073  11.636   1.374
73423W        W45738   6.802   8.282   3.337
73424W        W45739  28.311  13.311   4.481
73425W        W45740  25.629  19.375   2.850
73426W        W45741  33.340  43.529  12.290
73427W        W45742  24.571  34.836   2.569
73428W        W45743   6.811  11.719   4.602
73429W        W45744   9.141  26.665  13.996
73430W        W45745  25.083  28.516   4.922
73431W        W45746  14.764  40.212   1.625
73432W        W45747   9.030  31.480   2.212
73433W        W45748  44.636  29.008   1.244
73434W        W45749  34.527   1.416   0.481
73435W        W45750  39.080  22.223  12.906
73436W        W45751  31.898  32.608   3.316
73437W        W45752  36.187  14.439  11.525
73438W        W45753   4.185  16.534   2.450
73439W        W45754  44.303  36.846  13.499
73440W        W45755   9.288  39.399  13.930
73441W        W45756  36.962  13.609   2.381
73442W        W45757  35.620  39.367  12.099
73443W        W45758  26.159  13.914   5.365
73444W        W45759  27.822   0.891  12.479
73445W        W45760  36.653  41.474   2.640
73446W        W45761  39.110  16.520   3.364
73447W        W45762  28.978  13.678  12.712
73448W        W45763   9.797  29.455   0.238
73449W        W45764   3.876  41.432   4.202
73450W        W45765  43.836  29.012   2.180
73451W        W45766  38.155  12.178   2.683
73452W        W45767  10.207  26.095   3.210
73453W        W45768  39.802   8.710  12.547
73454W        W45769  17.450  10.608  14.877
73455W        W45770  23.039  32.848  12.946
73456W        W45771  20.193  10.271   3.291
73457W        W45772  15.850   6.887   3.662
73458W        W45773   9.664  13.996   0.532
73459W        W45774  26.518  36.776   1.955
73460W        W45775  39.316  23.190   1.433
73461W        W45776   1.511   7.971  13.158
73462W        W45777  34.921  12.614  14.888
73463W        W45778  19.679   2.913  13.358
73464W        W45779  39.359  25.459  13.892
73465W        W45780   7.381  31.696   0.658
73466W        W45781  42.059  13.307   4.138
73467W        W45782   7.173  31.627  12.493
73468W        W45783  27.540  38.559   2.334
73469W        W45784  42.263   0.432  11.120
73470W        W45785  10.879   3.836   2.144
73471W        W45786  17.032   1.572   4.962
73472W        W45787   3.225  41.321  11.160
73473W        W45788  21.786  18.689  13.975
73474W        W45789  43.257   8.163  11.050
73475W        W45790  41.394  14.862  10.700
73476W        W45791   8.519  27.215  14.929
73477W        W45792  32.357  32.870  12.541
73478W        W45793  30.997  41.786  13.787
73479W        W45794   7.215  33.384  13.094
73480W        W45795  44.504  44.995   2.729
73481W        W45796   0.733  17.852   0.937
73482W        W45797  24.146   9.595  11.877
73483W        W45798  20.243   5.394   1.253
73484W        W45799  42.488  32.360   3.623
73485W        W45800  31.228  26.622   2.614
73486W        W45801  15.673  34.959   0.942
73487W        W45802  21.988  28.491  11.104
73488W        W45803  27.825  27.518   2.716
73489W        W45804  11.259  37.432  11.599
73490W        W45805  13.108  21.494   3.654
73491W        W45806   1.064  21.317  10.467
73492W        W45807  32.060  16.302   2.125
73493W        W45808  41.669  31.954  12.789
73494W        W45809   1.252  19.508  12.478
73495W        W45810  24.130  31.392  12.472
73496W        W45811  16.190  17.230  14.527
73497W        W45812  30.144  20.795  12.077
73498W        W45813  12.386  27.573  13.117
73499W        W45814  44.014  26.179   2.318
73500W        W45815  35.463   4.381   1.446
73501W        W45816  26.185  39.300  11.145
73502W        W45817  16.520  32.465   1.557
73503W        W45818  22.245  35.791  11.620
73504W        W45819  22.917   8.718  12.114
73505W        W45820  18.751   3.670   2.440
73506W        W45821  38.997  12.368   4.282
73507W        W45822  10.097  28.000  13.653
73508W        W45823  40.884  40.087   2.700
73509W        W45824   6.682  17.135  11.190
73510W        W45825  15.176  35.354  13.231
73511W        W45826  36.567  33.960   1.989
73512W        W45827  31.393  18.178  12.018
73513W        W45828  35.813  18.237   0.256
73514W        W45829  32.042  44.845   1.717
73515W        W45830  20.129  18.045  13.142
73516W        W45831   6.815  11.933  11.653
73517W        W45832   7.997   2.105  11.293
73518W        W45833   2.271  29.953  14.315
73519W        W45834  24.669  14.561  12.912
73520W        W45835  10.801  16.834  11.473
73521W        W45836   3.971  33.613   4.191
73522W        W45837  16.605  35.003  11.441
73523W        W45838  18.096  27.458   2.367
73524W        W45839  19.606  30.939  15.000
73525W        W45840  31.711  34.394   4.573
73526W        W45841  35.407  37.069  13.107
73527W        W45842   4.859   3.014  13.804
73528W        W45843   4.228  32.579   3.399
73529W        W45844  42.554  29.127   4.721
73530W        W45845   6.937  14.871   3.701
73531W        W45846  32.653  27.458   2.401
73532W        W45847  12.108  39.908   4.877
73533W        W45848  31.983  20.715  14.108
73534W        W45849  30.540  15.339   0.267
73535W        W45850  29.432  34.425   2.345
73536W        W45851   7.261  20.101   2.193
73537W        W45852  32.582  11.727   4.244
73538W        W45853  37.408  36.591  14.335
73539W        W45854  28.011   2.874   1.793
73540W        W45855  40.769  36.960  11.389
73541W        W45856   2.696   6.134  11.564
73542W        W45857  22.953  30.455  11.221
73543W        W45858  28.941   8.263  12.164
73544W        W45859   7.346  37.966  11.256
73545W        W45860  17.171  36.579   4.915
73546W        W45861  13.647  12.244   0.782
73547W        W45862   7.447   1.981  10.672
73548W        W45863  44.985  19.012   1.431
73549W        W45864   0.895  34.227   4.520
73550W        W45865  12.281  15.014   4.677
73551W        W45866  31.557  26.023  13.802
73552W        W45867  39.539  29.568   4.880
73553W        W45868  38.017   8.732  14.188
73554W        W45869  24.994   1.601   0.783
73555W        W45870  28.728  16.301   1.165
73556W        W45871   6.011  35.491   2.116
73557W        W45872  34.981  10.618  10.658
73558W        W45873  19.831  37.170  12.074
73559W        W45874   0.804  16.281  14.330
73560W        W45875  10.207  30.709   4.553
73561W        W45876  15.382  31.227  12.986
73562W        W45877  15.478  33.010  11.563
73563W        W45878  39.533  42.935   4.174
73564W        W45879   9.957  27.438   2.262
73565W        W45880  12.237  21.135  10.652
73566W        W45881  42.028   6.221   0.870
73567W        W45882  37.081  42.136  12.210
73568W        W45883  20.646   3.348   1.977
73569W        W45884  22.304  20.032   5.146
73570W        W45885   3.687  16.313  13.399
73571W        W45886  29.448  34.293  14.807
73572W        W45887  19.035  11.646   4.184
73573W        W45888  23.685  34.524   1.340
73574W        W45889  43.057  43.335   4.743
73575W        W45890  40.773   2.482  11.121
73576W        W45891  34.472  23.496  12.021
73577W        W45892  20.193  40.750  10.282
73578W        W45893  43.418  16.120   0.745
73579W        W45894  28.930  29.522   1.827
73580W        W45895  26.109  24.487   4.896
73581W        W45896  16.326   4.304  14.857
73582W        W45897  44.260  37.957  12.005
73583W        W45898  40.889   6.180  13.129
73584W        W45899  38.143   0.276  14.338
73585W        W45900  18.052   2.681   2.963
73586W        W45901  32.602  39.647   0.982
73587W        W45902  32.865  10.432   3.962
73588W        W45903  24.116  44.791  11.438
73589W        W45904   0.013  14.072  11.092
73590W        W45905  27.434  19.726   1.827
73591W        W45906  22.987   1.310   3.571
73592W        W45907  38.412  44.979   0.115
73593W        W45908  24.497  42.455   2.966
73594W        W45909  28.437  14.816  11.703
73595W        W45910  26.737  14.655   3.793
73596W        W45911   4.354   9.391   2.336
73597W        W45912  40.965  33.160  11.606
73598W        W45913   9.852  37.287   4.196
73599W        W45914  22.974  12.442   0.012
73600W        W45915  26.301  35.062   5.078
73601W        W45916   2.579   0.799  11.468
73602W        W45917  23.039  27.730  13.908
73603W        W45918  30.567  40.833  13.191
73604W        W45919  29.888  41.259  13.557
73605W        W45920  38.240  19.611   4.098
73606W        W45921   8.956  24.749  12.123
73607W        W45922   8.350  24.359   0.396
73608W        W45923  10.291   3.128   2.861
73609W        W45924   3.973   9.728   3.635
73610W        W45925  19.889   8.770   5.445
73611W        W45926  23.983  24.926  13.482
73612W        W45927   3.510  21.206   3.712
73613W        W45928  40.763  29.231  11.923
73614W        W45929  28.547  35.306  13.728
73615W        W45930  14.263  22.542  13.600
73616W        W45931  30.578   6.184  10.702
73617W        W45932  25.721  15.885  11.183
73618W        W45933  30.542   4.688   4.157
73619W        W45934   3.812  41.018  14.500
73620W        W45935  30.410   6.702  11.563
73621W        W45936   5.134   3.616   0.677
73622W        W45937   5.917  13.684  11.700
73623W        W45938  21.339  16.489  12.081
73624W        W45939  31.919  28.040  13.015
73625W        W45940   6.375  22.165  11.550
73626W        W45941  16.957   9.383   0.319
73627W        W45942  35.101  35.819  12.245
73628W        W45943   0.930  15.331   0.329
73629W        W45944  11.333  41.332  11.125
73630W        W45945  26.489  41.838   1.346
73631W        W45946  32.435  21.246   0.258
73632W        W45947  11.260  41.884   3.863
73633W        W45948   9.209  15.592   4.957
73634W        W45949  30.858  32.610   0.313
73635W        W45950  11.231  25.517  13.441
73636W        W45951   2.072   7.096   1.219
73637W        W45952   1.299  23.568   4.929
73638W        W45953  36.353   2.707   1.737
73639W        W45954  27.658  37.916  11.378
73640W        W45955   0.159  11.374   4.234
73641W        W45956  26.197  31.663   0.888
73642W        W45957  21.042  33.394  12.385
73643W        W45958   4.643  34.538   0.883
73644W        W45959  22.918   5.203  12.047
73645W        W45960  27.016  12.568  11.654
73646W        W45961   1.325  31.884   0.364
73647W        W45962  23.690  16.823   3.209
73648W        W45963   6.376  20.695  14.421
73649W        W45964  25.658  23.235   2.887
73650W        W45965  26.174  15.604   4.131
73651W        W45966  25.449  35.393   0.782
73652W        W45967  37.844  42.496  13.452
73653W        W45968   2.700  33.657   3.465
73654W        W45969  39.549  28.611  14.432
73655W        W45970  26.185  12.842  10.785
73656W        W45971   0.521  39.037   1.717
73657W        W45972   7.782   1.397  12.114
73658W        W45973  19.347  18.641   1.401
73659W        W45974   5.195  31.040  14.412
73660W        W45975  20.453  42.304  11.843
73661W        W45976  26.517  23.452  14.939
73662W        W45977  40.936  10.683  13.901
73663W        W45978  35.940   6.356   1.478
73664W        W45979  26.090  13.665   4.592
73665W        W45980  28.452  28.620   1.456
73666W        W45981   4.799  40.941   1.837
73667W        W45982  10.363   5.240   1.347
73668W        W45983  19.937  36.607   2.297
73669W        W45984   3.984   4.252  12.917
73670W        W45985  24.596   9.683   1.912
73671W        W45986   8.177  37.539   4.656
73672W        W45987  33.154  20.103  14.338
73673W        W45988  32.211  10.807  14.253
73674W        W45989  25.708  25.459   3.269
73675W        W45990  32.939  13.122   3.658
73676W        W45991  36.744  40.065   0.352
73677W        W45992  38.061  27.663   1.283
73678W        W45993  16.528  26.379   0.123
73679W        W45994  35.476   9.030   4.438
73680W        W45995  32.662   8.852  12.894
73681W        W45996   4.042  14.812   0.008
73682W        W45997  19.098  40.324   1.735
73683W        W45998  37.891  29.678   2.114
73684W        W45999   0.843  22.944   4.984
73685W        W46000  36.662  23.045   3.183
73686W        W46001  43.853  30.936   2.352
73687W        W46002  26.702   8.750  12.031
73688W        W46003   9.351   6.836   3.331
73689W        W46004   3.290  39.108  11.979
73690W        W46005   9.724  24.440  14.043
73691W        W46006  35.457  34.657   3.132
73692W        W46007   7.502  24.446   2.909
73693W        W46008   6.437  11.370  12.444
73694W        W46009  31.862  25.154   3.734
73695W        W46010  25.223  12.076  10.709
73696W        W46011   4.684  34.475  13.906
73697W        W46012  11.832   0.227   0.944
73698W        W46013  36.687  36.043   3.537
73699W        W46014  12.492  39.098  14.957
73700W        W46015   8.939  15.807  13.973
73701W        W46016   1.800  28.163   2.219
73702W        W46017  29.939  13.403   2.260
73703W        W46018  41.421  27.048  12.758
73704W        W46019  42.975  34.908   4.376
73705W        W46020  29.526   0.776  12.309
73706W        W46021   4.952  42.830  13.896
73707W        W46022   2.434  24.426  14.969
73708W        W46023  39.397   1.456   1.727
73709W        W46024  20.187   9.700  11.800
73710W        W46025  19.106  24.142  14.496
73711W        W46026  14.289  16.764  10.795
73712W        W46027  31.516  16.340   0.380
73713W        W46028  39.846  27.668   2.373
73714W        W46029  22.985   1.257   1.650
73715W        W46030  23.724   6.175   2.393
73716W        W46031  37.893  44.067  13.847
73717W        W46032  20.947   8.252   4.831
73718W        W46033   3.826  37.584   0.525
73719W        W46034  10.557  27.698   0.044
73720W        W46035   7.925  37.893   3.426
73721W        W46036  35.652  10.485  12.578
73722W        W46037   9.135  14.604   3.312
73723W        W46038  39.515  17.024   2.743
73724W        W46039  32.586   9.145   0.849
73725W        W46040   3.690   6.343  12.939
73726W        W46041  20.399   9.105   5.008
73727W        W46042  20.628  22.047   0.344
73728W        W46043  31.061  35.571   1.333
73729W        W46044   3.424  29.684   4.179
73730W        W46045  22.246  42.299   3.576
73731W        W46046  37.120   0.034  11.965
73732W        W46047  35.096   7.684   3.201
73733W        W46048  18.637  43.250  13.840
73734W        W46049   2.485  40.783  14.945
73735W        W46050  19.683   5.681  13.408
73736W        W46051  14.293  43.929   3.827
73737W        W46052  39.483  16.186   3.245
73738W        W46053   9.659  22.955  13.771
73739W        W46054  29.251  29.262  12.744
73740W        W46055  27.642   1.637   1.265
73741W        W46056  34.479   9.369   1.894
73742W        W46057  34.022  25.038  11.341
73743W        W46058  25.502  28.115  13.558
73744W        W46059  33.907   2.272   3.836
73745W        W46060  25.269  39.982   2.111
73746W        W46061  44.221  17.146  10.940
73747W        W46062  32.078  43.768   1.630
73748W        W46063  39.481   7.246  10.623
73749W        W46064  24.501  41.355  14.853
73750W        W46065  17.717  44.966   1.177
73751W        W46066  12.375  19.203   3.535
73752W        W46067  10.900   1.039   0.804
73753W        W46068  39.189  14.699  13.155
73754W        W46069  43.506  25.652  13.304
73755W        W46070   3.003   1.266  13.059
73756W        W46071   4.272  30.011   1.894
73757W        W46072   7.080   5.139   0.529
73758W        W46073   0.197   5.725   2.134
73759W        W46074  10.635   6.418   0.809
73760W        W46075  33.829  34.465  12.943
73761W        W46076  18.788  43.804  11.359
73762W        W46077   5.755  40.744   4.605
73763W        W46078  27.620  14.368   0.708
73764W        W46079  38.324   5.435  13.405
73765W        W46080  21.718  20.478   2.310
73766W        W46081  35.388  38.865  12.043
73767W        W46082   0.337  25.943   0.165
73768W        W46083   5.079   1.802  13.447
73769W        W46084  10.249  22.224   2.227
73770W        W46085  17.317   8.720  10.030
73771W        W46086  21.517  34.498   0.892
73772W        W46087  25.970  36.341  11.622
73773W        W46088  26.088  27.930  12.489
73774W        W46089  20.292  22.674  12.603
73775W        W46090  31.969  11.992  11.113
73776W        W46091  27.761  33.943  10.661
73777W        W46092  42.852  44.783  13.363
73778W        W46093  11.677  36.955   4.383
73779W        W46094   6.883  44.773   0.833
73780W        W46095   7.346  31.963   3.887
73781W        W46096  13.950  28.470   3.822
73782W        W46097  20.651  43.186   1.817
73783W        W46098   0.259  37.004   2.244
73784W        W46099   2.275  34.082   3.311
73785W        W46100  33.688  16.841   1.734
73786W        W46101  38.368  10.751   1.218
73787W        W46102   2.654  36.473  11.606
73788W        W46103  11.562  15.301  12.660
73789W        W46104  44.575  17.530  14.121
73790W        W46105  30.991  30.753   1.401
73791W        W46106   0.260  12.674   2.847
73792W        W46107  14.428  12.417  12.499
73793W        W46108  24.547   9.205   2.254
73794W        W46109  17.365  29.479   0.776
73795W        W46110  22.014  26.982   0.298
73796W        W46111  19.479  16.781  13.286
73797W        W46112  12.257  13.292  12.125
73798W        W46113  28.127  27.408  10.677
73799W        W46114  28.654  23.146  14.458
73800W        W46115   1.342  28.222  10.768
73801W        W46116  21.016  35.486   4.086
73802W        W46117  24.690  19.080   4.035
73803W        W46118  21.290   8.154  14.493
73804W        W46119  44.153  40.412   4.554
73805W        W46120  35.160  32.639  10.676
73806W        W46121   3.058   9.442   4.739
73807W        W46122  26.394   3.948   3.655
73808W        W46123   5.505  12.677  12.814
73809W        W46124  23.602   2.073   2.721
73810W        W46125   0.484  18.687  14.012
73811W        W46126   3.240  30.004  10.785
73812W        W46127  19.421  15.734   3.784
73813W        W46128   5.626  18.430   3.155
73814W        W46129  44.555   5.784  10.302
73815W        W46130  44.950  23.317   4.318
73816W        W46131  33.092  29.649  10.537
73817W        W46132  44.661  27.151  11.287
73818W        W46133  35.427   4.748   3.171
73819W        W46134  26.057  22.725  14.381
73820W        W46135   9.939  21.349  12.648
73821W        W46136  13.668  15.480  13.568
73822W        W46137  42.449  23.065   4.503
73823W        W46138  33.947  18.591  13.437
73824W        W46139   0.687  19.785  14.869
73825W        W46140  31.657  18.343  14.397
73826W        W46141  13.385  16.462  11.071
73827W        W46142  34.062  13.848   4.700
73828W        W46143   1.760  30.643  14.817
73829W        W46144  17.749  44.177  14.827
73830W        W46145   8.895   7.664   0.425
73831W        W46146   6.386  11.566  14.355
73832W        W46147  40.968  16.552  14.835
73833W        W46148  20.654   3.698  11.519
73834W        W46149   6.172  27.797   4.140
73835W        W46150   4.298  33.849  13.432
73836W        W46151  10.707  28.630  12.162
73837W        W46152  38.648  35.526   0.452
73838W        W46153  38.465  19.195   3.093
73839W        W46154  29.102  12.661  14.353
73840W        W46155  35.787   1.247   1.716
73841W        W46156  20.191  17.690  11.574
73842W        W46157  32.498  30.906   1.743
73843W        W46158  29.838  13.798  13.941
73844W        W46159  27.668   3.681  11.559
73845W        W46160  33.036   1.281   1.246
73846W        W46161  10.449   0.766   0.772
73847W        W46162  38.363  35.073   4.695
73848W        W46163  20.757   2.452   2.244
73849W        W46164  29.918  22.624  12.475
73850W        W46165  42.200  32.116   4.449
73851W        W46166  24.407  19.231  14.677
73852W        W46167  25.709  21.647   4.671
73853W        W46168   0.240  34.030   3.184
73854W        W46169  21.585  27.706  13.877
73855W        W46170  34.929  36.373  14.722
73856W        W46171  31.078  33.132   0.766
73857W        W46172  44.557  10.249  10.248
73858W        W46173  37.459  38.302  12.450
73859W        W46174  10.664   3.665   4.129
73860W        W46175  11.595  29.046   4.609
73861W        W46176  34.305   4.357   3.261
73862W        W46177  17.312  14.883   1.289
73863W        W46178  25.271  13.174   3.627
73864W        W46179   3.946   1.410  13.899
73865W        W46180   7.293  36.424   4.073
73866W        W46181  15.357  14.099   0.804
73867W        W46182  17.746  31.030   9.888
73868W        W46183  12.730  19.535   4.666
73869W        W46184  42.836  11.876   0.435
73870W        W46185  26.975  43.087  10.199
73871W        W46186  16.825  19.489   0.486
73872W        W46187  32.494   0.066  14.732
73873W        W46188  25.220  41.575   3.244
73874W        W46189  12.669  34.684   3.165
73875W        W46190  41.543  12.795   4.569
73876W        W46191  40.186  15.370  11.173
73877W        W46192  17.223  13.485  11.957
73878W        W46193   2.190  41.594   2.324
73879W        W46194   4.648  29.044   0.296
73880W        W46195  20.363   4.639  11.847
73881W        W46196  23.922   7.468   2.616
73882W        W46197  14.561  41.548   3.206
73883W        W46198   0.372  24.644  13.890
73884W        W46199  13.832  39.773  11.956
73885W        W46200  25.159  21.642   1.832
73886W        W46201  29.575   5.747   2.608
73887W        W46202  32.640  29.651   4.614
73888W        W46203  25.221  41.515   1.834
73889W        W46204   1.150  24.629   2.575
73890W        W46205  37.636  33.455   4.020
73891W        W46206  31.679  24.834  13.161
73892W        W46207  37.841  35.768  13.541
73893W        W46208  31.396  21.151  11.440
73894W        W46209  19.774  27.450  11.201
73895W        W46210  29.570  19.623   0.953
73896W        W46211   7.877  43.269   3.312
73897W        W46212   4.817  19.000  11.627
73898W        W46213  39.409  13.897  11.999
73899W        W46214  14.193  10.600  14.891
73900W        W46215  35.040  39.319  13.576
73901W        W46216  36.766  18.410  12.452
73902W        W46217   6.749  18.131  14.832
73903W        W46218  21.566   1.016   2.400
73904W        W46219  19.249   6.266   2.110
73905W        W46220  29.654   0.901   2.700
73906W        W46221   0.974  15.588   1.664
73907W        W46222  31.432  14.150  13.836
73908W        W46223  23.030  33.121  12.446
73909W        W46224  20.108   2.803  11.673
73910W        W46225  33.897  15.217   1.973
73911W        W46226  15.117  44.216  13.600
73912W        W46227  39.353  26.753  11.014
73913W        W46228  40.380   7.464  14.427
73914W        W46229   1.823  31.454   3.613
73915W        W46230  14.339   9.330   0.347
73916W        W46231  30.045  39.812  14.991
73917W        W46232  40.974  19.123  10.732
73918W        W46233   9.637   8.781   4.246
73919W        W46234  20.621  23.010  13.327
73920W        W46235  22.756  22.476   4.085
73921W        W46236  18.484  35.849   2.780
73922W        W46237  44.418  40.007   0.273
73923W        W46238  17.152  20.235   1.674
73924W        W46239   1.951   9.049   4.525
73925W        W46240  21.137   1.345   3.299
73926W        W46241   9.752   0.790   3.239
73927W        W46242  43.516   8.647  14.564
73928W        W46243  24.070  12.374  13.184
73929W        W46244  20.089  36.014   1.811
73930W        W46245  32.992  11.219   1.724
73931W        W46246  24.667  12.132   0.855
73932W        W46247   6.216  21.830   0.379
73933W        W46248  32.943   8.365   3.249
73934W        W46249   5.348  16.984   0.621
73935W        W46250  19.048  28.087  10.691
73936W        W46251  21.387  24.020   0.826
73937W        W46252  24.756  26.038   1.284
73938W        W46253  15.066  44.878  10.884
73939W        W46254  25.523  28.785   3.559
73940W        W46255  36.722  12.349   1.833
73941W        W46256  13.633  13.756  10.630
73942W        W46257   3.001  40.755  11.472
73943W        W46258  27.129  21.314   3.578
73944W        W46259  23.223  30.497  10.802
73945W        W46260  40.605   2.851  14.976
73946W        W46261   0.719  40.388  14.074
73947W        W46262  23.823  12.835  13.096
73948W        W46263   7.349  21.596  12.973
73949W        W46264   5.083  27.584   2.366
73950W        W46265  15.561  13.312   2.356
73951W        W46266  15.758  23.616  12.848
73952W        W46267  11.843  28.602  14.002
73953W        W46268  42.886  22.195  14.316
73954W        W46269  42.978  10.771  13.981
73955W        W46270  32.104  39.329  13.847
73956W        W46271  33.509   2.546  11.506
73957W        W46272   1.552  34.884   3.692
73958W        W46273  43.997  33.294   2.014
73959W        W46274  23.780   9.701  14.874
73960W        W46275  14.102   3.405   4.672
73961W        W46276  28.797   1.061  12.798
73962W        W46277  21.930  30.535  11.664
73963W        W46278   7.366  25.541   2.481
73964W        W46279   9.850   5.207   4.115
73965W        W46280  36.125  43.240   4.689
73966W        W46281   3.131  37.960   2.953
73967W        W46282  31.166   2.384   3.848
73968W        W46283   8.907  12.176   1.931
73969W        W46284   4.068  12.383  12.013
73970W        W46285   9.252   7.772   4.274
73971W        W46286  41.343  15.277  14.058
73972W        W46287  39.009  37.828   3.235
73973W        W46288  17.704  18.087   1.403
73974W        W46289  11.578  20.629   0.840
73975W        W46290  31.873  25.064  13.908
73976W        W46291   7.787  12.217   1.782
73977W        W46292  30.909   7.374  13.760
73978W        W46293   4.812  36.788   1.726
73979W        W46294  42.086  23.990   1.454
73980W        W46295  44.270   4.632   4.333
73981W        W46296  10.749  16.116  11.933
73982W        W46297  17.037   2.715  10.581
73983W        W46298   6.082  21.282  11.611
73984W        W46299  27.509  14.512   3.137
73985W        W46300  35.058  23.343  13.412
73986W        W46301   5.256  38.054   0.870
73987W        W46302   9.748  26.297   5.032
73988W        W46303   4.771  31.526   1.215
73989W        W46304   5.901  23.695  14.551
73990W        W46305  17.126  38.010  14.819
73991W        W46306  11.347  39.521   3.827
73992W        W46307  27.530  29.974  11.152
73993W        W46308  18.811  28.931   1.820
73994W        W46309  17.235  29.661   5.089
73995W        W46310  34.587  32.243  11.646
73996W        W46311  40.976  40.842   0.707
73997W        W46312  28.630  22.712  14.060
73998W        W46313  15.539  10.818  14.994
73999W        W46314  14.546  10.658  14.514
74000W        W46315  32.019  16.022   3.019
74001W        W46316   1.274  31.887  13.559
74002W        W46317  43.776  38.829  12.488
74003W        W46318   8.376  20.006  10.530
74004W        W46319  29.703  16.330  13.274
74005W        W46320  44.893   8.490  14.059
74006W        W46321  30.729  33.896   3.593
74007W        W46322  35.907  24.160   4.172
74008W        W46323   8.895  30.293   1.720
74009W        W46324  21.891  14.577  10.343
74010W        W46325  10.805  19.999   1.786
74011W        W46326  22.551  31.014   3.733
74012W        W46327  25.471   3.475  13.998
74013W        W46328  33.486  36.637   4.075
74014W        W46329  37.010  33.061   1.718
74015W        W46330  19.525  29.001   1.290
74016W        W46331  44.511  10.090   0.002
74017W        W46332  22.669  13.573   4.744
74018W        W46333  11.754   9.244   0.526
74019W        W46334  24.615  19.704   0.892
74020W        W46335  15.340  14.329  13.549
74021W        W46336  21.574  44.709   3.661
74022W        W46337  38.942  31.107   4.581
74023W        W46338  43.444  41.404  11.308
74024W        W46339  23.657  39.763   0.956
74025W        W46340  21.458  28.518  11.951
74026W        W46341  30.204  18.589  12.149
74027W        W46342  21.264  35.560  14.793
74028W        W46343  38.551  17.596  13.096
74029W        W46344  30.509  11.130   1.673
74030W        W46345  44.435  42.089   2.622
74031W        W46346  18.840  42.260  13.444
74032W        W46347  25.428   4.908  10.227
74033W        W46348  14.088  27.338  12.619
74034W        W46349   1.806  30.530   2.192
74035W        W46350   6.390  41.325  14.473
74036W        W46351  23.539  35.061   1.496
74037W        W46352  15.272  36.001   1.503
74038W        W46353  42.521  44.658  13.903
74039W        W46354  32.502  16.766  11.531
74040W        W46355   7.399  11.201   2.448
74041W        W46356  40.960   3.147   1.819
74042W        W46357  20.702  14.707   4.864
74043W        W46358  32.930  43.484  10.635
74044W        W46359  40.504  39.116   1.004
74045W        W46360  12.949  17.793   1.904
74046W        W46361  37.715  16.326   4.602
74047W        W46362  27.220  40.958  14.973
74048W        W46363   4.678   7.709  11.955
74049W        W46364   7.293  21.759   0.273
74050W        W46365  28.626   1.297  14.323
74051W        W46366  35.601  14.998   5.083
74052W        W46367   3.973   7.507  13.481
74053W        W46368  26.522  27.943  12.180
74054W        W46369  24.709  25.062   4.568
74055W        W46370  43.927  36.653   3.676
74056W        W46371  22.503  10.941   1.936
74057W        W46372  33.720  32.917   3.829
74058W        W46373  35.101  13.836   3.134
74059W        W46374  20.936  25.226  13.947
74060W        W46375   6.381  18.875  14.311
74061W        W46376  10.275  12.729   4.943
74062W        W46377  20.518  33.912   4.174
74063W        W46378  37.309  24.443   3.070
74064W        W46379  13.603   0.301   3.308
74065W        W46380  26.735  43.040   0.815
74066W        W46381  25.614  21.758   0.057
74067W        W46382  32.589   8.193  13.967
74068W        W46383  32.092   0.459  14.904
74069W        W46384  25.595   9.171  13.891
74070W        W46385  13.456  14.777  10.566
74071W        W46386   8.722  42.529  11.200
74072W        W46387  44.579   2.095   2.922
74073W        W46388  23.140   1.572   4.015
74074W        W46389  31.446  38.741   5.111
74075W        W46390  28.595  13.408  10.557
74076W        W46391  23.733  39.935   0.422
74077W        W46392   1.685   3.194  14.796
74078W        W46393   8.060   2.115   0.873
74079W        W46394   7.093   2.356  10.734
74080W        W46395  16.906   3.220  12.414
74081W        W46396  36.545  37.026   0.760
74082W        W46397   6.386  40.392  13.861
74083W        W46398  19.005  24.624   0.300
74084W        W46399  29.905   3.866   2.728
74085W        W46400  42.648  11.083   3.388
74086W        W46401  29.154  32.247   4.926
74087W        W46402  31.544  27.096  14.869
74088W        W46403  17.604  38.078  14.450
74089W        W46404  16.044  33.636   9.979
74090W        W46405  43.001  13.354   3.210
74091W        W46406  42.222  34.294  13.989
74092W        W46407  34.951  12.150  11.955
74093W        W46408  38.830  23.691   1.527
74094W        W46409   2.879  24.649   0.115
74095W        W46410  11.249  31.401   3.734
74096W        W46411  16.183  23.192   2.763
74097W        W46412  39.165  40.125   1.241
74098W        W46413  14.296   8.268  14.424
74099W        W46414  34.045  21.774   1.506
74100W        W46415  10.306  10.065   0.312
74101W        W46416   8.325  41.966  10.686
74102W        W46417   7.126  12.207   4.593
74103W        W46418  28.937  33.556   3.272
74104W        W46419  11.684  39.678  13.947
74105W        W46420  18.515  37.897   0.245
74106W        W46421  24.646   5.692   1.981
74107W        W46422  43.368  12.666   1.043
74108W        W46423   7.850  20.098  11.115
74109W        W46424  24.252  44.770  12.302
74110W        W46425  30.415  14.329   1.326
74111W        W46426  26.474  11.755  14.454
74112W        W46427  25.704  27.440   3.299
74113W        W46428   9.429   0.848  14.921
74114W        W46429   9.651  31.235   4.064
74115W        W46430  11.169  30.436  11.099
74116W        W46431  13.823   1.137   1.503
74117W        W46432   4.389  11.294   0.398
74118W        W46433  25.539  32.678   3.153
74119W        W46434   8.275  18.537   2.297
74120W        W46435  21.066  41.471   2.762
74121W        W46436  27.575  33.568   4.558
74122W        W46437  42.870  40.502   1.778
74123W        W46438   2.296  33.272  10.865
74124W        W46439  25.447   1.257  11.603
74125W        W46440  30.918  44.284   2.772
74126W        W46441  16.587  30.998   3.528
74127W        W46442  26.555   4.407   0.910
74128W        W46443  16.918  21.451  12.912
74129W        W46444  28.065   4.729  10.807
74130W        W46445   7.705  20.329  14.969
74131W        W46446  39.655  25.361   5.065
74132W        W46447   1.568  34.379   1.359
74133W        W46448  42.865  30.994  12.310
74134W        W46449  11.793  20.092  12.754
74135W        W46450  33.646  33.944  12.155
74136W        W46451  22.565   1.971  13.478
74137W        W46452  22.309  15.661   4.194
74138W        W46453  40.044  20.684   3.777
74139W        W46454  10.976  22.871  14.908
74140W        W46455  25.500   1.001   2.269
74141W        W46456  31.943  16.804   2.304
74142W        W46457  19.531  24.343  13.418
74143W        W46458  10.167  23.019   0.731
74144W        W46459  18.060  20.579   3.085
74145W        W46460  18.577  38.614   0.838
74146W        W46461  23.202   1.801   3.532
74147W        W46462  35.642   0.319  10.761
74148W        W46463  28.920  23.078  11.245
74149W        W46464  20.249  42.465  10.921
74150W        W46465  37.585  42.235   0.445
74151W        W46466   8.956  39.731   0.245
74152W        W46467  38.960  39.063   3.437
74153W        W46468  26.675  17.706   0.747
74154W        W46469  19.640   0.830   4.107
74155W        W46470  43.356  24.954   5.035
74156W        W46471  10.676  17.314   4.780
74157W        W46472  27.951  35.797   0.255
74158W        W46473   9.426   9.775  13.496
74159W        W46474  41.103   2.756  11.929
74160W        W46475   1.929   5.338   1.371
74161W        W46476  38.112  17.780  14.822
74162W        W46477   1.266  36.415   2.923
74163W        W46478  15.329   3.197  11.545
74164W        W46479  35.322  32.701   2.723
74165W        W46480   4.558  43.895  12.547
74166W        W46481   6.284  35.595   4.417
74167W        W46482  15.784  17.116   3.675
74168W        W46483  36.103  10.344   0.890
74169W        W46484   9.389  25.050   0.321
74170W        W46485  11.413  10.627   0.913
74171W        W46486  18.481  35.679  12.131
74172W        W46487  16.857  18.350  11.507
74173W        W46488  21.680  26.037   2.017
74174W        W46489  16.070  10.757  12.520
74175W        W46490  35.131  26.733   0.901
74176W        W46491  18.345  17.292  11.174
74177W        W46492  12.713  16.201  13.531
74178W        W46493  43.005   7.847  12.863
74179W        W46494  39.044   5.456   1.413
74180W        W46495  13.803  24.021   3.348
74181W        W46496  31.856  41.330  12.046
74182W        W46497   0.561  13.308   0.768
74183W        W46498  22.776  26.478  10.391
74184W        W46499   8.387  31.464   4.155
74185W        W46500  35.120  26.522  12.793
74186W        W46501  23.233   6.719  13.297
74187W        W46502  37.842  21.177  10.738
74188W        W46503  40.035  23.483  10.673
74189W        W46504  27.629   0.377  12.546
74190W        W46505  10.805   4.315   2.334
74191W        W46506  34.814  38.595  10.320
74192W        W46507  17.411  39.389   1.511
74193W        W46508  37.406  11.622   1.469
74194W        W46509  43.958   6.559   1.920
74195W        W46510   8.128  13.753   4.638
74196W        W46511  36.530  44.997  12.858
74197W        W46512  41.394  25.203   5.022
74198W        W46513   7.452   4.989  11.011
74199W        W46514  32.698  17.236  11.678
74200W        W46515  43.262   0.722  14.692
74201W        W46516  32.029  30.506  13.289
74202W        W46517  32.791  34.511   1.380
74203W        W46518   4.667  14.713   1.209
74204W        W46519   6.398   0.799   0.776
74205W        W46520  11.822  14.296  12.913
74206W        W46521   1.439  21.278   2.460
74207W        W46522  27.866   9.704  11.558
74208W        W46523  26.961  20.109   3.988
74209W        W46524   2.422  40.176  11.175
74210W        W46525  31.398   2.706   3.311
74211W        W46526   6.754  26.022   2.479
74212W        W46527   7.801  31.016   2.157
74213W        W46528  43.282  16.783  13.051
74214W        W46529   9.823   7.872  11.508
74215W        W46530  41.308  32.872   4.089
74216W        W46531   3.754  12.373  13.363
74217W        W46532  31.829  29.182   0.257
74218W        W46533  30.430  43.421  12.787
74219W        W46534  17.252  30.505  13.776
74220W        W46535  42.278  28.168  12.984
74221W        W46536  17.648  31.497  12.982
74222W        W46537  37.123  39.611   1.405
74223W        W46538  19.660  14.024   0.273
74224W        W46539  36.912   8.169   1.295
74225W        W46540  40.787  14.844  12.376
74226W        W46541  11.288   4.151   3.768
74227W        W46542   6.989  11.049  10.699
74228W        W46543  41.440  29.030   1.211
74229W        W46544  28.088  25.191   4.060
74230W        W46545  35.761   2.523   0.516
74231W        W46546   7.671   0.741  10.943
74232W        W46547   9.850  38.615   4.730
74233W        W46548  25.218  20.610   2.118
74234W        W46549  15.823  28.052  13.351
74235W        W46550  20.747  37.928   3.529
74236W        W46551  28.670  18.695  12.614
74237W        W46552   1.741  11.258  12.569
74238W        W46553   0.851  13.120  14.508
74239W        W46554  40.826   8.930  12.567
74240W        W46555  38.770  28.508  14.838
74241W        W46556  25.802  11.614  11.640
74242W        W46557  31.004  28.358  12.561
74243W        W46558  16.245   0.404   4.548
74244W        W46559  16.342  42.441  14.928
74245W        W46560  27.249  17.160  12.076
74246W        W46561  18.574  31.412   4.080
74247W        W46562  36.048  31.072   1.290
74248W        W46563  38.072  43.775  10.623
74249W        W46564  17.135  26.933  13.741
74250W        W46565  32.497  30.057  13.772
74251W        W46566  15.028  37.037   4.986
74252W        W46567  24.546  25.620   4.346
74253W        W46568  43.961  24.885   0.448
74254W        W46569   9.794  38.058  12.938
74255W        W46570   4.741  42.293   4.154
74256W        W46571  37.828  38.000  10.918
74257W        W46572  16.849   7.640   1.952
74258W        W46573  23.025   5.913   2.613
74259W        W46574   3.930  36.606  13.822
74260W        W46575  20.552  21.157  12.267
74261W        W46576   6.432   6.718   0.335
74262W        W46577  23.093  16.197  13.882
74263W        W46578  25.154  24.124   3.155
74264W        W46579  24.106  42.362   1.827
74265W        W46580  26.721  29.626   1.844
74266W        W46581  14.958   9.223   3.105
74267W        W46582  38.916  44.270  13.892
74268W        W46583  21.324  27.136  14.058
74269W        W46584  21.586  10.351  13.327
74270W        W46585  35.417  36.846   4.309
74271W        W46586  40.024  32.511   4.913
74272W        W46587  25.716  31.124  11.662
74273W        W46588  14.100   7.201  13.862
74274W        W46589  21.203  27.539   1.822
74275W        W46590  15.746   1.120   0.328
74276W        W46591  23.734  40.899   4.330
74277W        W46592   1.053  20.816  10.658
74278W        W46593  11.589   3.949  10.715
74279W        W46594  14.511  20.320  10.711
74280W        W46595  44.420   0.175  10.193
74281W        W46596  23.547  11.365   1.618
74282W        W46597  20.006  17.767  12.059
74283W        W46598   7.690  37.812  13.756
74284W        W46599   0.300  37.856   2.229
74285W        W46600  29.576  40.895  12.860
74286W        W46601  31.633   9.279  14.515
74287W        W46602  17.073  27.457  11.050
74288W        W46603  33.149  14.335   3.627
74289W        W46604  11.323  22.754  10.946
74290W        W46605  35.816  29.590  10.574
74291W        W46606  40.436   4.571   4.723
74292W        W46607  24.696  23.626  14.961
74293W        W46608  40.970  19.581  12.947
74294W        W46609  25.544  21.831  11.072
74295W        W46610  29.973  30.173   2.173
74296W        W46611  39.577  13.228  13.031
74297W        W46612   4.968  33.082  14.705
74298W        W46613   0.522  24.075  13.434
74299W        W46614   8.291  32.177  12.401
74300W        W46615  27.549  18.487  13.863
74301W        W46616  40.383  16.636  10.666
74302W        W46617   8.341  19.140   4.236
74303W        W46618   3.010   6.882  10.536
74304W        W46619  18.574  22.845   3.127
74305W        W46620  38.910   8.189   0.700
74306W        W46621  28.922  20.076   0.380
74307W        W46622   3.942  32.344   4.747
74308W        W46623   0.661  15.319   2.562
74309W        W46624  16.950  44.773  12.479
74310W        W46625  27.347  25.971  12.505
74311W        W46626  31.713  24.982  12.213
74312W        W46627   7.377  24.749   4.172
74313W        W46628  12.317  10.230  11.407
74314W        W46629  13.312  44.972  13.586
74315W        W46630  30.420   8.261   4.630
74316W        W46631  19.715  35.143   3.334
74317W        W46632  43.110  33.697  10.930
74318W        W46633  26.699  13.648  14.782
74319W        W46634  22.412  30.068   1.348
74320W        W46635  29.202  21.570   2.171
74321W        W46636  33.509  10.708  12.934
74322W        W46637   6.231   7.899  12.375
74323W        W46638   1.439  19.373   3.956
74324W        W46639  41.023  42.924   4.149
74325W        W46640  37.539   9.957  13.435
74326W        W46641  37.810   2.234  10.694
74327W        W46642   5.022  16.410  14.429
74328W        W46643  43.374  14.298  14.158
74329W        W46644   0.390  33.991   1.774
74330W        W46645  39.643  28.539   0.366
74331W        W46646  41.817  32.444   1.873
74332W        W46647  19.144  15.588   2.460
74333W        W46648   3.273  19.715   1.131
74334W        W46649  28.956   0.832   2.317
74335W        W46650  15.181   4.647  13.440
74336W        W46651  40.613  35.071  12.375
74337W        W46652  10.456  42.694   0.748
74338W        W46653  17.509   6.362  11.006
74339W        W46654  20.202  20.001   0.286
74340W        W46655  20.012  18.172  14.007
74341W        W46656  31.486   1.138  14.652
74342W        W46657  16.657  33.417   3.965
74343W        W46658   4.651  32.990   2.864
74344W        W46659  41.072  15.337   4.605
74345W        W46660  11.526  32.370   3.312
74346W        W46661  27.491  24.151   1.314
74347W        W46662  42.765  29.949  12.495
74348W        W46663  26.706  16.629   4.089
74349W        W46664  33.919  36.446  13.555
74350W        W46665  30.613  24.224   3.743
74351W        W46666  41.528  41.829  13.431
74352W        W46667   7.930  14.757   4.437
74353W        W46668   3.772  22.732  14.193
74354W        W46669  34.615  31.515  11.963
74355W        W46670  35.671  36.369  11.899
74356W        W46671  37.559  28.740   3.295
74357W        W46672  37.375  37.650   3.688
74358W        W46673  41.736  33.140   4.134
74359W        W46674  15.142  31.534  14.766
74360W        W46675  29.004   2.987  11.347
74361W        W46676   6.935  27.435   5.043
74362W        W46677  19.242  34.654   0.741
74363W        W46678  31.979  33.944   4.623
74364W        W46679  38.816  24.532   3.809
74365W        W46680   0.792   1.276   5.312
74366W        W46681  28.416  33.467   3.290
74367W        W46682  36.438  33.411  11.456
74368W        W46683   1.822  14.693   1.310
74369W        W46684  35.488  41.082   3.262
74370W        W46685  36.086  18.530   4.298
74371W        W46686  43.039  17.268   4.648
74372W        W46687   3.295  11.740  11.128
74373W        W46688  38.622  28.178  12.435
74374W        W46689   3.998   1.007   0.536
74375W        W46690  21.573  22.072  10.440
74376W        W46691  43.021  28.497  11.923
74377W        W46692  35.409   9.647   3.646
74378W        W46693  18.702  12.185   3.615
74379W        W46694  18.194  38.324   0.187
74380W        W46695   2.839  10.399   0.244
74381W        W46696  44.101  34.139  10.423
74382W        W46697  32.481  31.055   4.078
74383W        W46698  40.837  29.686  11.044
74384W        W46699  29.273   9.273  14.834
74385W        W46700   0.274  12.878   0.803
74386W        W46701  34.555  40.041   1.693
74387W        W46702  44.808  42.104   1.539
74388W        W46703  38.462   4.963  14.324
74389W        W46704  39.982   0.578  12.342
74390W        W46705  14.704  23.652  10.969
74391W        W46706  19.557  17.273  13.902
74392W        W46707  21.703  13.183  13.336
74393W        W46708  40.897   6.103  10.702
74394W        W46709  18.158  10.539  11.138
74395W        W46710  42.373  29.044   2.394
74396W        W46711  43.181  34.035   0.277
74397W        W46712  28.370  36.521   4.165
74398W        W46713   4.825  39.556   1.359
74399W        W46714   3.523  43.316   0.032
74400W        W46715  43.329  14.287  13.641
74401W        W46716  26.048  37.535   2.386
74402W        W46717  40.053  19.099  14.866
74403W        W46718  11.439  10.716   1.745
74404W        W46719  36.167   5.429   3.305
74405W        W46720   9.059  24.603   1.717
74406W        W46721  32.173  24.980  11.161
74407W        W46722  11.537   2.456   3.426
74408W        W46723  24.120  32.961  14.859
74409W        W46724  27.974  10.752  10.186
74410W        W46725  37.219  11.667  12.997
74411W        W46726  43.740  41.106  14.286
74412W        W46727  23.575  39.169  14.232
74413W        W46728  43.785  35.621  13.969
74414W        W46729  37.254   9.874  11.981
74415W        W46730  43.741  23.371  12.476
74416W        W46731  39.654  16.143   0.281
74417W        W46732  16.627   4.324  14.338
74418W        W46733  31.063  26.841  12.232
74419W        W46734  28.480  17.647   1.664
74420W        W46735   0.460  36.386   5.141
74421W        W46736  19.837  25.687   4.667
74422W        W46737   7.924  22.891   4.578
74423W        W46738  37.420  37.948   4.103
74424W        W46739  41.294  27.471   1.859
74425W        W46740  33.864   4.426   0.793
74426W        W46741   4.772  13.864  10.523
74427W        W46742  38.059  30.566   1.612
74428W        W46743  25.152  10.254  12.051
74429W        W46744  11.104   9.100  11.125
74430W        W46745  38.271  14.698  14.398
74431W        W46746  20.054  41.049   9.414
74432W        W46747  13.822  40.786   3.725
74433W        W46748  44.156  31.237  14.755
74434W        W46749  29.961  27.964  10.745
74435W        W46750  42.085  36.116   0.369
74436W        W46751  26.612  17.100   3.147
74437W        W46752   7.921   2.848  13.616
74438W        W46753  29.352  42.825   3.235
74439W        W46754  33.652  27.473   2.127
74440W        W46755   7.620   9.935  13.675
74441W        W46756   9.396  11.426   0.874
74442W        W46757   7.875  34.306   2.257
74443W        W46758   8.208  31.967  12.860
74444W        W46759  18.816   4.799   0.030
74445W        W46760  10.864   2.965  14.379
74446W        W46761  38.857  26.490  12.637
74447W        W46762  27.123  29.263   3.405
74448W        W46763  18.168  43.693   0.517
74449W        W46764  16.117  41.286   3.280
74450W        W46765  34.898   5.318   4.080
74451W        W46766  19.963   8.685  12.369
74452W        W46767  18.609   5.749  10.659
74453W        W46768  15.126   4.804  14.854
74454W        W46769  19.641  19.135  11.945
74455W        W46770   8.471  38.929   4.570
74456W        W46771  23.121  10.740  13.476
74457W        W46772   7.663  28.313   3.195
74458W        W46773   2.223  30.200   3.313
74459W        W46774  38.895  36.839  11.392
74460W        W46775  34.014  10.380   3.139
74461W        W46776  10.794  14.848  13.392
74462W        W46777  25.514  23.345   3.899
74463W        W46778  13.246  13.581   1.836
74464W        W46779  29.967  25.200   4.598
74465W        W46780  14.031  17.732  11.167
74466W        W46781  43.311  40.325   4.222
74467W        W46782  17.737  42.221   4.121
74468W        W46783   8.881  16.691  12.555
74469W        W46784   1.692  15.766   0.340
74470W        W46785  35.170  32.969   3.188
74471W        W46786  39.622  12.593  12.479
74472W        W46787  21.810  31.544   3.773
74473W        W46788  16.868  14.663   3.187
74474W        W46789   6.776   7.188   4.501
74475W        W46790  21.665   0.728   4.587
74476W        W46791  20.505  25.459  11.486
74477W        W46792  18.230   4.353  14.136
74478W        W46793   6.284  20.798   4.516
74479W        W46794  43.850  41.795  14.843
74480W        W46795  36.841  14.297  12.858
74481W        W46796  29.645  17.682   4.517
74482W        W46797   4.712  42.904  13.382
74483W        W46798   5.684   6.832  13.460
74484W        W46799  32.062  36.299   3.833
74485W        W46800   5.228  44.734  13.443
74486W        W46801  43.027  37.527  10.532
74487W        W46802  40.043  20.744  13.411
74488W        W46803   2.550   5.842   4.568
74489W        W46804   2.763  37.619  11.175
74490W        W46805  16.403  12.604   3.995
74491W        W46806   1.886  28.590  11.538
74492W        W46807  25.830  43.085  14.563
74493W        W46808  15.362  30.953   0.582
74494W        W46809  38.818  44.079   0.175
74495W        W46810  10.150   9.186   2.617
74496W        W46811  12.853  39.316  12.808
74497W        W46812  12.249  33.070   0.527
74498W        W46813   8.359  30.237  14.474
74499W        W46814  33.284  30.948   4.793
74500W        W46815  20.962  43.165   2.385
74501W        W46816  41.444   3.395  10.722
74502W        W46817   6.776  40.731  12.950
74503W        W46818  12.352  42.451   4.213
74504W        W46819  33.644   7.892  14.291
74505W        W46820  34.354  31.343  12.522
74506W        W46821  35.000   7.242   4.528
74507W        W46822   1.956  43.973   0.318
74508W        W46823   8.963   6.068   4.252
74509W        W46824  25.083  30.011  10.640
74510W        W46825  43.245   7.711  14.538
74511W        W46826  37.335   1.871  14.098
74512W        W46827  23.702  12.003  13.313
74513W        W46828  14.315   1.391  14.753
74514W        W46829  12.212  38.891  11.099
74515W        W46830   2.770   9.203  13.565
74516W        W46831  22.884  42.507  14.082
74517W        W46832  29.600  17.750  13.230
74518W        W46833   2.861   0.967  11.076
74519W        W46834  38.185  20.472   3.431
74520W        W46835  22.783  42.958   3.175
74521W        W46836  28.001  43.888   2.888
74522W        W46837  38.886   5.234   1.867
74523W        W46838  27.617  17.922  10.650
74524W        W46839  30.039   5.888   3.374
74525W        W46840   1.001  36.861  12.839
74526W        W46841  16.548   7.184   2.852
74527W        W46842   3.245   3.633  12.178
74528W        W46843  27.556  25.220  11.125
74529W        W46844  36.207   2.863  11.551
74530W        W46845  26.688  28.928  14.435
74531W        W46846  16.411  43.556  12.825
74532W        W46847  30.501  22.834  14.241
74533W        W46848   4.524  26.089  14.543
74534W        W46849  39.903  41.813   0.893
74535W        W46850  22.204  42.265  10.319
74536W        W46851  12.254  21.591  12.112
74537W        W46852  24.912   4.929  10.162
74538W        W46853  17.584  35.369  14.285
74539W        W46854   7.735  19.905   2.490
74540W        W46855  11.529  37.826  14.102
74541W        W46856  26.771  27.505   4.047
74542W        W46857   1.938  13.763  13.339
74543W        W46858   2.948  28.409   1.867
74544W        W46859  36.820  31.020  11.554
74545W        W46860  21.379   6.186   4.650
74546W        W46861  25.261  38.476  13.725
74547W        W46862   1.140  38.907  13.326
74548W        W46863  27.260  31.028   3.165
74549W        W46864  27.320   0.762  12.328
74550W        W46865  28.429  24.224  13.823
74551W        W46866  38.812  30.214  10.325
74552W        W46867  36.315  34.003   0.493
74553W        W46868  11.810  42.245   3.801
74554W        W46869  20.115  30.708   0.220
74555W        W46870  42.683   1.913  13.890
74556W        W46871  31.149  33.711   2.675
74557W        W46872  43.735  34.279  14.803
74558W        W46873  17.666  44.687  14.799
74559W        W46874  34.320   4.200   3.852
74560W        W46875   4.323  44.750  10.475
74561W        W46876  21.586  44.834   1.766
74562W        W46877   4.869  13.368   0.892
74563W        W46878  34.258  30.099  11.689
74564W        W46879  25.752  40.503  10.583
74565W        W46880  41.431  33.601  10.732
74566W        W46881  13.672   2.707   3.217
74567W        W46882  32.656  11.913   0.796
74568W        W46883   0.449  19.606  14.434
74569W        W46884  13.830  40.723  11.548
74570W        W46885  23.442   2.541   1.078
74571W        W46886   0.730  42.343   4.194
74572W        W46887  11.434  22.170   2.830
74573W        W46888  27.292   2.790   2.829
74574W        W46889  13.410  27.983  14.942
74575W        W46890  42.869  12.113   1.829
74576W        W46891  17.464  13.297   2.784
74577W        W46892  42.405  22.439  14.438
74578W        W46893  10.574  33.463   2.862
74579W        W46894  33.468  15.775  10.430
74580W        W46895  25.678  23.760  13.890
74581W        W46896  14.217   2.008   0.282
74582W        W46897  35.412  23.549  13.969
74583W        W46898  31.951   1.234  13.025
74584W        W46899  21.667  10.611   2.685
74585W        W46900  14.654  42.228  11.061
74586W        W46901   9.342  27.070  13.354
74587W        W46902   5.120  12.818  14.909
74588W        W46903   2.253  43.757  14.864
74589W        W46904  17.856   6.858   1.932
74590W        W46905   6.197  35.838  14.567
74591W        W46906  25.807  35.320   2.916
74592W        W46907  40.989   5.240   1.761
74593W        W46908  41.989  15.844   2.673
74594W        W46909  16.140  40.189  12.960
74595W        W46910  44.413   0.855   3.191
74596W        W46911  37.060  28.616  12.526
74597W        W46912  26.461  37.978   5.043
74598W        W46913  17.234  33.154   1.858
74599W        W46914   3.387  39.452  14.002
74600W        W46915  17.177   4.492   2.189
74601W        W46916   0.958  32.442   2.603
74602W        W46917  37.057  20.021  12.643
74603W        W46918  43.781  30.982  12.558
74604W        W46919   9.813   8.759  11.960
74605W        W46920  43.023  19.958   1.771
74606W        W46921  11.695  40.543   2.844
74607W        W46922  44.275  37.022   3.179
74608W        W46923  24.171  12.352  11.529
74609W        W46924  23.750   3.428   3.673
74610W        W46925   5.944  30.536  11.189
74611W        W46926  23.948  18.205  14.288
74612W        W46927  16.178  41.376  13.355
74613W        W46928  24.142   7.740  11.836
74614W        W46929  20.604  23.087  10.420
74615W        W46930  42.571  38.461   2.744
74616W        W46931   7.890   8.016   0.988
74617W        W46932  16.019  17.317  13.072
74618W        W46933  29.163  25.567  14.902
74619W        W46934  29.659  25.013  10.613
74620W        W46935  25.060  26.864   3.674
74621W        W46936  18.061  39.768  10.122
74622W        W46937  15.129  36.022  12.685
74623W        W46938  41.857   9.784   0.670
74624W        W46939  39.245  11.158   3.746
74625W        W46940  34.475  35.033  11.178
74626W        W46941   6.299   9.456   4.706
74627W        W46942  44.156  17.310  11.842
74628W        W46943  27.592  31.581   2.953
74629W        W46944  18.198  34.475  14.611
74630W        W46945  19.952  34.514  11.661
74631W        W46946   3.969   4.163  14.920
74632W        W46947  21.413  12.794   3.697
74633W        W46948   7.486  36.975  12.695
74634W        W46949  28.438   3.726  14.300
74635W        W46950  37.550  14.217   1.665
74636W        W46951  17.558  28.921  13.055
74637W        W46952  11.688   3.963  11.999
74638W        W46953  20.287   1.805  12.003
74639W        W46954  19.527  33.561  12.968
74640W        W46955  34.648   1.906   4.163
74641W        W46956  38.272  41.461  10.775
74642W        W46957  26.390  15.039   3.705
74643W        W46958   3.246  32.176   4.187
74644W        W46959  25.790  34.901  13.948
74645W        W46960  41.993  30.536  12.968
74646W        W46961  21.135  42.958   1.512
74647W        W46962   9.207  29.889  13.527
74648W        W46963  14.365   6.205   4.076
74649W        W46964  37.832   0.539  13.962
74650W        W46965  10.527  27.729   1.036
74651W        W46966   1.742  34.425   3.821
74652W        W46967   1.822  11.906  10.121
74653W        W46968  24.684  19.125  12.808
74654W        W46969  14.111  14.380   1.164
74655W        W46970  33.072  21.647   3.119
74656W        W46971  23.668  11.689  11.027
74657W        W46972   0.429  31.730  14.876
74658W        W46973  16.345  20.591   2.228
74659W        W46974   0.210  10.875   4.491
74660W        W46975  42.354  13.199  13.399
74661W        W46976  35.228   3.787  12.021
74662W        W46977  10.873   1.956  14.412
74663W        W46978  17.351  39.523   0.518
74664W        W46979  44.537  27.004   4.196
74665W        W46980   4.742  19.630   1.934
74666W        W46981  19.925  41.325  14.285
74667W        W46982  29.869  26.344  10.894
74668W        W46983  44.813   3.669  11.646
74669W        W46984  28.470  28.480  11.174
74670W        W46985  12.144  35.488  10.607
74671W        W46986  14.276  19.775  13.546
74672W        W46987   8.604  27.282  11.486
74673W        W46988  39.143   6.310   4.118
74674W        W46989  24.817  43.888  14.852
74675W        W46990  37.371  40.756   3.186
74676W        W46991  30.220   0.286   2.387
74677W        W46992  23.461  21.239   2.399
74678W        W46993  23.298  15.650  14.997
74679W        W46994  13.201  17.580   0.005
74680W        W46995  41.480  11.256  13.384
74681W        W46996   2.157  18.779   0.842
74682W        W46997   3.496  26.898  11.966
74683W        W46998  19.579  11.230  13.754
74684W        W46999   1.407  16.210  10.489
74685W        W47000  32.465  13.710  10.740
74686W        W47001  21.563  43.900  13.263
74687W        W47002  35.397  32.642  11.930
74688W        W47003  44.969  33.569   3.174
74689W        W47004  41.734  18.189  10.297
74690W        W47005  15.756  21.654  14.442
74691W        W47006   0.851  26.956  12.626
74692W        W47007   5.771   2.713  12.644
74693W        W47008  19.578  13.579  11.944
74694W        W47009  13.754  20.612   1.834
74695W        W47010   5.224   2.294  14.829
74696W        W47011  18.635  41.575   2.666
74697W        W47012  19.497  20.566  11.567
74698W        W47013  39.009  30.685  10.234
74699W        W47014  44.771  11.583   4.533
74700W        W47015  19.743  44.427   2.416
74701W        W47016  40.906  35.468  12.218
74702W        W47017   9.753   9.458  10.616
74703W        W47018  30.668   8.383   2.696
74704W        W47019   5.447  21.707   3.780
74705W        W47020  44.976   1.709   2.374
74706W        W47021  36.989  28.927  12.964
74707W        W47022   1.109  25.079  11.279
74708W        W47023  42.306  27.701  14.813
74709W        W47024  33.742  21.524   2.466
74710W        W47025   9.673   4.231  11.210
74711W        W47026  37.019  34.930   1.827
74712W        W47027   2.315  19.177   2.045
74713W        W47028  31.200  12.698   0.823
74714W        W47029  27.684  35.417  13.460
74715W        W47030  41.068  36.647  12.982
74716W        W47031  12.446  25.618  14.911
74717W        W47032   0.932  29.436   0.194
74718W        W47033  32.931   3.936   1.877
74719W        W47034  18.210  42.334   2.791
74720W        W47035  18.770  29.929  10.191
74721W        W47036   1.496   3.265   2.173
74722W        W47037   6.460  20.801   2.747
74723W        W47038   1.020   5.780   0.293
74724W        W47039   9.083  17.604  10.386
74725W        W47040  23.734  16.911  11.083
74726W        W47041  19.031   5.668  12.311
74727W        W47042  14.653  44.755   4.726
74728W        W47043   7.175  24.768  13.002
74729W        W47044  31.179  41.897  13.296
74730W        W47045   0.977   3.808  13.786
74731W        W47046  44.414  42.939   3.397
74732W        W47047  33.162  26.807  14.115
74733W        W47048  20.510  21.666   2.299
74734W        W47049  36.740  39.999   3.202
74735W        W47050  32.827  33.496  13.022
74736W        W47051  31.847  17.069  13.968
74737W        W47052  44.222   3.463   2.965
74738W        W47053  28.439  13.781  14.290
74739W        W47054   5.787  21.068   0.889
74740W        W47055  22.540  44.840   0.529
74741W        W47056  15.365  19.612  14.925
74742W        W47057  21.635  12.574   4.132
74743W        W47058  34.103  20.966  13.054
74744W        W47059   0.044  14.390   1.863
74745W        W47060  15.982  39.390   1.859
74746W        W47061  43.782  44.954   4.845
74747W        W47062  42.958   4.486   3.455
74748W        W47063   6.051  37.208   2.738
74749W        W47064  24.073  40.328  12.083
74750W        W47065  36.399  42.030   4.170
74751W        W47066  26.587  42.681   2.739
74752W        W47067  36.690  31.975   3.200
74753W        W47068  11.743  33.375   3.231
74754W        W47069  18.404  39.205   0.740
74755W        W47070   2.090  29.022   0.801
74756W        W47071  17.460   2.292  11.315
74757W        W47072  29.086  38.560  11.132
74758W        W47073  31.584   9.700   1.203
74759W        W47074  29.223  13.564  14.550
74760W        W47075   2.417  25.949   3.106
74761W        W47076  21.591  39.815   4.600
74762W        W47077  10.680  29.446   5.003
74763W        W47078  10.125  28.688   0.857
74764W        W47079  37.810  38.755  12.509
74765W        W47080  21.218  40.860  14.099
74766W        W47081  40.793  30.506  12.538
74767W        W47082   4.657  13.370   3.460
74768W        W47083  37.023  10.071   3.567
74769W        W47084  36.434  15.438  13.830
74770W        W47085  15.609  37.861  13.848
74771W        W47086  35.013  41.725  13.403
74772W        W47087  24.531  44.885  10.634
74773W        W47088  21.940  32.036  10.923
74774W        W47089   5.724   7.555   0.418
74775W        W47090   4.456  42.456  13.406
74776W        W47091   7.302   5.214   4.249
74777W        W47092   6.440  20.329  11.526
74778W        W47093  41.780  23.583   3.771
74779W        W47094  41.496  12.268   2.883
74780W        W47095  13.620  18.050  13.332
74781W        W47096  14.658   4.961  10.772
74782W        W47097  39.855  44.689   1.744
74783W        W47098  11.055   9.212  11.631
74784W        W47099  36.654  26.010   2.360
74785W        W47100  21.261   0.512  12.922
74786W        W47101  18.638  31.660   1.688
74787W        W47102   1.456  44.283   2.295
74788W        W47103  23.245  29.420  12.447
74789W        W47104  15.411  34.524  12.306
74790W        W47105  10.713  19.749   4.675
74791W        W47106  36.480  30.477   3.107
74792W        W47107  43.925   8.880  14.949
74793W        W47108  20.413  31.727  10.498
74794W        W47109  13.337  25.113   2.284
74795W        W47110  33.145  33.692   3.470
74796W        W47111   5.974  29.635   1.933
74797W        W47112   6.815  41.421   0.698
74798W        W47113  31.993   3.274  12.058
74799W        W47114  23.019  12.110  11.621
74800W        W47115  16.857  41.342   4.684
74801W        W47116  36.643  18.817  11.868
74802W        W47117  34.376  34.556   4.910
74803W        W47118  23.956  29.957  11.378
74804W        W47119  11.413   8.198  10.779
74805W        W47120  19.750   7.006  13.945
74806W        W47121  25.410  22.255   2.851
74807W        W47122  42.021  21.709   3.420
74808W        W47123  43.123  43.825  11.507
74809W        W47124  40.811  40.067  11.434
74810W        W47125   8.802  34.909  11.533
74811W        W47126  40.299  34.856  11.355
74812W        W47127  36.666  35.378  14.510
74813W        W47128  29.562  13.267   0.012
74814W        W47129  17.356  35.847  13.077
74815W        W47130  28.730  12.125   2.200
74816W        W47131  27.044   6.729  10.597
74817W        W47132  23.014   3.381  11.589
74818W        W47133  32.476  32.602   1.279
74819W        W47134  33.881   6.779  13.063
74820W        W47135  36.061  32.570   0.085
74821W        W47136   3.975  12.619   1.214
74822W        W47137   2.886  37.304   4.062
74823W        W47138  12.372   7.996  11.027
74824W        W47139  28.326  15.810  13.165
74825W        W47140  36.923  31.732   1.839
74826W        W47141   7.328  23.968  13.403
74827W        W47142   6.627  31.526   2.305
74828W        W47143  20.727  11.650   1.887
74829W        W47144   2.832  11.879   4.277
74830W        W47145  24.575  38.045  10.675
74831W        W47146   2.712  33.103  11.089
74832W        W47147  29.017   4.398   0.321
74833W        W47148   9.177   0.594   3.207
74834W        W47149   2.646   0.732   3.790
74835W        W47150  32.857  25.422   2.375
74836W        W47151  17.207  18.552  11.854
74837W        W47152  33.465   0.401   3.696
74838W        W47153  30.667  31.586  12.853
74839W        W47154  30.535  14.041  13.414
74840W        W47155   7.801  28.602  11.889
74841W        W47156  24.207  18.074  13.334
74842W        W47157  25.142   3.669   4.175
74843W        W47158  22.651   9.958   4.629
74844W        W47159  14.158  13.625  10.654
74845W        W47160   1.734  16.367   1.874
74846W        W47161  19.734  10.375   1.914
74847W        W47162  42.227  19.524   1.749
74848W        W47163  36.308  31.622  13.960
74849W        W47164  20.655  44.984   3.721
74850W        W47165  18.673   8.742  13.793
74851W        W47166   6.055  32.405  11.685
74852W        W47167   7.366  22.989   3.863
74853W        W47168  23.691  10.445  12.837
74854W        W47169  10.197  26.691   2.625
74855W        W47170  14.695  23.742   0.495
74856W        W47171   9.909  16.784   0.025
74857W        W47172  28.694  18.293   0.952
74858W        W47173  14.534  34.973   4.496
74859W        W47174  11.424  11.420  12.077
74860W        W47175   2.503  17.408  12.054
74861W        W47176  24.116   1.337   1.432
74862W        W47177  19.697  40.387   1.513
74863W        W47178  33.786  18.010  11.720
74864W        W47179  34.553  22.798   2.843
74865W        W47180  42.108  14.400  11.590
74866W        W47181   5.774   3.825  12.385
74867W        W47182  14.011  19.618   0.364
74868W        W47183  23.733   3.847   0.807
74869W        W47184  11.787  38.491  12.350
74870W        W47185  25.062  24.517  14.983
74871W        W47186  20.590  37.420   4.090
74872W        W47187   2.955  20.875   2.148
74873W        W47188  22.430  30.576   5.235
74874W        W47189  38.480   3.236  12.460
74875W        W47190  26.699   2.781  12.794
74876W        W47191  17.119  43.764   3.413
74877W        W47192   5.285  25.599   0.926
74878W        W47193   2.320  22.081   4.196
74879W        W47194   4.747  26.520  10.457
74880W        W47195  11.348  34.544  10.619
74881W        W47196  35.781  32.886   2.062
74882W        W47197   7.351  37.587  14.073
74883W        W47198  32.941  28.797   1.833
74884W        W47199  40.534  41.414  11.191
74885W        W47200  33.321  21.501   4.788
74886W        W47201   9.683  10.796   2.767
74887W        W47202   8.888  30.573   0.834
74888W        W47203  42.339  12.228  10.698
74889W        W47204  26.415  31.338  14.924
74890W        W47205   0.967  39.517   2.843
74891W        W47206  44.597  21.724  14.794
74892W        W47207  15.697   0.317  11.891
74893W        W47208   9.205  35.456   2.979
74894W        W47209   9.729  18.283   2.334
74895W        W47210  30.576   8.667  11.536
74896W        W47211  23.041  39.420  12.939
74897W        W47212   0.095  42.433   3.308
74898W        W47213  19.590  35.334   0.346
74899W        W47214  10.270  33.308   4.487
74900W        W47215  32.896  20.502  12.553
74901W        W47216  33.809  26.649   1.340
74902W        W47217  15.864   5.875   1.529
74903W        W47218  30.940  14.301   0.953
74904W        W47219   7.789  23.878   0.835
74905W        W47220  39.900  33.516  11.559
74906W        W47221  21.023  11.220   1.851
74907W        W47222  17.032  41.720   0.332
74908W        W47223   4.916  21.082   0.340
74909W        W47224  23.534  23.646  12.352
74910W        W47225   9.240  43.495  12.012
74911W        W47226  36.693   7.858  11.609
74912W        W47227  23.269  11.361  12.019
74913W        W47228  23.034   4.746  13.498
74914W        W47229  11.342  16.188  14.157
74915W        W47230  22.992  28.964  11.614
74916W        W47231  28.655   6.860   2.494
74917W        W47232  28.694   4.599   2.788
74918W        W47233  32.086   2.853  13.971
74919W        W47234  36.326  29.676  10.612
74920W        W47235  37.421  11.921   4.586
74921W        W47236  29.081  11.633   4.174
74922W        W47237  43.839  32.306   4.064
74923W        W47238  44.515   5.596   0.163
74924W        W47239  12.831  17.773  13.749
74925W        W47240  42.302  30.177  12.507
74926W        W47241  43.378  11.412  13.992
74927W        W47242  25.051  33.279   2.062
74928W        W47243  13.687  23.596  14.465
74929W        W47244  44.112  13.133   0.397
74930W        W47245   4.593  11.530   5.099
74931W        W47246  12.184  43.828   2.917
74932W        W47247  44.022   5.185   2.452
74933W        W47248   7.354  11.768   4.460
74934W        W47249  30.023  10.499  12.160
74935W        W47250  25.134   1.899  14.491
74936W        W47251   8.161  22.512   2.978
74937W        W47252  13.105  44.434  12.885
74938W        W47253  11.316  31.680   1.564
74939W        W47254  10.836  34.084   4.073
74940W        W47255  31.489  26.445   0.847
74941W        W47256  14.923   3.126   2.865
74942W        W47257  23.348  32.491  13.407
74943W        W47258  32.289  31.881   5.336
74944W        W47259  16.241   1.409  12.130
74945W        W47260  39.394  19.025   1.823
74946W        W47261   1.832  20.890  11.495
74947W        W47262  30.427   3.869   2.846
74948W        W47263  14.007  26.309   5.038
74949W        W47264  20.744  25.572   3.062
74950W        W47265  14.170   4.440   4.789
74951W        W47266  40.520  16.190  14.234
74952W        W47267  12.610  42.367  13.898
74953W        W47268  43.701  40.908   3.055
74954W        W47269  12.075  24.195   4.181
74955W        W47270  19.214  12.074  14.808
74956W        W47271  15.245   2.020   4.711
74957W        W47272  44.460  34.867   2.164
74958W        W47273  42.341  34.044  12.162
74959W        W47274  28.499  36.356   2.364
74960W        W47275  28.608  10.863  12.336
74961W        W47276   0.001  29.220   0.333
74962W        W47277  29.596  15.671   4.808
74963W        W47278   4.699  34.501  14.803
74964W        W47279  30.926  13.925  11.584
74965W        W47280   1.778  23.744  11.230
74966W        W47281  14.550  28.413   1.271
74967W        W47282  26.961  25.010   2.793
74968W        W47283   7.837   7.843   3.332
74969W        W47284   5.648  43.590  12.420
74970W        W47285  11.227  13.718  14.483
74971W        W47286   6.188  23.090  11.165
74972W        W47287   6.192  42.095  12.596
74973W        W47288  36.523  15.339  11.218
74974W        W47289  44.028  19.182   4.136
74975W        W47290  23.980  28.796   3.318
74976W        W47291  32.657  11.649  12.650
74977W        W47292  21.184  13.080  13.464
74978W        W47293  28.001  44.244  12.382
74979W        W47294  11.292   4.203   2.271
74980W        W47295  15.738  22.613   3.747
74981W        W47296   7.493   6.802  12.855
74982W        W47297   5.737   3.816   3.127
74983W        W47298  11.927   0.038   2.262
74984W        W47299  30.760  42.571   3.344
74985W        W47300  30.906  29.965   1.827
74986W        W47301  40.371   4.804  10.163
74987W        W47302  35.960  15.651  13.031
74988W        W47303  23.477  22.946   1.797
74989W        W47304   5.215  42.880  13.457
74990W        W47305  42.834   0.955  10.549
74991W        W47306   3.458  30.512   1.859
74992W        W47307  43.188  38.054   3.612
74993W        W47308  30.449   7.190   1.365
74994W        W47309  33.397  11.204  12.163
74995W        W47310  31.896   0.826   2.145
74996W        W47311  10.496  36.792   1.377
74997W        W47312  35.908   7.260  11.981
74998W        W47313   1.385  13.347   1.703
74999W        W47314  42.911  30.227  14.314
75000W        W47315  11.734  12.841  12.821
75001W        W47316   3.932  28.277   1.453
75002W        W47317  31.075  20.104  11.489
75003W        W47318  15.377   0.452   0.774
75004W        W47319  34.478  43.444   2.816
75005W        W47320  35.587  33.616  12.588
75006W        W47321   4.421  22.533  12.001
75007W        W47322  19.519   6.673  13.615
75008W        W47323   8.876  34.472  10.743
75009W        W47324  16.032  37.033  11.940
75010W        W47325  12.735   2.595  13.343
75011W        W47326  39.793  41.973  10.756
75012W        W47327  31.127  21.354  11.828
75013W        W47328  42.694  20.734  10.717
75014W        W47329  34.976  18.542  13.999
75015W        W47330   0.960  18.055  10.212
75016W        W47331  40.455  25.270  14.230
75017W        W47332  11.741  28.670   2.701
75018W        W47333  30.505  38.030  14.788
75019W        W47334  20.137   3.280   3.342
75020W        W47335  32.911   5.962  14.329
75021W        W47336  43.514  14.668  14.510
75022W        W47337  10.109  31.738  13.870
75023W        W47338  38.823   5.477  11.181
75024W        W47339   0.490  40.642  12.059
75025W        W47340  19.628  39.527   3.319
75026W        W47341  36.933  37.334   0.929
75027W        W47342  43.794  26.143  12.928
75028W        W47343  29.060  30.322   3.609
75029W        W47344  41.289   0.861   2.904
75030W        W47345  14.850   0.238  11.894
75031W        W47346  28.630  35.931   3.286
75032W        W47347  37.860  19.171  11.881
75033W        W47348  39.379  22.987   5.675
75034W        W47349  32.254  40.291  14.411
75035W        W47350  37.948  27.556  11.397
75036W        W47351  40.421  29.392   2.247
75037W        W47352   4.778  40.540  11.555
75038W        W47353  25.318   5.691  12.303
75039W        W47354   4.916  44.909  12.143
75040W        W47355  16.155  10.426  13.481
75041W        W47356  17.089   6.294  13.892
75042W        W47357  31.556  32.956   4.961
75043W        W47358  27.084   9.866  11.357
75044W        W47359  11.675  10.915  12.808
75045W        W47360  24.617   7.769   4.339
75046W        W47361  18.747  41.310   2.220
75047W        W47362   6.960  13.836   0.070
75048W        W47363   5.868  32.107   2.429
75049W        W47364  17.296  21.551   0.203
75050W        W47365  10.903  34.458  12.356
75051W        W47366  39.820   3.810  13.991
75052W        W47367  22.741  32.472  11.162
75053W        W47368  16.793  11.701  14.028
75054W        W47369  42.551  13.638   1.231
75055W        W47370  22.640   6.894  14.476
75056W        W47371  20.663  22.474   2.717
75057W        W47372  15.509  20.567   0.513
75058W        W47373  37.328  30.259   4.184
75059W        W47374  44.283  10.380  11.544
75060W        W47375  23.022  34.052  12.908
75061W        W47376  27.959  14.188  10.578
75062W        W47377  32.652  32.567  10.804
75063W        W47378  32.023  15.370  13.583
75064W        W47379  29.451   6.494  12.986
75065W        W47380   6.275  34.166  12.417
75066W        W47381  43.635  24.544  12.601
75067W        W47382   4.263  17.046   2.585
75068W        W47383  11.238  43.926   1.473
75069W        W47384  19.521  27.466   2.752
75070W        W47385  24.470   1.016   1.193
75071W        W47386  13.986  30.900   0.865
75072W        W47387  16.813  41.366  11.647
75073W        W47388  44.346  37.104  10.161
75074W        W47389  28.827  28.550  12.906
75075W        W47390  43.726  43.557  13.942
75076W        W47391  17.588  25.688  11.933
75077W        W47392  34.314  22.663   0.487
75078W        W47393   3.550   2.393   3.716
75079W        W47394   7.405  14.372   0.997
75080W        W47395   0.514  24.938  11.993
75081W        W47396  18.232  25.913   2.323
75082W        W47397  37.862   8.693   5.080
75083W        W47398  11.779   5.998   5.122
75084W        W47399  28.859   4.772   2.260
75085W        W47400  36.947   1.280   4.947
75086W        W47401  31.670  31.961   2.149
75087W        W47402  35.813  40.403  14.286
75088W        W47403  32.562  18.975  13.394
75089W        W47404   1.497  37.126  11.661
75090W        W47405  41.514  17.204  13.451
75091W        W47406  37.051  32.091   0.794
75092W        W47407   1.509  27.279  13.770
75093W        W47408  27.774  29.133  14.394
75094W        W47409  19.088  22.760  12.892
75095W        W47410  25.439  44.098   2.207
75096W        W47411  26.402  14.775   4.163
75097W        W47412  26.485  30.925   1.407
75098W        W47413  16.749  37.585  11.954
75099W        W47414  32.062  11.105  12.958
75100W        W47415  27.993  44.876   4.467
75101W        W47416   1.847  38.883  14.991
75102W        W47417  42.776  23.785   2.625
75103W        W47418  38.372  19.645   4.590
75104W        W47419  38.121  36.316   1.587
75105W        W47420  44.518  18.634  13.613
75106W        W47421  26.571  11.847  11.038
75107W        W47422   6.454   5.902  13.344
75108W        W47423  28.999  26.494   3.655
75109W        W47424  16.816  19.735  11.082
75110W        W47425  35.606  11.211  14.443
75111W        W47426  16.091  11.256  13.996
75112W        W47427  42.042  14.593  12.863
75113W        W47428   7.666  16.142   0.245
75114W        W47429  38.129   8.583   3.646
75115W        W47430  12.660  31.945   1.725
75116W        W47431  19.593  38.342   3.657
75117W        W47432  39.949  34.931  12.156
75118W        W47433  24.537  25.131   3.661
75119W        W47434  24.781  22.992  11.165
75120W        W47435  30.481  41.340  13.038
75121W        W47436  33.874  24.146  14.171
75122W        W47437  24.029  31.217  12.965
75123W        W47438   5.255  40.524  12.408
75124W        W47439  21.656  22.476  14.038
75125W        W47440  35.582  44.822   1.643
75126W        W47441  13.002  20.282   4.159
75127W        W47442  21.661   1.642  11.418
75128W        W47443  13.241  41.315   4.987
75129W        W47444   8.451  24.139  10.422
75130W        W47445   2.587  32.057  10.661
75131W        W47446   9.255  32.322   3.596
75132W        W47447  15.836  19.663   2.946
75133W        W47448  29.866  21.176   9.910
75134W        W47449  12.858   3.186   0.548
75135W        W47450   5.939  22.914   0.788
75136W        W47451  25.491   2.190  13.774
75137W        W47452  13.451  24.637   2.471
75138W        W47453  27.668  19.192  11.837
75139W        W47454  34.581   7.312   4.845
75140W        W47455  10.197  33.814   3.188
75141W        W47456   6.393  32.478   2.688
75142W        W47457  22.236  29.532  11.595
75143W        W47458  36.797  28.163   0.871
75144W        W47459  32.404  37.512  10.697
75145W        W47460  19.685  25.706   1.445
75146W        W47461  36.954  42.781   0.003
75147W        W47462  34.401  37.496   3.585
75148W        W47463   1.833   1.684   4.416
75149W        W47464  28.476  28.979   4.539
75150W        W47465  21.756  32.953   1.242
75151W        W47466  24.447  17.807  11.181
75152W        W47467  40.376  21.941  12.495
75153W        W47468  36.549  35.477  10.531
75154W        W47469   8.227  20.945  13.011
75155W        W47470  13.247   5.147  14.857
75156W        W47471  27.730   3.057  10.225
75157W        W47472   9.122  15.171  14.362
75158W        W47473  43.870  22.501  13.255
75159W        W47474  36.044  44.975  12.492
75160W        W47475  20.507  12.219  14.038
75161W        W47476  16.988  21.686   1.143
75162W        W47477  20.249   3.378  14.063
75163W        W47478  42.069  11.083  10.794
75164W        W47479  37.586  42.513   3.758
75165W        W47480   0.431  38.585  11.096
75166W        W47481  28.901  32.192  14.054
75167W        W47482  37.627  15.080  12.603
75168W        W47483   1.496   1.946  13.564
75169W        W47484  11.514  23.892   3.337
75170W        W47485   7.863  44.610  12.591
75171W        W47486  40.831   8.995   1.813
75172W        W47487  19.295   1.509   4.696
75173W        W47488  20.303  33.123  12.099
75174W        W47489  42.972   8.259   4.520
75175W        W47490  28.201  31.046  13.622
75176W        W47491  38.254  41.901  13.927
75177W        W47492  38.866  30.646  13.620
75178W        W47493  16.215   4.334  11.609
75179W        W47494  11.624  32.810  13.027
75180W        W47495  38.151  30.077  14.893
75181W        W47496  31.227  25.500   0.060
75182W        W47497  20.588   6.067  14.531
75183W        W47498   2.956  20.132  10.519
75184W        W47499  10.193  43.378  11.943
75185W        W47500   3.020  36.844  12.485
75186W        W47501   7.377  41.486  14.949
75187W        W47502  29.736  11.852  10.601
75188W        W47503  24.337  37.513   3.236
75189W        W47504  40.844  16.633  14.337
75190W        W47505   7.467  18.210  12.430
75191W        W47506  32.305  25.174  10.678
75192W        W47507   9.810  10.750   1.905
75193W        W47508   2.833  39.337  11.884
75194W        W47509  37.841  29.613   2.644
75195W        W47510  44.511  14.990  14.409
75196W        W47511  39.018  12.199   1.243
75197W        W47512  42.554  11.448   0.756
75198W        W47513  24.711   0.493   3.645
75199W        W47514   1.723  19.716  14.800
75200W        W47515   4.297  23.069  10.715
75201W        W47516   5.204  30.874  11.966
75202W        W47517  16.765  25.125  14.871
75203W        W47518  38.596  22.551  14.755
75204W        W47519  36.579   6.253   2.394
75205W        W47520  20.803   0.987  11.112
75206W        W47521  43.504  18.806  12.043
75207W        W47522   7.692  31.446   4.607
75208W        W47523  13.751  20.099   1.686
75209W        W47524  38.751  21.709   4.154
75210W        W47525  38.942  43.937  10.309
75211W        W47526   1.959  36.448   2.806
75212W        W47527  12.594  42.910  11.478
75213W        W47528  31.592  32.392  13.547
75214W        W47529  36.590  23.168   1.310
75215W        W47530  29.245  25.365   2.618
75216W        W47531  30.015  36.111   0.013
75217W        W47532   1.946  11.321   2.096
75218W        W47533  33.113  21.649  13.547
75219W        W47534  36.031  31.903   1.713
75220W        W47535   5.664  43.435   2.327
75221W        W47536  29.096   9.162  12.069
75222W        W47537  34.167  20.242   1.162
75223W        W47538  11.670  25.907  13.421
75224W        W47539   5.465   7.195   1.136
75225W        W47540  23.578  39.783  10.899
75226W        W47541  24.752  16.775   0.872
75227W        W47542   0.916  21.142   1.270
75228W        W47543  25.008  14.523  14.034
75229W        W47544  24.514   9.693  12.240
75230W        W47545  40.735  35.135   3.804
75231W        W47546  28.023  33.577  13.415
75232W        W47547  44.826  40.737  11.648
75233W        W47548  18.699  30.610  11.938
75234W        W47549  21.010  26.504  11.988
75235W        W47550  14.715  41.342   1.331
75236W        W47551  37.607  44.865   1.912
75237W        W47552  43.735  31.926   3.733
75238W        W47553  35.005  34.141  13.414
75239W        W47554   3.326   7.654  12.108
75240W        W47555  28.143  19.793   3.044
75241W        W47556   6.698   1.036   5.089
75242W        W47557   5.922  13.951   4.147
75243W        W47558   2.491  43.280   5.081
75244W        W47559  20.481  12.067   3.614
75245W        W47560  20.768  35.668   1.783
75246W        W47561  17.529   9.877   5.541
75247W        W47562  43.424  27.193  12.127
75248W        W47563   6.800   2.790  14.780
75249W        W47564   0.991   6.223   0.763
75250W        W47565  14.730  22.732   1.663
75251W        W47566  33.112   0.404   1.239
75252W        W47567  31.885  20.157   5.195
75253W        W47568  18.276  29.898   4.658
75254W        W47569  30.621  31.472  11.940
75255W        W47570  27.649  22.492   3.233
75256W        W47571  15.643   4.787   4.682
75257W        W47572   4.467  44.746  14.504
75258W        W47573  37.561  32.009   0.317
75259W        W47574  11.124  16.369   1.203
75260W        W47575  20.249  15.418   4.481
75261W        W47576  16.203   4.824   4.090
75262W        W47577   3.679  33.915   1.214
75263W        W47578  30.393  12.180   4.557
75264W        W47579  39.420  27.275   3.724
75265W        W47580  15.123  23.399  11.193
75266W        W47581  24.961  26.717   2.301
75267W        W47582  32.974   0.783  11.867
75268W        W47583  13.598  17.126   2.824
75269W        W47584  26.903  42.450   3.894
75270W        W47585  40.997  41.592   1.342
75271W        W47586  30.505  40.339   0.819
75272W        W47587  18.161  37.774  13.484
75273W        W47588  40.132  22.171   2.235
75274W        W47589  42.519  26.447  11.898
75275W        W47590  23.341   2.853  13.395
75276W        W47591  20.559  10.088   2.403
75277W        W47592   9.368  29.633   2.217
75278W        W47593  34.547  16.271  11.699
75279W        W47594  10.700   7.261   1.345
75280W        W47595  42.731  28.809  11.018
75281W        W47596  20.028  37.196  10.636
75282W        W47597  12.022  19.978   4.228
75283W        W47598  35.865  28.597   4.638
75284W        W47599  41.229  38.333   2.414
75285W        W47600  23.273  41.381   0.505
75286W        W47601  16.309  32.586   0.776
75287W        W47602  18.969  12.660  12.436
75288W        W47603  34.884  18.999  13.772
75289W        W47604  16.725  17.853   1.437
75290W        W47605  27.607  15.175  10.729
75291W        W47606  24.764  27.429  13.472
75292W        W47607  21.305   7.569   5.080
75293W        W47608   2.371  40.062  12.069
75294W        W47609  42.887   3.008  13.174
75295W        W47610  19.163   4.633   1.883
75296W        W47611  20.722  26.217   3.676
75297W        W47612  39.529  40.302  11.954
75298W        W47613  12.316  17.070  12.576
75299W        W47614  12.864  19.150   1.720
75300W        W47615  36.085   2.260   0.850
75301W        W47616  31.884  18.037   0.760
75302W        W47617  37.430  44.160   1.001
75303W        W47618  39.956  16.879  14.256
75304W        W47619  11.356  38.754   0.586
75305W        W47620  11.769  29.230   4.106
75306W        W47621  21.144  13.315  14.824
75307W        W47622  31.112   2.580  11.564
75308W        W47623  38.188  13.593   0.376
75309W        W47624   8.584  28.739  13.403
75310W        W47625  25.959  18.666  13.057
75311W        W47626  30.580  41.148  14.182
75312W        W47627  22.424   2.759  11.129
75313W        W47628  33.824  22.091  10.532
75314W        W47629  30.480  31.281   1.765
75315W        W47630  37.224  33.021  11.047
75316W        W47631  24.445  26.606   4.213
75317W        W47632  20.111   9.214  14.099
75318W        W47633   0.981   5.852  13.040
75319W        W47634  25.457   9.496   5.037
75320W        W47635   5.522  22.230  13.105
75321W        W47636  23.775  41.284   0.462
75322W        W47637  32.945  28.437   0.853
75323W        W47638  37.053  31.950   0.221
75324W        W47639  40.871  13.085   2.090
75325W        W47640  17.016  17.235  12.957
75326W        W47641  30.629  35.583  13.792
75327W        W47642  18.803  33.350   0.693
75328W        W47643  28.756  26.061  11.526
75329W        W47644  28.132  36.991   0.929
75330W        W47645   1.463  31.397   1.734
75331W        W47646  14.835  18.730   2.302
75332W        W47647  37.921  23.986   5.579
75333W        W47648   6.159  26.334  10.174
75334W        W47649  16.191   1.867   4.108
75335W        W47650  37.851   9.377   1.781
75336W        W47651  14.594  44.300   4.417
75337W        W47652  39.327  26.449  14.721
75338W        W47653   5.254  27.766   4.233
75339W        W47654   1.780   3.711  10.928
75340W        W47655   2.692  33.520   1.353
75341W        W47656   2.205   2.780  10.476
75342W        W47657  10.715  25.049   1.632
75343W        W47658  27.087  15.232   1.878
75344W        W47659  28.057  31.009   1.322
75345W        W47660  16.842  17.657   4.080
75346W        W47661   8.166  37.264   5.164
75347W        W47662  41.840   1.069  10.355
75348W        W47663   3.349  12.267   4.648
75349W        W47664  13.323  20.692  14.058
75350W        W47665  40.488  30.655   1.405
75351W        W47666   0.873  27.315  12.234
75352W        W47667  16.236  34.389  12.080
75353W        W47668  13.846  16.742   2.611
75354W        W47669  38.800  10.020   4.540
75355W        W47670  39.297  14.633  10.448
75356W        W47671  43.380  10.435  10.282
75357W        W47672  24.320  24.367   2.502
75358W        W47673   3.786  27.487  12.809
75359W        W47674  31.592  36.658   2.264
75360W        W47675   2.913   2.973  12.433
75361W        W47676  34.515  22.674  13.336
75362W        W47677  12.550   5.293  13.327
75363W        W47678   4.402   5.247   3.092
75364W        W47679   2.805  36.733   1.535
75365W        W47680   3.300  37.356  12.828
75366W        W47681   4.022  15.587  14.777
75367W        W47682  21.919  18.072   1.205
75368W        W47683  44.021  30.468   3.259
75369W        W47684  10.664  15.634  11.173
75370W        W47685  29.127  15.347   0.922
75371W        W47686  29.031  41.674   1.612
75372W        W47687  19.692  39.370   1.802
75373W        W47688  35.906   4.017   4.271
75374W        W47689  18.637  17.589   0.276
75375W        W47690  35.601  25.894  12.383
75376W        W47691  25.538  41.392  13.433
75377W        W47692   0.114   5.057   3.251
75378W        W47693  19.338  44.172   2.228
75379W        W47694  39.467  23.421   3.672
75380W        W47695  40.968  35.547  12.721
75381W        W47696  11.442  44.831   0.963
75382W        W47697  10.629  22.213   4.638
75383W        W47698  11.271   3.486   2.762
75384W        W47699  18.303  15.191  11.939
75385W        W47700  35.088  19.970  10.701
75386W        W47701  22.719   4.358  13.377
75387W        W47702  22.766  42.526   2.008
75388W        W47703  27.695  42.274  11.580
75389W        W47704  14.054  38.659  12.156
75390W        W47705  16.539  12.201  12.294
75391W        W47706  19.294  18.200  13.457
75392W        W47707  13.177  36.109   3.161
75393W        W47708  44.986  25.535   1.780
75394W        W47709  23.282   5.748   1.285
75395W        W47710  11.833  25.668  11.549
75396W        W47711  19.683  15.669   2.456
75397W        W47712  10.743   8.276  13.444
75398W        W47713   8.132  14.207  13.376
75399W        W47714  34.259  44.401   2.174
75400W        W47715   8.655  39.502   1.850
75401W        W47716   8.311   7.644   4.645
75402W        W47717  20.977  27.677   4.643
75403W        W47718   0.758  10.587  13.500
75404W        W47719  13.680  33.625   3.924
75405W        W47720  11.604  11.195   3.643
75406W        W47721  10.776  17.166   1.273
75407W        W47722  23.837  44.259   0.085
75408W        W47723  24.973  25.692  13.245
75409W        W47724  28.681  14.602   4.377
75410W        W47725  36.680  29.619   3.205
75411W        W47726  16.116  44.167   2.417
75412W        W47727  21.610  30.920   1.965
75413W        W47728  34.834  30.780   1.262
75414W        W47729  39.915  32.711  11.137
75415W        W47730  14.892  23.603   3.841
75416W        W47731  39.629  35.283   0.411
75417W        W47732  34.436  26.701  14.029
75418W        W47733  11.098  41.221   4.065
75419W        W47734  14.818  22.513  11.662
75420W        W47735  25.929  21.060  10.540
75421W        W47736  21.235  38.432   1.772
75422W        W47737  40.258  10.295   0.414
75423W        W47738  42.585  34.580   1.289
75424W        W47739  38.916   1.362   3.917
75425W        W47740  44.267  15.897   4.654
75426W        W47741  10.669  11.552   1.330
75427W        W47742  43.330  29.406   2.834
75428W        W47743  28.986   0.042   4.549
75429W        W47744   9.457   6.001  11.623
75430W        W47745   0.756  36.395  11.063
75431W        W47746  26.724  34.476   5.069
75432W        W47747  42.794   2.911  11.607
75433W        W47748  35.186  41.371  14.918
75434W        W47749  12.185   6.179  10.908
75435W        W47750  32.983   1.578   2.600
75436W        W47751  30.913  13.050  13.957
75437W        W47752  35.077  36.533   1.293
75438W        W47753   8.592  32.984  14.870
75439W        W47754  10.297  16.795   3.193
75440W        W47755  17.440  38.186   3.762
75441W        W47756  15.221  33.968  14.874
75442W        W47757  27.572  10.845  10.756
75443W        W47758  43.338   7.765   4.676
75444W        W47759  38.470  40.734   4.699
75445W        W47760  24.240  15.273  11.004
75446W        W47761   4.953  40.366  13.802
75447W        W47762  30.987  41.214  13.847
75448W        W47763  15.174   6.244  11.841
75449W        W47764  41.554  17.293  11.594
75450W        W47765  39.673   7.354  14.926
75451W        W47766  31.070  28.741  10.842
75452W        W47767  16.468  10.986   9.698
75453W        W47768  22.199   7.883   2.010
75454W        W47769  12.608   0.870   3.279
75455W        W47770  15.328  16.582   0.514
75456W        W47771  38.834  16.975   1.333
75457W        W47772  11.395  38.983   1.571
75458W        W47773  31.488  34.863   4.503
75459W        W47774  44.062  10.924   2.388
75460W        W47775  15.798  30.408  13.964
75461W        W47776   4.163  20.054  13.494
75462W        W47777  20.213  36.690  10.714
75463W        W47778  37.372  37.561  11.156
75464W        W47779  12.650  32.432  12.380
75465W        W47780  22.927  35.627   1.436
75466W        W47781  18.120  40.506  13.989
75467W        W47782  38.360  10.049   1.654
75468W        W47783  24.604  34.623   4.482
75469W        W47784  28.624  12.882  10.558
75470W        W47785  22.328  40.372   1.198
75471W        W47786  39.961  29.633   4.600
75472W        W47787   3.347  16.777   1.893
75473W        W47788   5.430  17.605   4.213
75474W        W47789   5.114  38.588   0.927
75475W        W47790  36.459   3.969  14.827
75476W        W47791  25.316  10.216   2.869
75477W        W47792  31.986  32.669   0.902
75478W        W47793  17.252   0.943   2.712
75479W        W47794  43.270  34.380  12.989
75480W        W47795  11.830  11.755   4.871
75481W        W47796  28.494   8.380   3.388
75482W        W47797  22.077   0.223  12.464
75483W        W47798  38.820  30.042   1.810
75484W        W47799  19.183   3.057   4.366
75485W        W47800  16.594   9.729   1.751
75486W        W47801  28.575  30.162  14.036
75487W        W47802   5.777   6.955   2.269
75488W        W47803  25.606   6.714  13.052
75489W        W47804  33.347  41.889  14.357
75490W        W47805  19.505  34.917  13.487
75491W        W47806  37.287  10.157  14.472
75492W        W47807   9.118  28.697  13.401
75493W        W47808  26.433   8.400  11.730
75494W        W47809  21.184  40.686  11.621
75495W        W47810   0.544  13.274  11.475
75496W        W47811  38.167   4.550  12.615
75497W        W47812  32.164  17.300  13.612
75498W        W47813  30.430  32.398   3.943
75499W        W47814  31.438  43.029   4.193
75500W        W47815  29.454  27.926   0.894
75501W        W47816  35.317  40.437  14.397
75502W        W47817  18.048  10.655  13.143
75503W        W47818  16.230  34.528  11.529
75504W        W47819  19.038  43.486   4.284
75505W        W47820  22.937  24.818   2.650
75506W        W47821  17.082   9.967  12.081
75507W        W47822  33.511  28.791  13.313
75508W        W47823  11.230  34.569  13.055
75509W        W47824  34.354  10.570   2.789
75510W        W47825  42.312  16.513  12.992
75511W        W47826  10.138  10.716   4.290
75512W        W47827   4.155  21.665   1.722
75513W        W47828   0.460  20.055  10.645
75514W        W47829  28.186  23.579   4.873
75515W        W47830  29.970  14.774   0.982
75516W        W47831   8.850  15.848   1.753
75517W        W47832  13.883  43.326  11.646
75518W        W47833  43.598  18.886  13.329
75519W        W47834  23.761  21.089   1.706
75520W        W47835   2.909  10.291   0.756
75521W        W47836  20.012  41.039  10.704
75522W        W47837  43.108   1.441  12.847
75523W        W47838   9.590  26.001   2.734
75524W        W47839  16.392   5.200   4.632
75525W        W47840  10.297   1.873   2.431
75526W        W47841  22.103  16.066   3.926
75527W        W47842  12.183  22.160  10.606
75528W        W47843   8.964  28.569  12.036
75529W        W47844  10.880  30.492   4.417
75530W        W47845  42.831   7.295   0.883
75531W        W47846  29.178  22.657  12.111
75532W        W47847  36.931  44.606  12.776
75533W        W47848  44.917  17.634   0.274
75534W        W47849  16.127  27.634  13.379
75535W        W47850  26.063  42.756  14.903
75536W        W47851  41.743  36.070  14.098
75537W        W47852   5.884   0.978   4.596
75538W        W47853  20.231  40.787   2.197
75539W        W47854  37.302  31.895   2.190
75540W        W47855  32.162   1.383   4.221
75541W        W47856  19.124  14.717   0.333
75542W        W47857  23.119  10.183   4.581
75543W        W47858  28.897  32.429  10.577
75544W        W47859  39.104  18.045  12.179
75545W        W47860  22.689  28.928   4.336
75546W        W47861  20.071  39.886  11.071
75547W        W47862   4.948  38.296  14.682
75548W        W47863  43.948  23.438   3.557
75549W        W47864  14.734  26.358   1.445
75550W        W47865  22.506   1.815  12.097
75551W        W47866  21.714  16.223  13.580
75552W        W47867   3.472  30.085   3.432
75553W        W47868  36.601  38.324   0.785
75554W        W47869  16.243  11.667  13.075
75555W        W47870  42.908  29.145   2.081
75556W        W47871  33.104  36.907   3.688
75557W        W47872  12.620  44.205   0.359
75558W        W47873  40.297  35.398  13.529
75559W        W47874  35.640  40.874   4.252
75560W        W47875  17.460  11.808  14.951
75561W        W47876  15.558  32.669  10.781
75562W        W47877  19.697  19.192   2.941
75563W        W47878   2.159  16.646  12.373
75564W        W47879   8.785   7.635  11.187
75565W        W47880   5.828  15.540  14.906
75566W        W47881  16.631   2.355   4.642
75567W        W47882  26.161  32.596  14.375
75568W        W47883  29.211   2.633  11.648
75569W        W47884  37.036   2.962   1.892
75570W        W47885  17.850  27.385   4.349
75571W        W47886  17.972  13.256  14.680
75572W        W47887  40.526   6.306  12.458
75573W        W47888   2.842  34.384  14.796
75574W        W47889  36.804  32.171  12.974
75575W        W47890   7.910  26.080   1.458
75576W        W47891  42.492  41.455   3.790
75577W        W47892  13.518  24.081  13.842
75578W        W47893  43.836  29.975  14.504
75579W        W47894   7.814   5.767   0.351
75580W        W47895  16.438  25.537  14.826
75581W        W47896   9.328  19.106  14.449
75582W        W47897   8.897  39.191   4.766
75583W        W47898   4.815  10.591   5.055
75584W        W47899  41.280  20.487   4.062
75585W        W47900  10.152  25.798   1.861
75586W        W47901   1.978  23.245  11.141
75587W        W47902  31.439  18.749   3.238
75588W        W47903  38.909  13.605   5.076
75589W        W47904   6.889  37.987  14.945
75590W        W47905  33.799  12.718  11.447
75591W        W47906   4.638   6.894   4.481
75592W        W47907  19.984  37.311  12.560
75593W        W47908  21.473  30.914  12.881
75594W        W47909  38.598  30.991   3.615
75595W        W47910  19.821  44.691   2.881
75596W        W47911  32.925  39.925   4.654
75597W        W47912  17.545  24.084  13.561
75598W        W47913  11.194  29.542  10.620
75599W        W47914  37.939  27.134   1.185
75600W        W47915  31.519  20.196  13.494
75601W        W47916  28.627   5.381  12.995
75602W        W47917  20.983  37.337  14.926
75603W        W47918  23.545   3.323  13.532
75604W        W47919  11.085  31.342  12.533
75605W        W47920   3.782  30.651  11.173
75606W        W47921  28.401  44.890  11.360
75607W        W47922  13.927  30.117   0.410
75608W        W47923   5.138  27.124  14.680
75609W        W47924  41.450  42.042  12.967
75610W        W47925   2.795   8.678  12.593
75611W        W47926   9.426  25.779  11.153
75612W        W47927  38.972   6.688  14.284
75613W        W47928  11.756  19.812  11.386
75614W        W47929  16.632  30.916   2.659
75615W        W47930  41.092  44.027  10.545
75616W        W47931  19.076  27.692  13.399
75617W        W47932   5.944   1.700  11.896
75618W        W47933  36.071  25.706   4.144
75619W        W47934  11.470  11.154   4.147
75620W        W47935  11.323  18.771   1.615
75621W        W47936  17.704   3.307  14.470
75622W        W47937  37.317  12.107  14.507
75623W        W47938  38.300  23.492   4.983
75624W        W47939  18.648  34.332  14.362
75625W        W47940  26.955  38.763  11.178
75626W        W47941  42.159  11.228   3.242
75627W        W47942  18.467   8.780  12.574
75628W        W47943  17.575  21.233   4.538
75629W        W47944  19.746  42.465  11.466
75630W        W47945  35.653  24.774  11.930
75631W        W47946   2.410   8.992  12.427
75632W        W47947  23.997  44.719   2.343
75633W        W47948  26.985  32.090   0.871
75634W        W47949   8.104   9.334   2.842
75635W        W47950   7.727  31.361   0.449
75636W        W47951   7.529  37.565  11.529
75637W        W47952  40.562  34.092   0.038
75638W        W47953  20.215   3.704   2.817
75639W        W47954  29.656   9.757   0.036
75640W        W47955  22.311  24.518  10.232
75641W        W47956  14.893   7.378   3.514
75642W        W47957  32.939   8.180   0.217
75643W        W47958  29.023  43.946   0.310
75644W        W47959   7.533  16.729  12.100
75645W        W47960  28.479  10.548  14.380
75646W        W47961  32.064  37.075  14.670
75647W        W47962  15.226   3.939  14.134
75648W        W47963  31.459   2.054  13.708
75649W        W47964  23.650   4.361  11.954
75650W        W47965   1.369  24.031  14.797
75651W        W47966  37.410   7.212   1.941
75652W        W47967  35.175   7.278   2.571
75653W        W47968   0.329  36.223  10.550
75654W        W47969  16.006  43.961   4.219
75655W        W47970   4.236  11.738   2.627
75656W        W47971  22.490   3.507  11.626
75657W        W47972  29.113  31.337   3.704
75658W        W47973  25.712  37.479   0.007
75659W        W47974  25.989  11.200  13.460
75660W        W47975  30.866   0.297   3.735
75661W        W47976  23.133  16.312  10.548
75662W        W47977  25.223  22.238  10.988
75663W        W47978  17.506  15.662  12.495
75664W        W47979   3.387  20.186   3.647
75665W        W47980  10.464  43.387   2.587
75666W        W47981  31.645   8.795  13.018
75667W        W47982  40.726  22.497   4.741
75668W        W47983  37.419  16.826   2.248
75669W        W47984  26.969   7.286  13.817
75670W        W47985   2.826  23.417  11.683
75671W        W47986  40.968   7.768  13.000
75672W        W47987  16.897  30.910  11.744
75673W        W47988  28.315  44.911   2.347
75674W        W47989  25.184  11.834   4.143
75675W        W47990   1.656   0.361   0.925
75676W        W47991  15.420  10.405  12.969
75677W        W47992  15.090  18.851  11.051
75678W        W47993   8.053  24.177   2.920
75679W        W47994  30.561  34.916   4.441
75680W        W47995  11.835  26.960   1.343
75681W        W47996   4.386  11.272   1.337
75682W        W47997  24.958  43.302   2.728
75683W        W47998  12.253  12.226  10.373
75684W        W47999  44.986  15.946   0.963
75685W        W48000  16.092  13.870  10.660
75686W        W48001  35.012  30.068  11.833
75687W        W48002  13.706  42.987   0.653
75688W        W48003   0.048  41.349   1.378
75689W        W48004  11.682  16.365  11.644
75690W        W48005  37.846  20.062   2.246
75691W        W48006  24.205  11.290  11.711
75692W        W48007  34.492  40.883   1.335
75693W        W48008   5.804  22.009   0.783
75694W        W48009  38.758   9.051   0.522
75695W        W48010  25.705  41.166  11.151
75696W        W48011   7.130   8.671   2.475
75697W        W48012  32.648  31.014   0.371
75698W        W48013  11.182  38.487  10.661
75699W        W48014  42.053  39.253  14.459
75700W        W48015  11.732  35.669   0.805
75701W        W48016  24.684  28.086   1.248
75702W        W48017   2.716   7.889   2.259
75703W        W48018  28.577  16.984   4.178
75704W        W48019   4.189  31.070   2.310
75705W        W48020  21.723  25.054   0.501
75706W        W48021  12.588  21.454   3.587
75707W        W48022  28.515   1.232   1.333
75708W        W48023   7.499   0.702  13.716
75709W        W48024  40.391   7.734  13.991
75710W        W48025  43.462  33.148  14.512
75711W        W48026  23.532  20.738   2.252
75712W        W48027  16.236  28.154  14.370
75713W        W48028  17.094  28.451  14.801
75714W        W48029  11.101  14.627  14.202
75715W        W48030  21.561  35.349  10.598
75716W        W48031  29.188  38.568   1.858
75717W        W48032  31.338  43.560   0.213
75718W        W48033  11.347   4.728  11.593
75719W        W48034  13.131  17.517  11.974
75720W        W48035  26.215  29.119   3.111
75721W        W48036  36.794  38.841   0.855
75722W        W48037  21.457   2.594  13.403
75723W        W48038   2.054   3.724   1.049
75724W        W48039  22.563  30.148   3.160
75725W        W48040  23.580  16.044  13.962
75726W        W48041   8.942  20.689   3.716
75727W        W48042   1.010  10.776   1.334
75728W        W48043  29.361   2.984   2.702
75729W        W48044   8.195  39.074   0.800
75730W        W48045  40.278  27.999  11.950
75731W        W48046  31.920  30.662  12.402
75732W        W48047  41.944   5.804   4.493
75733W        W48048  18.291  18.597  12.905
75734W        W48049  13.920  26.024   0.803
75735W        W48050   7.427  16.043  14.363
75736W        W48051   4.128  36.042  14.948
75737W        W48052   2.847  25.264  13.946
75738W        W48053  38.452  26.459   5.050
75739W        W48054   4.201  16.645  12.354
75740W        W48055  26.277   9.151  14.843
75741W        W48056  41.891  32.091   1.414
75742W        W48057  29.472  35.071  13.099
75743W        W48058  31.405   8.665   2.875
75744W        W48059  25.473  31.324  13.355
75745W        W48060  18.780  34.766   1.261
75746W        W48061  35.069  25.433  14.400
75747W        W48062  18.117  24.114   4.138
75748W        W48063  17.542   3.597  14.014
75749W        W48064  29.487  43.459  10.929
75750W        W48065  29.517   3.210   0.901
75751W        W48066  24.191  31.143   0.747
75752W        W48067  18.501  35.021   2.838
75753W        W48068  41.335   3.138   2.694
75754W        W48069  24.139  35.134   3.330
75755W        W48070  39.825  39.578  14.994
75756W        W48071  29.509  10.137   1.785
75757W        W48072  15.603  12.257   1.904
75758W        W48073  36.864  30.673  12.960
75759W        W48074  28.448  42.214   3.671
75760W        W48075  40.540  35.566  13.079
75761W        W48076  13.272  38.638   1.473
75762W        W48077  37.907  42.407  14.991
75763W        W48078  10.361  21.569  12.850
75764W        W48079  12.169  31.556  13.070
75765W        W48080  15.957  28.456   3.332
75766W        W48081  11.529  42.455   4.617
75767W        W48082  44.979  22.028  14.610
75768W        W48083   4.759  41.249  12.084
75769W        W48084  22.734  17.724  11.583
75770W        W48085  18.578  39.389  13.437
75771W        W48086  15.130   0.729   4.151
75772W        W48087  32.544  27.157   4.263
75773W        W48088  17.792  37.443   2.663
75774W        W48089  28.670  28.139   1.417
75775W        W48090  33.488   6.637   1.832
75776W        W48091   8.704  13.685   1.445
75777W        W48092  23.972  14.643   4.215
75778W        W48093  33.287   1.185   3.268
75779W        W48094  23.795  21.113   3.990
75780W        W48095  35.571   8.369   3.011
75781W        W48096  44.354   9.904   3.227
75782W        W48097   4.715   6.360   1.883
75783W        W48098  39.044   5.414  14.817
75784W        W48099  13.865  29.263  11.384
75785W        W48100  31.228  17.662  13.075
75786W        W48101   7.349  30.340  12.024
75787W        W48102  24.696  32.405  13.056
75788W        W48103   8.139  33.176  13.473
75789W        W48104  15.576  38.744   2.349
75790W        W48105  35.453  23.670  11.863
75791W        W48106  17.562  31.936   4.242
75792W        W48107  31.095  42.989  10.610
75793W        W48108   4.381  10.810  10.314
75794W        W48109  36.877   3.579   0.705
75795W        W48110  17.213  18.925   2.164
75796W        W48111  20.001  36.371  14.405
75797W        W48112   4.337  29.716   3.832
75798W        W48113  17.559   1.383   4.291
75799W        W48114   6.418  28.175  11.941
75800W        W48115   1.355  28.694  12.364
75801W        W48116  38.377  23.450   2.209
75802W        W48117  30.564  34.937   4.945
75803W        W48118  41.906  40.054   0.196
75804W        W48119  44.297   6.437   1.504
75805W        W48120  37.420  29.489   1.438
75806W        W48121  42.484  24.139  11.314
75807W        W48122   7.785  44.032  14.860
75808W        W48123  31.484  16.867   0.297
75809W        W48124  26.195  15.122  12.016
75810W        W48125  40.364  41.018  14.884
75811W        W48126  24.324   9.431   1.501
75812W        W48127  15.333   3.797  13.282
75813W        W48128  16.106  31.996   0.259
75814W        W48129  42.353  18.885   0.451
75815W        W48130  43.433  21.117  14.495
75816W        W48131  32.185  36.569  13.023
75817W        W48132  24.164  35.061   2.295
75818W        W48133  32.550  15.174   2.700
75819W        W48134  40.514  42.799   0.816
75820W        W48135  26.714  34.269  14.275
75821W        W48136   8.192  15.091   1.896
75822W        W48137  11.927  14.780  14.368
75823W        W48138  34.436  34.827  13.662
75824W        W48139  42.698  11.600  12.978
75825W        W48140  18.558  35.980   1.833
75826W        W48141  11.290  36.393   2.258
75827W        W48142  29.131  16.135   2.334
75828W        W48143  32.562  33.157   0.394
75829W        W48144  19.670   8.462  14.093
75830W        W48145   4.628  41.911  12.712
75831W        W48146  11.723  33.693   0.870
75832W        W48147  33.386  20.519  10.733
75833W        W48148  19.399  25.443   3.843
75834W        W48149  35.613  21.771  12.923
75835W        W48150  40.531   2.060   4.016
75836W        W48151  24.690   5.521   4.241
75837W        W48152  42.292  31.161   4.763
75838W        W48153   1.238  24.679   3.553
75839W        W48154   8.552  13.142   2.148
75840W        W48155  27.610  39.238   0.402
75841W        W48156   7.137  40.794   2.283
75842W        W48157  33.712  12.153   1.883
75843W        W48158   6.906   3.003  10.759
75844W        W48159  23.072  36.645  13.883
75845W        W48160   6.558   8.810  12.382
75846W        W48161  18.629  43.468   0.347
75847W        W48162  39.280  33.566   4.544
75848W        W48163   2.480  41.246  13.064
75849W        W48164  17.248   7.656   4.080
75850W        W48165  36.948  14.109  13.810
75851W        W48166  22.654   7.394   1.697
75852W        W48167  39.046  25.898   0.487
75853W        W48168  22.789   4.701  13.943
75854W        W48169  31.707  15.640  11.032
75855W        W48170  42.049  16.311  14.469
75856W        W48171   0.814  33.338  14.525
75857W        W48172   8.421  44.347  13.614
75858W        W48173  22.655  27.029  11.646
75859W        W48174  28.891  30.536  13.339
75860W        W48175  30.381   3.531  14.944
75861W        W48176  23.572  24.123  12.589
75862W        W48177  25.636  26.806  13.848
75863W        W48178  19.777  44.953  13.855
75864W        W48179  38.872  43.753   1.366
75865W        W48180   7.231  17.224  14.066
75866W        W48181  28.003  33.714   0.880
75867W        W48182   3.142   5.066   5.400
75868W        W48183  13.366  19.859   1.938
75869W        W48184   2.236   9.250  10.444
75870W        W48185  32.622   9.012   5.105
75871W        W48186  13.918  12.135  13.842
75872W        W48187  41.368  36.756   2.906
75873W        W48188   7.708  12.096  11.587
75874W        W48189  42.491  15.376  12.195
75875W        W48190   1.422  32.479   2.849
75876W        W48191  17.142  27.780  11.660
75877W        W48192  25.726  24.905  14.002
75878W        W48193  22.200  28.122   4.335
75879W        W48194   9.111   0.687  14.534
75880W        W48195   0.040  12.023  12.492
75881W        W48196  37.367   4.510   2.191
75882W        W48197  12.760  22.448  13.929
75883W        W48198  21.423   3.306  14.936
75884W        W48199  28.335  17.045  14.074
75885W        W48200  26.892  24.419  10.787
75886W        W48201  15.532  19.191  11.093
75887W        W48202  33.500  17.277   3.882
75888W        W48203  15.554   9.394   3.882
75889W        W48204  35.275   9.767   1.753
75890W        W48205   0.441  13.727   3.459
75891W        W48206   1.658  33.131  12.060
75892W        W48207   4.467  39.798   4.081
75893W        W48208  29.031  14.087   1.338
75894W        W48209  29.078   6.397  13.324
75895W        W48210  43.293   9.315   4.542
75896W        W48211  25.719  24.801  13.025
75897W        W48212   2.905  37.228   1.448
75898W        W48213  12.589  25.214  11.297
75899W        W48214  30.914  14.714   2.877
75900W        W48215   7.313  35.660  13.462
75901W        W48216  16.741   1.592  12.309
75902W        W48217  32.528  42.741  10.708
75903W        W48218  32.415  14.672   4.252
75904W        W48219   2.454   8.155   2.673
75905W        W48220  19.558  41.478  12.387
75906W        W48221   9.717  33.905   1.936
75907W        W48222  36.598  43.050   4.049
75908W        W48223   1.254  37.549  11.510
75909W        W48224  25.456  28.162   1.718
75910W        W48225   0.432   7.537   2.361
75911W        W48226   3.248  23.664  14.847
75912W        W48227  33.146  29.490   4.599
75913W        W48228  24.943  23.163   4.852
75914W        W48229  10.817  20.628   2.912
75915W        W48230  40.753  19.022   2.622
75916W        W48231  37.787  38.123  11.830
75917W        W48232   2.286   6.261   3.142
75918W        W48233  32.310  42.964   4.998
75919W        W48234   5.928  33.155   4.198
75920W        W48235  25.591  42.004  13.160
75921W        W48236  44.431  17.527   0.950
75922W        W48237  23.995   5.409   3.092
75923W        W48238  27.156  37.300   1.552
75924W        W48239   4.733  31.885   0.848
75925W        W48240  21.441   5.969   1.440
75926W        W48241  13.332  16.587  14.871
75927W        W48242  42.663  19.717  13.768
75928W        W48243  41.788   8.742  12.782
75929W        W48244  18.592  31.733   4.478
75930W        W48245  15.804  28.968   3.288
75931W        W48246  40.158   7.195  14.961
75932W        W48247  36.930  32.824   0.347
75933W        W48248  21.684  10.280   3.889
75934W        W48249  44.230  32.929   0.402
75935W        W48250   0.100  28.200   3.000
75936W        W48251  33.473  30.439   3.758
75937W        W48252   4.911  15.751   0.265
75938W        W48253  12.715  33.884  13.471
75939W        W48254  23.823  34.158  11.601
75940W        W48255  34.159  15.879   2.325
75941W        W48256  39.178  24.494  13.134
75942W        W48257  30.909  17.770   1.443
75943W        W48258  24.090   3.272  10.387
75944W        W48259  14.111   2.027  13.287
75945W        W48260  26.829  40.220  12.664
75946W        W48261   5.744  18.542  14.957
75947W        W48262   2.769  23.631   2.090
75948W        W48263  34.102  35.039  13.296
75949W        W48264  37.236  33.818   0.401
75950W        W48265  39.308   5.506   0.951
75951W        W48266   7.883  29.993   4.684
75952W        W48267  41.942  25.750   3.443
75953W        W48268  38.387  28.385   4.374
75954W        W48269  44.058  18.547   2.355
75955W        W48270  10.309  33.889   2.676
75956W        W48271  24.709  14.655   1.381
75957W        W48272  41.381  25.071   0.863
75958W        W48273   5.283  28.038   1.151
75959W        W48274   0.766  16.518  10.604
75960W        W48275  22.628  27.834  14.760
75961W        W48276   5.600  18.479   2.380
75962W        W48277  39.530  26.030  11.476
75963W        W48278  33.515  15.296  14.950
75964W        W48279  41.070  11.192  10.761
75965W        W48280  11.213  39.246   0.690
75966W        W48281   1.033  36.807   5.205
75967W        W48282  24.687   3.651   4.704
75968W        W48283   8.167   8.847  12.440
75969W        W48284  23.616   7.392  10.628
75970W        W48285  44.450   3.195  12.801
75971W        W48286   1.827   8.431  11.422
75972W        W48287  37.368   5.206  13.330
75973W        W48288   0.669  17.697   1.931
75974W        W48289   1.240  35.129   0.963
75975W        W48290   9.891  11.735  14.334
75976W        W48291   4.984   0.434   2.767
75977W        W48292  19.822  41.879  14.974
75978W        W48293   5.330  17.772   2.836
75979W        W48294   4.203  38.673   0.827
75980W        W48295   7.753  27.241  12.498
75981W        W48296  37.037  29.561  11.314
75982W        W48297  29.009  37.524  13.183
75983W        W48298  43.031   2.208   3.091
75984W        W48299  36.432  44.494  12.890
75985W        W48300  25.645  36.148  11.993
75986W        W48301  36.563  33.467   1.303
75987W        W48302   7.867  25.766  14.213
75988W        W48303  31.965  41.857   1.890
75989W        W48304   7.141  10.932  13.963
75990W        W48305  23.894   3.867   2.523
75991W        W48306   3.828  41.474   0.679
75992W        W48307  25.702  26.423   1.461
75993W        W48308  25.026   7.426  12.512
75994W        W48309  37.784   0.756  14.751
75995W        W48310  18.827  35.906  10.147
75996W        W48311  43.711  29.032  10.924
75997W        W48312  10.024  40.940  11.537
75998W        W48313  20.176  35.665   2.202
75999W        W48314   3.692  18.672  12.253
76000W        W48315  24.741   4.816   1.854
76001W        W48316  23.290  43.001  12.429
76002W        W48317  38.088  40.002  11.572
76003W        W48318   9.296  40.522  10.707
76004W        W48319  32.533   3.774   1.522
76005W        W48320  13.121   6.168   1.382
76006W        W48321  22.113  12.347  13.086
76007W        W48322  30.595  16.358   0.392
76008W        W48323  14.306   7.627   2.302
76009W        W48324   2.905  43.329  13.596
76010W        W48325  41.324   3.163  13.506
76011W        W48326  12.782  27.019  14.839
76012W        W48327  18.826  30.154   2.815
76013W        W48328   7.179  33.627  12.457
76014W        W48329  12.762  20.057  12.579
76015W        W48330  34.339  44.952  11.626
76016W        W48331  21.486   2.401  14.227
76017W        W48332  33.920  15.720   4.646
76018W        W48333  34.161  38.486  14.786
76019W        W48334  34.567  27.088   1.359
76020W        W48335  29.706  36.621   3.057
76021W        W48336   6.482  11.694   4.154
76022W        W48337  42.904  43.472   1.858
76023W        W48338  19.695  24.786   4.121
76024W        W48339  42.266  17.581  13.088
76025W        W48340  24.649  39.671  10.894
76026W        W48341  16.339  19.692   3.292
76027W        W48342  13.192  29.640   2.940
76028W        W48343  34.565  21.264   2.168
76029W        W48344  14.072  10.506   3.450
76030W        W48345  43.516  37.372   0.455
76031W        W48346  21.700  30.048   3.637
76032W        W48347  27.094  42.291  13.495
76033W        W48348   0.534  33.002   4.084
76034W        W48349  16.850  36.922   1.855
76035W        W48350   6.318  43.958   1.456
76036W        W48351  18.412  19.652  13.887
76037W        W48352  44.804  20.760   3.489
76038W        W48353   5.731  27.138   3.254
76039W        W48354  21.056   7.587   0.907
76040W        W48355  22.901  23.777   3.273
76041W        W48356  38.468  18.343   2.229
76042W        W48357  11.667  11.612  10.452
76043W        W48358  34.963  26.176   3.652
76044W        W48359  20.801  16.497   0.911
76045W        W48360  41.327  31.592   4.663
76046W        W48361  17.559   7.221  12.749
76047W        W48362  33.085  26.602   1.070
76048W        W48363  22.261   9.888  12.230
76049W        W48364  28.407   1.288  11.815
76050W        W48365  13.088  21.938  11.014
76051W        W48366  17.611  23.299  13.767
76052W        W48367  36.574  26.001  10.609
76053W        W48368  43.760  25.132  12.042
76054W        W48369   6.088   5.029  13.789
76055W        W48370  11.332  11.741   0.337
76056W        W48371  28.510  16.700   2.192
76057W        W48372  22.591  42.388   0.974
76058W        W48373   5.799  38.728   0.265
76059W        W48374  10.330  13.451  14.457
76060W        W48375   6.757  16.473  13.579
76061W        W48376  25.455  25.492  13.320
76062W        W48377   2.490  41.989  13.531
76063W        W48378  41.092  17.744   2.921
76064W        W48379   3.191  42.782   2.709
76065W        W48380  39.133  11.352  13.339
76066W        W48381  38.754  24.219  12.440
76067W        W48382  35.905  33.313   1.683
76068W        W48383   6.379  35.866   2.776
76069W        W48384  28.884  16.851   0.907
76070W        W48385  20.528  42.300   1.227
76071W        W48386  27.418  43.939  10.616
76072W        W48387  25.014  16.714   4.502
76073W        W48388  10.022  11.807  11.076
76074W        W48389  34.968  38.884   3.388
76075W        W48390  31.119  17.142   2.199
76076W        W48391  34.011  22.687  11.963
76077W        W48392  32.125  41.578  13.410
76078W        W48393  14.271  15.121   3.692
76079W        W48394  18.986   2.818  11.657
76080W        W48395  15.491  36.150  13.045
76081W        W48396   6.648  29.508   3.815
76082W        W48397   2.929   2.669   4.533
76083W        W48398  27.274  34.144   0.414
76084W        W48399  29.612  24.210   1.406
76085W        W48400  19.846  13.753  11.509
76086W        W48401  26.112   8.863   3.630
76087W        W48402   0.586   4.805   2.138
76088W        W48403  42.812  33.683  14.751
76089W        W48404  35.660   3.998  14.897
76090W        W48405  38.600  31.988   4.522
76091W        W48406  44.387  21.493   4.145
76092W        W48407   5.133  21.776   4.192
76093W        W48408  42.064  25.196   0.426
76094W        W48409  40.551  18.153   0.755
76095W        W48410  35.115  16.174  12.994
76096W        W48411   2.246  13.110  12.611
76097W        W48412  20.472  36.387  14.612
76098W        W48413  33.503  30.396   0.288
76099W        W48414  24.115   3.695  11.660
76100W        W48415  18.543   7.855   3.330
76101W        W48416  18.719  41.466  11.815
76102W        W48417  18.213  12.030  12.090
76103W        W48418  23.242  44.160   3.164
76104W        W48419  20.318  19.160  11.107
76105W        W48420  21.431   0.858   4.152
76106W        W48421  11.150  25.051  12.535
76107W        W48422  22.713  37.766   5.151
76108W        W48423  17.169  33.972  12.003
76109W        W48424  40.998  43.287  13.846
76110W        W48425  29.613  30.963  12.613
76111W        W48426  33.981   6.392   0.817
76112W        W48427   7.858  36.005  10.386
76113W        W48428  18.447  14.847  10.556
76114W        W48429  35.989  31.360   1.723
76115W        W48430  16.118  11.139   4.624
76116W        W48431  16.200  17.511  12.623
76117W        W48432   7.474   5.884  14.314
76118W        W48433  28.231   8.953  13.285
76119W        W48434  25.469  30.954   0.664
76120W        W48435  39.309  42.474   3.432
76121W        W48436  34.622   0.928  11.591
76122W        W48437  43.022   0.495  10.690
76123W        W48438  31.487   2.002  14.785
76124W        W48439  39.365  36.304  11.151
76125W        W48440  14.572  28.938   1.297
76126W        W48441   0.765  35.395  11.110
76127W        W48442  35.361   3.409   2.302
76128W        W48443  17.989  23.670   4.834
76129W        W48444  28.506  34.934   0.304
76130W        W48445  21.426  40.272   4.801
76131W        W48446  24.125  17.662   3.341
76132W        W48447   3.247  33.524  13.891
76133W        W48448  41.729  39.914   3.555
76134W        W48449  23.512  33.573   0.269
76135W        W48450  32.827  41.416   4.623
76136W        W48451  18.801  43.341   1.347
76137W        W48452  26.187  16.342  14.381
76138W        W48453   1.138  39.197   0.346
76139W        W48454  44.979  30.140   2.385
76140W        W48455  21.629   3.788   4.816
76141W        W48456  32.931  16.491   2.252
76142W        W48457  35.486  13.178  11.594
76143W        W48458   2.045  17.739   0.728
76144W        W48459  44.454  20.960  12.031
76145W        W48460  37.585  23.104   2.766
76146W        W48461  31.526  28.510  10.419
76147W        W48462   0.421  26.958   1.592
76148W        W48463  26.425  18.061  12.442
76149W        W48464  40.879  12.073  10.571
76150W        W48465  22.293   4.426  14.554
76151W        W48466   6.705  29.484  13.786
76152W        W48467   0.710   6.296  12.911
76153W        W48468  26.935  42.685  13.967
76154W        W48469  15.057  24.669   4.676
76155W        W48470  28.929  44.224   0.749
76156W        W48471  30.137  39.031   0.620
76157W        W48472  16.410  35.925   5.035
76158W        W48473  19.744   0.301   1.436
76159W        W48474  32.012  34.596  10.303
76160W        W48475  27.205  11.356  14.058
76161W        W48476  20.672  40.701  12.334
76162W        W48477  13.604  19.811  11.488
76163W        W48478  26.113  22.245   1.870
76164W        W48479  39.008  23.011  11.078
76165W        W48480   1.206  31.377   0.401
76166W        W48481   5.320  40.816   1.387
76167W        W48482  13.268  35.149  12.186
76168W        W48483   4.748   3.707   1.630
76169W        W48484   7.805   9.504   0.882
76170W        W48485   6.895   8.156   0.010
76171W        W48486  37.031   1.433  12.657
76172W        W48487  27.237   1.525   4.293
76173W        W48488  42.112  37.992   2.060
76174W        W48489  27.022   3.755   1.077
76175W        W48490  30.958  44.472   1.896
76176W        W48491  29.599  26.981  13.069
76177W        W48492  14.568  23.876  11.844
76178W        W48493  44.932  19.542  14.344
76179W        W48494  32.376  26.193   0.403
76180W        W48495  32.446  39.435   0.139
76181W        W48496   9.725  30.874   4.439
76182W        W48497  31.599  17.798  12.356
76183W        W48498   2.758   4.288   0.334
76184W        W48499   2.447  36.574  13.856
76185W        W48500   7.622  10.273  11.599
76186W        W48501  11.891   9.405   1.008
76187W        W48502  40.068  23.218   1.814
76188W        W48503  19.177  35.510   2.315
76189W        W48504  36.079   9.350  14.824
76190W        W48505  10.600  24.645  13.469
76191W        W48506  25.549  27.731  13.076
76192W        W48507   5.700  18.638  12.891
76193W        W48508  34.503  35.495   0.378
76194W        W48509  27.562  22.547   4.296
76195W        W48510   6.676   1.279   0.965
76196W        W48511  26.122  41.945  12.844
76197W        W48512  32.153  28.451   4.877
76198W        W48513  16.618   9.847   4.564
76199W        W48514  44.350   6.373  11.983
76200W        W48515  17.431   6.221   3.259
76201W        W48516  23.681  12.855  14.706
76202W        W48517   3.299  34.169  14.883
76203W        W48518  34.016  31.496  10.578
76204W        W48519  33.533   7.798   0.794
76205W        W48520  16.228  25.438   0.295
76206W        W48521  25.196   0.478  13.509
76207W        W48522  22.014  26.455   3.237
76208W        W48523  25.181   3.176  12.908
76209W        W48524  29.135  19.161   0.381
76210W        W48525  42.345   1.367  14.889
76211W        W48526  16.060   0.268   3.064
76212W        W48527  17.906  13.850   4.170
76213W        W48528  34.080   3.240  10.672
76214W        W48529  40.557   3.725   3.695
76215W        W48530  31.014  15.582   0.354
76216W        W48531  27.178  32.553  13.407
76217W        W48532  35.183  31.643  12.820
76218W        W48533  16.069   3.655   1.277
76219W        W48534  23.456  14.560  13.333
76220W        W48535  20.926   0.379  12.120
76221W        W48536   5.359   3.296  11.896
76222W        W48537  11.165   5.336  14.548
76223W        W48538   3.720   4.638  14.453
76224W        W48539  22.053  28.472   2.387
76225W        W48540  15.805  25.751   0.360
76226W        W48541  30.532  30.760   4.745
76227W        W48542  12.372  20.708   5.015
76228W        W48543  13.634   3.175   4.666
76229W        W48544  14.873  42.447   0.349
76230W        W48545  23.480  21.081  13.346
76231W        W48546  20.487  26.075   2.817
76232W        W48547  10.312  35.971   1.956
76233W        W48548  15.507  28.643   9.914
76234W        W48549  17.791  41.416   3.108
76235W        W48550  43.223  23.396   9.911
76236W        W48551  44.256  21.256  12.447
76237W        W48552   1.042  14.693  12.816
76238W        W48553  20.113   5.293  14.030
76239W        W48554  28.646  33.501   3.741
76240W        W48555  12.783  14.307  10.858
76241W        W48556  34.937  17.193   4.100
76242W        W48557  20.565  17.714  14.436
76243W        W48558   5.274  34.272  10.633
76244W        W48559  21.083   7.637   4.547
76245W        W48560  33.247  13.412  10.155
76246W        W48561   2.442  25.682   4.132
76247W        W48562  17.059  23.814   0.725
76248W        W48563  43.408  39.409   4.068
76249W        W48564  33.747  36.390   3.228
76250W        W48565  32.052  37.413   2.452
76251W        W48566  38.598  15.152   2.659
76252W        W48567   7.689  37.273   0.964
76253W        W48568  27.465  17.620   5.085
76254W        W48569  19.699   9.438  14.325
76255W        W48570  11.719  42.964  11.729
76256W        W48571   5.849   2.694   3.112
76257W        W48572  40.266  16.165  13.780
76258W        W48573  15.917   0.893   2.794
76259W        W48574  35.568   7.165   2.182
76260W        W48575  38.782  17.525   3.774
76261W        W48576  35.970  24.234   0.719
76262W        W48577  15.136  43.342  13.432
76263W        W48578   7.006  38.436   2.594
76264W        W48579  33.721  33.019  12.959
76265W        W48580   2.792   1.335  11.466
76266W        W48581  10.277  36.373   3.766
76267W        W48582  25.995  11.807  12.128
76268W        W48583  41.268  33.420   0.771
76269W        W48584  21.628   0.176   2.722
76270W        W48585  20.747  10.350   5.188
76271W        W48586  41.404   7.072   4.509
76272W        W48587  25.951  35.020   1.309
76273W        W48588  35.183  22.043   2.209
76274W        W48589  28.531  27.920   0.789
76275W        W48590  22.738  33.124  10.710
76276W        W48591  11.705   3.955   0.202
76277W        W48592  29.658  42.252  11.190
76278W        W48593   3.252   0.522   2.188
76279W        W48594   8.936  31.029   3.686
76280W        W48595  25.500   1.305  10.695
76281W        W48596   3.425  43.010   2.297
76282W        W48597  39.632  11.645   0.902
76283W        W48598  21.511  24.113   2.723
76284W        W48599  34.491  29.510  10.473
76285W        W48600  39.967  29.458   3.521
76286W        W48601  36.847   5.618  13.933
76287W        W48602  12.473  29.188   3.237
76288W        W48603  20.206  22.671  12.099
76289W        W48604  26.350   5.847   4.831
76290W        W48605  40.275  21.578  13.893
76291W        W48606  24.037  29.082  12.434
76292W        W48607  20.586  20.135  10.736
76293W        W48608  32.377  30.159  11.915
76294W        W48609  34.236  22.955   0.068
76295W        W48610  20.747   5.595   4.782
76296W        W48611  18.377  44.987  13.896
76297W        W48612  26.713  15.119   2.260
76298W        W48613  15.678   0.970   4.147
76299W        W48614  24.613  29.071  11.564
76300W        W48615   5.176   1.103  12.512
76301W        W48616  42.352  16.255   3.781
76302W        W48617  18.386  17.220   3.804
76303W        W48618  38.729  40.328   0.768
76304W        W48619  28.631  36.393  12.080
76305W        W48620  25.192  32.305   1.770
76306W        W48621  25.306  30.427  13.855
76307W        W48622  19.021  42.756  10.574
76308W        W48623   3.649  28.070   9.911
76309W        W48624  36.463  24.095   0.836
76310W        W48625  25.113  27.734   4.081
76311W        W48626  25.130  12.810  13.790
76312W        W48627  30.611  31.496  11.440
76313W        W48628  26.617  31.823  14.453
76314W        W48629  40.872   9.418   3.665
76315W        W48630  42.104   5.865   0.116
76316W        W48631  29.427   9.736  13.271
76317W        W48632  41.268  29.955  11.008
76318W        W48633  34.925  29.875  12.302
76319W        W48634  44.462  36.828   3.598
76320W        W48635  17.726  41.111  10.257
76321W        W48636  41.307  32.361   4.080
76322W        W48637  40.329  15.723  13.026
76323W        W48638  33.993  17.369   4.013
76324W        W48639  41.770  22.071  11.151
76325W        W48640   6.483  35.431  13.874
76326W        W48641  19.247  21.148   1.425
76327W        W48642  15.112  13.455   1.565
76328W        W48643  41.347  15.086  13.109
76329W        W48644  30.662   3.397   2.396
76330W        W48645  43.488  24.941  13.777
76331W        W48646   1.757  16.695  12.006
76332W        W48647  25.651   4.388  14.936
76333W        W48648  34.551   5.072   3.684
76334W        W48649   3.550  19.204   4.050
76335W        W48650   1.172  40.753   2.370
76336W        W48651  44.768  32.388  14.492
76337W        W48652   3.807  11.314   3.609
76338W        W48653  38.585  37.585   4.634
76339W        W48654  22.445  32.916  11.082
76340W        W48655  11.324  14.077   9.748
76341W        W48656   1.447  38.099  12.739
76342W        W48657  39.450  30.282  11.490
76343W        W48658  40.586  31.358  12.919
76344W        W48659  24.612  22.295   1.777
76345W        W48660   6.672   2.269  13.370
76346W        W48661   9.609   7.881  14.932
76347W        W48662  27.202   9.824  12.771
76348W        W48663  18.546  16.306  12.923
76349W        W48664  40.045  35.397   1.298
76350W        W48665  30.004  28.951  14.933
76351W        W48666   1.798  18.098   2.859
76352W        W48667   2.223   7.851   4.113
76353W        W48668  41.181  31.868   4.119
76354W        W48669  39.899  18.090   4.761
76355W        W48670  12.830  38.217   2.335
76356W        W48671  41.091  14.341  11.536
76357W        W48672   3.522  21.615   0.942
76358W        W48673  19.762  38.652  10.262
76359W        W48674  12.319  43.072  12.942
76360W        W48675  12.396   0.969   0.855
76361W        W48676  32.452  44.507   1.809
76362W        W48677  20.662  20.720  12.532
76363W        W48678  22.576  41.243  12.428
76364W        W48679  10.162  32.020  14.822
76365W        W48680  32.735  14.241   1.282
76366W        W48681   4.045   5.790  11.588
76367W        W48682  24.505  41.485   4.328
76368W        W48683   3.317   5.578  12.128
76369W        W48684  34.852  17.558   3.722
76370W        W48685   1.045  12.806   4.181
76371W        W48686  16.244  12.751  13.075
76372W        W48687  41.534   0.415  12.498
76373W        W48688  25.610  40.555  14.498
76374W        W48689  20.532  13.112  12.064
76375W        W48690   6.857  44.381  11.503
76376W        W48691   8.654  42.013   2.719
76377W        W48692  44.266   8.889  11.461
76378W        W48693  25.096  34.843   1.353
76379W        W48694  42.241  17.126   4.123
76380W        W48695  20.478   8.216  14.913
76381W        W48696   5.449  24.675  12.032
76382W        W48697   2.225  24.783  11.940
76383W        W48698  43.099  17.912  13.348
76384W        W48699  13.575   6.959   1.653
76385W        W48700  25.258  35.880  12.959
76386W        W48701  23.756  34.814   0.510
76387W        W48702  42.982  17.636  14.247
76388W        W48703  44.883  28.047   3.998
76389W        W48704  43.600   4.832   1.359
76390W        W48705   9.907  10.147  12.126
76391W        W48706  39.973   6.761  10.881
76392W        W48707  32.515  17.706  10.692
76393W        W48708  43.062  19.295  11.542
76394W        W48709  25.204  14.120   3.425
76395W        W48710  16.744  11.114  10.542
76396W        W48711  29.189  25.732   1.292
76397W        W48712  21.047  43.422   0.080
76398W        W48713  33.960   8.177  11.424
76399W        W48714  34.871  33.135  11.354
76400W        W48715  23.191  38.602   1.284
76401W        W48716  27.692   1.557   0.753
76402W        W48717  26.068  44.508   0.824
76403W        W48718  15.552  24.097   3.501
76404W        W48719  22.585  43.854   3.682
76405W        W48720  43.528  36.145  12.149
76406W        W48721  25.799  22.288   3.661
76407W        W48722  14.373  22.490  11.943
76408W        W48723  27.068  42.813  13.473
76409W        W48724  18.144  40.482   4.459
76410W        W48725  15.763   5.415  14.901
76411W        W48726   6.765  28.323  12.592
76412W        W48727  36.521  29.139  12.076
76413W        W48728  16.516   8.984  13.314
76414W        W48729  28.049  28.047   2.110
76415W        W48730  20.164  28.940  12.603
76416W        W48731  16.213  36.322  11.067
76417W        W48732  19.770  38.330  14.055
76418W        W48733  31.299  38.258   4.229
76419W        W48734  36.990   4.896   0.330
76420W        W48735  33.515  44.856  11.639
76421W        W48736  15.576   1.130   4.959
76422W        W48737  44.444   7.169  10.989
76423W        W48738  28.993   4.285   1.938
76424W        W48739  18.068  16.072   4.075
76425W        W48740  30.570  29.776   2.879
76426W        W48741  35.528   8.201   4.032
76427W        W48742  22.808   7.680  12.532
76428W        W48743  34.983  37.043   0.306
76429W        W48744  41.010  24.688   1.783
76430W        W48745  12.262  32.651   0.230
76431W        W48746  37.375  20.683   1.189
76432W        W48747   1.744  26.042   0.423
76433W        W48748  39.367  35.092   3.110
76434W        W48749  40.445   7.212   3.428
76435W        W48750  25.773  23.720   3.559
76436W        W48751  41.033  14.588  13.762
76437W        W48752  13.237  24.732  12.073
76438W        W48753  10.126  36.863   2.763
76439W        W48754  43.741  33.135   2.436
76440W        W48755   2.769  23.711  12.976
76441W        W48756  10.230  38.980   2.255
76442W        W48757  16.347   4.966   2.463
76443W        W48758  16.592  23.627   2.205
76444W        W48759  18.511  22.065  12.418
76445W        W48760  29.731   9.925   4.773
76446W        W48761  22.611   9.069  11.134
76447W        W48762  25.279   4.025  10.273
76448W        W48763  15.876  18.878  11.322
76449W        W48764   0.360  35.538  14.746
76450W        W48765  25.719  10.683   4.481
76451W        W48766  34.462  44.470   2.658
76452W        W48767  18.845   6.114  12.468
76453W        W48768   2.832   0.521  14.878
76454W        W48769  19.856  27.061   2.872
76455W        W48770  36.321   6.682  12.996
76456W        W48771   3.444  19.574  11.477
76457W        W48772  31.869  12.118   0.806
76458W        W48773  31.242  32.162   4.373
76459W        W48774  40.452   5.331  10.578
76460W        W48775   0.911  23.330  14.885
76461W        W48776   0.047   8.202   1.383
76462W        W48777  15.051   3.386  11.941
76463W        W48778  43.714  12.329   0.815
76464W        W48779  11.694  15.798   0.320
76465W        W48780  21.002  24.768   0.335
76466W        W48781  36.646  40.605  12.631
76467W        W48782  27.641  25.541   1.255
76468W        W48783  44.545  24.989  12.369
76469W        W48784  38.366  12.710   4.025
76470W        W48785  19.989  37.822   1.965
76471W        W48786  27.735  37.893  13.352
76472W        W48787  25.488   8.558  11.564
76473W        W48788  19.278  21.936  14.053
76474W        W48789  34.953  33.921   0.756
76475W        W48790  33.067  28.117  11.553
76476W        W48791  44.812  37.497  14.548
76477W        W48792  39.383  28.515   3.183
76478W        W48793  30.937  10.804   0.751
76479W        W48794   8.306  20.100   1.252
76480W        W48795   7.864  26.243  14.431
76481W        W48796   8.681   0.271   0.808
76482W        W48797  23.363  36.952  14.363
76483W        W48798  38.004  42.895   2.434
76484W        W48799   8.551  16.589  11.068
76485W        W48800  10.256  27.050   4.602
76486W        W48801  17.512   0.916   4.617
76487W        W48802  17.083  38.754   2.264
76488W        W48803  30.906  24.461   1.826
76489W        W48804  29.073  37.941   0.004
76490W        W48805  10.094   9.710   2.394
76491W        W48806  23.404  39.336   0.939
76492W        W48807  41.761  31.158   2.305
76493W        W48808  29.806  12.778   0.071
76494W        W48809  14.586  18.555  13.575
76495W        W48810   1.771  20.605  12.711
76496W        W48811  21.563  34.365  10.766
76497W        W48812  19.853  33.492   2.801
76498W        W48813  30.373  33.731  11.202
76499W        W48814   9.869   9.426   4.516
76500W        W48815  35.865   7.112  11.145
76501W        W48816  41.345   1.424   2.211
76502W        W48817   0.485   4.795   0.235
76503W        W48818  42.506  20.757   2.194
76504W        W48819  10.133  19.315  11.983
76505W        W48820   3.435  30.592  11.577
76506W        W48821   1.771  44.409   2.701
76507W        W48822  27.808  21.022  14.458
76508W        W48823  27.604  40.176   0.070
76509W        W48824  22.397  15.208   3.595
76510W        W48825  27.566   6.936   4.090
76511W        W48826  23.042  41.655   1.340
76512W        W48827  29.947  27.381  13.058
76513W        W48828  36.364  37.001   2.863
76514W        W48829  42.743  26.127   2.751
76515W        W48830   7.578   2.364   2.883
76516W        W48831  30.228  24.498   1.408
76517W        W48832  34.816  15.653  13.875
76518W        W48833   3.466  13.164   0.446
76519W        W48834  40.409  28.087  10.571
76520W        W48835   3.636  20.117  13.322
76521W        W48836  41.525  22.003   0.016
76522W        W48837  34.520  19.357  12.150
76523W        W48838  35.934  38.752  12.456
76524W        W48839  21.697   2.317   2.376
76525W        W48840  33.310  20.227  13.803
76526W        W48841  35.931  30.131   4.594
76527W        W48842  28.859  33.936   4.549
76528W        W48843  26.590  22.489   2.724
76529W        W48844  34.078   1.827   1.237
76530W        W48845  28.487  19.854   1.414
76531W        W48846  32.887  17.168   1.310
76532W        W48847  24.725   3.329  12.261
76533W        W48848  17.675  22.653   4.372
76534W        W48849  37.597  40.188   3.119
76535W        W48850  34.292  22.488   1.445
76536W        W48851  42.037  43.575   4.077
76537W        W48852  25.125  33.608  13.146
76538W        W48853   7.247  20.291  14.435
76539W        W48854  38.428  35.090   0.318
76540W        W48855  44.055   3.315   1.247
76541W        W48856  40.774  33.599   0.306
76542W        W48857  27.939  41.323  11.562
76543W        W48858  30.502  29.071  11.559
76544W        W48859  15.648  35.056   2.771
76545W        W48860  44.407  11.867   4.770
76546W        W48861  12.684  44.561  10.929
76547W        W48862   6.739   3.110   2.852
76548W        W48863  23.295  32.121   0.528
76549W        W48864  26.358  44.106   1.222
76550W        W48865  25.759  43.740  13.458
76551W        W48866  21.133  17.120  13.988
76552W        W48867  26.529  14.755  12.855
76553W        W48868   0.495  28.245  12.537
76554W        W48869  43.796  39.511  11.889
76555W        W48870  14.838   3.512  14.907
76556W        W48871   5.246  40.013  14.114
76557W        W48872  23.172  16.815  12.566
76558W        W48873   3.674  25.283   1.172
76559W        W48874  35.979   0.297  14.891
76560W        W48875  30.867  25.183   3.602
76561W        W48876  11.528   5.449   4.548
76562W        W48877  16.772   3.663   2.259
76563W        W48878  40.809  37.318  10.753
76564W        W48879  17.374   0.905  14.413
76565W        W48880  38.737  12.192   0.192
76566W        W48881  15.752  35.293   0.213
76567W        W48882  22.953   7.909  12.108
76568W        W48883  38.491   6.001   1.955
76569W        W48884   1.771  18.368  12.476
76570W        W48885  31.029  25.266   2.193
76571W        W48886  40.833  34.048   1.483
76572W        W48887  16.141  17.548   2.296
76573W        W48888   3.417   9.673   3.880
76574W        W48889  32.097  18.145   1.641
76575W        W48890   6.456  10.546   4.949
76576W        W48891  36.428  29.322   5.004
76577W        W48892  29.628  35.518  12.901
76578W        W48893   6.968  18.743  10.867
76579W        W48894  40.757   6.761  12.434
76580W        W48895  35.476  20.987   2.634
76581W        W48896  27.331  10.990   1.457
76582W        W48897  31.156  31.985   1.987
76583W        W48898  35.461  15.763  13.022
76584W        W48899  21.093  39.404   0.618
76585W        W48900  24.498   8.419  13.238
76586W        W48901  18.533  25.255  13.596
76587W        W48902  36.543  18.383   4.146
76588W        W48903  19.495   2.199  13.803
76589W        W48904  40.373  19.240  14.469
76590W        W48905  29.834  16.106   3.697
76591W        W48906  28.501   2.543   0.114
76592W        W48907  32.336  44.327   3.739
76593W        W48908  10.374  24.096   0.453
76594W        W48909  13.389  35.084   1.798
76595W        W48910  28.135  24.253  13.393
76596W        W48911  10.913  41.957  13.283
76597W        W48912   9.124  28.047  14.053
76598W        W48913  18.186  12.389   0.872
76599W        W48914   9.718   1.819   1.332
76600W        W48915   2.760  42.911   2.429
76601W        W48916  18.271  19.754  11.617
76602W        W48917  39.915  38.838  11.031
76603W        W48918  11.586  39.665   0.855
76604W        W48919  40.473  41.768  11.562
76605W        W48920  13.151  13.737  13.997
76606W        W48921  37.827  15.490  12.354
76607W        W48922  14.602   0.033  14.980
76608W        W48923  13.143  32.904  10.919
76609W        W48924  39.402  30.647   3.349
76610W        W48925  17.250  37.811  13.423
76611W        W48926  44.955   1.750  13.422
76612W        W48927   9.862  24.983   1.612
76613W        W48928   4.011  15.571  11.209
76614W        W48929  18.476   3.307  13.902
76615W        W48930  36.491  14.057  13.523
76616W        W48931  26.969  11.877  14.328
76617W        W48932  30.143   6.064  12.014
76618W        W48933   6.827  16.457   1.411
76619W        W48934  25.669  18.073   2.275
76620W        W48935  10.849  25.957   0.706
76621W        W48936  40.905   5.105  10.410
76622W        W48937  36.893   8.721  12.603
76623W        W48938  39.471   7.913  14.021
76624W        W48939   9.251  31.464  12.636
76625W        W48940  33.986  28.149  14.291
76626W        W48941  35.622  20.154  14.070
76627W        W48942  40.361  21.134  13.666
76628W        W48943   8.347  19.070   0.024
76629W        W48944   4.147  41.722  11.095
76630W        W48945   3.811  39.023   0.862
76631W        W48946  13.325  16.304   0.320
76632W        W48947  40.820  21.535  14.006
76633W        W48948  44.971  40.770   1.332
76634W        W48949   8.688   2.505  13.909
76635W        W48950  36.064  44.715  14.296
76636W        W48951  40.659  34.017   4.717
76637W        W48952  28.980  16.364   1.628
76638W        W48953   4.670  25.595  14.452
76639W        W48954  42.455  15.819   4.024
76640W        W48955  44.859  15.763   0.022
76641W        W48956  17.012  18.877   1.240
76642W        W48957  32.220   1.701   1.796
76643W        W48958  17.489  16.929   4.195
76644W        W48959  44.455  14.610  12.481
76645W        W48960  14.470  34.545  11.431
76646W        W48961   6.858  41.402  11.057
76647W        W48962   8.623  28.195   2.909
76648W        W48963   9.069  23.193  13.772
76649W        W48964  22.321  17.655   3.733
76650W        W48965   5.720  31.747   1.938
76651W        W48966  30.489   9.292   2.192
76652W        W48967  42.458   8.723   3.905
76653W        W48968  11.603  31.199  12.529
76654W        W48969  23.988  36.955  12.397
76655W        W48970  38.059  15.300   3.251
76656W        W48971  23.462  15.532  10.401
76657W        W48972  17.562  28.535   5.281
76658W        W48973   0.237   1.356  11.642
76659W        W48974  20.515  18.307   3.325
76660W        W48975  43.486  24.594  11.674
76661W        W48976  42.808  11.164   3.883
76662W        W48977   9.241   7.729   0.804
76663W        W48978  38.848  26.579  14.016
76664W        W48979  19.614   7.773   1.898
76665W        W48980   5.877  33.575  10.716
76666W        W48981  40.560  14.517   0.269
76667W        W48982  20.257  24.493  12.495
76668W        W48983  20.653  24.489   1.004
76669W        W48984  37.877   1.259   2.824
76670W        W48985   9.152  40.404  14.401
76671W        W48986  25.489  35.915  11.570
76672W        W48987  32.899  21.633  12.073
76673W        W48988  36.052  42.269   3.385
76674W        W48989  10.628   9.842   2.327
76675W        W48990  10.507  11.621  14.866
76676W        W48991  11.259  38.559  12.471
76677W        W48992  21.433  18.780  12.177
76678W        W48993  27.666  21.946  11.634
76679W        W48994  24.283  21.077   1.702
76680W        W48995  25.978  43.100   2.915
76681W        W48996  11.867  13.094   1.831
76682W        W48997  26.356   2.471  14.986
76683W        W48998   1.231  18.645   4.072
76684W        W48999  43.379  33.111  10.580
76685W        W49000  15.344  35.832   2.904
76686W        W49001  33.361   3.070  14.924
76687W        W49002  37.571  32.962  13.430
76688W        W49003  16.046  41.572   0.926
76689W        W49004  22.656  22.770   4.996
76690W        W49005  30.393   7.630   4.498
76691W        W49006   9.961  35.020   2.951
76692W        W49007  21.519   3.314  10.945
76693W        W49008  25.162  42.008  13.850
76694W        W49009   4.996  24.263  13.390
76695W        W49010  13.561  25.186  10.366
76696W        W49011   2.477  26.215  14.798
76697W        W49012   6.604   4.375   0.430
76698W        W49013  31.882  10.807   3.233
76699W        W49014  15.051  25.087   4.378
76700W        W49015   5.176  34.352  13.022
76701W        W49016  34.381  40.350  12.524
76702W        W49017   0.678  15.798   0.324
76703W        W49018   2.412  39.438   4.658
76704W        W49019  10.875  21.051  13.273
76705W        W49020  20.051  33.886   0.296
76706W        W49021   9.437  32.623  13.103
76707W        W49022  24.027  39.878  11.175
76708W        W49023  30.167  12.872  10.602
76709W        W49024  39.593  31.822  12.185
76710W        W49025  42.946  19.669  13.324
76711W        W49026   1.340  18.312  12.123
76712W        W49027  23.199  31.556   1.256
76713W        W49028  26.713  11.522  14.028
76714W        W49029  11.326  28.577  13.078
76715W        W49030  25.307   9.224   4.626
76716W        W49031  14.696  32.571   3.707
76717W        W49032  10.717  25.112   3.276
76718W        W49033  12.892  44.505  14.473
76719W        W49034  22.251  33.596  14.997
76720W        W49035  21.464   2.169  12.491
76721W        W49036  38.558  39.949   4.544
76722W        W49037  40.046   4.529   3.017
76723W        W49038  31.621  16.299  12.711
76724W        W49039  35.145  37.121   2.211
76725W        W49040  34.072  31.655   3.309
76726W        W49041  17.358   5.125  13.224
76727W        W49042  36.828  20.320   3.267
76728W        W49043  28.655  12.159   0.221
76729W        W49044   7.757  20.452   1.764
76730W        W49045  14.246  20.561   3.825
76731W        W49046   7.584  40.810   1.127
76732W        W49047   4.520  40.316  11.184
76733W        W49048  29.607  25.812  11.592
76734W        W49049  29.850  39.445  12.449
76735W        W49050  14.780  21.787  13.731
76736W        W49051  37.810  24.446   3.129
76737W        W49052  44.538  19.228  11.371
76738W        W49053  36.406  12.722   3.795
76739W        W49054  37.380   9.725   3.725
76740W        W49055  30.554  29.211  12.415
76741W        W49056  43.204  11.704  13.142
76742W        W49057  18.251  20.283   2.687
76743W        W49058  27.241  11.246  11.040
76744W        W49059  39.393   8.429  12.496
76745W        W49060  20.904  36.055   1.262
76746W        W49061   4.290  11.584  13.620
76747W        W49062  31.571  35.918  11.554
76748W        W49063  41.959  40.759   3.578
76749W        W49064   5.302  18.739   0.213
76750W        W49065  25.269  34.648  11.956
76751W        W49066  23.782  27.515  11.963
76752W        W49067   8.688   1.964  10.090
76753W        W49068  29.126  11.706   1.290
76754W        W49069   9.300  31.868  11.075
76755W        W49070  23.127  15.450  14.555
76756W        W49071  22.583  31.231   0.509
76757W        W49072  16.648  22.430  13.113
76758W        W49073  29.115  40.364   2.377
76759W        W49074  29.566  16.178  12.819
76760W        W49075  28.036   5.124   3.118
76761W        W49076  42.105  40.518  14.533
76762W        W49077  32.897  26.210   0.400
76763W        W49078  30.824  23.756   3.627
76764W        W49079   1.105  19.472  14.044
76765W        W49080   9.636  17.571  12.049
76766W        W49081   2.225  32.542  12.408
76767W        W49082  42.141  32.164   9.994
76768W        W49083  23.536   4.880  10.703
76769W        W49084  12.645  39.408  13.280
76770W        W49085  11.822  14.140   2.648
76771W        W49086  25.892   8.461   3.952
76772W        W49087  35.012   2.590  14.629
76773W        W49088  34.444  44.900  13.536
76774W        W49089  24.914  20.796   1.710
76775W        W49090  23.162   5.234  13.404
76776W        W49091  14.289   9.852  12.353
76777W        W49092  22.827  17.131  13.020
76778W        W49093  41.963  17.935   2.811
76779W        W49094  39.202  31.964  12.990
76780W        W49095  40.349  39.954   3.760
76781W        W49096  41.508  21.807  13.580
76782W        W49097  24.980   2.288  13.762
76783W        W49098  16.399  36.587  12.024
76784W        W49099  29.473   0.743  14.029
76785W        W49100  23.700  24.645  12.484
76786W        W49101  16.549  30.701   9.698
76787W        W49102   6.214  15.691   0.765
76788W        W49103   3.627  42.926  12.516
76789W        W49104  35.375  11.724  14.336
76790W        W49105  30.100  34.464  10.782
76791W        W49106  31.899  13.204   3.722
76792W        W49107  19.256  31.929  14.883
76793W        W49108   8.669   7.201   0.401
76794W        W49109  26.417  30.372  12.458
76795W        W49110  36.490  14.939  14.776
76796W        W49111   4.781  26.293  14.943
76797W        W49112  39.017  14.493   1.191
76798W        W49113  12.893  43.314  13.881
76799W        W49114  43.261  28.893   2.900
76800W        W49115  27.255  35.456   1.162
76801W        W49116  33.862  11.492  10.967
76802W        W49117  29.597  11.666  11.981
76803W        W49118  13.070  18.091   4.615
76804W        W49119  13.007  43.915   2.160
76805W        W49120  43.317   4.969  13.417
76806W        W49121  38.882  40.900   2.365
76807W        W49122  33.180  31.014  13.543
76808W        W49123  12.381  35.970  12.382
76809W        W49124  43.828  32.331  14.341
76810W        W49125  14.906  10.665   3.292
76811W        W49126  40.942   5.951   2.513
76812W        W49127  32.709  40.385  11.248
76813W        W49128   8.145  25.179  13.905
76814W        W49129  39.778  33.541   4.707
76815W        W49130  31.191  38.515   2.826
76816W        W49131  13.892  37.524   3.628
76817W        W49132  44.487  36.659   1.821
76818W        W49133  21.641  41.822  14.427
76819W        W49134   7.213  16.613  13.365
76820W        W49135  39.893  34.374  12.893
76821W        W49136   7.557  39.644   4.120
76822W        W49137   8.438  31.085   4.944
76823W        W49138   3.679  33.777  12.005
76824W        W49139  13.975  19.682   4.084
76825W        W49140   9.396   7.311   3.564
76826W        W49141  22.944   8.687  13.154
76827W        W49142  26.376  32.443   1.253
76828W        W49143   6.692   3.996  10.706
76829W        W49144  37.014  17.748   1.797
76830W        W49145  29.573  29.840   4.255
76831W        W49146  39.944  19.509   2.382
76832W        W49147  18.026   3.472  14.062
76833W        W49148  29.988  39.425  10.981
76834W        W49149  28.554  21.951   0.754
76835W        W49150  33.411   4.291   1.198
76836W        W49151  41.505   4.279   0.811
76837W        W49152   7.706  29.458  10.960
76838W        W49153  19.700  13.142   4.134
76839W        W49154  10.735   7.902  12.067
76840W        W49155  29.989  16.756  10.740
76841W        W49156  10.204   8.264  11.496
76842W        W49157  34.374   5.320  11.582
76843W        W49158  36.658   4.203   2.858
76844W        W49159  22.438   3.243  10.096
76845W        W49160  27.879  43.872   1.302
76846W        W49161  25.451  13.708   2.316
76847W        W49162  13.563  36.394  11.117
76848W        W49163   6.341  29.343  13.444
76849W        W49164  24.696   0.203   4.091
76850W        W49165  28.227  21.440  13.544
76851W        W49166  26.472  33.567  10.678
76852W        W49167  38.818  41.505   5.042
76853W        W49168   7.827  35.738   0.554
76854W        W49169  10.467  10.555  12.578
76855W        W49170  15.327  17.670  12.905
76856W        W49171  14.718   6.391   2.170
76857W        W49172  34.638  18.784   4.591
76858W        W49173  28.690  40.384   3.305
76859W        W49174  24.140   3.707   1.690
76860W        W49175  40.028   4.992   2.309
76861W        W49176  44.658  13.701  14.757
76862W        W49177  42.775  18.817  13.874
76863W        W49178  16.762  31.538  14.825
76864W        W49179  11.408  25.693   1.800
76865W        W49180   4.476  12.090  12.109
76866W        W49181  39.913   3.131  13.560
76867W        W49182  43.090  10.105   0.502
76868W        W49183  40.528  33.064   2.729
76869W        W49184  23.999  13.147  12.334
76870W        W49185   6.872  17.734  13.042
76871W        W49186  21.574   3.937   4.290
76872W        W49187   7.389  31.097   4.868
76873W        W49188  28.796  20.290  11.905
76874W        W49189  12.026  41.319   0.517
76875W        W49190  31.475  25.361  13.232
76876W        W49191  15.704   9.892   2.222
76877W        W49192   6.114  28.669   4.140
76878W        W49193  20.444  36.911   4.111
76879W        W49194  42.686  15.769  12.731
76880W        W49195  27.258   4.007   4.158
76881W        W49196   7.488  17.857   2.411
76882W        W49197  19.610  15.335  12.801
76883W        W49198   4.745  28.169  11.041
76884W        W49199  38.794  23.153   1.432
76885W        W49200   6.423  23.146   1.392
76886W        W49201   2.730  41.694   3.572
76887W        W49202  19.176  31.080  11.178
76888W        W49203  28.175  27.416  13.252
76889W        W49204  16.047  22.610   1.372
76890W        W49205  16.903  40.388   0.895
76891W        W49206  44.721  12.212  10.240
76892W        W49207  24.426  30.157   3.322
76893W        W49208  44.138   1.096  14.408
76894W        W49209  23.693  23.831   0.497
76895W        W49210  22.754  18.036  12.771
76896W        W49211  26.124  32.433  12.910
76897W        W49212  24.230   6.270  11.412
76898W        W49213  35.004  11.220   0.739
76899W        W49214  34.649  17.758  12.037
76900W        W49215  44.387  38.896   1.203
76901W        W49216  40.256  17.446   4.952
76902W        W49217  35.332  19.383   1.690
76903W        W49218  12.381  23.993   1.859
76904W        W49219  24.110  16.022   4.488
76905W        W49220  41.599   9.902  14.628
76906W        W49221  34.255  27.445   0.388
76907W        W49222   3.830  34.674  11.380
76908W        W49223  22.516  36.522   4.817
76909W        W49224   0.362  36.656   0.870
76910W        W49225  41.508   4.803  10.481
76911W        W49226  21.001  10.089   0.822
76912W        W49227  14.271   4.265  12.464
76913W        W49228  33.689  33.076  11.621
76914W        W49229  19.062  28.664   0.270
76915W        W49230   1.783  21.750   1.541
76916W        W49231  36.807   9.208  10.777
76917W        W49232  17.263  32.299   4.786
76918W        W49233  23.776  22.292   1.299
76919W        W49234  43.927  13.267  14.911
76920W        W49235  14.214   1.677   0.701
76921W        W49236   3.988  38.922   3.137
76922W        W49237  38.918  31.679   3.642
76923W        W49238  37.444  12.544   3.554
76924W        W49239  15.596  28.935   4.115
76925W        W49240  12.609  10.380  10.586
76926W        W49241  19.918  39.632  14.798
76927W        W49242   9.447  41.533   3.634
76928W        W49243  40.741  38.930   0.158
76929W        W49244   5.922  18.119   2.239
76930W        W49245  34.349  31.059   2.615
76931W        W49246  41.472  22.944   1.525
76932W        W49247  40.047  22.509  13.326
76933W        W49248  12.543  39.569   0.883
76934W        W49249  39.343  17.714   3.175
76935W        W49250  39.910  28.500   1.438
76936W        W49251  28.061  12.252  14.872
76937W        W49252  42.951  12.887  10.897
76938W        W49253   8.724  15.350  10.511
76939W        W49254  40.648  37.943   2.889
76940W        W49255  26.023   6.510   0.707
76941W        W49256  28.583   0.974   4.230
76942W        W49257  40.446   0.440   3.475
76943W        W49258  22.668  11.410   1.152
76944W        W49259  13.784  18.813  12.850
76945W        W49260  19.830   1.733  12.842
76946W        W49261  18.801  35.385   4.280
76947W        W49262  15.150  43.578   4.018
76948W        W49263  27.049  13.755   2.771
76949W        W49264  13.380  35.162   3.148
76950W        W49265  29.874  27.584  14.903
76951W        W49266   4.525  15.653   2.830
76952W        W49267  12.273  20.502  14.337
76953W        W49268  11.232  10.861   2.834
76954W        W49269   0.325   2.720  13.427
76955W        W49270  10.587  24.088   1.368
76956W        W49271  31.884  25.288  14.399
76957W        W49272  14.287  32.025   2.862
76958W        W49273  44.562   7.593   4.098
76959W        W49274   4.020  30.487  10.721
76960W        W49275   1.420  38.357   1.272
76961W        W49276   9.190  33.397  14.312
76962W        W49277  21.096  12.323   2.847
76963W        W49278  36.930  26.333   4.304
76964W        W49279  38.424  16.067   2.898
76965W        W49280   8.708  44.779   3.232
76966W        W49281   9.731  26.790  13.116
76967W        W49282  35.801   3.214   3.682
76968W        W49283  18.050  25.067   3.739
76969W        W49284  23.698  44.329  12.131
76970W        W49285  25.066  15.549   2.656
76971W        W49286  31.137  16.136  10.549
76972W        W49287  13.867   8.973   2.807
76973W        W49288  27.457  27.916  10.698
76974W        W49289  40.938  10.725   1.372
76975W        W49290  27.236   7.363  11.952
76976W        W49291  36.274  12.787  12.735
76977W        W49292  23.474  16.207   2.651
76978W        W49293  13.313  39.848  14.856
76979W        W49294  25.631  41.095   3.788
76980W        W49295  29.009  27.770  12.612
76981W        W49296  42.253  18.760   4.141
76982W        W49297  39.687  41.022  10.636
76983W        W49298  20.523  18.734  14.503
76984W        W49299   6.815  17.596  14.848
76985W        W49300  30.568  36.350  13.480
76986W        W49301  22.674   0.789   4.985
76987W        W49302  39.926  12.379   2.272
76988W        W49303  20.205  32.583   3.694
76989W        W49304   7.300   4.706   3.607
76990W        W49305  30.288  41.936  12.965
76991W        W49306  26.015   5.474   3.593
76992W        W49307  37.552  28.079  12.394
76993W        W49308   4.503  31.153   2.705
76994W        W49309  20.819   7.847  10.705
76995W        W49310   8.565  42.525   0.770
76996W        W49311   4.165  36.421  11.177
76997W        W49312  38.864  36.279   2.902
76998W        W49313   1.801  27.626   1.688
76999W        W49314  25.177  26.359   3.693
77000W        W49315   1.389  25.649  14.741
77001W        W49316   5.707  34.693   1.757
77002W        W49317   0.772  37.833   1.111
77003W        W49318  35.965  14.642   3.708
77004W        W49319  20.542  29.024   2.377
77005W        W49320  10.862  26.657  11.163
77006W        W49321   3.958  22.453   2.333
77007W        W49322  18.923   2.164  11.148
77008W        W49323  38.068  15.164   2.683
77009W        W49324   8.227  36.576   3.642
77010W        W49325  42.826  17.050  10.951
77011W        W49326  31.489  20.067   4.766
77012W        W49327  30.994   5.402   4.364
77013W        W49328  25.083  17.757   3.724
77014W        W49329   6.205  12.875  11.198
77015W        W49330  27.045  39.007  10.239
77016W        W49331  36.165   9.133  12.110
77017W        W49332   6.233  32.607   1.302
77018W        W49333  42.064  37.635   1.410
77019W        W49334  20.167  39.543   1.625
77020W        W49335  38.985  40.846   4.763
77021W        W49336  20.244  36.922   0.178
77022W        W49337  19.169  13.808   3.745
77023W        W49338   8.902  21.794  13.018
77024W        W49339  29.632   7.750   1.425
77025W        W49340  23.586   9.200   1.019
77026W        W49341   2.677  22.227   3.187
77027W        W49342  20.019   1.436  13.212
77028W        W49343  29.487  16.052   2.766
77029W        W49344  17.584  16.821  10.734
77030W        W49345  10.882  25.521  14.874
77031W        W49346  25.693  19.568  13.488
77032W        W49347  22.694   4.815   4.027
77033W        W49348  27.054  23.003  12.012
77034W        W49349  43.939  37.323   9.869
77035W        W49350  43.734   4.973  12.366
77036W        W49351   5.031  22.245   1.411
77037W        W49352  10.852   7.442   0.902
77038W        W49353  14.528  18.533   4.327
77039W        W49354  33.937  16.808   2.232
77040W        W49355  23.144  37.559   1.719
77041W        W49356  43.072  28.896   1.140
77042W        W49357  15.584   4.295  11.208
77043W        W49358   6.847  29.987   1.147
77044W        W49359  15.668  20.628  11.128
77045W        W49360  29.927  34.232   3.672
77046W        W49361  16.711  41.786   0.755
77047W        W49362  27.672  36.397   3.097
77048W        W49363  19.324  32.949  12.006
77049W        W49364  32.641  10.200   4.372
77050W        W49365  35.994  38.379  14.543
77051W        W49366   3.693  27.652  11.494
77052W        W49367  18.628  42.353  11.183
77053W        W49368  33.131  40.791  11.945
77054W        W49369  27.116   6.828  14.029
77055W        W49370  35.829  43.786   4.063
77056W        W49371  25.946  16.150  13.973
77057W        W49372  24.440   1.220  11.571
77058W        W49373   0.085  24.052  11.578
77059W        W49374  31.631  24.637   4.598
77060W        W49375  20.055  35.988  11.521
77061W        W49376  16.393  10.208  10.799
77062W        W49377  20.215   3.963  13.353
77063W        W49378  20.240   8.797   9.858
77064W        W49379   8.410  27.126   0.772
77065W        W49380   5.244  20.179   2.300
77066W        W49381  30.936  42.897   1.823
77067W        W49382  41.012  15.820   0.470
77068W        W49383  13.270  27.525   4.259
77069W        W49384   0.487  40.570   1.298
77070W        W49385  30.487  37.981  12.330
77071W        W49386  22.015  16.159   4.964
77072W        W49387  18.123  30.389   4.622
77073W        W49388  36.439  20.803   2.597
77074W        W49389  12.687  33.360   3.658
77075W        W49390   9.246  38.501  14.449
77076W        W49391   1.328  34.543  13.354
77077W        W49392  17.930  20.773  14.924
77078W        W49393   7.233  18.353  10.592
77079W        W49394  41.723  38.514   2.340
77080W        W49395  20.629  11.894   2.367
77081W        W49396  34.052  22.152   3.176
77082W        W49397  22.968   3.982  11.560
77083W        W49398  33.603   2.311  13.778
77084W        W49399  41.079  11.969  14.488
77085W        W49400  34.870   7.896  13.312
77086W        W49401  27.687   2.747  10.651
77087W        W49402  26.978  37.648   0.256
77088W        W49403  17.533  36.271  13.837
77089W        W49404  27.935  14.209  12.097
77090W        W49405  36.994  25.307   0.425
77091W        W49406   9.392  28.604   4.663
77092W        W49407   7.608  37.008   0.521
77093W        W49408  37.303   6.917   4.354
77094W        W49409  29.041  43.485   4.718
77095W        W49410  12.363  36.098   1.751
77096W        W49411   8.163  23.742  10.624
77097W        W49412  42.173  39.736   4.458
77098W        W49413   4.141  15.114  10.989
77099W        W49414   4.347   2.532  12.568
77100W        W49415  14.740   4.284  12.005
77101W        W49416  43.735  14.646   1.449
77102W        W49417  10.441   0.638   2.734
77103W        W49418  26.480   2.865   0.313
77104W        W49419  22.174  42.513   2.695
77105W        W49420  17.816   4.420  13.809
77106W        W49421  36.884  27.899  13.017
77107W        W49422   1.379  43.732   0.860
77108W        W49423  14.657   5.203   3.113
77109W        W49424  23.652  33.896  14.281
77110W        W49425  41.097  26.469  14.574
77111W        W49426   3.184  14.225  11.132
77112W        W49427   5.430  12.114   4.253
77113W        W49428  28.064  26.156   3.204
77114W        W49429  15.768  33.393   2.142
77115W        W49430   8.731  25.049   1.700
77116W        W49431   8.865  32.378  14.432
77117W        W49432  42.577  42.428  12.130
77118W        W49433  36.959  31.601   4.148
77119W        W49434   1.365  41.991   3.812
77120W        W49435  29.007  21.155   0.249
77121W        W49436  29.972  14.290  14.077
77122W        W49437  39.035  27.550  14.169
77123W        W49438  44.273   8.187  12.521
77124W        W49439  14.870   0.964   2.366
77125W        W49440  43.539   7.896   1.810
77126W        W49441  32.949  25.590  12.875
77127W        W49442  32.425  43.825  13.418
77128W        W49443   6.944   3.493   3.149
77129W        W49444  15.951  28.405   0.289
77130W        W49445  14.806  13.883  11.210
77131W        W49446  21.632  16.917   1.930
77132W        W49447  41.763  36.116   1.444
77133W        W49448  16.379  26.512   4.187
77134W        W49449  21.492  34.636   1.769
77135W        W49450  33.332   2.832   1.841
77136W        W49451  40.057  24.086   5.254
77137W        W49452  32.685  15.872   0.699
77138W        W49453  42.996  32.008  11.443
77139W        W49454  14.280  37.209   3.402
77140W        W49455   2.271  24.352  13.741
77141W        W49456   9.514  16.188   4.449
77142W        W49457  35.880  16.719   0.545
77143W        W49458  21.463  28.476  11.106
77144W        W49459  24.774  13.445   1.399
77145W        W49460  23.033  27.978   1.445
77146W        W49461   8.805   5.262   1.351
77147W        W49462  20.253  23.266  13.036
77148W        W49463  39.734  24.666  11.899
77149W        W49464  28.915  35.907  13.009
77150W        W49465  32.116   1.230   3.182
77151W        W49466  17.114  31.930  14.891
77152W        W49467  21.322   4.661   2.306
77153W        W49468   8.759   6.276   0.562
77154W        W49469  40.712  37.076  13.021
77155W        W49470   9.675  37.634   0.730
77156W        W49471  32.065  42.430   2.685
77157W        W49472  25.556  14.321   5.066
77158W        W49473  12.086   8.404   1.769
77159W        W49474  43.028  16.560  10.984
77160W        W49475   4.203   8.587   3.693
77161W        W49476  29.218  23.531   1.026
77162W        W49477  23.638  40.822   0.723
77163W        W49478  36.919   5.930   4.619
77164W        W49479   5.584  40.116  12.411
77165W        W49480   5.687   5.446   3.595
77166W        W49481  32.448   7.774   0.707
77167W        W49482  10.564   7.415  12.045
77168W        W49483  17.166  42.857  13.544
77169W        W49484   3.447  42.021  10.694
77170W        W49485  36.484  17.048   0.623
77171W        W49486   4.376   4.964   1.545
77172W        W49487  10.386  26.957   3.572
77173W        W49488  28.454  29.070   4.040
77174W        W49489  37.338  15.690  10.492
77175W        W49490  33.532  12.628   1.754
77176W        W49491  41.800  22.135  12.068
77177W        W49492   5.297  16.815  14.274
77178W        W49493  11.461  32.294  11.104
77179W        W49494  21.242  16.798  11.225
77180W        W49495   5.479  39.209  11.347
77181W        W49496  44.324  41.446   9.840
77182W        W49497  42.933  15.404  13.578
77183W        W49498  31.472  39.010  11.968
77184W        W49499  29.753  32.979   5.177
77185W        W49500  24.569   6.454  11.977
77186W        W49501  17.862  41.696   5.739
77187W        W49502   6.214  33.151   3.749
77188W        W49503  33.452  39.105  12.836
77189W        W49504   9.073  44.559   2.113
77190W        W49505  43.006   5.834   4.546
77191W        W49506  30.556  42.369   3.783
77192W        W49507  24.022  33.748  13.855
77193W        W49508   7.013   0.690   3.651
77194W        W49509  17.531  10.360   9.511
77195W        W49510  27.992  19.358  13.013
77196W        W49511   3.659   6.786   3.478
77197W        W49512   2.048  14.155  10.625
77198W        W49513  27.773  30.844   0.927
77199W        W49514   8.825  38.092  13.049
77200W        W49515   0.087  17.143   0.475
77201W        W49516  19.096  32.241  12.471
77202W        W49517  11.455  41.847   0.106
77203W        W49518  16.923  37.481   4.111
77204W        W49519  24.097  10.115  14.961
77205W        W49520   0.745  39.845  10.890
77206W        W49521  29.472  36.397   4.219
77207W        W49522  10.202  31.554   0.052
77208W        W49523  39.907   6.651  11.374
77209W        W49524  28.133   6.791   3.759
77210W        W49525  31.074  42.279   2.126
77211W        W49526  28.492  24.007   3.660
77212W        W49527   0.441  30.110  13.904
77213W        W49528   4.631   0.829   5.101
77214W        W49529  31.737  34.072  12.368
77215W        W49530  19.552  23.050  13.017
77216W        W49531  32.802  30.432  12.640
77217W        W49532  25.861   8.314  14.808
77218W        W49533  15.214  38.392  11.061
77219W        W49534  28.919  30.686   4.529
77220W        W49535  38.836  34.985   4.941
77221W        W49536  26.759   9.682  11.708
77222W        W49537  10.372  18.004   4.040
77223W        W49538  42.277  11.809  10.355
77224W        W49539  23.124  28.427   3.139
77225W        W49540  41.477  44.818   4.275
77226W        W49541  20.315  31.517  12.520
77227W        W49542  19.081  30.493  12.937
77228W        W49543  32.210  29.550  12.896
77229W        W49544  31.034  40.690  14.784
77230W        W49545  10.643  10.768  13.003
77231W        W49546  22.740  17.804   2.653
77232W        W49547  15.210  28.420   3.576
77233W        W49548  32.805  15.350  13.110
77234W        W49549  20.625  35.370  10.394
77235W        W49550  33.514  42.371  14.339
77236W        W49551   6.563  27.390  10.818
77237W        W49552  35.646   3.326  12.865
77238W        W49553  23.758  23.016   0.797
77239W        W49554  25.587   1.738   1.572
77240W        W49555  32.624  26.660   0.246
77241W        W49556  15.105  11.768  12.485
77242W        W49557   9.694  22.306  11.151
77243W        W49558  27.523  14.274   1.269
77244W        W49559   1.395  11.098   1.401
77245W        W49560  21.650  16.991   0.742
77246W        W49561  18.191   9.294   3.817
77247W        W49562  22.247  15.528   0.943
77248W        W49563  23.775   4.767   3.344
77249W        W49564  39.321   8.671  13.352
77250W        W49565  18.057  11.045   3.547
77251W        W49566  13.925   8.742   0.771
77252W        W49567   7.454   4.819   2.753
77253W        W49568  43.615  37.141  11.957
77254W        W49569  42.819   7.556  14.306
77255W        W49570  18.331  24.764  13.507
77256W        W49571  27.865  23.004  13.804
77257W        W49572  12.398  36.465  10.770
77258W        W49573   0.792  35.397  10.246
77259W        W49574  25.085  35.574   3.810
77260W        W49575   8.836  10.331   0.356
77261W        W49576  38.086  22.120   0.563
77262W        W49577   6.358  26.210   1.590
77263W        W49578   2.269  29.879   2.426
77264W        W49579   6.782  13.822   0.605
77265W        W49580  20.221  20.539  11.775
77266W        W49581  33.059   0.878  14.069
77267W        W49582   0.530  43.499   3.858
77268W        W49583  17.970  18.682  12.432
77269W        W49584  25.998  43.736   4.816
77270W        W49585  41.313  26.062   1.852
77271W        W49586  26.455  22.610  13.875
77272W        W49587  23.829  42.546   3.722
77273W        W49588  16.151   2.091   4.598
77274W        W49589  35.331  31.694   1.387
77275W        W49590   9.665  35.967  14.269
77276W        W49591  17.833  38.403   9.920
77277W        W49592  33.111  37.564   4.044
77278W        W49593  32.559   1.490   3.920
77279W        W49594  14.772  16.195  14.912
77280W        W49595  43.965   8.882   2.309
77281W        W49596  20.675  14.851  14.044
77282W        W49597  36.000  22.992  11.962
77283W        W49598  12.622  21.609  14.874
77284W        W49599  33.799  29.915  13.565
77285W        W49600  19.461  26.627  13.450
77286W        W49601  25.185  11.339  13.084
77287W        W49602  41.479  11.805   0.390
77288W        W49603  40.231   9.664   1.610
77289W        W49604  21.411   7.244   1.034
77290W        W49605  19.018  28.388   4.805
77291W        W49606  31.074   4.117   3.688
77292W        W49607  27.117  15.253  10.936
77293W        W49608   1.288  29.601   1.848
77294W        W49609   7.381  25.543  11.631
77295W        W49610  34.837   4.856  10.613
77296W        W49611   0.343  28.402   3.924
77297W        W49612  13.182  12.200  12.388
77298W        W49613   8.227  13.172   0.288
77299W        W49614   8.633  40.762  11.486
77300W        W49615  18.423  43.964   2.734
77301W        W49616  31.463  39.466  13.505
77302W        W49617   9.879  41.823   3.721
77303W        W49618  26.433   9.762  13.516
77304W        W49619  35.527   3.190   3.232
77305W        W49620   7.623  37.349   1.843
77306W        W49621  19.338  42.480   3.241
77307W        W49622  22.121  16.051   2.156
77308W        W49623   2.278   1.451   4.826
77309W        W49624  18.080  40.975  14.267
77310W        W49625  42.944  33.435  10.529
77311W        W49626  18.222  11.253   4.504
77312W        W49627  14.118  14.756   0.776
77313W        W49628  31.699  37.614   0.699
77314W        W49629   2.727   3.421  13.655
77315W        W49630  27.030  38.449  13.301
77316W        W49631   0.493   6.743  13.063
77317W        W49632  40.058  39.181  12.858
77318W        W49633  27.914  22.784   1.300
77319W        W49634   9.405   1.893   1.866
77320W        W49635  16.811  25.688  11.543
77321W        W49636   4.899  28.016   3.820
77322W        W49637  21.609  30.308   0.239
77323W        W49638  31.600  25.451   3.352
77324W        W49639  34.532   5.283  10.584
77325W        W49640  15.581  34.473   0.265
77326W        W49641  15.236  23.269  14.812
77327W        W49642  37.449  25.284   3.255
77328W        W49643  26.084  25.203   2.243
77329W        W49644   4.750  23.045   2.346
77330W        W49645  34.361  18.526   4.198
77331W        W49646  12.219  34.128  12.339
77332W        W49647  39.413  21.684   2.384
77333W        W49648   7.763  15.989   3.767
77334W        W49649  15.314   3.789   2.249
77335W        W49650  43.386   4.223   4.645
77336W        W49651  17.593  27.638   4.702
77337W        W49652  15.019  28.739   4.936
77338W        W49653  21.324  31.009  14.301
77339W        W49654  37.486   5.964   4.061
77340W        W49655  15.742  18.916  13.208
77341W        W49656   4.460  43.688  13.015
77342W        W49657   5.725  19.246  12.525
77343W        W49658   4.138  19.692   2.122
77344W        W49659  33.400  34.971  13.828
77345W        W49660   7.846  43.559   1.621
77346W        W49661  31.563  10.133  11.995
77347W        W49662  36.540  14.657   0.239
77348W        W49663  28.638  11.340   4.116
77349W        W49664  14.841  43.908   0.519
77350W        W49665  30.039   2.881   4.818
77351W        W49666  35.764  35.561   4.545
77352W        W49667  25.002  22.600   1.984
77353W        W49668  41.522  24.093  13.975
77354W        W49669  20.085  42.829  12.356
77355W        W49670  39.123  16.382  13.414
77356W        W49671  20.683  32.673   1.255
77357W        W49672  17.172  31.513  11.517
77358W        W49673  32.619   8.217   3.623
77359W        W49674  32.870  11.789  11.647
77360W        W49675  19.027  31.633   0.299
77361W        W49676  39.010   9.525   2.788
77362W        W49677  16.680  21.435   0.766
77363W        W49678  37.318  20.789  13.871
77364W        W49679  33.198  20.709   0.478
77365W        W49680  18.581  22.198   1.519
77366W        W49681  24.661   0.370  10.916
77367W        W49682  11.411   6.828   2.309
77368W        W49683  30.455  31.601   1.349
77369W        W49684   0.255  38.319  12.871
77370W        W49685  20.997  24.889  14.350
77371W        W49686   3.036  40.057   2.708
77372W        W49687  34.323  30.871   4.737
77373W        W49688  25.515  17.916   1.729
77374W        W49689   5.242  23.137   1.471
77375W        W49690  31.771  38.904  13.400
77376W        W49691  11.255  39.070  13.479
77377W        W49692  42.458  30.035  14.454
77378W        W49693   8.679  33.030  10.639
77379W        W49694  15.642  21.717  10.590
77380W        W49695  21.697  20.450  13.776
77381W        W49696  13.668   5.919  12.000
77382W        W49697  24.537   8.836  11.528
77383W        W49698  40.376  26.276   4.550
77384W        W49699  37.918  44.755  11.801
77385W        W49700  30.573  34.909   1.276
77386W        W49701   9.779  19.487   0.468
77387W        W49702   4.086   3.990  13.635
77388W        W49703  37.708  10.999   3.357
77389W        W49704   6.409  29.954  12.022
77390W        W49705  42.554  13.724   2.226
77391W        W49706  12.625  15.178  12.490
77392W        W49707   4.292  44.320  10.161
77393W        W49708   0.822  20.093   2.152
77394W        W49709  27.673  18.232   2.491
77395W        W49710  19.074  10.320  12.974
77396W        W49711   2.079  25.971  11.599
77397W        W49712  14.781  21.126  12.438
77398W        W49713   9.641  24.467   4.178
77399W        W49714   1.382  43.796   0.238
77400W        W49715  31.214  10.697  13.558
77401W        W49716  28.607  12.310  12.806
77402W        W49717  40.435   0.885   0.473
77403W        W49718  17.615  25.309   3.584
77404W        W49719  22.194  33.217  13.034
77405W        W49720  42.354  35.970   4.967
77406W        W49721  20.139   0.519   2.708
77407W        W49722  37.435  11.953  12.520
77408W        W49723   9.722  34.515   3.703
77409W        W49724   3.655  38.951  14.008
77410W        W49725  23.470  37.880  12.489
77411W        W49726  21.319   0.916  11.062
77412W        W49727  31.407  10.167  13.775
77413W        W49728  25.958   7.348  13.705
77414W        W49729  23.255  37.055   1.878
77415W        W49730   0.936  11.874   1.955
77416W        W49731  32.969  33.053   4.259
77417W        W49732  25.099  36.081   3.821
77418W        W49733  20.162  37.391   2.921
77419W        W49734  42.176   8.521   4.768
77420W        W49735  39.767  31.086  11.132
77421W        W49736  36.814  34.046  12.410
77422W        W49737  14.699  38.738   0.369
77423W        W49738   5.300  22.190   3.939
77424W        W49739  17.329  41.073   3.744
77425W        W49740  42.339  20.938  12.581
77426W        W49741   6.282  35.953   2.237
77427W        W49742  42.468  40.506  11.695
77428W        W49743  17.086  14.809  14.832
77429W        W49744  14.099  33.801   1.577
77430W        W49745   1.448  37.773  11.101
77431W        W49746  26.527  17.362   2.024
77432W        W49747  20.511  15.196  14.466
77433W        W49748  34.909   6.432   1.872
77434W        W49749   8.045  10.752  12.263
77435W        W49750  34.227  44.276   0.784
77436W        W49751  32.318  30.503  14.105
77437W        W49752  25.565  22.687  14.916
77438W        W49753  21.985  27.723   4.063
77439W        W49754  18.089  10.765  13.642
77440W        W49755  36.482   3.246   0.751
77441W        W49756  24.548  13.800   4.712
77442W        W49757  39.642  10.883   3.936
77443W        W49758   8.854  24.437   3.278
77444W        W49759  26.715  17.208   4.158
77445W        W49760  43.905  11.370   3.332
77446W        W49761  24.834  30.490  12.105
77447W        W49762  30.941   9.901  12.038
77448W        W49763  38.056  38.920  14.288
77449W        W49764  21.971  28.449  11.921
77450W        W49765  11.217   5.841   4.111
77451W        W49766   7.904  31.194   4.176
77452W        W49767  26.171  23.114   0.421
77453W        W49768   7.362  16.008  12.956
77454W        W49769  25.529   4.484  13.396
77455W        W49770  14.421  12.805  12.865
77456W        W49771  36.659  26.169  12.282
77457W        W49772  30.236  29.363  12.853
77458W        W49773  16.412  26.207   4.610
77459W        W49774  37.260  24.354  10.086
77460W        W49775  18.487  32.050  14.137
77461W        W49776  21.345  42.606  14.051
77462W        W49777  17.184  21.753   4.219
77463W        W49778   6.618   6.167  11.460
77464W        W49779   3.417  21.980  12.487
77465W        W49780  14.147  37.496  14.502
77466W        W49781   8.268   3.496   4.338
77467W        W49782   6.456  11.581   9.914
77468W        W49783   7.695  41.451   4.531
77469W        W49784  10.370   4.840  12.889
77470W        W49785  21.720   2.979   4.153
77471W        W49786  26.937  15.012   0.465
77472W        W49787  19.357  44.719   4.414
77473W        W49788  25.527  25.229  14.953
77474W        W49789   1.001  24.633   1.700
77475W        W49790  38.758  34.916   1.275
77476W        W49791  42.992  39.865  13.845
77477W        W49792  23.088  27.950  14.422
77478W        W49793  28.082   6.158   5.523
77479W        W49794  20.932  33.021   2.641
77480W        W49795  31.177  12.110   0.253
77481W        W49796   4.705  27.916  10.600
77482W        W49797  34.062   9.147   3.627
77483W        W49798  37.823  14.624   1.338
77484W        W49799  14.583  14.169   4.603
77485W        W49800  24.561  26.797  11.270
77486W        W49801   9.793  21.048   4.580
77487W        W49802  20.592  19.873   3.832
77488W        W49803  38.052  14.160  11.931
77489W        W49804  41.013   1.961   3.253
77490W        W49805  36.384  33.363  10.542
77491W        W49806  42.941  23.294   0.922
77492W        W49807  21.746   1.408  13.143
77493W        W49808  30.443   7.890  14.528
77494W        W49809   5.788  21.089   2.787
77495W        W49810  39.790  25.556  11.533
77496W        W49811  32.634  18.991   2.890
77497W        W49812  19.161  29.173   3.152
77498W        W49813  35.887  34.024   3.690
77499W        W49814  37.114   6.852  13.410
77500W        W49815  39.771   4.231  12.861
77501W        W49816  34.008  19.186  12.848
77502W        W49817   2.463  39.424  14.515
77503W        W49818  11.912  42.179   0.877
77504W        W49819  28.375  41.086   4.013
77505W        W49820   5.335  10.665   0.676
77506W        W49821  44.970  24.003   2.714
77507W        W49822  35.427   1.342  12.944
77508W        W49823  25.559   6.242   0.791
77509W        W49824  12.345   8.264   0.335
77510W        W49825  11.199  11.885   1.362
77511W        W49826  14.451  18.019  12.953
77512W        W49827  33.430  12.838  12.893
77513W        W49828   9.685  38.035   3.508
77514W        W49829  29.153   2.864   1.031
77515W        W49830  37.891  25.623  11.873
77516W        W49831  31.126  43.040   0.321
77517W        W49832  30.348  13.815   3.116
77518W        W49833  40.857  38.877  11.356
77519W        W49834  38.241  14.142   3.248
77520W        W49835  33.976  37.874  14.982
77521W        W49836  32.399  25.587  12.704
77522W        W49837  41.466  32.658  10.608
77523W        W49838  41.981  29.595  12.017
77524W        W49839  39.438  20.478  12.501
77525W        W49840  20.512  34.477  11.832
77526W        W49841  20.859  32.326  13.670
77527W        W49842  26.981   8.634  10.705
77528W        W49843   4.676  36.486   0.380
77529W        W49844  28.430   0.877  14.575
77530W        W49845  35.151   6.736  11.664
77531W        W49846   9.955  16.869   4.785
77532W        W49847  13.279   2.427  11.946
77533W        W49848   7.877  43.008   0.922
77534W        W49849  16.646  41.890   3.822
77535W        W49850  41.555   2.067  12.503
77536W        W49851  10.137  36.903  13.362
77537W        W49852  31.133  43.958   1.904
77538W        W49853  32.459  41.587   2.850
77539W        W49854   2.235  39.922  11.582
77540W        W49855  28.219  40.590   3.296
77541W        W49856   2.760  12.164   2.450
77542W        W49857   3.426  38.829  13.238
77543W        W49858  16.485  25.012   4.641
77544W        W49859   7.384  24.243   4.145
77545W        W49860  22.109   0.434   0.232
77546W        W49861  35.394  12.096  14.724
77547W        W49862  15.564  14.321  14.018
77548W        W49863  36.299  21.219  13.711
77549W        W49864   2.662  39.407  12.771
77550W        W49865   3.175  27.716  10.633
77551W        W49866  11.958   5.562   3.663
77552W        W49867  21.677  27.948   2.738
77553W        W49868  38.088  38.062  14.984
77554W        W49869   2.325  43.461  13.290
77555W        W49870   5.685  38.235   0.277
77556W        W49871  18.330  25.683  11.034
77557W        W49872  10.371  11.824   2.474
77558W        W49873  31.885   1.483  13.486
77559W        W49874  36.908  34.179   2.874
77560W        W49875  22.109  34.568  14.854
77561W        W49876  27.824  34.090   4.506
77562W        W49877  13.270  22.365   3.681
77563W        W49878  10.373  25.211   3.660
77564W        W49879   8.171   9.111  14.669
77565W        W49880  37.908  26.126  11.104
77566W        W49881  37.935   3.159  11.726
77567W        W49882  44.770  14.295  10.677
77568W        W49883  26.969   1.836  13.895
77569W        W49884   3.090  14.491   2.591
77570W        W49885  36.327  26.346   0.544
77571W        W49886  12.875  17.459  10.255
77572W        W49887  23.699  34.596  14.432
77573W        W49888  41.318  16.452   3.566
77574W        W49889  32.224  15.677   0.831
77575W        W49890  17.032   9.248  12.791
77576W        W49891  13.426  30.461   2.339
77577W        W49892   6.915  12.355   2.364
77578W        W49893  21.741  23.847   2.350
77579W        W49894  38.360   0.288  11.478
77580W        W49895  44.361   6.305   3.721
77581W        W49896  26.990   0.565   0.321
77582W        W49897  28.096   7.720  14.392
77583W        W49898  32.140  42.835   0.312
77584W        W49899  41.885  33.436   4.535
77585W        W49900  34.444   9.381  13.363
77586W        W49901  28.868  23.586  14.254
77587W        W49902  32.862  35.016  11.958
77588W        W49903  18.057  12.236   4.137
77589W        W49904  24.077  30.666  10.227
77590W        W49905   7.737  11.934  13.124
77591W        W49906  39.622   0.656  11.507
77592W        W49907  43.103  24.927   0.464
77593W        W49908  36.634   6.375  12.722
77594W        W49909  11.298  16.097  11.424
77595W        W49910  25.322  41.969   4.243
77596W        W49911  16.944  31.363  11.985
77597W        W49912  34.149  26.964   1.681
77598W        W49913  11.062  23.734  11.159
77599W        W49914  29.538  25.537   3.535
77600W        W49915   9.415  36.385  11.969
77601W        W49916  36.732  31.523   2.319
77602W        W49917  13.942  28.089  13.137
77603W        W49918  21.977  26.632  11.139
77604W        W49919  44.755  43.290   3.179
77605W        W49920  12.684   1.738  11.999
77606W        W49921  37.368   2.887  14.836
77607W        W49922  11.152   9.706   4.536
77608W        W49923  22.996  33.512   0.248
77609W        W49924  21.435  25.276   5.024
77610W        W49925  26.853  17.398  12.779
77611W        W49926  24.464  24.079   3.755
77612W        W49927   6.743   7.969  12.421
77613W        W49928  33.098  43.468   0.836
77614W        W49929   4.882  42.086  14.986
77615W        W49930   8.429  44.699  14.970
77616W        W49931   3.179  28.655   1.485
77617W        W49932   1.905  18.633  10.639
77618W        W49933   4.823  12.800   2.988
77619W        W49934   3.421  33.161  14.894
77620W        W49935  11.341  42.455   3.889
77621W        W49936  43.274  38.080  13.882
77622W        W49937  44.410  10.782  12.984
77623W        W49938  42.880  27.837   3.188
77624W        W49939  38.524  10.880  13.877
77625W        W49940   5.167  20.628   0.197
77626W        W49941  33.944   5.912   1.858
77627W        W49942  19.848  36.647  13.744
77628W        W49943   6.406  10.585   0.344
77629W        W49944   9.341  33.338   4.486
77630W        W49945  18.732   3.934   4.631
77631W        W49946  28.578   9.648  14.311
77632W        W49947  23.242   0.665  10.943
77633W        W49948  42.297  36.631   4.211
77634W        W49949  44.797  44.570  11.441
77635W        W49950  22.216   5.112   1.491
77636W        W49951  14.834  11.236  10.709
77637W        W49952  19.244  43.503  13.022
77638W        W49953  38.005  24.009   2.919
77639W        W49954  40.515   5.495   4.812
77640W        W49955  25.031  26.023   3.334
77641W        W49956  17.689  38.026  12.580
77642W        W49957  37.797   9.906  11.262
77643W        W49958   0.879  16.049  10.393
77644W        W49959  36.508  36.847  10.730
77645W        W49960  28.890   8.793  14.002
77646W        W49961  18.960   7.449   0.107
77647W        W49962  23.743  44.628  11.102
77648W        W49963  37.279  19.983  13.480
77649W        W49964  17.231  29.049  12.222
77650W        W49965  10.881  43.416   0.771
77651W        W49966  21.718   8.633   4.194
77652W        W49967  20.659  35.828  10.629
77653W        W49968  24.478  43.840  12.976
77654W        W49969  20.549  19.223  14.987
77655W        W49970  27.516  41.326   0.745
77656W        W49971  19.240   8.992   3.107
77657W        W49972  25.905  40.631   3.815
77658W        W49973  10.798  25.738   1.166
77659W        W49974  21.819  18.803  11.803
77660W        W49975   7.623  19.262   4.350
77661W        W49976  18.034  42.969  12.754
77662W        W49977   2.494  12.723  12.877
77663W        W49978  26.287  17.201  11.964
77664W        W49979  36.314  40.034  11.252
77665W        W49980  26.942  10.955  14.285
77666W        W49981  33.465  23.121   1.433
77667W        W49982  30.957  12.870  14.882
77668W        W49983  42.860  38.994   2.788
77669W        W49984  40.476  27.505   0.964
77670W        W49985  19.056  33.546   3.310
77671W        W49986   8.427   6.735   1.372
77672W        W49987  29.956  14.564   3.830
77673W        W49988   7.847   5.226  11.231
77674W        W49989  42.832  14.037   4.502
77675W        W49990  34.551  41.780   0.530
77676W        W49991   0.264   0.827   0.838
77677W        W49992  21.336  24.652   3.862
77678W        W49993   8.833   9.713  13.734
77679W        W49994  30.018  32.310  11.102
77680W        W49995  15.423  17.834   2.647
77681W        W49996  42.238  32.454  13.279
77682W        W49997   5.312  34.350   4.158
77683W        W49998  35.468  35.838   0.748
77684W        W49999   2.398  24.277  13.060
77685W        W50000  13.632  34.944  11.880
77686W        W50001  23.853  17.979  11.303
77687W        W50002  30.645  36.690   4.112
77688W        W50003   5.063  21.768  12.994
77689W        W50004   1.342  19.960  11.184
77690W        W50005  40.959  43.544  10.445
77691W        W50006  11.234  20.199  10.620
77692W        W50007  11.784  17.152  11.036
77693W        W50008  36.077  36.031  12.952
77694W        W50009  13.361  38.886   0.300
77695W        W50010  35.774  33.498   3.684
77696W        W50011   6.432  28.750   1.169
77697W        W50012  12.602  40.111  12.412
77698W        W50013  38.580  32.048   0.320
77699W        W50014  36.525   9.965   0.058
77700W        W50015  20.107  16.154   3.909
77701W        W50016  38.321   2.239  12.936
77702W        W50017  38.826  39.332   2.767
77703W        W50018  25.505  26.261  11.582
77704W        W50019   6.007  14.243  10.509
77705W        W50020   3.725   3.415   5.128
77706W        W50021  34.010  36.587   0.488
77707W        W50022  16.534  31.665  11.849
77708W        W50023  22.179  44.413   4.673
77709W        W50024  33.561  33.976  13.188
77710W        W50025  25.631  37.911   1.007
77711W        W50026  24.493  22.741  11.499
77712W        W50027   7.466   0.720  14.964
77713W        W50028   0.720  15.374  13.250
77714W        W50029  20.703  16.248  13.536
77715W        W50030  19.049  17.292  13.947
77716W        W50031  21.488  26.014  14.796
77717W        W50032  32.051  36.848   2.735
77718W        W50033  19.462   1.917   1.309
77719W        W50034   6.793   4.223  14.980
77720W        W50035  15.046  22.611   1.290
77721W        W50036   9.411   8.360   2.712
77722W        W50037  11.912  41.272   3.952
77723W        W50038   4.333  35.548  12.344
77724W        W50039  12.177  18.635   3.776
77725W        W50040  42.815  32.118  13.189
77726W        W50041  38.933  22.151   2.930
77727W        W50042  28.707  17.826   1.232
77728W        W50043  32.021  10.569  13.838
77729W        W50044  40.304  25.422  10.794
77730W        W50045   9.163  36.479  10.711
77731W        W50046  28.103   6.762   2.331
77732W        W50047  29.440  35.495  10.482
77733W        W50048  41.341   5.295   1.346
77734W        W50049  37.328  26.180  11.051
77735W        W50050  11.879  27.678  13.938
77736W        W50051  35.019   0.329   2.299
77737W        W50052  42.966   2.684   0.976
77738W        W50053  42.517  12.148   2.792
77739W        W50054  31.024  44.423   0.745
77740W        W50055  37.608  30.914  13.952
77741W        W50056   8.964  12.462  13.258
77742W        W50057  44.657  14.823  11.620
77743W        W50058  22.004  17.713  12.021
77744W        W50059  14.625   2.926  10.801
77745W        W50060  19.117  23.712  14.798
77746W        W50061  17.346  21.662  14.316
77747W        W50062   9.114  24.185  14.949
77748W        W50063  17.886  25.011  12.525
77749W        W50064  36.581  14.215  10.571
77750W        W50065   9.363  35.504  13.829
77751W        W50066  32.367   2.617  11.040
77752W        W50067  31.036   2.908   1.674
77753W        W50068  32.029  35.702   0.327
77754W        W50069  16.657  29.345  10.672
77755W        W50070  29.458  16.770  13.435
77756W        W50071  31.955  39.972   0.501
77757W        W50072  20.961  37.833   0.110
77758W        W50073  40.464  35.971  14.345
77759W        W50074  18.691   6.805  12.951
77760W        W50075  44.835   0.515   2.790
77761W        W50076   7.435  27.517  11.110
77762W        W50077  31.355  16.032  14.974
77763W        W50078  25.488   7.185   4.173
77764W        W50079  14.198  44.013  14.117
77765W        W50080  39.700  19.733   1.461
77766W        W50081   9.814  39.827  10.372
77767W        W50082   1.203  22.619  14.482
77768W        W50083  39.018  37.467   1.769
77769W        W50084  15.694   3.729  12.466
77770W        W50085  28.238  20.708  14.394
77771W        W50086  43.203  43.686   2.618
77772W        W50087  22.339  26.758  12.362
77773W        W50088   3.200  29.786   0.757
77774W        W50089  42.141  24.784  10.142
77775W        W50090  30.456  42.562   2.898
77776W        W50091  17.934  22.744   0.939
77777W        W50092  12.316  25.738  11.689
77778W        W50093   6.769  21.907  13.896
77779W        W50094  32.177  43.777  14.018
77780W        W50095  37.014  42.946   2.683
77781W        W50096   5.111  35.580  11.551
77782W        W50097  41.989  35.351  13.380
77783W        W50098   1.463  18.898   0.454
77784W        W50099   7.928  17.535   3.727
77785W        W50100  44.432  31.965  13.418
77786W        W50101  19.006  22.491  11.986
77787W        W50102  24.293   9.652  14.182
77788W        W50103   4.655  36.602  11.135
77789W        W50104  19.066  28.943   4.618
77790W        W50105   5.386  27.760  13.924
77791W        W50106  24.147  27.207  11.715
77792W        W50107  38.470  36.948  13.229
77793W        W50108   4.829  14.704   1.692
77794W        W50109  20.107  23.100   5.088
77795W        W50110  42.834  18.193   4.131
77796W        W50111  25.611  28.089  11.119
77797W        W50112  38.010  16.014   1.231
77798W        W50113  21.353  25.564  11.093
77799W        W50114   0.785  11.414   2.810
77800W        W50115  17.695  14.325  10.999
77801W        W50116  37.620  20.993   4.558
77802W        W50117  31.415  17.079  10.674
77803W        W50118  13.794  42.761   4.097
77804W        W50119  19.042  15.752   1.967
77805W        W50120  35.741  32.983   2.565
77806W        W50121  14.296  35.654   1.829
77807W        W50122  40.986  35.095  13.952
77808W        W50123   2.157  21.317   3.195
77809W        W50124   8.116   3.967   1.728
77810W        W50125   3.729  32.827   4.609
77811W        W50126  25.621   1.347   3.805
77812W        W50127   9.999  14.810   0.226
77813W        W50128  11.837   4.610  11.512
77814W        W50129  27.218  21.682   4.474
77815W        W50130  39.349  21.620   0.362
77816W        W50131  25.171   8.663  10.372
77817W        W50132  29.216  32.162  10.262
77818W        W50133  18.764   8.561   3.771
77819W        W50134  44.692   1.955   3.719
77820W        W50135  15.282  35.834  11.091
77821W        W50136   5.299  28.884   0.767
77822W        W50137  16.591  16.087  14.215
77823W        W50138  24.669  25.654   3.337
77824W        W50139  37.378   2.899  13.788
77825W        W50140  40.770   1.560  14.126
77826W        W50141  26.227   6.753   2.016
77827W        W50142  36.860  35.137   0.886
77828W        W50143  18.206  22.475  10.597
77829W        W50144  38.358  17.310   1.874
77830W        W50145  14.087  35.238  11.513
77831W        W50146  13.159  34.972  11.696
77832W        W50147  34.682  30.531  10.488
77833W        W50148  13.202   5.731  11.743
77834W        W50149  28.941   8.403  13.634
77835W        W50150   9.088   4.470   0.004
77836W        W50151   9.475  12.575  13.995
77837W        W50152  16.479  42.523   1.835
77838W        W50153  43.832  14.094   1.343
77839W        W50154  22.611  10.622  13.491
77840W        W50155  26.482  31.627   1.707
77841W        W50156  43.417  22.032  11.986
77842W        W50157  36.045  38.161   1.968
77843W        W50158   9.622  41.503  14.367
77844W        W50159  29.932  35.640   2.172
77845W        W50160   0.209   2.680   1.870
77846W        W50161   9.127  38.033  13.497
77847W        W50162  30.185  27.571   1.775
77848W        W50163  43.390  35.130   2.763
77849W        W50164   7.772  36.162   2.278
77850W        W50165   1.363   2.303  12.378
77851W        W50166   8.682  28.180  11.820
77852W        W50167   0.885  41.596  12.170
77853W        W50168  13.146  32.640  12.416
77854W        W50169  27.694  24.282   2.680
77855W        W50170  21.335   4.451  12.309
77856W        W50171  36.823  24.011   0.432
77857W        W50172  25.712  38.492   4.224
77858W        W50173  17.954  20.145   3.853
77859W        W50174   7.782  40.634   0.475
77860W        W50175   2.848  44.936   1.332
77861W        W50176  44.842  27.087   4.607
77862W        W50177   4.794  33.259   1.084
77863W        W50178  28.011   3.527   0.849
77864W        W50179  42.908  12.459  11.155
77865W        W50180  24.985  14.697   3.215
77866W        W50181  33.329  42.451   1.660
77867W        W50182   0.977  18.360   3.618
77868W        W50183  23.654  23.558   4.229
77869W        W50184  22.488  28.671  11.986
77870W        W50185   8.632  37.027   4.242
77871W        W50186  19.816  31.784  10.425
77872W        W50187  14.611  37.267   1.296
77873W        W50188  16.255  31.972  13.552
77874W        W50189  28.382  28.427   2.859
77875W        W50190  30.571   2.613  13.984
77876W        W50191   7.634   6.676  11.643
77877W        W50192  41.544  17.992  13.494
77878W        W50193   0.154  18.261   3.261
77879W        W50194  15.280  22.279  12.060
77880W        W50195  32.552   6.139   0.433
77881W        W50196  27.648  14.781  11.047
77882W        W50197  24.523  15.062   1.118
77883W        W50198  16.718  21.883   4.914
77884W        W50199  14.128  41.880   0.198
77885W        W50200  29.366  39.548  14.924
77886W        W50201  10.619   7.784  13.048
77887W        W50202  11.531   9.384  11.565
77888W        W50203  27.594  13.852  11.892
77889W        W50204  40.349  16.240  12.840
77890W        W50205  17.556  39.020   2.266
77891W        W50206  13.930  26.801  12.585
77892W        W50207   3.007  37.461   0.084
77893W        W50208  21.707   7.805   4.844
77894W        W50209  42.596  16.482   2.359
77895W        W50210  37.832  28.891  11.192
77896W        W50211  29.556  19.167   1.195
77897W        W50212   0.772  10.760   0.491
77898W        W50213  18.149  21.952  11.471
77899W        W50214  31.298  28.929   4.121
77900W        W50215   5.366  24.506   2.911
77901W        W50216  42.285  32.542   2.255
77902W        W50217  31.898  11.171  12.433
77903W        W50218  24.663  30.896  10.629
77904W        W50219   3.958  38.819   1.333
77905W        W50220   5.134  37.838   2.892
77906W        W50221  30.485  33.560   3.248
77907W        W50222  34.514  24.334   4.885
77908W        W50223  42.272  24.524  12.448
77909W        W50224   7.777   8.664  11.136
77910W        W50225  43.369   3.007   2.677
77911W        W50226   1.267  31.339  14.419
77912W        W50227  15.412  43.979  13.958
77913W        W50228  22.629  27.169   4.020
77914W        W50229  34.985   2.816   1.137
77915W        W50230  26.979  43.958  14.360
77916W        W50231  19.592  44.781   1.986
77917W        W50232  23.714  14.661   3.749
77918W        W50233   8.114  15.608   4.656
77919W        W50234  39.087  27.657  14.680
77920W        W50235  20.084  26.135  14.746
77921W        W50236   4.294  34.588  11.951
77922W        W50237  26.238  20.209   2.578
77923W        W50238  37.386  40.414   4.227
77924W        W50239  29.498   1.262  10.798
77925W        W50240  37.341  17.839  11.953
77926W        W50241  39.928   1.516   3.814
77927W        W50242  22.747  19.715   0.192
77928W        W50243  36.028   2.889  13.213
77929W        W50244  17.720  31.682  14.185
77930W        W50245  16.375  44.935   1.391
77931W        W50246  30.962  25.290   3.106
77932W        W50247  37.109  25.989  10.608
77933W        W50248  17.311  30.444   5.437
77934W        W50249  41.245  10.151  11.810
77935W        W50250  38.475  42.931  10.940
77936W        W50251  25.079  44.782  11.835
77937W        W50252  25.631  11.190   3.127
77938W        W50253  38.337  22.175  12.521
77939W        W50254  15.125  27.444   0.854
77940W        W50255  41.274  40.460  14.875
77941W        W50256   9.015  18.094  10.190
77942W        W50257  30.720  22.699  13.797
77943W        W50258  21.211  16.991  12.036
77944W        W50259  17.350  41.893  12.018
77945W        W50260  40.576  29.696  12.088
77946W        W50261  36.010  25.021   0.209
77947W        W50262   9.155  29.633   2.706
77948W        W50263   0.096   8.810   2.036
77949W        W50264  38.126   9.243   2.182
77950W        W50265   6.708   2.904  13.900
77951W        W50266  27.491   7.120   0.320
77952W        W50267  27.518  31.672   1.523
77953W        W50268   0.259   2.218  10.623
77954W        W50269   4.312  36.422   4.728
77955W        W50270  26.766   7.250   0.820
77956W        W50271  32.596  35.588   1.485
77957W        W50272  39.286   9.814  10.616
77958W        W50273   4.284  38.793   2.220
77959W        W50274   3.860  16.776   1.743
77960W        W50275  21.987  34.544   2.438
77961W        W50276   6.049  13.746  12.185
77962W        W50277  18.068  35.011  11.601
77963W        W50278  26.300  25.875   1.209
77964W        W50279  34.585  12.233   2.158
77965W        W50280   6.859   5.491   3.579
77966W        W50281  14.576  36.953  14.801
77967W        W50282  44.242   7.246   2.801
77968W        W50283  35.263   1.990   5.142
77969W        W50284  20.737  42.087   0.518
77970W        W50285  17.140   6.167   5.386
77971W        W50286   6.198  40.848   4.325
77972W        W50287  40.324  22.052   2.749
77973W        W50288  13.603  18.767  11.097
77974W        W50289  30.133   9.170   3.948
77975W        W50290  31.042  12.607   0.339
77976W        W50291   5.376  12.217  12.189
77977W        W50292  14.595  42.593  13.015
77978W        W50293  24.974  36.420  13.784
77979W        W50294  22.196   4.684   2.839
77980W        W50295  15.367  12.869   4.208
77981W        W50296  31.514   9.204  13.584
77982W        W50297  17.807   1.970   4.543
77983W        W50298  18.610  42.260   4.121
77984W        W50299   3.180  30.073   2.007
77985W        W50300  22.224  29.040   0.668
77986W        W50301  26.174  33.960  14.839
77987W        W50302   4.137  19.702   1.219
77988W        W50303  25.584  31.673   3.217
77989W        W50304   0.783  25.005   2.728
77990W        W50305  31.903  35.469  12.674
77991W        W50306  24.564   3.776  12.469
77992W        W50307  29.078  12.340   2.783
77993W        W50308  10.109  24.155   1.074
77994W        W50309  31.541  43.034  12.085
77995W        W50310   2.707  30.211  14.162
77996W        W50311  14.673   5.379   3.599
77997W        W50312   1.952  31.741  12.987
77998W        W50313  14.522  28.971   3.490
77999W        W50314   4.907   2.966  10.755
78000W        W50315  29.598  11.776   4.142
78001W        W50316   4.001  44.380   1.301
78002W        W50317   0.962  37.121   4.226
78003W        W50318  36.668  38.994   3.823
78004W        W50319   5.712  26.468   5.071
78005W        W50320  30.541  15.326   1.404
78006W        W50321  14.836  15.132   2.300
78007W        W50322  20.677  32.554   2.707
78008W        W50323  39.296  31.002   1.263
78009W        W50324  22.639  14.758   2.868
78010W        W50325  12.886  16.327  14.912
78011W        W50326  29.855   7.723   3.576
78012W        W50327  26.463  19.222  14.556
78013W        W50328  24.709  26.574   1.300
78014W        W50329  14.349  25.253   3.101
78015W        W50330  17.013   0.952  10.652
78016W        W50331   6.198   2.030   0.440
78017W        W50332  15.383  10.519   3.191
78018W        W50333  40.750   3.323  12.464
78019W        W50334   4.734  30.116  14.243
78020W        W50335  21.012   5.252  12.991
78021W        W50336  10.630  11.229   0.284
78022W        W50337   7.683   8.728   1.945
78023W        W50338  25.071  42.979  14.938
78024W        W50339  23.746  15.553  13.917
78025W        W50340   4.467  37.564   4.238
78026W        W50341  33.361  18.554   0.732
78027W        W50342  11.782  31.860   2.115
78028W        W50343   2.190  38.385  12.991
78029W        W50344  16.133   3.481  12.529
78030W        W50345  43.681  29.710   1.596
78031W        W50346  37.473  12.450  12.641
78032W        W50347  30.580  22.140  13.457
78033W        W50348  35.162  38.375  14.968
78034W        W50349  39.329  26.688  14.261
78035W        W50350   8.264   6.385  14.233
78036W        W50351  11.693  44.211   3.151
78037W        W50352  31.326  33.965  11.485
78038W        W50353  33.125  32.162   3.602
78039W        W50354  30.071   3.855  13.268
78040W        W50355  19.711   6.992   0.791
78041W        W50356  16.540  37.277   3.739
78042W        W50357  38.117  28.850  11.640
78043W        W50358  19.760  14.306  13.871
78044W        W50359  22.004  20.315  13.041
78045W        W50360  44.090  22.679  11.796
78046W        W50361  19.779  12.220  14.076
78047W        W50362  12.598   6.696  14.313
78048W        W50363  35.058  23.001   1.321
78049W        W50364  14.014  14.296  11.083
78050W        W50365   1.996   3.027   4.219
78051W        W50366  26.407  14.780  13.407
78052W        W50367  31.003  24.727  10.558
78053W        W50368   0.757  31.381   0.686
78054W        W50369   2.356  24.443   1.935
78055W        W50370   4.905  11.340  11.556
78056W        W50371  44.090  40.395   1.240
78057W        W50372  40.494  26.780   4.488
78058W        W50373  22.660  35.978  11.864
78059W        W50374  42.543  35.912   1.679
78060W        W50375   6.276  42.348  13.036
78061W        W50376  43.789  11.661  13.775
78062W        W50377  33.457  33.941   2.278
78063W        W50378  11.905  34.006   1.276
78064W        W50379  16.069  36.646   0.495
78065W        W50380  34.826  40.114   3.684
78066W        W50381   2.789  32.673   2.939
78067W        W50382  25.547   3.366   1.946
78068W        W50383   5.714  18.064  12.923
78069W        W50384  16.621  26.331  12.275
78070W        W50385  33.877  15.555  11.598
78071W        W50386  39.492  15.362   1.530
78072W        W50387   3.400  30.063   1.533
78073W        W50388  31.136  10.564   4.195
78074W        W50389  29.699   0.358  12.554
78075W        W50390  20.793  23.594   4.694
78076W        W50391  11.820  30.520  14.799
78077W        W50392  15.713  43.996  14.985
78078W        W50393  14.826   6.803   1.853
78079W        W50394  36.087   5.337   0.567
78080W        W50395   7.310   8.875   0.027
78081W        W50396   5.242  38.887  12.962
78082W        W50397  13.116   4.612  12.906
78083W        W50398   0.149   8.678   0.979
78084W        W50399  40.747   3.200   2.310
78085W        W50400  36.014  10.592   0.435
78086W        W50401  18.221  26.431   2.332
78087W        W50402  41.847   4.898  13.311
78088W        W50403   0.302  29.620  13.932
78089W        W50404   5.352  43.501  14.014
78090W        W50405   6.157  42.055   0.984
78091W        W50406  14.553   7.294   2.617
78092W        W50407  15.912  31.009  10.475
78093W        W50408  12.207  39.348  10.375
78094W        W50409  24.699  27.455   2.289
78095W        W50410  11.786  25.963   1.248
78096W        W50411  44.358  27.604  13.997
78097W        W50412  40.795  19.633  13.631
78098W        W50413  16.012   5.965  14.033
78099W        W50414  24.135  23.145  13.951
78100W        W50415   5.763  42.350  12.991
78101W        W50416   8.584  14.976  12.295
78102W        W50417  19.105   4.843  14.232
78103W        W50418  38.858  32.209  13.478
78104W        W50419  33.972  42.463   4.351
78105W        W50420   0.953  34.829  12.395
78106W        W50421  35.680  23.585   3.863
78107W        W50422  36.639   1.951  11.201
78108W        W50423  33.473  14.118   3.300
78109W        W50424  14.573  31.327   4.341
78110W        W50425  30.973  20.094  14.731
78111W        W50426  25.910  33.853   3.761
78112W        W50427   5.153   6.841   0.916
78113W        W50428  10.893  34.053   1.230
78114W        W50429  38.842  11.872   4.275
78115W        W50430  40.966   0.087  14.836
78116W        W50431  42.470   1.469   4.524
78117W        W50432  42.737  28.492   0.292
78118W        W50433  42.092  38.683   4.133
78119W        W50434  22.086  41.821  12.796
78120W        W50435  33.888  41.115   3.613
78121W        W50436  22.983  32.648  11.585
78122W        W50437  35.918  39.272   4.094
78123W        W50438   1.204  21.663   2.232
78124W        W50439  26.836  37.282   1.135
78125W        W50440  44.025  10.838  14.793
78126W        W50441  26.108  32.048   3.927
78127W        W50442  36.189  23.701   3.784
78128W        W50443  31.903  42.403  10.633
78129W        W50444  32.511  23.179  13.931
78130W        W50445  23.407   2.578   2.786
78131W        W50446  36.523  17.180   2.432
78132W        W50447   5.857   9.207   4.113
78133W        W50448  37.492   4.798  13.977
78134W        W50449   9.179  33.143  10.637
78135W        W50450   7.392  21.941   2.996
78136W        W50451  15.049  30.183   1.090
78137W        W50452  35.014   1.201   2.655
78138W        W50453  11.605  12.134   0.686
78139W        W50454  13.035  17.284   1.796
78140W        W50455  40.619  44.816  10.705
78141W        W50456   8.939   1.449   4.859
78142W        W50457  26.001  13.105  11.185
78143W        W50458  44.766  38.678  12.585
78144W        W50459  34.538  17.104   3.776
78145W        W50460   7.746   8.131  12.817
78146W        W50461  37.346  21.468   3.787
78147W        W50462  37.495  35.111   1.895
78148W        W50463  18.212  33.112  10.687
78149W        W50464  40.728  17.070   1.723
78150W        W50465  40.554  40.505   2.220
78151W        W50466  25.652  16.021   2.938
78152W        W50467  41.533  26.246   2.284
78153W        W50468  12.967   5.171  12.568
78154W        W50469   6.040   3.434   0.891
78155W        W50470  24.531  30.568   2.386
78156W        W50471  36.168  13.549   0.248
78157W        W50472   8.005  27.875  14.499
78158W        W50473  30.394  22.102  13.931
78159W        W50474  12.660  21.644   4.269
78160W        W50475  29.912  44.915   2.237
78161W        W50476   4.768  19.496  14.434
78162W        W50477  24.164  29.715  13.829
78163W        W50478  23.426  41.894   4.451
78164W        W50479  25.856  29.703   3.919
78165W        W50480  30.455  11.904  12.452
78166W        W50481   6.058  44.976   3.125
78167W        W50482  39.332  39.837   0.010
78168W        W50483  43.669  23.585   2.006
78169W        W50484  18.820  29.495   4.244
78170W        W50485  42.904   8.951   3.230
78171W        W50486  34.888   4.460  10.999
78172W        W50487  26.088   7.047   5.476
78173W        W50488  18.825  14.197   2.905
78174W        W50489  41.496   9.483   4.271
78175W        W50490  19.746  12.305  12.316
78176W        W50491  42.548   6.589  12.356
78177W        W50492  31.391  42.440   0.284
78178W        W50493   7.910  41.016  13.483
78179W        W50494  25.034  27.529  13.028
78180W        W50495  39.989  27.071  14.869
78181W        W50496  18.964   8.560  13.407
78182W        W50497  38.300  20.985   4.130
78183W        W50498  21.426   6.449  13.303
78184W        W50499  21.049  37.580   2.828
78185W        W50500  41.464   2.435   0.268
78186W        W50501   2.280  30.440  14.005
78187W        W50502  20.809  44.509  11.121
78188W        W50503  17.720  16.997   2.895
78189W        W50504  44.731  10.155   4.221
78190W        W50505  32.486   2.913  14.728
78191W        W50506  15.179  17.156  14.357
78192W        W50507  20.080  31.823  14.351
78193W        W50508  23.959   4.417   2.244
78194W        W50509  13.847  20.823  12.078
78195W        W50510   7.576  43.139   1.854
78196W        W50511  14.265   2.197   1.981
78197W        W50512   4.777  28.727  14.516
78198W        W50513   3.330   2.875  13.272
78199W        W50514  28.659  23.260  12.742
78200W        W50515  15.084   1.074  13.863
78201W        W50516  13.708  24.730   1.654
78202W        W50517  39.399   3.308  12.892
78203W        W50518  33.271  39.954  12.495
78204W        W50519  27.532  34.760  13.907
78205W        W50520   7.232  21.898  12.541
78206W        W50521  40.363  20.632   2.728
78207W        W50522  42.468   6.705  10.559
78208W        W50523  22.751  40.280  12.384
78209W        W50524  13.126  25.012  14.052
78210W        W50525  31.118  40.089  12.945
78211W        W50526   5.956  41.864  13.001
78212W        W50527  35.373  28.371  11.066
78213W        W50528   5.991   0.376   2.809
78214W        W50529  29.576  10.649   1.846
78215W        W50530  35.484  17.063  13.380
78216W        W50531  41.529  12.461  12.795
78217W        W50532  14.720  19.279   4.720
78218W        W50533  43.000  11.131   0.742
78219W        W50534  22.234   9.325   0.225
78220W        W50535  33.607  13.210   2.873
78221W        W50536   5.388  33.033   2.306
78222W        W50537  39.949   3.631  13.501
78223W        W50538  14.156  20.321  13.435
78224W        W50539  31.160  17.341   1.323
78225W        W50540  30.925  18.801  14.392
78226W        W50541  34.457  21.598   1.249
78227W        W50542  38.539  18.665  10.731
78228W        W50543  43.643  28.220  13.931
78229W        W50544   7.184  43.622   2.738
78230W        W50545  33.425   3.886   0.145
78231W        W50546  37.696  36.565   2.923
78232W        W50547  27.032  40.029   1.316
78233W        W50548  27.647  20.170  11.969
78234W        W50549  36.795   9.772  13.818
78235W        W50550  28.182   1.110  13.898
78236W        W50551  29.424  41.025   4.097
78237W        W50552  40.538  34.025   1.902
78238W        W50553   0.965  15.064   4.602
78239W        W50554  17.240   2.367  12.763
78240W        W50555  44.892  27.083   0.358
78241W        W50556  29.215  24.545  11.049
78242W        W50557  23.715  23.179   3.134
78243W        W50558   0.309  30.853  13.448
78244W        W50559  18.112  14.317   3.189
78245W        W50560  15.646   0.537  11.424
78246W        W50561  33.489   9.465  13.539
78247W        W50562  37.836  12.070  13.397
78248W        W50563  28.861  19.133  13.956
78249W        W50564  36.500  11.179   1.100
78250W        W50565  39.168   0.559   1.353
78251W        W50566  10.389   8.743   1.467
78252W        W50567  33.025  40.880   3.118
78253W        W50568  36.881  29.617  14.789
78254W        W50569   6.446  33.403  11.592
78255W        W50570  29.956  42.311  14.973
78256W        W50571  33.627  12.117  10.019
78257W        W50572  33.347  10.369  11.490
78258W        W50573   3.918  30.901  12.467
78259W        W50574   2.039  15.234   1.320
78260W        W50575  32.637  30.393  10.688
78261W        W50576  32.086  42.081  13.563
78262W        W50577  36.370  37.741  13.040
78263W        W50578  36.053  27.105   3.751
78264W        W50579  20.448  35.939   3.604
78265W        W50580  28.084   7.805  12.347
78266W        W50581  43.366  22.653   3.420
78267W        W50582   2.677  21.809   1.309
78268W        W50583   3.940  12.189   2.662
78269W        W50584  42.454  34.149  14.514
78270W        W50585  25.091  19.152   0.101
78271W        W50586  30.171  16.286   2.269
78272W        W50587  15.664   7.656  10.425
78273W        W50588   9.346  34.874   3.617
78274W        W50589  11.542   5.832  12.403
78275W        W50590  34.653  19.760   2.250
78276W        W50591  30.600  39.853   2.691
78277W        W50592  13.318  33.433  13.005
78278W        W50593  15.069   5.815  12.656
78279W        W50594  43.777   7.410   1.040
78280W        W50595  20.495  41.274   4.286
78281W        W50596  12.482  16.711  10.546
78282W        W50597  39.781   3.463  11.599
78283W        W50598  31.139  10.858  10.653
78284W        W50599  16.215  23.361   4.177
78285W        W50600   2.123   7.159  14.827
78286W        W50601  17.515  25.150   2.654
78287W        W50602  11.260  43.212   3.242
78288W        W50603  35.876   6.717   2.363
78289W        W50604  32.805  24.692   1.784
78290W        W50605  32.867  12.927   1.833
78291W        W50606  16.897  15.728   3.788
78292W        W50607   0.299  17.957  13.460
78293W        W50608  42.100  21.805   3.917
78294W        W50609  23.094  34.574   0.723
78295W        W50610  14.461  19.377   5.128
78296W        W50611  18.349   3.871  13.920
78297W        W50612  25.930   9.434  10.718
78298W        W50613  12.285  19.296   0.696
78299W        W50614  10.394  43.404   3.630
78300W        W50615  21.229   8.088   0.947
78301W        W50616   0.935  12.831   0.416
78302W        W50617  18.665   9.644   2.346
78303W        W50618  32.170  30.180   2.290
78304W        W50619  27.535  13.093  13.941
78305W        W50620  43.056  16.676  11.852
78306W        W50621   1.106  13.836  13.704
78307W        W50622   0.340  20.274   4.293
78308W        W50623  21.209  21.505   5.060
78309W        W50624  42.387  44.534  11.170
78310W        W50625  39.905   7.714  14.235
78311W        W50626   3.936  40.939  10.658
78312W        W50627  34.639   9.831  11.855
78313W        W50628   9.378  25.024  13.435
78314W        W50629  26.040  19.324   3.637
78315W        W50630  24.690  38.412   3.770
78316W        W50631  30.345  11.491   0.747
78317W        W50632  44.507  11.910  12.883
78318W        W50633  22.057   5.329   0.927
78319W        W50634  37.848  24.535  13.309
78320W        W50635  33.513  35.823   1.213
78321W        W50636  11.846  33.099  13.847
78322W        W50637  40.573  12.122   1.299
78323W        W50638   6.387  42.085  12.115
78324W        W50639  30.836  10.330   4.556
78325W        W50640  34.516   6.584  14.485
78326W        W50641  15.805  18.054   3.743
78327W        W50642   2.964  24.118   0.996
78328W        W50643  16.529   3.046   0.868
78329W        W50644  17.550  42.461   3.712
78330W        W50645   2.416  37.026   3.111
78331W        W50646  11.548  19.811   4.044
78332W        W50647  43.910  39.720   1.923
78333W        W50648  42.463  20.750  11.187
78334W        W50649  29.420  41.070   1.478
78335W        W50650  29.616  13.567   2.615
78336W        W50651   2.350  28.237   4.089
78337W        W50652   3.544  34.532   2.633
78338W        W50653  14.101  23.481   0.405
78339W        W50654  16.786   8.693   1.031
78340W        W50655  43.174  35.569  12.985
78341W        W50656   1.467  38.859  12.056
78342W        W50657  15.308   2.328  14.360
78343W        W50658  37.536  37.411  13.915
78344W        W50659  26.357  16.877  13.269
78345W        W50660   4.892   5.411   4.595
78346W        W50661  41.907  16.883   2.809
78347W        W50662   2.787  35.736   4.171
78348W        W50663  26.562  38.840  14.406
78349W        W50664   0.960  18.237   1.786
78350W        W50665  16.948  22.139  12.308
78351W        W50666   0.245  39.782   1.323
78352W        W50667   9.254  17.611   1.256
78353W        W50668  15.563  33.617  13.942
78354W        W50669  42.843  27.367  11.151
78355W        W50670  15.095  34.910   1.387
78356W        W50671  13.840  29.781  11.480
78357W        W50672  44.536  13.232  12.389
78358W        W50673  28.857  44.028  14.807
78359W        W50674   3.695  17.861   0.340
78360W        W50675  35.371  35.874  11.288
78361W        W50676  41.799  36.323   0.944
78362W        W50677  11.222   5.824  14.728
78363W        W50678  43.142  12.582   3.590
78364W        W50679   2.263  11.842   1.313
78365W        W50680  23.496   4.288   1.020
78366W        W50681  16.034   9.160  14.996
78367W        W50682  11.620  18.990   0.356
78368W        W50683  44.334  43.224  11.200
78369W        W50684  38.974   0.895  11.230
78370W        W50685  27.449  12.084  14.125
78371W        W50686   7.762  23.712   2.966
78372W        W50687   0.536  36.035   9.564
78373W        W50688  32.141  13.207   3.258
78374W        W50689  29.078   5.019  13.894
78375W        W50690  23.028  29.945  11.446
78376W        W50691  17.991  31.851   0.422
78377W        W50692   1.222   8.722   2.338
78378W        W50693  16.484  30.977  11.162
78379W        W50694  30.590  19.783  13.958
78380W        W50695  12.275   3.751   2.557
78381W        W50696  10.263   6.992   3.256
78382W        W50697  32.990  11.384  10.935
78383W        W50698  44.842   4.371  13.401
78384W        W50699  28.482  31.488  13.616
78385W        W50700  16.780  24.663  10.537
78386W        W50701  44.505  31.598  13.025
78387W        W50702   2.466  12.178  13.032
78388W        W50703   8.680   3.269  13.530
78389W        W50704  34.051  25.205   4.675
78390W        W50705  41.609  31.123  14.113
78391W        W50706  28.400  26.025  10.675
78392W        W50707  28.924   1.694   0.367
78393W        W50708  10.979  15.329   0.332
78394W        W50709  43.810  14.447   0.959
78395W        W50710  21.699  12.550  11.050
78396W        W50711  20.398  32.589  12.388
78397W        W50712  34.348  24.532  12.517
78398W        W50713  24.657   9.740   3.497
78399W        W50714  15.242  12.838   4.730
78400W        W50715  39.435  33.137   1.385
78401W        W50716  41.354  32.115   4.549
78402W        W50717   4.697  11.757  11.759
78403W        W50718  31.178   0.390   3.313
78404W        W50719  10.786  13.980   4.346
78405W        W50720  36.431  16.183  14.395
78406W        W50721  30.586  15.056   2.644
78407W        W50722  43.766  10.418  10.600
78408W        W50723  25.080  10.391  13.113
78409W        W50724  25.122  23.475  12.428
78410W        W50725  31.560   8.178  11.150
78411W        W50726   6.102  35.355   0.673
78412W        W50727   0.742  36.433   3.088
78413W        W50728  44.797  44.651  14.356
78414W        W50729  34.432  20.541   2.765
78415W        W50730  34.419  15.591   1.465
78416W        W50731   6.947  29.368  11.505
78417W        W50732   3.729   1.894   3.065
78418W        W50733  10.533  26.258  11.089
78419W        W50734  38.949  21.596  11.008
78420W        W50735  29.199  30.458  12.026
78421W        W50736  21.682   6.847  13.513
78422W        W50737  28.015  35.291  10.867
78423W        W50738  18.473  22.442   0.237
78424W        W50739  23.961  24.329  12.930
78425W        W50740  37.899  12.118   4.608
78426W        W50741  28.415  26.456  10.362
78427W        W50742  24.993  16.174  14.549
78428W        W50743  34.945   1.699   1.226
78429W        W50744  23.973   4.948   1.429
78430W        W50745  28.508  30.217  13.533
78431W        W50746  26.000  17.371   0.901
78432W        W50747  13.574   4.472  11.142
78433W        W50748  12.792  36.356   1.935
78434W        W50749   4.897  30.888   4.379
78435W        W50750  38.821  32.150  11.592
78436W        W50751  28.212  37.405   4.530
78437W        W50752  40.257  32.574  14.835
78438W        W50753  44.970   3.869  11.221
78439W        W50754  26.246  27.090  10.735
78440W        W50755  27.003  17.697   4.101
78441W        W50756  34.164   3.965  11.987
78442W        W50757  30.949  39.051   9.925
78443W        W50758  17.066  16.639   2.459
78444W        W50759  39.620  15.749  14.374
78445W        W50760  38.844  10.065  10.728
78446W        W50761  43.217  37.538   3.661
78447W        W50762  15.607  29.628   1.511
78448W        W50763  32.470  30.043  12.773
78449W        W50764  17.129  19.921   1.236
78450W        W50765  26.131  44.185  12.759
78451W        W50766   0.448  20.142   1.277
78452W        W50767  26.883   1.208   3.384
78453W        W50768  36.907  17.441   0.497
78454W        W50769  38.560  39.673  14.754
78455W        W50770  27.691  20.990  12.480
78456W        W50771  41.044  35.493   2.209
78457W        W50772  34.982  31.163  12.827
78458W        W50773  27.759  28.394  11.609
78459W        W50774  16.646  24.979   3.794
78460W        W50775   8.824   0.835  11.798
78461W        W50776   8.612  32.535   2.259
78462W        W50777  13.981  14.195  14.202
78463W        W50778   1.267  10.773  12.957
78464W        W50779  40.342  25.269   4.764
78465W        W50780  24.730   8.680  11.088
78466W        W50781  30.885  33.853   3.108
78467W        W50782  26.128  44.010   2.825
78468W        W50783  28.299  42.397   3.201
78469W        W50784  34.081   8.149  10.360
78470W        W50785  12.987  11.079   0.837
78471W        W50786  31.937  28.411   4.425
78472W        W50787  23.806  42.981  13.752
78473W        W50788  20.102  21.785  13.017
78474W        W50789  34.589  42.611  10.638
78475W        W50790  42.377  16.106  13.481
78476W        W50791  26.831  38.237   3.584
78477W        W50792  35.067   0.753   4.804
78478W        W50793  35.842   5.831  14.986
78479W        W50794   7.121  26.084   0.288
78480W        W50795  16.133  26.720   0.940
78481W        W50796  36.817  11.134  10.497
78482W        W50797  41.416   5.248  10.777
78483W        W50798  30.001  12.810  13.854
78484W        W50799  24.610   4.827  14.765
78485W        W50800  21.641  31.373   2.292
78486W        W50801  34.799  23.706   1.817
78487W        W50802   5.287  25.692  12.965
78488W        W50803  37.056  42.856  12.894
78489W        W50804  12.816  18.770  11.581
78490W        W50805  13.665  19.305  11.087
78491W        W50806  23.377  34.421   2.288
78492W        W50807  32.607  15.701  12.661
78493W        W50808  17.590  39.347  13.860
78494W        W50809  42.458  27.506   1.937
78495W        W50810  27.211  43.550  11.422
78496W        W50811  44.188  36.692   1.348
78497W        W50812  38.897  10.340   4.159
78498W        W50813   4.210   7.683  12.166
78499W        W50814  21.761  29.031   2.619
78500W        W50815  18.029  11.871   0.826
78501W        W50816  17.720  20.114   0.378
78502W        W50817  37.458   8.992   5.110
78503W        W50818  27.078  12.347   0.019
78504W        W50819  21.455  21.643   4.586
78505W        W50820   0.615   5.494  10.793
78506W        W50821   3.713   5.181  12.337
78507W        W50822  24.708  38.051  13.542
78508W        W50823  10.154   3.875  12.403
78509W        W50824  11.213  32.121  13.075
78510W        W50825   4.451  30.422  14.548
78511W        W50826  15.173   8.690   1.238
78512W        W50827  25.569  25.733  12.039
78513W        W50828  37.051   3.714   2.370
78514W        W50829  29.030  15.721   4.112
78515W        W50830   2.361  23.042   1.644
78516W        W50831  10.387  36.549  13.042
78517W        W50832  15.485   5.167   0.288
78518W        W50833  43.500  15.120   3.738
78519W        W50834  27.767  31.036   3.201
78520W        W50835  15.017  21.518   1.726
78521W        W50836  10.212  41.803  13.564
78522W        W50837   7.241  33.654   0.373
78523W        W50838  30.102  14.239   1.952
78524W        W50839  16.156   7.268  11.430
78525W        W50840  40.762  28.083   4.227
78526W        W50841  10.132  20.149  14.980
78527W        W50842  14.622  22.316   1.262
78528W        W50843   8.746  20.774  12.937
78529W        W50844  19.517  41.250   1.818
78530W        W50845  18.778   2.980  10.945
78531W        W50846  25.997  15.399   3.679
78532W        W50847  27.082  38.947  12.962
78533W        W50848  36.114   9.580  11.858
78534W        W50849   0.965  19.054   0.485
78535W        W50850  16.499   3.889  14.623
78536W        W50851  10.911   5.156   1.274
78537W        W50852  37.001  31.985  12.509
78538W        W50853  34.570   7.150  12.186
78539W        W50854  15.093  43.269   3.530
78540W        W50855  41.414  41.757   0.552
78541W        W50856   1.448   0.772   1.897
78542W        W50857  32.202   3.774   4.182
78543W        W50858  42.832  18.607   0.598
78544W        W50859  44.082   0.159  11.612
78545W        W50860  13.210  23.014   0.193
78546W        W50861  35.046  42.061  11.954
78547W        W50862  18.845   3.315  11.672
78548W        W50863  16.367  19.270  12.489
78549W        W50864  42.857   6.330   0.545
78550W        W50865  12.075  21.345  12.924
78551W        W50866   6.201  30.641   4.116
78552W        W50867  36.943   4.798   2.267
78553W        W50868  44.413  35.009   4.062
78554W        W50869   1.999  19.579  13.844
78555W        W50870  29.334   9.289   3.179
78556W        W50871   3.428  14.086   2.715
78557W        W50872  21.146  10.232   2.045
78558W        W50873   1.684  11.220  14.280
78559W        W50874  20.794  28.244   1.841
78560W        W50875   2.949   4.905  11.646
78561W        W50876  18.571  27.196  12.690
78562W        W50877  27.475   5.268  13.113
78563W        W50878  43.153  39.541  12.500
78564W        W50879  42.884  27.718  14.933
78565W        W50880  36.930  27.436  14.376
78566W        W50881  27.871  14.041  10.042
78567W        W50882  12.398  32.754  12.021
78568W        W50883  11.304   6.507  12.360
78569W        W50884  15.187   1.943   4.190
78570W        W50885  43.535  14.298   1.764
78571W        W50886  28.196   2.680  10.761
78572W        W50887   1.431  11.900   2.715
78573W        W50888  14.681  34.787   0.899
78574W        W50889  36.781   0.721   2.479
78575W        W50890  10.424  44.660   2.427
78576W        W50891  39.248  32.891   0.212
78577W        W50892  11.220   6.866   4.387
78578W        W50893  26.809  28.558   4.148
78579W        W50894  20.560  39.040   2.635
78580W        W50895  30.546  21.159   0.980
78581W        W50896   4.444  14.247  13.863
78582W        W50897  29.734  41.140   3.167
78583W        W50898  10.628  36.320   0.101
78584W        W50899   3.471   2.532   1.686
78585W        W50900  33.032   8.417  13.804
78586W        W50901  22.008  17.166   1.672
78587W        W50902  23.228  10.171   0.838
78588W        W50903   1.954  24.210   0.894
78589W        W50904  43.187  24.711  13.413
78590W        W50905  35.454  43.605  13.303
78591W        W50906  12.664  13.534  11.921
78592W        W50907  22.039  39.611   1.918
78593W        W50908  12.546  38.007  10.677
78594W        W50909   4.743  20.618  12.534
78595W        W50910  39.393  24.158   3.176
78596W        W50911  13.885  35.459   4.486
78597W        W50912  22.024  17.779  14.551
78598W        W50913   4.749   6.375  11.432
78599W        W50914  23.413   8.569   0.257
78600W        W50915  26.784  30.826   2.246
78601W        W50916   7.757   5.750  11.110
78602W        W50917  35.897  40.792   3.056
78603W        W50918  14.080  41.838   2.800
78604W        W50919  24.545  32.101   3.966
78605W        W50920  34.002  27.658   0.804
78606W        W50921   9.001  42.887  13.458
78607W        W50922  25.861   6.146  11.949
78608W        W50923  21.655  15.036  14.776
78609W        W50924   3.464  11.907  14.705
78610W        W50925   9.622  22.681  13.321
78611W        W50926   2.418  10.567   2.955
78612W        W50927  34.880   2.718  13.178
78613W        W50928  16.081  11.744   1.299
78614W        W50929  37.864  25.518  14.918
78615W        W50930   7.433   7.411  14.973
78616W        W50931  12.018   9.735   0.360
78617W        W50932   2.528  10.133  10.228
78618W        W50933  24.384   1.336   2.285
78619W        W50934  25.737   3.695   2.332
78620W        W50935  20.315   5.661  11.843
78621W        W50936  25.830   2.549  14.981
78622W        W50937  17.999   7.205  11.108
78623W        W50938   5.737   8.579   4.645
78624W        W50939  11.726  21.860  11.409
78625W        W50940   7.804  26.519   3.538
78626W        W50941   5.150   6.121  13.433
78627W        W50942  27.963  25.097   0.239
78628W        W50943  30.617  24.602   0.496
78629W        W50944  25.664  10.239   3.262
78630W        W50945  19.556   4.214  12.966
78631W        W50946  40.678  19.722  10.789
78632W        W50947  43.228  29.711  12.391
78633W        W50948  34.236  23.385   0.341
78634W        W50949  44.889   4.966  12.044
78635W        W50950  34.632   8.180  14.531
78636W        W50951  11.780   3.966   2.301
78637W        W50952  16.044  40.560  14.956
78638W        W50953  28.688  24.603   0.211
78639W        W50954  28.136  40.140  12.297
78640W        W50955  26.602  39.695  12.597
78641W        W50956   4.729  40.100   3.735
78642W        W50957  35.017  35.172  14.305
78643W        W50958  15.286  37.224  13.003
78644W        W50959  31.335   4.800  12.400
78645W        W50960  21.492  20.223   1.875
78646W        W50961  43.508  41.469  12.531
78647W        W50962  25.034  15.947   4.008
78648W        W50963  35.226   5.113   4.868
78649W        W50964  27.050  42.196  14.026
78650W        W50965   0.975  28.600   2.789
78651W        W50966  38.447  31.282  11.717
78652W        W50967  12.772   1.257  11.875
78653W        W50968  41.392   6.124  14.863
78654W        W50969   7.629   9.873  10.942
78655W        W50970  39.135  31.880  13.751
78656W        W50971   0.941   9.728   0.010
78657W        W50972  31.397   7.703   4.637
78658W        W50973  22.456  35.598  14.437
78659W        W50974  29.559  35.763   2.832
78660W        W50975   1.273  33.570   5.487
78661W        W50976  21.953  10.415  12.872
78662W        W50977  19.735  24.905  11.089
78663W        W50978  28.120   1.646   4.499
78664W        W50979  42.138  32.893  14.494
78665W        W50980   0.562  18.078  11.665
78666W        W50981  20.285   6.006  10.560
78667W        W50982   0.931   0.762   4.367
78668W        W50983  23.935  17.635  13.441
78669W        W50984  44.665  31.820  10.852
78670W        W50985  14.875  34.786   9.986
78671W        W50986  30.461  34.087  11.659
78672W        W50987  16.679   8.438  14.285
78673W        W50988   6.375  36.569   1.342
78674W        W50989  38.040  36.576  13.040
78675W        W50990  39.137  23.011   3.641
78676W        W50991  18.572   8.245   4.203
78677W        W50992  35.464   5.074  12.461
78678W        W50993   6.660  22.647  14.393
78679W        W50994  18.738  16.144  13.402
78680W        W50995  18.090   5.342  11.959
78681W        W50996  17.101  16.077  14.311
78682W        W50997  35.858  39.036   0.905
78683W        W50998  29.398   4.691   4.173
78684W        W50999  21.016  28.867  12.422
78685W        W51000   2.389  26.616  13.504
78686W        W51001  34.498   9.001   4.365
78687W        W51002   9.197   1.193  14.601
78688W        W51003  25.672  40.950   4.931
78689W        W51004  37.895   4.728  12.202
78690W        W51005   0.009  11.880  12.996
78691W        W51006  22.219  26.030   1.228
78692W        W51007  37.083  39.417   1.875
78693W        W51008  26.550   6.743   4.598
78694W        W51009  10.628  37.444   3.127
78695W        W51010  39.165  29.515  12.275
78696W        W51011  18.319  22.118   2.598
78697W        W51012  19.646  23.589   2.610
78698W        W51013  43.471  43.698   4.715
78699W        W51014  38.879  25.700  14.961
78700W        W51015  28.569  43.311   4.422
78701W        W51016   4.902  29.655  14.440
78702W        W51017  41.306  16.835   0.871
78703W        W51018  41.191   6.569  11.581
78704W        W51019  29.533  43.091   0.205
78705W        W51020  43.313  40.253   2.794
78706W        W51021  38.995  13.132  14.470
78707W        W51022  22.613  14.523   1.312
78708W        W51023  43.911  12.858  14.406
78709W        W51024  37.347   1.702   3.118
78710W        W51025  21.097   4.135   4.148
78711W        W51026  42.509  27.699  13.021
78712W        W51027  26.774  39.377   4.240
78713W        W51028  19.641  22.511   0.215
78714W        W51029   9.404   8.771  10.247
78715W        W51030  26.163  26.204  10.687
78716W        W51031  29.913  27.139   0.467
78717W        W51032   8.916  38.844   2.725
78718W        W51033  11.131   1.222   3.160
78719W        W51034   5.730  28.747  11.638
78720W        W51035  18.369   9.393  10.478
78721W        W51036  34.965   1.678  14.310
78722W        W51037  29.206   1.834  10.766
78723W        W51038  10.209  37.855   2.739
78724W        W51039  26.362   9.772   3.553
78725W        W51040  24.989   0.810   4.331
78726W        W51041  15.981   5.488  12.636
78727W        W51042   1.412  15.193   2.304
78728W        W51043  25.158  26.214  12.430
78729W        W51044  13.290  27.082  11.081
78730W        W51045   1.767  17.559   0.285
78731W        W51046   9.122   0.119  11.501
78732W        W51047  25.607  42.976  11.341
78733W        W51048  30.912  33.174  14.329
78734W        W51049   8.405  41.532   1.060
78735W        W51050  31.392  14.104  11.443
78736W        W51051   6.165   2.849   1.430
78737W        W51052  35.462  12.713   2.246
78738W        W51053  16.272  20.472   0.926
78739W        W51054   0.775  23.105  13.340
78740W        W51055   0.790  17.799  12.522
78741W        W51056  18.017   6.396  10.968
78742W        W51057  39.923  38.408   4.782
78743W        W51058  36.414  27.555  11.070
78744W        W51059   8.920  42.993  13.955
78745W        W51060   6.287  21.317   2.733
78746W        W51061   8.768  36.707   2.658
78747W        W51062  37.384   8.768   4.662
78748W        W51063  14.282   3.258  12.572
78749W        W51064   6.367  34.969   3.719
78750W        W51065  19.871  21.763   0.918
78751W        W51066  28.526  35.230  13.001
78752W        W51067  18.052  38.695  10.284
78753W        W51068  10.233  22.752   1.246
78754W        W51069  43.808  15.090  13.740
78755W        W51070  44.781  43.899  10.712
78756W        W51071  30.613  14.896  12.052
78757W        W51072  34.386  29.672   4.051
78758W        W51073   9.363  25.774  12.074
78759W        W51074   3.854  25.227  13.941
78760W        W51075  10.145  34.638  11.788
78761W        W51076  16.304  28.515   1.829
78762W        W51077  32.744  18.119   9.703
78763W        W51078  43.878  21.139   3.184
78764W        W51079  39.532  12.066  14.978
78765W        W51080  32.486  24.708  14.488
78766W        W51081   2.247  17.735   4.008
78767W        W51082  44.551  16.245  13.040
78768W        W51083  38.345  44.765   3.276
78769W        W51084  42.808  29.427  12.538
78770W        W51085  26.537   0.763   4.124
78771W        W51086   7.986  39.875  12.200
78772W        W51087  38.998  10.618  12.413
78773W        W51088  20.944   3.253  14.760
78774W        W51089  13.827  13.434   3.664
78775W        W51090  17.834  41.386  11.581
78776W        W51091   7.523  22.439  14.674
78777W        W51092  13.747  20.552  12.956
78778W        W51093  13.375  22.788  13.457
78779W        W51094   4.691  42.359   2.817
78780W        W51095  34.940   4.997  14.046
78781W        W51096  17.952  40.071  13.376
78782W        W51097   2.883  21.721   1.777
78783W        W51098   8.601  38.423   2.681
78784W        W51099  12.395  34.724   4.702
78785W        W51100   0.879  21.003   4.654
78786W        W51101   9.241  14.092   0.227
78787W        W51102   2.403   1.557   3.839
78788W        W51103  13.194  13.150   3.632
78789W        W51104  15.250  20.030   4.395
78790W        W51105   2.395   2.491  10.920
78791W        W51106  18.196  10.036  11.132
78792W        W51107  10.704  11.186   1.766
78793W        W51108  29.480  10.805   4.440
78794W        W51109  40.575  11.882   0.825
78795W        W51110   3.433  13.273  13.392
78796W        W51111  30.616   0.739   0.470
78797W        W51112  23.995  16.431   1.329
78798W        W51113   6.846  26.738   3.799
78799W        W51114  15.964  44.526   5.240
78800W        W51115  36.271  28.481  13.945
78801W        W51116  16.345  38.067   1.761
78802W        W51117  25.264  33.876  14.919
78803W        W51118   4.848   2.661  12.091
78804W        W51119  41.416  36.948   2.440
78805W        W51120  17.595  20.292  12.180
78806W        W51121  14.549  29.491  10.789
78807W        W51122  16.515  30.417   4.241
78808W        W51123  16.025  25.057  14.237
78809W        W51124  24.216  22.826  14.451
78810W        W51125  22.306  32.084  14.597
78811W        W51126   2.428  28.000  12.094
78812W        W51127  15.712  11.365   0.728
78813W        W51128   1.838  15.531  14.897
78814W        W51129  33.248   3.706  12.396
78815W        W51130  12.065  27.192  11.563
78816W        W51131   3.552  33.935  10.125
78817W        W51132  10.973  17.766   1.582
78818W        W51133  19.658  42.249   2.888
78819W        W51134  18.307  19.278  13.533
78820W        W51135   7.396  17.704  13.940
78821W        W51136  32.637  32.600   2.690
78822W        W51137  20.011  31.184  12.251
78823W        W51138  22.337  21.261  10.972
78824W        W51139  10.692  24.291   2.819
78825W        W51140   5.581   5.263  12.983
78826W        W51141  38.615  19.455   5.215
78827W        W51142   1.427  11.626   9.936
78828W        W51143   6.266  36.949  13.998
78829W        W51144  21.578  31.804   3.312
78830W        W51145   3.377   4.772   2.538
78831W        W51146  36.534  14.778   4.097
78832W        W51147   9.063  34.017  11.993
78833W        W51148  19.755  27.503   1.241
78834W        W51149  42.233  33.338   0.828
78835W        W51150  37.463  23.868   0.235
78836W        W51151  42.247  29.090  11.022
78837W        W51152  19.952  33.654  10.625
78838W        W51153  26.047  16.740  12.132
78839W        W51154  38.400  30.131   4.201
78840W        W51155   2.714  35.890  14.065
78841W        W51156  27.356  22.941  12.486
78842W        W51157  27.434   2.015   0.768
78843W        W51158  42.964   6.457  12.774
78844W        W51159  17.883  27.516   9.569
78845W        W51160  28.122  38.307   4.099
78846W        W51161  20.285  18.971   3.581
78847W        W51162  42.519  14.607   2.306
78848W        W51163  33.913   8.892  13.879
78849W        W51164  32.380  19.191   2.447
78850W        W51165  28.098  35.127  12.521
78851W        W51166  20.522   9.384  14.366
78852W        W51167   3.407   5.425  13.726
78853W        W51168   9.835  16.048   4.020
78854W        W51169   8.996  23.019   2.666
78855W        W51170   1.704  15.627   1.451
78856W        W51171  15.496  31.857  13.001
78857W        W51172   5.625  16.088   0.815
78858W        W51173  31.337  43.493   1.136
78859W        W51174  22.078  41.690  13.311
78860W        W51175  28.291  11.899   2.375
78861W        W51176  35.997   8.173  12.123
78862W        W51177   2.922  41.263  12.783
78863W        W51178   4.335  43.492   3.578
78864W        W51179  28.082  29.468  12.942
78865W        W51180  37.315  29.740  12.143
78866W        W51181   7.456   9.830   3.301
78867W        W51182   0.488  35.244  10.658
78868W        W51183   0.772  34.875   1.157
78869W        W51184  40.924  18.021  11.418
78870W        W51185  22.606   3.957   4.474
78871W        W51186   9.210  23.034  11.518
78872W        W51187   6.204  13.274  11.539
78873W        W51188  41.623  27.970   4.970
78874W        W51189  13.660  17.032  13.406
78875W        W51190  15.690  39.214   2.249
78876W        W51191  16.720  43.507  13.943
78877W        W51192  40.495   0.748  12.383
78878W        W51193  38.561  38.575  11.143
78879W        W51194   4.717   0.008   2.867
78880W        W51195  34.563  21.496  12.286
78881W        W51196  25.690   5.252  11.133
78882W        W51197   2.330  16.230   1.403
78883W        W51198  23.028  42.242  14.497
78884W        W51199  34.851   7.448   0.291
78885W        W51200  24.250  27.140   4.082
78886W        W51201  15.249  32.869  11.136
78887W        W51202  37.893  33.144   0.095
78888W        W51203  36.851  24.947   0.788
78889W        W51204   2.158  29.217   0.319
78890W        W51205  20.640   0.918   4.799
78891W        W51206  33.144  23.709  12.061
78892W        W51207  38.116  33.932  12.925
78893W        W51208  37.543   5.864   3.537
78894W        W51209   1.306  15.005  11.126
78895W        W51210  25.536  41.575  14.565
78896W        W51211  41.483   1.947  11.199
78897W        W51212  17.293  12.571   4.571
78898W        W51213   9.741   7.190   3.194
78899W        W51214  37.489  26.107   3.703
78900W        W51215  17.810  13.624  14.106
78901W        W51216  34.983  24.058   1.318
78902W        W51217  35.661  33.029   1.189
78903W        W51218  17.327  41.395  11.560
78904W        W51219   8.618  35.538   3.229
78905W        W51220  23.992  41.371  14.927
78906W        W51221  15.704   3.220   0.768
78907W        W51222  22.454   4.702   1.263
78908W        W51223  32.924   9.690   0.158
78909W        W51224  19.501  39.341   2.817
78910W        W51225   8.272  27.088  10.807
78911W        W51226  33.895  34.544   4.615
78912W        W51227  23.469  33.436   3.641
78913W        W51228   2.338  40.364  14.539
78914W        W51229  40.500  30.927   4.660
78915W        W51230  23.590  36.579   0.258
78916W        W51231  17.289  19.945  12.952
78917W        W51232  26.872  21.807   0.870
78918W        W51233   6.699  23.144  12.669
78919W        W51234  37.054  14.771   0.360
78920W        W51235  19.260  30.252   0.610
78921W        W51236   7.249  30.974   0.456
78922W        W51237  19.101  41.823  10.648
78923W        W51238  37.763  37.805   2.189
78924W        W51239  12.117  34.265  11.868
78925W        W51240  14.653  37.038   0.777
78926W        W51241  18.606  25.625  13.981
78927W        W51242   0.946  34.463   3.162
78928W        W51243   1.330  39.444  12.795
78929W        W51244  42.391  31.186  12.480
78930W        W51245  30.083  39.452  13.762
78931W        W51246  22.954  43.367   4.802
78932W        W51247  12.433   7.262   2.313
78933W        W51248  20.933  40.009  13.512
78934W        W51249   1.510  23.022  12.847
78935W        W51250  19.820   5.760  12.021
78936W        W51251   8.357  16.254  14.629
78937W        W51252  22.160  11.632   0.434
78938W        W51253  35.029  10.311   0.205
78939W        W51254  38.000   8.222  10.657
78940W        W51255   9.469  23.142  14.733
78941W        W51256  31.669  16.609   4.607
78942W        W51257  16.582  17.297   2.311
78943W        W51258  43.542  11.240   0.717
78944W        W51259  23.934  28.247  12.064
78945W        W51260   8.927  41.314  11.937
78946W        W51261   2.636   4.102  14.428
78947W        W51262   4.201  27.636  12.533
78948W        W51263  24.949   0.369   1.607
78949W        W51264  12.528  12.409  13.761
78950W        W51265  22.004   0.827   1.442
78951W        W51266   6.237   2.218   2.077
78952W        W51267  43.189  31.940   3.519
78953W        W51268  12.067  44.445  14.042
78954W        W51269  20.921   9.369   9.923
78955W        W51270  22.681  27.655  14.276
78956W        W51271  39.395  13.049  12.444
78957W        W51272   9.648  21.923   3.177
78958W        W51273  10.721  30.555  13.861
78959W        W51274  16.776   5.457   1.311
78960W        W51275  10.614  15.126  12.375
78961W        W51276  39.162  44.264   0.506
78962W        W51277  32.426  32.619   4.934
78963W        W51278  19.542  17.054   0.347
78964W        W51279  17.819  25.815  14.297
78965W        W51280  13.846  32.151  14.409
78966W        W51281  44.375  11.758  11.137
78967W        W51282  40.534  18.716  10.039
78968W        W51283  32.669  17.267   4.105
78969W        W51284  28.188  33.666   4.597
78970W        W51285  15.693  23.298   3.652
78971W        W51286   5.714  25.129   2.188
78972W        W51287  14.898   6.512   0.226
78973W        W51288  27.621  44.009   4.805
78974W        W51289  40.869  12.567   0.391
78975W        W51290  37.445  17.386   2.197
78976W        W51291  34.009   8.630  10.577
78977W        W51292  27.820  32.676  12.339
78978W        W51293  36.050  10.364  11.361
78979W        W51294  28.428  17.098   0.927
78980W        W51295  34.045  25.274  10.887
78981W        W51296   2.908  18.771  13.866
78982W        W51297  30.127  13.077  13.435
78983W        W51298  34.803   7.295  10.474
78984W        W51299  12.760  20.148   3.236
78985W        W51300  28.727  28.557   2.367
78986W        W51301  32.949   3.321  12.069
78987W        W51302  31.976  10.332   0.760
78988W        W51303   5.801  23.865   4.064
78989W        W51304  21.047  40.087   1.358
78990W        W51305  11.959  36.556   1.838
78991W        W51306  22.187  20.801  13.099
78992W        W51307  37.583  42.858  11.825
78993W        W51308  18.157  26.396   3.215
78994W        W51309  34.894  19.988   2.657
78995W        W51310  29.270  32.633   4.610
78996W        W51311  19.779  30.450  13.923
78997W        W51312  27.287  19.539   0.187
78998W        W51313  31.634  12.028  10.724
78999W        W51314  29.112  33.089   4.406
79000W        W51315  12.307  15.957  11.243
79001W        W51316  32.906  36.442   2.080
79002W        W51317   1.864  30.422  11.062
79003W        W51318  32.722  33.413   3.306
79004W        W51319  24.290  34.462  12.107
79005W        W51320   0.734  37.607   1.733
79006W        W51321  32.870  31.596  12.387
79007W        W51322  28.526   4.245   1.238
79008W        W51323  44.281  25.995   4.749
79009W        W51324  20.259  19.307   1.687
79010W        W51325  42.753  12.956   0.284
79011W        W51326  27.191  36.926  12.514
79012W        W51327  34.929  37.415   2.719
79013W        W51328   5.730  36.645  12.022
79014W        W51329  32.583  37.518   3.262
79015W        W51330  39.424  35.454  14.940
79016W        W51331  17.445  31.502  11.973
79017W        W51332   0.633   4.296  14.948
79018W        W51333  31.582  20.279  10.721
79019W        W51334  31.166  28.981   9.796
79020W        W51335  39.012  38.417   2.185
79021W        W51336   2.259  43.104  12.449
79022W        W51337   9.210   8.731   4.542
79023W        W51338   1.639  22.931  13.331
79024W        W51339   2.972  32.587   4.034
79025W        W51340  12.882  19.679   1.896
79026W        W51341  21.802   5.495  13.358
79027W        W51342  12.661  26.531  11.512
79028W        W51343  42.911  15.286   0.862
79029W        W51344  17.448  33.020  14.328
79030W        W51345   4.650  12.072  10.884
79031W        W51346  31.217  13.772   1.182
79032W        W51347  42.302   3.244  12.640
79033W        W51348  16.819  43.965   1.994
79034W        W51349  21.299   9.300   3.167
79035W        W51350   5.623  24.300   2.196
79036W        W51351  32.647   2.918  12.314
79037W        W51352  40.527  28.351  11.079
79038W        W51353  36.612  13.613  12.613
79039W        W51354  23.431  15.253  14.183
79040W        W51355   7.940  38.952   4.504
79041W        W51356  39.944  40.258  10.859
79042W        W51357  35.884  38.638   2.234
79043W        W51358  17.537  41.332   1.769
79044W        W51359  26.553  30.749   0.042
79045W        W51360  35.564  43.488   0.196
79046W        W51361   3.858  30.542   4.138
79047W        W51362  13.954  34.169  13.540
79048W        W51363  14.196  35.087   2.706
79049W        W51364  24.897  28.030   5.031
79050W        W51365  10.710  39.387   0.447
79051W        W51366  17.323  29.429   4.177
79052W        W51367   4.217  26.003   3.266
79053W        W51368  32.908   5.308  13.883
79054W        W51369  29.037  13.277   4.011
79055W        W51370  33.012  26.682   2.760
79056W        W51371  25.622  25.930  13.487
79057W        W51372  16.266  31.340  14.866
79058W        W51373  38.183  11.477   2.264
79059W        W51374  34.621  29.580  13.474
79060W        W51375  14.148  10.268  13.166
79061W        W51376  13.680  16.069  11.272
79062W        W51377  29.532  20.810  11.430
79063W        W51378   5.187   8.916   3.667
79064W        W51379  34.013   1.814   0.732
79065W        W51380   8.531  12.339   3.797
79066W        W51381  27.737  42.787   0.777
79067W        W51382   2.533  22.424   2.225
79068W        W51383  32.446  43.296   4.627
79069W        W51384  10.725  18.162   5.168
79070W        W51385  20.748  31.597   3.725
79071W        W51386  36.336   9.959  11.143
79072W        W51387   8.064   7.855   1.478
79073W        W51388  38.497  12.108  13.144
79074W        W51389   3.748   8.171   2.308
79075W        W51390  21.084  43.858  12.938
79076W        W51391  10.848  42.341  11.222
79077W        W51392  16.160  14.996   3.618
79078W        W51393  43.916  36.605  12.661
79079W        W51394  16.904   4.174  13.927
79080W        W51395  41.017  28.204  11.023
79081W        W51396  42.287   3.398   4.720
79082W        W51397  34.474   4.427   0.376
79083W        W51398  22.187   5.768   4.246
79084W        W51399   5.837  27.237  14.373
79085W        W51400  11.306  13.308   2.688
79086W        W51401  10.409  19.386   3.710
79087W        W51402   7.264  37.553   0.852
79088W        W51403  42.785  29.098   0.733
79089W        W51404  15.343  24.102   1.172
79090W        W51405  17.810  36.495  12.015
79091W        W51406  13.018  16.884   5.048
79092W        W51407  17.734  42.141   2.793
79093W        W51408  16.635  22.013  11.355
79094W        W51409  22.317  27.062   1.206
79095W        W51410  13.161  42.802   2.725
79096W        W51411  29.107   5.378   3.103
79097W        W51412  41.773  27.376  11.697
79098W        W51413  30.120  44.588  12.070
79099W        W51414  17.160  19.168   1.705
79100W        W51415  26.167  33.951  11.446
79101W        W51416  26.328   1.944  10.247
79102W        W51417  22.950  16.190  12.440
79103W        W51418   3.959  28.973   4.487
79104W        W51419   0.593  14.189  13.949
79105W        W51420   5.535  28.993   1.257
79106W        W51421  19.331   6.109   0.319
79107W        W51422   4.955  27.173   3.796
79108W        W51423  15.330  17.039   0.278
79109W        W51424  34.349  22.689  11.400
79110W        W51425  21.109  27.481  11.150
79111W        W51426   5.509  24.748   2.470
79112W        W51427   0.371  13.575   2.389
79113W        W51428  11.182  12.429  13.341
79114W        W51429  32.394  42.464   4.908
79115W        W51430  40.324  44.540   3.261
79116W        W51431  39.343  18.626  12.091
79117W        W51432  13.618  36.999   4.815
79118W        W51433  41.219  19.236   4.462
79119W        W51434  28.659  24.153  10.699
79120W        W51435   7.768  21.699   1.297
79121W        W51436  39.585   1.391   1.199
79122W        W51437  15.358   3.284  13.922
79123W        W51438  37.859  19.715   4.566
79124W        W51439  39.161  22.979   2.734
79125W        W51440  29.961  23.523  13.312
79126W        W51441   0.850  20.278   3.113
79127W        W51442  33.184   5.179   4.698
79128W        W51443  20.441  15.357   0.862
79129W        W51444   1.892  30.220  12.842
79130W        W51445  12.231  34.762   1.910
79131W        W51446   4.337  18.213  11.460
79132W        W51447  19.305  39.526  12.857
79133W        W51448  29.541  24.786   4.648
79134W        W51449  13.087  14.617  14.942
79135W        W51450  22.438  30.435  11.587
79136W        W51451  26.445  31.670  12.950
79137W        W51452   0.427  11.459   3.198
79138W        W51453  10.584  16.161   2.164
79139W        W51454  39.613  15.622   0.266
79140W        W51455  43.028  13.257   5.217
79141W        W51456  44.989  26.045   2.371
79142W        W51457  29.579  24.012  12.691
79143W        W51458  29.375  34.507   4.072
79144W        W51459  20.696  38.645  12.137
79145W        W51460   4.450  34.019   4.142
79146W        W51461  39.792  12.772  12.942
79147W        W51462  36.070   1.429  13.065
79148W        W51463  34.470  21.618   1.796
79149W        W51464  22.546  21.034  14.894
79150W        W51465  37.486   3.895  11.338
79151W        W51466  17.931  18.168   3.692
79152W        W51467  42.566   4.007  14.541
79153W        W51468  31.013  33.917  10.385
79154W        W51469  12.411  37.904   4.011
79155W        W51470   6.147  14.573  13.296
79156W        W51471  37.963  35.106  10.634
79157W        W51472  21.584  17.349  12.047
79158W        W51473   4.685   3.675  11.942
79159W        W51474  35.003  17.308  10.454
79160W        W51475  18.312  43.297   2.296
79161W        W51476  35.017  12.327   0.677
79162W        W51477   7.204   0.438  14.616
79163W        W51478  34.393   7.657  13.015
79164W        W51479  44.633  33.653   4.711
79165W        W51480  11.597  25.944   4.601
79166W        W51481  36.024  12.317  14.640
79167W        W51482  13.692  38.760  13.040
79168W        W51483  34.566  31.609   4.639
79169W        W51484  12.300  16.185   0.416
79170W        W51485  13.624  12.584  13.075
79171W        W51486  16.769  28.508  10.084
79172W        W51487  28.206   4.263  10.601
79173W        W51488  41.401  19.816   1.723
79174W        W51489  14.624  39.975  12.855
79175W        W51490  12.372  23.916   4.526
79176W        W51491  18.704  14.430  10.673
79177W        W51492  14.471  18.036  10.398
79178W        W51493  17.078  35.553  13.992
79179W        W51494  18.603  13.819  14.738
79180W        W51495  33.506  11.077   2.979
79181W        W51496  21.698  13.183   3.514
79182W        W51497  20.519   4.232   2.207
79183W        W51498  42.363  38.939   2.880
79184W        W51499   7.409  25.953  14.419
79185W        W51500  44.207  33.441  13.207
79186W        W51501  14.350  13.112  10.594
79187W        W51502  20.145  33.418  11.050
79188W        W51503  43.047  39.066  12.052
79189W        W51504  33.399  41.255  12.086
79190W        W51505   5.217  34.363   1.769
79191W        W51506  41.458   7.825   3.685
79192W        W51507  37.940  17.058   0.297
79193W        W51508  38.084  16.378  12.516
79194W        W51509  41.119  12.041  11.330
79195W        W51510  18.462  14.015   0.207
79196W        W51511  44.448  25.583   2.671
79197W        W51512  20.007  29.009  14.316
79198W        W51513  13.157  34.859  13.999
79199W        W51514   8.381  38.255   1.480
79200W        W51515  19.227  24.067  10.965
79201W        W51516   3.288  28.188   4.621
79202W        W51517   2.322  39.817   1.843
79203W        W51518  44.561   5.252  13.845
79204W        W51519  42.090   4.795  12.872
79205W        W51520   0.302  13.992   2.079
79206W        W51521  41.786   2.049  12.027
79207W        W51522  42.080  34.449  12.587
79208W        W51523  31.350  25.283   3.780
79209W        W51524  43.051   5.372   1.802
79210W        W51525  20.949   0.327   0.275
79211W        W51526  20.661  34.361   3.282
79212W        W51527  15.090  32.068  12.038
79213W        W51528   6.198  14.531   1.313
79214W        W51529  13.744  38.972   2.572
79215W        W51530  32.564  36.829   2.824
79216W        W51531   5.851  16.534  10.698
79217W        W51532  21.491  39.061   0.736
79218W        W51533  10.607  33.457   2.049
79219W        W51534   8.820  37.971   1.665
79220W        W51535  38.525  35.015   3.658
79221W        W51536  41.275  43.332   3.364
79222W        W51537  14.260  31.606   4.670
79223W        W51538  23.975  26.153   4.848
79224W        W51539  17.986  40.103  11.132
79225W        W51540  33.526  42.039  14.962
79226W        W51541   0.045  40.382  11.105
79227W        W51542  24.007  26.251  12.940
79228W        W51543  31.900  21.306   0.759
79229W        W51544   3.863   0.701   2.578
79230W        W51545  12.816  36.450   0.221
79231W        W51546  10.171  38.357   1.811
79232W        W51547  21.545  43.260  12.474
79233W        W51548  14.278  29.398   3.713
79234W        W51549   7.049  35.563  14.742
79235W        W51550  23.969  31.333   0.322
79236W        W51551  15.652  13.046  13.858
79237W        W51552   1.927   1.567  14.739
79238W        W51553  39.355  39.786   0.903
79239W        W51554  35.413  43.974   0.722
79240W        W51555  26.205  40.095  12.114
79241W        W51556   1.988   9.888  13.931
79242W        W51557  43.747   6.846   4.703
79243W        W51558  40.993  31.972  10.675
79244W        W51559  15.648  20.223  13.614
79245W        W51560  31.066   4.182   0.244
79246W        W51561  26.781  14.876  11.001
79247W        W51562  19.694  43.648   0.272
79248W        W51563  15.391  22.370   2.184
79249W        W51564  36.347  33.870  13.658
79250W        W51565  33.316   6.840  11.544
79251W        W51566  20.715  35.039   0.506
79252W        W51567  16.740  29.401  11.571
79253W        W51568  15.798   6.340   4.302
79254W        W51569  16.228  42.113   2.926
79255W        W51570  22.653  16.167  14.609
79256W        W51571   1.918  43.555  12.324
79257W        W51572   2.343   5.317  10.567
79258W        W51573  37.610  25.897   2.751
79259W        W51574   0.878   7.597   1.172
79260W        W51575  11.222  36.585   1.777
79261W        W51576  13.365  15.224   1.794
79262W        W51577  22.046   3.281  12.525
79263W        W51578  38.345  13.709  11.888
79264W        W51579  11.319  16.312   0.717
79265W        W51580  14.406  40.593   1.465
79266W        W51581  38.856  28.432  13.878
79267W        W51582  23.701  33.099  12.094
79268W        W51583   2.310   8.245   0.845
79269W        W51584  37.074  14.872   2.802
79270W        W51585   6.369  28.469   2.115
79271W        W51586  27.579  20.032   1.413
79272W        W51587  26.268  13.330   2.393
79273W        W51588  11.151   3.389   0.968
79274W        W51589  36.379  14.135  12.660
79275W        W51590  12.817  39.015   4.942
79276W        W51591  35.953  38.570  13.028
79277W        W51592  16.623  23.264   4.475
79278W        W51593  29.557   7.170   0.172
79279W        W51594  30.452  32.703   4.416
79280W        W51595   6.700  19.916   0.329
79281W        W51596   7.162  29.063  12.549
79282W        W51597   3.807  21.790  14.981
79283W        W51598   7.654   0.564   2.175
79284W        W51599  32.880   5.717   0.343
79285W        W51600  19.701  44.509   0.967
79286W        W51601   6.369  22.233  13.877
79287W        W51602  29.989  38.854  11.141
79288W        W51603   1.715  18.148  10.560
79289W        W51604   8.329  23.206   4.729
79290W        W51605  16.709   8.230  13.811
79291W        W51606  15.748  24.193   0.840
79292W        W51607  24.187   2.849  10.691
79293W        W51608  14.645  21.315   3.603
79294W        W51609  27.502   6.904   1.171
79295W        W51610  33.194  25.086   5.172
79296W        W51611  13.603  13.141   3.290
79297W        W51612   8.759  17.329   4.744
79298W        W51613  29.601   1.682  11.107
79299W        W51614   0.010  42.673   2.626
79300W        W51615   0.760  25.612   2.300
79301W        W51616   6.183  38.311   0.403
79302W        W51617  32.143  39.883  10.712
79303W        W51618   4.794  27.553   4.111
79304W        W51619  29.254   2.346   2.754
79305W        W51620  16.779  18.803   2.424
79306W        W51621   4.142  25.969   0.506
79307W        W51622   1.227   9.846  14.381
79308W        W51623  27.462  30.066  13.206
79309W        W51624  15.641  38.959   2.826
79310W        W51625  41.067  24.006   1.420
79311W        W51626  16.541  15.233  11.472
79312W        W51627  25.668  43.243  13.641
79313W        W51628  22.133  26.419  13.044
79314W        W51629  33.311  18.777   2.231
79315W        W51630  38.990  34.887   2.760
79316W        W51631  19.917   4.813  13.962
79317W        W51632  27.572  43.571   2.936
79318W        W51633   6.234   4.442   0.810
79319W        W51634  23.675  10.791   0.273
79320W        W51635  28.294  33.026   0.498
79321W        W51636  40.643  19.498  10.058
79322W        W51637  25.084  19.602   4.979
79323W        W51638  37.612   6.776  14.345
79324W        W51639  27.998  36.205  12.980
79325W        W51640  23.630   3.740   3.280
79326W        W51641  31.686  13.169  11.993
79327W        W51642  30.369   6.403  13.061
79328W        W51643  20.286  27.111   4.733
79329W        W51644  10.663  27.215   0.240
79330W        W51645  19.620  22.229  14.359
79331W        W51646  35.974  42.832   0.660
79332W        W51647   6.555  42.516  12.608
79333W        W51648   6.168  19.029   1.648
79334W        W51649  36.984  11.922   0.695
79335W        W51650   1.361  40.380   0.245
79336W        W51651  15.346   7.902   4.019
79337W        W51652  10.298  16.486  13.298
79338W        W51653  43.900  31.702  11.600
79339W        W51654  38.128   0.478   3.200
79340W        W51655  38.650   6.677   0.269
79341W        W51656   6.760  11.116  11.166
79342W        W51657   9.244  26.396   0.009
79343W        W51658   4.709  27.654   2.727
79344W        W51659  25.747  26.198  14.862
79345W        W51660  23.957   7.335   0.866
79346W        W51661  34.422  18.741  11.503
79347W        W51662  22.069  43.572   2.841
79348W        W51663  22.670   1.029   4.470
79349W        W51664  32.852  33.320   2.274
79350W        W51665  37.624  21.625  10.633
79351W        W51666  33.111  34.178  13.351
79352W        W51667  29.912  32.477   0.572
79353W        W51668  26.966  41.985   1.336
79354W        W51669   3.528   3.875   1.532
79355W        W51670   5.238   8.137  14.332
79356W        W51671  37.384  21.301  13.030
79357W        W51672  27.398   4.677  14.904
79358W        W51673  44.946  38.830  14.709
79359W        W51674  27.757  34.973  14.324
79360W        W51675   4.966  38.183   1.800
79361W        W51676   1.705  40.047  11.542
79362W        W51677  37.084  17.801  11.218
79363W        W51678  23.232  21.562   5.053
79364W        W51679  42.601   2.504   3.269
79365W        W51680  29.412   1.624   3.248
79366W        W51681  36.816  36.485   4.130
79367W        W51682  16.381   1.878  14.284
79368W        W51683  13.119  40.597   4.126
79369W        W51684  35.555  17.267  13.881
79370W        W51685  11.944  20.614  13.948
79371W        W51686   5.183  10.097   1.180
79372W        W51687  14.487  44.497  14.127
79373W        W51688  42.529  30.466   2.249
79374W        W51689  43.352  16.008  14.364
79375W        W51690  11.626  12.098   1.615
79376W        W51691  44.394  26.723   3.771
79377W        W51692  10.304  39.854  10.556
79378W        W51693  10.083  43.814   2.597
79379W        W51694   0.780  21.638   0.454
79380W        W51695  43.732  32.638  12.072
79381W        W51696  30.118   8.285   1.853
79382W        W51697  16.325  16.399  13.890
79383W        W51698  32.380  29.208  12.045
79384W        W51699  44.854   8.842   0.043
79385W        W51700   2.449  29.437  14.410
79386W        W51701  10.307  13.602  13.050
79387W        W51702  37.891  26.048   4.035
79388W        W51703  22.946  38.939   2.657
79389W        W51704  16.731  14.975   4.100
79390W        W51705  26.910  28.472  11.020
79391W        W51706  16.167  10.924  13.355
79392W        W51707  24.041   3.953   3.036
79393W        W51708   3.391  14.648   2.216
79394W        W51709  30.580   2.256   4.720
79395W        W51710  33.299  34.524   3.115
79396W        W51711  36.995  42.019   1.684
79397W        W51712  15.680  20.738  12.033
79398W        W51713  32.151  18.835   0.008
79399W        W51714  35.888  18.846  13.559
79400W        W51715  10.233  42.606  10.244
79401W        W51716  29.990  14.216   4.237
79402W        W51717  12.785   8.446   1.322
79403W        W51718  42.437  37.395   3.098
79404W        W51719  26.463  28.374  11.917
79405W        W51720   4.924  13.830  13.085
79406W        W51721  22.558  39.413  12.762
79407W        W51722  41.282  24.238   1.866
79408W        W51723  29.606  32.382   2.737
79409W        W51724  40.343  33.114   4.388
79410W        W51725   3.708   1.425   3.305
79411W        W51726  20.521  32.587   4.136
79412W        W51727  18.015  43.619   3.195
79413W        W51728  14.439   0.231  13.414
79414W        W51729   9.819   8.455  14.312
79415W        W51730  25.366   5.391   3.815
79416W        W51731   0.811  41.463   1.748
79417W        W51732   2.916  31.543   4.169
79418W        W51733  19.475  18.676  14.265
79419W        W51734  27.118  22.212   1.135
79420W        W51735  38.038  35.304   1.359
79421W        W51736  13.195  32.892  10.354
79422W        W51737  14.862  35.101   0.433
79423W        W51738  44.823  30.615  11.424
79424W        W51739   2.253  23.551  10.451
79425W        W51740  37.118  10.225  13.649
79426W        W51741  38.360  27.468  12.186
79427W        W51742  32.643  32.433  12.533
79428W        W51743  18.133  44.436  10.500
79429W        W51744  28.056  22.317   2.764
79430W        W51745   7.820  12.281  13.918
79431W        W51746  27.432   1.254   1.575
79432W        W51747  41.122  34.094  13.542
79433W        W51748  39.325  15.662  13.942
79434W        W51749   1.451   9.891  13.876
79435W        W51750   0.098   4.026   1.829
79436W        W51751  29.667  28.541   2.300
79437W        W51752  29.001   9.568   2.881
79438W        W51753  29.548  40.599   1.281
79439W        W51754  19.253  27.107   1.876
79440W        W51755  19.518  38.448  11.222
79441W        W51756  17.194  20.618  14.801
79442W        W51757  17.281  39.021  12.058
79443W        W51758  36.478  31.093   2.479
79444W        W51759  34.895  24.844  11.344
79445W        W51760  44.687   2.732  12.788
79446W        W51761   1.232   6.127  13.398
79447W        W51762  16.240  34.888  11.120
79448W        W51763  16.101  41.830  10.650
79449W        W51764  37.526  32.507   3.840
79450W        W51765  42.908  30.383   1.319
79451W        W51766  21.819  27.137  11.168
79452W        W51767  16.493  14.936   1.847
79453W        W51768  30.350   9.427  11.159
79454W        W51769  44.885  11.422  14.997
79455W        W51770  40.775  43.389  11.159
79456W        W51771  23.431  43.802  13.791
79457W        W51772   1.669  28.655   2.166
79458W        W51773  28.117  33.867   4.128
79459W        W51774  23.120   6.662   4.256
79460W        W51775  30.882  42.520   0.344
79461W        W51776  16.504  35.839   0.290
79462W        W51777  13.602  12.860   2.346
79463W        W51778  30.671   8.303   3.722
79464W        W51779  43.970  17.760  11.996
79465W        W51780  37.415  32.973   4.078
79466W        W51781   9.176  18.632   1.014
79467W        W51782  35.465  11.026  11.729
79468W        W51783  26.543  10.539  11.667
79469W        W51784  39.934  38.635   0.546
79470W        W51785  36.406  12.291  12.110
79471W        W51786  38.670   4.225   2.806
79472W        W51787   2.807   0.942   1.209
79473W        W51788  13.276  14.447  10.945
79474W        W51789  11.943   8.781   0.371
79475W        W51790   9.669  44.510  13.519
79476W        W51791   8.728  29.494  14.719
79477W        W51792  36.481  36.515   3.642
79478W        W51793  27.144  40.089  13.744
79479W        W51794  17.763  43.315   2.283
79480W        W51795  20.091  24.999   5.031
79481W        W51796  35.997   3.110  11.926
79482W        W51797  22.100  19.580   2.251
79483W        W51798   2.255  16.184   1.898
79484W        W51799  18.806  34.207   2.878
79485W        W51800   3.195  43.837  11.034
79486W        W51801  43.055  11.872   2.291
79487W        W51802  41.340  38.533   3.180
79488W        W51803   3.905   7.859   4.572
79489W        W51804  18.605  39.739   3.254
79490W        W51805  21.837  11.348  13.627
79491W        W51806  39.306  39.815   1.633
79492W        W51807  14.144  15.172  10.548
79493W        W51808  37.485   4.275   4.129
79494W        W51809  43.828   5.413  11.407
79495W        W51810   6.722  39.084  11.252
79496W        W51811  10.682  30.152  14.513
79497W        W51812  17.169   6.194  14.413
79498W        W51813   7.625   1.791   1.591
79499W        W51814  37.897  17.182  12.971
79500W        W51815   6.936  37.992  12.592
79501W        W51816  19.813  38.558  11.607
79502W        W51817  37.053   4.218  13.850
79503W        W51818  36.318  23.486  14.548
79504W        W51819   7.200   5.971   1.951
79505W        W51820  11.806  30.990  14.528
79506W        W51821  30.968  31.345  13.189
79507W        W51822  12.427  19.488   1.730
79508W        W51823  20.175   8.727  12.862
79509W        W51824  25.958  24.809  13.536
79510W        W51825   6.932  36.515   2.182
79511W        W51826  36.821  33.478  14.506
79512W        W51827  18.609  37.389  12.551
79513W        W51828  24.724   6.903  13.820
79514W        W51829  34.021  15.540  14.412
79515W        W51830  40.857  34.043   0.527
79516W        W51831  29.018   1.943  13.295
79517W        W51832  29.358  44.661   3.121
79518W        W51833  32.089  14.290   0.011
79519W        W51834  32.078  33.381   4.615
79520W        W51835  30.022  33.325   3.945
79521W        W51836  25.865   5.873   3.289
79522W        W51837  44.993   0.677   0.386
79523W        W51838  22.243   7.280   1.971
79524W        W51839  25.951  24.643  14.455
79525W        W51840   8.300  20.369  13.678
79526W        W51841  18.353  10.729   0.431
79527W        W51842   9.795  42.220   2.415
79528W        W51843  26.089   9.396  13.349
79529W        W51844  20.512  42.549   0.718
79530W        W51845  44.400  10.278   1.020
79531W        W51846  44.957   7.388  11.127
79532W        W51847  16.562  39.370  12.135
79533W        W51848  14.150   6.259  13.821
79534W        W51849  25.618   4.471  13.969
79535W        W51850  24.511   2.003   3.542
79536W        W51851  38.401  39.366  13.458
79537W        W51852  38.854  36.217  10.659
79538W        W51853   3.705   8.703   3.730
79539W        W51854   7.235  41.733  11.236
79540W        W51855   8.143   7.902  12.514
79541W        W51856  18.326  28.723   1.866
79542W        W51857  32.903  42.074   1.523
79543W        W51858  11.920  43.730  13.922
79544W        W51859  17.275  31.961   3.811
79545W        W51860   0.819  44.339   1.938
79546W        W51861  16.683   4.772   3.900
79547W        W51862  39.026  20.861  10.335
79548W        W51863  31.583   6.685  14.015
79549W        W51864  12.161   5.261  14.301
79550W        W51865  14.720  13.696   1.844
79551W        W51866   1.290   7.833   2.583
79552W        W51867  44.394  33.778  11.003
79553W        W51868   0.940  20.256  11.348
79554W        W51869  33.839   6.629  12.522
79555W        W51870  22.619  26.658   0.412
79556W        W51871  20.064  41.627  11.605
79557W        W51872  38.534  30.595   4.433
79558W        W51873   4.150  15.075   4.547
79559W        W51874  33.096  36.939  13.863
79560W        W51875  34.125  11.545   0.933
79561W        W51876  33.326  11.402   1.324
79562W        W51877  24.535  24.200   0.791
79563W        W51878  28.551  39.999  14.407
79564W        W51879  35.067   4.218  10.579
79565W        W51880  17.617   5.312  13.692
79566W        W51881  39.298  17.841  10.614
79567W        W51882   8.676  18.452  11.462
79568W        W51883   3.258   6.237  11.676
79569W        W51884  42.973  23.926  10.657
79570W        W51885  18.573  28.304  10.730
79571W        W51886  34.288   2.194  14.520
79572W        W51887  29.517  29.571  11.687
79573W        W51888  19.706   4.956   3.310
79574W        W51889   8.175  26.001  11.575
79575W        W51890  32.451  29.867   2.724
79576W        W51891  43.336  18.804   2.248
79577W        W51892  32.042  29.207   1.615
79578W        W51893  29.166  18.691  13.914
79579W        W51894  18.942   8.701   4.210
79580W        W51895  32.424  33.680   1.309
79581W        W51896  13.684  44.857  14.510
79582W        W51897  42.489  20.622   0.738
79583W        W51898  14.155  20.501   0.296
79584W        W51899  10.263  35.115   0.338
79585W        W51900   5.464  25.929  10.540
79586W        W51901   9.767   9.136   1.703
79587W        W51902   2.094  25.209   9.903
79588W        W51903  30.656  30.798  13.428
79589W        W51904  44.981  23.824  12.102
79590W        W51905  22.700   1.554   4.301
79591W        W51906  40.287  40.550   2.675
79592W        W51907  27.179   9.861   4.088
79593W        W51908  28.388  15.809  10.695
79594W        W51909   4.219  10.468  14.487
79595W        W51910  12.733  30.127   4.356
79596W        W51911  44.008  26.514  14.494
79597W        W51912  44.389  10.222  13.947
79598W        W51913  20.141  28.155  12.075
79599W        W51914  16.230  26.666   0.408
79600W        W51915  19.144  27.357   0.896
79601W        W51916  32.820  14.619   3.885
79602W        W51917  10.868  44.358  11.524
79603W        W51918  26.233  30.842   0.500
79604W        W51919  15.425  19.907  14.082
79605W        W51920  38.901  25.718   3.266
79606W        W51921  44.577  41.412   0.212
79607W        W51922  33.408   4.412   3.457
79608W        W51923   3.153  27.603  11.478
79609W        W51924  23.119  43.344  13.730
79610W        W51925  24.050  22.801  14.974
79611W        W51926  24.977  19.566  12.799
79612W        W51927  32.163  23.735   4.147
79613W        W51928  38.170  37.543   2.833
79614W        W51929  23.472  42.818   1.400
79615W        W51930   8.422  28.971   2.405
79616W        W51931  40.588  30.001   0.833
79617W        W51932  15.864   1.462   3.223
79618W        W51933   8.265  32.927  11.956
79619W        W51934  15.490  28.442  13.390
79620W        W51935  42.184  25.713   4.898
79621W        W51936  44.185  18.721   0.346
79622W        W51937  12.085  24.179  12.387
79623W        W51938  42.849   2.848  14.154
79624W        W51939  16.315   3.369  11.658
79625W        W51940  41.848  43.490   2.398
79626W        W51941   7.712  31.936   1.962
79627W        W51942  19.283   7.489   4.877
79628W        W51943  28.194  18.270  11.354
79629W        W51944  29.976  21.542  11.583
79630W        W51945  19.295  28.716  13.439
79631W        W51946  37.434   3.846  13.878
79632W        W51947  39.242  41.524   0.416
79633W        W51948   9.305  42.850   3.164
79634W        W51949  36.915  30.706   1.837
79635W        W51950  11.623  25.511   0.338
79636W        W51951   3.956  39.821   4.100
79637W        W51952  38.951  37.682  14.165
79638W        W51953  43.190  21.658   0.720
79639W        W51954   5.331  16.090   0.285
79640W        W51955  39.809  31.522  14.992
79641W        W51956  39.529  32.800   3.241
79642W        W51957   3.772  16.494   3.313
79643W        W51958  43.613  29.154   0.294
79644W        W51959   9.836   3.598   4.088
79645W        W51960  29.501  15.347   2.240
79646W        W51961   3.733   0.012   4.100
79647W        W51962  38.909  28.619   1.250
79648W        W51963  30.432  32.019  12.925
79649W        W51964  35.226  40.780   0.578
79650W        W51965  12.787  27.127   5.331
79651W        W51966  38.271   4.472   1.339
79652W        W51967  29.455  22.895   2.793
79653W        W51968  37.384   2.083   2.448
79654W        W51969   9.291  25.009   4.693
79655W        W51970  40.225  17.729  10.757
79656W        W51971  23.808   0.002  12.509
79657W        W51972  36.497  23.274  12.030
79658W        W51973  30.656  31.588  14.926
79659W        W51974  42.381  10.771   3.049
79660W        W51975   1.800   2.497   1.014
79661W        W51976  38.347  34.378  14.878
79662W        W51977  40.728   8.193  11.298
79663W        W51978  18.278  11.679   0.377
79664W        W51979  16.122  41.899   3.813
79665W        W51980  41.336  27.888   0.002
79666W        W51981  22.920   2.684   2.679
79667W        W51982  15.531  27.075   0.340
79668W        W51983  24.090  15.799  14.301
79669W        W51984  33.513  34.621  14.906
79670W        W51985   3.043  43.390   3.284
79671W        W51986  27.704   7.400  14.539
79672W        W51987   8.345  22.622   0.286
79673W        W51988  25.772   0.063   3.178
79674W        W51989   1.470  29.412   1.393
79675W        W51990  27.087  14.053  12.019
79676W        W51991   2.683  17.722  13.435
79677W        W51992  21.248  21.723   0.618
79678W        W51993  26.763   1.696   3.190
79679W        W51994  11.166  39.866  12.863
79680W        W51995  17.625   1.702   3.548
79681W        W51996  14.874  29.110   1.716
79682W        W51997  29.905  40.552  13.079
79683W        W51998  11.186   7.794   3.909
79684W        W51999   2.026   1.590  11.894
79685W        W52000  14.639  38.133   4.115
79686W        W52001  38.296  35.294   0.792
79687W        W52002   3.158  41.199  11.665
79688W        W52003  18.446  30.681  11.484
79689W        W52004   5.388  11.111   1.356
79690W        W52005  18.553  15.698  14.874
79691W        W52006   3.244  42.283  12.930
79692W        W52007  27.381   8.083   1.935
79693W        W52008  20.563   7.650   2.779
79694W        W52009  20.262  14.334  14.819
79695W        W52010  27.875  16.092   9.666
79696W        W52011  31.609  21.875  12.515
79697W        W52012   3.452  13.159   5.056
79698W        W52013   1.120  22.994  11.533
79699W        W52014   5.861  31.587  12.970
79700W        W52015  32.952  32.963   0.922
79701W        W52016  44.477  37.335   1.248
79702W        W52017  31.352  14.856   0.072
79703W        W52018  42.276  16.739   4.684
79704W        W52019   0.935  44.790   3.718
79705W        W52020  42.422  35.585  10.968
79706W        W52021  31.011  37.858   3.168
79707W        W52022  30.962  19.856   4.145
79708W        W52023  18.836  11.386   3.228
79709W        W52024  33.446  42.499   2.798
79710W        W52025  13.424  18.794  10.131
79711W        W52026  41.540  11.338   3.172
79712W        W52027  36.616  25.334  11.833
79713W        W52028  33.093   0.518  13.165
79714W        W52029  18.639  22.467  13.030
79715W        W52030  38.068  16.916  12.491
79716W        W52031   7.233  16.753  11.156
79717W        W52032  23.390  33.814  10.771
79718W        W52033  40.960  44.480  11.311
79719W        W52034  30.217  35.899   4.454
79720W        W52035  40.208  11.670   4.079
79721W        W52036  38.276  34.590   4.519
79722W        W52037  29.070  17.112   0.451
79723W        W52038  35.304  10.803   0.867
79724W        W52039  33.948  14.089   3.510
79725W        W52040  39.705  27.662  10.837
79726W        W52041  36.395  27.201   0.917
79727W        W52042  11.777  19.589   1.869
79728W        W52043  44.917   4.968  14.542
79729W        W52044  38.776   0.023  11.734
79730W        W52045   9.073  23.555   2.677
79731W        W52046  30.989  10.965   1.784
79732W        W52047  14.213  16.812  11.290
79733W        W52048  14.134  44.821  10.405
79734W        W52049   8.233  20.335   3.081
79735W        W52050   8.380  31.352   0.253
79736W        W52051  26.591  43.407  12.095
79737W        W52052  40.853  39.896  11.904
79738W        W52053  29.042  13.803   4.176
79739W        W52054  21.536  22.276  11.840
79740W        W52055  39.042   5.958   1.343
79741W        W52056   2.865  36.906   3.414
79742W        W52057  26.947  28.727  13.307
79743W        W52058  34.490  40.719   5.012
79744W        W52059   7.724  29.601   1.206
79745W        W52060  15.447  31.426   0.354
79746W        W52061   0.807  30.201  10.595
79747W        W52062  14.737   4.867  13.307
79748W        W52063  29.687  44.496   4.114
79749W        W52064   4.033  39.887   2.812
79750W        W52065   1.366  34.430  13.914
79751W        W52066  30.853  13.322  13.043
79752W        W52067  30.563  16.339   1.261
79753W        W52068  25.521  35.309   3.602
79754W        W52069  37.092  42.622  14.440
79755W        W52070  12.885  16.941   4.048
79756W        W52071   9.781  42.925   1.948
79757W        W52072  24.977  35.271  11.180
79758W        W52073  40.623  26.547  11.567
79759W        W52074  14.321   3.186  11.123
79760W        W52075   5.150  43.403   2.269
79761W        W52076  20.063  14.112  11.214
79762W        W52077  21.490   2.431  14.736
79763W        W52078  30.479   1.853   4.368
79764W        W52079  20.021   7.516   0.796
79765W        W52080  25.808  29.429   4.354
79766W        W52081  42.828  16.095   1.434
79767W        W52082  26.681  36.537  13.835
79768W        W52083  18.772  36.394   4.208
79769W        W52084  44.797   8.294  10.707
79770W        W52085  29.053   6.327   3.782
79771W        W52086   6.861   9.247   3.380
79772W        W52087   6.995  14.418   1.717
79773W        W52088   5.818  39.582  10.527
79774W        W52089  38.388  21.130   1.677
79775W        W52090   4.717  40.413  14.859
79776W        W52091  18.112  20.009  10.898
79777W        W52092  19.679  27.146  14.503
79778W        W52093  31.692   8.275   2.686
79779W        W52094   7.883   9.426  11.105
79780W        W52095  36.412  32.515  12.494
79781W        W52096   0.265  29.978  14.468
79782W        W52097  24.034  24.615   2.157
79783W        W52098   3.420   0.454  14.381
79784W        W52099   4.784  20.490   2.002
79785W        W52100  44.785  13.309  13.362
79786W        W52101   1.127  19.169  11.552
79787W        W52102  36.859   0.410   0.834
79788W        W52103  36.606  32.068   2.642
79789W        W52104  33.146  17.768  12.879
79790W        W52105   0.167  32.110  14.670
79791W        W52106  38.466  43.951   2.738
79792W        W52107  15.767  16.032  11.958
79793W        W52108  43.803  43.041  14.026
79794W        W52109  12.322  35.182  11.931
79795W        W52110  43.441  39.825   4.379
79796W        W52111   9.241  33.145  11.514
79797W        W52112   4.804  38.283   3.405
79798W        W52113  16.737   2.721   2.558
79799W        W52114   2.102  13.738   4.439
79800W        W52115   4.552  44.719   3.255
79801W        W52116  26.211  29.752   4.294
79802W        W52117  20.163   7.934   1.780
79803W        W52118  30.977  29.579   4.482
79804W        W52119  16.606  26.156  11.405
79805W        W52120  42.956  37.390   1.342
79806W        W52121  11.825  15.534  11.901
79807W        W52122   5.321   5.719   2.255
79808W        W52123  19.043  44.274  10.040
79809W        W52124   9.165   5.229   3.672
79810W        W52125  24.233   6.799  13.631
79811W        W52126   1.493  10.846  13.943
79812W        W52127  20.034  40.595   4.663
79813W        W52128  34.703   7.958  10.975
79814W        W52129  38.884  18.310   0.048
79815W        W52130  11.776  30.577   0.735
79816W        W52131  20.703  21.978  13.869
79817W        W52132  37.997   7.050  12.395
79818W        W52133  29.092  29.079  12.226
79819W        W52134  12.361  42.315  13.377
79820W        W52135   3.314  40.572   1.245
79821W        W52136   7.443  33.166  11.535
79822W        W52137  43.860  16.787   1.683
79823W        W52138  28.803  41.724   2.762
79824W        W52139  20.674  38.360  11.734
79825W        W52140  40.791   1.868   0.451
79826W        W52141  17.252  41.800   0.846
79827W        W52142   1.270   6.675  11.121
79828W        W52143  25.044  26.994  14.246
79829W        W52144  16.561  13.722   2.792
79830W        W52145   9.233  13.603   2.656
79831W        W52146  37.617  18.201  10.603
79832W        W52147  43.569  33.280  10.140
79833W        W52148  35.144   4.942   0.057
79834W        W52149   4.980  18.332   1.861
79835W        W52150  35.438  10.666   1.699
79836W        W52151  40.525  25.058   0.221
79837W        W52152   8.813  40.860   0.012
79838W        W52153   4.148  13.668   2.869
79839W        W52154   1.716  34.090   4.221
79840W        W52155   0.986  43.503   0.455
79841W        W52156  34.434  38.600  14.323
79842W        W52157  42.465  32.842   0.864
79843W        W52158  31.639  11.278   1.502
79844W        W52159   8.486  21.731   1.853
79845W        W52160  28.423   0.045  12.371
79846W        W52161  16.127  13.130   0.491
79847W        W52162  25.394  31.623  14.855
79848W        W52163  41.547  16.206  14.398
79849W        W52164  15.413  36.702  11.215
79850W        W52165  19.058  38.344   5.472
79851W        W52166  30.168   1.535  13.138
79852W        W52167  10.860   7.598  11.679
79853W        W52168  23.384  40.350  11.658
79854W        W52169  14.665  21.587  12.189
79855W        W52170   1.777   1.186   3.221
79856W        W52171   6.132  42.877  10.295
79857W        W52172   2.048  27.642  12.009
79858W        W52173  15.397  40.809   3.651
79859W        W52174  23.281  35.906   2.669
79860W        W52175  31.669  18.611  11.939
79861W        W52176  41.786  29.185  14.871
79862W        W52177  44.703  37.995   3.407
79863W        W52178  14.631  37.578  14.330
79864W        W52179  30.237   0.971  12.010
79865W        W52180  31.367  14.630   2.106
79866W        W52181  34.088  42.906   1.263
79867W        W52182   2.904  35.857  13.598
79868W        W52183  27.300  35.022  14.525
79869W        W52184  37.909  30.032   2.930
79870W        W52185   0.713  24.460  11.980
79871W        W52186  29.040  40.756  13.428
79872W        W52187  36.510  42.435   4.650
79873W        W52188  43.229  43.854  10.738
79874W        W52189  16.243  22.777  10.875
79875W        W52190  10.630  35.587  12.982
79876W        W52191  40.784   8.270   0.221
79877W        W52192  17.264  38.409   3.266
79878W        W52193  28.290  39.998  11.258
79879W        W52194   7.224   4.290  14.716
79880W        W52195  36.346   9.712   3.703
79881W        W52196  34.473   2.476  12.882
79882W        W52197  42.605  30.241  14.989
79883W        W52198   4.176  21.778  11.417
79884W        W52199   5.915  28.264  14.472
79885W        W52200  11.291  11.205  13.958
79886W        W52201   2.433  41.828  10.749
79887W        W52202   0.940  40.479  13.037
79888W        W52203  12.042  21.775  13.934
79889W        W52204  10.375   8.284   4.623
79890W        W52205  23.229  26.983  10.660
79891W        W52206  34.902   7.927   2.812
79892W        W52207  44.849  16.324   1.339
79893W        W52208   8.954  35.386  14.130
79894W        W52209  25.691  44.854   4.931
79895W        W52210  29.477  36.450  11.489
79896W        W52211  22.446  38.866   1.772
79897W        W52212  42.524  10.816  10.720
79898W        W52213  10.081  33.031  14.253
79899W        W52214  33.622  18.623   3.685
79900W        W52215  22.803  18.776   5.023
79901W        W52216  40.273  31.983   1.219
79902W        W52217  17.801  21.253  13.767
79903W        W52218  44.212  31.820   3.567
79904W        W52219  17.453  22.268   2.292
79905W        W52220  26.923  35.392   2.132
79906W        W52221  40.561  34.574   2.274
79907W        W52222  14.608  43.091   3.565
79908W        W52223  13.196  21.608  11.634
79909W        W52224  38.485  35.867   2.134
79910W        W52225  33.593  26.094   2.121
79911W        W52226  27.428   9.479  11.418
79912W        W52227   0.256  10.866  12.777
79913W        W52228  12.716  31.574   4.679
79914W        W52229  38.975  30.617   3.657
79915W        W52230   9.545  25.698   3.442
79916W        W52231  10.323  14.871   1.674
79917W        W52232  11.243  11.108   3.310
79918W        W52233   0.155  44.563   2.675
79919W        W52234  20.753  31.452  12.815
79920W        W52235  21.101  43.579   4.596
79921W        W52236  33.006  15.719  10.738
79922W        W52237  13.233  37.398   1.349
79923W        W52238  18.255  44.086   3.214
79924W        W52239   4.496  12.139   0.902
79925W        W52240   0.861  17.802   3.615
79926W        W52241  11.904  24.069  10.295
79927W        W52242  22.774  36.877   1.854
79928W        W52243  37.833  39.062   4.766
79929W        W52244  28.445  40.440   0.308
79930W        W52245  36.102  33.629  12.513
79931W        W52246  22.475  11.341   3.583
79932W        W52247   0.511  18.030  12.164
79933W        W52248  17.342  32.478   2.477
79934W        W52249  15.263  10.384  13.458
79935W        W52250  37.899  40.473  11.576
79936W        W52251  15.766  42.804   4.677
79937W        W52252  26.012   3.044   5.014
79938W        W52253  28.926  28.386   3.764
79939W        W52254   1.484  15.250  11.548
79940W        W52255  12.212  44.040   0.025
79941W        W52256  17.158  22.504   0.588
79942W        W52257  11.392  44.790  12.834
79943W        W52258  32.584  14.980   3.627
79944W        W52259   9.576   3.856  10.356
79945W        W52260  44.476  35.309  13.480
79946W        W52261  34.941  27.010  13.353
79947W        W52262   2.955  21.010   3.699
79948W        W52263   1.150  21.889   3.629
79949W        W52264  34.821  35.986   0.117
79950W        W52265  10.193  30.158   3.186
79951W        W52266  12.451  22.372   1.066
79952W        W52267  40.951   8.152  13.388
79953W        W52268  24.892  16.171  13.999
79954W        W52269  32.193  17.209  11.597
79955W        W52270  23.113   5.701   0.050
79956W        W52271   8.663  32.058  13.990
79957W        W52272  22.109   1.912  14.944
79958W        W52273  21.572   4.961  12.046
79959W        W52274  25.130   9.749  13.391
79960W        W52275  23.152   6.457  13.763
79961W        W52276  25.702   6.283   0.286
79962W        W52277   6.420  20.017   1.417
79963W        W52278  29.203  38.801   0.229
79964W        W52279   3.713   5.429   1.778
79965W        W52280   9.457  20.654  11.519
79966W        W52281  23.487  28.034  13.234
79967W        W52282  10.555  30.600   0.235
79968W        W52283  14.794  11.372   2.234
79969W        W52284   9.358   6.913   1.488
79970W        W52285  12.027  37.430   0.439
79971W        W52286  25.224  11.777   1.366
79972W        W52287  14.755  32.399   1.528
79973W        W52288  10.828  37.540   4.053
79974W        W52289   2.940   4.074   4.198
79975W        W52290   1.415   9.756   3.704
79976W        W52291  37.970   5.597   3.708
79977W        W52292   9.880   2.040   0.846
79978W        W52293  29.437  30.430  12.513
79979W        W52294  26.727  11.245  10.964
79980W        W52295   3.981  27.666   0.385
79981W        W52296  28.454  36.826  13.648
79982W        W52297   9.593  11.245   4.785
79983W        W52298   4.854   0.305   0.380
79984W        W52299  30.469  37.542  12.768
79985W        W52300  12.915  14.042   4.221
79986W        W52301   2.371  23.719   2.843
79987W        W52302  10.007  23.378  13.669
79988W        W52303   0.453  16.867   4.347
79989W        W52304   1.976  10.170   0.335
79990W        W52305   8.683  14.186   1.635
79991W        W52306  37.536   3.742  13.349
79992W        W52307  24.625   4.495   4.214
79993W        W52308  35.977  12.357  12.417
79994W        W52309  39.489  38.986   4.808
79995W        W52310  25.190  11.310   4.270
79996W        W52311  25.071  29.903  14.537
79997W        W52312  36.976  37.806   3.378
79998W        W52313  41.287  23.613   4.636
79999W        W52314  35.081  36.864  11.130
80000W        W52315  19.195  10.445   0.397
80001W        W52316   9.695  32.650   1.301
80002W        W52317  35.099   4.954  11.036
80003W        W52318  29.879  22.726  11.147
80004W        W52319   1.221  35.596  13.313
80005W        W52320  33.196  43.009  10.578
80006W        W52321  22.094  22.314  12.857
80007W        W52322  20.314   8.221   4.366
80008W        W52323  15.676  25.125   1.856
80009W        W52324  41.547   4.800  14.906
80010W        W52325  41.600  13.771  14.065
80011W        W52326   8.029  23.196   1.143
80012W        W52327  27.360   3.459  14.581
80013W        W52328   8.280  33.024   1.036
80014W        W52329   8.320  23.265  10.531
80015W        W52330   6.533  43.737   0.093
80016W        W52331  16.797  33.133  14.679
80017W        W52332   8.816  41.353  13.878
80018W        W52333  27.634   3.614   3.360
80019W        W52334   8.451  22.627  14.756
80020W        W52335  29.070  36.922   3.572
80021W        W52336  29.686  18.750  13.912
80022W        W52337  28.173  30.853   3.832
80023W        W52338  42.487   0.893  10.931
80024W        W52339  12.121  24.710  14.696
80025W        W52340  39.578  11.595  13.044
80026W        W52341  17.413   6.928  14.829
80027W        W52342  40.858  39.019   3.597
80028W        W52343  28.626  16.053  12.357
80029W        W52344  26.604  28.943  10.942
80030W        W52345  20.262  44.532   3.687
80031W        W52346  26.270  32.092  10.202
80032W        W52347   8.746  34.700   1.201
80033W        W52348   8.751  16.695  10.565
80034W        W52349  25.638   1.803  13.007
80035W        W52350  19.549  12.046  13.114
80036W        W52351   2.007  38.945  11.195
80037W        W52352  35.422  36.742   3.268
80038W        W52353  24.182  31.322  11.121
80039W        W52354  16.988  37.518  11.212
80040W        W52355   8.799   9.657  12.351
80041W        W52356  16.247  40.338   4.684
80042W        W52357  34.184  39.314   4.065
80043W        W52358  37.635  41.532   1.798
80044W        W52359  21.367  24.543  14.439
80045W        W52360  21.237  13.542  13.830
80046W        W52361  21.541  28.717  12.507
80047W        W52362  10.814  12.252  11.410
80048W        W52363   5.322  36.007  12.582
80049W        W52364   5.439  29.165  13.875
80050W        W52365  38.563  13.016   3.681
80051W        W52366  41.731   5.881   4.024
80052W        W52367   1.362  32.726   3.868
80053W        W52368  26.149  23.086  11.042
80054W        W52369  32.526  12.716   4.516
80055W        W52370   4.793  30.921  13.054
80056W        W52371  26.664  16.374  14.857
80057W        W52372  12.232  31.422   4.318
80058W        W52373  43.528   2.108  11.597
80059W        W52374  22.774  43.643  13.340
80060W        W52375   8.207  15.058  12.761
80061W        W52376  25.965   6.351  14.832
80062W        W52377  22.467  12.029  12.467
80063W        W52378  21.932  18.150   2.218
80064W        W52379   1.698  12.652  12.002
80065W        W52380  31.746  31.144   0.320
80066W        W52381  44.358  44.844  14.510
80067W        W52382  12.153  19.683   3.807
80068W        W52383  37.974   8.898  13.669
80069W        W52384   2.196  44.918  14.571
80070W        W52385  30.029  18.546  13.017
80071W        W52386   8.305  11.666   3.153
80072W        W52387   3.397  28.733   3.780
80073W        W52388  22.031  15.638   1.819
80074W        W52389  42.831   3.700   0.812
80075W        W52390  14.299  22.818  14.599
80076W        W52391   6.469  14.338  10.707
80077W        W52392  10.108  24.531  11.515
80078W        W52393   0.240  25.593   2.252
80079W        W52394  42.811  28.666   2.948
80080W        W52395  18.733  24.615  12.112
80081W        W52396  39.152  32.681   2.354
80082W        W52397   1.360  41.456   0.258
80083W        W52398  25.658  18.152   0.361
80084W        W52399  34.890  28.468  13.947
80085W        W52400   0.016  31.629  12.038
80086W        W52401   1.349  12.676   4.585
80087W        W52402  32.205  40.414   5.177
80088W        W52403   6.377  11.141   0.420
80089W        W52404  19.100  41.511   4.265
80090W        W52405  43.491  11.102  12.574
80091W        W52406  38.490  39.304  12.008
80092W        W52407  33.596  10.216   0.677
80093W        W52408  38.775   4.836   3.110
80094W        W52409  33.411  16.691   2.162
80095W        W52410  15.854  31.465  13.048
80096W        W52411  24.146   8.049   4.464
80097W        W52412  16.824  21.902   3.093
80098W        W52413  13.655  25.239   2.691
80099W        W52414  20.590   0.708  10.664
80100W        W52415   9.383  25.698   2.369
80101W        W52416  33.668  10.302  12.592
80102W        W52417  27.140  34.988   3.345
80103W        W52418  36.469  33.475   4.915
80104W        W52419  19.313  10.575  14.894
80105W        W52420  36.860   3.464   1.960
80106W        W52421  33.042   3.886   1.027
80107W        W52422  27.462   6.722   0.697
80108W        W52423  37.800  32.086   2.245
80109W        W52424  11.229  27.946   3.694
80110W        W52425   3.260   5.497  10.535
80111W        W52426  12.797  22.115  14.844
80112W        W52427  32.162   9.867  13.477
80113W        W52428  12.645  38.453   3.759
80114W        W52429  10.816  16.054  13.946
80115W        W52430  22.580   7.738   4.198
80116W        W52431  33.357  44.877  14.845
80117W        W52432  38.722  41.003  13.776
80118W        W52433   3.642  13.617   2.799
80119W        W52434   4.483  15.837  14.060
80120W        W52435   7.213  14.094  12.033
80121W        W52436   2.486  40.347  12.966
80122W        W52437  32.368  33.868  14.749
80123W        W52438  27.685  30.039   3.394
80124W        W52439  19.844  20.280  14.081
80125W        W52440  19.099  25.806  12.288
80126W        W52441  28.025  42.737  13.396
80127W        W52442  35.708  18.142   3.859
80128W        W52443  26.007  27.558  14.995
80129W        W52444  44.967  10.184   4.686
80130W        W52445   4.640  20.575  14.208
80131W        W52446  10.035  22.278   3.278
80132W        W52447  31.858  40.959  10.654
80133W        W52448   0.247  43.518  11.569
80134W        W52449  14.072  18.044   0.998
80135W        W52450  33.586  42.729  13.010
80136W        W52451  23.513   1.786  14.960
80137W        W52452  37.343   7.615  11.076
80138W        W52453  12.707  26.550   4.606
80139W        W52454  42.373  11.693   3.100
80140W        W52455  29.604  43.377  11.935
80141W        W52456   3.421   1.424   3.777
80142W        W52457  10.177   2.485  14.031
80143W        W52458  25.086  24.201   1.326
80144W        W52459  18.787  29.067  10.196
80145W        W52460   9.207  35.942  10.582
80146W        W52461  19.176  40.369  13.691
80147W        W52462   1.612  34.925  11.988
80148W        W52463  13.774  30.553   1.307
80149W        W52464  30.893   2.643  12.391
80150W        W52465   2.266  20.319   0.306
80151W        W52466  38.588  17.206  14.204
80152W        W52467  23.770   9.852  13.533
80153W        W52468  14.485  32.840  11.617
80154W        W52469   9.327  14.824   0.649
80155W        W52470  30.053  36.968  11.510
80156W        W52471  11.721  35.609  11.233
80157W        W52472  40.626   8.878   1.356
80158W        W52473  26.906  33.542   2.290
80159W        W52474   9.374  34.358  13.069
80160W        W52475  31.852  13.313   2.849
80161W        W52476  34.396   7.940  12.577
80162W        W52477  35.073  34.001   4.667
80163W        W52478  33.921  13.199  14.064
80164W        W52479  36.631   0.960   1.681
80165W        W52480  18.582  34.578   2.609
80166W        W52481  20.289  27.969   1.736
80167W        W52482  10.929  37.490  14.403
80168W        W52483  39.750  27.121  12.827
80169W        W52484  33.131  13.772  11.369
80170W        W52485   5.598  24.551  13.206
80171W        W52486   8.868  17.712   3.209
80172W        W52487  33.565  11.946   4.508
80173W        W52488   1.449  33.132  13.301
80174W        W52489   3.492  16.761  11.059
80175W        W52490   3.146   9.351   2.206
80176W        W52491   5.199  36.359   2.353
80177W        W52492  26.168  39.953  10.322
80178W        W52493  29.776  34.412   2.781
80179W        W52494  27.251  32.475  10.055
80180W        W52495  35.818   6.284   3.215
80181W        W52496  33.086  10.367  12.959
80182W        W52497   8.825  43.948   2.594
80183W        W52498  32.163   6.359   1.208
80184W        W52499  32.537  28.518  14.294
80185W        W52500   7.307   3.416   4.374
80186W        W52501  41.035   3.951   0.172
80187W        W52502  11.698  29.049  14.225
80188W        W52503  25.977   4.607   5.101
80189W        W52504  28.965  31.419  10.697
80190W        W52505   7.165   6.990  13.258
80191W        W52506  20.167  14.384   2.856
80192W        W52507  27.801   7.472   0.065
80193W        W52508  36.171  26.056  12.437
80194W        W52509   3.396  15.248  14.321
80195W        W52510  35.417   0.646  11.425
80196W        W52511  23.736  37.180   4.769
80197W        W52512  29.105  31.202   1.372
80198W        W52513  34.086  29.516  13.832
80199W        W52514  15.264  17.144   3.631
80200W        W52515  20.711  23.489  13.100
80201W        W52516  44.200  30.031   0.487
80202W        W52517  19.736  20.995  11.677
80203W        W52518  37.281  23.503  11.690
80204W        W52519  27.225  31.944  14.767
80205W        W52520   1.945   0.083   1.303
80206W        W52521  12.627  21.933   4.686
80207W        W52522   1.498  16.194   0.553
80208W        W52523  24.223  11.557   2.328
80209W        W52524   3.456  39.081   0.464
80210W        W52525   6.341  32.094   3.625
80211W        W52526  12.480  37.570  10.985
80212W        W52527   4.204  31.602  13.385
80213W        W52528  31.557  32.450  12.590
80214W        W52529  44.259  33.988   1.989
80215W        W52530  31.888  35.555   0.851
80216W        W52531  19.238   7.116  13.625
80217W        W52532  17.999  12.133   0.381
80218W        W52533  41.349  22.276   4.283
80219W        W52534  36.569  22.230  13.826
80220W        W52535   5.692  30.489   3.214
80221W        W52536  31.397  21.492   0.271
80222W        W52537  31.823   9.770   1.987
80223W        W52538  38.850   6.842  14.802
80224W        W52539  32.512  10.646  10.390
80225W        W52540   1.065  32.977  13.633
80226W        W52541  27.656  10.971  12.139
80227W        W52542  13.340  41.326   0.733
80228W        W52543   7.695  23.506   3.929
80229W        W52544  10.214  29.960   4.120
80230W        W52545  33.489  39.073   0.909
80231W        W52546   4.692   8.143   3.188
80232W        W52547  27.031  33.390   1.774
80233W        W52548  37.724   9.370  11.200
80234W        W52549  18.617   0.380  11.904
80235W        W52550  27.917  18.680  11.572
80236W        W52551  43.963  38.971  10.082
80237W        W52552  41.847  38.073   1.224
80238W        W52553  25.561  15.125   0.341
80239W        W52554   0.459   2.896   3.631
80240W        W52555  39.011  23.635   9.782
80241W        W52556  36.030   2.390  13.382
80242W        W52557   4.395  38.017  13.965
80243W        W52558   0.050  13.339  12.393
80244W        W52559   1.511   4.658  13.781
80245W        W52560   5.987  19.222  14.319
80246W        W52561  42.400  32.932  11.164
80247W        W52562  28.023  23.735   4.398
80248W        W52563  12.464   9.745   0.086
80249W        W52564  41.295  32.425   1.887
80250W        W52565   8.620  28.606   3.234
80251W        W52566  24.759   1.472  11.039
80252W        W52567  43.939  32.522  11.119
80253W        W52568  16.764  26.757   0.450
80254W        W52569   1.376  28.720  14.888
80255W        W52570  38.447  11.881  14.478
80256W        W52571   0.387  44.052   2.752
80257W        W52572  23.312  16.526   4.121
80258W        W52573  28.652  19.240   0.696
80259W        W52574  38.959  15.149   3.512
80260W        W52575  14.882   4.620  12.370
80261W        W52576  20.108   4.298  13.900
80262W        W52577  33.114   3.894  11.937
80263W        W52578  25.962  22.773   0.810
80264W        W52579  19.743   3.915  11.212
80265W        W52580  39.474  36.805   2.326
80266W        W52581  44.486  15.715   5.130
80267W        W52582  35.479  26.786   3.238
80268W        W52583   7.417  26.080   0.722
80269W        W52584  10.942  21.108  11.587
80270W        W52585  28.372   5.820  14.126
80271W        W52586  18.327  38.635  12.355
80272W        W52587  32.078  43.752   3.392
80273W        W52588  16.358   7.151   4.500
80274W        W52589  35.833  35.072   0.705
80275W        W52590  44.819  43.016  13.165
80276W        W52591  43.293  11.945  12.164
80277W        W52592  25.202  10.417   0.483
80278W        W52593   6.226  35.178  12.582
80279W        W52594   7.398  18.347   2.647
80280W        W52595  23.161  12.229  10.747
80281W        W52596   0.761  44.720  14.788
80282W        W52597  20.184  13.313   1.302
80283W        W52598  12.370   2.896   2.192
80284W        W52599  27.135   8.759   1.416
80285W        W52600  41.517  16.034   2.733
80286W        W52601  34.937  24.105   5.061
80287W        W52602  20.467  43.797  11.022
80288W        W52603  29.949  13.683  11.715
80289W        W52604  42.049  30.117   4.338
80290W        W52605  34.602  10.612   3.750
80291W        W52606  21.218  44.434  12.955
80292W        W52607   0.208  19.147   4.676
80293W        W52608  19.689  33.375  14.369
80294W        W52609  17.117  11.884   2.729
80295W        W52610  32.421   9.249  12.074
80296W        W52611  35.787  30.135  13.378
80297W        W52612   8.309   4.022   4.587
80298W        W52613  33.302   2.137   1.437
80299W        W52614  40.505  33.360  12.460
80300W        W52615   3.847  33.810   2.136
80301W        W52616  33.593  41.280  11.108
80302W        W52617  13.174   8.704   4.482
80303W        W52618  36.501   5.294  14.724
80304W        W52619  37.794  33.934   4.206
80305W        W52620   2.971  10.444  13.827
80306W        W52621  38.049  33.476  12.648
80307W        W52622  17.892  39.062   4.153
80308W        W52623   0.761  31.874   4.259
80309W        W52624  39.374  37.939   4.832
80310W        W52625  25.852  23.707   2.748
80311W        W52626  34.942   8.756   2.933
80312W        W52627  30.033   4.430   3.412
80313W        W52628  38.390  41.907  12.937
80314W        W52629  21.679  41.322   2.309
80315W        W52630  14.648  41.834  13.566
80316W        W52631   7.873  42.396   0.203
80317W        W52632  13.989  20.963  12.612
80318W        W52633  25.117   5.950  11.628
80319W        W52634  21.657  23.581   0.958
80320W        W52635  42.909  35.565   1.851
80321W        W52636   2.334  19.499  14.225
80322W        W52637  44.952  34.961   1.281
80323W        W52638  36.882  39.608  13.867
80324W        W52639  37.883   5.235  10.444
80325W        W52640  43.917  44.817   1.721
80326W        W52641  41.839  41.835  11.200
80327W        W52642  12.835  42.802  12.347
80328W        W52643  25.137  32.135  13.038
80329W        W52644   2.343   3.899   0.187
80330W        W52645  10.283  43.328   4.678
80331W        W52646   2.292  32.545   4.546
80332W        W52647   2.812  38.476  13.781
80333W        W52648  26.010   3.543  10.581
80334W        W52649  44.909  18.307   2.762
80335W        W52650  43.555  28.853   1.359
80336W        W52651  31.511   8.221   4.051
80337W        W52652  43.130  40.109   4.663
80338W        W52653  35.118  29.216  14.042
80339W        W52654  14.332   4.197   0.856
80340W        W52655  20.665  37.956   3.014
80341W        W52656  15.944  25.548   4.062
80342W        W52657   1.440  10.374   2.889
80343W        W52658   3.797  42.997   0.917
80344W        W52659   8.717  37.452   4.574
80345W        W52660   3.337  18.649   3.849
80346W        W52661  21.047  37.807  12.562
80347W        W52662  26.967  31.227   0.801
80348W        W52663  40.540  28.917   2.468
80349W        W52664   2.860  35.859   3.581
80350W        W52665  42.987  24.575  14.496
80351W        W52666  13.452  39.254   2.937
80352W        W52667  16.771  36.274   2.711
80353W        W52668  34.592   6.909   1.301
80354W        W52669  32.120  27.162   1.738
80355W        W52670  34.929  34.020  11.318
80356W        W52671  25.633  13.513   2.790
80357W        W52672  34.227  37.509  10.089
80358W        W52673  20.478  42.284   1.794
80359W        W52674   6.747   4.190   2.780
80360W        W52675  25.438  19.110  13.422
80361W        W52676  11.831  17.726   3.750
80362W        W52677  29.984  26.997  11.937
80363W        W52678  38.803  11.135  14.232
80364W        W52679  33.060   2.015   0.597
80365W        W52680  31.551  18.680   1.616
80366W        W52681  23.196   9.160   3.772
80367W        W52682   9.179   8.464   2.254
80368W        W52683  22.676  29.677  13.422
80369W        W52684  43.473  35.024   2.242
80370W        W52685   1.269  12.141   0.324
80371W        W52686  13.173  19.573  11.189
80372W        W52687  37.893  21.572  14.838
80373W        W52688   9.401  39.954  14.339
80374W        W52689  14.721  30.664  12.573
80375W        W52690  29.556  27.705  14.512
80376W        W52691   2.413   1.361  14.786
80377W        W52692  37.687  40.136  11.199
80378W        W52693   2.755  16.128   4.755
80379W        W52694  35.646  37.072  14.049
80380W        W52695  23.766  37.784  12.061
80381W        W52696  31.942  24.685   0.867
80382W        W52697  11.822  26.499   3.677
80383W        W52698  42.065  15.701  14.376
80384W        W52699  10.103   5.660   1.541
80385W        W52700  39.751  24.569  11.397
80386W        W52701  42.239  18.819   2.253
80387W        W52702  35.333  10.138  13.558
80388W        W52703   8.399  21.252  13.791
80389W        W52704   0.905  31.015   3.394
80390W        W52705  19.752   8.254   1.815
80391W        W52706  32.220  34.408   4.691
80392W        W52707  17.260  18.662   2.625
80393W        W52708  35.806  21.247  13.436
80394W        W52709  14.597  44.696  10.175
80395W        W52710   0.952  44.377  12.616
80396W        W52711  21.652  20.827   5.284
80397W        W52712  34.543   7.402   4.320
80398W        W52713   7.425  32.432  10.759
80399W        W52714  34.600  15.794   3.576
80400W        W52715   8.602  43.834  11.401
80401W        W52716  33.696  36.148   0.817
80402W        W52717   7.504  31.048   0.020
80403W        W52718  27.147  16.738  12.857
80404W        W52719  35.424  29.555   4.115
80405W        W52720  35.594  10.851   4.617
80406W        W52721  16.045   7.308   2.886
80407W        W52722  17.158   1.476   0.475
80408W        W52723  43.390   7.168  11.071
80409W        W52724  22.056  15.050   2.317
80410W        W52725  35.923  18.720   1.839
80411W        W52726  17.306  10.151   3.359
80412W        W52727  25.867  10.688  13.482
80413W        W52728  23.884  38.776  10.445
80414W        W52729  40.735  25.732  14.929
80415W        W52730  22.598  25.079  10.676
80416W        W52731   6.509  10.506   1.495
80417W        W52732  32.029   2.549   2.053
80418W        W52733  11.660  23.452   1.714
80419W        W52734  13.991   3.982   4.240
80420W        W52735  30.438  26.080  12.013
80421W        W52736  21.721  42.838   4.167
80422W        W52737  10.675  40.673  14.756
80423W        W52738  41.388   4.519  14.337
80424W        W52739  23.245   7.353   2.324
80425W        W52740  23.708  44.190   1.668
80426W        W52741  28.458  35.471  10.663
80427W        W52742  28.868  15.828   0.928
80428W        W52743   3.972  20.254  10.554
80429W        W52744  40.947   1.013  12.313
80430W        W52745  34.056  27.575   1.801
80431W        W52746  35.344  31.384   2.298
80432W        W52747  10.622  36.647   2.890
80433W        W52748   0.059  16.152  13.197
80434W        W52749  12.340  13.173   4.577
80435W        W52750   0.468  24.241   0.491
80436W        W52751   4.891  13.907  11.672
80437W        W52752  33.061   9.722   4.604
80438W        W52753   5.390   2.472   4.656
80439W        W52754  21.747   8.273   0.368
80440W        W52755  37.245  21.578  11.568
80441W        W52756  41.903   4.830  12.052
80442W        W52757  38.313  18.684  13.126
80443W        W52758  25.750  25.787  12.995
80444W        W52759  11.773  43.030   1.628
80445W        W52760  29.517  22.195   1.009
80446W        W52761  11.692   1.516   2.751
80447W        W52762  28.944  37.045   2.728
80448W        W52763  23.053  12.353  13.451
80449W        W52764  23.029  41.605  14.714
80450W        W52765  35.253  42.581   0.326
80451W        W52766  29.542  42.304   4.708
80452W        W52767  38.534  21.147   0.660
80453W        W52768  13.588  12.986  12.394
80454W        W52769   5.363  22.993  11.531
80455W        W52770  41.115   0.633   3.650
80456W        W52771  16.588   0.451  13.764
80457W        W52772  29.138  35.430   2.698
80458W        W52773  19.130  36.501   3.373
80459W        W52774  36.941   3.011   4.389
80460W        W52775  34.024   9.245   0.805
80461W        W52776  18.521  44.937   4.127
80462W        W52777  36.098   2.732  12.261
80463W        W52778  31.460  27.690   4.365
80464W        W52779  22.471   0.828   0.301
80465W        W52780  30.382   4.445  11.578
80466W        W52781  14.360  31.388   3.097
80467W        W52782  38.373  42.370  10.598
80468W        W52783   0.474  33.953  10.344
80469W        W52784  29.385  32.406   9.800
80470W        W52785   2.472   2.846   0.726
80471W        W52786  20.689   2.187   2.693
80472W        W52787  34.572  20.056  14.959
80473W        W52788  38.351  39.103   4.037
80474W        W52789  10.755  43.960   3.206
80475W        W52790  40.789   8.176  12.012
80476W        W52791   5.914  13.765   0.294
80477W        W52792  29.168   3.759   4.200
80478W        W52793  20.029   8.898   0.953
80479W        W52794  21.546  18.042  14.590
80480W        W52795  16.107  38.500   4.599
80481W        W52796  14.153  19.150   0.183
80482W        W52797  41.397  32.636   4.565
80483W        W52798  17.836  41.562   5.240
80484W        W52799  42.235  11.351  13.007
80485W        W52800  30.042  38.248   4.886
80486W        W52801   0.247  17.114  10.912
80487W        W52802  28.936  44.811  11.540
80488W        W52803  44.229  36.873   4.049
80489W        W52804  16.745  22.758   0.366
80490W        W52805  28.386  11.602   2.824
80491W        W52806   7.737  30.122   3.158
80492W        W52807   5.796  19.117  11.529
80493W        W52808  19.206  34.866  11.961
80494W        W52809   1.705  37.538   0.733
80495W        W52810  26.589  19.882   1.537
80496W        W52811  24.447  24.695  14.136
80497W        W52812  18.691   2.468  14.328
80498W        W52813  12.942  19.640  14.983
80499W        W52814   8.207  20.255   3.598
80500W        W52815  22.692   5.547   3.714
80501W        W52816  23.502  42.539   0.004
80502W        W52817  31.151  20.747   4.746
80503W        W52818  38.826  27.210  13.249
80504W        W52819   8.068  11.171   3.102
80505W        W52820  34.989  10.815  11.988
80506W        W52821   7.582  42.967  10.740
80507W        W52822   8.243   4.928  11.409
80508W        W52823  20.800   0.460   0.785
80509W        W52824   2.789  26.259   0.849
80510W        W52825  39.544  31.128   0.769
80511W        W52826   0.636   4.078   4.077
80512W        W52827   5.895   2.190  11.979
80513W        W52828  12.850  37.798  11.934
80514W        W52829  20.917  16.033  11.513
80515W        W52830  14.658  16.558   3.692
80516W        W52831  26.080  25.681   2.460
80517W        W52832  17.499  40.572   5.403
80518W        W52833  10.390  11.870  14.389
80519W        W52834  13.280  28.916   0.844
80520W        W52835   4.931  22.461   3.678
80521W        W52836  41.734  17.599  13.157
80522W        W52837  12.539  37.147   2.403
80523W        W52838   0.478  42.024  14.792
80524W        W52839   3.158  22.730  14.715
80525W        W52840  28.323  25.442  12.054
80526W        W52841  21.555  27.667  11.426
80527W        W52842   4.753  21.789   1.467
80528W        W52843  27.342  37.596   4.950
80529W        W52844  38.330  33.034   2.173
80530W        W52845  37.963  26.202   9.776
80531W        W52846  41.847  37.971  13.569
80532W        W52847  25.637  16.143   1.479
80533W        W52848   3.831  34.145   1.685
80534W        W52849  15.333  37.851  11.020
80535W        W52850   0.426   7.760   4.708
80536W        W52851   6.532  12.107   2.054
80537W        W52852  39.574  42.767  12.926
80538W        W52853  14.125  44.468   4.569
80539W        W52854   6.539  27.458  12.409
80540W        W52855  11.270  35.141  12.169
80541W        W52856  39.997  16.283  12.431
80542W        W52857  38.004  14.183   1.996
80543W        W52858   1.838  17.079  14.975
80544W        W52859  39.716  39.484  11.607
80545W        W52860  41.953  32.408  12.844
80546W        W52861  11.756  41.341  12.565
80547W        W52862  16.346  21.007   0.812
80548W        W52863  40.770  17.132   0.893
80549W        W52864  29.140  32.847   2.278
80550W        W52865   9.915   3.028  14.428
80551W        W52866  28.417  19.456   3.349
80552W        W52867  16.758  31.807   5.172
80553W        W52868  38.423  38.596   4.139
80554W        W52869  21.170  38.569   1.262
80555W        W52870   8.359  42.822   1.514
80556W        W52871  29.816  18.179   4.350
80557W        W52872  42.554  13.164   4.943
80558W        W52873  34.392  29.147  12.496
80559W        W52874  25.155  38.355   4.551
80560W        W52875   3.530  31.942   2.321
80561W        W52876  44.197  32.675   4.156
80562W        W52877  37.926  17.954   1.603
80563W        W52878  16.770  30.654  13.879
80564W        W52879  27.555  29.969   3.893
80565W        W52880  38.515  27.293   9.904
80566W        W52881  33.946  26.642  10.676
80567W        W52882  42.555  18.625  11.167
80568W        W52883  20.909  19.504   4.713
80569W        W52884  39.085   9.774   3.621
80570W        W52885  14.952  39.988   0.839
80571W        W52886  18.753   6.202  11.561
80572W        W52887   6.396  22.630   3.252
80573W        W52888  16.216  28.963   2.742
80574W        W52889  17.451  22.555   1.015
80575W        W52890  22.039  40.959  12.556
80576W        W52891  41.357  37.086  13.267
80577W        W52892  40.409   9.183   3.038
80578W        W52893   0.124  37.763  14.896
80579W        W52894  35.620  17.560   2.213
80580W        W52895  37.872   8.819  13.168
80581W        W52896  13.865  27.115   1.938
80582W        W52897   7.347  36.045  13.851
80583W        W52898  14.714  23.411  10.512
80584W        W52899  28.174  12.613  12.402
80585W        W52900  21.769  41.938  14.922
80586W        W52901   8.602   0.947   1.258
80587W        W52902   9.660  32.556  11.403
80588W        W52903  24.613  43.962  11.126
80589W        W52904  16.841   8.804  11.528
80590W        W52905  27.460  39.076   2.394
80591W        W52906  21.829  15.271  11.552
80592W        W52907  16.798  15.035   0.982
80593W        W52908  24.802  29.479   4.040
80594W        W52909  18.817  17.718  10.364
80595W        W52910  26.947  42.484  10.719
80596W        W52911  15.732   8.816  12.960
80597W        W52912  44.173  26.598   1.909
80598W        W52913  13.728  16.304  13.914
80599W        W52914  19.606  39.487  13.316
80600W        W52915  21.587  29.381  11.973
80601W        W52916  43.631  43.884  11.564
80602W        W52917  40.850  18.536  14.374
80603W        W52918  18.522  17.265  13.843
80604W        W52919  24.675  13.633   4.252
80605W        W52920  33.013   5.537   2.793
80606W        W52921   9.497  37.579  14.412
80607W        W52922  34.792  29.404   1.354
80608W        W52923  14.120   0.055  14.755
80609W        W52924  19.454  13.897   3.305
80610W        W52925   9.472   7.632   3.187
80611W        W52926  23.429   6.770   1.188
80612W        W52927  21.110   8.151  10.407
80613W        W52928  31.868  43.508  13.159
80614W        W52929  29.299  12.045  12.134
80615W        W52930  27.953   7.237   2.823
80616W        W52931   1.013  19.321   1.482
80617W        W52932  13.203  21.568  13.642
80618W        W52933  43.317  28.497   4.090
80619W        W52934  25.523  39.502   4.647
80620W        W52935   7.184   0.886   0.407
80621W        W52936  11.837  12.264   3.571
80622W        W52937  23.456  20.064  10.683
80623W        W52938  18.832   8.878  11.648
80624W        W52939   8.955  41.841  10.712
80625W        W52940  24.217  44.290  13.842
80626W        W52941  28.991  13.732  10.693
80627W        W52942  27.053  36.351  14.430
80628W        W52943  37.556  41.032   2.241
80629W        W52944   3.223  44.193  14.885
80630W        W52945   8.778   7.294  13.047
80631W        W52946   3.481  13.194  14.534
80632W        W52947   6.482   6.323   4.615
80633W        W52948   8.667  23.059   3.729
80634W        W52949  36.501   2.778   4.142
80635W        W52950  37.783  11.189   1.943
80636W        W52951  31.712   3.448   0.951
80637W        W52952   5.134   3.269   1.062
80638W        W52953  19.151  25.901  14.900
80639W        W52954  17.799  28.647  13.436
80640W        W52955  11.078  22.094  14.306
80641W        W52956   0.703  21.689   3.436
80642W        W52957  12.948  24.711   2.330
80643W        W52958  17.331  22.935   2.680
80644W        W52959  42.940  15.408  14.944
80645W        W52960   2.805  27.129   0.347
80646W        W52961   4.893  38.029  10.663
80647W        W52962   8.760  12.790  10.675
80648W        W52963  35.618  27.399  14.752
80649W        W52964  35.386  14.019   1.836
80650W        W52965  15.640  34.428   1.810
80651W        W52966  37.900   0.938   3.239
80652W        W52967  15.965  26.240   0.221
80653W        W52968  15.068   1.284  10.581
80654W        W52969  14.948  18.705  13.930
80655W        W52970  30.069  36.957   4.798
80656W        W52971  19.577  33.935  14.291
80657W        W52972   1.240   1.320   0.471
80658W        W52973   0.513  25.543   1.800
80659W        W52974  16.248   8.700  12.902
80660W        W52975   8.577  37.975   0.295
80661W        W52976  41.013  42.844   1.826
80662W        W52977   0.818  11.939  12.988
80663W        W52978  23.565   0.724   4.384
80664W        W52979  44.044   3.893  10.723
80665W        W52980  10.890   5.018  13.803
80666W        W52981  27.765   1.300   4.334
80667W        W52982  20.772  25.161  10.200
80668W        W52983  42.041  24.035  10.664
80669W        W52984  31.077  42.361   3.710
80670W        W52985   0.107  14.360  13.869
80671W        W52986   4.312   4.677  12.834
80672W        W52987  44.731  11.091   4.401
80673W        W52988   3.214   2.906  14.238
80674W        W52989  13.576  26.766   0.409
80675W        W52990  17.800  16.311  14.856
80676W        W52991  21.102  34.451   2.123
80677W        W52992  30.665  34.158   1.830
80678W        W52993  19.206  19.549  13.457
80679W        W52994   8.723  19.925   5.173
80680W        W52995  26.137  33.890   4.210
80681W        W52996  30.133  42.388   1.933
80682W        W52997  25.078  18.745  13.798
80683W        W52998   6.417  11.174  11.965
80684W        W52999   0.936  11.924  10.678
80685W        W53000   4.784  37.224  11.718
80686W        W53001  24.192  24.440   4.075
80687W        W53002  19.677  10.829   5.585
80688W        W53003  26.977  22.018   4.181
80689W        W53004  35.486  22.713   3.789
80690W        W53005  12.859  38.314  11.922
80691W        W53006   8.819  22.961   4.651
80692W        W53007  15.885  34.881   1.810
80693W        W53008  37.743   2.448  14.970
80694W        W53009  22.959   4.892   4.712
80695W        W53010  29.906  35.900   4.925
80696W        W53011  40.461  25.941  14.170
80697W        W53012  34.441  18.009   4.267
80698W        W53013  21.649   2.336  12.053
80699W        W53014   0.660  27.204  11.754
80700W        W53015  29.056   8.863   2.237
80701W        W53016  24.450  43.813  13.848
80702W        W53017  29.064  29.418   2.575
80703W        W53018   5.517   7.661   0.906
80704W        W53019  41.540  39.381  11.193
80705W        W53020  20.605  17.740   0.839
80706W        W53021   8.189  44.625   2.290
80707W        W53022  40.941   2.427   1.241
80708W        W53023  44.205  25.158   0.856
80709W        W53024  28.113  15.024   0.483
80710W        W53025  11.085  20.441   0.920
80711W        W53026  35.395  24.216   0.314
80712W        W53027  37.518  13.903   4.074
80713W        W53028  39.392  17.742   1.339
80714W        W53029  40.380  17.683   4.509
80715W        W53030   9.182  25.670   3.814
80716W        W53031  39.407  15.254  11.619
80717W        W53032  24.308  30.389  11.966
80718W        W53033  31.019   9.817   0.716
80719W        W53034  29.728  37.591  13.592
80720W        W53035  21.184   3.540   0.339
80721W        W53036   8.784   8.349   4.567
80722W        W53037   5.721  28.482   2.704
80723W        W53038   7.656   1.928   3.811
80724W        W53039   4.830  17.069  10.947
80725W        W53040  20.115  16.680  14.276
80726W        W53041  14.324  39.855  12.071
80727W        W53042   6.831  15.545  12.046
80728W        W53043  34.902   1.361  12.927
80729W        W53044  25.617  29.278  12.585
80730W        W53045  33.537  16.660   3.311
80731W        W53046  25.888  31.978   2.921
80732W        W53047   7.906   0.883   1.823
80733W        W53048  31.600   8.869  11.603
80734W        W53049  33.425  28.507  11.617
80735W        W53050  33.927   4.390   4.253
80736W        W53051  16.277  29.880   4.772
80737W        W53052   1.359  36.161   0.891
80738W        W53053  21.206   3.838   2.930
80739W        W53054   2.518  15.636  14.301
80740W        W53055  29.376  14.060  10.605
80741W        W53056  17.303  26.853   2.269
80742W        W53057   1.954   2.337  11.168
80743W        W53058   3.722  42.421  11.978
80744W        W53059  34.116  27.887  10.694
80745W        W53060  20.447  34.994  13.573
80746W        W53061  11.818  44.844  13.156
80747W        W53062  22.643  21.812   3.316
80748W        W53063  25.450   6.640   4.230
80749W        W53064  20.274  43.791  14.885
80750W        W53065  31.014  26.074   4.325
80751W        W53066  38.873   1.463   1.775
80752W        W53067  14.514  29.478  13.827
80753W        W53068   7.631  24.995   0.626
80754W        W53069  11.719  30.468   2.397
80755W        W53070  28.038   7.290   1.846
80756W        W53071  28.104  29.644  13.452
80757W        W53072  12.116   5.317   2.304
80758W        W53073  22.839   2.765  13.392
80759W        W53074   7.212  23.170  11.971
80760W        W53075  11.183   4.972  12.543
80761W        W53076  28.901  44.198   2.524
80762W        W53077  24.190  34.388   1.369
80763W        W53078  43.282   9.427   1.230
80764W        W53079   3.514  23.231   2.585
80765W        W53080   9.626  28.132   0.009
80766W        W53081  18.478  12.601   1.921
80767W        W53082  24.666  13.784   1.011
80768W        W53083  44.969  41.277  11.630
80769W        W53084  44.192  29.510   1.429
80770W        W53085  44.713  35.513  11.079
80771W        W53086  12.088  29.224   2.385
80772W        W53087   4.061   0.756  10.652
80773W        W53088  40.283   2.424  11.855
80774W        W53089  27.878   6.268  11.937
80775W        W53090  40.281  12.597  13.041
80776W        W53091  15.838   4.014   3.132
80777W        W53092  15.694  39.526  11.040
80778W        W53093  16.770  15.475   4.218
80779W        W53094  40.063  35.044   0.254
80780W        W53095  40.885  31.070  12.354
80781W        W53096  19.586   9.131   1.391
80782W        W53097  39.040  21.863   0.722
80783W        W53098  42.764  37.294   0.704
80784W        W53099   5.863  24.793  12.354
80785W        W53100  17.258  17.347   0.697
80786W        W53101  42.921   3.253   2.756
80787W        W53102  15.975  13.663   3.383
80788W        W53103  13.331  22.180   1.502
80789W        W53104  31.376  30.178   1.639
80790W        W53105  16.343  15.980   0.396
80791W        W53106  34.952   8.185   4.265
80792W        W53107  43.389   1.786   0.237
80793W        W53108   6.431   5.307  11.596
80794W        W53109  25.153  43.757   2.485
80795W        W53110   9.684  24.610  13.470
80796W        W53111  22.995  10.962   0.047
80797W        W53112  23.098  33.035   0.893
80798W        W53113  38.009  27.981   0.420
80799W        W53114  29.218  22.115  12.064
80800W        W53115  22.237   7.760  13.372
80801W        W53116  34.458  39.866   4.711
80802W        W53117  43.358   5.215   0.409
80803W        W53118  12.320  10.929   4.184
80804W        W53119  28.082  37.589   1.647
80805W        W53120  25.220  12.771  12.843
80806W        W53121  18.729  23.007  13.182
80807W        W53122  37.394   6.814  11.570
80808W        W53123  33.422  19.854   3.170
80809W        W53124  31.861  35.123   3.258
80810W        W53125  26.722  44.809   1.964
80811W        W53126   7.374   5.050   3.221
80812W        W53127  26.199  43.428  13.495
80813W        W53128   8.789  44.941  14.665
80814W        W53129  43.896  13.125   4.696
80815W        W53130  39.968  24.656  10.571
80816W        W53131  40.715  34.732  12.804
80817W        W53132  15.991  14.044  13.901
80818W        W53133  35.777  43.983  14.767
80819W        W53134  40.992  18.012   2.148
80820W        W53135   2.903  23.562   4.596
80821W        W53136  29.116   7.378   3.945
80822W        W53137  38.294  36.652   4.083
80823W        W53138  29.166  35.984   1.913
80824W        W53139   0.903  35.882  11.576
80825W        W53140  34.913  42.231   2.857
80826W        W53141  28.727  42.383   4.117
80827W        W53142  12.295  40.548  11.646
80828W        W53143  27.345   9.505  13.149
80829W        W53144   4.804  34.577   4.106
80830W        W53145   5.416  20.778   4.167
80831W        W53146  11.706  27.404  11.892
80832W        W53147  32.615  38.055  11.845
80833W        W53148   5.464   6.216  10.907
80834W        W53149  41.767  19.684   4.015
80835W        W53150   7.454  16.202  12.496
80836W        W53151  10.996  30.889  10.823
80837W        W53152  24.023  34.602   3.093
80838W        W53153   4.254   7.839  12.643
80839W        W53154  12.320  32.391   2.832
80840W        W53155  16.652   5.630   0.852
80841W        W53156  32.466   5.410   3.716
80842W        W53157  25.510  33.874   1.023
80843W        W53158  19.303  16.039   2.325
80844W        W53159   1.276  43.358  11.617
80845W        W53160  41.859   4.697  14.233
80846W        W53161  16.674  28.920  11.683
80847W        W53162  37.535  27.432   1.916
80848W        W53163  21.835  27.381   4.844
80849W        W53164  12.246  12.718   1.952
80850W        W53165   8.852  11.697   3.286
80851W        W53166   1.176   9.334  12.068
80852W        W53167  11.639   9.805  11.876
80853W        W53168  29.182  25.022  10.791
80854W        W53169  26.489  38.766   2.410
80855W        W53170  16.749   9.371   4.631
80856W        W53171  23.668  43.422   2.273
80857W        W53172  24.195  33.709  10.362
80858W        W53173  42.649  34.641   3.204
80859W        W53174  35.997  14.286   1.214
80860W        W53175  39.324  34.665  14.154
80861W        W53176  41.804  24.177   1.902
80862W        W53177   9.212  18.607  11.557
80863W        W53178  11.586  41.859   0.642
80864W        W53179  10.876  10.894  12.529
80865W        W53180  31.098   1.939  10.718
80866W        W53181  30.023  28.696   4.595
80867W        W53182  25.873  30.398   1.249
80868W        W53183  43.450  20.690   1.777
80869W        W53184  13.211  19.086  13.833
80870W        W53185  31.677   3.127  12.833
80871W        W53186  24.314  43.979  12.488
80872W        W53187  40.466   6.056  14.819
80873W        W53188   2.849  21.844  11.542
80874W        W53189  36.397   9.286   1.400
80875W        W53190  41.318  28.716  14.447
80876W        W53191   1.319  34.872   4.193
80877W        W53192  12.401   3.353   3.218
80878W        W53193  29.890  19.116  12.978
80879W        W53194   1.697  40.894   0.786
80880W        W53195  20.121  10.911  12.862
80881W        W53196  33.449  41.297  13.017
80882W        W53197  25.724  22.394   2.411
80883W        W53198   9.300  41.528  11.648
80884W        W53199  14.120  10.750  13.835
80885W        W53200  15.179   1.874   1.166
80886W        W53201   7.176  23.447   3.740
80887W        W53202  18.520  33.559   3.268
80888W        W53203  29.084   4.043   3.323
80889W        W53204   7.839  29.573  11.879
80890W        W53205   7.086  28.604  12.301
80891W        W53206  12.236  32.932  13.531
80892W        W53207  40.267  24.457  13.858
80893W        W53208  32.397  26.189  14.328
80894W        W53209  18.843  11.197   2.660
80895W        W53210  41.632   2.813  11.878
80896W        W53211  18.705  25.528  13.126
80897W        W53212   7.468  19.883  14.935
80898W        W53213   7.300  22.673  13.841
80899W        W53214  17.489  23.476   3.640
80900W        W53215  40.502  29.632  10.678
80901W        W53216  39.079  39.508   1.295
80902W        W53217  11.167  11.426  10.579
80903W        W53218  31.657  25.747   1.413
80904W        W53219   7.192  30.404   3.653
80905W        W53220  14.758   2.232   4.236
80906W        W53221  28.511  20.165  11.499
80907W        W53222  10.729  26.813  10.675
80908W        W53223  13.241  18.944   4.866
80909W        W53224  42.452  30.670  14.746
80910W        W53225  19.269  40.089  14.963
80911W        W53226  40.234   3.208   2.316
80912W        W53227  10.272   4.682   4.724
80913W        W53228   1.350  28.148   3.703
80914W        W53229  39.965  25.590   4.128
80915W        W53230  42.475  37.084  10.994
80916W        W53231  27.151  31.982   4.141
80917W        W53232  43.539   5.429  12.205
80918W        W53233   2.180   5.217   1.817
80919W        W53234  37.363  39.354  13.850
80920W        W53235   2.818   8.318  13.784
80921W        W53236  32.197   9.677   2.430
80922W        W53237   0.408  20.532  10.877
80923W        W53238  31.048  30.861   4.148
80924W        W53239  30.058  14.304  11.173
80925W        W53240  16.148  39.611  12.876
80926W        W53241  28.209  44.276   0.251
80927W        W53242  18.605  20.266   1.008
80928W        W53243  17.408  15.705   3.803
80929W        W53244  10.334  13.390   1.645
80930W        W53245  11.785   2.945  10.511
80931W        W53246  17.827  32.946   3.218
80932W        W53247  16.588   8.670   2.852
80933W        W53248  18.013  10.794   4.628
80934W        W53249  14.672  13.069   0.462
80935W        W53250  29.641   3.906   0.285
80936W        W53251  13.115  27.503   1.816
80937W        W53252  27.938  42.524  13.904
80938W        W53253   2.666  40.478   3.916
80939W        W53254  28.514   3.485   0.950
80940W        W53255  30.358   4.993  12.496
80941W        W53256  32.252  30.745  10.636
80942W        W53257   4.364  28.080   4.696
80943W        W53258  35.526  43.336   3.886
80944W        W53259  39.550   1.643   4.631
80945W        W53260  39.503  29.571  13.913
80946W        W53261  24.209  12.316   2.738
80947W        W53262  39.430  28.106  10.700
80948W        W53263  10.080  13.360  14.021
80949W        W53264  10.844  39.360   4.614
80950W        W53265   8.165  20.282   2.202
80951W        W53266  26.049  42.841   2.019
80952W        W53267  39.300  25.570  11.502
80953W        W53268  18.693  25.366  12.636
80954W        W53269  37.080  22.729   4.242
80955W        W53270  23.806  29.528   4.211
80956W        W53271  17.138   4.375  14.357
80957W        W53272   2.936  22.265  14.854
80958W        W53273  39.847  11.298   4.180
80959W        W53274  23.767  34.997  11.699
80960W        W53275  20.216  26.322  13.794
80961W        W53276  11.677  15.711  14.805
80962W        W53277  38.929  11.246  12.862
80963W        W53278   1.266  13.697   2.371
80964W        W53279  26.386  16.794   3.645
80965W        W53280  19.688   0.967  10.446
80966W        W53281  10.168   4.796  13.371
80967W        W53282  38.364   6.760   2.132
80968W        W53283   5.491   6.807  11.629
80969W        W53284   9.605  16.608  13.821
80970W        W53285   5.734   9.205   2.368
80971W        W53286  14.197  30.984   3.592
80972W        W53287  30.137  25.206   2.302
80973W        W53288  29.842  22.147  11.565
80974W        W53289  36.855  24.620   1.741
80975W        W53290  17.946  31.962   1.734
80976W        W53291   0.639  31.441   3.539
80977W        W53292  34.381   9.365  14.410
80978W        W53293  35.926  27.612  14.323
80979W        W53294  43.076  38.531   2.844
80980W        W53295   9.207   9.629  12.691
80981W        W53296  22.697  32.096  14.254
80982W        W53297   1.501   2.492  11.006
80983W        W53298  27.956  30.976  13.157
80984W        W53299   9.905  21.515  11.487
80985W        W53300   3.754  30.424   2.312
80986W        W53301   9.346  38.980  14.238
80987W        W53302  27.651  24.259  12.070
80988W        W53303   8.568  34.001  10.742
80989W        W53304  35.376   2.217   1.908
80990W        W53305  11.223  22.426  10.527
80991W        W53306  28.094   4.109  14.448
80992W        W53307  43.457  36.750   1.683
80993W        W53308  10.685  43.593  11.040
80994W        W53309  44.028  22.990   4.237
80995W        W53310  13.301  35.826   4.513
80996W        W53311  35.473  36.185  13.932
80997W        W53312  29.911  29.464  14.949
80998W        W53313  10.865  40.497  11.595
80999W        W53314  38.982   0.018  11.253
81000W        W53315  35.502  17.731   3.197
81001W        W53316  14.796  40.454  10.679
81002W        W53317   8.702  42.226   1.259
81003W        W53318  29.473  44.848  11.838
81004W        W53319  28.583  28.735  13.361
81005W        W53320  19.712  37.954   0.995
81006W        W53321   7.797  32.400   3.634
81007W        W53322  42.287   6.180  13.064
81008W        W53323   5.908  18.683  10.619
81009W        W53324   6.931  39.639   0.401
81010W        W53325  37.617  33.399   3.236
81011W        W53326  30.033  19.611  10.732
81012W        W53327  43.114  12.053   4.236
81013W        W53328  40.296   3.722   3.200
81014W        W53329  17.078  30.663   2.331
81015W        W53330  39.572  15.194  12.117
81016W        W53331  35.377  37.846   0.180
81017W        W53332   5.048   1.514  11.561
81018W        W53333  36.189   3.525  12.144
81019W        W53334  19.780  24.028  13.104
81020W        W53335   3.156   7.441   3.973
81021W        W53336  14.575   0.003   0.832
81022W        W53337  18.810  18.028  13.386
81023W        W53338   1.430  34.889   1.401
81024W        W53339   4.227  23.220   2.391
81025W        W53340  33.395   3.461  11.827
81026W        W53341  12.715  44.982   0.861
81027W        W53342  42.151   2.102   2.795
81028W        W53343  36.568  13.019  10.318
81029W        W53344  21.222  38.116  13.655
81030W        W53345  26.629  27.640  14.149
81031W        W53346  14.728  38.081   1.839
81032W        W53347   5.937  40.124  12.828
81033W        W53348  29.669  10.183  11.061
81034W        W53349   5.620  20.156   3.613
81035W        W53350   2.342  27.845   5.031
81036W        W53351  37.865   2.803  13.546
81037W        W53352   7.676   5.683  13.890
81038W        W53353  25.148  43.285   2.219
81039W        W53354  20.445  28.995   0.295
81040W        W53355  39.879  30.114   4.835
81041W        W53356   5.017  42.803  12.990
81042W        W53357  27.597   0.600   3.340
81043W        W53358   8.132  29.121  13.565
81044W        W53359   1.780  44.287   1.827
81045W        W53360  44.366  21.659  11.010
81046W        W53361  28.985  29.740  12.874
81047W        W53362  31.580  27.558   0.928
81048W        W53363  15.332  25.586  14.058
81049W        W53364   2.810  30.023   4.161
81050W        W53365  16.719  40.052   2.874
81051W        W53366  22.759  28.963   0.678
81052W        W53367  25.749  22.210  14.834
81053W        W53368  32.606  24.836  11.807
81054W        W53369  13.683  16.119  11.768
81055W        W53370  29.812  43.401   0.499
81056W        W53371  15.681  21.547  11.107
81057W        W53372  40.352  43.196   2.839
81058W        W53373  15.541  44.547  13.978
81059W        W53374   8.300  32.905   2.785
81060W        W53375  40.835  39.376  14.903
81061W        W53376  37.299  30.588   1.435
81062W        W53377  39.525  17.756  11.090
81063W        W53378   2.052   4.886   5.107
81064W        W53379  17.565  10.684  13.358
81065W        W53380  19.099  22.091  13.596
81066W        W53381   8.441  18.536  13.544
81067W        W53382  11.269  13.369  10.725
81068W        W53383  24.700  43.322   4.091
81069W        W53384  26.985  40.478  12.219
81070W        W53385  11.345  34.167   4.105
81071W        W53386  40.482  23.589   0.941
81072W        W53387  25.323   5.004  13.451
81073W        W53388  14.882   9.171  14.616
81074W        W53389   6.060  39.946   4.028
81075W        W53390  25.243  30.600   3.696
81076W        W53391  38.745  32.974  11.167
81077W        W53392   2.149  35.345  10.888
81078W        W53393  27.408  27.727   1.264
81079W        W53394  25.966  11.002   3.697
81080W        W53395   2.032  20.138  14.874
81081W        W53396  23.472  18.966  10.198
81082W        W53397  13.893  15.616  10.625
81083W        W53398  10.277   7.691   4.910
81084W        W53399  14.829  29.438  14.430
81085W        W53400  25.690  25.883  14.010
81086W        W53401  26.599  44.475   1.530
81087W        W53402  44.387  30.105   2.805
81088W        W53403  31.599   0.244  10.367
81089W        W53404   8.131  32.725   4.077
81090W        W53405  35.428  34.593  14.860
81091W        W53406  14.041  33.517  14.811
81092W        W53407  24.587  36.515   1.666
81093W        W53408  26.652   0.537   0.858
81094W        W53409   9.338  36.474  11.195
81095W        W53410   6.223  13.888  10.879
81096W        W53411  12.407  21.129   0.926
81097W        W53412   4.454  14.096   2.756
81098W        W53413   6.830  29.472  13.283
81099W        W53414  25.009   7.510   4.086
81100W        W53415  40.815   2.125   4.623
81101W        W53416  39.467  40.534   0.303
81102W        W53417  37.570  29.802   4.230
81103W        W53418   2.397   3.106   3.433
81104W        W53419  13.569   9.964   4.062
81105W        W53420   2.696  12.155  14.449
81106W        W53421  23.000   5.456  12.968
81107W        W53422  22.828  19.006  12.511
81108W        W53423  15.733   8.001   0.370
81109W        W53424   1.961  20.766   2.439
81110W        W53425   7.891   0.562  14.028
81111W        W53426  23.250  28.871   2.787
81112W        W53427  20.159   7.652   3.811
81113W        W53428  44.765  31.540  13.476
81114W        W53429  42.930  14.551   4.535
81115W        W53430  33.709  29.350   2.250
81116W        W53431  27.982  25.004  14.743
81117W        W53432   8.751  18.484  12.687
81118W        W53433  34.132   5.377   3.646
81119W        W53434  44.543   0.963   2.686
81120W        W53435  43.030  27.072   4.100
81121W        W53436  33.971   3.818  12.452
81122W        W53437  42.549  22.106   4.622
81123W        W53438  39.586  23.610   3.202
81124W        W53439  28.879  18.457  13.517
81125W        W53440   7.506  22.298  11.627
81126W        W53441  21.500  16.350  12.965
81127W        W53442  42.520  31.357  12.030
81128W        W53443   1.779  29.315   3.303
81129W        W53444  28.162  39.099  11.619
81130W        W53445  26.473  42.406  13.917
81131W        W53446  12.422  42.090   2.272
81132W        W53447  31.466  13.345   1.308
81133W        W53448  33.571  16.738   3.816
81134W        W53449  26.449  38.901   1.489
81135W        W53450  18.255  26.003   4.193
81136W        W53451  17.233  21.263   0.944
81137W        W53452  20.170  20.922   0.182
81138W        W53453  36.101  22.685   0.884
81139W        W53454   5.848  43.544  14.272
81140W        W53455  10.220  26.542  11.429
81141W        W53456   4.751  36.475   2.124
81142W        W53457   4.358   1.570   2.725
81143W        W53458  18.700  28.104   3.687
81144W        W53459  30.184  30.617   2.077
81145W        W53460  40.380  23.605   1.490
81146W        W53461  18.117  36.161  12.538
81147W        W53462   2.115  28.178  14.984
81148W        W53463  22.656  37.727  10.808
81149W        W53464   8.755  32.078  14.888
81150W        W53465  27.994  24.083   4.795
81151W        W53466  19.198  16.096  10.365
81152W        W53467  39.998  22.636   4.231
81153W        W53468   8.458  35.920  12.881
81154W        W53469  13.187  34.655   3.285
81155W        W53470  18.668   3.978   4.120
81156W        W53471   0.745  41.509  10.763
81157W        W53472  32.353  27.525  11.732
81158W        W53473  17.956   9.694  14.490
81159W        W53474  11.256  41.541  10.655
81160W        W53475  42.198  40.701  12.660
81161W        W53476  38.461  31.643  13.004
81162W        W53477   4.288  16.649  14.056
81163W        W53478  23.334  11.258  14.521
81164W        W53479  22.080  43.911   4.587
81165W        W53480  27.642  27.287   1.810
81166W        W53481  18.118  11.669  14.460
81167W        W53482  17.727  11.813  12.861
81168W        W53483  37.280   2.485   2.099
81169W        W53484  44.720  20.081  11.124
81170W        W53485  12.278  16.204  14.349
81171W        W53486  24.052  38.001  10.631
81172W        W53487  14.273  26.417   3.556
81173W        W53488  11.377  33.313   0.878
81174W        W53489   8.778  22.026   1.516
81175W        W53490  18.220   1.577  12.083
81176W        W53491  36.206  37.235  12.790
81177W        W53492  18.211  16.184   1.868
81178W        W53493  10.895  22.148   4.199
81179W        W53494  10.247  16.851  12.161
81180W        W53495  14.186  39.285   0.855
81181W        W53496  13.158  10.115  12.965
81182W        W53497  21.052  15.418  13.049
81183W        W53498  35.808  17.087  12.965
81184W        W53499   9.309  32.141  11.523
81185W        W53500  33.921   5.172  10.875
81186W        W53501  16.055  41.810   4.554
81187W        W53502  34.476  32.122  12.860
81188W        W53503  26.616  33.093   5.052
81189W        W53504  34.102  21.278   4.707
81190W        W53505  42.518  28.622  13.116
81191W        W53506  27.444  42.776  13.865
81192W        W53507  30.108   7.622  11.075
81193W        W53508   1.070   4.200   2.315
81194W        W53509  37.579   0.116   3.638
81195W        W53510  23.328  24.028  13.531
81196W        W53511  27.023   0.660  11.104
81197W        W53512   0.799  33.652   5.288
81198W        W53513  41.567  28.069  12.413
81199W        W53514  34.934  26.021   2.801
81200W        W53515  43.370   3.253  11.112
81201W        W53516  32.933  41.834  14.019
81202W        W53517  21.972  17.928  11.069
81203W        W53518  35.008  38.925  11.656
81204W        W53519  44.730  11.901   0.118
81205W        W53520  26.246   6.356   4.766
81206W        W53521  14.831  44.816   0.388
81207W        W53522  37.586  17.058  14.402
81208W        W53523  31.659  17.567  10.653
81209W        W53524   7.757   2.348   2.392
81210W        W53525   5.806  28.136   2.301
81211W        W53526  12.639  32.884  11.045
81212W        W53527  34.798   2.146  14.472
81213W        W53528  17.522  35.535  12.326
81214W        W53529  42.059   2.400   1.971
81215W        W53530  10.280   2.166  11.248
81216W        W53531   3.396  44.928   0.435
81217W        W53532  17.634  12.387   2.770
81218W        W53533  33.282   6.884   9.997
81219W        W53534  28.580  12.768   4.506
81220W        W53535  19.849  23.040  12.152
81221W        W53536   2.442   9.755  14.724
81222W        W53537   3.297  31.092  11.536
81223W        W53538  33.607   6.026   0.876
81224W        W53539  27.721  43.287   4.103
81225W        W53540  10.266  31.988  11.011
81226W        W53541   5.350   5.674   3.891
81227W        W53542  12.943  36.574   1.504
81228W        W53543  35.219  26.313   3.159
81229W        W53544  18.502  10.645  13.375
81230W        W53545   2.543  11.764  10.494
81231W        W53546  11.648  25.063   5.167
81232W        W53547   4.930  11.807  12.782
81233W        W53548   4.737   3.267   3.890
81234W        W53549  35.618  36.432   1.796
81235W        W53550   2.498  37.353  13.262
81236W        W53551  25.625  27.499   2.499
81237W        W53552  19.283   2.995  10.748
81238W        W53553  27.224  23.717  13.339
81239W        W53554  27.070  31.088  11.555
81240W        W53555   6.229   5.052   4.196
81241W        W53556  39.266  20.512   1.744
81242W        W53557  15.649  33.468   4.591
81243W        W53558  41.918  17.921  10.724
81244W        W53559  35.993  32.543   4.567
81245W        W53560  22.517  24.557   2.832
81246W        W53561  19.354  11.895  11.419
81247W        W53562  20.000   7.536  10.748
81248W        W53563  33.380   8.242   0.545
81249W        W53564  18.172  31.669  11.491
81250W        W53565  19.617  21.569   2.769
81251W        W53566  22.225  27.177   1.700
81252W        W53567  16.410   4.909  12.238
81253W        W53568  31.543  13.064  10.621
81254W        W53569  32.284  19.690  11.136
81255W        W53570   7.453   8.747  11.530
81256W        W53571  15.229  19.620   4.719
81257W        W53572  10.123   9.708   3.349
81258W        W53573  14.842   0.894   3.720
81259W        W53574   3.402  25.375   4.564
81260W        W53575  21.610  21.033   4.418
81261W        W53576  34.400  26.141   1.945
81262W        W53577  31.560  22.175   0.920
81263W        W53578  19.299   7.375   1.202
81264W        W53579  14.024  23.976  13.106
81265W        W53580  29.689  16.676   4.518
81266W        W53581  22.793  36.718   3.891
81267W        W53582  39.542   5.870  12.394
81268W        W53583   9.139   2.542   2.658
81269W        W53584   5.672  12.562  11.948
81270W        W53585  18.658  42.899   3.349
81271W        W53586  39.442  34.115  10.867
81272W        W53587  28.054  23.665  10.575
81273W        W53588  20.206  26.698   2.297
81274W        W53589  42.353  22.226   0.867
81275W        W53590  11.801  44.694   2.621
81276W        W53591  31.900   4.380  10.215
81277W        W53592  24.408  15.407   0.698
81278W        W53593  24.997  20.325  12.541
81279W        W53594  35.990  40.009  12.609
81280W        W53595  15.211  12.560   1.777
81281W        W53596  19.368  24.524  14.738
81282W        W53597  29.943  27.896  12.959
81283W        W53598  30.080  36.132  10.286
81284W        W53599  40.811  36.442  11.254
81285W        W53600   0.283   9.907   4.330
81286W        W53601  35.125   0.813   2.182
81287W        W53602  40.991  15.783  13.422
81288W        W53603  10.791  37.351   0.263
81289W        W53604  10.808  34.123   2.591
81290W        W53605  11.335  12.362  10.672
81291W        W53606   7.877  35.979   4.133
81292W        W53607  14.095  30.913   3.058
81293W        W53608  12.935  15.264   3.780
81294W        W53609  20.167  13.778   3.823
81295W        W53610  18.203  16.766   3.545
81296W        W53611  24.062  11.273   3.635
81297W        W53612  31.515  21.244  10.947
81298W        W53613  21.453  25.184  14.051
81299W        W53614  22.762   8.179  11.714
81300W        W53615  41.357  43.586  11.884
81301W        W53616  41.651  22.847   2.377
81302W        W53617  20.942  23.899  13.370
81303W        W53618  19.766   8.828  10.057
81304W        W53619   4.622  13.424   1.349
81305W        W53620  37.434   8.613   1.972
81306W        W53621  40.053  40.347   2.186
81307W        W53622  17.531   6.717   1.333
81308W        W53623  12.152   6.717   0.231
81309W        W53624  15.261  26.108  13.809
81310W        W53625   6.719  36.360  10.484
81311W        W53626  11.349  18.298   4.117
81312W        W53627  30.383  20.225   2.280
81313W        W53628  10.349  42.253  12.526
81314W        W53629  19.578  28.200  11.559
81315W        W53630  39.494   7.827   0.071
81316W        W53631  33.132  42.326  12.882
81317W        W53632  21.305  43.092  13.856
81318W        W53633  34.808   9.235   0.362
81319W        W53634  13.821   8.347   0.443
81320W        W53635  22.191  42.597   1.250
81321W        W53636  25.666  43.390  12.124
81322W        W53637   4.973   7.305  10.610
81323W        W53638  41.433  42.820  12.540
81324W        W53639  43.267   3.455   2.356
81325W        W53640  32.817  27.243  11.997
81326W        W53641  24.125  33.363   2.314
81327W        W53642  31.454  16.057   1.007
81328W        W53643  18.357   7.562  12.535
81329W        W53644   6.439  19.811   4.614
81330W        W53645  33.699   0.838   3.907
81331W        W53646   2.658  28.918  14.295
81332W        W53647   5.172  23.666  13.943
81333W        W53648  38.600   2.757  14.848
81334W        W53649  11.375   3.266   4.398
81335W        W53650  40.291  30.554  11.708
81336W        W53651  19.581  21.948  10.664
81337W        W53652  40.539  14.706  11.948
81338W        W53653  16.702  40.885   1.752
81339W        W53654  31.034  35.106   3.786
81340W        W53655  22.721   8.376  12.840
81341W        W53656  33.659  36.904   3.670
81342W        W53657  18.357  19.694   3.301
81343W        W53658  13.688  23.861   0.372
81344W        W53659  14.193   1.453   0.237
81345W        W53660  13.038  32.407   3.276
81346W        W53661  12.096  37.223   3.616
81347W        W53662  37.521   2.375   0.711
81348W        W53663  16.860  10.392   2.274
81349W        W53664  21.582  40.560  12.961
81350W        W53665  12.611   7.747   3.154
81351W        W53666   3.482  40.498  12.984
81352W        W53667  17.357  23.515   4.140
81353W        W53668   8.598  26.458  11.928
81354W        W53669   0.209   2.713  11.948
81355W        W53670  24.690  15.139   3.342
81356W        W53671  20.598  11.915   0.969
81357W        W53672  40.397  40.351  11.569
81358W        W53673  27.422  31.926   3.294
81359W        W53674  11.672   0.235  12.820
81360W        W53675  23.582   9.434   0.265
81361W        W53676  25.800  34.436   4.730
81362W        W53677  41.012  21.555   1.830
81363W        W53678   6.231  37.788  14.236
81364W        W53679  19.098  44.366   4.131
81365W        W53680  41.461  29.497   0.964
81366W        W53681   3.993   3.967   3.788
81367W        W53682   6.092  37.443   0.807
81368W        W53683  29.651  12.465  12.962
81369W        W53684  40.891  40.767  13.063
81370W        W53685  43.297  13.725  12.349
81371W        W53686  43.338  23.966   1.907
81372W        W53687   3.445  21.457  12.365
81373W        W53688   6.847  24.230  11.451
81374W        W53689  33.586  11.619   4.111
81375W        W53690   8.865  10.381  11.225
81376W        W53691   2.937  18.633   3.012
81377W        W53692  43.943  35.174  13.079
81378W        W53693   7.213  22.592   1.036
81379W        W53694  40.353  25.944  10.871
81380W        W53695  42.724  42.393   4.734
81381W        W53696  26.497   0.659  11.085
81382W        W53697   9.229  28.698   2.439
81383W        W53698   1.418  28.870   2.614
81384W        W53699  24.563  20.609   0.924
81385W        W53700   7.248   9.736   0.909
81386W        W53701   1.692  21.728   2.037
81387W        W53702  20.695  12.878  11.123
81388W        W53703  27.146  44.807  14.778
81389W        W53704  15.541  25.304   4.291
81390W        W53705  24.991   5.862   1.150
81391W        W53706  41.948  25.112   4.202
81392W        W53707  16.762  28.045  14.792
81393W        W53708   8.559   7.939   5.013
81394W        W53709  26.419  23.700   0.924
81395W        W53710  27.951  23.704   1.285
81396W        W53711  25.243  29.993   2.367
81397W        W53712  34.033   7.613  11.527
81398W        W53713   9.394  26.923  10.984
81399W        W53714  16.310  23.427  13.519
81400W        W53715   5.267  15.208   3.859
81401W        W53716  24.835  25.262   4.098
81402W        W53717  34.056   5.932   4.504
81403W        W53718   0.005  11.799  10.332
81404W        W53719  25.150  12.312  11.601
81405W        W53720  22.430  25.458  12.800
81406W        W53721  27.932   2.037   1.413
81407W        W53722  17.045  26.433  11.942
81408W        W53723  33.713  38.843  10.435
81409W        W53724  23.012  20.513   4.808
81410W        W53725  21.539  19.093  13.466
81411W        W53726  23.579  38.933   1.189
81412W        W53727  29.661   6.843   1.506
81413W        W53728   9.873  38.968  13.432
81414W        W53729  24.960  31.496   0.139
81415W        W53730  43.492  12.296  12.496
81416W        W53731  21.173   0.424   2.692
81417W        W53732   7.612  34.467   0.300
81418W        W53733  34.894  29.570   0.845
81419W        W53734   4.552  27.849  12.195
81420W        W53735  19.340   1.026  14.749
81421W        W53736  15.673  31.193  13.471
81422W        W53737  37.804  27.787  14.500
81423W        W53738  19.151   3.865  10.487
81424W        W53739  34.356  33.268  10.558
81425W        W53740  40.961   2.989   0.426
81426W        W53741  43.412  16.857   0.901
81427W        W53742   0.445  44.441   3.072
81428W        W53743  15.234  22.270  12.600
81429W        W53744  44.811  26.742  11.572
81430W        W53745  27.517  24.895  11.523
81431W        W53746  13.190  27.022   0.177
81432W        W53747  35.483   1.322   2.887
81433W        W53748   4.183   7.342   0.011
81434W        W53749  11.946  32.745   2.907
81435W        W53750  14.257   4.953   4.231
81436W        W53751  39.403  35.156   3.629
81437W        W53752   1.285  27.997   4.740
81438W        W53753  43.465  22.243   3.732
81439W        W53754  38.122   2.395   4.311
81440W        W53755   7.543   7.284  11.107
81441W        W53756  22.022  42.759   3.656
81442W        W53757  34.962   7.278   9.952
81443W        W53758  12.593  23.476   3.664
81444W        W53759   0.145  30.450  12.637
81445W        W53760   6.687  32.973  10.673
81446W        W53761  17.579  28.280   2.344
81447W        W53762  12.231   0.553  12.294
81448W        W53763  21.264  44.914  11.636
81449W        W53764  42.340   2.494   4.709
81450W        W53765  31.220   6.972   0.413
81451W        W53766  42.891  33.659   3.278
81452W        W53767  19.739  21.048   3.639
81453W        W53768  30.193  23.100  14.550
81454W        W53769   3.664  44.405  14.778
81455W        W53770  42.408   4.246  13.554
81456W        W53771  25.038  25.232   1.329
81457W        W53772  25.455  29.979   0.417
81458W        W53773  26.502  23.518   0.450
81459W        W53774  41.326  35.491   1.768
81460W        W53775  16.149  23.221   4.724
81461W        W53776   7.215  40.972  12.049
81462W        W53777   1.793  36.599   5.585
81463W        W53778  39.023  43.139  11.374
81464W        W53779  24.884   4.854   9.638
81465W        W53780  15.985   1.235   0.774
81466W        W53781  21.755  20.429   0.764
81467W        W53782  23.571  22.550   0.863
81468W        W53783  20.977   3.412   3.758
81469W        W53784   7.601  35.463  14.513
81470W        W53785  28.133  12.178   0.906
81471W        W53786  36.025  14.627  13.853
81472W        W53787  38.815  35.967   4.507
81473W        W53788   3.869  25.636   3.413
81474W        W53789  19.758  44.467   4.676
81475W        W53790  16.060  12.144   4.157
81476W        W53791  42.495  21.472   3.381
81477W        W53792  38.676  40.283   4.935
81478W        W53793  11.695  30.176   1.936
81479W        W53794   3.441  11.852  14.177
81480W        W53795  40.992  23.458  13.309
81481W        W53796  39.682  32.612  14.756
81482W        W53797  10.409  28.711  10.430
81483W        W53798  23.321  13.792  12.985
81484W        W53799  42.785  10.238  10.598
81485W        W53800   6.164  40.978   4.813
81486W        W53801  26.511   7.206  12.317
81487W        W53802  24.152  29.707   2.750
81488W        W53803   3.290  36.409  11.226
81489W        W53804  18.027  43.099   3.118
81490W        W53805  25.530  27.583  14.788
81491W        W53806  36.684  17.727   1.386
81492W        W53807   6.184   5.334   1.752
81493W        W53808  43.366  10.415  13.041
81494W        W53809  15.728  15.749  12.394
81495W        W53810  40.891  13.631  10.789
81496W        W53811  21.185  17.571  11.670
81497W        W53812  44.226  35.612  11.223
81498W        W53813  11.707  39.416  11.642
81499W        W53814   7.685  30.593   1.526
81500W        W53815  43.344  10.297  14.736
81501W        W53816   7.395  43.043  12.887
81502W        W53817  33.872  28.373  14.767
81503W        W53818  32.565   2.213  10.770
81504W        W53819  43.241  44.582  11.127
81505W        W53820   8.704  39.358   0.963
81506W        W53821   6.843   3.746  11.115
81507W        W53822  38.044  33.234   3.645
81508W        W53823  25.053   0.800   2.441
81509W        W53824  21.978  16.654   0.235
81510W        W53825  39.272  33.034   4.524
81511W        W53826  42.317  38.750   9.942
81512W        W53827  32.931  21.143   0.371
81513W        W53828  42.818  44.716  11.341
81514W        W53829  30.933  43.037   4.163
81515W        W53830  22.709  23.229  11.582
81516W        W53831   2.862  24.173  12.812
81517W        W53832  12.782  21.317  11.586
81518W        W53833  13.712  19.509  13.478
81519W        W53834  20.609  27.058  14.773
81520W        W53835  22.083  12.108   1.969
81521W        W53836   1.834  16.576   0.082
81522W        W53837  23.003  30.028  10.921
81523W        W53838  23.671   6.763  11.425
81524W        W53839   3.945  19.338  10.575
81525W        W53840  36.895  22.593  13.083
81526W        W53841  36.605  42.137  14.576
81527W        W53842  33.112  24.130   0.920
81528W        W53843   0.612  19.907   3.954
81529W        W53844   7.625  25.577   4.574
81530W        W53845  22.244  19.022   4.877
81531W        W53846  19.144  19.813  12.129
81532W        W53847  16.551  24.573  14.867
81533W        W53848  29.991  40.367   1.481
81534W        W53849  15.841  14.892  11.132
81535W        W53850  16.241  11.136   4.120
81536W        W53851  27.970  23.535  11.600
81537W        W53852  24.695   6.909   3.829
81538W        W53853  38.508  44.482   0.335
81539W        W53854  39.632   7.262   2.351
81540W        W53855  38.687  23.176   4.816
81541W        W53856  19.524  44.493  11.519
81542W        W53857  15.371   0.546   3.730
81543W        W53858  34.577  24.360   0.480
81544W        W53859  24.197  23.873  12.016
81545W        W53860  43.474   4.128  13.805
81546W        W53861  21.250  38.754   9.964
81547W        W53862  10.228  33.818   4.672
81548W        W53863   1.880  16.063  14.908
81549W        W53864  37.976  16.045   3.752
81550W        W53865  37.226  40.243   0.507
81551W        W53866  13.691  27.531  14.853
81552W        W53867  23.861   4.828  11.996
81553W        W53868  25.025  24.918  11.466
81554W        W53869   1.853  41.033  13.770
81555W        W53870   8.804   0.554   3.806
81556W        W53871  22.082   3.944   2.291
81557W        W53872  19.160  39.321  10.598
81558W        W53873  26.706  15.081  14.356
81559W        W53874   7.429  40.818   1.842
81560W        W53875  42.004  27.414  10.621
81561W        W53876  23.528  27.131  13.585
81562W        W53877  29.222   6.283   1.511
81563W        W53878  32.186  19.787  12.809
81564W        W53879  27.012  24.257   3.936
81565W        W53880   9.175   5.699  13.533
81566W        W53881  16.624   1.400   1.236
81567W        W53882  37.475  35.608  14.681
81568W        W53883   6.119  38.364   2.512
81569W        W53884   9.777  33.490   0.708
81570W        W53885  34.977  38.580  12.867
81571W        W53886  40.839  10.919  14.408
81572W        W53887   1.888  38.364  11.634
81573W        W53888  39.441   3.648   4.097
81574W        W53889  11.815  18.658  10.620
81575W        W53890   3.099   0.984   3.778
81576W        W53891  34.910  39.602  14.026
81577W        W53892  44.127   8.686   3.793
81578W        W53893  26.443   3.644   3.233
81579W        W53894  37.049   7.463  12.934
81580W        W53895   5.833  22.990   2.660
81581W        W53896  34.377  37.382   4.457
81582W        W53897   7.150  33.589  11.162
81583W        W53898  43.374  42.376  12.858
81584W        W53899  19.766  37.397  11.587
81585W        W53900   3.919  43.549   1.735
81586W        W53901  19.809  36.395  10.653
81587W        W53902  37.395  10.237   3.875
81588W        W53903  16.699  27.017   0.896
81589W        W53904  31.422   0.437   0.195
81590W        W53905  14.728  39.045  13.822
81591W        W53906  23.930  30.452   0.780
81592W        W53907  24.899   3.893  14.414
81593W        W53908   9.277  17.063   0.483
81594W        W53909  43.932  23.018  11.048
81595W        W53910  30.089   6.133  13.407
81596W        W53911  22.051  13.207  12.942
81597W        W53912  16.255  33.868  14.259
81598W        W53913   8.322  17.084   1.195
81599W        W53914  41.898   4.112  11.514
81600W        W53915  14.792  17.642  12.785
81601W        W53916   3.251   5.817  14.431
81602W        W53917   7.019   3.826   0.789
81603W        W53918  20.848  17.277  13.558
81604W        W53919  30.466  27.535  13.175
81605W        W53920  28.906  21.645  14.966
81606W        W53921  25.331  34.352   9.996
81607W        W53922   2.427  33.442  12.382
81608W        W53923   0.472  21.614   2.798
81609W        W53924  40.406  44.433  11.615
81610W        W53925  31.591  37.908  13.265
81611W        W53926  25.215  39.483   4.237
81612W        W53927  31.141  28.736   0.320
81613W        W53928  33.513   0.768   4.692
81614W        W53929  23.196  10.658   3.697
81615W        W53930  30.433  40.572  11.603
81616W        W53931  12.802  24.770  11.155
81617W        W53932  36.447   8.955  14.933
81618W        W53933  29.658  40.637   3.155
81619W        W53934  21.507   0.662  11.483
81620W        W53935  32.012  32.665   4.262
81621W        W53936  31.663   6.756  10.948
81622W        W53937  44.428  31.690   4.400
81623W        W53938  28.366  13.705   0.339
81624W        W53939  26.773  13.594   0.293
81625W        W53940  35.812  34.869   2.201
81626W        W53941  26.559   9.250   5.115
81627W        W53942  41.284  27.141   1.185
81628W        W53943  44.291   2.337   0.340
81629W        W53944  28.963  39.025   4.570
81630W        W53945  19.651   7.749  12.288
81631W        W53946  13.355   9.114  11.712
81632W        W53947  40.407  32.892   4.862
81633W        W53948  22.406   9.762  11.655
81634W        W53949  19.700   8.641   0.209
81635W        W53950   0.581   4.713   1.649
81636W        W53951  43.095  10.215   4.229
81637W        W53952   2.108  39.417  11.005
81638W        W53953  19.359  24.281  12.018
81639W        W53954  28.037  20.008   0.113
81640W        W53955  10.103  19.667  14.302
81641W        W53956  28.761  36.038  12.424
81642W        W53957   3.030  33.665   0.900
81643W        W53958  22.193   8.906   4.070
81644W        W53959  15.065  35.611  11.503
81645W        W53960  40.358  11.814   4.536
81646W        W53961  35.757  17.956   0.691
81647W        W53962  26.655  23.055  11.201
81648W        W53963  34.162   6.438   4.478
81649W        W53964  43.824   5.390   4.454
81650W        W53965  25.961  43.779  11.166
81651W        W53966   4.832  13.643  12.104
81652W        W53967  39.601  20.677   2.367
81653W        W53968  35.059  22.403   3.749
81654W        W53969  38.854  44.037   3.614
81655W        W53970  18.743   7.939   0.918
81656W        W53971  17.615  15.161  14.400
81657W        W53972   5.733   7.364  11.059
81658W        W53973   7.431  11.858  14.815
81659W        W53974   8.779  32.131   2.752
81660W        W53975  10.419  33.251  13.906
81661W        W53976   6.694   3.763  14.788
81662W        W53977  22.759  34.103   4.382
81663W        W53978  16.810   8.880  14.509
81664W        W53979  32.111  15.721   3.700
81665W        W53980  11.909  13.949   1.200
81666W        W53981  44.252  15.127  14.862
81667W        W53982   9.749  42.440  12.788
81668W        W53983  41.275  11.171   3.590
81669W        W53984  30.440  24.327  11.349
81670W        W53985  38.167  39.436   4.593
81671W        W53986   1.695  30.333   4.382
81672W        W53987  39.333  40.811  14.658
81673W        W53988  37.612   6.373   2.253
81674W        W53989  41.464  35.839   3.888
81675W        W53990  20.607  18.250   0.846
81676W        W53991  33.792  18.757   2.427
81677W        W53992  11.752  20.675  14.422
81678W        W53993  31.420  26.149   3.798
81679W        W53994  44.481  35.691  14.437
81680W        W53995  40.106  22.698   1.347
81681W        W53996  36.537  18.482  12.917
81682W        W53997   5.605  31.849  11.022
81683W        W53998  38.802   9.706   4.103
81684W        W53999  20.194   1.474   1.745
81685W        W54000  29.631  17.280   2.407
81686W        W54001  38.146  33.618   0.009
81687W        W54002   2.321   9.147   1.927
81688W        W54003  23.205  20.438  10.317
81689W        W54004  27.549   8.187  11.972
81690W        W54005   6.320  30.442   3.636
81691W        W54006   7.213  23.610  14.780
81692W        W54007  29.188  23.207  14.413
81693W        W54008  26.571   7.863   3.274
81694W        W54009   5.287  44.101   1.810
81695W        W54010  13.852   1.038  11.317
81696W        W54011  36.876  38.946  11.944
81697W        W54012  10.331  42.955   2.827
81698W        W54013   9.319   0.546   1.275
81699W        W54014   3.868  18.284  13.399
81700W        W54015   7.276   8.620  13.425
81701W        W54016  16.529  14.576   0.941
81702W        W54017  16.567  41.971  12.480
81703W        W54018  37.762  22.202   2.832
81704W        W54019   3.688   6.196  12.438
81705W        W54020  15.172  35.609   4.622
81706W        W54021  17.067  44.252  13.339
81707W        W54022  23.982  10.375   2.613
81708W        W54023  21.241   3.170   1.854
81709W        W54024  28.067  21.452   1.855
81710W        W54025  18.171  35.345   3.628
81711W        W54026   7.334  26.760  14.846
81712W        W54027  31.425   6.750  11.421
81713W        W54028  29.021   8.316   4.391
81714W        W54029   9.697  16.082   1.955
81715W        W54030  24.738   4.694  13.791
81716W        W54031  16.006  30.291   4.924
81717W        W54032  32.643  32.619  13.910
81718W        W54033  37.436  13.657   4.515
81719W        W54034   3.881  28.031  11.023
81720W        W54035  24.631  12.525  12.393
81721W        W54036   6.736   0.371  11.916
81722W        W54037   5.584   1.479   4.748
81723W        W54038  18.075   7.958   2.192
81724W        W54039  13.219  17.994   2.347
81725W        W54040  42.506  30.485  12.936
81726W        W54041   8.338  40.370   2.760
81727W        W54042   6.187  33.105  11.932
81728W        W54043  12.098  24.692  12.360
81729W        W54044  40.344  31.543  14.891
81730W        W54045   9.436   2.428   3.695
81731W        W54046   1.681  33.962  12.344
81732W        W54047  38.599  30.704  10.573
81733W        W54048   0.205  43.760   3.147
81734W        W54049  36.314  42.359   2.262
81735W        W54050  29.645  21.965   3.785
81736W        W54051  37.554   5.677   0.309
81737W        W54052  13.586  22.963   4.183
81738W        W54053   4.769  29.007   0.804
81739W        W54054  31.820  43.401   1.320
81740W        W54055  24.618  38.946   4.736
81741W        W54056  11.605  14.853   2.819
81742W        W54057  36.014  20.456  13.876
81743W        W54058  25.510  32.425   5.071
81744W        W54059  20.709   9.779   9.665
81745W        W54060  35.858  22.243  13.292
81746W        W54061  32.627  35.915  11.572
81747W        W54062  36.314  14.318   3.944
81748W        W54063  12.922  44.896   2.223
81749W        W54064  29.525  44.042   0.447
81750W        W54065  39.919  10.409  14.616
81751W        W54066  43.103  24.028   5.011
81752W        W54067  10.714  37.197  14.772
81753W        W54068  23.692  35.563   1.674
81754W        W54069   0.350  13.886  11.927
81755W        W54070  35.392  31.874  12.398
81756W        W54071   5.261   5.285   0.106
81757W        W54072  23.950  37.827   0.372
81758W        W54073  44.015  27.112  12.426
81759W        W54074  10.239   8.323   3.117
81760W        W54075  14.776  14.562  10.732
81761W        W54076  19.141  14.380   1.888
81762W        W54077   1.776  31.520  10.669
81763W        W54078  37.495  28.091  13.745
81764W        W54079  37.533  39.344   1.601
81765W        W54080   9.677   5.914  13.484
81766W        W54081  42.301   9.113  13.904
81767W        W54082  27.368  25.050  13.406
81768W        W54083  26.532  22.482  14.376
81769W        W54084  27.580  37.955   4.658
81770W        W54085   0.051  13.437  12.912
81771W        W54086   5.145   5.253   4.153
81772W        W54087  43.256  26.956  13.582
81773W        W54088   3.369  34.036   0.746
81774W        W54089  38.403  22.775   2.808
81775W        W54090  28.105  10.427   3.277
81776W        W54091   4.090   7.349   2.842
81777W        W54092  23.678  33.566  12.925
81778W        W54093  10.731   9.843   4.115
81779W        W54094  21.244  14.175  11.576
81780W        W54095  34.946  43.791  11.480
81781W        W54096   0.827  34.636   4.204
81782W        W54097  10.399  22.879   3.743
81783W        W54098  28.038  28.630  13.418
81784W        W54099   7.893   2.746  14.475
81785W        W54100  27.759  15.345  12.091
81786W        W54101  34.145   8.941  14.774
81787W        W54102  12.848  20.160   2.707
81788W        W54103  20.744  28.690   3.205
81789W        W54104   5.699  33.711   1.832
81790W        W54105  32.054  31.413  13.140
81791W        W54106  13.189  28.233  10.630
81792W        W54107   5.656  30.066   0.251
81793W        W54108  18.278  28.824  12.608
81794W        W54109  13.421  29.031   4.456
81795W        W54110   8.416  24.671  14.314
81796W        W54111  28.677  34.571  12.032
81797W        W54112  38.552  23.165  12.429
81798W        W54113  18.943   0.448  11.520
81799W        W54114  26.717  39.572   0.781
81800W        W54115  33.344  21.097   4.301
81801W        W54116   7.351  29.517  13.251
81802W        W54117  23.008  43.377   3.001
81803W        W54118  42.260  43.063  12.111
81804W        W54119   8.412  32.508  12.903
81805W        W54120  31.591  34.728  13.950
81806W        W54121  18.224  28.350  10.075
81807W        W54122  11.202  37.590   2.334
81808W        W54123   0.043  19.282   4.193
81809W        W54124  23.954   0.672   0.359
81810W        W54125  32.975  40.834   2.596
81811W        W54126  30.899  36.388   2.794
81812W        W54127  14.661  16.301  11.626
81813W        W54128  39.501   4.581  13.156
81814W        W54129   6.703   5.932  10.569
81815W        W54130   7.229  33.866  12.908
81816W        W54131  32.458  37.848  14.948
81817W        W54132  14.861  33.394   4.916
81818W        W54133  17.535  18.585  11.441
81819W        W54134   7.670  26.043   0.289
81820W        W54135  23.607  32.018  13.774
81821W        W54136   4.320  33.962   0.509
81822W        W54137   9.759  42.258  11.249
81823W        W54138  10.954  16.035   2.936
81824W        W54139   7.401  29.831  12.854
81825W        W54140  40.313  28.891  11.926
81826W        W54141  21.089  19.570   1.364
81827W        W54142   7.367  29.350   0.918
81828W        W54143  38.630   5.075   4.132
81829W        W54144  41.757  17.545   2.341
81830W        W54145  21.829  34.778   3.342
81831W        W54146   6.652  25.507  13.884
81832W        W54147  20.834  42.502   2.745
81833W        W54148  31.608   7.744   0.282
81834W        W54149  28.693  41.469   0.359
81835W        W54150  22.975  25.950   1.899
81836W        W54151  32.018   2.771   0.010
81837W        W54152  25.111  20.180  12.010
81838W        W54153  37.543  12.095   4.128
81839W        W54154  43.094  33.065  10.147
81840W        W54155   0.934   4.636   0.847
81841W        W54156  27.086  26.209  10.451
81842W        W54157  13.295  24.716   4.582
81843W        W54158  36.735  40.212  12.074
81844W        W54159  28.151  17.678   3.683
81845W        W54160  25.625  28.467   3.162
81846W        W54161  32.972  26.034  12.536
81847W        W54162  16.468  40.050  10.180
81848W        W54163  37.336  34.948  11.187
81849W        W54164  29.577  16.315   0.919
81850W        W54165  19.551  12.106   3.660
81851W        W54166  10.569   0.868  12.920
81852W        W54167  19.046   6.238   0.798
81853W        W54168  25.033  44.877  11.339
81854W        W54169  32.993  15.443  12.476
81855W        W54170  39.519  23.696   2.351
81856W        W54171  31.104   5.438  14.449
81857W        W54172  23.838  31.581   3.570
81858W        W54173  30.795   9.298  14.304
81859W        W54174  22.203  37.415   2.260
81860W        W54175  19.513   9.449   3.564
81861W        W54176  37.516  22.206  12.044
81862W        W54177  21.493  18.054  10.835
81863W        W54178  22.157  25.613   0.241
81864W        W54179   7.845  30.582   2.980
81865W        W54180   0.555  36.070  10.087
81866W        W54181  33.196  42.444   0.753
81867W        W54182  32.937  20.366   3.797
81868W        W54183   9.426  36.063  11.559
81869W        W54184  28.721  18.296   1.484
81870W        W54185  41.497  35.082  12.164
81871W        W54186  14.799  15.775   4.132
81872W        W54187  14.039  26.711  10.434
81873W        W54188  42.913  22.803   1.077
81874W        W54189  16.781  25.973  14.935
81875W        W54190  14.546  33.530  14.817
81876W        W54191  22.014  43.088  14.511
81877W        W54192  31.525  23.998   0.990
81878W        W54193   3.198  43.347  14.430
81879W        W54194   1.334   7.255  12.769
81880W        W54195   3.960  16.144   4.128
81881W        W54196  31.545  10.137   3.675
81882W        W54197   5.265  38.860  10.400
81883W        W54198  15.578  10.552  12.465
81884W        W54199  33.607  21.992  14.466
81885W        W54200  35.946  41.171  12.019
81886W        W54201  11.568   4.331  14.416
81887W        W54202  16.574  34.713  11.876
81888W        W54203   3.049  33.078  14.065
81889W        W54204  22.510  24.041  13.951
81890W        W54205  27.540   2.369   4.765
81891W        W54206   6.645  33.523  11.140
81892W        W54207   8.314  35.187   0.852
81893W        W54208  38.402  16.346  12.931
81894W        W54209   1.812  35.881  12.629
81895W        W54210  27.520  10.121  11.596
81896W        W54211  21.759  28.096   3.748
81897W        W54212  39.982  32.591   3.374
81898W        W54213  22.577  33.310  13.881
81899W        W54214   4.612  39.798   0.059
81900W        W54215  44.518  15.398  11.510
81901W        W54216  17.794   1.699  13.825
81902W        W54217  30.572  43.742   4.652
81903W        W54218  33.509  36.076  14.819
81904W        W54219  23.574   3.596  13.973
81905W        W54220  18.781  12.708   3.771
81906W        W54221  11.806  39.498   2.646
81907W        W54222   9.240   8.760  12.210
81908W        W54223  35.389  38.566   3.330
81909W        W54224  21.645   4.262   0.204
81910W        W54225  21.877   8.244  14.059
81911W        W54226  30.440  36.384  14.853
81912W        W54227   0.597   3.066   2.417
81913W        W54228   4.676  38.516   4.951
81914W        W54229   7.297   4.511   3.138
81915W        W54230  11.736  42.052  13.381
81916W        W54231  42.864  25.099   0.900
81917W        W54232  29.819  11.106  14.575
81918W        W54233   5.929  23.187  14.721
81919W        W54234  27.603  29.636   0.358
81920W        W54235  21.580   8.862  10.674
81921W        W54236  19.574  13.662  12.456
81922W        W54237  44.494  29.917   3.286
81923W        W54238  43.696  44.947   0.115
81924W        W54239  42.920  34.066   1.552
81925W        W54240  13.648   2.051  13.976
81926W        W54241  19.994  36.400  12.883
81927W        W54242  13.795  39.617   0.728
81928W        W54243  23.513  20.481  11.567
81929W        W54244  14.723   1.686   4.161
81930W        W54245  35.626   6.411  11.143
81931W        W54246  20.609  39.380  13.617
81932W        W54247   4.666  21.139   4.132
81933W        W54248  42.993  10.869   3.088
81934W        W54249   3.246   9.129  13.831
81935W        W54250   4.004   3.886  10.737
81936W        W54251  35.386  10.382  14.023
81937W        W54252   8.412   2.312  11.507
81938W        W54253  14.435   0.878   2.117
81939W        W54254  43.768   5.256  13.398
81940W        W54255   2.156  15.104   0.816
81941W        W54256  29.384  28.665   0.317
81942W        W54257  14.165  21.029   0.351
81943W        W54258  18.691  39.888   2.727
81944W        W54259   1.793  36.793   1.251
81945W        W54260  20.175  22.791   3.703
81946W        W54261  44.158   6.235  13.146
81947W        W54262  21.878  38.740   4.248
81948W        W54263  37.861  11.070   2.438
81949W        W54264  19.136  40.777   3.722
81950W        W54265  42.903  26.227  13.014
81951W        W54266   1.951   3.682   0.487
81952W        W54267  44.908  20.698   2.989
81953W        W54268  20.321  22.702   0.005
81954W        W54269  14.396  29.548  12.088
81955W        W54270  18.221  32.712   4.281
81956W        W54271  21.253  14.205  10.228
81957W        W54272  27.333  13.570  12.225
81958W        W54273  37.755  19.812   4.074
81959W        W54274  25.477   2.431   1.893
81960W        W54275  28.252   0.683   4.870
81961W        W54276  42.861  42.023   5.104
81962W        W54277  22.704  10.787  10.640
81963W        W54278  24.395  10.619   3.314
81964W        W54279   3.692  25.720  13.987
81965W        W54280  19.166  14.708  13.709
81966W        W54281  22.290   6.866  10.492
81967W        W54282   0.169  13.635  14.709
81968W        W54283   7.844   1.505   2.807
81969W        W54284  19.733  24.515   3.195
81970W        W54285  38.486  20.887  14.821
81971W        W54286  16.865  22.234  10.962
81972W        W54287  19.769  29.726  11.560
81973W        W54288  41.978  28.909  10.586
81974W        W54289  34.892  26.719   3.046
81975W        W54290  39.990  36.402   3.139
81976W        W54291   6.889  28.410  11.576
81977W        W54292   6.213  20.121   0.918
81978W        W54293  13.732  25.289   0.210
81979W        W54294   8.201   1.306   4.164
81980W        W54295  34.243   8.404  14.868
81981W        W54296  17.716  43.791  13.083
81982W        W54297  37.483  10.114  11.600
81983W        W54298   3.731  26.449   4.784
81984W        W54299  31.682  16.617  10.659
81985W        W54300  41.837  35.949  14.954
81986W        W54301  32.665   1.465  12.056
81987W        W54302  35.147  28.308   3.525
81988W        W54303   9.221  31.353   4.393
81989W        W54304   9.697   6.155  14.052
81990W        W54305  31.536  32.907   0.908
81991W        W54306  13.750  41.050   1.276
81992W        W54307  19.002  20.089   0.579
81993W        W54308   3.874  33.509  13.523
81994W        W54309   4.462   1.611   5.091
81995W        W54310   1.669  15.599   4.513
81996W        W54311  29.141  41.849   3.167
81997W        W54312   2.187  19.125   3.891
81998W        W54313  15.554  35.139   1.442
81999W        W54314  27.447   8.335  12.944
82000W        W54315  32.499  19.764  11.593
82001W        W54316  34.297   4.826  10.679
82002W        W54317  22.032   1.331   4.579
82003W        W54318  40.571  41.296  11.723
82004W        W54319  26.021  12.773   0.718
82005W        W54320  18.640  17.360   4.923
82006W        W54321  22.499  42.353  14.457
82007W        W54322  43.444  21.303  11.247
82008W        W54323  29.603  14.546  11.218
82009W        W54324  25.688  10.412  12.051
82010W        W54325  34.884  11.162  14.868
82011W        W54326   3.139  19.661  10.660
82012W        W54327  16.276  38.943  12.046
82013W        W54328   6.841  14.133  13.792
82014W        W54329   3.345  17.688   3.673
82015W        W54330  13.387  43.197  11.529
82016W        W54331  22.757  31.807  14.697
82017W        W54332  14.337  34.528  13.764
82018W        W54333  40.790  30.467  11.569
82019W        W54334   9.276  31.307   0.673
82020W        W54335  37.113   1.657   0.063
82021W        W54336  38.049   4.991  13.304
82022W        W54337  19.037  20.595   1.291
82023W        W54338  33.513  12.880  13.847
82024W        W54339  27.224  22.739   2.332
82025W        W54340  27.956  38.045  12.049
82026W        W54341  43.797  40.644   1.604
82027W        W54342  40.720  20.235   0.370
82028W        W54343  27.051   1.876  13.304
82029W        W54344  16.115  33.296   2.643
82030W        W54345  42.827  10.664   0.937
82031W        W54346  13.448  15.165   3.626
82032W        W54347  37.072  26.727  13.865
82033W        W54348  40.124   0.039  13.855
82034W        W54349  25.940  12.280   1.288
82035W        W54350  40.410   6.702  14.868
82036W        W54351  25.194  15.351  11.980
82037W        W54352  17.868   0.225   0.748
82038W        W54353  33.543  33.497  12.415
82039W        W54354  40.963  25.067  12.443
82040W        W54355  16.421  20.085  14.106
82041W        W54356  15.270  18.291   2.809
82042W        W54357  36.089  28.630   2.746
82043W        W54358  38.196  32.096  12.892
82044W        W54359  38.975  29.447  14.077
82045W        W54360  33.375  20.119   2.724
82046W        W54361  19.265  39.008   1.859
82047W        W54362  28.212  17.740   0.067
82048W        W54363  22.513  24.458  13.636
82049W        W54364  23.141   0.876  14.005
82050W        W54365  17.712  26.098  14.969
82051W        W54366   1.506  35.087   2.329
82052W        W54367  44.984   1.729   0.229
82053W        W54368  34.674  17.231   2.858
82054W        W54369  33.649  29.623   4.520
82055W        W54370   6.977  17.556   4.075
82056W        W54371  36.932   3.043   4.894
82057W        W54372  32.490   3.268  11.823
82058W        W54373  33.595  30.561  13.000
82059W        W54374  24.574  12.438  13.407
82060W        W54375  25.681  42.831   3.255
82061W        W54376  35.145   8.216  14.681
82062W        W54377   1.658  41.753  14.403
82063W        W54378  31.968  38.313  13.846
82064W        W54379  10.540   2.140  12.342
82065W        W54380   7.801  42.356  14.678
82066W        W54381   3.953  34.714  12.395
82067W        W54382  36.108  23.463   4.747
82068W        W54383  38.449  31.387   2.023
82069W        W54384   1.203  23.532   4.404
82070W        W54385  38.944   1.775   0.075
82071W        W54386  35.342   5.844  11.971
82072W        W54387   4.215   7.917   1.375
82073W        W54388   6.227  27.236   3.350
82074W        W54389  40.036  38.646   3.399
82075W        W54390  42.987  41.258   3.951
82076W        W54391  25.090  29.210  12.443
82077W        W54392  13.909  42.337  14.293
82078W        W54393  15.756  26.251  14.723
82079W        W54394  14.023  11.134  13.381
82080W        W54395   5.494  29.522   2.040
82081W        W54396  22.064   7.838   4.065
82082W        W54397  27.599  12.514   0.424
82083W        W54398   2.911  30.625   3.791
82084W        W54399   1.104  15.881  14.463
82085W        W54400  14.474  33.880  11.645
82086W        W54401   3.259  36.013   0.507
82087W        W54402  32.951  16.667   1.292
82088W        W54403  24.686   7.632   0.431
82089W        W54404  16.027  19.748  12.859
82090W        W54405  14.178  41.722   0.685
82091W        W54406   2.945   1.955  12.045
82092W        W54407  23.025  16.102   4.025
82093W        W54408  16.322  20.094  13.143
82094W        W54409  25.652  40.701   1.726
82095W        W54410  22.699   8.325  14.112
82096W        W54411  39.891   3.609   4.537
82097W        W54412  34.137   0.910  11.246
82098W        W54413   5.734  41.759   3.241
82099W        W54414  40.090  21.020  12.670
82100W        W54415  14.556  22.833   1.199
82101W        W54416  27.487  43.699   0.461
82102W        W54417  35.933   9.870  11.458
82103W        W54418  27.380  24.536   0.997
82104W        W54419  33.965  40.732  11.518
82105W        W54420  18.570  38.565   4.490
82106W        W54421   9.190  14.109   2.837
82107W        W54422  12.447  14.406   0.749
82108W        W54423  26.054  25.606  14.913
82109W        W54424  22.410  38.631   4.240
82110W        W54425  18.078  35.126  13.436
82111W        W54426  17.081  35.308  12.535
82112W        W54427  32.944   6.854  14.587
82113W        W54428  33.521  40.277   2.193
82114W        W54429  38.063   0.936  10.746
82115W        W54430  19.140  26.117  14.442
82116W        W54431  25.061   5.730   1.647
82117W        W54432  35.080  14.665   3.939
82118W        W54433   1.920   3.869  11.886
82119W        W54434  35.176  28.425  11.968
82120W        W54435   7.351  39.542   0.690
82121W        W54436  16.257  11.915   2.763
82122W        W54437  43.607   2.091   1.854
82123W        W54438  26.524  10.719   3.126
82124W        W54439  39.891   6.787  14.747
82125W        W54440  38.942  15.697   4.278
82126W        W54441  28.328   1.406  10.097
82127W        W54442  44.361  26.764  13.041
82128W        W54443  19.088   5.741  10.485
82129W        W54444  38.069  30.682   4.208
82130W        W54445  32.497  40.740   4.841
82131W        W54446  43.426  21.806   2.408
82132W        W54447  44.897  44.172   2.917
82133W        W54448  11.122   8.395   0.344
82134W        W54449  24.564  39.402  12.966
82135W        W54450  13.751  34.587   4.400
82136W        W54451  27.090  28.079   1.017
82137W        W54452  36.774  33.434   2.790
82138W        W54453  26.696  43.114   4.539
82139W        W54454  26.606   7.776   0.939
82140W        W54455  37.168   9.331  13.048
82141W        W54456  21.906  41.995   4.683
82142W        W54457  18.978  23.700  14.275
82143W        W54458  16.584  23.155   0.032
82144W        W54459  41.619  17.276  10.683
82145W        W54460  13.015  25.166   4.634
82146W        W54461  28.961  17.023  13.112
82147W        W54462  27.546  38.120   3.342
82148W        W54463  41.976   0.734  10.795
82149W        W54464  41.520   3.784   4.087
82150W        W54465  18.834  25.105  11.726
82151W        W54466   9.433  11.866  10.200
82152W        W54467   8.649  12.864   0.264
82153W        W54468  14.094  18.747  13.641
82154W        W54469   0.796  30.560   3.617
82155W        W54470  19.243  15.170  13.931
82156W        W54471  36.881  31.201   0.715
82157W        W54472  15.613  41.595   2.650
82158W        W54473  23.021  26.461  13.050
82159W        W54474   6.652  33.405   1.739
82160W        W54475  20.848  33.590  12.862
82161W        W54476  36.901  16.513  10.696
82162W        W54477  21.750   5.320   3.376
82163W        W54478  14.153  32.389   2.218
82164W        W54479   2.277  40.757  10.635
82165W        W54480  28.620  14.883  10.462
82166W        W54481  15.746  24.438  12.142
82167W        W54482  12.292  12.779   0.031
82168W        W54483  39.231  38.100  14.352
82169W        W54484  22.035  13.748  14.441
82170W        W54485  33.003  18.667   1.427
82171W        W54486  43.871  17.862  12.476
82172W        W54487  11.492  32.381   1.253
82173W        W54488  44.355  23.062   1.160
82174W        W54489  37.959  11.978  10.272
82175W        W54490  18.578   6.924  13.476
82176W        W54491  26.715  29.075   4.183
82177W        W54492  11.709   8.318  12.053
82178W        W54493  12.743  12.828   1.724
82179W        W54494   3.662  21.813  11.151
82180W        W54495  13.794  12.888  13.499
82181W        W54496  21.757  17.672   2.332
82182W        W54497  10.891  10.801   0.877
82183W        W54498  44.714  32.835  14.761
82184W        W54499  20.283   1.375  11.707
82185W        W54500  38.506  22.316   4.665
82186W        W54501   7.390  15.637   0.398
82187W        W54502   3.923   4.809   2.384
82188W        W54503  33.964  15.737   0.759
82189W        W54504   0.941  12.145  12.058
82190W        W54505   5.125  33.630   0.934
82191W        W54506  24.000   0.835   4.661
82192W        W54507  41.896  13.247  14.531
82193W        W54508   8.116   5.351   3.640
82194W        W54509  17.185  13.885   2.297
82195W        W54510  25.552  10.340  14.783
82196W        W54511  17.522   5.355  14.212
82197W        W54512   4.683  34.280   3.193
82198W        W54513  20.677  15.293   3.103
82199W        W54514  42.781   2.673   3.848
82200W        W54515   1.407  38.537  13.538
82201W        W54516  18.459  26.636  14.814
82202W        W54517  11.175  23.950  10.713
82203W        W54518   9.799  35.602  13.514
82204W        W54519   5.747  33.504  14.168
82205W        W54520  26.920  10.346  14.888
82206W        W54521  14.583  23.279   0.344
82207W        W54522  30.968  19.863   1.275
82208W        W54523  14.739  23.142   2.872
82209W        W54524  39.124  26.812   4.581
82210W        W54525  20.086  23.178   4.586
82211W        W54526  44.552  44.339  13.209
82212W        W54527  21.730  10.367  10.555
82213W        W54528  24.469  14.127  11.637
82214W        W54529   3.056  41.831  11.924
82215W        W54530  32.504  17.182   2.103
82216W        W54531  19.282  34.500   1.238
82217W        W54532  32.721  12.102   0.325
82218W        W54533  26.483  19.126  13.529
82219W        W54534  27.011  21.672   0.374
82220W        W54535   5.608   4.487  12.496
82221W        W54536   9.779   5.949  14.818
82222W        W54537  26.113  33.562   1.788
82223W        W54538  19.725  15.333  13.314
82224W        W54539  41.899  26.577   4.703
82225W        W54540  38.755  40.782  12.317
82226W        W54541  15.135  12.223  11.233
82227W        W54542   9.026  10.661  11.630
82228W        W54543  30.795  12.465   4.829
82229W        W54544  36.277  10.396   2.297
82230W        W54545   9.243   7.413  11.082
82231W        W54546  17.756  29.869  14.052
82232W        W54547  14.767  16.677   4.201
82233W        W54548  20.801  19.793   4.294
82234W        W54549  39.975  11.618  13.664
82235W        W54550  37.144   4.329  12.514
82236W        W54551  37.800   8.822  11.509
82237W        W54552  30.756  34.467  11.925
82238W        W54553  26.019   2.875  12.208
82239W        W54554  11.925  23.951  11.137
82240W        W54555  41.163  12.829  13.974
82241W        W54556   6.946  41.311   3.967
82242W        W54557  17.339  18.959  12.190
82243W        W54558   4.735  43.019   0.084
82244W        W54559  21.293  20.705  11.219
82245W        W54560  29.115  34.512   4.709
82246W        W54561  17.126  18.375  11.077
82247W        W54562  33.374  23.641  10.336
82248W        W54563  10.398  32.483  13.422
82249W        W54564   3.822  41.226   4.695
82250W        W54565  30.711  14.731  12.999
82251W        W54566  20.482  43.356   3.165
82252W        W54567   6.728  14.778  10.616
82253W        W54568  11.197  12.867   4.870
82254W        W54569  31.989  28.327  13.439
82255W        W54570   7.723   4.186   0.493
82256W        W54571   8.358   1.005  11.856
82257W        W54572  38.851  30.875  11.104
82258W        W54573  10.655   7.446   3.711
82259W        W54574  40.833  21.643   4.832
82260W        W54575  21.962  11.727   4.528
82261W        W54576  35.886  18.962   4.053
82262W        W54577  11.780  31.038   0.511
82263W        W54578  39.828  30.595   0.174
82264W        W54579  17.345   3.906   3.773
82265W        W54580  10.698  19.993   0.232
82266W        W54581  38.483  40.724   1.938
82267W        W54582  42.867  39.948   1.862
82268W        W54583  32.450  21.916   2.418
82269W        W54584  41.533  38.728   0.138
82270W        W54585  33.037   5.312  12.408
82271W        W54586  40.001  11.842   0.117
82272W        W54587   6.264   8.433   2.407
82273W        W54588  19.324  42.824  14.818
82274W        W54589   3.552  23.996   4.993
82275W        W54590   9.375  17.678   3.100
82276W        W54591  32.445  24.981   4.515
82277W        W54592  37.778  18.281  13.817
82278W        W54593  21.490  23.158   4.197
82279W        W54594   1.977   2.679  13.915
82280W        W54595   8.367  36.335  11.966
82281W        W54596  14.265  18.324   1.380
82282W        W54597  17.244  31.208   1.281
82283W        W54598  43.919  31.396   1.842
82284W        W54599  16.845  21.570   1.625
82285W        W54600  15.478   0.352  14.455
82286W        W54601  23.647  33.461   1.242
82287W        W54602   4.892   9.807  13.289
82288W        W54603  11.583  41.034   4.831
82289W        W54604  38.828  41.212   0.409
82290W        W54605   6.960  13.406   0.859
82291W        W54606   8.783  27.034  12.623
82292W        W54607  35.265   4.497   4.239
82293W        W54608   1.564  21.951  14.254
82294W        W54609  11.682  34.173   3.701
82295W        W54610  28.068   4.303   4.468
82296W        W54611  37.999   0.019  10.796
82297W        W54612  31.501  31.413  11.944
82298W        W54613   4.726  14.325   2.381
82299W        W54614  29.064  43.510  11.557
82300W        W54615  29.554  14.079   1.263
82301W        W54616  24.681  19.059  10.422
82302W        W54617  28.314  41.431  13.007
82303W        W54618  13.259  10.848  12.526
82304W        W54619  15.825  22.078   2.320
82305W        W54620   9.475  29.209   1.460
82306W        W54621   8.451  28.511  10.555
82307W        W54622  30.852  31.993  11.480
82308W        W54623  39.433   4.912   3.661
82309W        W54624  25.570  43.940  11.998
82310W        W54625   6.984   1.105   2.866
82311W        W54626   4.507   4.013   3.737
82312W        W54627  34.821  38.385  13.852
82313W        W54628  29.905   8.952   1.244
82314W        W54629  29.554  39.002  12.494
82315W        W54630  37.131  24.613   5.561
82316W        W54631  29.819  38.821   4.161
82317W        W54632  31.960  44.899   0.352
82318W        W54633   3.394  19.691   3.888
82319W        W54634  30.232  22.232   1.983
82320W        W54635   5.794  23.557  13.081
82321W        W54636  38.065  19.039  14.760
82322W        W54637  11.391  24.703   4.875
82323W        W54638  43.219  20.169   1.319
82324W        W54639   6.607  37.345   0.774
82325W        W54640  31.510   6.617   1.386
82326W        W54641  43.959  32.856   2.831
82327W        W54642  19.450  43.336   3.280
82328W        W54643  15.836  20.144  11.196
82329W        W54644  33.649  16.095  10.062
82330W        W54645   0.539   5.720  14.334
82331W        W54646  30.368   8.162   1.385
82332W        W54647   5.853  44.354   0.782
82333W        W54648   6.799   8.342   3.841
82334W        W54649   4.758   0.039  14.921
82335W        W54650  17.816  16.765  12.879
82336W        W54651  39.621  43.901  11.954
82337W        W54652  10.891  28.652   2.890
82338W        W54653  40.914   5.603  10.598
82339W        W54654   7.210  12.814  12.242
82340W        W54655  30.655  43.042  13.569
82341W        W54656  38.573  19.030  11.140
82342W        W54657  40.504  42.364  10.461
82343W        W54658  39.501  34.055   3.738
82344W        W54659  38.265  33.905   2.224
82345W        W54660  24.242  16.917  10.347
82346W        W54661   2.177   3.210  14.567
82347W        W54662   1.509  16.275   3.307
82348W        W54663  35.376  13.698   4.571
82349W        W54664  19.022  10.201   4.078
82350W        W54665  36.333  28.872  12.509
82351W        W54666   5.229  21.248  12.083
82352W        W54667   7.608  30.139   2.258
82353W        W54668  44.031   6.883   0.313
82354W        W54669  31.537   9.784   4.906
82355W        W54670   3.828  24.938  13.507
82356W        W54671  26.619  11.721  13.540
82357W        W54672   1.891  15.285   4.151
82358W        W54673   1.345  19.391   0.289
82359W        W54674   7.380   9.824  11.516
82360W        W54675  31.250   0.173   2.461
82361W        W54676   4.184  38.977  14.767
82362W        W54677  33.597  13.204  10.497
82363W        W54678  10.151  35.130   5.117
82364W        W54679  27.647  42.544  12.061
82365W        W54680  41.942  27.084   0.444
82366W        W54681  26.028  23.523   4.538
82367W        W54682  38.026  15.165  10.985
82368W        W54683  37.643  16.705   1.373
82369W        W54684   2.728  11.281   1.756
82370W        W54685  13.894  11.227  12.864
82371W        W54686  27.079  34.275  10.623
82372W        W54687  36.892  34.910  11.480
82373W        W54688  21.567  31.371  13.931
82374W        W54689  14.162  36.318   0.375
82375W        W54690  30.303   1.557  11.300
82376W        W54691  35.606  28.710   1.466
82377W        W54692  14.780  11.023  12.070
82378W        W54693  18.031   7.157  12.551
82379W        W54694  10.586  19.056   5.046
82380W        W54695   1.457   1.482   0.022
82381W        W54696  33.665   3.450   4.164
82382W        W54697   4.156  19.357   1.641
82383W        W54698  31.440  35.497  14.936
82384W        W54699   3.035   5.763  11.717
82385W        W54700  35.116  10.336  14.701
82386W        W54701  15.357  11.739  11.217
82387W        W54702  30.374  34.775  11.087
82388W        W54703  39.277  12.754  12.869
82389W        W54704  19.288  21.969   1.795
82390W        W54705  44.211  32.878   3.331
82391W        W54706   3.697  42.303  13.797
82392W        W54707  27.648  13.140   3.122
82393W        W54708   6.543  34.901   1.741
82394W        W54709  22.688  29.160  13.410
82395W        W54710  20.667  38.804   0.372
82396W        W54711   3.117  41.063  12.242
82397W        W54712   5.970   3.509   0.390
82398W        W54713   9.856  41.912   1.397
82399W        W54714   5.468  18.997  10.743
82400W        W54715   7.025  42.502   0.823
82401W        W54716  10.464  40.072   1.185
82402W        W54717  22.230  34.760   4.266
82403W        W54718  37.575   6.299   4.560
82404W        W54719   4.745  37.510   2.690
82405W        W54720   5.991  27.213   2.459
82406W        W54721  17.829  37.975  10.731
82407W        W54722  27.556  15.305   1.258
82408W        W54723  41.853   7.907   2.532
82409W        W54724   1.421  28.389   1.332
82410W        W54725  16.162  30.707   2.815
82411W        W54726  32.666  35.516  13.733
82412W        W54727  36.573   4.369   4.751
82413W        W54728  39.284  15.572  12.339
82414W        W54729   2.577  41.863  11.724
82415W        W54730   2.149  28.904  14.272
82416W        W54731   5.333  11.097   4.080
82417W        W54732  27.414   1.209   1.064
82418W        W54733  27.231   2.723  14.867
82419W        W54734  18.124  17.680  14.992
82420W        W54735  42.988  18.103  12.855
82421W        W54736  10.850  13.229   1.807
82422W        W54737  21.519  33.248   0.887
82423W        W54738  22.015   2.856  12.841
82424W        W54739  12.369   8.160   3.407
82425W        W54740  31.571  25.969   1.892
82426W        W54741  33.951  17.624   0.933
82427W        W54742  24.774  21.457  13.149
82428W        W54743  33.803  30.244   2.110
82429W        W54744   1.160  15.818   3.636
82430W        W54745  23.236   8.323  11.941
82431W        W54746  32.392  16.568  14.959
82432W        W54747  39.281  31.530  14.855
82433W        W54748  20.673  26.980  12.815
82434W        W54749  40.027  24.451   2.004
82435W        W54750   6.762  27.193   0.840
82436W        W54751  18.647  13.330  13.866
82437W        W54752  31.551  30.332  11.110
82438W        W54753  31.427  36.205  14.016
82439W        W54754  36.599  18.605  14.499
82440W        W54755  34.803  35.019   0.178
82441W        W54756   2.235  36.572  10.441
82442W        W54757   0.774  42.845   1.149
82443W        W54758  24.722   8.724   3.396
82444W        W54759  41.141  39.785  13.305
82445W        W54760  24.718   9.698   1.297
82446W        W54761  20.503  12.803   2.556
82447W        W54762  21.696   2.699  12.474
82448W        W54763   3.300  30.537   1.323
82449W        W54764   0.456   6.080   2.451
82450W        W54765  37.838  29.528  13.853
82451W        W54766  40.489   8.330  10.757
82452W        W54767  21.813  40.479   1.061
82453W        W54768  13.286  15.109  13.738
82454W        W54769  34.092  37.791  14.461
82455W        W54770  41.990   9.634   4.113
82456W        W54771  19.658  18.277  10.298
82457W        W54772  36.117  15.805   0.126
82458W        W54773  10.365   6.247   4.912
82459W        W54774  24.545  30.647  13.554
82460W        W54775  14.037  35.004   4.317
82461W        W54776  31.119  41.820   4.317
82462W        W54777  19.076  11.250   5.072
82463W        W54778  34.841  31.364   3.665
82464W        W54779   2.245   8.583  11.162
82465W        W54780  10.193  42.936   0.017
82466W        W54781  37.088   0.944  12.472
82467W        W54782  24.072   8.105  11.493
82468W        W54783   6.718  17.740   2.228
82469W        W54784  15.508  29.522  13.878
82470W        W54785   3.981   0.607   3.834
82471W        W54786  15.951  17.773  14.864
82472W        W54787  20.913  31.548   1.813
82473W        W54788  26.905   3.761   2.878
82474W        W54789  31.598  36.443  12.472
82475W        W54790  25.001   9.231   5.047
82476W        W54791   7.411  15.754   2.293
82477W        W54792   9.156   8.893  14.951
82478W        W54793  32.668  20.832   3.054
82479W        W54794  42.874  38.727  13.119
82480W        W54795  26.338  38.043   3.554
82481W        W54796  22.546  16.114   4.226
82482W        W54797   2.228   3.713   5.021
82483W        W54798  22.592  34.937   3.809
82484W        W54799   2.542   5.310  14.960
82485W        W54800  32.381  18.491  13.222
82486W        W54801  20.687   2.019  13.395
82487W        W54802  10.157  10.145  10.861
82488W        W54803  20.525  28.655  11.382
82489W        W54804  20.819   3.023  14.301
82490W        W54805  14.590  34.223  14.385
82491W        W54806  36.539  43.460   0.904
82492W        W54807   7.620   5.912  12.530
82493W        W54808  18.492  36.832   2.790
82494W        W54809  35.815  15.803   1.398
82495W        W54810  11.718  38.638   3.792
82496W        W54811  34.481  24.167   2.411
82497W        W54812   0.066   9.272   4.606
82498W        W54813  14.555  21.785  11.194
82499W        W54814  19.033  31.975  11.620
82500W        W54815   6.233  12.185   4.077
82501W        W54816  22.448  18.637   4.611
82502W        W54817  39.375  35.605   3.162
82503W        W54818  32.921  29.599  14.402
82504W        W54819  34.067  27.079   1.189
82505W        W54820   1.404  21.202  14.982
82506W        W54821   8.147  30.058  10.819
82507W        W54822  24.877  38.008  13.022
82508W        W54823  33.496  13.145  14.364
82509W        W54824  42.506  18.778  12.022
82510W        W54825  14.725   8.516   4.749
82511W        W54826  40.486   0.658   0.958
82512W        W54827  31.667  11.520  10.659
82513W        W54828  10.219  32.057  10.399
82514W        W54829   1.961  22.728  11.117
82515W        W54830  23.575  17.767   4.646
82516W        W54831  28.422  13.099   9.704
82517W        W54832  35.365  17.261   1.339
82518W        W54833  11.697  22.555   4.601
82519W        W54834  23.367  26.935   3.288
82520W        W54835  25.612  33.898  11.631
82521W        W54836  35.477  26.081   0.970
82522W        W54837   8.682  43.729   3.315
82523W        W54838  28.487   9.873   4.629
82524W        W54839   4.432  23.593  10.696
82525W        W54840  16.290   3.515  13.359
82526W        W54841  24.450   6.543   4.925
82527W        W54842  26.068  33.439   2.693
82528W        W54843  34.020   4.278   2.816
82529W        W54844   2.493  23.743  12.537
82530W        W54845  23.128  28.718   4.120
82531W        W54846  30.608  16.879   0.524
82532W        W54847  35.189  18.122   2.929
82533W        W54848   9.200   1.060  11.153
82534W        W54849  13.581  29.997   3.323
82535W        W54850  35.160   9.170   2.405
82536W        W54851  44.481   0.461  11.730
82537W        W54852   3.498  23.926   0.966
82538W        W54853  27.126  31.490   9.803
82539W        W54854  26.942  12.219  11.120
82540W        W54855  14.152  11.825  12.970
82541W        W54856  17.194  28.229   5.063
82542W        W54857  14.365  35.439   4.684
82543W        W54858   2.301  10.322  14.030
82544W        W54859  26.147  38.402   3.233
82545W        W54860   4.493  22.179   3.684
82546W        W54861  44.911  22.918   1.834
82547W        W54862  12.299  22.009  14.803
82548W        W54863  16.642  44.922   0.908
82549W        W54864  29.852  17.156   1.810
82550W        W54865  31.204  16.737  12.084
82551W        W54866  40.808  23.709  13.717
82552W        W54867  34.503   3.321   4.658
82553W        W54868   0.849  15.254  11.201
82554W        W54869   6.664  44.127  13.891
82555W        W54870   2.854  34.808  14.485
82556W        W54871  31.922  32.909   2.151
82557W        W54872  22.561  11.396   1.677
82558W        W54873  44.585  10.178  13.165
82559W        W54874  16.758  19.819   4.148
82560W        W54875  40.021  24.888   0.030
82561W        W54876  20.602  32.372  11.097
82562W        W54877  33.385  40.801   3.802
82563W        W54878  20.207  38.213  11.629
82564W        W54879  20.753   7.193   1.828
82565W        W54880   5.239  44.087   0.885
82566W        W54881  14.435   6.771   0.522
82567W        W54882   2.788  30.035  11.145
82568W        W54883  10.484  43.726   0.926
82569W        W54884  17.300  16.664  11.672
82570W        W54885  14.264  36.298  11.613
82571W        W54886  15.621  22.717  10.749
82572W        W54887  32.386   5.298  14.783
82573W        W54888  15.213  29.212   5.019
82574W        W54889  37.094   0.795   2.888
82575W        W54890   1.866  37.522   4.419
82576W        W54891  22.776  44.212  11.140
82577W        W54892  41.464  10.705   0.670
82578W        W54893  28.388  12.448   2.429
82579W        W54894  27.118   3.285   2.760
82580W        W54895   3.921   7.041   1.263
82581W        W54896  33.431   6.931  12.398
82582W        W54897   0.389  30.357   2.951
82583W        W54898  33.599  26.964  11.621
82584W        W54899   6.151  10.732   1.172
82585W        W54900  16.817  12.324   1.299
82586W        W54901  24.469  40.154  11.036
82587W        W54902   7.122  29.860  11.403
82588W        W54903  15.874  30.533   3.604
82589W        W54904  25.535  29.107  13.600
82590W        W54905  25.065   7.316   3.197
82591W        W54906   9.291  13.512  13.835
82592W        W54907   6.404  25.627   2.408
82593W        W54908   1.535  15.750   3.286
82594W        W54909  28.895  41.701   3.594
82595W        W54910  43.942  26.453   3.696
82596W        W54911   7.308   0.980   3.260
82597W        W54912  25.991   4.227  13.735
82598W        W54913  36.102  23.183  14.098
82599W        W54914  11.285   6.821  13.939
82600W        W54915  25.184  16.201   1.732
82601W        W54916   0.628   5.970   4.148
82602W        W54917  40.557  43.025  12.968
82603W        W54918   8.885  11.954  13.267
82604W        W54919  40.211  19.581  10.632
82605W        W54920  39.209  28.921   4.148
82606W        W54921  26.757  38.576  10.170
82607W        W54922  23.121  16.117  14.809
82608W        W54923  18.729   3.589   5.039
82609W        W54924   1.227  28.604  13.225
82610W        W54925  11.895  42.038   3.038
82611W        W54926  32.373  30.817   0.799
82612W        W54927  23.844  42.063  12.883
82613W        W54928  29.077  44.064  13.806
82614W        W54929  39.551  27.881  14.911
82615W        W54930   4.592  36.809   0.772
82616W        W54931  30.996  42.695   2.914
82617W        W54932   7.979  23.008  11.331
82618W        W54933  13.636  27.575   1.827
82619W        W54934  31.095   8.774   0.769
82620W        W54935  13.096  37.113  11.399
82621W        W54936  20.528  14.084  12.640
82622W        W54937  22.596  19.775   2.150
82623W        W54938  16.187  32.805   1.306
82624W        W54939  24.673  41.937  14.067
82625W        W54940  40.503  16.819   3.434
82626W        W54941   5.723  30.814  13.558
82627W        W54942   3.206   8.671   1.845
82628W        W54943  13.581   6.695   4.645
82629W        W54944   9.990  11.675  14.991
82630W        W54945  31.212  41.363   2.182
82631W        W54946  18.191  24.694   3.118
82632W        W54947  34.293  28.691  11.094
82633W        W54948  32.924  30.937  14.866
82634W        W54949  32.083   1.413  10.725
82635W        W54950  20.162  19.108  14.666
82636W        W54951  23.636  16.867  12.792
82637W        W54952  18.020   3.837   2.812
82638W        W54953  25.152  28.474  14.497
82639W        W54954  36.789  38.791  12.423
82640W        W54955  27.772  28.063   1.211
82641W        W54956  42.291   9.149  11.763
82642W        W54957  23.359   2.463   0.540
82643W        W54958  43.806  36.823   3.184
82644W        W54959  24.229  39.998  12.438
82645W        W54960  13.833  23.235   4.536
82646W        W54961  29.112   6.480  12.413
82647W        W54962  38.060  38.563  14.950
82648W        W54963  10.609  28.142  11.969
82649W        W54964  30.224  24.247   2.216
82650W        W54965  34.024  10.976   4.528
82651W        W54966  42.102   5.588   3.795
82652W        W54967  24.265  22.133   1.225
82653W        W54968  18.770   2.054  14.005
82654W        W54969  35.994  10.818   2.383
82655W        W54970   9.345   1.028  13.641
82656W        W54971   2.327  27.208  13.532
82657W        W54972  26.409  10.892   1.279
82658W        W54973   4.002  30.799   0.885
82659W        W54974  42.433  18.333   2.295
82660W        W54975  33.438  27.531   1.645
82661W        W54976  29.518  34.818  14.832
82662W        W54977  34.499   8.220   1.902
82663W        W54978  14.928   2.461  13.996
82664W        W54979  14.609  34.728  13.331
82665W        W54980   2.874   8.181  12.791
82666W        W54981  27.460   0.920   4.129
82667W        W54982  18.629  14.199   2.429
82668W        W54983  33.870  10.398   3.658
82669W        W54984  12.409  33.786  11.009
82670W        W54985  19.182  21.443   1.844
82671W        W54986  14.059  26.150   1.891
82672W        W54987  25.174  35.850  13.530
82673W        W54988  34.929  38.490  11.936
82674W        W54989  35.871  24.574   1.625
82675W        W54990  39.612  38.309  11.954
82676W        W54991   5.641   5.750   4.296
82677W        W54992  24.364   2.851   3.066
82678W        W54993  29.559  10.376  11.509
82679W        W54994  19.323  42.034  11.062
82680W        W54995   1.806  16.625   0.631
82681W        W54996   5.900  34.135   3.842
82682W        W54997   7.304   4.471   1.783
82683W        W54998  32.554  39.066  14.482
82684W        W54999  41.245  32.681   1.447
82685W        W55000   3.850  15.125  14.098
82686W        W55001  17.627   9.890  12.842
82687W        W55002  13.173  41.544   1.744
82688W        W55003   5.785  16.348  11.594
82689W        W55004  40.142  37.327   1.907
82690W        W55005  35.148  27.165   3.271
82691W        W55006   3.761   7.689   2.151
82692W        W55007  34.337  44.259  11.005
82693W        W55008  25.300  33.479  10.041
82694W        W55009   4.830  38.907  13.790
82695W        W55010   8.327  16.991   0.173
82696W        W55011  44.882  14.813  10.689
82697W        W55012  21.623  11.762  10.632
82698W        W55013  34.065  32.605   0.464
82699W        W55014  21.222  21.190   0.949
82700W        W55015  31.641   6.174   0.359
82701W        W55016  31.355  10.092  13.267
82702W        W55017  25.469  20.870   5.415
82703W        W55018  21.505  34.022   4.148
82704W        W55019   6.913  17.255   1.854
82705W        W55020  35.950  19.762   1.531
82706W        W55021  25.254  14.587   0.241
82707W        W55022   9.825  13.597  12.435
82708W        W55023  42.653  39.975   4.464
82709W        W55024  30.676  21.890   2.758
82710W        W55025  22.986  35.940   2.250
82711W        W55026  34.883  44.889   3.976
82712W        W55027  34.523  43.082  12.557
82713W        W55028   0.502  44.835  11.253
82714W        W55029  40.381  38.903   3.755
82715W        W55030  29.974  29.760  11.859
82716W        W55031  18.241  25.216   3.279
82717W        W55032  28.048  17.632  11.478
82718W        W55033  17.209   5.672  14.507
82719W        W55034   4.308   9.147  12.011
82720W        W55035  36.078  35.812  14.505
82721W        W55036  37.987  25.135   5.059
82722W        W55037   6.788  32.906   1.696
82723W        W55038  19.217  35.207   4.554
82724W        W55039   0.352   1.551   4.119
82725W        W55040  41.882  35.076   2.253
82726W        W55041  36.410  36.522   2.213
82727W        W55042  32.133  29.892  11.547
82728W        W55043  37.422  29.999  13.473
82729W        W55044   2.269   4.754   0.215
82730W        W55045   8.744   5.635  11.624
82731W        W55046   6.187   0.786  13.477
82732W        W55047  44.745  43.073  14.086
82733W        W55048  38.703  31.760   2.256
82734W        W55049  32.643  25.979   1.685
82735W        W55050  23.986  18.569   4.711
82736W        W55051  33.932   9.139  14.338
82737W        W55052   1.692  12.263  14.357
82738W        W55053  31.189   9.852   2.781
82739W        W55054  18.963  38.331  14.435
82740W        W55055  43.718   1.302  11.436
82741W        W55056  43.905   6.112   1.465
82742W        W55057  12.116  25.205  14.901
82743W        W55058  30.037  30.057   4.365
82744W        W55059  32.190  44.862   1.211
82745W        W55060  43.606  22.340  11.575
82746W        W55061  14.398  32.491   4.593
82747W        W55062   6.632   4.857   1.236
82748W        W55063   2.747  24.411  13.545
82749W        W55064  19.928   7.434   1.673
82750W        W55065  19.632  14.873  13.032
82751W        W55066   5.444   5.232   3.183
82752W        W55067  42.306  35.663   3.876
82753W        W55068   7.898   8.818   2.913
82754W        W55069  24.643   5.168   2.270
82755W        W55070  43.477  26.181   3.639
82756W        W55071   1.873  25.802   2.385
82757W        W55072   4.847  34.023  14.471
82758W        W55073  43.696  41.773   3.648
82759W        W55074  37.733  38.057   3.672
82760W        W55075  40.369  37.497   3.616
82761W        W55076  17.624  19.277  11.225
82762W        W55077  15.390  29.025   2.557
82763W        W55078   0.206  27.682   0.778
82764W        W55079  24.297  12.604  14.002
82765W        W55080  43.652  42.773   0.739
82766W        W55081  25.553   9.872   0.468
82767W        W55082   9.698  15.425  10.450
82768W        W55083  19.741  32.908   2.146
82769W        W55084  17.482  30.955   4.812
82770W        W55085  44.228  33.505   1.083
82771W        W55086  27.399  43.964  11.645
82772W        W55087   4.360  23.890   3.252
82773W        W55088  39.267   8.953   1.753
82774W        W55089  20.507  28.911   1.409
82775W        W55090   8.079  28.593  13.369
82776W        W55091  42.036  18.661   4.714
82777W        W55092  42.257  28.478  14.462
82778W        W55093  11.644  34.593  14.315
82779W        W55094   0.988  41.408   5.044
82780W        W55095  10.291  26.585   4.953
82781W        W55096  29.038  43.221  11.123
82782W        W55097  11.957  15.752  10.393
82783W        W55098  17.326  38.984  14.867
82784W        W55099   6.844  18.194   2.852
82785W        W55100  36.398  27.614  10.554
82786W        W55101   2.236   4.791  10.578
82787W        W55102  31.486  16.238  14.241
82788W        W55103   4.921  44.714  12.606
82789W        W55104  20.161  28.206   2.669
82790W        W55105  29.934  43.268  11.132
82791W        W55106  23.629  23.059   4.117
82792W        W55107  31.347  22.535  11.704
82793W        W55108  39.040   2.264  10.421
82794W        W55109  10.610   5.111  11.557
82795W        W55110  33.398  15.160  12.393
82796W        W55111  19.127  12.291   3.891
82797W        W55112  28.694  35.960   0.980
82798W        W55113  33.477  44.652   1.169
82799W        W55114  12.281  13.247   2.673
82800W        W55115  19.129  41.120   0.913
82801W        W55116  14.277  13.373   1.320
82802W        W55117   2.336  36.820   3.549
82803W        W55118  23.573   9.941   4.759
82804W        W55119  44.771  16.713   0.628
82805W        W55120  36.545   6.139   3.759
82806W        W55121  22.656   5.908  10.461
82807W        W55122  29.906  34.103   4.612
82808W        W55123  16.337   1.929  12.420
82809W        W55124  27.239  20.340   3.624
82810W        W55125   3.369  22.022   0.167
82811W        W55126   5.842   5.163   1.390
82812W        W55127  34.835  18.660  11.203
82813W        W55128  34.827  22.248  10.795
82814W        W55129   3.675  22.726   2.716
82815W        W55130  19.637  11.150  12.841
82816W        W55131  14.752  24.045   2.354
82817W        W55132  41.027  29.523  12.859
82818W        W55133   3.801  31.183  12.049
82819W        W55134  22.828   1.864   5.163
82820W        W55135   2.923  19.706  13.818
82821W        W55136  44.883  21.601   1.079
82822W        W55137  36.739  16.116   3.705
82823W        W55138   2.463  37.981  12.028
82824W        W55139  39.014  40.619   1.154
82825W        W55140  37.781  12.345   1.759
82826W        W55141  21.166   3.910   4.634
82827W        W55142   9.620   5.443   2.761
82828W        W55143  11.378  25.151   3.800
82829W        W55144  14.733   9.100   1.752
82830W        W55145  41.598  38.195  12.369
82831W        W55146  44.732  31.912   3.716
82832W        W55147  17.388  14.920   2.314
82833W        W55148   8.436  36.804  11.017
82834W        W55149   3.266  30.791  11.133
82835W        W55150  38.080  35.518   4.726
82836W        W55151  11.624  12.260   4.528
82837W        W55152   7.316  13.504   1.263
82838W        W55153  32.600  33.006  12.064
82839W        W55154   0.242  17.618  14.805
82840W        W55155  14.162  16.679  14.989
82841W        W55156  44.600  20.568  14.059
82842W        W55157  41.478  34.903   0.964
82843W        W55158   2.937   5.804   1.561
82844W        W55159  19.051  12.158  13.045
82845W        W55160  23.612  18.260   4.942
82846W        W55161  37.354  26.451  10.554
82847W        W55162  20.667  37.412   3.590
82848W        W55163   8.799  28.489   3.736
82849W        W55164  23.618  23.204   3.633
82850W        W55165  17.255  26.393  14.025
82851W        W55166   8.068   7.662  12.952
82852W        W55167   5.782  34.883  12.459
82853W        W55168  33.414  12.610   1.240
82854W        W55169  42.991  15.635  14.045
82855W        W55170   2.861  35.052  14.030
82856W        W55171  24.552  20.015   1.841
82857W        W55172  14.765  44.952  14.141
82858W        W55173  41.330  18.149   0.337
82859W        W55174  16.633  31.554   1.820
82860W        W55175  42.907  10.087   1.791
82861W        W55176  41.085   4.821   1.498
82862W        W55177  14.355  18.350  11.497
82863W        W55178  29.926  43.435   4.713
82864W        W55179  18.314  25.873  11.509
82865W        W55180  23.617  37.354  13.130
82866W        W55181  29.170  40.064  11.465
82867W        W55182  22.235  19.044  11.582
82868W        W55183   3.278   9.635  14.944
82869W        W55184  33.348  14.290   0.631
82870W        W55185  15.481   5.878  14.002
82871W        W55186  12.114  12.583  12.578
82872W        W55187  29.392  26.595  13.327
82873W        W55188  27.196  21.483  11.510
82874W        W55189   0.494   1.789  13.334
82875W        W55190   2.969  17.258  13.388
82876W        W55191  43.272  31.066   2.958
82877W        W55192   0.347  31.002  11.384
82878W        W55193  31.408  40.132   1.828
82879W        W55194  43.787  42.930   5.136
82880W        W55195  19.739  25.429  14.895
82881W        W55196  41.951  32.046  14.332
82882W        W55197   5.226  42.543   4.221
82883W        W55198  31.137  40.788   1.945
82884W        W55199  13.484  43.974  10.613
82885W        W55200  33.151   0.590  13.655
82886W        W55201  26.969  16.159  13.850
82887W        W55202  33.111  29.078  13.107
82888W        W55203   2.927  16.386   2.156
82889W        W55204  42.509   5.280  12.147
82890W        W55205  31.352  16.374  13.760
82891W        W55206  14.304  39.336  12.496
82892W        W55207  11.119  25.077   0.087
82893W        W55208  40.766  22.995  12.401
82894W        W55209  18.240  30.486   9.777
82895W        W55210  24.813  15.576   1.278
82896W        W55211  25.147  18.020   0.348
82897W        W55212  38.880  44.865   0.328
82898W        W55213  27.476   1.325  10.603
82899W        W55214  13.253  28.102  11.942
82900W        W55215  13.226   5.138   3.244
82901W        W55216  27.261  29.193  14.546
82902W        W55217  22.572  13.075   3.377
82903W        W55218   4.970  29.991  13.777
82904W        W55219   4.071  25.918  14.318
82905W        W55220   5.764  32.885   3.685
82906W        W55221  18.762  40.645   0.885
82907W        W55222  33.300  34.420   1.334
82908W        W55223  36.841  19.274   1.888
82909W        W55224  29.111  30.165  14.774
82910W        W55225  30.504  34.607   3.021
82911W        W55226  34.047  28.510   4.326
82912W        W55227  14.184   2.224   2.521
82913W        W55228  13.291  41.397  11.754
82914W        W55229  18.884   1.826   4.895
82915W        W55230  15.729  33.114  11.105
82916W        W55231  17.558  42.104  10.270
82917W        W55232  34.089  27.582   4.314
82918W        W55233   1.139  22.744  10.636
82919W        W55234  29.174   5.852  13.451
82920W        W55235  41.431   4.908  13.912
82921W        W55236  17.163   6.109  13.365
82922W        W55237   0.699  13.036  11.909
82923W        W55238  23.664   7.813  11.587
82924W        W55239  18.176   2.242   0.790
82925W        W55240   3.212   4.103   0.229
82926W        W55241   2.015  20.076   1.362
82927W        W55242   0.885  36.402  12.476
82928W        W55243  28.657  18.210   2.452
82929W        W55244  32.471  33.401  14.423
82930W        W55245   7.589  36.947   4.225
82931W        W55246  31.409  17.220   0.733
82932W        W55247  13.085  40.294   3.688
82933W        W55248   7.480  32.937   1.475
82934W        W55249  38.757   0.419  11.031
82935W        W55250  19.536  27.692  11.582
82936W        W55251  17.201  37.984  11.099
82937W        W55252  38.490   1.437   3.649
82938W        W55253  28.103  32.716   0.878
82939W        W55254  27.668   3.920   3.783
82940W        W55255  12.200   9.675   1.328
82941W        W55256  21.205  32.482   1.918
82942W        W55257  30.605   1.700   4.866
82943W        W55258  10.821  42.516   3.889
82944W        W55259  22.089  15.080  10.701
82945W        W55260  16.273  25.816   3.681
82946W        W55261  30.934  30.244   1.402
82947W        W55262   0.917   1.011   3.707
82948W        W55263  25.484  43.530   1.289
82949W        W55264   4.368  12.499   3.847
82950W        W55265  27.126  35.543   2.680
82951W        W55266  10.754   0.917   3.330
82952W        W55267  39.987  20.220   3.519
82953W        W55268  22.472  38.106  13.111
82954W        W55269  40.780  15.131   1.577
82955W        W55270  19.811  26.719  14.786
82956W        W55271  25.775  18.820   3.657
82957W        W55272  16.255   2.945   2.397
82958W        W55273   5.242  37.874  12.883
82959W        W55274  29.644  22.040   0.520
82960W        W55275  29.078   9.721  14.218
82961W        W55276  11.336   2.439  14.400
82962W        W55277  38.159  23.038  12.107
82963W        W55278  29.616  42.238   0.826
82964W        W55279  44.957  32.790   3.760
82965W        W55280  35.937  39.801  12.129
82966W        W55281  13.241  37.211  14.986
82967W        W55282  13.295  36.305  13.993
82968W        W55283  30.691  42.735   4.484
82969W        W55284  18.663   8.820  12.113
82970W        W55285  37.917  42.103  13.090
82971W        W55286   0.891  17.536   3.136
82972W        W55287   0.313   0.014   0.650
82973W        W55288   0.913  27.020   3.058
82974W        W55289   5.657  16.117   3.426
82975W        W55290  28.142  42.889  12.047
82976W        W55291  37.443  40.645  14.736
82977W        W55292  32.679   0.793   1.932
82978W        W55293   2.046   5.538  12.067
82979W        W55294  10.771  37.597   2.625
82980W        W55295  14.083  42.685   0.839
82981W        W55296  32.213  23.280   5.119
82982W        W55297  28.629  34.372   3.381
82983W        W55298  28.474   3.953  12.878
82984W        W55299  36.521  26.847   0.491
82985W        W55300  27.106  30.002   1.715
82986W        W55301  20.658  10.741   2.828
82987W        W55302  39.014  29.013  10.615
82988W        W55303  27.958  23.947  13.860
82989W        W55304  29.552  18.288  10.816
82990W        W55305  24.254   7.774  13.651
82991W        W55306  28.920   2.755  13.358
82992W        W55307   5.841  22.165   0.295
82993W        W55308  34.049  12.548   1.795
82994W        W55309  40.170   4.724  11.037
82995W        W55310  16.654   4.005   1.876
82996W        W55311  23.127  43.193   1.292
82997W        W55312  33.218  35.019   2.665
82998W        W55313  20.166  40.058   3.764
82999W        W55314  42.436  19.026   1.786
83000W        W55315   8.479  16.676  13.886
83001W        W55316  43.399  22.660   0.462
83002W        W55317  30.928  13.395  11.605
83003W        W55318   5.849  11.334   0.167
83004W        W55319  14.090  37.133  10.685
83005W        W55320  18.296  20.564   2.176
83006W        W55321  44.758  13.806  13.097
83007W        W55322  36.445  30.890  11.214
83008W        W55323  38.411  21.762   3.747
83009W        W55324  41.818  26.133  11.465
83010W        W55325   1.049   8.863  12.269
83011W        W55326  26.664  35.444   1.607
83012W        W55327  32.149  11.394   2.799
83013W        W55328  21.646  26.441   1.640
83014W        W55329  43.970  17.557  10.682
83015W        W55330  35.486  30.457   3.225
83016W        W55331  16.131  32.433  12.806
83017W        W55332  43.874  26.155   3.261
83018W        W55333  29.972  10.082  10.673
83019W        W55334  39.028  29.597   4.698
83020W        W55335   5.608  37.624   0.904
83021W        W55336   1.153  18.110  14.011
83022W        W55337   9.894   9.867  12.918
83023W        W55338   5.799  38.795  12.402
83024W        W55339  29.123  17.807   0.813
83025W        W55340  29.450   2.379  10.728
83026W        W55341  29.068  38.042  11.068
83027W        W55342   0.803  18.651  12.798
83028W        W55343   2.339   9.595  11.424
83029W        W55344   0.223  26.542  14.000
83030W        W55345  33.883   8.234   0.741
83031W        W55346  23.580  25.963  11.172
83032W        W55347  35.307  41.926  12.510
83033W        W55348  28.921   8.719  14.521
83034W        W55349  29.065  40.198  13.411
83035W        W55350  17.556  31.270   0.865
83036W        W55351  31.963  39.382   2.025
83037W        W55352  34.566   0.611   4.017
83038W        W55353   1.981   8.757   3.222
83039W        W55354  12.283  10.476  10.969
83040W        W55355  30.914  19.549   1.719
83041W        W55356  40.789  31.516   1.797
83042W        W55357   5.460  29.051  14.796
83043W        W55358  11.226  13.285  11.674
83044W        W55359  19.445  28.135   1.120
83045W        W55360  43.083  15.581  11.140
83046W        W55361   8.848   9.901   4.385
83047W        W55362  42.058  28.836   3.625
83048W        W55363  13.694  36.929  12.702
83049W        W55364  28.343  13.584  13.749
83050W        W55365  24.949   9.186  12.047
83051W        W55366   5.255  32.111   2.644
83052W        W55367  12.349  15.620  12.594
83053W        W55368  39.009  36.875   3.561
83054W        W55369  37.831  36.888  14.436
83055W        W55370  15.637   4.919  14.832
83056W        W55371  12.457   0.326  11.509
83057W        W55372   3.749   4.896  10.707
83058W        W55373  19.974  24.619   3.665
83059W        W55374  24.185  13.421   4.664
83060W        W55375  12.846  35.795   2.806
83061W        W55376   1.466  23.052   1.766
83062W        W55377  30.446  37.180   4.207
83063W        W55378   4.496   2.535   1.906
83064W        W55379  16.113  39.412  11.854
83065W        W55380  16.650  19.040   4.634
83066W        W55381  19.919   7.482  11.553
83067W        W55382  26.163  18.680   0.242
83068W        W55383   6.420   9.298  13.996
83069W        W55384  18.180  31.545   1.923
83070W        W55385  18.666  34.133  10.880
83071W        W55386  43.368  21.242  10.248
83072W        W55387   4.400  29.923  11.916
83073W        W55388  38.485   0.832   0.815
83074W        W55389  44.567   4.719   2.434
83075W        W55390  22.586   3.458  14.386
83076W        W55391  20.064  15.743   0.243
83077W        W55392   1.024  12.428  10.668
83078W        W55393  44.068   0.472   3.226
83079W        W55394   5.788  29.010   2.651
83080W        W55395  13.749  10.613   1.242
83081W        W55396  27.916  35.898  13.399
83082W        W55397  18.592  39.463   4.209
83083W        W55398   6.164  41.986  11.221
83084W        W55399  27.379  26.724  11.443
83085W        W55400  20.802  39.968   2.747
83086W        W55401  33.924   1.212  11.597
83087W        W55402  25.066  36.771  13.318
83088W        W55403  29.593  41.393  10.787
83089W        W55404   9.254  16.243  14.586
83090W        W55405  29.994   8.126   4.918
83091W        W55406  36.731  31.890   4.546
83092W        W55407  39.595   5.297  13.858
83093W        W55408  21.860  36.947   3.632
83094W        W55409  28.547  11.349  10.663
83095W        W55410  22.608  24.176  12.908
83096W        W55411  18.960  32.021   1.888
83097W        W55412  39.076  35.371   4.674
83098W        W55413  11.551  12.372   1.170
83099W        W55414  39.847  17.355   1.944
83100W        W55415  16.542  43.475   1.795
83101W        W55416  24.103   7.192  10.527
83102W        W55417   0.487  36.851  11.040
83103W        W55418  37.584  44.940   0.368
83104W        W55419  40.343   7.983  12.610
83105W        W55420  11.735  38.908  13.599
83106W        W55421  31.515  29.944  14.280
83107W        W55422  44.538  35.833  13.421
83108W        W55423   6.831  22.779   1.407
83109W        W55424   0.753  28.681   2.296
83110W        W55425   1.608  41.924   1.989
83111W        W55426  34.091  37.004   4.691
83112W        W55427   3.309  41.589  13.500
83113W        W55428  27.140  28.182   3.286
83114W        W55429  43.068   3.753   0.359
83115W        W55430  37.861  10.143  10.714
83116W        W55431  22.758  41.550  11.259
83117W        W55432  29.450  15.788   3.825
83118W        W55433   9.444   2.358   0.736
83119W        W55434   8.731  29.803   2.981
83120W        W55435  37.565  32.111   1.777
83121W        W55436  44.745  14.032   3.677
83122W        W55437   3.674  29.435  13.469
83123W        W55438  25.467  38.096   4.007
83124W        W55439  30.596  22.295  12.956
83125W        W55440  27.424   9.631  12.351
83126W        W55441  42.302   8.889  10.931
83127W        W55442  28.836  34.595   0.565
83128W        W55443   5.215  13.556  12.423
83129W        W55444  39.759  41.424  13.315
83130W        W55445   7.992  37.751   5.114
83131W        W55446  42.742  16.245  10.670
83132W        W55447   9.491  25.497  10.719
83133W        W55448  24.203  15.100   4.230
83134W        W55449  23.275  26.911  12.938
83135W        W55450  28.067  13.622   0.760
83136W        W55451  35.305  37.114  13.626
83137W        W55452  19.507  14.778   2.868
83138W        W55453  31.664  23.091   0.965
83139W        W55454  13.718   3.515  10.348
83140W        W55455  44.047  24.259   2.471
83141W        W55456  33.755  25.496  13.452
83142W        W55457  39.437   9.240   2.633
83143W        W55458  43.021   7.355   1.367
83144W        W55459  41.085  34.599   2.277
83145W        W55460   1.294   4.275  10.565
83146W        W55461  17.554  26.521  13.565
83147W        W55462  26.986  40.083  10.475
83148W        W55463  40.343   4.145   2.331
83149W        W55464   8.695   5.568  13.766
83150W        W55465   7.439  31.664  11.597
83151W        W55466  36.969  41.362  14.400
83152W        W55467   1.460  15.275   3.861
83153W        W55468   0.989  30.372  11.471
83154W        W55469  19.082  16.194   1.381
83155W        W55470  16.177  37.115   0.760
83156W        W55471  41.989  16.252   1.741
83157W        W55472  40.379  18.808   2.343
83158W        W55473  37.663   7.779  11.488
83159W        W55474  18.874  31.107   1.692
83160W        W55475   8.239  30.907   1.465
83161W        W55476  13.089  36.236  11.112
83162W        W55477   0.770  36.500   5.544
83163W        W55478  12.287  31.658   3.762
83164W        W55479  36.384  42.558   4.166
83165W        W55480  30.515  36.388   2.453
83166W        W55481  32.397  20.403  13.543
83167W        W55482   3.664  20.959  13.359
83168W        W55483  19.165  39.559   2.317
83169W        W55484  36.633  30.431   3.599
83170W        W55485  21.600   3.188   2.225
83171W        W55486  19.540  24.190   1.450
83172W        W55487  43.956  22.005  10.940
83173W        W55488   0.742  23.103  10.624
83174W        W55489  28.440   2.277   3.739
83175W        W55490  41.059  11.130   4.093
83176W        W55491  14.149  38.606   0.235
83177W        W55492  41.453  20.757  14.421
83178W        W55493  18.940  36.154   3.714
83179W        W55494   7.869  15.342  13.083
83180W        W55495  34.432   1.131   4.016
83181W        W55496  30.628  18.815   2.170
83182W        W55497  13.793  32.875   4.130
83183W        W55498   5.855  37.901   1.313
83184W        W55499  30.640  36.846  14.424
83185W        W55500  36.501  35.577  11.048
83186W        W55501   9.261  21.035   5.024
83187W        W55502  37.385  17.795   3.703
83188W        W55503  16.264  31.052   4.302
83189W        W55504   1.557  32.919  14.282
83190W        W55505   0.504  18.661   2.222
83191W        W55506  13.165  24.303   1.506
83192W        W55507   6.560  17.089  12.267
83193W        W55508  19.204   8.315  12.954
83194W        W55509  21.269   9.817  10.846
83195W        W55510  28.912   7.754  11.964
83196W        W55511  14.234  27.603  14.869
83197W        W55512   6.400  23.089  14.869
83198W        W55513  18.041  12.790   4.154
83199W        W55514  15.099  21.275   4.145
83200W        W55515  37.523  41.665   3.470
83201W        W55516  35.389   6.902  11.225
83202W        W55517  24.066  13.893   4.871
83203W        W55518  13.218  29.904  11.505
83204W        W55519  35.919  28.982   4.282
83205W        W55520  28.551  14.295   1.215
83206W        W55521  44.380  37.795  13.627
83207W        W55522  18.961  40.124   3.292
83208W        W55523  13.124  15.785  13.539
83209W        W55524   6.847  26.845   1.202
83210W        W55525  13.069   7.300   2.586
83211W        W55526   6.827  11.332   0.250
83212W        W55527  28.023  44.186  12.904
83213W        W55528  30.673  25.697  13.760
83214W        W55529  30.859  26.978   1.408
83215W        W55530  19.526  39.836   5.078
83216W        W55531  34.615   5.181   4.570
83217W        W55532  18.930   9.579   4.975
83218W        W55533  44.960  33.393   1.753
83219W        W55534   2.555   0.011   0.459
83220W        W55535  40.395   8.626   4.591
83221W        W55536  38.541  32.845  10.680
83222W        W55537   6.697  16.086   1.773
83223W        W55538  44.490  34.565   0.731
83224W        W55539  18.057  17.265   3.387
83225W        W55540  13.654   1.814   2.231
83226W        W55541  34.899  37.143  11.581
83227W        W55542  26.387  41.062   0.945
83228W        W55543  16.634   9.676  12.107
83229W        W55544  26.148  36.617   1.200
83230W        W55545  22.487  44.370   4.258
83231W        W55546  38.333  12.495  12.833
83232W        W55547   4.471  38.526  14.759
83233W        W55548   7.641  39.057   2.298
83234W        W55549  40.114   3.972   3.635
83235W        W55550   3.259  26.520   0.856
83236W        W55551  36.735  17.963   0.498
83237W        W55552  40.533  35.536  10.560
83238W        W55553   8.330  17.005  10.578
83239W        W55554  35.033  27.665   2.727
83240W        W55555  32.918   8.444   0.707
83241W        W55556  42.770  39.874  13.375
83242W        W55557  33.326  42.018  10.707
83243W        W55558  19.533  42.418   0.821
83244W        W55559   2.218   4.100   1.384
83245W        W55560  19.221   4.404  11.960
83246W        W55561  32.944  27.116  10.679
83247W        W55562  12.134   3.799  13.889
83248W        W55563  34.825  37.632  14.431
83249W        W55564   9.927  43.896  11.404
83250W        W55565  41.092  26.760  11.546
83251W        W55566   9.308  19.994  10.722
83252W        W55567   1.969  31.895   4.526
83253W        W55568  10.686  38.586  10.364
83254W        W55569  31.997   1.551  12.557
83255W        W55570  29.449   0.710  11.468
83256W        W55571  24.016   1.318  10.758
83257W        W55572  37.898  34.012  13.947
83258W        W55573  36.987  40.886   3.861
83259W        W55574  10.046  36.512   4.497
83260W        W55575   9.701  32.100  13.954
83261W        W55576  26.101  36.923   4.572
83262W        W55577  12.279  27.233  13.535
83263W        W55578  39.113  42.271   0.883
83264W        W55579  35.797  22.906   2.240
83265W        W55580  23.520  16.795   4.558
83266W        W55581  22.991  32.698   4.340
83267W        W55582  11.420  26.195   3.618
83268W        W55583  11.219  38.474   3.839
83269W        W55584   5.679  36.830  11.531
83270W        W55585   4.662  43.796  11.441
83271W        W55586   2.765  16.749  13.330
83272W        W55587  16.109   0.191   0.315
83273W        W55588  32.555   2.263   0.860
83274W        W55589  43.759  26.084  13.441
83275W        W55590  25.354  29.683  11.679
83276W        W55591  34.419  28.048  11.767
83277W        W55592  27.495  10.295  10.712
83278W        W55593  36.406  23.314  12.863
83279W        W55594  42.771  24.332  12.546
83280W        W55595  33.806  42.743  11.079
83281W        W55596  13.333  43.923   0.412
83282W        W55597  41.503  23.012  12.032
83283W        W55598  18.301  24.987  13.978
83284W        W55599  40.904  32.939  12.799
83285W        W55600   3.903   4.863   3.724
83286W        W55601  39.515  34.905   2.655
83287W        W55602  31.636  12.583   3.431
83288W        W55603  42.967  10.696  10.467
83289W        W55604  33.135  40.446  13.180
83290W        W55605  25.608   0.924   1.723
83291W        W55606  41.917   5.288  12.982
83292W        W55607  21.186  35.323  12.403
83293W        W55608  21.406  37.627  14.856
83294W        W55609  43.315  40.971   2.303
83295W        W55610  17.235  14.753  14.299
83296W        W55611  43.052  24.119   2.300
83297W        W55612   8.994  42.381  10.783
83298W        W55613  20.091  30.877   2.996
83299W        W55614  36.966  39.151   0.429
83300W        W55615  40.324  29.561  11.574
83301W        W55616  11.201  12.352   4.813
83302W        W55617   9.847  19.223   5.492
83303W        W55618  13.559  25.135  12.196
83304W        W55619  14.256  14.901   2.874
83305W        W55620  33.410  31.134   2.917
83306W        W55621  13.394  37.425  13.523
83307W        W55622  29.150  36.848  10.603
83308W        W55623  44.577  41.033  10.696
83309W        W55624  38.959  25.464   5.541
83310W        W55625  11.177   0.275  12.913
83311W        W55626  14.402  12.336   3.612
83312W        W55627   7.951   1.023  13.809
83313W        W55628   5.828   1.757   0.201
83314W        W55629  43.928  28.146  12.931
83315W        W55630  42.306  31.126   2.323
83316W        W55631  42.894  21.711  13.451
83317W        W55632  26.186   5.462  12.464
83318W        W55633  19.843  13.980  12.154
83319W        W55634  13.537  14.653  13.862
83320W        W55635  20.564  27.377  13.779
83321W        W55636  17.380   5.887   1.470
83322W        W55637   1.294  30.072   4.615
83323W        W55638   8.929   8.987  10.478
83324W        W55639  30.408  10.016   3.844
83325W        W55640  11.230  30.936  11.864
83326W        W55641   1.455   9.380  13.663
83327W        W55642  16.680  21.477  13.367
83328W        W55643   1.553  25.265   0.501
83329W        W55644   2.670  38.419  12.808
83330W        W55645   5.972  20.249  10.774
83331W        W55646  20.818  35.984   4.666
83332W        W55647   5.501  41.785  13.920
83333W        W55648  41.007   3.557  11.623
83334W        W55649   9.854  12.768  14.830
83335W        W55650  28.417  30.609   1.319
83336W        W55651  40.063  11.717  10.369
83337W        W55652  16.220   3.795  12.924
83338W        W55653   4.224  31.413  14.446
83339W        W55654  32.837  32.519   0.636
83340W        W55655  15.222   0.250   1.223
83341W        W55656  43.889  29.604   4.928
83342W        W55657  25.488  41.506   1.354
83343W        W55658  38.181  24.493  10.466
83344W        W55659  10.254   0.732  13.324
83345W        W55660  41.419  20.103  11.367
83346W        W55661  16.760   1.276   2.821
83347W        W55662   7.456  26.587  13.544
83348W        W55663   7.678  22.070  13.419
83349W        W55664   6.966  33.625   1.386
83350W        W55665  33.005  28.188   2.753
83351W        W55666   4.180  41.312  13.191
83352W        W55667  17.452  40.795   1.330
83353W        W55668  38.797   2.921   1.467
83354W        W55669  44.612   6.071   0.383
83355W        W55670  14.568  33.488   2.793
83356W        W55671  40.222  27.617  10.771
83357W        W55672  29.896  17.055  13.894
83358W        W55673  17.311  27.715  13.424
83359W        W55674  40.598  14.211  11.464
83360W        W55675   7.925   8.911   4.263
83361W        W55676  20.517  21.653   0.049
83362W        W55677  38.817   0.540  13.114
83363W        W55678  43.246   4.416  10.772
83364W        W55679   9.946  11.220   4.360
83365W        W55680  20.814   2.227  11.619
83366W        W55681  11.695  39.364   0.447
83367W        W55682  34.855  25.610  14.842
83368W        W55683  41.996  27.678   4.696
83369W        W55684  26.199  33.610  14.406
83370W        W55685  12.972  43.828  11.338
83371W        W55686  32.182  35.857   2.871
83372W        W55687   2.813   8.254  12.300
83373W        W55688  27.680  43.230   0.531
83374W        W55689   6.931  12.362   1.846
83375W        W55690  18.259  31.522   2.441
83376W        W55691  28.181  21.519  11.486
83377W        W55692  29.104  35.874  10.599
83378W        W55693  34.913   7.689   2.362
83379W        W55694  11.821   4.786  14.258
83380W        W55695  34.484   7.413   3.801
83381W        W55696  13.181  19.853  14.265
83382W        W55697  43.930  25.418  12.430
83383W        W55698  18.217  17.574  13.483
83384W        W55699  38.375   1.946  11.971
83385W        W55700  27.081  32.390  10.528
83386W        W55701  23.188  42.481   2.303
83387W        W55702  33.521  36.391   0.370
83388W        W55703  44.889  20.292   0.716
83389W        W55704  30.504  43.139   0.974
83390W        W55705   9.306  15.778   1.506
83391W        W55706  29.197  16.462  11.161
83392W        W55707  22.108  22.276  13.901
83393W        W55708  36.373  32.087   3.693
83394W        W55709   0.530   8.824  12.402
83395W        W55710  40.808  43.466   2.575
83396W        W55711  37.103  40.464   4.803
83397W        W55712  25.401  41.896   2.877
83398W        W55713  31.085  24.251  13.614
83399W        W55714  31.627  27.501  12.475
83400W        W55715  14.723  38.319  10.806
83401W        W55716  15.111  44.078  10.839
83402W        W55717  23.939   5.231  11.525
83403W        W55718  36.019   9.254   2.206
83404W        W55719  14.380  14.118   3.726
83405W        W55720  18.922   1.859   1.363
83406W        W55721  28.726   4.959  11.997
83407W        W55722  37.534  20.954   0.702
83408W        W55723   0.930  31.878   0.737
83409W        W55724  16.033  32.980  14.387
83410W        W55725  41.935  35.348   0.892
83411W        W55726  17.718  39.951  12.063
83412W        W55727  10.256  28.494  14.344
83413W        W55728  38.381  30.019   2.652
83414W        W55729  18.932   7.552   2.629
83415W        W55730  44.971  21.510   2.629
83416W        W55731  13.098  19.115   1.268
83417W        W55732  16.720  33.066  12.100
83418W        W55733   7.329  31.380  12.031
83419W        W55734  19.544  26.113   1.758
83420W        W55735  17.169   4.530  11.993
83421W        W55736  22.985  21.679   0.147
83422W        W55737  41.612   6.070  12.442
83423W        W55738  13.314  23.975   2.780
83424W        W55739  12.917  33.342  10.266
83425W        W55740  26.523  38.113   0.816
83426W        W55741  28.321  30.160  12.495
83427W        W55742  43.582  28.693  14.880
83428W        W55743  27.340  16.891   2.692
83429W        W55744   8.190  44.947   1.260
83430W        W55745  37.983  29.166  12.031
83431W        W55746  33.559  26.698   0.824
83432W        W55747   6.450   3.359   3.238
83433W        W55748  17.761  44.706   0.733
83434W        W55749  31.062  41.423   3.990
83435W        W55750  26.119  34.826   0.348
83436W        W55751   3.323  23.453   0.797
83437W        W55752  41.055  22.095  12.858
83438W        W55753  42.760  16.573   3.726
83439W        W55754   6.632  10.130  11.147
83440W        W55755  39.967  40.113  14.475
83441W        W55756  35.918  42.700  14.392
83442W        W55757   4.390  28.903   3.720
83443W        W55758  36.973  24.994  11.956
83444W        W55759  34.271  26.459  12.677
83445W        W55760  24.007  39.060  14.563
83446W        W55761  34.441  20.824  14.339
83447W        W55762  28.495   7.871  10.566
83448W        W55763   7.514  42.106   1.422
83449W        W55764  10.737  29.743  12.986
83450W        W55765  12.222  41.986   3.992
83451W        W55766  41.418  13.696   5.229
83452W        W55767  27.978  31.026  11.042
83453W        W55768   5.687  37.121   0.842
83454W        W55769  35.746  42.051  12.750
83455W        W55770  11.131  31.367  11.073
83456W        W55771  16.211  24.551  14.322
83457W        W55772  43.618  25.015  11.103
83458W        W55773  16.690  22.456   3.768
83459W        W55774   6.168  10.358   1.891
83460W        W55775  15.696  38.027   1.850
83461W        W55776  13.554  18.361  14.758
83462W        W55777  18.195  22.992   1.323
83463W        W55778   0.060  40.815  13.809
83464W        W55779  12.978  37.524   0.481
83465W        W55780  39.544  15.712  13.319
83466W        W55781  13.465  24.622  13.907
83467W        W55782  12.186   6.802   3.427
83468W        W55783  30.984  24.600  11.956
83469W        W55784  38.896  26.634  14.960
83470W        W55785   9.296   7.972   2.282
83471W        W55786  32.896  21.610   2.135
83472W        W55787   1.910   0.637  13.603
83473W        W55788  25.190  13.260   2.113
83474W        W55789   2.360  24.725  13.371
83475W        W55790   1.499   7.936  14.955
83476W        W55791  31.495  15.736  10.565
83477W        W55792  43.931  17.841   0.454
83478W        W55793   6.350  27.134   2.098
83479W        W55794  20.024  34.853   3.639
83480W        W55795  29.505   3.570  14.896
83481W        W55796  42.663  24.432   4.184
83482W        W55797   3.272   6.458   3.265
83483W        W55798  21.240   2.182   4.339
83484W        W55799  26.110   1.221   0.371
83485W        W55800  22.194  16.011   3.418
83486W        W55801  27.880   5.763  10.750
83487W        W55802  26.634  38.202   2.372
83488W        W55803  37.622  12.247  11.556
83489W        W55804   1.472  34.995   0.190
83490W        W55805   1.285  15.300  14.925
83491W        W55806  24.070  37.675  12.833
83492W        W55807  31.400  32.404   2.207
83493W        W55808  29.265   1.261  11.591
83494W        W55809   6.224  42.899  13.476
83495W        W55810  36.796  20.300   0.442
83496W        W55811  19.693   0.819   1.263
83497W        W55812  31.901  42.863  13.986
83498W        W55813   9.225  30.593   3.692
83499W        W55814   2.798  41.310   3.910
83500W        W55815  29.621  28.367  10.291
83501W        W55816  21.787  20.203   1.451
83502W        W55817  30.933  31.720   1.164
83503W        W55818  11.608  15.108   0.947
83504W        W55819  25.223  37.553   0.190
83505W        W55820  23.690  36.842  10.674
83506W        W55821  13.372  17.661   0.864
83507W        W55822  35.486  39.053  13.399
83508W        W55823  29.990  21.116  12.481
83509W        W55824  31.642   1.287   2.391
83510W        W55825  23.510  31.025  12.083
83511W        W55826  39.974  38.396  13.508
83512W        W55827  35.345  20.235  11.532
83513W        W55828  33.294  10.967   2.118
83514W        W55829  29.481  13.667  11.430
83515W        W55830   3.921  40.334   4.136
83516W        W55831  37.126  13.870  11.428
83517W        W55832  43.620  30.874  13.930
83518W        W55833   2.563  10.278  13.562
83519W        W55834  11.570   8.156   3.767
83520W        W55835   6.882  13.276   1.392
83521W        W55836  10.577  21.708   4.458
83522W        W55837  37.054  29.820   4.088
83523W        W55838  37.084  27.496   2.208
83524W        W55839   8.713  42.566  11.895
83525W        W55840  12.166  10.432   4.229
83526W        W55841  32.411  26.120   4.633
83527W        W55842  25.483  40.987   1.323
83528W        W55843  13.391  25.581  11.026
83529W        W55844  32.459  41.465   0.295
83530W        W55845   5.725  28.078   4.255
83531W        W55846  44.282  42.383  14.417
83532W        W55847  38.849   2.234   2.773
83533W        W55848   2.764   3.940   1.947
83534W        W55849   4.978   4.270  13.194
83535W        W55850  15.613   1.760   1.435
83536W        W55851   1.501   3.829   0.719
83537W        W55852  15.120  38.372   4.472
83538W        W55853  28.608  13.766   4.442
83539W        W55854  12.846  12.318   0.583
83540W        W55855  20.566  41.340   4.788
83541W        W55856  29.914  40.876  14.338
83542W        W55857  31.038  12.640  11.188
83543W        W55858  40.279  34.960   3.931
83544W        W55859  23.342  39.454   4.248
83545W        W55860  33.580  35.122  14.823
83546W        W55861  39.261  31.239  11.062
83547W        W55862  34.162  27.668   3.767
83548W        W55863  35.032  18.001  11.762
83549W        W55864  19.074  19.379  11.132
83550W        W55865   8.421   9.332   0.391
83551W        W55866  21.467  15.656   0.444
83552W        W55867  29.565   6.327   2.490
83553W        W55868  13.400  12.441   4.120
83554W        W55869  13.180   3.461   2.530
83555W        W55870  25.651   3.111   4.650
83556W        W55871  30.586  22.876  11.380
83557W        W55872  19.110  40.988   3.216
83558W        W55873  40.245   5.077   0.959
83559W        W55874  19.244   8.420   0.925
83560W        W55875   2.420  13.018  13.493
83561W        W55876  29.923  31.882   3.615
83562W        W55877  17.501  15.395  12.967
83563W        W55878  34.099  26.272   3.809
83564W        W55879   8.465  37.441  13.444
83565W        W55880   6.434  33.039   0.196
83566W        W55881  23.197  14.354   3.488
83567W        W55882  10.745  28.665  13.003
83568W        W55883   2.073  42.441  10.719
83569W        W55884  11.651  43.776   2.857
83570W        W55885  36.048   5.550  14.531
83571W        W55886   5.692  32.141   4.248
83572W        W55887   7.209   7.214  14.541
83573W        W55888   2.405   0.120  14.124
83574W        W55889  39.341  34.188   3.250
83575W        W55890  22.640  22.179  13.967
83576W        W55891  42.353  26.087   1.835
83577W        W55892  16.598   6.865   3.284
83578W        W55893  30.493  36.080  13.926
83579W        W55894   8.960   2.932   2.979
83580W        W55895  21.183  36.981  10.685
83581W        W55896   2.990  17.655  10.959
83582W        W55897  14.745  10.736  13.043
83583W        W55898  10.944  16.149   5.580
83584W        W55899  32.089  31.823   4.385
83585W        W55900  14.689  13.718  12.594
83586W        W55901  18.980  30.534  11.028
83587W        W55902  38.345  12.745   5.125
83588W        W55903   4.540   5.458  11.079
83589W        W55904  10.746  11.647   4.589
83590W        W55905   3.874  21.298  13.053
83591W        W55906  21.493  40.772   1.458
83592W        W55907  44.809  12.084   4.559
83593W        W55908  27.219   5.781   1.256
83594W        W55909  40.542  12.711   1.920
83595W        W55910  18.126  31.423  11.997
83596W        W55911  21.601  23.598   2.800
83597W        W55912  10.563  38.023  12.531
83598W        W55913  16.418  43.333   4.762
83599W        W55914  16.553  44.423   9.884
83600W        W55915  41.297  11.757   4.242
83601W        W55916  15.928  13.629  12.531
83602W        W55917   1.180  37.179  14.731
83603W        W55918   2.957   6.771   4.298
83604W        W55919  30.541  42.282  14.306
83605W        W55920  32.067  14.242   2.798
83606W        W55921   0.305  15.145   1.242
83607W        W55922  22.303  10.187   3.207
83608W        W55923   4.186  11.713   3.673
83609W        W55924  24.185   9.156  14.078
83610W        W55925  17.029   4.872   2.894
83611W        W55926  36.872  21.667  14.654
83612W        W55927  44.553   1.986   4.539
83613W        W55928  11.672  37.057  12.852
83614W        W55929   2.890  25.998   2.340
83615W        W55930  20.618  32.232  10.429
83616W        W55931  18.406   5.797   1.378
83617W        W55932  33.147  37.543   0.180
83618W        W55933   5.178  15.987  13.674
83619W        W55934  16.129  34.986   3.713
83620W        W55935   2.856   4.181  12.838
83621W        W55936   4.075   0.386   0.802
83622W        W55937   0.278  12.494  12.491
83623W        W55938   6.690   4.933   5.032
83624W        W55939  38.278  42.783   4.518
83625W        W55940  31.105  18.552   3.904
83626W        W55941  14.053  40.182  11.321
83627W        W55942  34.127  41.999   0.727
83628W        W55943  24.128   3.765   3.529
83629W        W55944  29.459  12.896   3.164
83630W        W55945   3.962   5.933  12.094
83631W        W55946  15.682  11.313   4.837
83632W        W55947  23.268  25.663  13.382
83633W        W55948  42.857  12.087  10.807
83634W        W55949  33.347  41.483   3.451
83635W        W55950  13.800   6.266  10.690
83636W        W55951  26.739  40.961  12.522
83637W        W55952   3.366  33.089   3.672
83638W        W55953  18.787  28.549  12.129
83639W        W55954  38.158  28.011   3.765
83640W        W55955  26.794  27.109  14.960
83641W        W55956  14.920  15.775  10.747
83642W        W55957  27.186  26.651   1.902
83643W        W55958  25.213  32.090  10.328
83644W        W55959  12.763   8.139  14.990
83645W        W55960  35.928  40.591  13.780
83646W        W55961  19.383  28.438  13.915
83647W        W55962   8.119  18.595  14.023
83648W        W55963  11.087  17.945  10.720
83649W        W55964  24.277  20.944  13.784
83650W        W55965  18.947  36.520  12.782
83651W        W55966  16.294  32.049  14.497
83652W        W55967  29.938  27.011   4.412
83653W        W55968   7.926   0.736   0.835
83654W        W55969  40.476  40.226  14.437
83655W        W55970  44.790  10.326   1.344
83656W        W55971  24.566   7.759  12.587
83657W        W55972   3.887  38.676   1.884
83658W        W55973  10.224  26.169  13.794
83659W        W55974  10.878  13.923   2.288
83660W        W55975  11.183  27.612  10.690
83661W        W55976  12.898  26.993   3.639
83662W        W55977  36.522  23.064   1.841
83663W        W55978   1.672   5.248  11.339
83664W        W55979   7.531   6.309   4.960
83665W        W55980  32.400  31.392  13.550
83666W        W55981   8.340  31.044   4.427
83667W        W55982  19.700   2.915   0.301
83668W        W55983   8.895  26.038   0.860
83669W        W55984   1.123   0.720  13.868
83670W        W55985  26.607  28.345   2.524
83671W        W55986  14.260  24.934   1.443
83672W        W55987  22.033  10.926  11.146
83673W        W55988  20.097  23.309  11.397
83674W        W55989  30.585  20.292  11.160
83675W        W55990  12.748  13.077  14.903
83676W        W55991   8.135  23.626  11.885
83677W        W55992  20.543   5.396   2.912
83678W        W55993  32.471  23.199   3.561
83679W        W55994   0.903  43.896   0.104
83680W        W55995   0.245  36.551  14.375
83681W        W55996   1.873  44.466   0.461
83682W        W55997  12.735  42.518   0.929
83683W        W55998  19.004  35.595  12.730
83684W        W55999  12.839  10.380  14.764
83685W        W56000  32.967   4.392   0.960
83686W        W56001   6.739  29.539  11.983
83687W        W56002  30.414   0.252   1.882
83688W        W56003  42.777  18.128   0.364
83689W        W56004  41.423   8.479  10.713
83690W        W56005  28.070   8.567   3.151
83691W        W56006   0.848  44.296   4.521
83692W        W56007  10.098  16.701  11.070
83693W        W56008  10.816  20.333  10.925
83694W        W56009   5.656  11.165   1.786
83695W        W56010   0.480  10.414  12.602
83696W        W56011  15.733   0.824   3.289
83697W        W56012  35.953   6.365  13.316
83698W        W56013   3.920   1.858  14.501
83699W        W56014  32.874  37.254   4.423
83700W        W56015   2.370   3.826  12.689
83701W        W56016  22.127  23.637   1.159
83702W        W56017   5.205  19.288   3.176
83703W        W56018  41.734  27.903   4.312
83704W        W56019  44.320  37.313  10.632
83705W        W56020   7.345  13.266  12.469
83706W        W56021  11.296  29.770   3.642
83707W        W56022   2.426   9.113   2.737
83708W        W56023  30.369  42.433   1.470
83709W        W56024  32.475  26.193  14.900
83710W        W56025  29.881   9.188  11.184
83711W        W56026  13.462  40.377  11.610
83712W        W56027  42.286   7.138   2.623
83713W        W56028  32.610   2.282  12.519
83714W        W56029  28.806  16.096  11.283
83715W        W56030   1.281  12.764  13.331
83716W        W56031  37.982  15.712   4.174
83717W        W56032  17.565  30.656  12.476
83718W        W56033  31.347  34.084  14.409
83719W        W56034  26.183  27.570  10.946
83720W        W56035  21.398  37.038  11.139
83721W        W56036  16.365  18.647   0.443
83722W        W56037  34.603   2.553  10.803
83723W        W56038  39.405  37.774   1.973
83724W        W56039  10.633   9.752   4.624
83725W        W56040  11.721  20.593  10.937
83726W        W56041  38.594  15.574  13.591
83727W        W56042  27.132   8.184  11.601
83728W        W56043  22.178  25.901  12.939
83729W        W56044  25.433  39.467  13.727
83730W        W56045  39.091  16.859  13.238
83731W        W56046  31.054  27.387  10.706
83732W        W56047  25.641  12.658   4.125
83733W        W56048  33.489  26.555  11.923
83734W        W56049  29.407  39.569   9.785
83735W        W56050  34.493  31.928  10.796
83736W        W56051  11.848  37.396  14.259
83737W        W56052  39.854  20.585  12.886
83738W        W56053  30.023   7.651  14.687
83739W        W56054  42.485  20.615   0.196
83740W        W56055  14.173  39.948  14.589
83741W        W56056  14.707  17.682   3.209
83742W        W56057  28.148  21.050  10.225
83743W        W56058  37.453  14.136   3.597
83744W        W56059  19.236  10.215  11.151
83745W        W56060   8.709  32.133  12.074
83746W        W56061   9.859   1.987  11.013
83747W        W56062   7.863   3.532  13.987
83748W        W56063  37.558   0.832  10.647
83749W        W56064  26.147  36.493  13.909
83750W        W56065  44.053   4.960   4.724
83751W        W56066  39.103  37.815   3.974
83752W        W56067  32.214  25.565   3.794
83753W        W56068  23.971  24.984  14.271
83754W        W56069  43.270  22.474  14.042
83755W        W56070   3.845  30.387  12.492
83756W        W56071  12.157  29.198   3.644
83757W        W56072   2.375   3.306   2.006
83758W        W56073  37.845  27.352  12.804
83759W        W56074  42.377  38.001   3.418
83760W        W56075  22.577   0.481  12.482
83761W        W56076  39.527   8.437  11.675
83762W        W56077  29.494   0.365   3.883
83763W        W56078  44.801   1.482  10.615
83764W        W56079  35.928  26.973  11.583
83765W        W56080  41.924   6.810  11.189
83766W        W56081   1.687  38.331   2.813
83767W        W56082  14.476   9.676   0.929
83768W        W56083  28.587  32.108   1.411
83769W        W56084   3.321  37.468   2.866
83770W        W56085  42.462  33.502   2.623
83771W        W56086  40.282  14.535  12.361
83772W        W56087  30.869   5.610   3.591
83773W        W56088  29.071  38.454   2.710
83774W        W56089  36.257  28.235  11.033
83775W        W56090  41.390  11.779  13.377
83776W        W56091   2.391  22.454  12.595
83777W        W56092  40.223  29.855  14.301
83778W        W56093  44.755  17.970   3.133
83779W        W56094   2.507  20.088  12.448
83780W        W56095  23.799  15.563   1.336
83781W        W56096  41.206  18.848   2.356
83782W        W56097  31.838  38.073  12.402
83783W        W56098  41.750  25.241  13.511
83784W        W56099  35.948  38.801  13.497
83785W        W56100  26.139  37.576  10.409
83786W        W56101   2.608   1.528  13.926
83787W        W56102  12.762   6.101   4.345
83788W        W56103  13.476  12.553  12.159
83789W        W56104  37.432  28.679   2.375
83790W        W56105  11.267  27.960  14.162
83791W        W56106  32.661  28.873  12.966
83792W        W56107  20.510  18.333  10.630
83793W        W56108  12.658  18.295  11.966
83794W        W56109  13.711   3.276  11.970
83795W        W56110  33.948  26.661   5.047
83796W        W56111  21.719  29.020   4.585
83797W        W56112   7.221  27.882   1.911
83798W        W56113  19.153   0.630   2.239
83799W        W56114   2.661  35.535  13.268
83800W        W56115  16.620  44.040   2.494
83801W        W56116  19.938  19.504   0.174
83802W        W56117   8.934   8.619   4.125
83803W        W56118  40.834   5.693   3.544
83804W        W56119  44.309  24.616  14.314
83805W        W56120  42.844  44.326  13.614
83806W        W56121  32.034  13.772   2.607
83807W        W56122   1.429  17.574   1.331
83808W        W56123  28.903  33.654  14.730
83809W        W56124   7.724  39.527  10.739
83810W        W56125  25.818   6.294   5.508
83811W        W56126   0.463   7.868   1.392
83812W        W56127  13.390  43.713  11.611
83813W        W56128  41.745  20.243   0.374
83814W        W56129  11.626  35.589   4.665
83815W        W56130  17.142  40.284  12.347
83816W        W56131  34.970  16.754   3.746
83817W        W56132  34.596   7.895   0.290
83818W        W56133  40.456  33.605  13.856
83819W        W56134  39.598  31.434   4.038
83820W        W56135  36.280  28.638  10.655
83821W        W56136  13.943  34.678  13.418
83822W        W56137   9.903   2.498  14.483
83823W        W56138  37.793  40.439   2.305
83824W        W56139   3.661   3.859   0.210
83825W        W56140  37.999  31.378   1.376
83826W        W56141  42.407  41.832   4.903
83827W        W56142  37.618  10.931  11.095
83828W        W56143  16.629  38.587   4.752
83829W        W56144  16.444  12.201  13.739
83830W        W56145  26.471  14.234  12.960
83831W        W56146   5.418  36.817  13.457
83832W        W56147   4.638  28.403   5.057
83833W        W56148   5.205  14.103  13.455
83834W        W56149   7.453  38.023  11.751
83835W        W56150   0.334  38.652  13.405
83836W        W56151  21.690   0.210   4.553
83837W        W56152  27.432  30.965   5.549
83838W        W56153  33.638   4.807   4.348
83839W        W56154  26.451  12.869   4.833
83840W        W56155   9.938   0.728  14.833
83841W        W56156  25.450  15.566   3.050
83842W        W56157  20.285  44.436  13.054
83843W        W56158  31.020   1.771  14.862
83844W        W56159  11.876  44.450  14.917
83845W        W56160  23.489  19.140   3.540
83846W        W56161  15.840  37.170   3.748
83847W        W56162  24.491  16.389   4.495
83848W        W56163  37.921  12.825   1.606
83849W        W56164  13.013  24.689   0.174
83850W        W56165  30.559  19.578  10.734
83851W        W56166  42.691  13.520   3.649
83852W        W56167  26.115  43.372  12.979
83853W        W56168  26.787  14.722   4.512
83854W        W56169  18.387   4.738  14.741
83855W        W56170   6.305  37.794  11.017
83856W        W56171  27.545  33.666  13.092
83857W        W56172  17.815   8.466   3.698
83858W        W56173   5.817  20.537  13.097
83859W        W56174   0.422   4.796  14.725
83860W        W56175   9.393   1.848  12.207
83861W        W56176   2.451  34.125  13.990
83862W        W56177   4.679  42.483   2.273
83863W        W56178  28.212  37.847  12.475
83864W        W56179  40.031   1.497  14.278
83865W        W56180  39.280  10.222   0.958
83866W        W56181  12.671  19.767   0.471
83867W        W56182   5.987  44.055  12.866
83868W        W56183  21.698   9.444  11.515
83869W        W56184  30.557  38.016  10.811
83870W        W56185  18.413  38.792   3.302
83871W        W56186  43.272  11.706   4.589
83872W        W56187  39.751   5.978   0.180
83873W        W56188  44.295  27.549   4.122
83874W        W56189  25.427   1.281   1.378
83875W        W56190  15.257  37.003  12.521
83876W        W56191  43.848  13.665   2.744
83877W        W56192   4.824  16.040   3.040
83878W        W56193  38.393  17.208  12.804
83879W        W56194   1.940  17.697   1.262
83880W        W56195  31.148  19.638   0.389
83881W        W56196  14.282   5.214  12.628
83882W        W56197  31.609  15.239  11.862
83883W        W56198   3.321  10.377  10.354
83884W        W56199   5.735  26.504  10.421
83885W        W56200  19.086  22.036   4.605
83886W        W56201  35.002  12.042   1.922
83887W        W56202   7.674  23.402  13.036
83888W        W56203  41.962  25.470   1.429
83889W        W56204  20.232  25.138  13.196
83890W        W56205  15.340  42.264  13.503
83891W        W56206  21.611  43.391   0.722
83892W        W56207   2.371  41.803  13.069
83893W        W56208  42.446  38.678  12.002
83894W        W56209   7.491  16.560   2.654
83895W        W56210  13.671  28.963  11.765
83896W        W56211  42.813   0.951  12.506
83897W        W56212  31.236  22.137   2.826
83898W        W56213  40.832  19.836  11.954
83899W        W56214  31.491  12.106   2.698
83900W        W56215  17.105  13.157  12.840
83901W        W56216   7.917  30.176   2.676
83902W        W56217  30.100  44.808   1.770
83903W        W56218  23.074  39.065  10.719
83904W        W56219   6.264  20.718  10.631
83905W        W56220  24.854  40.640  12.637
83906W        W56221  10.420  36.183  10.177
83907W        W56222  43.015  26.241   2.329
83908W        W56223  12.829   3.407   4.540
83909W        W56224  18.085  20.965   0.378
83910W        W56225   7.168  15.600  13.393
83911W        W56226  21.060   2.118  14.906
83912W        W56227   4.454  25.768   1.275
83913W        W56228   6.415  15.729   3.994
83914W        W56229  32.090  22.469  11.137
83915W        W56230   4.906  18.965   4.821
83916W        W56231   2.175  36.834   2.093
83917W        W56232  27.127  20.557  11.524
83918W        W56233  31.092   9.387   3.413
83919W        W56234  30.056  32.196  10.020
83920W        W56235  36.867  25.540  10.676
83921W        W56236  33.224  27.503   4.807
83922W        W56237   2.770  11.803   1.792
83923W        W56238  38.003   0.638   0.783
83924W        W56239  28.185  24.990  11.841
83925W        W56240   4.492   3.622   0.407
83926W        W56241   4.196  16.356  13.278
83927W        W56242  31.906   6.609   3.227
83928W        W56243   3.892   8.895   1.390
83929W        W56244  14.328  11.792  13.798
83930W        W56245  31.713   1.749   1.665
83931W        W56246  43.738   2.468  14.212
83932W        W56247   9.309  23.221   3.547
83933W        W56248   7.894   4.729  14.449
83934W        W56249  37.350  37.647  14.332
83935W        W56250  13.946  15.041   4.643
83936W        W56251  10.846  13.643   3.471
83937W        W56252  18.213   0.710   1.305
83938W        W56253  21.679  20.199  12.288
83939W        W56254  25.926  19.226  14.372
83940W        W56255  33.595   4.296  13.164
83941W        W56256  22.504   7.163   2.587
83942W        W56257  23.227  31.194  14.233
83943W        W56258  38.870   7.028   2.848
83944W        W56259   7.777  10.637   3.911
83945W        W56260  17.364  17.638   4.113
83946W        W56261  40.057  16.882   3.223
83947W        W56262  33.541   3.532  11.346
83948W        W56263  16.869  36.825  14.402
83949W        W56264  33.618   2.437  12.778
83950W        W56265   7.196   3.741  12.868
83951W        W56266  36.978  28.109   1.796
83952W        W56267  43.528  42.712   4.724
83953W        W56268  24.194  44.501  11.883
83954W        W56269  33.963  27.347  12.632
83955W        W56270  35.461   4.959   3.632
83956W        W56271  23.037  42.171   1.212
83957W        W56272   1.328  22.591   1.564
83958W        W56273   6.927  23.170  10.686
83959W        W56274  13.881  14.083   2.680
83960W        W56275  14.834   1.769   4.873
83961W        W56276   6.884  44.281   1.374
83962W        W56277   5.740  41.282   4.728
83963W        W56278  15.169  28.696  14.910
83964W        W56279  41.782   2.423   4.764
83965W        W56280  34.383  26.597   4.167
83966W        W56281  20.694  28.675  13.625
83967W        W56282   4.071  22.474  10.301
83968W        W56283  13.412   2.823   4.123
83969W        W56284  15.242  22.601   1.760
83970W        W56285   1.022  44.932   0.203
83971W        W56286  19.874   0.387   3.959
83972W        W56287   6.222   2.054  11.577
83973W        W56288  30.051  23.322  11.918
83974W        W56289   3.350  37.474  14.278
83975W        W56290  42.667  25.529  14.400
83976W        W56291  42.510  40.070  12.032
83977W        W56292  20.651   5.792   3.633
83978W        W56293  13.291  22.176   0.962
83979W        W56294  20.573  41.542   2.909
83980W        W56295  35.197  44.041   2.219
83981W        W56296  36.320  40.925   0.557
83982W        W56297  15.152  17.503  12.455
83983W        W56298  30.475  13.634  11.489
83984W        W56299   4.381  13.109  13.520
83985W        W56300  38.120  31.536  11.399
83986W        W56301   5.592   6.620   3.252
83987W        W56302   5.628  42.050  12.589
83988W        W56303   4.760  18.844  12.938
83989W        W56304  42.699  17.152   1.747
83990W        W56305  18.860  25.719  13.556
83991W        W56306  14.213   7.896   3.259
83992W        W56307  24.904  38.574   0.689
83993W        W56308  42.565   4.235  13.060
83994W        W56309  28.704  23.491   3.742
83995W        W56310   2.265  18.538  13.548
83996W        W56311  19.066  25.596   4.218
83997W        W56312   5.784  29.146  11.964
83998W        W56313  10.248  14.309  13.964
83999W        W56314  39.877  34.420   4.628
84000W        W56315   9.514  24.367   1.692
84001W        W56316   8.169  32.511   1.121
84002W        W56317  42.828  23.924   1.783
84003W        W56318  35.867  13.594   3.631
84004W        W56319  22.300  20.180   1.468
84005W        W56320  41.215   0.345  13.442
84006W        W56321  44.526  15.150  13.430
84007W        W56322   6.269   2.871  11.190
84008W        W56323  12.771  31.588  10.459
84009W        W56324  37.510  22.953   0.690
84010W        W56325  25.218   4.354  14.302
84011W        W56326   0.467  38.522  13.891
84012W        W56327  33.865   4.913   1.728
84013W        W56328  23.523  28.390  14.758
84014W        W56329  17.804  10.673   5.094
84015W        W56330  11.885  11.087  13.269
84016W        W56331  30.086  17.207   0.384
84017W        W56332  12.514  16.685   9.716
84018W        W56333   2.968   4.465   3.307
84019W        W56334  44.084   3.077   4.973
84020W        W56335  12.071  16.637   0.265
84021W        W56336  23.235  36.409   3.875
84022W        W56337  32.076  20.899   0.479
84023W        W56338   0.012  37.855  11.645
84024W        W56339  34.202  11.650  12.587
84025W        W56340   0.922  19.012  13.172
84026W        W56341  28.968  15.891   2.761
84027W        W56342  41.587  29.010   1.706
84028W        W56343   5.772  35.552  10.775
84029W        W56344  35.938   1.381   3.268
84030W        W56345  13.280  10.251   3.635
84031W        W56346  41.441  15.364   0.817
84032W        W56347  14.491  37.789  10.021
84033W        W56348  10.878  24.172   0.425
84034W        W56349  39.143  25.966  14.575
84035W        W56350  28.593  22.207  12.123
84036W        W56351  19.737  42.364  12.608
84037W        W56352  42.281  22.281  11.198
84038W        W56353  33.454  17.652  14.308
84039W        W56354  24.589   1.764   2.550
84040W        W56355  31.012   2.763   1.183
84041W        W56356  36.478  31.115   3.003
84042W        W56357  33.330  14.150   5.247
84043W        W56358  35.598  25.494  14.524
84044W        W56359   7.168  26.492   0.945
84045W        W56360  26.417  21.660  12.918
84046W        W56361  30.689  28.039   2.836
84047W        W56362   6.481  24.510   3.661
84048W        W56363  39.393  38.767  12.001
84049W        W56364  11.940  31.142   0.973
84050W        W56365  27.744  43.252   3.340
84051W        W56366   2.517  39.465  13.392
84052W        W56367  26.257  25.010  11.987
84053W        W56368  29.483  26.421   3.809
84054W        W56369  33.610  33.405   0.321
84055W        W56370   1.453   6.739   3.180
84056W        W56371   2.807  32.379   4.490
84057W        W56372  23.230  12.696   2.793
84058W        W56373  19.792  11.638   2.266
84059W        W56374   1.913   8.418   3.643
84060W        W56375  36.050   3.889  10.763
84061W        W56376  41.998  32.074  13.809
84062W        W56377   2.136   3.638  10.300
84063W        W56378  15.509   9.846   0.887
84064W        W56379   2.791  18.715  12.342
84065W        W56380  34.502  43.384   3.879
84066W        W56381   4.356  28.657  12.481
84067W        W56382  39.339  22.041  11.033
84068W        W56383  11.621  20.343   4.150
84069W        W56384  27.824  18.616   0.460
84070W        W56385  36.889  24.420   0.764
84071W        W56386  28.198   5.628  13.154
84072W        W56387  37.749  17.554  14.367
84073W        W56388  12.616   1.525   4.762
84074W        W56389  13.792   5.346  13.899
84075W        W56390   6.217  28.853  13.620
84076W        W56391   4.014  26.494  11.065
84077W        W56392  38.857  34.436   4.839
84078W        W56393  23.271  21.009  12.876
84079W        W56394  29.781  17.645   0.311
84080W        W56395  36.205  40.416   1.400
84081W        W56396  19.026  30.978  14.884
84082W        W56397   0.729  30.538   4.103
84083W        W56398  12.198   3.783   3.058
84084W        W56399  41.445  30.487  13.512
84085W        W56400   9.384  36.890   4.777
84086W        W56401   8.752  12.869   4.665
84087W        W56402   4.369  11.390  11.582
84088W        W56403  33.919  43.356  10.868
84089W        W56404  12.831   5.194   2.480
84090W        W56405  44.157  43.528  14.885
84091W        W56406  30.122  31.987   2.278
84092W        W56407  37.095  12.900   4.058
84093W        W56408   3.940   0.691   0.115
84094W        W56409  25.055   3.909  13.914
84095W        W56410  26.504  28.777   3.744
84096W        W56411  19.182  14.255  11.378
84097W        W56412  38.903   8.535   2.745
84098W        W56413  13.659  44.402  11.227
84099W        W56414  29.677  12.689  10.435
84100W        W56415  37.640  34.628   3.671
84101W        W56416   5.826  21.585  14.465
84102W        W56417  24.047  32.351  14.831
84103W        W56418   1.740   3.269   4.635
84104W        W56419  39.625   6.402  12.545
84105W        W56420   6.882  10.577  10.445
84106W        W56421  44.966   3.891  10.710
84107W        W56422  22.980  42.515  14.954
84108W        W56423  38.506  44.372   2.435
84109W        W56424  23.042  36.455  12.529
84110W        W56425  28.992   0.350   0.425
84111W        W56426  28.119  24.503  12.014
84112W        W56427  28.764   1.269  13.307
84113W        W56428  14.237   5.841   0.484
84114W        W56429  10.243  29.515   2.643
84115W        W56430  41.487  40.011  12.045
84116W        W56431  24.719  39.178  10.796
84117W        W56432  27.078   9.311   2.232
84118W        W56433   0.264  32.508   2.424
84119W        W56434   0.310  38.108  11.975
84120W        W56435  14.342   3.801  13.355
84121W        W56436  18.427  41.092  11.096
84122W        W56437  36.082  24.091   1.757
84123W        W56438  17.696  21.308   1.172
84124W        W56439  22.522  41.375   2.832
84125W        W56440  36.473  33.549  12.860
84126W        W56441  13.821   3.480  12.509
84127W        W56442  15.798   2.199  14.493
84128W        W56443   3.119  20.200  13.263
84129W        W56444  36.840  32.552  13.511
84130W        W56445  30.852   9.994   0.237
84131W        W56446  43.043  32.356   2.806
84132W        W56447  27.420  28.717  14.517
84133W        W56448  33.166  18.082  11.172
84134W        W56449  31.518  37.161   2.250
84135W        W56450  25.923   8.313   4.808
84136W        W56451  18.262  39.293   3.850
84137W        W56452  29.074  41.725  13.516
84138W        W56453  38.631   5.796  10.776
84139W        W56454   2.531  41.933   3.142
84140W        W56455  23.836  30.101  13.952
84141W        W56456   6.449   8.633   3.180
84142W        W56457  12.244   4.886  13.893
84143W        W56458  17.755  37.976   1.881
84144W        W56459  13.093  34.054   4.653
84145W        W56460  36.120  10.111   1.845
84146W        W56461  16.465   6.238  12.069
84147W        W56462  44.275  30.527  11.092
84148W        W56463   8.032   4.694   9.965
84149W        W56464  42.062  29.784   1.762
84150W        W56465  12.796  29.615  13.465
84151W        W56466   7.459  21.869   1.703
84152W        W56467   6.936  16.604   4.124
84153W        W56468  42.316  44.258  10.744
84154W        W56469  38.589  28.287   3.866
84155W        W56470  20.405  24.967   3.664
84156W        W56471  30.107  19.102  10.717
84157W        W56472  26.657  33.801  11.577
84158W        W56473  13.234   5.877   0.249
84159W        W56474  24.773  33.705   2.213
84160W        W56475  32.886  40.873   2.099
84161W        W56476  20.453  13.214  14.802
84162W        W56477  12.648  13.831  11.026
84163W        W56478  40.411  29.854   3.632
84164W        W56479  28.759   6.781   3.731
84165W        W56480  37.129   4.701   4.103
84166W        W56481   1.710  26.044   1.499
84167W        W56482  33.834  31.486   3.743
84168W        W56483  21.715  35.868  13.894
84169W        W56484  14.256  17.260  11.072
84170W        W56485  43.021  37.605   9.988
84171W        W56486   2.415   8.223  11.965
84172W        W56487  27.734  11.951   1.148
84173W        W56488  35.857  20.652  14.321
84174W        W56489   0.889  10.240   5.030
84175W        W56490  26.568  36.329  10.738
84176W        W56491  42.550  14.246  11.849
84177W        W56492  37.590   7.663  13.703
84178W        W56493   9.686   6.635  12.416
84179W        W56494  34.792  39.467  10.681
84180W        W56495  22.260   5.262  12.350
84181W        W56496  16.192  25.705   0.753
84182W        W56497  11.238   8.672  14.903
84183W        W56498   3.907  41.510   1.715
84184W        W56499  28.445  24.727  11.466
84185W        W56500   0.952  36.621   1.633
84186W        W56501  14.276  33.172  13.802
84187W        W56502  25.041  23.033  13.940
84188W        W56503   0.470   1.692   1.833
84189W        W56504  32.257  18.766  11.118
84190W        W56505   4.205  31.617  14.989
84191W        W56506  16.770  31.851   3.811
84192W        W56507  31.566   4.779  10.248
84193W        W56508  36.012  27.612   4.295
84194W        W56509   0.618  42.382   1.306
84195W        W56510  20.165  35.883   4.038
84196W        W56511  23.557   1.065   2.806
84197W        W56512  26.717  35.310  12.538
84198W        W56513  23.712  25.631   4.944
84199W        W56514  14.156  34.966  14.122
84200W        W56515  36.379  10.031  12.080
84201W        W56516   3.500   5.062  11.178
84202W        W56517  26.617  24.103   0.651
84203W        W56518  35.516  31.970  10.657
84204W        W56519  34.932  19.569   9.956
84205W        W56520  30.677   7.219   2.274
84206W        W56521   0.390   9.141   0.796
84207W        W56522  20.571   0.840   2.382
84208W        W56523  38.796   7.394  14.681
84209W        W56524   5.378  41.623   4.902
84210W        W56525   0.515   6.673   2.792
84211W        W56526   2.293  35.583   2.313
84212W        W56527  31.325  42.753   0.693
84213W        W56528   1.066  41.932  12.544
84214W        W56529  40.303  24.763  14.276
84215W        W56530   6.636  17.076  14.956
84216W        W56531  19.731   3.211  13.840
84217W        W56532  30.199  26.695   2.708
84218W        W56533   1.904  24.114   4.690
84219W        W56534  38.095  29.420  10.518
84220W        W56535  30.254  34.533  12.042
84221W        W56536   9.643  12.729  11.962
84222W        W56537  33.890   7.161  12.437
84223W        W56538  11.629   8.631   1.676
84224W        W56539  26.232  16.556   2.069
84225W        W56540   6.775  41.480   4.442
84226W        W56541  33.127  44.982   0.945
84227W        W56542  16.193  26.235   0.681
84228W        W56543  13.126  16.466   2.367
84229W        W56544   5.003  32.703  10.023
84230W        W56545  38.362  33.076  12.461
84231W        W56546  38.161   9.539   3.106
84232W        W56547  42.987   5.996   2.421
84233W        W56548  33.479   5.135  12.614
84234W        W56549  38.665  44.509  13.429
84235W        W56550  10.409  21.348  11.458
84236W        W56551   5.113   1.449   4.506
84237W        W56552  14.792  43.944   1.546
84238W        W56553  21.792   9.755   2.399
84239W        W56554   6.842  17.091   0.789
84240W        W56555   7.397   9.430  12.964
84241W        W56556  40.831  39.529   2.675
84242W        W56557  12.741  20.267  14.433
84243W        W56558   3.779   0.839  14.614
84244W        W56559  37.375   3.552   5.015
84245W        W56560  21.699  37.105  13.323
84246W        W56561  18.954  19.093  11.535
84247W        W56562  24.669  43.450  10.987
84248W        W56563  28.605  19.155  11.717
84249W        W56564  44.826  43.772   0.510
84250W        W56565  30.186  36.947  10.700
84251W        W56566  10.310   6.462  11.070
84252W        W56567   4.097   6.830   3.175
84253W        W56568  39.536  23.195   0.943
84254W        W56569  34.162  10.215  12.471
84255W        W56570   4.817   0.194   1.312
84256W        W56571  32.373  42.046   0.909
84257W        W56572  18.636  26.140  13.766
84258W        W56573  19.302  35.493  11.531
84259W        W56574  32.850  28.576  11.705
84260W        W56575  24.615   3.377   1.863
84261W        W56576   4.327  18.487   0.606
84262W        W56577  31.989  42.252   4.548
84263W        W56578  19.322  39.678   4.640
84264W        W56579  13.620   1.826   3.396
84265W        W56580   3.455  10.624   2.722
84266W        W56581  33.086   2.353   1.012
84267W        W56582  31.464   4.561   5.053
84268W        W56583   5.662  30.536  13.994
84269W        W56584  34.844  21.968   4.618
84270W        W56585  27.016  28.898   0.411
84271W        W56586   2.040  10.770  13.885
84272W        W56587  39.406  19.543   1.843
84273W        W56588  37.312  40.555  14.251
84274W        W56589  29.475  29.523  12.201
84275W        W56590  34.733   4.916  13.553
84276W        W56591   1.561  32.040  13.160
84277W        W56592  28.789  25.091   2.708
84278W        W56593   3.792  29.858  12.549
84279W        W56594   3.233  18.873   4.292
84280W        W56595   5.923   8.305  11.260
84281W        W56596  38.617  19.883   2.241
84282W        W56597  41.976  37.414   9.913
84283W        W56598  43.355  31.322  13.855
84284W        W56599   3.771  33.514  13.021
84285W        W56600  24.566   4.753  14.265
84286W        W56601   2.458  16.160   0.482
84287W        W56602  44.455  29.240   3.706
84288W        W56603  36.019  30.086  14.732
84289W        W56604  32.074  35.576   1.383
84290W        W56605  17.556   6.047   2.375
84291W        W56606  30.933  28.248   0.535
84292W        W56607  27.856  37.400   4.145
84293W        W56608  33.410  19.663  12.515
84294W        W56609  13.215  32.385   2.271
84295W        W56610  27.614  30.427  14.948
84296W        W56611  34.129  20.691  14.735
84297W        W56612  31.433  27.527  10.404
84298W        W56613  25.102  19.796   1.770
84299W        W56614  38.382   3.203  11.476
84300W        W56615  27.934   6.641   3.285
84301W        W56616  25.825  32.007   5.146
84302W        W56617  38.126  37.017   2.097
84303W        W56618  27.131   7.703   1.331
84304W        W56619  33.640  37.478   0.049
84305W        W56620  21.994  34.544   4.679
84306W        W56621  41.951  23.234  12.920
84307W        W56622  19.314  16.748   4.032
84308W        W56623  33.562  30.407   4.592
84309W        W56624  26.401   2.918   2.184
84310W        W56625   0.590   2.625  11.641
84311W        W56626  12.777  33.680   3.267
84312W        W56627  12.037   3.465   0.790
84313W        W56628  15.493  12.756   0.689
84314W        W56629  28.928  11.346  14.843
84315W        W56630  27.442  24.513   4.787
84316W        W56631  43.928  20.200  10.735
84317W        W56632  39.502  11.679   1.851
84318W        W56633  34.716   7.435   2.788
84319W        W56634  42.566  26.440   3.128
84320W        W56635  36.907  17.612   4.628
84321W        W56636  26.199  28.898   0.700
84322W        W56637   5.349  31.867   0.457
84323W        W56638  30.413  34.623  13.937
84324W        W56639  28.021  11.807  13.386
84325W        W56640  35.114  22.116  12.131
84326W        W56641  27.660  41.911  12.848
84327W        W56642   0.921  36.642   2.627
84328W        W56643  44.422  36.546   4.388
84329W        W56644  17.496  10.816   4.695
84330W        W56645  22.817  25.543   4.404
84331W        W56646  18.834   0.413   3.209
84332W        W56647  18.082   1.337   2.920
84333W        W56648  30.156  20.103   1.815
84334W        W56649  37.440  15.611   1.824
84335W        W56650  12.332  17.664   1.079
84336W        W56651  35.603  28.840  11.038
84337W        W56652  10.733   6.227  10.355
84338W        W56653   9.226   2.816  12.464
84339W        W56654  22.297  12.655  13.967
84340W        W56655   4.447  15.744  14.539
84341W        W56656   1.307   5.674  14.716
84342W        W56657  42.302  35.528  12.028
84343W        W56658  17.246  39.054   1.872
84344W        W56659  22.203   4.282   4.608
84345W        W56660  32.174   8.437   3.744
84346W        W56661  10.906  17.522  13.825
84347W        W56662  11.632  14.152   0.798
84348W        W56663  20.801   1.459  12.508
84349W        W56664  39.515  35.093   1.755
84350W        W56665  24.230   4.279   2.644
84351W        W56666   8.364   8.931   3.069
84352W        W56667  22.081  19.448  14.361
84353W        W56668  42.552  33.641   1.577
84354W        W56669  43.925  35.169   3.553
84355W        W56670  43.187   0.927  11.988
84356W        W56671  23.455  16.735   3.663
84357W        W56672   5.314  25.906  11.028
84358W        W56673   8.411  31.617  11.548
84359W        W56674  32.143  25.220   3.319
84360W        W56675   8.645   1.841   3.607
84361W        W56676  39.356  10.261  10.847
84362W        W56677  10.743  12.146   2.738
84363W        W56678   2.441  33.976  13.062
84364W        W56679  12.362   2.412   2.034
84365W        W56680  20.469  14.801   1.318
84366W        W56681  30.646  28.621   0.828
84367W        W56682  41.088  28.905   1.780
84368W        W56683  19.324  39.836   1.885
84369W        W56684  40.925  28.736  10.732
84370W        W56685  34.864  20.533   1.781
84371W        W56686   4.759  28.094  13.279
84372W        W56687   7.371  41.790   3.275
84373W        W56688  15.639  17.567  13.846
84374W        W56689  18.272  24.217   0.180
84375W        W56690  42.910  25.799  14.983
84376W        W56691  13.972  22.783   2.366
84377W        W56692  26.699  37.532  13.027
84378W        W56693   4.463  29.052   2.342
84379W        W56694  40.335  36.480  14.545
84380W        W56695   4.253  44.650  12.923
84381W        W56696  31.579   5.127   1.329
84382W        W56697   1.433  33.697  10.389
84383W        W56698  38.994   3.191   3.713
84384W        W56699  21.533  32.828   3.163
84385W        W56700  18.200  28.926   4.828
84386W        W56701  10.222  40.548   1.303
84387W        W56702  39.943  21.628   4.103
84388W        W56703  31.572   2.937  14.727
84389W        W56704  39.734  14.020   2.935
84390W        W56705  21.129  39.486  13.507
84391W        W56706  22.389   8.831  10.715
84392W        W56707  26.066  14.630  12.075
84393W        W56708   7.674  20.611  11.004
84394W        W56709   4.887   3.996  11.606
84395W        W56710  21.722  30.066   0.718
84396W        W56711  41.865  16.047  14.029
84397W        W56712   0.262  24.621   4.742
84398W        W56713  16.792  39.094   4.576
84399W        W56714  21.195  41.834   0.345
84400W        W56715   2.267   4.312   0.460
84401W        W56716  13.605  31.806   4.228
84402W        W56717   4.879  17.193   0.770
84403W        W56718  41.533  22.209  13.263
84404W        W56719  23.919  18.688  13.080
84405W        W56720   2.007   0.934   2.818
84406W        W56721   8.230   8.815   1.144
84407W        W56722  15.831  42.120   4.174
84408W        W56723  27.894  29.525   2.766
84409W        W56724  33.922  20.482  10.834
84410W        W56725  13.774  12.382  11.757
84411W        W56726   3.463  22.074   0.691
84412W        W56727  36.818  30.293   4.059
84413W        W56728  35.070  20.329  14.902
84414W        W56729  18.570   5.682   2.256
84415W        W56730  21.011  41.521  11.757
84416W        W56731   0.074  21.584  14.897
84417W        W56732  42.967  16.382  11.454
84418W        W56733  12.638  11.274   2.167
84419W        W56734  32.384  33.158   2.104
84420W        W56735   4.741  44.239   3.860
84421W        W56736   8.611   2.451  11.964
84422W        W56737  28.152  21.592   2.355
84423W        W56738  39.837  37.435   3.244
84424W        W56739  43.307  28.393  13.515
84425W        W56740   9.458   2.857   3.141
84426W        W56741   4.716  33.736   1.320
84427W        W56742  40.533  13.991   4.334
84428W        W56743  34.874   2.731   4.275
84429W        W56744   9.413   9.608  14.427
84430W        W56745  22.818  18.357   2.715
84431W        W56746   7.023  19.338  14.386
84432W        W56747  38.670  28.977   2.732
84433W        W56748  35.603  24.574  14.281
84434W        W56749   2.453  40.955   3.755
84435W        W56750  34.922   2.250  12.898
84436W        W56751   6.726   4.037  11.535
84437W        W56752  10.949  25.026  13.542
84438W        W56753  18.761  12.984   2.798
84439W        W56754  14.125  39.998  13.166
84440W        W56755  25.866  33.458   4.119
84441W        W56756   4.917  19.132  10.664
84442W        W56757  26.966  43.033   1.846
84443W        W56758  37.432  43.045  10.558
84444W        W56759  37.048  23.550   0.387
84445W        W56760   3.501  16.294  14.300
84446W        W56761  37.884  15.399  13.780
84447W        W56762   9.268  37.340  13.969
84448W        W56763  28.961  26.109   4.519
84449W        W56764  31.347  23.731   3.753
84450W        W56765  16.317  32.463   2.181
84451W        W56766  44.277   2.515   1.266
84452W        W56767   3.103  33.881   0.336
84453W        W56768  32.841  30.839  11.480
84454W        W56769  41.537  14.661  12.870
84455W        W56770  44.423  38.882   2.135
84456W        W56771  13.567  27.519   4.721
84457W        W56772   3.516  31.771   0.487
84458W        W56773   3.652  19.954   2.302
84459W        W56774  19.851  10.881  14.475
84460W        W56775   9.117   5.777  11.285
84461W        W56776  43.571  26.560   4.616
84462W        W56777   0.250  12.809  10.632
84463W        W56778  27.156  34.315  12.929
84464W        W56779  18.240  14.405  12.549
84465W        W56780  38.446   2.993  13.437
84466W        W56781  29.690  26.270   0.270
84467W        W56782  23.107  11.286   3.753
84468W        W56783  13.584   4.815  12.858
84469W        W56784  27.150  29.572  13.361
84470W        W56785  37.077  28.474  11.175
84471W        W56786  36.134   6.332   2.133
84472W        W56787   9.548  31.507   2.341
84473W        W56788  23.820  23.394   1.632
84474W        W56789  11.363  36.074   1.854
84475W        W56790  33.658  27.506  13.114
84476W        W56791  41.124  25.127   3.662
84477W        W56792  44.069  13.396   1.789
84478W        W56793  18.040  18.027  12.039
84479W        W56794  11.088  31.696   4.142
84480W        W56795  37.391  35.457  11.060
84481W        W56796  32.514  42.110  11.129
84482W        W56797  20.245  15.000   4.789
84483W        W56798  39.963  13.828   3.432
84484W        W56799  24.183  22.116   5.483
84485W        W56800  29.301   4.836   1.333
84486W        W56801  22.909   5.234   4.321
84487W        W56802  11.040  27.723   0.951
84488W        W56803  22.946   6.722   1.412
84489W        W56804  30.442  43.409   1.949
84490W        W56805  18.530  34.347   3.661
84491W        W56806  38.116  37.647  14.708
84492W        W56807   6.898  27.104  10.490
84493W        W56808  17.531  16.563   4.566
84494W        W56809  17.649  11.256  10.054
84495W        W56810  13.279  20.379   1.940
84496W        W56811  10.254  38.822   0.773
84497W        W56812   9.789  15.653   1.690
84498W        W56813  41.996  22.050  13.090
84499W        W56814  40.517  12.714  10.795
84500W        W56815  16.248  39.786  14.846
84501W        W56816  32.228  16.731   0.841
84502W        W56817  39.773  13.379   4.493
84503W        W56818  26.457  18.174   0.866
84504W        W56819  22.589  25.141   3.603
84505W        W56820  10.127  15.311   0.348
84506W        W56821  35.457  41.010  14.579
84507W        W56822  14.820  21.632  12.671
84508W        W56823  17.901  25.182   0.705
84509W        W56824  16.577  31.937   1.452
84510W        W56825  26.544  18.564   0.546
84511W        W56826   4.478  31.313  11.596
84512W        W56827  16.187   3.946   0.656
84513W        W56828  11.808   1.199   0.666
84514W        W56829  19.024  15.256   3.642
84515W        W56830   9.306   4.407  10.888
84516W        W56831  41.983   0.259   0.747
84517W        W56832  25.939  14.036  13.974
84518W        W56833  21.614  11.139  14.796
84519W        W56834  16.655  29.155   0.478
84520W        W56835  33.518  18.290   0.071
84521W        W56836  44.515  19.178  12.742
84522W        W56837  29.915  40.343  13.579
84523W        W56838  20.565   7.137   2.877
84524W        W56839  17.426  43.919  10.836
84525W        W56840  28.161  35.967   1.004
84526W        W56841  41.485  15.952   3.672
84527W        W56842  43.865  13.653  14.019
84528W        W56843  38.213   4.503  14.456
84529W        W56844  41.470  20.274   1.913
84530W        W56845   4.907   2.204   3.032
84531W        W56846   9.132  37.640   0.743
84532W        W56847  22.841   1.973   3.182
84533W        W56848   9.199  43.547  14.517
84534W        W56849  27.761  35.207  10.248
84535W        W56850  24.430  21.314   2.739
84536W        W56851  12.687  27.581  10.631
84537W        W56852  22.198   8.376  12.833
84538W        W56853  24.569  31.113   3.129
84539W        W56854  16.868  35.150   1.311
84540W        W56855  15.323  20.202  11.167
84541W        W56856   3.352  29.606  12.450
84542W        W56857   2.417  41.444  13.544
84543W        W56858   8.313  31.419  12.834
84544W        W56859  36.522   1.022  14.743
84545W        W56860  15.753   6.898  14.553
84546W        W56861  10.969  29.953   2.737
84547W        W56862  12.034   7.136  14.955
84548W        W56863  28.289  20.536  10.222
84549W        W56864  40.671  15.662   4.586
84550W        W56865  23.580  32.473   1.913
84551W        W56866   2.673  34.470  12.878
84552W        W56867   4.887  43.285  14.132
84553W        W56868  37.537  23.472  12.481
84554W        W56869  19.535  25.612   3.376
84555W        W56870  16.116  26.198  14.353
84556W        W56871  14.416  12.313  13.888
84557W        W56872  22.156   5.846  14.106
84558W        W56873  30.983  24.721  14.447
84559W        W56874  15.500  13.608   0.727
84560W        W56875  37.888  12.732  11.486
84561W        W56876  28.918  43.865  14.287
84562W        W56877   7.364  34.910   3.845
84563W        W56878   0.918  41.398   2.699
84564W        W56879  18.414   8.719   4.130
84565W        W56880  16.347   7.883   2.747
84566W        W56881   5.823  43.539   3.261
84567W        W56882  28.445  23.724  11.504
84568W        W56883  27.948  26.683  10.203
84569W        W56884  24.156   1.887   0.251
84570W        W56885  11.706  24.401   2.012
84571W        W56886   4.316  12.034   4.076
84572W        W56887  40.931  29.952  10.608
84573W        W56888   2.342  21.140   1.952
84574W        W56889  22.999  13.836   1.661
84575W        W56890  41.723  37.938   1.711
84576W        W56891  17.670  27.771   2.316
84577W        W56892  42.166  38.320  12.787
84578W        W56893  40.002  34.364  14.534
84579W        W56894  38.676  24.201   4.469
84580W        W56895  25.941  36.441   0.743
84581W        W56896  23.687  39.254  12.350
84582W        W56897  34.602  28.047  13.814
84583W        W56898   3.846   7.154   5.313
84584W        W56899  11.397  10.656  11.045
84585W        W56900  28.212   2.445   4.180
84586W        W56901  27.593  26.706  14.790
84587W        W56902   4.318  39.585  12.868
84588W        W56903  11.769  14.218   4.249
84589W        W56904  38.024  44.963  13.056
84590W        W56905   6.972  23.565   0.262
84591W        W56906  12.361  20.220   2.914
84592W        W56907  23.106  26.141  12.424
84593W        W56908  41.266  11.222  14.338
84594W        W56909   6.357  33.434   4.169
84595W        W56910  23.147  36.014   0.836
84596W        W56911  39.794  11.611  12.452
84597W        W56912  30.436   8.895  14.378
84598W        W56913   6.778  35.505   4.582
84599W        W56914  40.602   1.933  14.973
84600W        W56915  43.286  33.597   4.158
84601W        W56916  19.522  33.814   0.252
84602W        W56917  17.784  12.232  13.529
84603W        W56918  18.294  33.569  14.308
84604W        W56919  40.888   9.427   2.130
84605W        W56920  21.685  15.225   3.047
84606W        W56921  12.819  44.716  13.630
84607W        W56922  20.625  33.979   0.808
84608W        W56923   6.636  39.490  13.621
84609W        W56924  31.658  30.646   0.312
84610W        W56925  29.522  38.520   4.529
84611W        W56926  41.092  43.630  14.284
84612W        W56927  24.976  31.360   3.318
84613W        W56928   0.266  39.303   0.403
84614W        W56929  10.383   5.388  11.183
84615W        W56930  35.726  12.300   1.506
84616W        W56931  25.526  43.878  11.471
84617W        W56932  26.675  37.550  12.150
84618W        W56933  34.192  21.646   3.340
84619W        W56934  20.959  44.100   0.864
84620W        W56935  14.892  35.546   4.188
84621W        W56936   0.142  20.662  13.835
84622W        W56937  11.856  44.800  12.608
84623W        W56938  15.132   9.674   3.538
84624W        W56939  31.376  28.992  13.506
84625W        W56940  19.019  23.701   3.324
84626W        W56941  25.189  44.453  14.804
84627W        W56942  22.890  38.479  11.054
84628W        W56943  29.912  27.464   1.340
84629W        W56944  10.758  23.667  11.590
84630W        W56945  28.790  12.264  13.659
84631W        W56946  14.238   8.138   4.545
84632W        W56947  38.223   2.005  14.344
84633W        W56948  25.998  39.620   3.814
84634W        W56949  28.883  21.906   4.371
84635W        W56950  26.143   0.375   0.754
84636W        W56951  38.580  41.350  11.165
84637W        W56952  25.515  31.123  14.883
84638W        W56953  22.049  36.691   4.954
84639W        W56954  10.721   6.299  11.318
84640W        W56955  33.369   2.782   3.057
84641W        W56956  13.302  10.130   1.875
84642W        W56957  27.213  21.537  10.599
84643W        W56958  25.104  28.187  12.424
84644W        W56959  18.047  35.146   4.101
84645W        W56960   8.979  25.243  14.777
84646W        W56961   8.935  41.312  10.655
84647W        W56962  14.156  16.376   3.766
84648W        W56963  41.481  18.090   2.993
84649W        W56964  13.917   9.943   1.149
84650W        W56965  26.981  30.654   3.385
84651W        W56966  41.570  37.694  10.088
84652W        W56967   2.261   7.704   2.882
84653W        W56968  25.535  11.793   3.757
84654W        W56969   9.179  17.697   1.766
84655W        W56970  43.983  24.401  11.672
84656W        W56971   0.078  39.381   2.727
84657W        W56972  31.376  24.496   0.842
84658W        W56973  18.943  24.705   2.731
84659W        W56974  13.259  20.601  13.536
84660W        W56975  23.261  31.430   2.611
84661W        W56976  41.593  33.927   1.893
84662W        W56977  19.279  26.025   1.315
84663W        W56978  34.318  27.662   3.259
84664W        W56979   6.826  15.047  11.055
84665W        W56980  24.532  39.307   1.213
84666W        W56981  38.549  25.077   1.217
84667W        W56982  39.780  25.674   2.386
84668W        W56983   7.752  10.713  13.994
84669W        W56984  33.006   0.887   0.493
84670W        W56985  37.352  43.970   2.738
84671W        W56986   5.527   4.310   4.043
84672W        W56987  16.121  30.725  11.439
84673W        W56988  12.171  40.642   1.822
84674W        W56989  35.811  10.230  13.394
84675W        W56990  29.985  21.739  13.875
84676W        W56991  30.356  44.230   3.636
84677W        W56992   1.004  33.147  11.476
84678W        W56993  13.646  18.818  11.970
84679W        W56994   0.357   1.373   2.243
84680W        W56995  30.018   9.855  12.425
84681W        W56996  18.101  15.925  14.743
84682W        W56997  23.031  15.952   2.608
84683W        W56998  16.322  22.990  13.789
84684W        W56999  26.556   9.146   0.853
84685W        W57000  44.450  38.081  11.046
84686W        W57001  44.322  10.467   2.392
84687W        W57002  35.045  15.904   3.154
84688W        W57003  31.151  10.453  10.999
84689W        W57004  16.272  17.358   1.509
84690W        W57005  39.430  32.107  14.725
84691W        W57006  37.841  15.979   1.738
84692W        W57007  42.547  32.378  14.730
84693W        W57008  28.084  17.206  13.658
84694W        W57009   4.520   5.172  12.839
84695W        W57010  43.898  10.126   9.750
84696W        W57011  20.954  27.422  14.941
84697W        W57012  20.940  10.225  12.084
84698W        W57013  14.059  23.193   3.530
84699W        W57014   2.156  19.661  10.782
84700W        W57015  34.483  16.723   3.031
84701W        W57016  24.962  15.093   0.273
84702W        W57017  42.077   4.326  13.954
84703W        W57018  33.488  33.218   4.185
84704W        W57019  25.571  24.737  14.806
84705W        W57020  21.524  18.685  11.360
84706W        W57021   4.609   2.010   2.620
84707W        W57022  25.009   6.444  11.674
84708W        W57023  15.367  39.403   2.629
84709W        W57024  38.795  19.561  10.944
84710W        W57025  31.489   8.668   4.852
84711W        W57026   2.619  41.125  12.374
84712W        W57027   3.598  28.172   4.193
84713W        W57028  25.958   2.953   4.225
84714W        W57029   1.434  10.143   1.804
84715W        W57030  29.839   8.663  11.154
84716W        W57031  33.044  17.289  11.235
84717W        W57032   0.785  22.825   1.805
84718W        W57033   0.324  14.804   1.914
84719W        W57034  33.635   1.780  11.959
84720W        W57035  27.371  34.961   4.876
84721W        W57036  32.313   9.699   1.904
84722W        W57037  20.249  36.535   0.518
84723W        W57038  20.247   9.179   0.040
84724W        W57039  26.668   4.396   2.916
84725W        W57040   0.060  40.669  14.872
84726W        W57041  13.639  10.355  12.974
84727W        W57042  21.496   5.798  12.448
84728W        W57043  18.835  30.332  12.491
84729W        W57044  19.828  11.283  13.308
84730W        W57045  13.264   5.181  13.874
84731W        W57046  25.678   1.803   4.536
84732W        W57047  17.551  40.287  13.013
84733W        W57048  13.616  25.834  12.688
84734W        W57049  40.743  22.973   2.177
84735W        W57050  24.595  19.378   2.704
84736W        W57051  15.591  21.226   4.307
84737W        W57052  43.485  31.126   0.474
84738W        W57053  30.076  41.581  13.236
84739W        W57054  29.022  41.854  14.410
84740W        W57055  30.231  44.942  13.333
84741W        W57056   2.274  13.697   3.165
84742W        W57057   0.771  24.794  11.560
84743W        W57058   3.232  12.204  10.295
84744W        W57059  25.769   0.413   1.139
84745W        W57060  40.109  27.611  13.933
84746W        W57061  37.140  36.886   1.047
84747W        W57062  40.560  31.004  10.468
84748W        W57063   4.847  25.236   2.765
84749W        W57064  26.520  10.144   2.183
84750W        W57065  33.065   9.407  12.489
84751W        W57066  16.563  29.653   0.373
84752W        W57067  44.958  31.900   4.565
84753W        W57068  35.203  19.577   3.675
84754W        W57069  26.992  33.747  12.852
84755W        W57070  20.693  44.681  10.631
84756W        W57071  24.469  20.428  12.833
84757W        W57072   4.725  38.778   2.466
84758W        W57073  15.062   0.961  14.916
84759W        W57074   2.701  35.379   3.361
84760W        W57075  20.469   1.877  12.490
84761W        W57076  16.784  11.738   1.976
84762W        W57077  22.353  32.483  13.377
84763W        W57078  44.880  25.457  14.782
84764W        W57079  37.558  38.970  14.174
84765W        W57080   4.407   7.969  14.389
84766W        W57081  29.671   5.780  14.949
84767W        W57082  40.591  14.818   2.226
84768W        W57083  31.563  12.698   1.870
84769W        W57084  38.556  11.868   2.352
84770W        W57085  42.982  44.363  13.111
84771W        W57086  11.118  26.613  11.959
84772W        W57087  18.224  36.389   0.063
84773W        W57088  25.995  24.656   2.194
84774W        W57089  29.610   2.444   0.343
84775W        W57090  40.290  44.165   1.773
84776W        W57091  14.645  41.521   0.820
84777W        W57092   5.661  42.071   2.841
84778W        W57093   4.049   2.129   2.720
84779W        W57094   5.364  15.599   2.044
84780W        W57095  39.328  11.120   4.270
84781W        W57096   8.721  27.608  12.786
84782W        W57097  21.927   0.990   4.196
84783W        W57098   7.820  30.637  12.868
84784W        W57099   6.802  44.363   4.365
84785W        W57100  31.054   3.820   1.220
84786W        W57101  37.524  17.504  11.164
84787W        W57102  29.601  36.491  12.495
84788W        W57103  30.240  18.492   2.090
84789W        W57104  35.409  34.653  13.950
84790W        W57105   2.450   4.920  13.250
84791W        W57106  34.143   4.810  12.151
84792W        W57107  36.363  29.749  14.536
84793W        W57108  31.361   8.662  13.421
84794W        W57109  35.428  21.671  11.185
84795W        W57110  22.678   0.665  13.956
84796W        W57111  27.210  44.756   2.191
84797W        W57112  14.916  25.127   3.652
84798W        W57113  13.973  33.195  12.495
84799W        W57114  14.918  25.870   3.111
84800W        W57115   1.694  18.050   0.445
84801W        W57116  41.321   3.864  11.061
84802W        W57117  14.208  21.279   2.168
84803W        W57118  14.764  24.523   4.292
84804W        W57119  34.400  22.529  12.382
84805W        W57120  14.860  36.599  13.514
84806W        W57121  38.812   8.675   0.876
84807W        W57122  41.120  34.967  13.440
84808W        W57123   9.766  18.342   1.426
84809W        W57124   3.968  35.688   4.073
84810W        W57125  11.523  42.341   3.380
84811W        W57126  31.840  24.672  12.612
84812W        W57127  39.525  34.539   2.275
84813W        W57128  35.509  32.395   2.317
84814W        W57129   9.063  36.505   4.631
84815W        W57130  27.051  29.166  12.505
84816W        W57131  30.975  27.479  14.270
84817W        W57132   7.830  10.294  10.651
84818W        W57133  22.186  42.304   1.683
84819W        W57134   4.949  11.929   4.197
84820W        W57135  39.132  11.660   3.893
84821W        W57136  16.739  17.737  13.963
84822W        W57137  24.075  20.555  14.502
84823W        W57138  10.573  30.389   3.492
84824W        W57139   9.682   9.913  11.588
84825W        W57140  25.094  38.749   3.614
84826W        W57141   7.359   2.094   4.189
84827W        W57142  44.247   6.851   1.191
84828W        W57143  12.141  43.442   3.251
84829W        W57144  32.650  40.873  11.720
84830W        W57145   5.687  19.513   3.158
84831W        W57146  42.907  23.039   3.930
84832W        W57147  35.330   9.209   0.374
84833W        W57148  22.632  26.312   1.763
84834W        W57149  17.867   3.335  11.690
84835W        W57150  38.459  28.985  12.004
84836W        W57151  40.006   1.747   3.172
84837W        W57152  12.848  20.276  13.534
84838W        W57153  12.529  16.834  13.938
84839W        W57154  29.475   5.007  10.792
84840W        W57155  15.060  44.360   0.382
84841W        W57156   4.831  22.986   3.227
84842W        W57157  41.024  13.570   2.255
84843W        W57158  20.487  10.331  12.310
84844W        W57159   6.792  42.591  14.375
84845W        W57160  40.912  39.345   0.451
84846W        W57161  15.898  33.381  12.948
84847W        W57162  42.868   8.549   3.554
84848W        W57163  37.070   4.356   4.510
84849W        W57164  24.264  37.204  12.741
84850W        W57165  15.460  20.639   4.523
84851W        W57166   1.853  43.410  14.509
84852W        W57167  19.222  33.971   3.048
84853W        W57168  28.965  13.127   3.127
84854W        W57169  16.897   1.864  14.302
84855W        W57170  18.549  22.938   2.145
84856W        W57171  44.228  44.488  13.574
84857W        W57172  39.881  23.136   4.307
84858W        W57173  38.477  41.743   3.423
84859W        W57174  43.407  20.788   0.607
84860W        W57175   0.819   4.850   2.836
84861W        W57176  33.200  23.286  12.419
84862W        W57177  37.886   4.482   3.128
84863W        W57178   6.098  39.098  14.442
84864W        W57179  19.258  21.276   3.685
84865W        W57180  40.438  22.600   2.390
84866W        W57181   1.946   2.991   3.201
84867W        W57182  10.113  30.112  13.570
84868W        W57183   7.739  31.581   1.044
84869W        W57184  40.139  19.259  14.017
84870W        W57185  20.857   8.719   4.127
84871W        W57186   4.945  34.486   1.319
84872W        W57187  11.483  35.945   2.484
84873W        W57188  22.610   0.169   3.608
84874W        W57189   0.279  13.352  11.925
84875W        W57190  14.558  19.998  14.882
84876W        W57191  40.906  29.200   2.212
84877W        W57192  14.851  16.064  12.088
84878W        W57193  14.109  34.225  11.623
84879W        W57194  29.743  21.305  10.700
84880W        W57195  39.833  21.276  12.271
84881W        W57196  18.304   9.767  13.429
84882W        W57197  37.701  20.314  11.275
84883W        W57198  23.427  40.103  14.376
84884W        W57199  18.112  31.373  14.362
84885W        W57200  38.891  36.342  14.286
84886W        W57201  40.055  22.460   0.831
84887W        W57202  27.512  18.121   1.991
84888W        W57203  27.756  39.949  12.027
84889W        W57204   3.833   5.438   4.899
84890W        W57205  26.208  22.713  11.922
84891W        W57206   9.296  25.530  13.556
84892W        W57207   4.196  10.621  13.488
84893W        W57208  18.276  41.412   5.499
84894W        W57209  13.694  20.759   0.341
84895W        W57210  27.752  37.853   5.133
84896W        W57211  36.575  25.656   0.452
84897W        W57212  17.748   2.174  10.887
84898W        W57213   6.057   3.134  12.527
84899W        W57214   7.244  36.495   4.591
84900W        W57215  14.753  20.714  11.601
84901W        W57216  17.245  44.672   2.419
84902W        W57217   3.866  33.537  10.591
84903W        W57218   8.599  16.127   0.327
84904W        W57219  39.038  44.024   2.744
84905W        W57220  38.883  31.703  13.343
84906W        W57221  36.960  40.843  14.496
84907W        W57222  16.764   2.961   3.011
84908W        W57223  28.019   6.463  14.916
84909W        W57224  18.698  17.557   1.820
84910W        W57225  15.973  14.357   3.219
84911W        W57226  41.025  19.452  14.066
84912W        W57227  16.351   1.420  14.017
84913W        W57228   5.765  40.828   4.075
84914W        W57229   9.664  28.544  14.257
84915W        W57230  30.226  21.075  13.872
84916W        W57231  13.988  37.782   3.194
84917W        W57232   1.197  28.908   2.130
84918W        W57233  34.564   9.436  12.466
84919W        W57234   5.964  20.530   0.356
84920W        W57235  41.579  31.467   4.209
84921W        W57236   7.754   0.869  13.298
84922W        W57237  11.392  22.384   4.226
84923W        W57238  21.265  12.321  14.502
84924W        W57239  38.969  39.772   2.408
84925W        W57240   4.063  42.041  11.932
84926W        W57241  10.640   1.733   3.878
84927W        W57242  27.360  20.632  11.971
84928W        W57243  16.371   3.355   4.975
84929W        W57244  12.094  34.463   0.527
84930W        W57245  31.874  33.345  11.819
84931W        W57246   4.313  17.354   4.244
84932W        W57247  37.801   6.724  10.608
84933W        W57248  42.692  36.407   1.485
84934W        W57249   3.939  24.735  12.310
84935W        W57250  14.850   0.373   1.869
84936W        W57251  19.747   0.438  12.467
84937W        W57252  18.680  31.378   2.119
84938W        W57253  41.062  20.120   2.858
84939W        W57254   9.588   9.678   2.447
84940W        W57255  13.291  23.282  13.488
84941W        W57256  23.427  19.386   2.227
84942W        W57257  35.697  15.691  13.504
84943W        W57258  34.927   0.821  12.132
84944W        W57259  30.331  19.842  11.109
84945W        W57260   8.475  39.577   4.078
84946W        W57261  41.780   8.656  11.230
84947W        W57262  35.576  31.630   1.869
84948W        W57263  26.674  20.846  11.524
84949W        W57264  27.244   0.215   3.228
84950W        W57265  17.475  33.041  11.516
84951W        W57266  44.326  15.758  10.064
84952W        W57267   3.343  18.084  11.450
84953W        W57268  21.270   6.643  12.858
84954W        W57269   7.242  31.453  11.168
84955W        W57270  28.146  31.149   2.169
84956W        W57271  29.953   0.685  11.327
84957W        W57272  33.517  36.323  10.439
84958W        W57273   5.031  16.462  13.493
84959W        W57274  44.210  20.126   0.447
84960W        W57275   2.479  38.559   2.421
84961W        W57276  37.570  14.143   4.783
84962W        W57277   4.844  40.859  12.464
84963W        W57278   3.014   0.220   0.699
84964W        W57279   8.427   2.794  13.590
84965W        W57280  40.521  41.774   1.444
84966W        W57281  14.198  30.844  11.569
84967W        W57282  35.335  10.438   2.142
84968W        W57283   9.144  18.318  13.405
84969W        W57284  14.526  32.316  11.638
84970W        W57285  41.586   3.270  13.071
84971W        W57286  29.401  16.634  14.847
84972W        W57287  13.146  42.463  14.792
84973W        W57288   6.684  16.123   3.187
84974W        W57289  31.504  21.633   1.828
84975W        W57290  26.087  39.489   1.988
84976W        W57291  23.107  41.749  11.685
84977W        W57292   5.204   1.866  11.141
84978W        W57293  32.840  27.626  10.823
84979W        W57294  23.252   3.713   3.631
84980W        W57295  36.567   9.272  11.796
84981W        W57296   1.225  30.007   0.522
84982W        W57297  34.906  10.701   4.214
84983W        W57298  36.039  13.816  13.436
84984W        W57299  28.469  36.003   4.265
84985W        W57300  16.088  31.952  14.039
84986W        W57301  12.075  19.146  14.362
84987W        W57302  17.595   6.678   4.900
84988W        W57303   4.340  33.378  12.429
84989W        W57304   5.752  27.593  11.415
84990W        W57305   5.744   4.697   1.181
84991W        W57306   3.732  39.235  13.223
84992W        W57307  34.070  32.678   2.317
84993W        W57308   7.747   2.348  13.535
84994W        W57309   1.153  39.105  13.952
84995W        W57310  21.403  38.566  11.076
84996W        W57311   3.744  16.849  13.442
84997W        W57312  16.998  44.741  10.250
84998W        W57313  28.647   6.660  11.994
84999W        W57314  10.408  12.668  12.374
85000W        W57315  23.826   5.413  10.836
85001W        W57316  21.675  39.845  11.645
85002W        W57317  30.838  14.639  11.003
85003W        W57318  34.388   4.957  13.109
85004W        W57319  21.767   4.436   4.283
85005W        W57320  12.825  36.310  11.548
85006W        W57321  27.091  36.595  12.104
85007W        W57322  11.104   8.574  11.027
85008W        W57323  37.345  41.107  14.925
85009W        W57324  31.533  21.682  11.711
85010W        W57325  21.070  19.147  12.111
85011W        W57326  40.301   2.880   4.602
85012W        W57327  35.264   8.341   0.173
85013W        W57328  42.424  34.173   4.915
85014W        W57329  18.580  43.994   0.405
85015W        W57330  20.010  30.884   4.963
85016W        W57331  23.663   3.736  11.090
85017W        W57332   5.233  22.218   4.943
85018W        W57333  18.668  25.649  11.816
85019W        W57334  14.080  35.941   0.046
85020W        W57335  43.295   9.114   0.315
85021W        W57336  22.417   2.183  14.103
85022W        W57337  21.605  17.121   1.340
85023W        W57338   9.196  20.544   4.140
85024W        W57339  18.167  18.129   1.187
85025W        W57340  34.486   3.932  12.558
85026W        W57341  27.455  16.802   1.336
85027W        W57342   8.250  44.931  14.473
85028W        W57343   8.611  20.775  13.848
85029W        W57344  17.662  27.430  10.093
85030W        W57345  34.997  21.901  13.774
85031W        W57346  29.455   1.117   3.142
85032W        W57347  19.721  20.469   1.394
85033W        W57348   4.416   5.373  13.777
85034W        W57349   6.899   7.377   2.560
85035W        W57350  20.208   9.817  14.335
85036W        W57351   4.167  33.443   2.379
85037W        W57352  36.403   4.691  14.412
85038W        W57353  10.598   7.362   4.638
85039W        W57354   4.738  40.820   4.003
85040W        W57355  36.004  32.411  14.581
85041W        W57356  18.842  42.364  11.655
85042W        W57357  12.754  12.579   3.243
85043W        W57358   5.314  29.667   4.704
85044W        W57359  39.778   5.245  11.684
85045W        W57360  11.695  18.763   3.802
85046W        W57361  22.672  16.334  10.764
85047W        W57362  16.004  15.989   2.508
85048W        W57363  20.521  15.108   2.239
85049W        W57364   7.292  20.239   3.709
85050W        W57365   0.426  40.888   3.690
85051W        W57366  39.291  19.655  11.056
85052W        W57367   7.282  35.181   0.004
85053W        W57368   4.309   4.429  13.445
85054W        W57369   0.311  28.732  12.277
85055W        W57370  35.035   5.204   1.149
85056W        W57371  42.374  41.039   3.427
85057W        W57372  13.828   0.003  13.323
85058W        W57373  25.630  12.198   2.368
85059W        W57374  17.372   3.426   4.102
85060W        W57375  20.289  31.655  14.797
85061W        W57376  38.035  10.141  14.788
85062W        W57377  28.200  27.615   2.369
85063W        W57378  36.915  36.967  14.956
85064W        W57379   3.061  33.298   3.278
85065W        W57380  41.866  35.053  11.383
85066W        W57381  40.772  15.178  11.990
85067W        W57382  44.577  35.769   1.305
85068W        W57383  24.286  17.817   4.372
85069W        W57384  39.830  20.000  11.643
85070W        W57385  33.042  42.172  11.198
85071W        W57386  38.808  40.393   3.976
85072W        W57387   4.333  27.970   2.389
85073W        W57388  25.454   3.755  12.004
85074W        W57389  33.578  27.435  14.675
85075W        W57390  24.035  32.833   2.409
85076W        W57391  44.772  40.909  13.387
85077W        W57392  44.250  41.338  14.281
85078W        W57393  23.812  32.978   0.331
85079W        W57394  16.740  32.662   2.455
85080W        W57395  31.609  13.078   3.274
85081W        W57396  23.152  27.235   4.583
85082W        W57397  37.794   0.310   1.257
85083W        W57398  22.947  43.415  14.606
85084W        W57399  41.029  23.728   2.663
85085W        W57400  19.793  34.720  11.228
85086W        W57401  19.530  21.210  13.556
85087W        W57402  26.974   9.433   0.382
85088W        W57403  14.810  37.811  12.934
85089W        W57404  31.476  42.830  12.555
85090W        W57405   6.823   2.403  13.840
85091W        W57406  36.230  23.696   2.510
85092W        W57407  33.516  14.370   2.864
85093W        W57408   8.144  36.976   0.709
85094W        W57409  11.359   0.247   4.303
85095W        W57410  16.245   6.703  12.064
85096W        W57411   9.032  26.069   4.132
85097W        W57412   4.976  10.694  14.337
85098W        W57413  40.866  21.986  12.317
85099W        W57414   9.738  27.744   3.219
85100W        W57415  13.288  13.845   2.262
85101W        W57416   9.376  16.744   0.911
85102W        W57417  10.500   4.126  12.703
85103W        W57418   1.782  12.402   3.325
85104W        W57419   6.839  22.566   0.420
85105W        W57420   4.432   7.223   3.213
85106W        W57421  10.773  37.305   2.172
85107W        W57422   3.313   4.921  13.862
85108W        W57423   8.781  27.952   3.739
85109W        W57424  22.334  23.119  13.484
85110W        W57425   3.860  39.363  14.261
85111W        W57426  32.110  26.653   4.053
85112W        W57427   2.753  11.412   2.664
85113W        W57428  38.471  35.922  12.477
85114W        W57429  17.749  42.171   4.631
85115W        W57430   9.396  34.139   2.762
85116W        W57431  18.483  42.640  13.421
85117W        W57432  35.726  15.269  11.610
85118W        W57433  44.721  30.451   3.669
85119W        W57434  15.481   6.210  10.958
85120W        W57435  31.180  26.334  12.108
85121W        W57436  22.759  17.769  10.680
85122W        W57437   4.941  41.492   3.227
85123W        W57438  29.541  29.383  13.479
85124W        W57439  10.360   3.983  10.174
85125W        W57440   1.373  22.485   1.057
85126W        W57441  36.160   8.418   2.371
85127W        W57442  40.343  10.753  14.592
85128W        W57443  36.561   1.932   2.596
85129W        W57444  35.064   9.545  10.739
85130W        W57445   1.724  15.706  10.642
85131W        W57446   6.341  39.536   4.294
85132W        W57447  10.143  34.858  10.788
85133W        W57448  44.038  40.562  12.635
85134W        W57449   0.208  26.630   0.796
85135W        W57450   6.393  38.580   0.816
85136W        W57451   5.722  12.138   1.716
85137W        W57452  30.414  27.661  11.484
85138W        W57453  14.241  38.016  10.796
85139W        W57454  12.194  15.150  13.416
85140W        W57455  22.780  13.342   1.834
85141W        W57456  20.450  25.947  12.915
85142W        W57457  18.526  21.323   4.161
85143W        W57458  31.438   0.769   2.718
85144W        W57459  32.868   7.266  11.092
85145W        W57460  27.056  38.307   0.848
85146W        W57461  30.454   8.794   2.892
85147W        W57462   6.934  26.721   0.220
85148W        W57463  42.455  10.618  11.641
85149W        W57464  15.568  30.050  11.158
85150W        W57465  32.193   3.223  11.131
85151W        W57466  29.283  38.924   2.730
85152W        W57467   0.494  16.645  13.874
85153W        W57468   7.710   3.878  12.957
85154W        W57469  26.719  15.925   1.209
85155W        W57470  37.981  10.579   2.606
85156W        W57471   3.507   6.763  10.587
85157W        W57472   8.463  44.808   0.841
85158W        W57473  29.249  24.855   2.747
85159W        W57474  29.811  11.939  13.036
85160W        W57475  27.644  41.469  11.140
85161W        W57476   2.072  17.171   0.468
85162W        W57477  39.440  38.277   0.992
85163W        W57478  40.526  35.881   2.953
85164W        W57479  27.003   7.911   0.353
85165W        W57480  20.101  35.627   1.268
85166W        W57481   3.277  38.727   2.246
85167W        W57482  11.512  20.083  10.207
85168W        W57483  12.721   7.416   4.846
85169W        W57484  26.617   3.208   1.816
85170W        W57485  25.599   9.145   1.316
85171W        W57486  24.709  18.869   2.738
85172W        W57487  29.725  24.561   2.651
85173W        W57488   5.246  30.219  11.563
85174W        W57489  21.611   4.789  10.672
85175W        W57490  33.216   8.855   2.292
85176W        W57491  37.811  20.994  13.023
85177W        W57492  25.370   0.342  11.641
85178W        W57493  21.821  16.475   0.723
85179W        W57494   2.791  14.785   4.516
85180W        W57495  21.075   5.066  11.550
85181W        W57496  34.441  30.284   4.092
85182W        W57497  43.416  22.310  13.409
85183W        W57498  44.493  21.644   4.648
85184W        W57499  41.364   9.780   0.531
85185W        W57500  31.356   3.737  14.262
85186W        W57501  40.632   5.224   3.427
85187W        W57502  16.044  38.374  11.026
85188W        W57503  13.876  38.455  10.864
85189W        W57504  14.559  15.127   1.407
85190W        W57505  13.308  16.993  11.032
85191W        W57506   1.146  10.667   3.195
85192W        W57507  15.716   7.208  14.992
85193W        W57508  34.136  43.015  12.225
85194W        W57509  35.495  28.117  14.114
85195W        W57510  39.620   9.438  10.705
85196W        W57511  19.758  27.926   2.863
85197W        W57512  11.227  28.450  13.571
85198W        W57513  27.140   0.374   0.785
85199W        W57514  21.616  28.694  13.493
85200W        W57515  39.858  33.945  10.630
85201W        W57516  31.617   2.361  11.508
85202W        W57517   4.813  15.262  12.408
85203W        W57518  29.274  15.070   2.877
85204W        W57519  15.687  30.688   5.010
85205W        W57520   1.993  19.684  12.991
85206W        W57521  34.929  32.933   1.838
85207W        W57522   0.430  44.998   2.952
85208W        W57523  11.844  40.433  12.563
85209W        W57524  26.434  14.760   1.999
85210W        W57525   2.546  14.084  10.722
85211W        W57526  25.598  44.849  12.498
85212W        W57527  11.291   3.857  13.423
85213W        W57528   6.156   8.552  10.014
85214W        W57529  43.989   6.699  13.329
85215W        W57530   5.895   7.317   0.857
85216W        W57531  13.417  11.607   0.208
85217W        W57532  28.023  22.566   1.838
85218W        W57533  12.274   3.276   4.372
85219W        W57534  29.037  30.998   2.671
85220W        W57535   7.133  27.236   4.404
85221W        W57536  25.141   1.460   0.311
85222W        W57537  40.413   2.959   1.875
85223W        W57538  24.889  20.159  14.014
85224W        W57539  42.426  43.719  10.776
85225W        W57540  22.178  22.985  12.100
85226W        W57541   9.828  32.126   0.820
85227W        W57542  16.661   7.527   1.008
85228W        W57543  35.934  33.186   0.767
85229W        W57544  12.695  16.013  11.629
85230W        W57545  24.990  35.574   1.952
85231W        W57546   1.676  22.190   2.273
85232W        W57547  19.162  29.991  13.920
85233W        W57548  11.809  44.745  14.436
85234W        W57549  44.734   1.712   3.261
85235W        W57550  39.365  15.079   2.374
85236W        W57551   7.466  37.830   4.210
85237W        W57552  38.688  15.833  11.634
85238W        W57553  41.014  27.626   0.803
85239W        W57554  11.775  41.887  13.877
85240W        W57555  20.454  10.666   9.670
85241W        W57556   2.333  26.911  13.956
85242W        W57557  13.817  43.740   3.938
85243W        W57558  15.751   8.076  13.402
85244W        W57559  13.233   0.822  14.511
85245W        W57560  30.407  22.421   2.470
85246W        W57561   5.627  22.877  14.978
85247W        W57562   5.708  37.815   4.575
85248W        W57563  22.957  14.759   4.195
85249W        W57564   3.178  13.065  14.042
85250W        W57565  30.330   2.507  11.035
85251W        W57566   3.918  38.776  13.038
85252W        W57567   8.791  39.690   4.879
85253W        W57568  30.127  27.590   0.860
85254W        W57569  17.019  11.186   3.770
85255W        W57570  12.557  25.607   3.265
85256W        W57571   1.398  19.543   2.874
85257W        W57572   4.171   7.337  12.805
85258W        W57573  13.123   3.862  11.638
85259W        W57574  18.006  29.652  14.494
85260W        W57575  10.768  16.244  13.429
85261W        W57576  31.141   2.953  10.576
85262W        W57577   6.873  14.781  14.526
85263W        W57578  34.096  19.660  14.769
85264W        W57579  26.509  37.053  14.863
85265W        W57580  43.183  35.876   4.255
85266W        W57581   0.704  10.748  14.313
85267W        W57582  26.957  18.346  11.189
85268W        W57583  21.538   6.501  11.990
85269W        W57584  37.749   5.155   3.839
85270W        W57585  15.649  24.764  10.962
85271W        W57586  13.821  33.418  12.015
85272W        W57587  20.711   8.349  10.663
85273W        W57588  35.805  38.769   4.155
85274W        W57589  42.639  15.222  12.641
85275W        W57590  34.076  24.056   2.098
85276W        W57591   9.082  23.616   0.446
85277W        W57592  44.231  43.274   1.802
85278W        W57593  27.028  39.574   3.844
85279W        W57594   2.401  38.285  11.601
85280W        W57595  19.286  11.353   2.961
85281W        W57596  13.670  44.316   4.185
85282W        W57597   2.699  38.054  13.452
85283W        W57598  22.184  31.331   0.929
85284W        W57599  23.216   6.426   3.813
85285W        W57600  44.626   4.297   1.759
85286W        W57601  13.640  23.813  11.172
85287W        W57602  17.124  31.476  13.423
85288W        W57603  38.480  24.023  12.854
85289W        W57604   1.676   5.374   3.816
85290W        W57605  23.633  17.241   4.853
85291W        W57606  34.466  29.572   2.672
85292W        W57607  39.545  40.246  13.322
85293W        W57608  25.367  29.135   2.900
85294W        W57609   7.246  36.078   2.209
85295W        W57610  16.196   8.724  14.732
85296W        W57611   1.407   0.540   4.249
85297W        W57612  21.729  21.536  11.404
85298W        W57613  27.420  12.581  13.549
85299W        W57614  20.943  39.521   0.118
85300W        W57615  10.395   3.802  13.140
85301W        W57616   1.386  36.494   1.953
85302W        W57617   4.971  11.724   0.931
85303W        W57618   6.623   5.903   3.384
85304W        W57619  36.396  41.482   4.081
85305W        W57620  12.852   9.326   2.297
85306W        W57621   6.950  35.899  10.357
85307W        W57622  39.584  14.081  11.533
85308W        W57623   0.363  22.225  13.176
85309W        W57624   1.868  26.739  11.106
85310W        W57625  26.516   2.839  13.283
85311W        W57626  38.828   6.197   0.384
85312W        W57627  38.778  17.557   0.505
85313W        W57628  29.722  13.105   0.465
85314W        W57629  42.795  11.582  11.995
85315W        W57630  38.326  21.368  14.646
85316W        W57631   0.344   5.711  13.841
85317W        W57632  35.338  24.714  12.339
85318W        W57633   4.160   4.963   0.603
85319W        W57634  29.931  23.487  14.867
85320W        W57635  29.348   1.779   0.742
85321W        W57636  44.972  28.449  12.551
85322W        W57637  22.236  43.937   1.273
85323W        W57638  15.556   1.287   1.200
85324W        W57639  43.295  40.646   4.661
85325W        W57640  11.814  44.382   4.531
85326W        W57641  43.326  14.889  11.582
85327W        W57642  32.648  23.909   0.781
85328W        W57643  26.518  33.168   1.770
85329W        W57644   4.832  39.063   1.536
85330W        W57645  31.324  17.774   1.777
85331W        W57646  16.339   1.354   1.669
85332W        W57647  11.759  11.837   9.982
85333W        W57648   9.081   4.651  10.046
85334W        W57649  10.081  19.640   2.874
85335W        W57650   7.111  29.089  14.463
85336W        W57651  42.306  12.177   3.271
85337W        W57652  24.211  12.127   4.061
85338W        W57653  31.071  35.091  13.461
85339W        W57654  35.089  10.306  12.435
85340W        W57655  39.298  39.319  10.689
85341W        W57656  23.210  24.820   4.068
85342W        W57657  18.751  11.771   1.904
85343W        W57658  36.961  44.236  10.561
85344W        W57659  18.236  21.442  10.579
85345W        W57660   7.541  38.551  14.937
85346W        W57661  41.798  20.290   3.407
85347W        W57662  20.767   7.563  11.146
85348W        W57663  23.961  19.801  13.022
85349W        W57664  10.834  21.283  11.103
85350W        W57665  24.023  25.142  11.689
85351W        W57666   0.095   8.120  14.335
85352W        W57667  33.857   0.945   2.798
85353W        W57668   4.759  35.951  10.861
85354W        W57669  19.801  21.485  13.927
85355W        W57670   3.835  16.590  12.001
85356W        W57671  16.681  15.131   2.854
85357W        W57672   3.130  36.034  12.622
85358W        W57673  38.057   1.772  10.688
85359W        W57674  29.679  33.685  12.016
85360W        W57675   0.223  31.030   3.626
85361W        W57676  12.896  33.891   1.417
85362W        W57677   3.456  18.587   5.136
85363W        W57678  10.414  32.903  12.043
85364W        W57679  14.599  19.820  11.583
85365W        W57680  12.331  25.608  12.572
85366W        W57681   3.367   2.887   1.234
85367W        W57682  17.883  16.644  11.577
85368W        W57683  26.967  14.891   2.715
85369W        W57684  44.390  27.492   2.006
85370W        W57685  44.952  43.432   1.338
85371W        W57686  32.579  15.151  11.865
85372W        W57687  38.398  23.137  11.583
85373W        W57688  34.624  44.987   0.349
85374W        W57689  12.767  24.009  12.580
85375W        W57690   2.501  20.220   1.426
85376W        W57691  43.347  34.067  12.472
85377W        W57692  19.244  36.199   4.327
85378W        W57693   2.864  44.213   2.269
85379W        W57694   3.968  27.754   1.421
85380W        W57695  17.779  36.933   4.063
85381W        W57696  18.853  18.066  11.592
85382W        W57697  32.526  24.679   1.304
85383W        W57698  30.729  35.136  10.995
85384W        W57699  40.262  27.203  13.494
85385W        W57700  34.950  15.833   0.275
85386W        W57701  23.473   0.416   1.863
85387W        W57702   7.257  44.713  11.405
85388W        W57703   4.641  16.700  12.621
85389W        W57704  11.648  10.290   1.909
85390W        W57705  36.509  37.373  10.704
85391W        W57706  23.276  20.042   3.998
85392W        W57707  26.743  37.519  14.818
85393W        W57708  12.395  36.272  13.417
85394W        W57709   3.874  14.664   3.185
85395W        W57710  26.749   5.489   4.961
85396W        W57711  35.876  13.131  12.951
85397W        W57712  34.038  32.638   1.395
85398W        W57713   7.387   5.423   2.852
85399W        W57714   5.829   8.650   1.662
85400W        W57715  36.182  10.731  11.695
85401W        W57716  31.819   0.026   0.835
85402W        W57717   1.779  19.241   4.791
85403W        W57718  12.277  33.882  12.776
85404W        W57719   9.634  36.911   1.269
85405W        W57720   6.840  10.344   0.530
85406W        W57721  27.147  37.086  11.551
85407W        W57722  19.729   3.181  12.890
85408W        W57723  34.854  38.423   2.610
85409W        W57724  17.501  33.484  13.580
85410W        W57725   8.265  18.515   0.448
85411W        W57726   2.737  10.321   3.699
85412W        W57727   3.645   8.719   5.287
85413W        W57728   3.927   8.148  10.398
85414W        W57729  43.187  11.029   5.459
85415W        W57730  43.679  13.588  11.388
85416W        W57731  24.281  17.198   2.725
85417W        W57732  16.821  25.426   2.196
85418W        W57733  10.926  36.469   4.286
85419W        W57734  38.404  35.538   2.877
85420W        W57735  38.577  43.770   4.490
85421W        W57736  25.908  43.965  10.669
85422W        W57737  14.713  24.941   0.244
85423W        W57738  15.115  17.645  11.977
85424W        W57739  34.475   8.801  10.911
85425W        W57740  12.126  42.908  14.564
85426W        W57741  27.663  29.196  13.585
85427W        W57742  36.522  16.043   0.779
85428W        W57743   0.857  39.498  14.084
85429W        W57744  42.115  30.134   2.382
85430W        W57745  27.038  42.509   2.521
85431W        W57746  20.490   3.886   1.732
85432W        W57747  30.911  32.271  12.052
85433W        W57748  17.071  26.227   1.824
85434W        W57749   4.894  34.971   0.848
85435W        W57750  32.247  41.670  11.260
85436W        W57751  16.033  41.133   4.190
85437W        W57752  12.785  21.258  13.593
85438W        W57753  42.471   7.699   0.919
85439W        W57754  23.632   8.772   1.397
85440W        W57755  12.090  16.673  14.455
85441W        W57756  17.619  30.870  13.895
85442W        W57757  11.819   9.319   4.486
85443W        W57758   3.414  15.771  14.272
85444W        W57759   5.872   2.506   4.794
85445W        W57760  30.025  18.026  13.022
85446W        W57761   6.460  38.974  12.514
85447W        W57762  19.312  33.078   3.463
85448W        W57763  35.120  19.138  12.381
85449W        W57764  27.876  37.615  13.780
85450W        W57765  28.676  18.675   2.759
85451W        W57766  14.704  44.553   2.388
85452W        W57767  43.863  38.538  10.363
85453W        W57768  28.752   2.305  13.589
85454W        W57769  14.596  32.530  14.845
85455W        W57770  40.770  28.374   3.240
85456W        W57771  15.995   5.861  14.905
85457W        W57772   1.293  37.769   3.400
85458W        W57773  40.603  19.527   2.746
85459W        W57774  36.306  33.891  10.605
85460W        W57775  38.379  41.040  13.386
85461W        W57776  26.526  10.645  14.333
85462W        W57777  18.975  44.686  14.452
85463W        W57778   6.855  28.118   4.245
85464W        W57779  43.533  13.410   1.864
85465W        W57780  28.691  33.132   2.213
85466W        W57781  41.238  21.189  13.959
85467W        W57782  40.855  41.762  11.983
85468W        W57783  14.130  28.639  10.779
85469W        W57784  29.429  44.269   4.525
85470W        W57785  32.953  41.277   1.697
85471W        W57786  20.481  14.802  10.628
85472W        W57787   5.665  38.343   4.632
85473W        W57788  29.707  11.433  11.494
85474W        W57789  38.567  18.850   2.193
85475W        W57790  35.396  33.823   3.790
85476W        W57791  32.285  40.051   1.913
85477W        W57792   7.623  34.368  10.464
85478W        W57793  32.890   9.905   0.611
85479W        W57794  34.692  37.041   0.829
85480W        W57795   4.656  40.574   2.207
85481W        W57796  15.521  34.062  12.597
85482W        W57797  24.876   0.244  11.673
85483W        W57798  41.589  38.004   2.218
85484W        W57799  17.466   2.514  13.763
85485W        W57800   9.764  43.518   4.804
85486W        W57801  28.755  25.480   0.209
85487W        W57802  42.713  25.920  11.707
85488W        W57803  43.973  22.956   0.760
85489W        W57804  39.084  19.743  14.989
85490W        W57805   8.994   2.581  12.886
85491W        W57806  24.954  31.900   2.542
85492W        W57807   7.374  17.324   2.164
85493W        W57808  39.032   4.456  13.303
85494W        W57809  35.594  31.385  13.035
85495W        W57810  12.788  23.569   3.204
85496W        W57811   8.193  44.694  11.564
85497W        W57812  21.603  21.034  11.472
85498W        W57813  32.661  12.995   4.102
85499W        W57814   6.437  25.937   1.147
85500W        W57815   7.911  38.135  11.974
85501W        W57816  29.153  17.530   2.225
85502W        W57817   4.650  38.379   0.693
85503W        W57818   5.264  22.438   2.096
85504W        W57819   9.585  35.530  10.651
85505W        W57820  37.257   9.254   3.889
85506W        W57821  23.158  23.599  11.006
85507W        W57822  10.787  14.216   0.331
85508W        W57823  23.311   8.882   3.360
85509W        W57824  16.508  25.035  12.128
85510W        W57825  25.420  17.387  14.422
85511W        W57826  26.710  22.306   0.765
85512W        W57827  41.477  14.911   0.391
85513W        W57828   7.842  30.085  12.038
85514W        W57829  42.736   8.730  11.169
85515W        W57830  33.400   6.627  12.817
85516W        W57831  32.686  42.827   4.652
85517W        W57832   8.170  37.119   2.297
85518W        W57833  20.149  22.098  11.317
85519W        W57834   8.209   6.391   4.010
85520W        W57835  13.129  15.336   1.341
85521W        W57836  41.916  33.655  13.288
85522W        W57837  38.098  39.723   2.405
85523W        W57838  42.420   3.956  11.552
85524W        W57839  21.623  39.552  12.889
85525W        W57840   9.907  25.527   4.301
85526W        W57841   2.390  10.227  10.725
85527W        W57842  27.415  41.031  14.421
85528W        W57843   8.208  26.951   4.209
85529W        W57844  35.060  18.749   5.060
85530W        W57845  39.907  20.004   2.609
85531W        W57846  11.171   2.856   4.637
85532W        W57847   7.687   0.471  12.937
85533W        W57848  19.729  31.432   3.798
85534W        W57849  19.437  27.627   0.255
85535W        W57850  12.833  37.033   1.289
85536W        W57851  37.501  38.030   0.828
85537W        W57852   9.356  30.841   0.909
85538W        W57853  22.332  33.935   4.136
85539W        W57854   0.472  23.662   1.842
85540W        W57855  21.243  18.282   2.784
85541W        W57856  24.944  44.737  13.904
85542W        W57857  37.827  29.677  12.030
85543W        W57858  42.502  27.570   4.635
85544W        W57859  28.637  11.809   3.227
85545W        W57860  18.985   5.325   4.644
85546W        W57861  29.425  31.141  13.894
85547W        W57862  27.426  42.850   4.109
85548W        W57863  17.650  20.141  11.139
85549W        W57864  11.749  12.093   2.544
85550W        W57865  40.456  43.667   1.794
85551W        W57866  26.453  12.643  13.929
85552W        W57867  12.933  23.070  12.858
85553W        W57868  44.486  12.665  11.068
85554W        W57869  30.627  19.611   0.317
85555W        W57870  42.779  30.887   1.393
85556W        W57871   0.842  29.792  13.848
85557W        W57872  41.966  37.439  10.434
85558W        W57873  22.187  44.482   2.706
85559W        W57874  33.735  37.911   2.738
85560W        W57875   3.773  10.102  12.536
85561W        W57876  27.108  34.889  11.241
85562W        W57877  10.803  27.656  11.059
85563W        W57878   1.361  41.471   0.820
85564W        W57879  39.254  10.277  10.343
85565W        W57880  20.758  35.097   4.300
85566W        W57881  15.503  16.285  11.565
85567W        W57882   5.290  30.868  13.851
85568W        W57883  29.161  20.175  13.393
85569W        W57884  42.317  10.225   3.773
85570W        W57885  31.010  42.800  13.862
85571W        W57886  21.250  10.806  14.404
85572W        W57887  34.101   7.184  14.284
85573W        W57888  43.520  23.138   2.167
85574W        W57889  44.943  35.482  11.541
85575W        W57890  11.589  21.145  14.561
85576W        W57891   1.032  42.729  11.120
85577W        W57892  39.141  35.864  10.986
85578W        W57893   5.806  38.017   2.337
85579W        W57894  32.152  11.168  11.480
85580W        W57895  10.463  41.775  13.103
85581W        W57896  27.067  33.450  13.840
85582W        W57897   8.342  13.696   3.142
85583W        W57898  15.846  14.636   4.516
85584W        W57899  10.406  16.425   1.762
85585W        W57900   3.448  14.827   4.106
85586W        W57901   7.047  39.933  11.185
85587W        W57902  25.798  34.458  14.381
85588W        W57903  31.923   3.998  10.601
85589W        W57904   1.352  43.848  14.728
85590W        W57905  21.003   8.220   1.395
85591W        W57906   4.175   5.082   2.020
85592W        W57907  34.811  24.965  14.390
85593W        W57908   3.728  29.140   4.051
85594W        W57909   8.905   1.869  14.924
85595W        W57910  42.531  37.397  10.581
85596W        W57911   6.900  25.100   2.917
85597W        W57912  26.110   2.502  12.574
85598W        W57913  44.786   0.685  13.505
85599W        W57914  18.561  31.482  11.020
85600W        W57915  32.175  42.961   2.158
85601W        W57916   9.425   3.980  11.616
85602W        W57917  35.675   8.338  13.039
85603W        W57918  19.492  35.852   0.346
85604W        W57919  27.186  41.020   0.483
85605W        W57920  29.117  30.574   0.713
85606W        W57921  41.837  30.502   5.063
85607W        W57922  44.619   3.691   0.454
85608W        W57923  43.403  34.477   0.182
85609W        W57924  36.305  36.946  14.872
85610W        W57925   4.771  41.740  12.249
85611W        W57926  38.463   2.301  13.930
85612W        W57927  11.093  10.730  14.691
85613W        W57928  38.369  35.405  11.088
85614W        W57929  27.110  36.652   0.336
85615W        W57930   9.177  26.557  10.678
85616W        W57931   3.857  23.048   4.929
85617W        W57932  38.471  12.545   1.757
85618W        W57933  26.392  38.434  11.555
85619W        W57934  22.628  28.140  13.015
85620W        W57935  38.801   8.717   2.265
85621W        W57936  34.022  13.684   4.215
85622W        W57937   7.118  15.843   0.800
85623W        W57938  41.972  44.331   1.114
85624W        W57939  29.768   3.482  14.459
85625W        W57940  16.563  42.456  11.992
85626W        W57941  20.683  11.320  12.785
85627W        W57942  30.932  17.728   3.349
85628W        W57943  30.603  10.286   2.300
85629W        W57944  37.053   8.763   0.080
85630W        W57945  10.678  30.936   2.410
85631W        W57946  13.153  29.234   3.674
85632W        W57947  35.743  38.436  10.802
85633W        W57948  38.787   1.353   1.278
85634W        W57949  40.986  23.152  11.422
85635W        W57950   1.921  21.637  14.563
85636W        W57951  12.978  37.427  11.009
85637W        W57952  37.883  31.120  13.499
85638W        W57953  25.940  19.560  12.017
85639W        W57954  38.759  22.664  12.759
85640W        W57955  24.025   2.986   4.414
85641W        W57956  39.548   0.899  11.051
85642W        W57957  35.425   0.434   0.305
85643W        W57958  43.085  15.587   2.340
85644W        W57959   1.019  29.440  10.500
85645W        W57960  37.906   0.500  13.063
85646W        W57961   3.090  19.393   4.235
85647W        W57962  38.575  29.250  11.577
85648W        W57963  40.207  24.442   3.258
85649W        W57964   8.890  24.177   5.135
85650W        W57965  42.846  41.010   2.610
85651W        W57966  19.484   8.672   1.759
85652W        W57967  17.963  25.966   4.610
85653W        W57968  39.724  43.562  12.463
85654W        W57969  35.347   2.863  12.927
85655W        W57970  12.228  11.375  13.591
85656W        W57971   3.368   0.891   2.504
85657W        W57972  19.152  29.983   4.556
85658W        W57973  37.580   1.239  10.967
85659W        W57974  17.089  40.419  13.841
85660W        W57975  20.671   9.736  14.024
85661W        W57976  24.041   6.751  12.238
85662W        W57977  20.986  35.515  14.313
85663W        W57978  27.560  19.729  11.061
85664W        W57979  32.201  25.007  12.071
85665W        W57980   0.080  34.091   5.389
85666W        W57981  16.506  43.796  11.969
85667W        W57982   0.730  10.868   4.487
85668W        W57983  25.749   4.964  13.140
85669W        W57984  35.551  31.102   1.933
85670W        W57985  16.146  36.441   4.427
85671W        W57986  36.079   6.941  11.592
85672W        W57987   4.689   5.360  13.318
85673W        W57988  13.803   2.526  11.175
85674W        W57989  38.333  29.543  11.955
85675W        W57990   0.844  14.548   4.614
85676W        W57991  44.708  19.701  11.459
85677W        W57992  27.131  27.188  10.649
85678W        W57993  41.974   4.953   0.219
85679W        W57994  35.959   3.215  14.943
85680W        W57995  31.534  13.133   0.764
85681W        W57996  35.858  16.132   2.588
85682W        W57997  16.987  18.168  12.814
85683W        W57998  40.204  19.529  12.979
85684W        W57999  33.446   5.866  14.404
85685W        W58000  31.055  30.588   2.851
85686W        W58001  29.778  28.859   3.134
85687W        W58002  32.598   5.322  10.628
85688W        W58003  24.904  25.786   2.889
85689W        W58004  18.559  32.352   0.999
85690W        W58005  11.242  24.035  13.354
85691W        W58006  41.565  14.656   0.850
85692W        W58007  10.139  41.477   4.252
85693W        W58008  42.434  29.246  13.925
85694W        W58009   7.787  13.063  10.656
85695W        W58010  28.683  34.878   3.528
85696W        W58011  23.089  15.203  12.178
85697W        W58012  13.384   9.787  12.009
85698W        W58013   1.492  38.344  11.970
85699W        W58014  30.881  38.573   0.400
85700W        W58015  41.705  18.088  12.951
85701W        W58016  25.626  42.393   4.296
85702W        W58017  34.937  44.840   2.382
85703W        W58018  24.552  36.483   4.512
85704W        W58019  39.274  38.998  13.106
85705W        W58020   8.436   1.697   0.909
85706W        W58021  36.618  19.559  10.652
85707W        W58022  18.002  23.487   3.577
85708W        W58023  24.586   3.643   3.748
85709W        W58024  11.673  19.465   5.743
85710W        W58025  34.170  33.558   0.328
85711W        W58026  15.822  36.508  13.766
85712W        W58027   4.134   4.848   3.273
85713W        W58028  42.056   4.878   1.219
85714W        W58029   8.979  10.603   1.799
85715W        W58030   0.999  36.290  14.801
85716W        W58031  17.291   3.850   1.347
85717W        W58032  16.248  44.274  14.326
85718W        W58033   5.123  38.295   2.633
85719W        W58034  39.063  43.958   4.546
85720W        W58035  40.278  13.702   1.146
85721W        W58036  11.630  26.459  12.029
85722W        W58037  23.704  23.238   2.634
85723W        W58038  32.442  32.125   2.826
85724W        W58039  18.336  11.998   2.117
85725W        W58040   3.971  14.573   0.986
85726W        W58041   6.304   7.756  14.041
85727W        W58042  37.096  37.523  12.849
85728W        W58043  42.244  44.947  12.847
85729W        W58044  19.007  10.503   3.028
85730W        W58045  44.549   0.763  14.373
85731W        W58046  17.321   5.438  12.502
85732W        W58047  26.740  41.972  10.759
85733W        W58048   4.275  40.479   1.392
85734W        W58049  23.705   8.977  14.323
85735W        W58050  12.107   6.873   4.955
85736W        W58051  10.330   6.699   1.493
85737W        W58052  37.080  39.967   1.869
85738W        W58053  35.488  40.071  13.397
85739W        W58054  26.628  26.950   4.206
85740W        W58055   5.019  22.490   3.159
85741W        W58056  21.192  30.637   0.052
85742W        W58057  21.280  39.212  13.078
85743W        W58058   9.125  18.660  14.968
85744W        W58059  11.458  29.982   1.341
85745W        W58060  35.758  44.312   1.577
85746W        W58061  43.380  41.357  14.607
85747W        W58062  23.091  40.751  11.568
85748W        W58063  26.469  39.925  11.644
85749W        W58064  41.912  35.938  12.693
85750W        W58065  32.403  21.646  11.966
85751W        W58066   7.066  15.065   1.735
85752W        W58067  25.705  34.149   4.281
85753W        W58068  44.440  30.157   4.013
85754W        W58069  21.263  24.657  13.945
85755W        W58070  20.567  17.109  13.968
85756W        W58071  36.134  30.089  10.869
85757W        W58072   8.194  15.999   1.936
85758W        W58073  40.930  21.358   0.490
85759W        W58074   1.280  14.031  12.382
85760W        W58075   4.322  34.990   4.534
85761W        W58076  22.187  23.693   2.622
85762W        W58077  19.646   7.669   2.871
85763W        W58078  21.780  30.475   2.265
85764W        W58079  35.498  29.107   3.851
85765W        W58080   0.843   9.289   5.055
85766W        W58081  11.926  39.491   3.932
85767W        W58082  36.938  11.864  14.803
85768W        W58083  10.146   6.643   3.632
85769W        W58084  18.160   1.039  14.183
85770W        W58085  18.280  23.598   4.002
85771W        W58086  20.057  29.957  14.741
85772W        W58087  39.577  17.471   0.931
85773W        W58088  32.395  36.425   0.771
85774W        W58089  34.135  22.192  11.324
85775W        W58090  14.312  21.956  12.009
85776W        W58091  32.029  24.439  13.047
85777W        W58092  18.186   8.307   3.230
85778W        W58093  40.886  15.115   3.756
85779W        W58094  35.466  22.566  13.410
85780W        W58095  30.025  20.922  14.381
85781W        W58096  43.340  44.665   2.504
85782W        W58097   8.727  13.311  10.666
85783W        W58098  28.872  43.975  11.715
85784W        W58099  15.036  19.196   2.443
85785W        W58100  42.765   4.328  11.621
85786W        W58101  15.495  20.214  14.496
85787W        W58102   0.923  36.988  13.342
85788W        W58103  30.161  35.613  14.957
85789W        W58104   8.553  43.517   0.327
85790W        W58105   7.161  24.919   0.271
85791W        W58106  19.734   6.878   1.693
85792W        W58107  24.511   9.335   3.194
85793W        W58108  14.313  41.998   4.125
85794W        W58109  35.295  41.113  11.278
85795W        W58110  11.106  40.510   0.005
85796W        W58111  24.152  14.666   1.173
85797W        W58112   3.421  43.500  10.689
85798W        W58113   6.456   7.900  14.974
85799W        W58114   3.773  13.518   0.759
85800W        W58115  20.006  29.937  14.232
85801W        W58116   8.174  23.823  13.205
85802W        W58117  40.320  44.031   3.114
85803W        W58118  15.170  18.657   1.818
85804W        W58119  10.383  24.050  14.413
85805W        W58120  40.534  22.643  10.330
85806W        W58121  19.969  10.996   5.207
85807W        W58122  22.519   5.987   4.591
85808W        W58123   2.431  44.068  14.475
85809W        W58124  44.965  13.256  10.616
85810W        W58125  17.961  39.026  14.036
85811W        W58126  23.408  37.070  11.056
85812W        W58127  28.168   5.844   0.746
85813W        W58128  36.974  33.993   1.649
85814W        W58129  27.585  28.115   0.331
85815W        W58130  42.511  38.808   3.846
85816W        W58131  20.423  42.766   2.529
85817W        W58132  15.716  15.402  12.799
85818W        W58133  27.055  10.926  13.801
85819W        W58134  19.685  41.420   1.350
85820W        W58135  40.143  25.526  11.904
85821W        W58136  36.655  16.930   1.987
85822W        W58137  41.653   1.836  13.815
85823W        W58138  27.541  44.173  14.399
85824W        W58139  18.606  16.973   3.210
85825W        W58140  32.397  20.103   2.255
85826W        W58141   0.191  44.392   3.870
85827W        W58142  36.414  40.555  11.408
85828W        W58143  43.314   7.989  13.634
85829W        W58144   8.770   8.781   3.330
85830W        W58145  29.527  26.549  14.838
85831W        W58146  39.385  42.224  10.531
85832W        W58147  16.045  41.968  12.462
85833W        W58148  29.033  41.969  12.544
85834W        W58149  41.934  29.700  14.840
85835W        W58150   6.149  20.224  14.511
85836W        W58151   2.347  42.499   3.690
85837W        W58152  15.090  23.446   0.698
85838W        W58153  43.092  18.508  14.837
85839W        W58154   4.399  35.885  13.620
85840W        W58155  13.858  30.347  14.891
85841W        W58156   6.005  34.470   2.244
85842W        W58157   2.262  12.613  10.489
85843W        W58158  21.631  43.531   1.929
85844W        W58159   2.772  26.770   0.746
85845W        W58160  43.276  41.174  11.731
85846W        W58161  17.068  15.093  12.861
85847W        W58162  37.082  31.946  10.689
85848W        W58163  17.238   7.246  12.368
85849W        W58164  12.415  17.131   4.565
85850W        W58165   1.645  29.171   0.973
85851W        W58166  24.619  10.179   2.186
85852W        W58167  17.843  18.676  11.017
85853W        W58168  15.832   8.732  10.380
85854W        W58169  39.435  39.777  10.901
85855W        W58170  40.761  20.506   3.061
85856W        W58171  31.203  37.691   0.867
85857W        W58172  34.552   3.043   1.314
85858W        W58173  20.555   5.446   2.416
85859W        W58174  36.166  36.304  11.097
85860W        W58175   9.756  17.222   0.341
85861W        W58176   7.682   2.837   2.669
85862W        W58177  33.210  10.273   9.850
85863W        W58178  10.101  30.380   3.779
85864W        W58179   8.008  31.370  13.346
85865W        W58180  27.164  40.953  12.065
85866W        W58181  16.412  44.749   0.418
85867W        W58182  43.325  39.833   0.227
85868W        W58183  29.478  18.692   2.281
85869W        W58184  35.019  34.889  11.876
85870W        W58185  16.235  42.612  13.827
85871W        W58186  24.455  34.158   0.301
85872W        W58187  11.703  25.474  11.113
85873W        W58188   0.011   1.948  12.425
85874W        W58189  24.325  12.826  13.027
85875W        W58190  27.914   7.889   0.406
85876W        W58191   5.937  14.593   0.293
85877W        W58192   1.358  40.781   4.644
85878W        W58193  15.316  44.981  11.888
85879W        W58194  19.790   2.709   4.616
85880W        W58195  13.828   3.025  11.053
85881W        W58196  29.982  21.011  13.393
85882W        W58197   7.692  37.193  11.234
85883W        W58198  35.935  40.771  12.438
85884W        W58199  32.009  11.293  14.546
85885W        W58200  44.991  15.123   3.707
85886W        W58201  31.188  13.388   1.888
85887W        W58202  28.105  14.568   2.324
85888W        W58203  32.667   2.779   3.635
85889W        W58204   0.275  29.686  11.483
85890W        W58205   5.206  43.065  12.585
85891W        W58206  31.958  44.290  12.609
85892W        W58207   6.365  42.856   0.307
85893W        W58208  29.912  34.552   4.095
85894W        W58209  34.294  35.130   0.979
85895W        W58210  33.887  30.541  11.076
85896W        W58211  24.259   7.819  14.171
85897W        W58212   3.255   7.813  11.617
85898W        W58213  23.782  40.384   4.121
85899W        W58214  10.801  19.018   0.864
85900W        W58215  21.519  31.108   3.788
85901W        W58216  30.960   2.273  13.346
85902W        W58217  31.873  14.310  11.456
85903W        W58218  23.848  36.522   3.276
85904W        W58219   8.482  37.084  11.440
85905W        W58220  28.997  16.147   3.254
85906W        W58221  29.052  36.873   1.003
85907W        W58222  12.758  32.956  12.372
85908W        W58223  36.636  29.496   4.106
85909W        W58224  27.178  28.226  12.341
85910W        W58225  34.007  44.549  13.995
85911W        W58226   4.293  15.554  10.743
85912W        W58227  23.611  14.780  14.294
85913W        W58228  19.074  42.980  11.071
85914W        W58229  18.694  14.138  12.564
85915W        W58230  21.805  35.918  11.356
85916W        W58231  14.957   6.009  14.970
85917W        W58232   7.977  37.599  13.369
85918W        W58233  26.467  12.265   1.278
85919W        W58234   2.914  41.141   1.846
85920W        W58235  16.587  15.652  14.899
85921W        W58236   5.327   7.640  13.417
85922W        W58237  28.850  31.055  14.987
85923W        W58238   2.634  35.446  13.789
85924W        W58239   5.650  33.476   1.376
85925W        W58240  40.952  19.266   2.192
85926W        W58241  21.263  20.626  10.715
85927W        W58242  37.892  21.864   1.875
85928W        W58243  44.325  23.691  14.907
85929W        W58244  19.886  42.353  14.470
85930W        W58245   9.913  39.484   4.445
85931W        W58246  34.884   6.800  11.203
85932W        W58247   4.763  29.462   2.524
85933W        W58248   9.405  10.874  14.071
85934W        W58249  38.243  32.573  12.341
85935W        W58250  17.185   1.228   2.281
85936W        W58251  34.422   7.435  10.821
85937W        W58252   2.510  41.817   1.430
85938W        W58253  43.293  21.645   0.207
85939W        W58254  40.614  30.945  11.679
85940W        W58255  15.668  42.845  11.562
85941W        W58256   8.247   9.923   3.784
85942W        W58257  32.000  13.273  10.502
85943W        W58258  14.539  42.967   1.821
85944W        W58259  14.977  25.779  11.603
85945W        W58260   2.740  14.723  11.675
85946W        W58261  16.822  27.218   3.772
85947W        W58262   8.803  36.065  14.863
85948W        W58263  29.840   0.012   0.256
85949W        W58264   5.702  28.863  13.485
85950W        W58265  29.561   8.962   2.392
85951W        W58266  23.158  44.479   0.683
85952W        W58267  28.550  13.224   3.615
85953W        W58268   5.483   4.846   4.609
85954W        W58269  17.717   7.798   0.314
85955W        W58270  20.697  30.555   3.755
85956W        W58271  40.102  13.499  11.988
85957W        W58272  44.138  12.201  10.298
85958W        W58273  19.267  28.738   5.068
85959W        W58274  27.995  41.982   3.871
85960W        W58275  42.047  37.501  12.863
85961W        W58276  39.547  40.018   0.461
85962W        W58277  35.936  13.890   3.164
85963W        W58278  23.579  33.193  14.890
85964W        W58279  27.239  26.480  14.466
85965W        W58280   5.427  18.620   0.732
85966W        W58281  28.584  32.159   3.801
85967W        W58282  11.357  44.274  11.608
85968W        W58283   2.229  23.708  13.037
85969W        W58284  18.639   5.305   4.244
85970W        W58285   1.857  38.471   0.331
85971W        W58286   1.606  11.161   9.771
85972W        W58287  43.235   9.858  13.031
85973W        W58288  12.048  22.536  11.861
85974W        W58289   4.949  12.173   0.663
85975W        W58290  13.589  26.251  11.673
85976W        W58291   4.974   2.943   2.732
85977W        W58292  26.590  28.071   3.302
85978W        W58293  43.194  30.086  13.908
85979W        W58294   7.767  39.477  12.924
85980W        W58295   8.443   6.501   2.940
85981W        W58296  29.604  34.962   4.104
85982W        W58297  43.736   9.565  13.830
85983W        W58298  40.265  11.280   0.172
85984W        W58299  12.185   1.964  13.930
85985W        W58300  24.532  20.087   3.266
85986W        W58301  15.326  19.542   2.794
85987W        W58302  14.389   8.594  11.997
85988W        W58303  13.128   4.675   3.596
85989W        W58304  44.806  38.138  12.619
85990W        W58305  30.962  14.184   5.105
85991W        W58306  41.000  41.277  12.025
85992W        W58307  10.176   2.090   1.283
85993W        W58308  20.172  39.139   4.547
85994W        W58309  43.131  16.494   2.392
85995W        W58310   2.446  26.628   2.475
85996W        W58311   6.388  25.695   1.694
85997W        W58312  25.986  40.953  10.746
85998W        W58313  10.350  29.021  12.138
85999W        W58314  26.458  41.252   4.100
86000W        W58315   7.667   1.123   4.091
86001W        W58316  18.614  41.902  11.556
86002W        W58317   7.116  38.377  11.551
86003W        W58318  23.151   0.530   0.933
86004W        W58319  10.053  29.522   1.248
86005W        W58320   8.023  34.761   0.207
86006W        W58321  27.490  16.125   2.652
86007W        W58322  20.831  22.014  14.838
86008W        W58323  39.993  10.510   1.257
86009W        W58324   5.230   8.548  11.911
86010W        W58325  22.475   2.344   3.164
86011W        W58326   9.411   3.778   2.628
86012W        W58327   6.924  41.702  12.875
86013W        W58328  18.404   8.206  11.035
86014W        W58329  15.686  40.234   1.331
86015W        W58330  40.822  36.594  11.734
86016W        W58331  13.705   1.232   0.352
86017W        W58332  14.874  22.939  14.425
86018W        W58333   9.416  29.076  11.730
86019W        W58334  42.754  44.028   2.656
86020W        W58335  21.227  39.593  14.389
86021W        W58336   7.816  26.755  14.520
86022W        W58337  19.810  30.375  14.931
86023W        W58338  27.188  32.959   1.234
86024W        W58339  39.055  19.195  11.175
86025W        W58340  44.305  27.951  10.420
86026W        W58341  23.866   2.334  13.028
86027W        W58342  42.754  30.498  12.461
86028W        W58343   6.313   7.762   1.473
86029W        W58344  16.649  28.157   5.466
86030W        W58345  26.902  42.543  11.592
86031W        W58346  38.636  40.486  11.183
86032W        W58347  41.721   6.690  14.544
86033W        W58348  11.580  43.911   4.652
86034W        W58349  18.502  16.609   1.774
86035W        W58350   2.888   4.651   2.665
86036W        W58351  42.159  10.202   0.685
86037W        W58352  37.744  22.060  12.573
86038W        W58353  15.681  28.847   0.043
86039W        W58354  37.328  36.979  11.460
86040W        W58355  21.472  29.469  12.924
86041W        W58356  37.116  20.617   0.731
86042W        W58357  26.384  25.073   0.498
86043W        W58358  33.440  30.301  13.444
86044W        W58359  22.559  19.653  14.294
86045W        W58360  35.419  10.272  10.729
86046W        W58361  36.573  36.048   2.061
86047W        W58362  22.065  34.183  10.714
86048W        W58363  20.285   1.267   2.291
86049W        W58364  39.011  38.025  11.471
86050W        W58365  33.449  17.021   2.944
86051W        W58366  38.503  18.278   3.621
86052W        W58367  42.667  10.164   0.812
86053W        W58368  30.629  22.762  14.766
86054W        W58369   6.291   0.832  14.388
86055W        W58370  40.252  23.064  10.443
86056W        W58371  31.978   2.394   2.560
86057W        W58372  33.310  30.626  13.905
86058W        W58373  29.847  33.861   5.081
86059W        W58374   5.975  20.472   2.224
86060W        W58375  20.645   2.058  14.412
86061W        W58376  44.837  41.529  10.721
86062W        W58377  29.867   7.652  10.616
86063W        W58378  41.890   0.909  14.806
86064W        W58379  33.486  39.559  12.100
86065W        W58380  16.828  12.809  13.136
86066W        W58381   0.246  26.079  13.725
86067W        W58382  32.490   1.882  14.883
86068W        W58383  17.284  36.277  13.363
86069W        W58384  15.715   8.413   3.326
86070W        W58385  13.180  18.666   1.005
86071W        W58386  31.875  28.565  12.498
86072W        W58387  34.348  42.917   3.732
86073W        W58388  18.144  16.565  12.056
86074W        W58389  26.703  43.884  12.877
86075W        W58390   5.493  19.618   3.625
86076W        W58391  13.648  11.082   1.423
86077W        W58392  15.717  10.256  12.049
86078W        W58393  39.513  17.228  11.538
86079W        W58394  19.527   4.058  11.680
86080W        W58395  30.370  14.391   4.575
86081W        W58396   1.476  20.983  12.931
86082W        W58397  27.980  28.939  13.913
86083W        W58398  27.700  30.438  12.915
86084W        W58399  36.427  30.164   4.427
86085W        W58400  42.233   5.236  13.419
86086W        W58401  39.131  43.066  12.871
86087W        W58402  43.798   2.259   1.375
86088W        W58403  26.675  35.815  12.430
86089W        W58404  40.437  26.336   3.227
86090W        W58405   3.826  10.930  13.668
86091W        W58406  10.672   2.658   1.923
86092W        W58407  37.929  24.239  11.647
86093W        W58408  35.762   0.405  11.704
86094W        W58409  41.012   1.896  11.395
86095W        W58410  35.499   1.824  12.549
86096W        W58411   2.947  38.570   1.714
86097W        W58412  18.207   6.794  13.154
86098W        W58413  27.890  33.214   3.263
86099W        W58414  23.198  16.815  10.651
86100W        W58415  21.022   8.775   0.470
86101W        W58416   9.318  16.498   3.230
86102W        W58417   0.937  18.087   3.168
86103W        W58418  32.158  33.509   2.778
86104W        W58419   0.916  25.710  14.946
86105W        W58420  14.649   3.931   1.549
86106W        W58421  18.584  21.675   2.419
86107W        W58422   6.865  39.645  11.990
86108W        W58423  28.999  35.934  13.578
86109W        W58424  12.086  22.197   3.165
86110W        W58425  35.066   7.695  10.714
86111W        W58426  38.969  26.171  12.170
86112W        W58427  32.334  31.563   3.996
86113W        W58428  28.539  36.344  14.535
86114W        W58429  34.081  16.658  11.785
86115W        W58430  30.727  23.021   4.514
86116W        W58431  28.222  33.549   0.426
86117W        W58432  38.577  42.579   1.828
86118W        W58433   0.245  23.007  10.513
86119W        W58434  24.037  36.990  11.542
86120W        W58435  22.994   0.243  11.116
86121W        W58436   8.899   3.926   4.068
86122W        W58437  35.343  34.576   2.119
86123W        W58438   0.886  21.982   4.904
86124W        W58439   9.204  29.571  14.477
86125W        W58440  36.935   1.235   0.578
86126W        W58441  13.021  33.404  12.469
86127W        W58442   2.618  12.812   1.247
86128W        W58443  26.036  15.347   0.374
86129W        W58444  28.584  37.248  14.450
86130W        W58445  19.143   4.356  14.460
86131W        W58446  11.744   4.804   1.178
86132W        W58447  12.682  21.917   3.830
86133W        W58448  21.662  28.219   4.231
86134W        W58449  29.438  16.837   3.621
86135W        W58450  30.905  32.859   2.843
86136W        W58451  31.005   9.799  11.533
86137W        W58452   5.429  24.163  12.004
86138W        W58453  22.279  28.924  11.149
86139W        W58454  17.451  40.027   0.470
86140W        W58455   5.520  14.500  13.999
86141W        W58456  22.233  44.537  14.206
86142W        W58457  43.257  19.646   2.626
86143W        W58458  27.640  19.231  14.972
86144W        W58459  35.839   2.264  12.390
86145W        W58460  19.986  35.044   1.802
86146W        W58461   1.831  24.156   3.013
86147W        W58462   4.516  11.408  10.034
86148W        W58463  18.157  36.902  13.829
86149W        W58464   4.517  20.066   2.103
86150W        W58465   6.388  14.010   4.578
86151W        W58466  36.557  36.062  12.008
86152W        W58467  28.597   7.847  14.686
86153W        W58468  20.522  33.535   1.059
86154W        W58469   4.605   0.309   0.845
86155W        W58470   7.194  23.689   2.441
86156W        W58471  30.455  15.102  14.777
86157W        W58472  21.016   5.366   2.718
86158W        W58473  13.806  44.388  14.760
86159W        W58474  30.164  23.984   4.355
86160W        W58475  18.150  14.782   1.896
86161W        W58476  30.407  23.561   0.286
86162W        W58477  22.273   6.541  14.258
86163W        W58478  21.976  13.729   0.319
86164W        W58479  18.140   5.254  13.826
86165W        W58480  28.107  32.214  11.078
86166W        W58481   9.640   2.788   4.530
86167W        W58482  26.276  22.158  13.005
86168W        W58483  37.992  37.782   3.261
86169W        W58484  31.124  28.845   0.851
86170W        W58485  20.741  39.951  11.602
86171W        W58486  11.320  14.598  12.566
86172W        W58487   9.849  25.285   3.467
86173W        W58488  20.706  27.908   1.415
86174W        W58489  15.142  15.644  14.011
86175W        W58490   0.478  32.951  14.410
86176W        W58491  30.968  40.498   0.962
86177W        W58492   1.092  31.552   4.618
86178W        W58493  42.446  31.969  14.442
86179W        W58494   5.578  26.330  10.866
86180W        W58495  17.779  40.979   2.287
86181W        W58496  16.540  28.064  12.536
86182W        W58497  14.233  35.630   2.760
86183W        W58498  19.376  11.327   2.436
86184W        W58499   0.485  28.978  13.515
86185W        W58500   1.305  35.479  11.009
86186W        W58501  19.488  21.048  10.769
86187W        W58502   9.047  25.503   3.332
86188W        W58503  33.667  32.560  11.635
86189W        W58504  15.517  31.829   0.040
86190W        W58505  44.005  13.104   1.308
86191W        W58506  18.662   5.758   0.933
86192W        W58507  24.298  38.404  12.250
86193W        W58508   8.085  21.776  13.564
86194W        W58509  35.370  19.763   3.230
86195W        W58510   4.766  39.894  13.940
86196W        W58511  16.751  34.964  12.310
86197W        W58512   7.905  39.053  14.155
86198W        W58513  23.144  33.450  14.741
86199W        W58514  34.521  43.664  11.872
86200W        W58515  40.335   9.863   5.121
86201W        W58516  41.103  33.142  13.235
86202W        W58517   5.234  13.106  11.729
86203W        W58518  43.782  44.256  13.449
86204W        W58519  32.116  15.328  11.720
86205W        W58520  20.520  23.484  14.517
86206W        W58521   5.769   6.118   2.779
86207W        W58522  41.990  34.224   3.223
86208W        W58523  14.165  34.096  14.040
86209W        W58524  34.619  15.630  13.398
86210W        W58525  19.767  19.316   1.854
86211W        W58526  22.112  39.412  13.063
86212W        W58527  38.564  35.735  11.999
86213W        W58528  12.217  43.616   1.047
86214W        W58529   5.924  44.924  12.303
86215W        W58530  37.387  43.337  13.833
86216W        W58531   0.088  17.566  11.155
86217W        W58532  26.906  25.052   0.425
86218W        W58533  25.522  43.456  11.167
86219W        W58534  26.021   6.459   2.400
86220W        W58535  20.083  37.597   4.749
86221W        W58536  10.810  24.479   3.280
86222W        W58537  24.030   1.411   0.900
86223W        W58538   1.909  30.526   1.683
86224W        W58539   7.908   2.361   4.647
86225W        W58540  23.003  30.794  13.962
86226W        W58541   4.885  30.091  14.766
86227W        W58542   1.628  42.086  11.337
86228W        W58543   7.406   0.964   1.955
86229W        W58544  10.447  27.940   3.267
86230W        W58545  32.059  11.821   4.189
86231W        W58546  37.788   8.384  13.882
86232W        W58547  43.463  27.479  13.038
86233W        W58548   7.033  19.527  14.894
86234W        W58549  27.022   2.060  14.372
86235W        W58550  17.277  44.194   3.169
86236W        W58551  23.869  10.497  12.135
86237W        W58552  41.059  24.708   3.364
86238W        W58553  34.603  18.210   3.812
86239W        W58554  24.457  12.750   2.238
86240W        W58555   9.751  12.344   1.827
86241W        W58556   2.313   5.309   4.559
86242W        W58557  11.594  25.153   2.432
86243W        W58558  37.536  22.742   3.146
86244W        W58559  17.682  30.926   1.240
86245W        W58560  36.202   6.129  12.023
86246W        W58561  25.446  29.119   5.065
86247W        W58562  12.327  33.155   1.758
86248W        W58563  12.051  35.345   3.075
86249W        W58564  28.188  15.653  12.095
86250W        W58565  44.900  37.133   5.068
86251W        W58566   0.265  31.920  11.439
86252W        W58567  18.305  15.222   3.088
86253W        W58568  33.073  26.681   0.564
86254W        W58569  22.567  12.313  12.868
86255W        W58570  22.629  37.048   0.495
86256W        W58571  34.002   5.687  11.551
86257W        W58572  21.553   2.959  13.007
86258W        W58573  36.890   1.205   2.631
86259W        W58574  24.065  14.554   0.190
86260W        W58575  27.509  13.580   3.364
86261W        W58576  22.173  27.780  12.607
86262W        W58577  40.977  28.198   3.771
86263W        W58578  42.482   9.170  12.689
86264W        W58579  40.509  20.676  14.430
86265W        W58580  29.077   7.234  14.455
86266W        W58581  14.664  10.838  11.474
86267W        W58582   1.960   6.738   5.003
86268W        W58583  42.022  20.274   0.981
86269W        W58584  35.643  41.939   3.843
86270W        W58585  11.906  41.017   9.753
86271W        W58586   0.929  41.097   4.577
86272W        W58587  25.046  38.957  12.589
86273W        W58588  15.178  27.952   2.645
86274W        W58589  30.600  13.585   2.693
86275W        W58590  15.789  21.860  11.508
86276W        W58591  20.117  44.256  13.537
86277W        W58592  21.171  38.606  13.816
86278W        W58593  20.997  33.398  11.547
86279W        W58594  31.601  39.963   0.899
86280W        W58595  43.900  10.433   3.644
86281W        W58596  26.375  10.199  14.063
86282W        W58597   0.035  38.315  14.793
86283W        W58598  21.212  40.463  11.155
86284W        W58599   3.668   2.662  11.975
86285W        W58600  28.764  18.553   0.217
86286W        W58601  31.467  30.575   1.275
86287W        W58602  21.161   9.872  14.812
86288W        W58603   8.672  14.625   2.275
86289W        W58604  32.876  10.334  13.922
86290W        W58605  33.016   6.935   2.716
86291W        W58606  42.536   4.202   1.776
86292W        W58607  42.836  19.833   4.865
86293W        W58608   1.452  26.095  12.514
86294W        W58609  41.332  22.186  12.414
86295W        W58610  34.463   6.010   0.490
86296W        W58611  11.711  16.950   4.105
86297W        W58612  41.118  14.108  10.748
86298W        W58613  20.710  11.704   0.526
86299W        W58614   6.285  44.615   3.629
86300W        W58615  27.439  42.428   3.744
86301W        W58616  41.776  42.039  10.722
86302W        W58617  38.933  13.828   3.153
86303W        W58618   7.421  34.364  14.833
86304W        W58619   0.376  33.418   2.439
86305W        W58620   4.984  30.846   3.818
86306W        W58621  43.408  37.826  10.751
86307W        W58622   1.367  11.207  10.233
86308W        W58623  29.664  15.356   5.239
86309W        W58624  11.247  30.852   3.714
86310W        W58625  29.625  12.545   2.809
86311W        W58626  10.988  11.805   9.819
86312W        W58627  15.575  15.794  14.943
86313W        W58628  17.600  39.941   2.298
86314W        W58629   7.733  37.788   0.922
86315W        W58630  19.984   9.773   3.227
86316W        W58631  11.948   3.704  12.365
86317W        W58632   5.489  35.551  11.908
86318W        W58633  18.483  27.930  14.044
86319W        W58634  41.525   1.464   4.536
86320W        W58635   1.963  34.906  10.720
86321W        W58636  30.059  23.807   1.661
86322W        W58637  15.375   4.808   1.324
86323W        W58638  37.841  23.835  10.979
86324W        W58639  29.449   0.347  12.029
86325W        W58640   7.821  33.788   1.474
86326W        W58641  42.647   3.491   3.241
86327W        W58642  22.101  20.826   3.093
86328W        W58643  15.677   3.508  14.895
86329W        W58644   5.240  16.736  10.897
86330W        W58645  35.376  18.017  14.536
86331W        W58646  12.013  13.499  12.519
86332W        W58647  44.674  42.903  14.565
86333W        W58648   4.197  41.407  10.694
86334W        W58649  43.964  27.169  12.969
86335W        W58650  43.765  36.166  12.854
86336W        W58651  44.717  43.794  13.292
86337W        W58652  19.655  34.624   3.290
86338W        W58653  15.278  33.574   2.102
86339W        W58654   3.499  26.554  11.051
86340W        W58655   3.252  11.013  11.590
86341W        W58656  33.016  35.955   3.972
86342W        W58657   9.596  14.092   2.510
86343W        W58658   0.473   0.717   3.696
86344W        W58659   5.598  39.932   2.936
86345W        W58660  35.496  27.464   2.496
86346W        W58661   7.926   3.356  10.804
86347W        W58662  20.609  19.057  13.712
86348W        W58663   4.891  30.534   0.268
86349W        W58664  34.013  40.601   3.577
86350W        W58665  13.655   4.365  10.650
86351W        W58666  37.019   1.425   1.793
86352W        W58667  33.461  28.177  11.211
86353W        W58668   4.416   1.415   1.796
86354W        W58669  17.770  16.685   1.219
86355W        W58670  25.926  20.309   0.937
86356W        W58671  13.830  28.580   2.452
86357W        W58672  26.432  18.830   1.493
86358W        W58673  27.649  23.134   4.206
86359W        W58674  34.187  33.202   2.246
86360W        W58675   3.402  41.496   4.572
86361W        W58676  29.130  37.972  11.576
86362W        W58677  11.061  10.269  14.411
86363W        W58678  23.733  17.860   2.197
86364W        W58679   1.595  16.884   1.016
86365W        W58680  44.088  19.263  11.635
86366W        W58681  39.914  38.499   1.942
86367W        W58682  32.509  40.992   1.774
86368W        W58683  11.110  22.590   0.842
86369W        W58684  33.393  11.140  12.664
86370W        W58685  17.633  43.885   3.404
86371W        W58686  35.932  29.915   0.213
86372W        W58687  44.885  17.259   0.923
86373W        W58688  30.123   5.311  10.781
86374W        W58689  41.033  13.866  14.904
86375W        W58690  19.498   8.441  10.962
86376W        W58691  30.114   0.969   0.443
86377W        W58692   4.146  12.525   3.020
86378W        W58693  37.526  13.121  14.333
86379W        W58694  20.305  27.540  13.364
86380W        W58695   4.930  43.440   3.189
86381W        W58696  15.564  21.219  10.705
86382W        W58697  16.071   3.828  11.629
86383W        W58698   7.177  33.310   1.754
86384W        W58699  28.639   7.078  14.764
86385W        W58700  40.453  38.403   4.667
86386W        W58701  10.369   3.782  14.396
86387W        W58702  24.151  28.165  11.594
86388W        W58703   1.186   9.891  11.985
86389W        W58704  42.807  39.336   1.001
86390W        W58705  36.943  14.673  11.014
86391W        W58706  24.544  13.390  14.765
86392W        W58707  12.760  35.293  11.280
86393W        W58708  22.727  19.042  14.876
86394W        W58709  16.631  15.594   1.692
86395W        W58710  40.115   6.195   2.859
86396W        W58711  25.262  27.560  11.941
86397W        W58712   5.212  18.471  12.065
86398W        W58713  37.351  33.554  14.501
86399W        W58714  26.848  31.567   4.299
86400W        W58715  35.281  14.622  11.662
86401W        W58716  36.718  11.085  13.585
86402W        W58717  43.274  27.517  11.376
86403W        W58718  40.090  22.611  14.204
86404W        W58719  12.382  33.051  14.006
86405W        W58720  14.137  31.971  10.924
86406W        W58721  28.552  11.797  13.505
86407W        W58722  26.866  42.924   0.319
86408W        W58723  22.506  32.764  14.984
86409W        W58724  10.954   7.228   2.723
86410W        W58725  19.549  28.922   0.290
86411W        W58726   4.603  29.632   4.871
86412W        W58727  42.425  25.994  14.921
86413W        W58728  10.855   8.666   2.803
86414W        W58729  17.120  44.892   1.939
86415W        W58730   9.844  10.687   1.041
86416W        W58731  18.599  28.301  11.502
86417W        W58732  21.280   4.944  11.088
86418W        W58733  30.061  26.037  11.339
86419W        W58734  29.758   2.431  13.355
86420W        W58735  19.719  41.012  12.608
86421W        W58736  25.861  39.295   0.698
86422W        W58737  22.090  30.138  10.675
86423W        W58738  16.250  23.640  12.024
86424W        W58739  36.561  30.666   0.292
86425W        W58740   6.032  28.543   3.114
86426W        W58741  28.076   2.302   3.381
86427W        W58742  12.319   6.453   3.059
86428W        W58743  11.758   2.891   3.722
86429W        W58744  26.949   3.720  14.343
86430W        W58745   0.023   8.716  12.453
86431W        W58746  12.910  15.256  14.067
86432W        W58747   9.183  43.998  12.071
86433W        W58748  14.544   4.196   4.521
86434W        W58749  32.388  43.463   2.132
86435W        W58750  26.452  41.325   1.380
86436W        W58751  10.722  13.748  11.153
86437W        W58752   4.880  33.298   9.899
86438W        W58753  13.203  44.272   2.912
86439W        W58754  39.694  42.885  14.307
86440W        W58755  29.183  33.588   0.413
86441W        W58756   6.836  33.902   0.962
86442W        W58757  11.608  27.438   4.658
86443W        W58758  29.361  19.284  12.863
86444W        W58759  19.025  19.638  14.719
86445W        W58760  16.788  38.738   0.515
86446W        W58761   7.262   3.654  12.034
86447W        W58762  21.343  32.125  12.068
86448W        W58763   8.880  36.937  11.732
86449W        W58764  21.701  28.255  12.332
86450W        W58765   5.659   9.117  13.356
86451W        W58766  19.429  30.919  13.886
86452W        W58767   4.332  22.907  13.341
86453W        W58768  20.712   9.385  10.524
86454W        W58769  25.059   8.255  12.767
86455W        W58770  40.852  31.131   2.917
86456W        W58771  43.933  14.787  11.003
86457W        W58772  21.542  26.492   5.151
86458W        W58773  31.353   2.531  13.556
86459W        W58774  19.407   8.212  12.190
86460W        W58775  16.609   1.980  13.311
86461W        W58776   4.355   3.528  13.532
86462W        W58777  11.563  43.474  12.959
86463W        W58778  37.168  27.755  14.026
86464W        W58779  19.240  28.237  12.129
86465W        W58780  20.543  23.502   0.024
86466W        W58781  32.876  26.896  12.514
86467W        W58782  12.657   3.947  11.459
86468W        W58783  36.008  11.986   0.451
86469W        W58784  32.935  34.102   0.318
86470W        W58785  43.862   2.481  12.326
86471W        W58786  13.211  14.848  11.925
86472W        W58787  16.886   9.137   4.215
86473W        W58788  33.136  12.092  13.821
86474W        W58789  10.107  37.142   2.311
86475W        W58790  22.093   1.899  10.679
86476W        W58791  20.184  26.360   1.886
86477W        W58792  19.478   1.434   0.045
86478W        W58793  16.671  14.603   2.717
86479W        W58794  25.955   1.774   0.844
86480W        W58795  27.061  11.344   3.199
86481W        W58796  15.804  41.606   4.153
86482W        W58797  27.502  43.402   0.021
86483W        W58798  20.309  37.966   3.808
86484W        W58799  11.120  23.760  12.004
86485W        W58800  24.067  33.788   0.478
86486W        W58801  26.578  19.329   3.735
86487W        W58802   5.474  34.539  12.098
86488W        W58803  21.210  29.419   4.190
86489W        W58804  39.341  23.771   4.042
86490W        W58805  10.468  23.943   1.879
86491W        W58806  37.746  44.145  14.334
86492W        W58807  25.998  34.937  10.747
86493W        W58808  22.589  30.078   2.639
86494W        W58809  33.993  39.123   4.516
86495W        W58810   2.326  43.916  13.585
86496W        W58811   0.819  11.458   5.689
86497W        W58812  11.377  10.362  11.556
86498W        W58813   6.380   2.712  12.520
86499W        W58814  33.502  10.286   1.873
86500W        W58815  40.252   6.686   2.737
86501W        W58816  30.101  29.263  11.854
86502W        W58817   8.255  44.936   4.627
86503W        W58818  23.486  19.306   0.472
86504W        W58819  44.714  39.790  14.780
86505W        W58820   0.516   9.193   3.716
86506W        W58821   4.659   8.894   3.656
86507W        W58822   3.483  18.553   1.394
86508W        W58823  36.380  40.999   0.054
86509W        W58824  32.880  28.211  12.038
86510W        W58825  39.701  29.892   3.276
86511W        W58826  29.219  38.261   0.852
86512W        W58827  42.931  35.090   3.335
86513W        W58828  25.937  33.066  13.456
86514W        W58829  34.542  29.487   0.028
86515W        W58830  31.473  44.904   4.488
86516W        W58831   0.880  19.389   2.763
86517W        W58832  25.640   4.178   4.648
86518W        W58833  32.996  44.382  11.522
86519W        W58834  19.105  37.814  14.483
86520W        W58835   1.905  16.318   4.060
86521W        W58836  26.280  14.695  11.052
86522W        W58837  28.190  27.690  11.993
86523W        W58838  41.941   2.251   3.931
86524W        W58839  27.627  22.572  13.923
86525W        W58840  17.279   6.425  11.502
86526W        W58841  28.361  44.752   0.342
86527W        W58842  18.051  13.677   1.386
86528W        W58843   3.027   9.777   3.540
86529W        W58844  24.775  43.740  12.563
86530W        W58845  30.556  32.252  12.470
86531W        W58846  40.408  12.345  13.485
86532W        W58847  44.788  28.088  14.402
86533W        W58848   0.176  10.272   3.990
86534W        W58849  42.058  33.942  10.497
86535W        W58850  22.693   0.479   1.231
86536W        W58851   1.888  38.954   0.525
86537W        W58852   6.730   9.672  13.311
86538W        W58853  36.880  19.168  13.521
86539W        W58854  36.921  13.069   3.118
86540W        W58855   7.181  12.447   0.838
86541W        W58856  30.389  24.435  14.994
86542W        W58857  22.411  22.017   1.962
86543W        W58858  28.736   9.905  11.901
86544W        W58859  42.450  14.325   1.806
86545W        W58860  43.503   6.236  11.132
86546W        W58861  27.664  30.138  14.462
86547W        W58862  19.796  33.489  12.084
86548W        W58863  27.515  38.591   0.923
86549W        W58864  40.882  18.707   3.886
86550W        W58865   7.379  24.622   2.420
86551W        W58866  35.156  40.855  11.768
86552W        W58867  44.357  16.247   5.099
86553W        W58868  12.600  43.705  14.917
86554W        W58869  16.971  43.858  11.124
86555W        W58870  42.771  38.008  11.292
86556W        W58871  17.644  19.604  14.409
86557W        W58872  17.752  15.558   5.184
86558W        W58873  21.555  44.934  11.193
86559W        W58874  16.680   0.485   2.479
86560W        W58875  34.169  29.006  13.982
86561W        W58876   3.342  16.691  14.015
86562W        W58877  21.299  22.554  10.537
86563W        W58878   9.852   5.912   2.765
86564W        W58879   8.410  11.018  12.018
86565W        W58880  27.473  42.370   2.203
86566W        W58881  14.693  34.007  14.901
86567W        W58882  41.325  38.772   3.698
86568W        W58883  25.982   7.421  10.950
86569W        W58884  11.148  42.956  14.423
86570W        W58885  44.985  37.343   1.347
86571W        W58886  29.346  36.439   1.738
86572W        W58887  40.396  15.731   5.013
86573W        W58888  13.670  27.084   0.803
86574W        W58889  13.433   0.184  11.503
86575W        W58890  20.232  17.615  14.004
86576W        W58891  30.104   6.180  10.883
86577W        W58892  25.197  44.190   3.746
86578W        W58893  22.416  31.055   2.080
86579W        W58894  31.598  18.075   3.880
86580W        W58895   8.677   8.944  10.922
86581W        W58896   7.832   3.375  12.126
86582W        W58897  37.141  13.347  11.668
86583W        W58898  36.287  35.806  11.484
86584W        W58899  24.488   9.228   0.709
86585W        W58900  23.759  26.981  11.965
86586W        W58901  39.307  31.445  11.967
86587W        W58902   2.171  18.775   2.318
86588W        W58903  27.139  31.545   1.193
86589W        W58904  16.768  31.832  11.397
86590W        W58905  38.312   6.134  11.047
86591W        W58906  36.880  30.988  12.546
86592W        W58907  44.832   4.342   3.615
86593W        W58908  27.599  14.654  13.318
86594W        W58909   0.542  34.436  10.153
86595W        W58910  16.425  31.926  10.440
86596W        W58911  39.930   7.749   1.719
86597W        W58912  27.832  19.543  12.560
86598W        W58913  40.298  43.432   2.277
86599W        W58914  25.921  34.380  13.828
86600W        W58915  10.237   2.893   2.104
86601W        W58916  17.201  18.408   2.148
86602W        W58917  30.131  29.864  12.729
86603W        W58918  38.614  37.106   4.406
86604W        W58919  43.021   6.750   3.516
86605W        W58920  42.534   7.398   3.531
86606W        W58921  43.247  16.208   4.091
86607W        W58922  41.907  39.011  13.456
86608W        W58923  14.095   6.698  10.538
86609W        W58924  29.352  29.643  11.192
86610W        W58925  20.762  17.151   4.288
86611W        W58926   3.223  32.368   3.135
86612W        W58927  36.740  44.360  10.117
86613W        W58928  37.560  22.924   1.410
86614W        W58929  35.776  21.580   4.565
86615W        W58930  43.327  19.151  11.133
86616W        W58931   3.348  15.613   2.282
86617W        W58932   0.253  20.725   2.520
86618W        W58933  15.862  11.588   2.800
86619W        W58934  17.239  42.902  14.052
86620W        W58935  15.035  26.506   4.688
86621W        W58936   6.673   5.444  14.434
86622W        W58937  41.843  16.202   0.344
86623W        W58938  31.309  13.412  14.000
86624W        W58939  12.650  18.162   2.694
86625W        W58940  15.970  20.630   4.665
86626W        W58941   6.331   4.303  11.359
86627W        W58942  42.245  26.591  10.234
86628W        W58943  26.683  12.685  10.755
86629W        W58944  38.565  14.224   1.271
86630W        W58945  43.558  31.041   1.951
86631W        W58946  13.058  25.202   3.325
86632W        W58947  22.153  17.638  12.498
86633W        W58948  25.462  18.643  11.058
86634W        W58949  37.606   4.421   2.659
86635W        W58950  40.642   9.833  11.189
86636W        W58951  21.708  10.079  10.999
86637W        W58952  26.508  28.507  14.229
86638W        W58953  33.532   3.476  14.050
86639W        W58954  26.621  13.302   0.695
86640W        W58955  42.009   8.269  11.524
86641W        W58956  10.623  18.597  10.711
86642W        W58957  12.632  10.271   0.239
86643W        W58958  30.036  41.409  12.226
86644W        W58959  37.954  23.088   0.427
86645W        W58960  18.325  19.551   1.795
86646W        W58961  41.065   1.031   2.412
86647W        W58962  33.173  36.501  13.088
86648W        W58963  32.192  17.768  12.039
86649W        W58964  17.455   7.508  13.154
86650W        W58965  11.346   1.918  13.464
86651W        W58966   1.448   5.521  12.070
86652W        W58967  13.581  35.049   4.594
86653W        W58968  17.402  37.965   5.086
86654W        W58969   8.393  27.965   4.250
86655W        W58970   8.882  37.167  13.625
86656W        W58971   9.994  20.129   3.120
86657W        W58972  20.642  22.148   4.519
86658W        W58973   9.821  18.164   0.942
86659W        W58974   6.817  26.100   4.893
86660W        W58975  37.860  30.588  11.973
86661W        W58976  20.220  19.804   1.404
86662W        W58977  11.333  16.181  13.190
86663W        W58978   4.665  38.036   2.674
86664W        W58979  38.992  34.924   3.442
86665W        W58980   7.706  19.641   0.318
86666W        W58981  44.287   2.952   0.952
86667W        W58982  20.237  27.444  11.665
86668W        W58983   0.255  11.266  12.438
86669W        W58984   3.269  13.311  12.437
86670W        W58985  18.496  10.338   1.715
86671W        W58986   6.227  41.048   3.340
86672W        W58987  40.521  35.475   2.215
86673W        W58988  35.253  20.734  11.376
86674W        W58989  29.838   4.010  11.903
86675W        W58990  42.056  41.823  14.371
86676W        W58991  33.437  37.918  14.890
86677W        W58992  36.111  28.745  11.136
86678W        W58993  17.018  28.573  10.527
86679W        W58994  41.701  27.248  14.358
86680W        W58995  35.435   8.646  14.461
86681W        W58996  21.143  22.737   3.975
86682W        W58997   0.679  38.986   0.461
86683W        W58998   1.991  43.509   1.464
86684W        W58999  21.667  15.084  12.514
86685W        W59000  24.658  35.555   4.168
86686W        W59001  13.616  31.740  13.008
86687W        W59002   8.259  24.338  11.344
86688W        W59003   9.424  23.987  14.563
86689W        W59004  11.357  44.544  10.730
86690W        W59005  16.121   9.906  12.003
86691W        W59006   9.670   7.838   2.620
86692W        W59007  29.340   2.821  12.097
86693W        W59008  26.492  14.351  14.804
86694W        W59009  30.923  24.200   4.671
86695W        W59010  41.484  19.246  11.654
86696W        W59011  37.516  41.562  13.564
86697W        W59012  42.094  29.916  10.733
86698W        W59013  17.818  44.771  13.133
86699W        W59014  44.766  39.550   1.906
86700W        W59015  29.393  13.545  13.009
86701W        W59016   9.312  38.152  11.034
86702W        W59017  23.700  17.972   0.879
86703W        W59018  22.315  15.619   2.352
86704W        W59019  34.941  43.408  14.051
86705W        W59020  39.502  35.574  12.565
86706W        W59021  33.638   3.831   2.649
86707W        W59022  20.890  41.011  11.953
86708W        W59023  31.144  35.438  10.928
86709W        W59024  15.323  42.484  11.518
86710W        W59025  32.285  29.012   4.023
86711W        W59026  38.740   8.854   5.074
86712W        W59027  40.045   8.624  10.747
86713W        W59028   5.680   9.261  11.622
86714W        W59029  18.287  26.777   1.727
86715W        W59030  36.459   8.731   4.551
86716W        W59031  31.659  30.641   3.619
86717W        W59032   3.071  25.026  11.706
86718W        W59033   7.581   6.469  13.282
86719W        W59034   6.102   7.938   2.850
86720W        W59035  27.075  39.761   2.944
86721W        W59036  17.711  42.726   0.876
86722W        W59037  13.830  27.998   3.657
86723W        W59038  39.203   1.916   9.909
86724W        W59039   7.983  22.479  14.949
86725W        W59040  26.502  44.858  11.510
86726W        W59041   5.898  28.740  12.700
86727W        W59042  16.252  21.753  13.398
86728W        W59043   0.313  37.337   4.854
86729W        W59044  42.459  11.314  10.510
86730W        W59045  36.853  35.588  12.033
86731W        W59046   0.411  34.636   0.819
86732W        W59047  39.679   4.096   4.149
86733W        W59048  25.073   6.100  14.785
86734W        W59049  42.964  27.280   3.159
86735W        W59050   0.473  23.154   2.597
86736W        W59051   7.064  17.221  13.574
86737W        W59052  26.484  20.753   2.756
86738W        W59053  44.945  10.620   3.144
86739W        W59054  32.486  19.587   4.046
86740W        W59055  43.534  32.640  11.389
86741W        W59056  38.720  14.274   3.113
86742W        W59057  17.301   2.198   3.271
86743W        W59058   1.106  31.969  10.838
86744W        W59059  40.285   7.865  10.597
86745W        W59060  10.674  40.211  10.622
86746W        W59061  22.591   3.064   3.845
86747W        W59062  39.899  42.351  12.960
86748W        W59063  42.948  25.102   4.151
86749W        W59064  10.428  12.137  10.692
86750W        W59065  34.011  28.814  12.650
86751W        W59066  29.255   1.859  14.293
86752W        W59067  35.088   8.212   3.233
86753W        W59068  39.882   3.314  13.060
86754W        W59069   7.262  42.131   4.109
86755W        W59070  33.933   2.360  14.845
86756W        W59071  21.064  27.515  13.822
86757W        W59072  16.161   5.890  12.878
86758W        W59073  35.473  11.310   0.963
86759W        W59074  27.937  19.628  11.702
86760W        W59075  17.854  10.649   3.773
86761W        W59076  38.288  44.450   0.836
86762W        W59077  10.374  34.306   2.354
86763W        W59078  39.817   4.982  12.512
86764W        W59079  44.741   1.338  11.512
86765W        W59080  20.158  14.255  14.324
86766W        W59081  33.168  35.994  11.203
86767W        W59082  39.062  30.982  11.885
86768W        W59083   8.057   6.415  11.808
86769W        W59084  44.303  32.877  12.572
86770W        W59085   7.814   7.768   0.122
86771W        W59086  26.191  44.894   4.102
86772W        W59087  15.796  38.835   9.912
86773W        W59088  33.505  44.160   1.892
86774W        W59089   5.992  11.893  14.847
86775W        W59090  32.597   3.376  13.798
86776W        W59091  21.750  27.331   4.314
86777W        W59092  25.540  12.896   4.567
86778W        W59093  31.696  38.331   2.828
86779W        W59094  18.201  27.019  14.528
86780W        W59095  11.572  27.007  11.580
86781W        W59096  12.062  31.855  14.819
86782W        W59097  41.045  32.919  14.952
86783W        W59098  33.999  25.023   0.891
86784W        W59099  19.508  18.225   2.325
86785W        W59100  18.642  15.154   2.691
86786W        W59101  18.634  32.696   3.085
86787W        W59102  40.544  23.806   2.458
86788W        W59103  29.390  26.055  14.922
86789W        W59104   1.758  23.703  14.703
86790W        W59105  29.201  42.978   4.598
86791W        W59106  17.175  34.573  10.616
86792W        W59107  36.516  14.377  13.920
86793W        W59108  36.994  33.986   4.828
86794W        W59109  16.775  41.028   3.366
86795W        W59110   9.336  43.156  11.398
86796W        W59111  43.079  37.727   1.729
86797W        W59112   9.605   1.234   0.510
86798W        W59113  39.895  15.353   3.245
86799W        W59114  10.178  29.202   0.868
86800W        W59115  30.102  23.018  11.513
86801W        W59116  15.796  14.318  14.874
86802W        W59117  43.848  17.645  12.931
86803W        W59118  42.827  21.632  12.562
86804W        W59119   4.830   3.408   2.389
86805W        W59120   1.957  37.351  13.410
86806W        W59121  19.030  20.394  11.375
86807W        W59122  20.030  43.999  11.163
86808W        W59123  29.339  16.709  11.588
86809W        W59124  28.675  21.157  14.847
86810W        W59125  21.364  19.641  14.797
86811W        W59126  13.656  37.748   4.021
86812W        W59127  30.672  38.027  12.863
86813W        W59128   8.217  11.572   2.268
86814W        W59129  17.147   2.861   2.219
86815W        W59130  13.615  42.282  14.743
86816W        W59131  27.836  18.998  14.044
86817W        W59132  25.499  35.401  12.891
86818W        W59133   1.964  16.659   2.588
86819W        W59134  28.129   4.220   3.557
86820W        W59135  24.453  14.788  11.054
86821W        W59136  15.153  16.695   3.864
86822W        W59137  26.122   8.941   0.614
86823W        W59138   3.325   9.884   4.904
86824W        W59139  19.441  41.407  14.466
86825W        W59140  10.150  40.043  14.785
86826W        W59141  24.070  15.764  11.167
86827W        W59142  29.356  32.831   2.851
86828W        W59143   6.164  27.237  12.105
86829W        W59144  21.590  32.962  10.897
86830W        W59145  37.157  41.460   2.688
86831W        W59146  34.982  34.136   3.757
86832W        W59147   3.248  21.490   2.295
86833W        W59148  15.197  18.658  13.032
86834W        W59149  36.144  43.873  13.898
86835W        W59150  11.798  16.725   1.615
86836W        W59151  12.703  42.643   3.840
86837W        W59152  15.670   4.662  12.074
86838W        W59153  13.069  11.139   1.720
86839W        W59154  34.004  25.485   3.371
86840W        W59155  31.643  18.142  11.571
86841W        W59156   4.682  19.223   2.926
86842W        W59157  13.129  25.434  12.834
86843W        W59158  43.043  33.401   3.704
86844W        W59159  10.228  16.340  12.009
86845W        W59160  17.872  30.525  14.920
86846W        W59161   4.266  20.567  13.805
86847W        W59162  12.372  26.277  13.141
86848W        W59163  23.026  40.055  14.705
86849W        W59164   7.939   4.011  14.179
86850W        W59165   6.423  40.399   2.753
86851W        W59166  11.271  29.090  11.402
86852W        W59167   9.920   9.597   2.859
86853W        W59168  20.576  11.248  12.278
86854W        W59169  21.407  26.897   4.244
86855W        W59170  10.398  30.186  14.963
86856W        W59171  27.532  14.110   1.780
86857W        W59172  21.313  44.480  11.153
86858W        W59173  37.930   9.687  10.451
86859W        W59174   8.617  32.206   1.850
86860W        W59175  12.114  36.336   1.311
86861W        W59176  33.420   4.902   3.245
86862W        W59177  10.259  40.549  10.859
86863W        W59178  32.914  12.067  12.506
86864W        W59179  20.633  39.851   4.682
86865W        W59180  17.156  16.520  10.611
86866W        W59181   5.676  27.545  12.924
86867W        W59182  11.214   6.006   3.093
86868W        W59183  11.660  13.329   3.891
86869W        W59184  31.888  35.038   0.833
86870W        W59185  27.736  31.621   3.937
86871W        W59186  33.496   6.420  10.637
86872W        W59187  32.047  17.829  14.913
86873W        W59188   4.954  41.922  10.733
86874W        W59189   2.507   6.919  10.666
86875W        W59190  28.401  17.695  12.846
86876W        W59191  19.303   6.383   3.602
86877W        W59192  22.238  22.966  11.587
86878W        W59193  29.411  12.325  11.236
86879W        W59194   9.955  28.227   3.301
86880W        W59195  25.514  18.998   4.149
86881W        W59196  21.687  33.174   4.711
86882W        W59197  18.124  39.846  10.629
86883W        W59198  11.953  10.740   1.749
86884W        W59199  24.412   2.434   4.272
86885W        W59200  41.576  33.956   4.893
86886W        W59201  18.644  12.542  11.691
86887W        W59202  32.167  10.857   2.810
86888W        W59203  14.067  20.028   0.042
86889W        W59204   0.926  38.696  13.754
86890W        W59205  34.826  38.896  14.498
86891W        W59206   5.514  16.374  11.140
86892W        W59207   7.760  13.422   0.357
86893W        W59208   9.352  12.049   1.692
86894W        W59209  27.939  22.955  11.668
86895W        W59210  21.781   1.498   0.074
86896W        W59211  19.347  36.955  14.504
86897W        W59212  33.069  43.020  11.883
86898W        W59213  30.195  25.608   0.737
86899W        W59214  23.566  18.782  11.118
86900W        W59215  16.598  18.464  14.477
86901W        W59216  27.588  37.333   2.879
86902W        W59217  10.685   2.925   2.403
86903W        W59218   8.616   7.382   3.216
86904W        W59219  39.376  34.572  11.105
86905W        W59220  32.743  31.964   0.804
86906W        W59221  37.514  26.093  13.161
86907W        W59222  38.318   2.887   2.722
86908W        W59223  44.945  12.338  14.962
86909W        W59224  43.733  26.831  13.741
86910W        W59225  24.533  21.685  11.421
86911W        W59226  26.020  14.218   2.320
86912W        W59227  33.075  35.127  13.450
86913W        W59228  40.876  26.252   0.938
86914W        W59229  35.866   9.180   0.300
86915W        W59230   0.274   4.299  11.398
86916W        W59231   7.496  22.488  11.146
86917W        W59232  29.480  12.037   2.850
86918W        W59233  38.057  41.097  12.953
86919W        W59234  31.241  29.513  13.842
86920W        W59235  38.115  20.123  13.053
86921W        W59236   9.776  38.508  12.679
86922W        W59237   6.787  37.624   0.358
86923W        W59238  18.250  16.108   3.064
86924W        W59239  33.573  33.656  14.865
86925W        W59240  19.751  34.018  14.804
86926W        W59241  29.133  38.855  11.703
86927W        W59242  28.177  35.992  14.392
86928W        W59243  36.533  28.164   4.629
86929W        W59244  31.991  32.495  14.447
86930W        W59245  10.076  23.723   0.263
86931W        W59246  19.842  10.205   1.410
86932W        W59247   9.818  12.249  14.951
86933W        W59248  15.362  11.711   2.887
86934W        W59249   9.820  20.542   2.747
86935W        W59250  31.383  22.868  12.577
86936W        W59251  32.525  19.224  10.895
86937W        W59252   3.705  10.631  12.663
86938W        W59253  44.231   6.702  11.123
86939W        W59254  41.511  19.372  13.092
86940W        W59255  14.701  10.602   3.777
86941W        W59256   4.775  23.609  12.356
86942W        W59257  43.444  16.094   2.205
86943W        W59258   8.199  25.168  11.441
86944W        W59259  19.033  23.469  11.213
86945W        W59260  35.439  41.813   4.327
86946W        W59261  38.346  27.124  11.570
86947W        W59262   9.641  18.604   0.710
86948W        W59263  26.952  10.876   3.446
86949W        W59264  24.748  40.756   1.404
86950W        W59265  14.695  31.014   1.371
86951W        W59266   1.218  23.776  13.075
86952W        W59267  34.494   2.766   0.877
86953W        W59268  27.121  22.580   1.851
86954W        W59269  32.068   5.555  10.085
86955W        W59270   6.815  41.088   0.293
86956W        W59271  13.860  15.503  12.575
86957W        W59272  23.934  15.756  11.976
86958W        W59273  31.908  20.791   2.703
86959W        W59274  22.129  20.479   3.496
86960W        W59275  27.387  36.038  13.471
86961W        W59276  11.141   3.753  10.413
86962W        W59277   6.129  17.315  11.569
86963W        W59278  36.590  42.380   0.739
86964W        W59279  11.848  16.342  14.053
86965W        W59280  31.140  23.282  13.292
86966W        W59281   7.934  17.724   4.222
86967W        W59282  20.800  35.127   4.823
86968W        W59283  22.971   8.810   0.421
86969W        W59284  15.674   4.288   2.360
86970W        W59285  42.867  28.978   1.600
86971W        W59286  29.631  24.524   0.568
86972W        W59287   5.635   9.667  12.657
86973W        W59288   6.482  32.421  14.481
86974W        W59289  13.175  12.707   4.548
86975W        W59290  32.388  10.303  12.198
86976W        W59291  19.008  33.914  13.009
86977W        W59292  16.082  24.737  11.222
86978W        W59293  24.631  14.242   0.745
86979W        W59294  15.091  11.212  12.457
86980W        W59295  39.009  27.558   1.148
86981W        W59296  18.258  19.949   4.622
86982W        W59297   9.610  40.449  13.512
86983W        W59298   0.280  23.772  12.569
86984W        W59299  31.883  23.938  13.958
86985W        W59300  29.108  37.037   4.585
86986W        W59301  36.556  35.147   2.617
86987W        W59302  16.059  32.518  13.305
86988W        W59303  11.654  14.489   1.227
86989W        W59304  24.672  42.431  11.274
86990W        W59305  40.901  19.662   0.912
86991W        W59306  38.610  35.381  12.357
86992W        W59307   1.530  29.947   3.608
86993W        W59308  11.357  42.352  11.067
86994W        W59309  27.098  24.163   3.440
86995W        W59310  36.292   2.454   4.564
86996W        W59311   5.284  40.336   1.546
86997W        W59312  35.446   9.865  14.006
86998W        W59313  13.128  15.228  10.583
86999W        W59314  43.982   9.752  10.478
87000W        W59315  12.693  44.851   3.701
87001W        W59316  29.891   6.260  14.925
87002W        W59317  15.901  43.993   5.072
87003W        W59318  38.876  19.735  12.442
87004W        W59319  13.519   0.242   0.277
87005W        W59320  44.853  34.001  12.985
87006W        W59321   0.262  22.249   0.386
87007W        W59322  38.655  14.344   4.101
87008W        W59323  26.019  12.125   4.561
87009W        W59324   8.964  23.196  13.078
87010W        W59325  33.905   9.461   3.230
87011W        W59326  19.559  22.529  12.945
87012W        W59327  13.192  26.437  12.893
87013W        W59328  21.045   6.678   3.416
87014W        W59329  16.737  18.170  14.889
87015W        W59330  29.737  29.517  12.649
87016W        W59331  17.655  10.327  14.262
87017W        W59332  37.720  26.129  14.123
87018W        W59333   3.221  17.828   4.164
87019W        W59334  16.614   7.853   4.578
87020W        W59335   8.213  19.548   0.262
87021W        W59336  18.566  24.222   1.827
87022W        W59337  43.595  20.044   2.582
87023W        W59338   1.578  14.508   0.847
87024W        W59339  12.744  21.455   1.191
87025W        W59340  21.732   5.505   1.693
87026W        W59341  19.630  13.837  12.938
87027W        W59342  26.939   6.934   4.191
87028W        W59343   2.256   6.608   1.247
87029W        W59344  33.980   6.888  11.147
87030W        W59345   0.475  13.793  11.380
87031W        W59346  27.417  30.968  13.909
87032W        W59347  35.077  12.414   3.634
87033W        W59348   4.728  27.406  10.557
87034W        W59349   6.135  42.011   3.041
87035W        W59350  26.466  28.373   2.027
87036W        W59351  42.509  15.235  14.704
87037W        W59352  42.553   3.310   1.711
87038W        W59353  25.492  13.844  13.071
87039W        W59354  38.722  12.549  11.144
87040W        W59355   2.771  36.236   1.662
87041W        W59356  35.860  21.268   2.842
87042W        W59357  31.299  42.904  11.103
87043W        W59358  13.230  12.336   3.252
87044W        W59359  21.325  24.633  14.945
87045W        W59360  38.878  12.862   4.360
87046W        W59361  37.766  23.600   2.710
87047W        W59362   0.310  37.767   4.590
87048W        W59363  26.218  40.458  14.811
87049W        W59364  16.723  13.334  11.018
87050W        W59365  39.937  15.998   2.071
87051W        W59366  24.530  41.027   4.628
87052W        W59367  29.032  41.418   4.397
87053W        W59368  27.912   4.806  12.403
87054W        W59369  11.355   2.565   0.446
87055W        W59370  43.053  21.567   2.137
87056W        W59371  34.727  39.458   1.475
87057W        W59372  15.723   4.179   1.822
87058W        W59373  36.087  31.537  14.477
87059W        W59374  33.445  30.108  13.931
87060W        W59375  38.128  34.332  11.039
87061W        W59376  43.766   4.314  14.888
87062W        W59377   4.276  12.100  13.622
87063W        W59378  10.219   3.863   4.323
87064W        W59379  36.594  40.365  13.090
87065W        W59380  41.781   2.878   2.728
87066W        W59381  37.582  34.579  10.394
87067W        W59382  21.416  32.388  11.587
87068W        W59383  38.400  17.669   3.415
87069W        W59384  12.266  29.061   1.051
87070W        W59385  12.576  18.192  10.612
87071W        W59386  21.475  31.126  11.171
87072W        W59387   3.842  17.624  13.014
87073W        W59388  20.729  32.310   2.237
87074W        W59389  21.273  20.839   2.264
87075W        W59390  31.066  41.137  10.842
87076W        W59391  22.090  15.728  11.585
87077W        W59392  18.235   7.829   0.515
87078W        W59393  20.001  39.012  11.790
87079W        W59394  17.277  24.445  11.414
87080W        W59395   8.567   8.876   2.141
87081W        W59396   9.436  31.080   3.619
87082W        W59397   8.734   6.842   2.667
87083W        W59398   7.473  15.006   4.591
87084W        W59399  32.672  32.944   3.079
87085W        W59400  35.394  31.883   4.869
87086W        W59401   8.476  35.133  13.379
87087W        W59402  43.201  23.013  11.866
87088W        W59403  36.557  20.700  14.889
87089W        W59404   4.121  15.903  12.521
87090W        W59405   7.075  26.674  12.082
87091W        W59406  19.610  25.708  10.645
87092W        W59407  41.156   5.285   3.596
87093W        W59408  11.175  36.380  12.632
87094W        W59409  42.556  40.047   1.407
87095W        W59410   0.494  11.866   4.135
87096W        W59411  21.261  32.410  14.430
87097W        W59412  10.731  35.903  14.258
87098W        W59413  10.123   3.759  10.605
87099W        W59414  31.251  34.385  11.799
87100W        W59415  10.933   0.484   3.557
87101W        W59416  10.910  34.956   2.553
87102W        W59417   5.898  35.033   3.456
87103W        W59418  39.062  22.277  10.503
87104W        W59419  28.493  36.919  11.986
87105W        W59420   6.230  28.926  13.109
87106W        W59421  43.218   1.300  12.345
87107W        W59422  10.218  31.229   4.552
87108W        W59423  44.316   2.263   3.890
87109W        W59424  21.222   1.341  13.284
87110W        W59425  24.839  24.375  14.038
87111W        W59426  24.195   7.454   2.151
87112W        W59427  24.038  28.265   3.300
87113W        W59428  16.354  20.104  11.220
87114W        W59429  41.352  17.726  12.814
87115W        W59430  36.045   8.836  14.366
87116W        W59431  15.144   6.742  10.661
87117W        W59432  18.699  31.589  11.515
87118W        W59433   8.791  29.002   3.625
87119W        W59434  15.079  37.817  13.802
87120W        W59435  22.483  20.620  11.812
87121W        W59436  31.106  32.612   0.796
87122W        W59437  26.792  29.607  11.673
87123W        W59438  37.620  36.423  14.865
87124W        W59439  30.074  24.050   1.200
87125W        W59440   8.731  32.463  13.401
87126W        W59441   9.630   6.905  10.605
87127W        W59442  25.653  13.881   4.812
87128W        W59443  37.406   1.107   4.760
87129W        W59444  10.676  32.476  12.103
87130W        W59445  24.505  36.495  10.791
87131W        W59446  39.068  19.941   4.443
87132W        W59447  40.037  38.554  14.562
87133W        W59448   1.260  37.812  11.942
87134W        W59449  44.896  19.238  13.504
87135W        W59450   6.293  28.041   2.845
87136W        W59451   7.665  21.788  12.104
87137W        W59452  27.081  16.066  10.736
87138W        W59453  19.206  44.477   1.800
87139W        W59454  17.031  21.721  11.085
87140W        W59455   9.300  42.254  12.627
87141W        W59456  15.880  28.440  12.965
87142W        W59457  40.208   8.602   1.750
87143W        W59458  38.487   7.610   3.749
87144W        W59459  37.813   7.874  11.001
87145W        W59460   7.474   1.886   2.679
87146W        W59461   1.728  26.457   3.214
87147W        W59462  27.022  22.719  13.564
87148W        W59463  31.985   0.493   2.876
87149W        W59464  10.934  43.361  14.835
87150W        W59465   9.137  15.068   4.312
87151W        W59466  29.959  25.402  10.703
87152W        W59467  25.018  11.685   2.812
87153W        W59468  18.719  10.680  13.844
87154W        W59469  21.144  34.966  11.865
87155W        W59470  28.647   6.976   1.271
87156W        W59471  21.613  27.139  13.225
87157W        W59472   9.995  20.241  13.099
87158W        W59473  17.574   7.281   1.946
87159W        W59474  27.691  27.685   2.212
87160W        W59475  42.193  31.031  12.922
87161W        W59476  36.543  28.232   1.407
87162W        W59477  17.755  32.589  10.699
87163W        W59478   1.664   4.559  14.288
87164W        W59479  43.476  11.406  14.970
87165W        W59480  17.785  15.004  13.826
87166W        W59481  19.889  42.970  11.456
87167W        W59482  34.093   1.434   2.799
87168W        W59483  31.572  16.787  12.533
87169W        W59484  15.884  43.838   1.981
87170W        W59485   4.282  33.402  14.755
87171W        W59486  20.778  27.972  10.671
87172W        W59487  35.633  25.985   4.101
87173W        W59488  43.720  35.627  11.291
87174W        W59489  41.974  19.195  12.409
87175W        W59490  21.542  18.696   2.815
87176W        W59491   6.752  11.113  12.774
87177W        W59492  18.612  29.915   2.402
87178W        W59493  32.324  33.024  11.062
87179W        W59494  16.367  38.039   4.768
87180W        W59495  15.576  34.481   0.783
87181W        W59496   4.780   1.296   3.382
87182W        W59497   6.749  14.163  11.596
87183W        W59498  31.507  40.498   3.371
87184W        W59499  22.987   9.341   3.342
87185W        W59500  17.696  19.568   2.709
87186W        W59501  23.711  43.859  14.752
87187W        W59502   1.777   5.482  10.477
87188W        W59503  24.554  35.041   4.183
87189W        W59504  28.709  32.371   5.157
87190W        W59505  14.320  37.326  13.986
87191W        W59506  25.775  20.154  12.749
87192W        W59507  11.370  17.381  10.799
87193W        W59508  34.280  32.929  13.388
87194W        W59509  35.082  42.839   2.227
87195W        W59510   9.190   6.689   2.869
87196W        W59511  19.462  20.051   1.470
87197W        W59512  20.016  21.214  14.755
87198W        W59513  33.271  28.646  11.139
87199W        W59514  14.361  22.715  12.415
87200W        W59515  38.510   3.464  14.401
87201W        W59516  34.394  26.658   3.200
87202W        W59517   8.649  15.842  14.873
87203W        W59518  23.090   2.185   2.763
87204W        W59519   3.491   6.804  13.046
87205W        W59520  30.246  26.231  10.566
87206W        W59521   3.329  25.888   1.753
87207W        W59522  43.878  22.150  14.583
87208W        W59523  26.237  39.274   2.845
87209W        W59524  25.588  32.004  14.029
87210W        W59525  11.831  22.123   4.361
87211W        W59526  31.458   6.299  13.033
87212W        W59527  28.920  10.653  11.112
87213W        W59528   6.312  16.423   1.779
87214W        W59529  24.492  29.642  11.193
87215W        W59530  25.101  28.239   4.056
87216W        W59531  26.024  17.038  14.865
87217W        W59532   4.854  22.149  14.081
87218W        W59533  22.721  19.484  11.912
87219W        W59534  24.451   5.102  13.170
87220W        W59535  40.795  23.973  14.169
87221W        W59536  25.521  31.515  12.847
87222W        W59537  43.818  19.661  11.951
87223W        W59538  34.097  28.150  13.770
87224W        W59539  40.174  16.075   4.037
87225W        W59540  22.787   1.962  14.404
87226W        W59541  16.676  10.138  10.167
87227W        W59542   3.296  36.945  14.299
87228W        W59543  30.565   3.211  14.022
87229W        W59544   9.266  27.201   0.359
87230W        W59545   8.243  13.531   1.202
87231W        W59546  26.133  11.203  11.634
87232W        W59547   7.955   9.757   3.194
87233W        W59548   4.647  32.151  11.255
87234W        W59549  41.064   7.348  13.306
87235W        W59550   7.754   4.993  12.175
87236W        W59551   2.950  28.819  12.546
87237W        W59552   5.169   1.301  14.160
87238W        W59553   5.951  38.934   2.645
87239W        W59554  11.833  18.011   0.276
87240W        W59555  11.604  12.899   5.203
87241W        W59556   5.957  27.930  11.079
87242W        W59557  18.952  31.106  13.812
87243W        W59558  13.573  39.818  10.631
87244W        W59559  12.339   6.316   4.148
87245W        W59560   0.153  12.198  14.492
87246W        W59561  44.535   8.793  11.908
87247W        W59562  35.914  16.589  12.996
87248W        W59563  24.251  11.043   2.284
87249W        W59564   3.916  42.684  11.108
87250W        W59565  27.220  16.620  11.972
87251W        W59566  42.531  17.300  14.981
87252W        W59567  28.449  11.706  13.020
87253W        W59568  23.593  31.574   4.554
87254W        W59569  13.671  43.913  14.108
87255W        W59570  21.658  40.237  10.277
87256W        W59571  40.540   4.713  14.294
87257W        W59572  13.745   8.892  11.465
87258W        W59573  42.133  30.433  11.612
87259W        W59574  17.899  40.367  10.690
87260W        W59575  25.622  11.147  11.557
87261W        W59576  21.190   2.821  10.294
87262W        W59577  14.640   6.233  11.970
87263W        W59578  14.244  43.366  14.404
87264W        W59579  10.910   3.862   2.682
87265W        W59580  33.537  42.961  13.473
87266W        W59581  32.537  18.741  10.675
87267W        W59582  29.711  13.098   1.903
87268W        W59583  20.182  15.286   0.419
87269W        W59584  40.350  13.810   2.606
87270W        W59585   7.805  15.255   0.003
87271W        W59586  36.985  21.022  12.841
87272W        W59587  12.105  44.350  13.215
87273W        W59588  31.565  19.741  10.746
87274W        W59589  16.286  28.672  14.341
87275W        W59590  16.224   0.346   4.021
87276W        W59591  22.245  42.953  11.573
87277W        W59592  30.372  44.913   3.213
87278W        W59593  18.096  20.168  12.331
87279W        W59594   8.160   6.239  10.450
87280W        W59595  20.544  16.854   0.666
87281W        W59596  29.929  37.312   4.410
87282W        W59597  44.881  30.499   4.166
87283W        W59598   6.769  18.010  11.752
87284W        W59599  42.526  41.474   0.285
87285W        W59600  38.037   6.517  14.537
87286W        W59601  27.512  12.537   4.933
87287W        W59602   7.240  32.818   1.927
87288W        W59603  31.703  31.387   0.780
87289W        W59604  18.669  28.516   9.829
87290W        W59605  14.251   5.574  13.005
87291W        W59606  24.310  13.716   1.376
87292W        W59607  40.847  25.346   1.496
87293W        W59608  36.887  39.490  11.476
87294W        W59609   0.435  11.382  11.097
87295W        W59610  31.203  28.062   2.709
87296W        W59611   1.551  13.195  14.745
87297W        W59612   4.417  39.805  11.116
87298W        W59613  18.682  41.918   2.164
87299W        W59614  30.871  37.282   2.755
87300W        W59615   6.915  11.573  10.654
87301W        W59616  18.172  35.395  12.992
87302W        W59617  34.624  27.648   1.755
87303W        W59618  44.869  44.455   1.721
87304W        W59619  44.806  43.544  11.909
87305W        W59620   6.796   3.058  12.477
87306W        W59621  30.679  20.200  14.273
87307W        W59622  29.408  31.853  10.641
87308W        W59623   0.222  42.000   2.757
87309W        W59624  19.304  43.106   4.533
87310W        W59625  38.064  28.193  12.413
87311W        W59626  17.313  30.263  14.264
87312W        W59627  35.961  33.521  13.012
87313W        W59628   1.538   1.487  12.015
87314W        W59629  17.751  13.257   1.024
87315W        W59630  24.124  37.475  11.326
87316W        W59631  27.188  20.293  12.964
87317W        W59632  32.307  29.796   0.971
87318W        W59633  35.839  34.213   0.714
87319W        W59634  39.550  27.508   4.209
87320W        W59635  21.238  29.005  11.982
87321W        W59636  36.760  41.518   1.364
87322W        W59637  30.579  44.710   2.753
87323W        W59638  25.073   8.193   3.409
87324W        W59639  15.035  11.252   1.800
87325W        W59640  31.828   3.598  13.519
87326W        W59641  35.328  26.044  13.311
87327W        W59642   0.535   6.194  12.031
87328W        W59643  29.666   6.408   0.730
87329W        W59644   9.377  32.711  14.830
87330W        W59645  28.070  20.665  13.468
87331W        W59646  34.852   5.889   1.859
87332W        W59647   8.936  37.724  11.567
87333W        W59648  37.524  23.081  11.518
87334W        W59649   0.264  21.316  12.962
87335W        W59650  12.218   2.825  10.921
87336W        W59651  22.601  10.896   2.756
87337W        W59652   2.180   4.634  11.050
87338W        W59653   5.613  10.830   4.434
87339W        W59654  39.302  13.333   0.817
87340W        W59655  17.534   0.011  14.398
87341W        W59656  24.149  29.690   4.559
87342W        W59657  39.866  34.921   3.637
87343W        W59658  33.003  17.666  11.609
87344W        W59659  36.917  33.520   4.554
87345W        W59660  14.103  13.719  13.376
87346W        W59661  38.883  37.441   2.273
87347W        W59662  35.389  40.536   1.336
87348W        W59663  30.915  28.734   1.321
87349W        W59664  10.322   9.756  12.066
87350W        W59665  13.679  23.526   3.325
87351W        W59666  10.178  40.461  14.442
87352W        W59667  13.545  16.210   1.667
87353W        W59668  22.607  39.304  10.627
87354W        W59669  44.338  42.913  12.908
87355W        W59670   2.538  35.078  14.800
87356W        W59671   4.694   9.853   0.217
87357W        W59672  31.189  29.849   4.072
87358W        W59673  10.426  37.339  14.349
87359W        W59674   0.348  31.426   3.957
87360W        W59675   4.778   2.391   1.151
87361W        W59676  39.108  26.518   3.344
87362W        W59677  27.607  11.585  14.886
87363W        W59678  38.512  21.508   2.598
87364W        W59679  24.002  20.689  11.551
87365W        W59680  42.967   9.639   3.613
87366W        W59681   6.327   4.254  10.358
87367W        W59682  35.443  44.447   0.435
87368W        W59683   8.071  26.413   4.323
87369W        W59684  16.107  16.140  12.420
87370W        W59685  33.032   0.539  14.470
87371W        W59686   9.744  18.325  12.546
87372W        W59687   7.799  38.949  11.498
87373W        W59688   0.940   8.430  14.356
87374W        W59689   7.626  33.937   4.374
87375W        W59690  17.669  44.196   1.684
87376W        W59691   0.951  38.856  11.234
87377W        W59692   7.695  39.145   0.549
87378W        W59693  39.435  39.918  12.506
87379W        W59694   7.307  12.649   4.339
87380W        W59695   7.200  11.185  11.477
87381W        W59696  19.595  38.997  10.605
87382W        W59697   5.952  21.256  13.790
87383W        W59698  40.999  16.934  12.903
87384W        W59699  34.436  30.000   3.634
87385W        W59700  38.456  43.049   4.107
87386W        W59701  18.395  18.655   3.323
87387W        W59702  43.346  15.293  13.882
87388W        W59703  17.768  36.827   3.222
87389W        W59704  25.469  40.185   0.752
87390W        W59705  44.870  43.177   2.660
87391W        W59706  20.805  36.185  13.878
87392W        W59707   8.277  35.800  11.076
87393W        W59708   8.980  13.079  11.057
87394W        W59709  12.894  10.377   4.585
87395W        W59710  11.804  27.771  10.896
87396W        W59711  32.644  44.048   3.441
87397W        W59712  35.417   1.562  14.555
87398W        W59713  36.952  23.959  11.807
87399W        W59714   8.491   8.342   1.692
87400W        W59715   5.805  30.416   1.256
87401W        W59716   1.059   5.158  13.964
87402W        W59717   2.171  28.656   2.308
87403W        W59718  28.129  43.404  10.674
87404W        W59719  20.629   4.471   3.390
87405W        W59720  21.093  43.484  14.097
87406W        W59721  41.219   6.441  14.479
87407W        W59722  20.054  18.385  11.100
87408W        W59723  11.607  16.579  12.118
87409W        W59724   2.233  35.401  14.546
87410W        W59725   8.785  42.087   0.520
87411W        W59726  11.568  25.668  10.652
87412W        W59727  10.195  13.315   1.159
87413W        W59728  11.210   1.663   2.869
87414W        W59729  18.439  15.976  11.581
87415W        W59730  16.086   8.688  13.379
87416W        W59731  37.057  22.082   0.438
87417W        W59732   8.065   8.620   3.861
87418W        W59733  33.090  33.144  12.138
87419W        W59734   0.609  44.408   3.549
87420W        W59735  42.674  16.599  12.204
87421W        W59736  36.055  11.344   1.362
87422W        W59737   9.408   1.986  13.619
87423W        W59738   3.839   4.723   1.379
87424W        W59739  13.479  44.786  12.982
87425W        W59740  25.225  12.086   0.005
87426W        W59741  12.569   3.961   3.378
87427W        W59742  12.175  10.176   1.242
87428W        W59743   4.002  37.005   3.630
87429W        W59744  12.702  35.955   3.296
87430W        W59745  13.031  23.013   1.572
87431W        W59746  14.850  13.239  13.753
87432W        W59747  24.664  41.900   1.049
87433W        W59748  27.145   6.430  14.372
87434W        W59749  29.096  17.708  14.780
87435W        W59750  12.093   6.268  14.953
87436W        W59751  29.877  36.501   3.893
87437W        W59752   0.420  14.102   1.188
87438W        W59753  41.468  40.866  13.903
87439W        W59754  28.430  33.569  14.938
87440W        W59755  43.921   4.703  11.964
87441W        W59756  24.967  29.306   0.668
87442W        W59757  32.037   8.664  13.976
87443W        W59758   5.353  29.685  10.696
87444W        W59759  38.598   5.358  12.526
87445W        W59760  41.347  42.914  10.700
87446W        W59761  27.247   2.463   0.516
87447W        W59762  24.676  28.347   4.639
87448W        W59763  18.091  18.246   3.203
87449W        W59764  37.628  34.663   5.010
87450W        W59765  35.086  14.380  14.932
87451W        W59766  40.344  34.512  13.082
87452W        W59767  31.771  35.422   1.789
87453W        W59768   1.442  13.530  11.549
87454W        W59769   0.267  33.426   3.930
87455W        W59770   6.313  24.425  12.566
87456W        W59771  21.082  30.473  11.597
87457W        W59772  44.832  36.805  14.596
87458W        W59773   5.729  10.826   3.937
87459W        W59774  35.356  23.522  13.027
87460W        W59775  26.963   1.074   4.258
87461W        W59776  28.103   3.702   3.592
87462W        W59777  15.339  16.320  12.914
87463W        W59778  15.821  20.514  12.496
87464W        W59779  34.218   3.426   4.178
87465W        W59780  18.110  19.092   1.633
87466W        W59781   7.860  18.672  14.459
87467W        W59782   0.114  22.953  13.861
87468W        W59783   2.402  18.668   1.277
87469W        W59784  17.241  32.544  10.595
87470W        W59785  40.367  40.165   3.281
87471W        W59786  13.750  24.045   0.893
87472W        W59787  24.294  37.440  14.760
87473W        W59788  39.617   0.701  13.549
87474W        W59789  19.161  15.061  12.920
87475W        W59790   7.165   8.724   1.962
87476W        W59791  24.557  23.539  12.929
87477W        W59792   4.350  14.885   0.850
87478W        W59793   9.151  21.500  11.021
87479W        W59794   6.194   9.087  14.424
87480W        W59795   3.496  14.374   0.895
87481W        W59796  28.495  36.790  14.188
87482W        W59797   7.983  20.320  10.684
87483W        W59798  14.350  33.479  12.876
87484W        W59799  22.102  11.888  14.993
87485W        W59800   4.170  43.855  10.669
87486W        W59801  40.832  44.339  13.079
87487W        W59802  35.082  22.909   4.029
87488W        W59803   6.135   5.894  13.898
87489W        W59804  20.767   4.791  12.973
87490W        W59805  43.698  12.714  13.957
87491W        W59806  38.411   8.820  12.823
87492W        W59807  26.882  18.171  14.438
87493W        W59808  18.814  27.149   3.630
87494W        W59809  38.100  25.662   5.115
87495W        W59810  19.797  42.477   2.411
87496W        W59811  35.049  36.842  12.809
87497W        W59812  28.112  38.515   4.616
87498W        W59813   4.308  15.321  14.214
87499W        W59814   0.524  39.580  11.990
87500W        W59815  39.985  13.430  13.574
87501W        W59816  17.672  18.375  10.640
87502W        W59817  14.996  10.388  10.701
87503W        W59818  29.148   8.132   2.700
87504W        W59819  40.870  44.982  13.374
87505W        W59820   2.559  33.246   4.167
87506W        W59821   4.057  33.830  13.894
87507W        W59822  26.265  16.974   0.683
87508W        W59823  16.699  31.674   2.316
87509W        W59824  39.363  35.517  10.634
87510W        W59825  33.653   5.811  13.433
87511W        W59826  15.002  21.373   2.735
87512W        W59827  10.140   1.462   0.395
87513W        W59828  34.487  12.661  13.335
87514W        W59829  34.989  30.619  14.361
87515W        W59830  37.399  23.984  12.529
87516W        W59831  20.638  24.745  11.137
87517W        W59832  43.296  35.969  12.623
87518W        W59833  23.110  29.132  13.776
87519W        W59834  39.532  40.368   3.300
87520W        W59835  15.437  23.258   3.172
87521W        W59836  34.330  32.574  11.934
87522W        W59837  13.791  18.010   1.844
87523W        W59838   3.440  27.468   3.701
87524W        W59839   9.852  39.099  14.526
87525W        W59840  18.545   0.762  12.695
87526W        W59841   0.362  31.240   0.328
87527W        W59842   5.241  40.934  11.147
87528W        W59843  40.167  25.682   2.979
87529W        W59844  27.575  29.620  14.444
87530W        W59845  18.349  29.614   3.377
87531W        W59846  30.963  33.981   4.481
87532W        W59847  36.007  34.589  10.668
87533W        W59848   6.190  12.665  12.028
87534W        W59849  44.373   5.587  12.577
87535W        W59850  11.419  16.001   2.121
87536W        W59851   2.766   2.201   1.404
87537W        W59852   8.445   6.075   5.057
87538W        W59853   5.501  14.167   2.807
87539W        W59854   3.875   4.914   4.649
87540W        W59855  21.474  19.752  13.074
87541W        W59856  25.125  16.307   2.241
87542W        W59857   3.846  17.098  12.081
87543W        W59858   7.828   8.992   0.849
87544W        W59859  21.735   6.852  12.994
87545W        W59860  18.503  29.727   2.879
87546W        W59861  43.869  37.594  10.610
87547W        W59862  40.906   6.650   4.045
87548W        W59863   9.671   7.953  12.339
87549W        W59864  28.437  28.805   2.034
87550W        W59865  22.971  35.741  13.584
87551W        W59866  38.009  28.800  14.365
87552W        W59867  11.429  15.910   3.595
87553W        W59868  42.836  39.865   0.079
87554W        W59869  10.699  41.548   4.239
87555W        W59870  24.476  26.031   4.682
87556W        W59871  35.815   3.320  13.425
87557W        W59872   5.842   8.842  12.963
87558W        W59873  13.188  35.450   0.872
87559W        W59874  44.926  20.758  12.174
87560W        W59875  19.553  26.224  10.723
87561W        W59876  23.549  15.135  14.674
87562W        W59877  29.022  32.443  12.788
87563W        W59878  11.347  43.489   3.722
87564W        W59879  14.146  36.073  13.639
87565W        W59880  25.858  32.562  10.632
87566W        W59881  22.004  37.800  11.456
87567W        W59882  35.700  44.821   3.574
87568W        W59883  40.326  33.567   2.688
87569W        W59884  42.831  25.723   2.440
87570W        W59885  22.555  35.646   2.276
87571W        W59886   3.311  34.205   1.763
87572W        W59887  19.669  23.940  11.198
87573W        W59888  31.331  34.602  14.372
87574W        W59889   7.898  29.438  13.168
87575W        W59890  40.289  36.983  13.393
87576W        W59891   5.010   5.965   1.932
87577W        W59892  32.937  11.091   3.294
87578W        W59893  43.299  23.580  12.678
87579W        W59894  32.015  40.499  11.983
87580W        W59895  40.469  24.595   2.817
87581W        W59896   7.944  17.762   3.149
87582W        W59897  10.901  36.209  11.045
87583W        W59898   9.677  15.082   0.968
87584W        W59899  39.471   8.140  12.084
87585W        W59900  33.869  23.437  11.203
87586W        W59901  33.947   5.467   0.757
87587W        W59902   5.209  25.060  11.103
87588W        W59903   4.269  37.330  13.343
87589W        W59904  23.020  18.728  10.537
87590W        W59905  26.975   9.958   2.370
87591W        W59906  30.666  14.599   4.966
87592W        W59907   7.909  28.657  11.410
87593W        W59908  42.621   1.430   0.324
87594W        W59909   6.680   6.788   3.343
87595W        W59910  19.211  23.269   1.344
87596W        W59911   9.795   2.159  13.919
87597W        W59912  33.534  19.340   3.193
87598W        W59913  28.513   9.860  14.922
87599W        W59914   1.675  16.250   2.753
87600W        W59915  14.051  26.986   0.394
87601W        W59916  23.576  35.043  14.064
87602W        W59917  11.905  43.647  14.876
87603W        W59918  33.800  22.596   3.233
87604W        W59919   6.889  42.815   0.268
87605W        W59920  31.263  35.459   1.793
87606W        W59921  21.632  31.928   4.706
87607W        W59922  23.417  16.095   0.781
87608W        W59923  33.507  34.416  11.945
87609W        W59924  17.939  12.093   5.114
87610W        W59925   2.252  17.394   4.796
87611W        W59926  10.274  36.383   2.647
87612W        W59927  44.956  21.430   1.557
87613W        W59928  20.734  13.397   0.661
87614W        W59929   1.954   5.768  14.927
87615W        W59930  23.632  23.705   2.430
87616W        W59931  21.992   2.852   2.260
87617W        W59932  15.767  10.899   0.475
87618W        W59933  31.006  16.801   1.372
87619W        W59934  18.222  17.237   4.663
87620W        W59935   1.419  29.041   3.560
87621W        W59936  39.651   8.355  14.436
87622W        W59937   6.939  11.169   3.871
87623W        W59938  12.867   8.184   3.250
87624W        W59939  19.196  23.524  13.846
87625W        W59940  40.259  27.556  11.684
87626W        W59941  39.613  13.157  10.731
87627W        W59942  33.534  17.542  13.404
87628W        W59943  18.327  34.543  10.689
87629W        W59944  39.257   1.862   0.486
87630W        W59945  29.215  30.284   1.233
87631W        W59946  37.915  32.421  14.608
87632W        W59947  33.298  29.621  14.825
87633W        W59948  34.100  31.345  14.924
87634W        W59949  37.637   9.548   3.272
87635W        W59950  21.774  33.862  13.276
87636W        W59951   1.199  21.804   1.721
87637W        W59952   7.632  25.005  13.907
87638W        W59953  15.640  15.097   3.665
87639W        W59954  20.740   1.326   2.507
87640W        W59955  17.969  35.643   2.832
87641W        W59956  44.236  42.202   4.490
87642W        W59957  13.633  37.691   1.417
87643W        W59958  39.322  43.374   4.427
87644W        W59959  32.965  26.033  14.907
87645W        W59960   2.682   5.364  13.466
87646W        W59961   2.807  40.113   3.601
87647W        W59962  42.740  38.364   3.673
87648W        W59963  34.815  14.516  12.537
87649W        W59964   6.608  23.621   1.791
87650W        W59965   6.241  42.058   4.913
87651W        W59966  40.304  12.888  14.397
87652W        W59967  21.204  15.383  14.785
87653W        W59968   1.454  28.381   2.811
87654W        W59969  38.063  44.201   0.281
87655W        W59970  44.227   9.722  13.935
87656W        W59971  13.639  35.904   3.656
87657W        W59972  36.059  39.053  11.451
87658W        W59973  13.687  37.983  14.927
87659W        W59974  11.870  28.563  11.443
87660W        W59975   2.813  10.844  11.377
87661W        W59976  16.273   2.748  12.890
87662W        W59977  31.660  32.603   1.793
87663W        W59978  29.062  29.448  13.297
87664W        W59979  11.352  21.264   0.326
87665W        W59980  34.943  40.904  12.787
87666W        W59981  18.563  25.566   3.101
87667W        W59982  16.581  26.214   3.820
87668W        W59983  43.339   2.753  14.412
87669W        W59984  13.479  21.836   4.863
87670W        W59985  28.484  41.361  12.201
87671W        W59986  42.843  41.800   3.331
87672W        W59987  27.749  36.059   0.678
87673W        W59988  33.768  25.912   0.360
87674W        W59989  31.135   5.239   0.296
87675W        W59990  23.670  38.573  11.603
87676W        W59991  32.073  18.203   2.176
87677W        W59992  28.384  11.110   3.684
87678W        W59993  15.545  43.725  11.065
87679W        W59994   7.292   5.890   4.737
87680W        W59995  44.240  38.195  13.171
87681W        W59996  42.039  23.146  14.849
87682W        W59997  39.063  26.443   4.229
87683W        W59998  44.283  14.702  11.991
87684W        W59999   1.178  40.393  12.561
87685W        W60000   9.908  39.259   1.397
87686W        W60001   2.280  18.341   4.576
87687W        W60002  36.052   1.713  11.793
87688W        W60003   3.673  21.281  14.998
87689W        W60004   6.264  36.079   0.009
87690W        W60005  30.566  13.034   2.653
87691W        W60006  18.800  23.369   0.009
87692W        W60007  42.194  20.596  12.237
87693W        W60008  10.651  21.352  14.651
87694W        W60009  10.464  21.414   2.394
87695W        W60010  23.630  33.997   1.221
87696W        W60011  19.421  23.227   0.742
87697W        W60012   3.922  37.042  10.715
87698W        W60013  30.132  21.741   0.503
87699W        W60014   0.396  39.690   0.760
87700W        W60015  21.250  27.619  14.289
87701W        W60016   3.305  38.054   2.241
87702W        W60017  39.352   3.750  13.758
87703W        W60018   6.682  32.907  14.396
87704W        W60019   5.853  15.582  10.945
87705W        W60020  16.249  41.903  13.381
87706W        W60021  26.431  35.014  12.004
87707W        W60022  40.651  30.207  13.852
87708W        W60023  37.585  35.456  10.582
87709W        W60024   6.676  42.877   0.748
87710W        W60025  41.937  20.691   3.819
87711W        W60026  21.534  39.209   9.815
87712W        W60027  15.378   9.593   1.341
87713W        W60028  10.317  32.195  11.649
87714W        W60029  11.295  30.356   4.778
87715W        W60030  44.785  41.549   1.800
87716W        W60031  39.104  28.119  11.115
87717W        W60032  15.068  13.112   2.349
87718W        W60033   5.267  40.801   3.908
87719W        W60034   3.653   2.498   4.210
87720W        W60035  40.398  30.653  10.821
87721W        W60036  11.876  31.501   0.255
87722W        W60037  12.190   1.329  13.588
87723W        W60038  25.683  19.687  14.485
87724W        W60039  20.527  25.492   0.747
87725W        W60040   3.542  14.569  13.885
87726W        W60041  21.385  26.390  13.370
87727W        W60042   5.357  42.928  12.117
87728W        W60043  35.580  23.546   4.693
87729W        W60044   7.495  20.286   4.192
87730W        W60045  22.685  30.423  10.746
87731W        W60046  36.800  44.742  13.289
87732W        W60047  24.938  13.683   3.252
87733W        W60048   4.237  35.643  14.594
87734W        W60049   6.930  26.217  12.294
87735W        W60050  10.297  17.081  12.668
87736W        W60051  25.373  20.016   5.171
87737W        W60052  40.792  35.402   2.782
87738W        W60053   4.232  15.447  12.836
87739W        W60054  22.918  22.593  14.167
87740W        W60055  14.035   6.855   4.804
87741W        W60056   6.390  26.028   0.622
87742W        W60057   9.402  11.756  12.868
87743W        W60058  13.176  19.431  13.443
87744W        W60059  16.227  25.304   3.690
87745W        W60060   9.203  20.030   4.028
87746W        W60061   5.672  13.277  11.551
87747W        W60062   1.916   9.889  11.481
87748W        W60063  21.968  13.393   1.271
87749W        W60064  40.087  24.521  13.073
87750W        W60065  43.194  23.498  14.046
87751W        W60066  33.523  42.542   1.156
87752W        W60067   6.767  29.745   2.923
87753W        W60068  40.444  21.498  10.610
87754W        W60069  31.662  12.815  14.460
87755W        W60070  35.472  36.852   0.488
87756W        W60071  40.728   1.839  12.828
87757W        W60072  11.747   8.611  14.883
87758W        W60073  26.096  16.611   3.199
87759W        W60074   8.141  30.154   2.201
87760W        W60075  25.981  19.742   2.666
87761W        W60076  29.700  19.367  11.606
87762W        W60077  29.234  29.145   1.586
87763W        W60078  37.782  28.650  14.822
87764W        W60079  15.363  14.143  11.515
87765W        W60080  32.635  36.016  12.468
87766W        W60081  28.400  31.512   5.098
87767W        W60082  43.670  42.091   4.906
87768W        W60083   9.677  39.847   4.145
87769W        W60084  18.952   6.828   4.184
87770W        W60085   4.040  43.748   0.316
87771W        W60086  42.711  25.976  11.184
87772W        W60087  29.231  44.822  13.464
87773W        W60088  17.721  36.589   0.781
87774W        W60089  29.727   3.278   2.236
87775W        W60090  23.615  12.371   1.103
87776W        W60091  40.237  11.082  11.142
87777W        W60092   2.573  32.104   0.352
87778W        W60093  39.956  33.053   3.098
87779W        W60094  11.879  38.990   2.790
87780W        W60095  37.543  40.283  12.831
87781W        W60096   7.231  29.630   5.096
87782W        W60097  23.788  24.275  12.075
87783W        W60098  37.430  22.176   4.285
87784W        W60099  24.578  29.231  13.007
87785W        W60100  38.621   8.758   3.572
87786W        W60101   4.122   9.350   1.393
87787W        W60102  38.400  32.549  14.522
87788W        W60103  19.515  35.524  12.763
87789W        W60104  42.371   9.394  12.233
87790W        W60105   4.854  36.014   1.170
87791W        W60106  22.431   0.925  10.646
87792W        W60107  16.352   3.280  13.817
87793W        W60108  37.827  39.580  11.486
87794W        W60109  23.011  20.779  10.705
87795W        W60110  21.071  25.909  14.491
87796W        W60111  19.624   2.898  12.448
87797W        W60112  39.071  42.285   2.650
87798W        W60113  24.622   8.888   4.936
87799W        W60114   6.329  23.237  13.953
87800W        W60115  42.225  10.213  14.003
87801W        W60116  43.454  39.814   1.241
87802W        W60117  33.425  41.021   2.811
87803W        W60118   2.789  27.502   1.950
87804W        W60119  38.011  42.961  12.149
87805W        W60120  21.636  14.606   4.714
87806W        W60121  22.226  28.368   0.410
87807W        W60122  17.603  21.056  14.672
87808W        W60123  32.581  43.597   1.641
87809W        W60124  31.907  20.658   4.143
87810W        W60125  15.817  27.801   1.391
87811W        W60126   8.795  17.378   1.919
87812W        W60127  30.660  24.021   4.265
87813W        W60128  40.939  43.867  12.049
87814W        W60129  14.796  40.253   0.183
87815W        W60130  20.603  42.991   4.061
87816W        W60131  40.448  20.330   3.741
87817W        W60132  17.337  27.492   4.275
87818W        W60133  25.735  28.928  12.192
87819W        W60134  26.510  26.780  12.981
87820W        W60135  43.347  13.198   1.368
87821W        W60136  35.207  21.150   5.043
87822W        W60137  35.501  14.891   3.729
87823W        W60138   2.827  37.414  10.008
87824W        W60139   2.591   7.089  14.006
87825W        W60140  16.467  25.494   3.225
87826W        W60141   0.851  14.759   1.955
87827W        W60142   3.437  17.726  12.537
87828W        W60143  39.502  16.363  12.597
87829W        W60144  37.911  23.812  12.412
87830W        W60145  20.755  38.359   4.336
87831W        W60146   9.217  32.632  11.626
87832W        W60147  33.841  40.834   4.039
87833W        W60148  44.960  35.886  14.381
87834W        W60149  11.258  26.894   4.346
87835W        W60150   7.515  19.620  10.349
87836W        W60151  30.488  35.026  13.595
87837W        W60152  37.549  14.104  11.664
87838W        W60153  28.228  10.608  11.905
87839W        W60154  31.031  27.823   0.239
87840W        W60155  10.723  29.958   0.909
87841W        W60156   5.649  23.491  10.450
87842W        W60157  41.528  22.722  13.368
87843W        W60158   8.488  15.191   3.700
87844W        W60159  25.173  29.593   1.754
87845W        W60160  39.941  15.501  14.039
87846W        W60161  28.449  22.639   3.818
87847W        W60162   7.292  24.456  14.331
87848W        W60163  38.012  39.478  11.949
87849W        W60164  27.703  12.166   4.548
87850W        W60165   5.675   7.732   2.644
87851W        W60166  17.186  42.444   2.327
87852W        W60167  27.237   0.181  13.460
87853W        W60168  36.820  15.060   4.613
87854W        W60169   4.718  42.041  13.616
87855W        W60170  34.982   9.088   4.245
87856W        W60171  37.378  27.086   3.777
87857W        W60172  21.590  42.222  11.492
87858W        W60173  25.177  21.991  11.438
87859W        W60174  19.585  36.598  11.076
87860W        W60175  13.850  35.360   3.960
87861W        W60176   7.284  15.274   3.212
87862W        W60177   5.466  17.289  14.382
87863W        W60178  40.454  34.009  13.009
87864W        W60179  39.457  18.147   0.414
87865W        W60180  27.081  26.091   0.744
87866W        W60181  33.379  42.005   2.704
87867W        W60182  12.817   1.355  12.910
87868W        W60183   1.011  12.627  14.496
87869W        W60184  42.600   1.300  14.446
87870W        W60185  36.905  44.401   2.742
87871W        W60186   6.727  24.420   1.324
87872W        W60187  39.425   2.916  13.594
87873W        W60188  38.741  24.783   3.348
87874W        W60189   1.695  27.771  11.222
87875W        W60190  23.695  25.110   0.436
87876W        W60191  36.887  38.596  14.067
87877W        W60192   6.534  37.005  12.484
87878W        W60193  21.587   7.666   3.840
87879W        W60194  26.562   3.130   3.448
87880W        W60195  22.249   3.439   3.656
87881W        W60196  21.946   0.337   3.110
87882W        W60197  39.935   2.561  11.512
87883W        W60198  14.767  31.355  10.667
87884W        W60199   2.308  43.948  13.074
87885W        W60200  41.305  19.685   2.227
87886W        W60201  38.464  23.189  13.372
87887W        W60202  38.850   4.258  11.903
87888W        W60203   5.829  16.679   1.869
87889W        W60204  40.929  17.831   4.138
87890W        W60205  14.247  31.641   1.571
87891W        W60206  38.400   2.096   4.626
87892W        W60207  19.768  40.592   2.369
87893W        W60208   1.967  21.301   5.057
87894W        W60209  18.678  31.223   0.267
87895W        W60210  20.694  37.923   4.607
87896W        W60211  20.663   4.269  13.888
87897W        W60212  41.659  44.928  14.058
87898W        W60213  39.841  41.368   3.668
87899W        W60214  14.555   4.404   1.327
87900W        W60215   3.696  22.200   3.267
87901W        W60216  21.215  14.954   4.748
87902W        W60217   9.634  37.542   3.386
87903W        W60218  26.551  33.911  13.474
87904W        W60219  25.963   0.563   1.596
87905W        W60220  35.369  29.950   3.230
87906W        W60221  21.606   1.675  10.890
87907W        W60222  14.728  28.239   2.771
87908W        W60223  22.676  33.470   2.237
87909W        W60224  27.033  29.914  10.960
87910W        W60225  40.340  36.081  12.532
87911W        W60226  44.801  18.395  12.378
87912W        W60227  23.014   4.560  14.970
87913W        W60228  33.910  15.014  14.405
87914W        W60229  13.370  44.032   3.816
87915W        W60230  34.255  12.700   3.516
87916W        W60231  12.411   7.713  11.963
87917W        W60232  18.478  26.006   3.336
87918W        W60233   2.224   8.484  10.662
87919W        W60234  34.880  14.768   2.364
87920W        W60235   4.524  35.573   2.862
87921W        W60236  25.345  22.741   3.242
87922W        W60237   6.983  22.477  11.062
87923W        W60238  44.281  10.423   1.498
87924W        W60239  34.654  40.300  11.152
87925W        W60240  32.972   7.757   2.911
87926W        W60241  33.198  24.579   0.466
87927W        W60242  23.201  32.542   2.745
87928W        W60243  19.130  10.969   3.283
87929W        W60244   5.935   3.146   9.997
87930W        W60245  19.608   7.382  11.943
87931W        W60246  13.351  31.416  11.644
87932W        W60247   9.481  40.742   3.217
87933W        W60248  26.525  11.062   4.317
87934W        W60249  17.751  31.708  10.684
87935W        W60250   1.248  17.173   2.277
87936W        W60251  25.084  11.588  14.976
87937W        W60252   4.059  29.215  10.182
87938W        W60253  12.820  25.177  10.824
87939W        W60254  28.147  11.362   3.270
87940W        W60255  26.258  42.845   4.524
87941W        W60256  41.464   4.915  12.946
87942W        W60257   7.501   1.935   2.127
87943W        W60258  11.699  13.385  14.397
87944W        W60259  16.774  41.053  12.083
87945W        W60260  15.077   6.870   3.363
87946W        W60261   7.879   1.637  10.598
87947W        W60262  34.531  41.315  10.681
87948W        W60263  36.077  36.957   0.486
87949W        W60264  18.812  28.971   4.172
87950W        W60265  43.517  37.976   2.125
87951W        W60266  34.257  23.246  12.510
87952W        W60267  25.079   8.220   4.834
87953W        W60268  32.260   8.460  13.551
87954W        W60269  37.822  13.905  10.722
87955W        W60270  28.119  34.041  13.178
87956W        W60271  18.496  31.618   4.966
87957W        W60272   9.348  42.302   3.154
87958W        W60273  12.875  37.257   5.290
87959W        W60274  32.188   0.802   1.717
87960W        W60275  22.192  14.138  12.145
87961W        W60276  16.277   3.724   3.151
87962W        W60277  23.190  23.219  12.417
87963W        W60278  40.470  44.764   4.671
87964W        W60279  30.747  33.181   4.258
87965W        W60280  10.465   8.199  13.921
87966W        W60281  22.192   9.914  12.743
87967W        W60282  20.105  43.480  13.957
87968W        W60283  17.172  23.955   1.235
87969W        W60284  15.698  10.136   3.988
87970W        W60285   5.941  18.599   2.779
87971W        W60286  32.285   4.903   2.464
87972W        W60287  43.059  31.434  12.064
87973W        W60288  13.897   0.816  13.524
87974W        W60289  11.777  33.151   4.624
87975W        W60290  39.821  33.560  13.513
87976W        W60291  13.810   3.023   1.758
87977W        W60292  33.234  36.656   1.203
87978W        W60293   6.643  17.311  10.660
87979W        W60294  29.446  11.160  11.963
87980W        W60295  36.533  32.988   3.453
87981W        W60296  38.938  28.159   2.518
87982W        W60297  11.739  20.269  12.280
87983W        W60298   3.497  27.775   0.567
87984W        W60299   3.226  10.781   0.413
87985W        W60300  15.151  21.957  14.544
87986W        W60301  22.943   3.990  10.848
87987W        W60302  38.426  23.728  12.420
87988W        W60303  30.045  38.825  12.529
87989W        W60304  40.166  18.235  13.383
87990W        W60305   4.203  26.434  14.316
87991W        W60306  26.486   0.774   5.259
87992W        W60307  42.066  39.959   1.239
87993W        W60308  33.794  44.378  12.814
87994W        W60309  35.240  31.560   3.951
87995W        W60310  41.950  33.454  10.688
87996W        W60311  31.374   4.225   1.130
87997W        W60312  34.801  43.806   1.986
87998W        W60313   6.316  38.218  11.311
87999W        W60314  38.290  38.222  11.413
88000W        W60315  14.665  15.857  12.585
88001W        W60316  11.135  33.694   4.219
88002W        W60317   7.665   5.848   0.871
88003W        W60318   6.386  39.492  12.569
88004W        W60319  19.712  10.659   4.678
88005W        W60320  31.160   2.900   2.183
88006W        W60321  33.481   5.132  13.115
88007W        W60322   8.841  10.754  14.919
88008W        W60323   8.440   0.738   0.802
88009W        W60324  15.232   8.149   0.351
88010W        W60325  43.916  41.816   3.176
88011W        W60326  25.009  25.903  10.750
88012W        W60327  12.591   1.837  12.897
88013W        W60328  20.149  13.387   2.815
88014W        W60329  42.093  21.005  11.933
88015W        W60330   1.151  44.872  12.596
88016W        W60331  30.582   1.762  10.864
88017W        W60332  11.127   2.671   2.284
88018W        W60333  37.175  37.332   4.047
88019W        W60334  12.719  14.216  12.868
88020W        W60335   3.706  11.033   4.898
88021W        W60336   7.607  19.794   4.322
88022W        W60337  42.260  25.988  11.910
88023W        W60338   1.546  31.904  12.659
88024W        W60339  43.999   5.659   2.734
88025W        W60340   5.171   4.924  10.653
88026W        W60341  41.733  13.361   3.145
88027W        W60342  11.791  32.454   2.527
88028W        W60343  41.048  10.738   3.682
88029W        W60344  16.555  43.319   3.850
88030W        W60345   5.265  33.348  13.878
88031W        W60346   5.857  31.840   0.310
88032W        W60347  24.749  12.009  13.690
88033W        W60348  43.859  32.644   2.333
88034W        W60349   5.599  39.150   1.066
88035W        W60350  32.636  11.737  10.324
88036W        W60351  42.631  24.839  12.654
88037W        W60352  38.545  15.794   3.893
88038W        W60353  22.066   5.834   3.695
88039W        W60354  30.545  30.392   0.203
88040W        W60355  35.110  31.662  12.006
88041W        W60356   8.234  42.697  11.164
88042W        W60357   4.692  33.282   1.690
88043W        W60358   1.918  32.472   0.970
88044W        W60359  34.549  32.194   3.081
88045W        W60360  14.138  39.553   3.182
88046W        W60361   1.019  15.711  12.066
88047W        W60362  27.575  27.560  11.658
88048W        W60363  33.156  11.881   0.677
88049W        W60364  14.631  35.861  12.404
88050W        W60365  30.965  20.553   0.015
88051W        W60366  29.553  28.852   5.102
88052W        W60367   1.788  39.946   2.523
88053W        W60368  18.363  32.216  13.282
88054W        W60369  38.459  29.503  11.109
88055W        W60370   5.627  31.961  10.168
88056W        W60371  13.273  28.476  13.806
88057W        W60372   4.338  21.693   3.155
88058W        W60373   5.382  37.779   2.453
88059W        W60374  32.073  23.184  13.352
88060W        W60375   6.375  42.933   4.820
88061W        W60376  40.063  21.802   1.257
88062W        W60377  20.462   9.289   9.685
88063W        W60378  24.931   1.232  12.894
88064W        W60379  12.121  11.194   1.963
88065W        W60380  29.659  41.951   1.709
88066W        W60381  11.877  26.401   4.576
88067W        W60382  43.984  37.865   2.395
88068W        W60383  39.910   1.057   4.121
88069W        W60384   5.673  34.996  14.918
88070W        W60385  34.402  44.894  14.047
88071W        W60386  27.292  30.997   4.556
88072W        W60387  23.071  36.087  13.959
88073W        W60388  27.788  21.057   1.326
88074W        W60389   4.899  15.787   4.311
88075W        W60390  22.146  32.575  12.534
88076W        W60391  42.947  11.779  14.014
88077W        W60392  25.281  24.594   1.778
88078W        W60393  40.958  10.751   2.804
88079W        W60394  13.665  17.751   2.261
88080W        W60395   3.926   3.433  11.555
88081W        W60396  18.959   3.758   3.244
88082W        W60397   5.387  30.183   3.985
88083W        W60398   0.566  35.101  14.516
88084W        W60399  14.801  35.790  10.510
88085W        W60400   7.951  33.322   1.304
88086W        W60401  43.101   3.236   3.231
88087W        W60402  27.023  37.526  10.678
88088W        W60403  21.058  14.636   1.781
88089W        W60404   8.340   4.489   0.641
88090W        W60405   1.044  14.355   3.252
88091W        W60406   9.234  34.513  10.045
88092W        W60407  23.123  39.830   3.622
88093W        W60408  22.043  29.059   3.781
88094W        W60409  25.917  24.480  11.624
88095W        W60410  13.669   1.299   2.305
88096W        W60411  17.347  29.418   3.271
88097W        W60412  29.659  43.995  12.048
88098W        W60413  13.792  36.177   1.194
88099W        W60414  36.525  13.549  13.498
88100W        W60415  35.548  32.370  12.403
88101W        W60416  22.723  19.523  13.769
88102W        W60417  20.472   6.892  12.560
88103W        W60418  30.950  39.610  11.101
88104W        W60419  40.545  11.642   3.694
88105W        W60420  34.959  34.882  13.873
88106W        W60421  40.350   8.221   2.826
88107W        W60422   0.975   3.403  12.891
88108W        W60423   8.559  43.706   1.470
88109W        W60424   0.333  20.009  11.972
88110W        W60425  34.439  36.892  11.558
88111W        W60426  28.619  28.126  12.590
88112W        W60427  14.707   1.310  11.927
88113W        W60428  11.082  16.755  14.174
88114W        W60429  44.032  20.045  14.151
88115W        W60430  14.267  27.465  12.151
88116W        W60431  27.011  24.567  13.994
88117W        W60432  44.139  12.098  13.213
88118W        W60433  18.235  41.776  12.474
88119W        W60434  32.544  29.660   3.681
88120W        W60435  37.066  25.862   4.443
88121W        W60436  25.595   2.199   4.208
88122W        W60437  24.599   7.530  14.934
88123W        W60438  19.455  38.878   4.950
88124W        W60439   5.930  14.653  11.980
88125W        W60440  34.726   0.196  11.083
88126W        W60441   3.340  22.681  11.905
88127W        W60442  32.140   8.209   1.910
88128W        W60443  38.883  42.079  13.048
88129W        W60444  26.612   1.942   0.212
88130W        W60445  16.751   7.918   2.379
88131W        W60446  36.442  11.853   1.840
88132W        W60447   9.136   0.224  14.327
88133W        W60448  25.698  16.926   1.619
88134W        W60449  29.661  31.367   4.641
88135W        W60450  24.413  17.202   3.851
88136W        W60451  23.901  19.974   2.632
88137W        W60452  28.579  20.409   2.445
88138W        W60453  31.264  33.686  11.036
88139W        W60454  40.583  16.723  11.144
88140W        W60455  31.671  38.258   1.476
88141W        W60456  19.001  20.278  10.263
88142W        W60457  12.570  15.117   4.241
88143W        W60458   9.763  30.393   2.969
88144W        W60459   6.302   5.507  12.432
88145W        W60460  31.053   1.245  13.555
88146W        W60461  38.297  12.445   0.107
88147W        W60462   7.129  29.687   1.835
88148W        W60463   3.508  31.262   1.844
88149W        W60464  40.443  14.320  12.809
88150W        W60465  44.518  14.228   4.096
88151W        W60466  20.988  26.978   1.287
88152W        W60467  12.685   3.387  12.681
88153W        W60468  13.755   9.831  14.853
88154W        W60469   0.714  31.402  14.286
88155W        W60470  44.210  19.626  13.883
88156W        W60471   3.602  22.259  12.926
88157W        W60472   7.802  35.630  13.167
88158W        W60473  29.113  21.730  13.292
88159W        W60474  36.404  11.190  14.000
88160W        W60475  35.877   9.168  11.214
88161W        W60476  10.042  26.003  11.968
88162W        W60477  38.070  14.695  13.907
88163W        W60478  43.483  28.006  11.224
88164W        W60479  25.391  34.506   4.081
88165W        W60480   8.170   5.749  13.406
88166W        W60481   6.731  32.097   3.240
88167W        W60482  24.688  32.861   2.776
88168W        W60483  12.143  28.038  11.406
88169W        W60484  37.085  11.105   2.798
88170W        W60485  29.387   5.908   5.071
88171W        W60486  31.839  30.088  11.957
88172W        W60487   4.011   0.782  11.172
88173W        W60488  15.196   5.769   4.642
88174W        W60489  30.181  26.132   0.177
88175W        W60490  12.727  35.864  11.969
88176W        W60491  32.878  21.061  11.573
88177W        W60492  17.332  12.107   3.995
88178W        W60493  41.366   0.701  11.191
88179W        W60494   7.866  16.327   4.235
88180W        W60495   9.816  24.560   1.301
88181W        W60496  31.959  31.506  12.164
88182W        W60497   1.284   4.828  10.708
88183W        W60498  39.543  29.638  14.858
88184W        W60499  12.654  14.177   1.588
88185W        W60500  30.226  23.021   4.755
88186W        W60501  17.580  29.527   1.792
88187W        W60502  26.779  25.528   4.184
88188W        W60503   4.641  10.672   4.562
88189W        W60504   7.354  27.026  11.294
88190W        W60505  19.800  43.382   1.491
88191W        W60506  31.980  27.066  13.182
88192W        W60507  10.333  17.609   3.695
88193W        W60508  36.341  31.925   1.285
88194W        W60509   8.279  42.181  13.792
88195W        W60510  38.512  25.009   4.938
88196W        W60511  13.785  22.110   4.494
88197W        W60512  37.418  37.356  10.635
88198W        W60513  42.768  13.747  13.512
88199W        W60514  23.558  18.650   9.774
88200W        W60515  17.252  14.412   2.343
88201W        W60516  10.753  37.546  11.650
88202W        W60517  27.205   1.847  10.583
88203W        W60518  24.439  38.741  14.798
88204W        W60519  11.251  15.123   3.146
88205W        W60520  41.775  30.101   3.197
88206W        W60521  12.377  24.956   3.694
88207W        W60522  34.514  25.236   4.400
88208W        W60523   1.421  19.778   2.412
88209W        W60524  38.463  34.373   0.864
88210W        W60525   1.200  33.164   1.957
88211W        W60526  36.084  22.785   1.841
88212W        W60527  10.799  32.376  14.931
88213W        W60528   0.351   7.702   1.876
88214W        W60529   2.019   3.489   3.251
88215W        W60530  24.549  11.477   3.637
88216W        W60531  35.597  17.014  11.134
88217W        W60532  37.873  30.480  13.821
88218W        W60533  24.143  36.031  12.096
88219W        W60534  16.154  10.158   2.303
88220W        W60535   7.260  16.274   3.060
88221W        W60536  29.583  29.921   1.293
88222W        W60537   9.688   0.592   1.670
88223W        W60538  21.664  38.248   4.318
88224W        W60539  14.097   4.320   2.251
88225W        W60540  39.156   4.924  13.524
88226W        W60541  18.148  21.477   0.324
88227W        W60542  40.889  33.935  11.132
88228W        W60543  35.671  39.434   1.166
88229W        W60544  29.529  40.068  10.501
88230W        W60545  38.396  22.677   0.359
88231W        W60546  12.772  10.196   2.725
88232W        W60547  40.893   0.836   0.711
88233W        W60548  22.122  31.161  10.830
88234W        W60549  30.102  15.216   4.157
88235W        W60550   4.847  42.010   1.507
88236W        W60551  27.576  18.704   3.261
88237W        W60552   9.293  33.529   0.909
88238W        W60553  14.160   0.729  14.010
88239W        W60554  30.012  38.334   1.331
88240W        W60555  32.548  36.999  10.676
88241W        W60556  12.620  36.667   0.631
88242W        W60557  35.160  15.781   2.258
88243W        W60558  44.366  35.133  11.175
88244W        W60559   8.329  41.072  14.809
88245W        W60560  14.913   9.676  14.422
88246W        W60561  19.841  33.692   1.769
88247W        W60562  43.280   2.682   3.828
88248W        W60563  33.493   9.624  14.947
88249W        W60564  22.818  38.105   2.423
88250W        W60565  25.553  39.272   1.112
88251W        W60566  41.417  34.577  12.062
88252W        W60567  22.240  29.710   2.973
88253W        W60568   8.304  12.583  11.072
88254W        W60569  33.501  23.029   0.922
88255W        W60570  32.201  28.048   4.125
88256W        W60571   0.498  31.366   2.660
88257W        W60572   8.327  41.342   4.570
88258W        W60573  28.424  25.595  14.247
88259W        W60574  17.104  31.878   2.597
88260W        W60575   6.907  42.880  12.429
88261W        W60576  26.158  38.730  14.101
88262W        W60577  14.297  38.791   0.704
88263W        W60578   1.835   7.153   1.737
88264W        W60579  28.026  17.205   4.511
88265W        W60580  35.612  43.445   1.822
88266W        W60581  44.650  39.538   2.418
88267W        W60582  20.125   4.421  10.679
88268W        W60583  18.037  35.492   1.520
88269W        W60584  25.247   6.035  13.477
88270W        W60585   6.900  41.437  12.372
88271W        W60586  10.802  21.856  12.870
88272W        W60587  24.654  39.760  14.759
88273W        W60588  27.099  26.170   4.329
88274W        W60589  26.101  28.974  10.752
88275W        W60590   8.220  35.536  10.630
88276W        W60591  41.930  23.440   0.727
88277W        W60592  13.008   3.761   4.123
88278W        W60593  23.598  25.570   0.238
88279W        W60594  42.653  28.197   2.840
88280W        W60595  16.207   1.159   4.853
88281W        W60596  36.796  17.113   1.458
88282W        W60597  42.367  35.962   2.288
88283W        W60598  19.431  40.473  12.641
88284W        W60599  31.624  37.364  12.437
88285W        W60600  33.082  24.441   1.358
88286W        W60601  34.892  21.643   0.369
88287W        W60602  16.799  26.223  10.491
88288W        W60603  22.651  18.253   4.334
88289W        W60604  37.841  33.723   0.999
88290W        W60605  12.196  29.007  11.422
88291W        W60606  18.332  22.239  11.040
88292W        W60607   9.861   1.914  13.407
88293W        W60608   5.385  31.365  12.905
88294W        W60609  11.824  13.651   1.863
88295W        W60610  20.099  28.249   2.147
88296W        W60611  30.026   4.816  14.736
88297W        W60612  13.622  22.455  10.716
88298W        W60613  23.244  18.214   0.833
88299W        W60614  26.996  37.283   3.561
88300W        W60615   5.980  39.787  12.401
88301W        W60616  43.801  35.360   3.042
88302W        W60617  38.070   7.564   4.878
88303W        W60618   2.566  15.176  14.558
88304W        W60619   1.513   1.524   0.846
88305W        W60620  16.785  12.234  13.339
88306W        W60621  10.396  28.120   1.825
88307W        W60622   6.229  10.067  14.338
88308W        W60623  10.212   6.377  11.557
88309W        W60624   9.380   2.315   4.595
88310W        W60625  42.834  18.704   1.649
88311W        W60626  11.443  42.813  14.020
88312W        W60627  17.809   7.664  11.058
88313W        W60628  24.863   0.498   2.802
88314W        W60629   0.716  12.110  13.476
88315W        W60630  37.906   2.196  12.091
88316W        W60631  26.431  20.056   0.243
88317W        W60632  32.360  35.777  11.127
88318W        W60633  32.536  14.467   0.430
88319W        W60634   7.089  14.142  14.480
88320W        W60635  24.441  42.001   3.404
88321W        W60636  42.787  40.306   0.951
88322W        W60637  24.587  35.722  14.709
88323W        W60638  25.578  16.633  11.574
88324W        W60639   1.149   4.947   4.198
88325W        W60640  30.360   0.211   3.683
88326W        W60641  18.983  36.632  11.024
88327W        W60642  32.822  42.658  12.607
88328W        W60643  21.478  35.611   0.291
88329W        W60644  28.453  23.647  13.024
88330W        W60645   5.697  29.663  11.699
88331W        W60646  44.718  26.385   0.803
88332W        W60647  25.982  24.674  10.738
88333W        W60648  16.315   2.046  11.531
88334W        W60649   2.229  30.978   1.722
88335W        W60650   7.302   0.117   4.259
88336W        W60651  15.097   0.906   0.805
88337W        W60652  31.676  39.479  14.795
88338W        W60653  10.413  30.719  10.676
88339W        W60654   4.526  11.009  12.845
88340W        W60655  22.717  36.806  12.847
88341W        W60656  26.796  35.145  14.551
88342W        W60657  41.816  19.963  11.074
88343W        W60658  23.141  22.746  10.147
88344W        W60659  31.871  41.906   0.875
88345W        W60660  11.908  33.916   0.394
88346W        W60661   8.487   6.808  12.500
88347W        W60662  38.100  38.741   2.345
88348W        W60663  44.150  23.335   2.902
88349W        W60664  37.053  39.112   1.424
88350W        W60665  14.498  21.288  11.421
88351W        W60666  18.504  38.488   2.415
88352W        W60667  28.094  39.138  12.127
88353W        W60668   7.428   0.667  12.035
88354W        W60669  14.411  42.745  12.294
88355W        W60670  15.777  23.653   3.285
88356W        W60671  41.118  14.605   1.130
88357W        W60672  13.522   1.761  11.709
88358W        W60673  33.343  18.349   3.330
88359W        W60674  27.114  26.878  13.427
88360W        W60675  28.694   4.349   0.746
88361W        W60676   9.885  19.172  14.520
88362W        W60677  29.017  38.790   2.306
88363W        W60678   5.900  24.322  13.990
88364W        W60679   2.331  31.261  14.460
88365W        W60680   3.406  39.314  11.534
88366W        W60681  19.247   8.161  10.620
88367W        W60682  37.715  13.796   1.267
88368W        W60683  15.573  10.657   2.733
88369W        W60684  35.235   8.620   4.220
88370W        W60685   7.720  16.609   1.684
88371W        W60686   9.103  16.140   0.254
88372W        W60687  27.046  43.713   3.578
88373W        W60688  37.029   1.811  11.531
88374W        W60689   9.953   0.711  11.330
88375W        W60690  19.658  39.167   0.133
88376W        W60691  34.707  22.054   3.932
88377W        W60692  36.417  20.471  10.635
88378W        W60693  42.462  34.345   0.730
88379W        W60694  21.048  22.053  13.490
88380W        W60695  37.022  29.651  13.466
88381W        W60696  12.218  38.150  12.491
88382W        W60697  10.712  13.351  12.877
88383W        W60698  21.512   0.702   1.500
88384W        W60699   2.264  36.356   1.869
88385W        W60700  26.438  11.215   3.846
88386W        W60701   8.940  31.129   5.082
88387W        W60702  19.472  30.244  13.540
88388W        W60703  18.867   8.690   5.046
88389W        W60704  26.130  14.177   1.225
88390W        W60705  27.128   8.985   0.052
88391W        W60706  37.393  24.153   4.062
88392W        W60707  20.043  20.997   4.176
88393W        W60708  26.205  38.918   3.233
88394W        W60709  28.547   2.179  11.475
88395W        W60710  26.826   4.208   9.664
88396W        W60711  35.499  12.203   3.808
88397W        W60712  30.923  40.918   3.827
88398W        W60713   9.916   2.963  13.071
88399W        W60714  33.473  31.416  13.462
88400W        W60715  36.505   7.283   5.270
88401W        W60716  43.028   8.288  11.488
88402W        W60717  44.192  41.087   2.869
88403W        W60718  21.601  19.441   2.101
88404W        W60719  26.227  29.255   4.116
88405W        W60720  43.551  20.945  12.204
88406W        W60721  27.810  20.919   0.207
88407W        W60722  32.937  39.095   1.326
88408W        W60723  18.313  43.437  10.784
88409W        W60724  22.157  39.901   3.718
88410W        W60725  20.895   6.780   2.652
88411W        W60726  23.518   3.854   1.544
88412W        W60727  22.001  41.477  14.819
88413W        W60728   6.599  20.525   1.516
88414W        W60729   4.391  42.900   2.374
88415W        W60730  38.937  41.006  13.271
88416W        W60731   5.307  24.721   1.989
88417W        W60732  29.949  12.173   0.452
88418W        W60733  32.192   1.934   2.671
88419W        W60734  29.545  40.746  12.388
88420W        W60735  10.570  40.799  12.955
88421W        W60736   7.246   6.138   4.259
88422W        W60737  10.292  20.983  10.537
88423W        W60738  16.170  25.594   4.554
88424W        W60739  35.835  36.897   2.975
88425W        W60740  12.763  42.456   0.175
88426W        W60741  11.590  30.881   3.346
88427W        W60742  36.526   0.371  13.840
88428W        W60743  13.839   7.702  13.840
88429W        W60744  17.571  21.743   4.984
88430W        W60745  32.405   7.446   4.606
88431W        W60746   4.968  22.580  11.118
88432W        W60747  35.349  43.422  10.754
88433W        W60748   4.824  19.515  11.471
88434W        W60749  31.934  22.720  12.484
88435W        W60750  15.765  21.562   0.428
88436W        W60751  38.925  21.118   9.872
88437W        W60752  32.196  26.242   0.893
88438W        W60753  27.050  38.759   1.095
88439W        W60754  39.177   0.825  11.722
88440W        W60755  19.269   5.811  13.708
88441W        W60756   3.695  19.998   1.174
88442W        W60757  18.772  26.555   1.695
88443W        W60758  16.169  25.645   2.823
88444W        W60759   5.737  13.781  14.280
88445W        W60760  23.934  21.469  14.741
88446W        W60761  39.029  18.507   4.093
88447W        W60762  19.079  37.410   0.282
88448W        W60763  43.828  33.354  10.588
88449W        W60764   2.917  15.871   2.234
88450W        W60765  14.279  36.066  11.136
88451W        W60766  40.855  11.493   2.059
88452W        W60767  41.840  29.473  11.516
88453W        W60768   7.995  41.569   0.774
88454W        W60769  39.396  28.580   1.846
88455W        W60770   1.871  35.336  12.202
88456W        W60771  27.984  16.758   1.285
88457W        W60772  11.197   4.460  12.578
88458W        W60773   6.279  19.054   2.158
88459W        W60774  26.218  14.134  12.040
88460W        W60775   6.816  21.575  12.607
88461W        W60776   9.130  14.755  12.030
88462W        W60777   0.649  26.512   1.821
88463W        W60778   2.459  39.366   0.041
88464W        W60779  19.148  39.865   3.740
88465W        W60780  33.635  40.853   1.356
88466W        W60781   5.908  14.619  14.767
88467W        W60782  12.314  26.068  10.582
88468W        W60783  13.059  38.862   0.771
88469W        W60784  26.515  18.826  13.942
88470W        W60785  17.967  21.445   4.810
88471W        W60786   5.248  17.379  12.494
88472W        W60787  24.539  18.889  13.766
88473W        W60788   1.504  41.271   4.451
88474W        W60789  31.591  10.425  11.569
88475W        W60790  22.737   8.824   2.433
88476W        W60791  39.330  33.354  12.054
88477W        W60792  35.915   3.985   3.358
88478W        W60793  27.808  10.285   2.861
88479W        W60794   8.466  15.833  12.092
88480W        W60795  32.111  39.815  14.663
88481W        W60796  18.097  33.378  11.106
88482W        W60797  16.579  11.780  14.957
88483W        W60798  30.459  40.387   4.551
88484W        W60799   7.351   7.411  13.563
88485W        W60800  24.721   0.268   0.187
88486W        W60801  22.498  22.280   2.399
88487W        W60802   6.466  11.394  10.825
88488W        W60803  35.619   7.778   0.495
88489W        W60804  13.902  31.404  10.693
88490W        W60805  24.708   7.354   3.579
88491W        W60806  29.189  41.597  10.495
88492W        W60807   8.278   9.232   4.432
88493W        W60808  10.115  44.391   3.258
88494W        W60809  23.701  15.897   4.173
88495W        W60810  27.195  13.136   3.374
88496W        W60811  41.346  34.402   1.860
88497W        W60812  43.421   5.209   4.140
88498W        W60813  14.079  26.199  13.391
88499W        W60814  16.061  42.229   1.736
88500W        W60815  39.241   2.480  13.354
88501W        W60816  29.012  41.473  12.369
88502W        W60817  39.340  39.012   4.229
88503W        W60818   9.377   5.319   3.203
88504W        W60819   8.711   2.736  14.997
88505W        W60820  31.596  43.929  13.018
88506W        W60821  22.706  44.309  13.929
88507W        W60822  42.747  35.803  13.977
88508W        W60823  16.089   9.245   3.771
88509W        W60824  32.266  35.440   1.866
88510W        W60825  26.960  28.562   1.201
88511W        W60826  27.751  42.823  14.286
88512W        W60827  15.270  43.818  12.789
88513W        W60828  23.747  31.505  12.109
88514W        W60829  41.058  34.908   0.456
88515W        W60830  22.981  13.637  12.134
88516W        W60831  26.248  34.297   4.506
88517W        W60832  20.590  22.646  11.696
88518W        W60833  43.572  18.273  12.096
88519W        W60834  15.034  16.278   1.323
88520W        W60835  32.001   9.301   2.738
88521W        W60836  39.390   3.281  12.392
88522W        W60837  28.196   5.776   3.352
88523W        W60838   5.251  29.723   2.875
88524W        W60839   8.797  24.070  13.484
88525W        W60840   8.982  15.765  10.669
88526W        W60841  16.335   9.588  12.997
88527W        W60842  22.520   3.395  13.546
88528W        W60843  26.087  36.998  13.951
88529W        W60844  37.876  14.651  11.863
88530W        W60845  30.102  43.837   1.910
88531W        W60846   8.798   0.009  12.409
88532W        W60847  38.343   4.812   9.955
88533W        W60848  33.050  21.530  13.065
88534W        W60849  34.033  14.701  12.821
88535W        W60850  31.335  34.623   0.292
88536W        W60851  41.392  26.327  11.718
88537W        W60852  29.515  37.068   0.181
88538W        W60853   5.254  39.095   3.649
88539W        W60854  26.617  22.146  13.790
88540W        W60855   4.953   4.023  10.735
88541W        W60856  11.727   9.885  12.902
88542W        W60857  20.068  36.460   4.711
88543W        W60858  20.308  20.592   1.639
88544W        W60859  39.614   2.719   4.151
88545W        W60860  41.451   6.913  10.668
88546W        W60861   2.189  19.979   1.835
88547W        W60862  16.081   8.285   0.003
88548W        W60863  26.727   8.448   1.405
88549W        W60864  16.649  32.110  12.134
88550W        W60865  24.629  18.543   1.732
88551W        W60866  13.612  25.661   4.737
88552W        W60867  10.355  29.949   3.619
88553W        W60868  27.274  42.886   2.258
88554W        W60869  18.222  32.596   3.383
88555W        W60870   9.654   3.793   4.529
88556W        W60871  38.464   8.161   1.394
88557W        W60872   7.345  18.523   4.089
88558W        W60873   9.502  20.855  14.893
88559W        W60874  22.191  26.899  10.511
88560W        W60875  14.800  28.609   1.665
88561W        W60876  18.761   2.375   1.223
88562W        W60877  43.991  11.195   2.859
88563W        W60878  26.725  43.968   4.501
88564W        W60879   7.387  25.017  10.767
88565W        W60880  40.411  14.184   1.222
88566W        W60881   2.845  33.511  12.650
88567W        W60882  19.781  29.027  14.807
88568W        W60883  37.812  27.188  13.460
88569W        W60884   1.258   1.941  11.989
88570W        W60885  14.866  41.870   2.347
88571W        W60886   0.336  10.386  11.078
88572W        W60887  11.860  31.184   1.915
88573W        W60888  28.137   1.567   1.453
88574W        W60889  40.518   8.477  11.675
88575W        W60890  26.475  22.177   4.323
88576W        W60891  22.269  43.277  11.163
88577W        W60892  16.566  29.648   3.598
88578W        W60893   6.731   1.405  14.413
88579W        W60894   2.847   2.414   3.126
88580W        W60895  25.174  11.695   5.394
88581W        W60896  12.173  17.621   2.822
88582W        W60897  40.740  42.852   2.800
88583W        W60898  30.988  26.309   0.511
88584W        W60899  19.680  42.144   3.403
88585W        W60900  19.624  41.698  11.883
88586W        W60901  23.261  31.163  13.677
88587W        W60902  10.721  18.504   0.945
88588W        W60903  16.468  26.988   1.366
88589W        W60904  29.908   0.394  10.765
88590W        W60905  25.192  15.987   1.250
88591W        W60906  21.685  11.415   0.289
88592W        W60907  23.158  10.430  10.949
88593W        W60908  24.279  19.276  10.639
88594W        W60909  37.107  33.156  12.041
88595W        W60910  25.059  35.850  14.561
88596W        W60911  39.605   3.877   3.655
88597W        W60912  11.287   8.220   2.178
88598W        W60913  42.838  35.720  14.746
88599W        W60914  11.762   5.193  13.465
88600W        W60915  36.611  36.195   4.530
88601W        W60916  34.046  12.294   0.474
88602W        W60917  20.775  39.534   3.620
88603W        W60918  13.499  28.976  10.753
88604W        W60919  28.118  19.194  13.476
88605W        W60920  29.613  17.687  14.814
88606W        W60921  18.769  33.309  14.303
88607W        W60922  11.130  35.632   1.691
88608W        W60923  16.297  23.924  14.169
88609W        W60924  32.812  38.896   4.198
88610W        W60925  23.642  41.299   3.868
88611W        W60926   7.604   7.332   3.153
88612W        W60927  44.882  15.776   2.864
88613W        W60928  23.571  41.840  12.506
88614W        W60929  39.389  28.060   0.393
88615W        W60930  43.742  41.274   0.869
88616W        W60931  32.506  30.883  12.563
88617W        W60932  19.165  15.676  11.127
88618W        W60933   0.554  43.897  14.748
88619W        W60934  20.045  21.824   2.881
88620W        W60935   9.660  12.206  12.706
88621W        W60936   6.662  44.295   0.834
88622W        W60937  24.745  31.043  11.515
88623W        W60938  14.751  22.063   4.205
88624W        W60939  15.680  34.371   4.766
88625W        W60940  43.450  37.944   4.585
88626W        W60941  19.692  14.043  14.339
88627W        W60942   1.829   4.691   2.777
88628W        W60943   9.844  16.523   3.792
88629W        W60944  11.400  25.626   2.336
88630W        W60945  24.937  21.015   2.287
88631W        W60946  26.823  23.051   1.956
88632W        W60947   7.187  42.851   1.659
88633W        W60948  41.259  43.501  11.385
88634W        W60949  34.579  25.966   2.419
88635W        W60950   4.239   8.767   1.820
88636W        W60951  14.677  39.526  14.009
88637W        W60952   0.956  30.578   5.098
88638W        W60953  24.638  42.534   0.007
88639W        W60954  36.648  17.975  12.845
88640W        W60955  38.399  18.022  11.247
88641W        W60956  13.049  16.121   4.542
88642W        W60957   9.493  42.822  13.467
88643W        W60958  36.500  36.769  12.957
88644W        W60959  35.066   0.452   3.235
88645W        W60960   4.388   7.157   0.438
88646W        W60961  33.027  11.404  12.910
88647W        W60962  39.856  22.299  12.433
88648W        W60963  40.803  42.541  13.348
88649W        W60964  19.966  26.099   2.898
88650W        W60965   8.774  38.011  11.157
88651W        W60966   9.619  37.512  12.250
88652W        W60967  37.891  39.983  14.949
88653W        W60968  39.846  15.550  12.919
88654W        W60969  28.322  30.645  13.329
88655W        W60970  11.985   8.217   4.361
88656W        W60971  42.971  44.914  13.864
88657W        W60972  39.106  36.660  13.920
88658W        W60973  37.501  15.360   0.878
88659W        W60974  13.730   6.240  13.447
88660W        W60975  35.117  34.986  14.769
88661W        W60976  39.123  19.191  11.677
88662W        W60977  41.884  11.144  12.267
88663W        W60978   5.336  40.883   2.751
88664W        W60979  12.468  11.778   4.816
88665W        W60980  36.800   3.690   3.245
88666W        W60981  43.781  44.598   2.824
88667W        W60982  37.092  21.320   3.329
88668W        W60983  27.961   3.299  14.908
88669W        W60984  30.836  29.471  11.532
88670W        W60985  21.611   3.827   0.512
88671W        W60986  40.400  34.027  10.969
88672W        W60987  23.509  21.376   1.311
88673W        W60988   7.135  44.284  12.138
88674W        W60989  43.837   5.190  11.881
88675W        W60990  18.048  32.583   1.140
88676W        W60991  18.373  24.529  13.047
88677W        W60992  19.691  10.902   0.907
88678W        W60993  40.495   2.705  11.499
88679W        W60994  31.589   4.200   1.613
88680W        W60995  36.075  13.210  12.475
88681W        W60996  17.272  44.008   4.751
88682W        W60997  27.189  18.350  12.949
88683W        W60998  40.456  10.655   1.541
88684W        W60999  38.751   5.870   2.366
88685W        W61000  42.801  18.230   3.270
88686W        W61001  14.046  10.928   0.856
88687W        W61002  12.658  37.315   2.909
88688W        W61003  19.925  34.335   3.684
88689W        W61004  33.593  41.511  12.535
88690W        W61005  44.331  15.861  11.671
88691W        W61006  20.773  34.598   4.127
88692W        W61007  42.565   5.172   1.836
88693W        W61008  39.552  20.169  12.912
88694W        W61009  27.445  27.859  13.012
88695W        W61010  18.034  36.826  11.400
88696W        W61011  12.272  24.148   2.810
88697W        W61012  44.171  28.256   5.110
88698W        W61013   6.679  31.322   4.863
88699W        W61014   0.908   4.787  14.933
88700W        W61015  22.502  24.640  11.231
88701W        W61016   1.762   9.748   1.684
88702W        W61017  13.838  24.758  12.014
88703W        W61018   1.406  10.644   1.651
88704W        W61019  22.716  17.727   0.791
88705W        W61020  19.287  40.395   0.389
88706W        W61021  42.004  11.677   1.236
88707W        W61022  13.749   2.710  12.001
88708W        W61023  40.731   5.682  14.559
88709W        W61024   2.281   1.409  13.543
88710W        W61025  10.333  30.201   4.625
88711W        W61026  38.507  10.119   0.383
88712W        W61027  37.915  28.255   1.964
88713W        W61028  36.359   4.175  11.115
88714W        W61029  41.985  10.708   0.771
88715W        W61030  32.157  30.967  13.434
88716W        W61031  22.955  22.503  14.960
88717W        W61032  10.352  22.623  12.185
88718W        W61033   4.202  21.169  11.697
88719W        W61034  37.357  20.239  10.902
88720W        W61035   1.464   4.651   4.521
88721W        W61036  29.195  13.443   1.299
88722W        W61037   1.539   8.633   0.458
88723W        W61038  29.885  26.770   2.300
88724W        W61039  36.610  34.895  12.883
88725W        W61040   8.367   1.773  11.442
88726W        W61041  16.914  44.447  12.876
88727W        W61042  33.360  31.397   3.917
88728W        W61043   4.200  14.317   2.364
88729W        W61044  13.687  38.316  12.341
88730W        W61045  19.384  43.767   0.690
88731W        W61046  23.264  34.566  12.015
88732W        W61047  19.683  34.085  13.810
88733W        W61048  18.162  22.288   4.976
88734W        W61049  23.490  25.163  10.676
88735W        W61050  27.697  19.557   3.157
88736W        W61051  13.154  37.571  14.021
88737W        W61052  42.415   0.869   4.503
88738W        W61053   2.853  19.282   0.855
88739W        W61054  43.106  11.368  12.765
88740W        W61055   6.778   9.263   0.150
88741W        W61056  20.528   2.581  14.314
88742W        W61057  20.726  38.493   2.781
88743W        W61058   2.377  39.569   0.918
88744W        W61059  41.441   3.268  11.677
88745W        W61060  29.629  14.355   3.186
88746W        W61061  15.292   0.359   2.147
88747W        W61062  22.652   3.387   1.831
88748W        W61063  42.239   1.750   4.133
88749W        W61064  16.385   0.352   0.719
88750W        W61065  42.418   6.424   4.166
88751W        W61066  19.553  33.599   3.226
88752W        W61067   9.462  11.760  11.980
88753W        W61068  12.382  31.672  14.415
88754W        W61069  28.118  26.737  13.200
88755W        W61070  41.793  37.036  13.737
88756W        W61071  44.403  27.196   0.171
88757W        W61072  12.258  33.915  14.850
88758W        W61073  25.315  16.576  14.451
88759W        W61074  37.470  10.934  12.572
88760W        W61075  22.695   1.442  14.419
88761W        W61076  18.060  22.807  14.224
88762W        W61077  21.681   9.559  11.021
88763W        W61078  33.576  25.549   3.690
88764W        W61079   3.068  11.490  13.957
88765W        W61080  22.134   5.911  11.234
88766W        W61081  13.829   2.819   3.723
88767W        W61082  38.732  36.556   4.380
88768W        W61083   5.389   2.413   3.278
88769W        W61084  19.071  29.074  12.900
88770W        W61085  42.404  41.090   2.912
88771W        W61086  34.168   7.368   3.355
88772W        W61087  21.671  14.818   3.838
88773W        W61088  15.739  29.444   4.194
88774W        W61089  34.547  24.147   1.891
88775W        W61090  27.019  16.167   2.148
88776W        W61091   3.202  37.455  10.964
88777W        W61092  20.769  44.231  13.128
88778W        W61093  27.041  29.057   2.936
88779W        W61094   8.112  38.827  10.277
88780W        W61095  39.012  42.570  12.692
88781W        W61096   5.493  19.074  14.444
88782W        W61097  16.210  36.603  14.079
88783W        W61098  39.226  40.853  13.695
88784W        W61099  44.448   6.688   1.945
88785W        W61100   4.438  22.763   0.476
88786W        W61101   5.942  42.469  11.205
88787W        W61102  13.993  32.887   2.224
88788W        W61103  12.156   1.760   4.853
88789W        W61104  13.187  26.432   0.479
88790W        W61105  14.759  38.444  12.560
88791W        W61106   1.386  28.681  11.633
88792W        W61107  36.975  24.794  10.193
88793W        W61108  36.792  38.947  14.467
88794W        W61109  28.197  31.921  12.947
88795W        W61110  21.650  10.293   1.874
88796W        W61111  27.485  29.864   0.812
88797W        W61112   6.754  18.268  10.791
88798W        W61113  32.625  21.659   4.285
88799W        W61114  34.140  38.403   4.167
88800W        W61115   9.562  34.090  10.634
88801W        W61116  30.570  30.645   4.224
88802W        W61117  10.759  16.877   4.537
88803W        W61118   8.962   5.828  14.521
88804W        W61119  12.376  25.648   2.621
88805W        W61120   0.958  12.855   1.436
88806W        W61121   9.376  10.160   0.298
88807W        W61122  21.706  21.699  10.902
88808W        W61123  18.052   9.651  12.966
88809W        W61124  12.683  39.655  11.602
88810W        W61125  40.465  38.093  10.674
88811W        W61126  35.196  24.775   4.323
88812W        W61127  32.805  33.895  11.102
88813W        W61128  36.182  16.570   1.369
88814W        W61129  38.693  26.121   2.143
88815W        W61130  19.790  17.056   4.127
88816W        W61131   4.095  30.409  13.019
88817W        W61132  16.695  38.795   9.640
88818W        W61133  18.100   3.421   1.289
88819W        W61134  16.681  43.248  14.892
88820W        W61135  44.948   4.570   3.186
88821W        W61136  31.368  30.123  13.418
88822W        W61137  41.272  14.721  12.447
88823W        W61138  34.178  20.326  12.443
88824W        W61139  34.047  23.189  12.046
88825W        W61140  22.466   9.733  14.371
88826W        W61141  17.909  13.553   2.816
88827W        W61142  26.613  32.233  10.695
88828W        W61143   9.201  40.877   1.919
88829W        W61144  40.615   5.198  14.042
88830W        W61145  39.258   1.080  12.153
88831W        W61146  11.867   1.779  10.628
88832W        W61147  30.075  15.178   0.668
88833W        W61148  39.827  15.725   4.179
88834W        W61149  43.456  24.026  10.840
88835W        W61150   6.929  23.593  12.519
88836W        W61151  34.499  12.164   0.723
88837W        W61152   5.727   2.188   2.946
88838W        W61153  26.191  23.260   2.745
88839W        W61154  24.228  42.957  12.016
88840W        W61155  29.486  22.268  12.592
88841W        W61156  37.365  37.838  13.346
88842W        W61157  14.019  39.167  13.023
88843W        W61158  32.060  44.393   0.271
88844W        W61159  43.465  24.458   3.127
88845W        W61160  26.089  35.099  12.385
88846W        W61161   8.915  20.078  11.085
88847W        W61162   5.779  19.207   5.010
88848W        W61163   3.846  39.817  10.661
88849W        W61164  29.378  41.375   4.787
88850W        W61165  16.697  35.860   3.125
88851W        W61166  16.207  43.007   3.380
88852W        W61167   0.801  28.437  12.955
88853W        W61168  36.675  35.080  14.944
88854W        W61169  22.661  24.762  11.693
88855W        W61170   0.161  34.973   2.037
88856W        W61171  26.613  11.190   2.851
88857W        W61172  29.027   6.658   4.743
88858W        W61173  20.796  22.599  10.665
88859W        W61174  15.874  36.523  11.943
88860W        W61175  43.090  20.184   4.557
88861W        W61176  15.835   2.715  14.412
88862W        W61177  26.889  42.781  11.120
88863W        W61178  32.570  22.614  11.117
88864W        W61179  26.973  34.400   9.864
88865W        W61180  14.783  10.191  14.496
88866W        W61181  24.537  40.435  13.489
88867W        W61182  32.432  15.807   3.305
88868W        W61183  13.191  16.346  14.439
88869W        W61184  20.747  43.061  12.929
88870W        W61185  33.753  24.771   4.597
88871W        W61186  26.229   5.397   0.054
88872W        W61187   5.628  11.692   2.984
88873W        W61188   8.249  31.374  11.990
88874W        W61189  10.334  33.426  10.788
88875W        W61190   2.284   6.249  10.628
88876W        W61191  44.259  33.641  10.533
88877W        W61192  25.862   1.903  10.008
88878W        W61193  32.460   9.283   2.174
88879W        W61194  15.678   6.869   4.149
88880W        W61195  36.850  19.505   3.601
88881W        W61196  43.032  17.603  11.048
88882W        W61197  37.801  41.458   0.458
88883W        W61198  14.197  36.118  13.124
88884W        W61199   3.030  24.570  12.102
88885W        W61200  30.189  27.810  14.300
88886W        W61201  33.897  36.538   4.954
88887W        W61202  23.469  11.766   1.928
88888W        W61203  23.135   5.183  10.838
88889W        W61204  44.718  39.997  13.265
88890W        W61205   2.810   0.149  13.334
88891W        W61206   4.823  20.595  14.749
88892W        W61207  41.583  33.676   2.367
88893W        W61208   5.173  35.068   4.688
88894W        W61209  27.071  29.605  14.320
88895W        W61210  38.409   5.141  11.166
88896W        W61211  39.341  21.900  11.698
88897W        W61212  15.601  26.619   4.042
88898W        W61213  33.780  41.388   3.181
88899W        W61214  32.210  12.541  13.609
88900W        W61215  44.724  10.402   3.757
88901W        W61216  39.011  23.763  14.888
88902W        W61217  38.522  35.583  14.298
88903W        W61218  29.032  43.147   0.286
88904W        W61219  28.086  18.773   2.910
88905W        W61220  14.216  37.285   4.735
88906W        W61221   6.980  38.868  12.700
88907W        W61222  16.524   0.327  11.889
88908W        W61223  22.685  14.571  14.401
88909W        W61224  31.390  16.540  14.917
88910W        W61225  21.590  13.908  11.866
88911W        W61226   1.027  39.974  14.037
88912W        W61227  39.475  19.191   3.200
88913W        W61228   0.721  19.150  14.072
88914W        W61229   2.007  29.078  13.472
88915W        W61230  21.034  36.814   0.870
88916W        W61231  41.980  13.598  12.266
88917W        W61232  29.535  27.638  11.399
88918W        W61233  31.191  15.322  10.549
88919W        W61234  11.059  12.278   1.001
88920W        W61235  27.657  14.747   0.311
88921W        W61236  28.087  35.379  11.361
88922W        W61237  22.724  39.654   2.809
88923W        W61238  24.429  19.933   4.908
88924W        W61239  17.272  24.473   4.395
88925W        W61240   3.752  42.507  12.869
88926W        W61241   3.998  34.105   4.348
88927W        W61242  25.277  20.467  13.847
88928W        W61243  44.420  22.772   1.994
88929W        W61244  12.098  41.932   1.346
88930W        W61245  41.069  39.420  12.037
88931W        W61246  42.714   7.883  13.329
88932W        W61247  13.949  23.016  12.887
88933W        W61248  16.373  20.538  10.566
88934W        W61249  31.510   1.729   2.685
88935W        W61250  38.887  24.981  12.434
88936W        W61251  37.702  26.422  12.788
88937W        W61252  20.962  38.856   1.667
88938W        W61253   9.441   6.792  13.466
88939W        W61254  37.844   3.814   4.234
88940W        W61255  44.601  28.477   0.866
88941W        W61256  41.625  32.955  14.534
88942W        W61257   7.207  34.266   2.710
88943W        W61258  40.302  31.924   4.594
88944W        W61259  37.711  29.182   2.386
88945W        W61260  11.378  38.377  14.766
88946W        W61261  40.493   4.202  12.517
88947W        W61262   5.912  15.277  12.478
88948W        W61263  31.092  40.015   0.789
88949W        W61264   0.232  19.611  13.621
88950W        W61265  11.192  39.486   1.644
88951W        W61266  36.076  15.096   0.948
88952W        W61267  38.863  14.359  11.604
88953W        W61268  28.536   5.940   2.143
88954W        W61269  14.180  21.711  11.571
88955W        W61270  28.036   6.136   5.014
88956W        W61271  36.334  39.619  12.595
88957W        W61272  13.228  22.049  13.082
88958W        W61273  34.980  17.484  13.455
88959W        W61274  32.608  31.888   1.874
88960W        W61275  31.073  35.055   0.026
88961W        W61276  10.300   7.668  14.390
88962W        W61277  27.230  12.110   1.850
88963W        W61278  38.487  39.564   4.182
88964W        W61279  34.036  27.984   1.214
88965W        W61280   3.300  27.414  12.694
88966W        W61281  34.621  31.476   0.001
88967W        W61282  13.075   0.372  13.284
88968W        W61283  13.847  22.667  13.255
88969W        W61284  23.098  43.945   3.748
88970W        W61285  10.155  14.108  11.616
88971W        W61286  17.766   8.612  13.889
88972W        W61287  39.396  30.879   4.690
88973W        W61288  12.782  37.606   4.217
88974W        W61289  21.051  32.458  14.902
88975W        W61290   1.732   3.484   4.150
88976W        W61291  33.586  39.752  10.694
88977W        W61292  18.824  42.470  14.357
88978W        W61293   0.245  43.058   3.945
88979W        W61294   7.246  44.524   1.945
88980W        W61295  10.237  21.283   3.259
88981W        W61296  19.002  31.942   2.790
88982W        W61297  14.214   3.162   3.709
88983W        W61298  26.020  28.563  14.750
88984W        W61299   8.766  23.119  11.263
88985W        W61300  14.191  37.000   2.314
88986W        W61301  27.754  12.255   1.919
88987W        W61302  33.528  35.389   0.301
88988W        W61303  17.598  30.410   1.239
88989W        W61304  27.509  11.616   2.748
88990W        W61305   6.684   9.192  11.619
88991W        W61306   7.368  38.832  13.562
88992W        W61307  34.919  24.020   0.298
88993W        W61308  17.450  38.582  10.230
88994W        W61309  30.769  43.026  11.014
88995W        W61310  23.748  44.834   4.848
88996W        W61311  15.726   6.520   5.052
88997W        W61312  20.804  32.347   3.168
88998W        W61313  32.200  27.874   3.194
88999W        W61314  19.557  36.932   4.020
89000W        W61315  32.417  26.596  10.150
89001W        W61316  33.562  16.041   4.447
89002W        W61317  28.700  27.573   2.298
89003W        W61318  29.345  16.289   3.636
89004W        W61319  21.642  32.133   3.700
89005W        W61320  28.642  17.772   4.370
89006W        W61321  26.605  23.417  14.440
89007W        W61322  19.510  31.903   0.962
89008W        W61323  36.826  44.255  13.153
89009W        W61324   3.406  11.355   1.367
89010W        W61325  39.767  18.177   3.315
89011W        W61326  31.424  40.309   1.242
89012W        W61327  32.001  42.314  13.108
89013W        W61328  12.226  36.480  14.420
89014W        W61329   4.884  42.285  14.483
89015W        W61330  17.716  20.392   0.900
89016W        W61331   9.792  10.428  10.236
89017W        W61332  13.498  42.717   0.223
89018W        W61333  25.848  29.901  11.733
89019W        W61334  18.287  21.115   5.377
89020W        W61335   1.378  43.575  14.277
89021W        W61336  44.789  34.105  14.022
89022W        W61337  23.013   2.759  12.899
89023W        W61338  25.299  42.103  10.505
89024W        W61339  24.602   8.255  14.157
89025W        W61340  21.798  32.066  11.795
89026W        W61341   0.499  24.635  12.431
89027W        W61342  20.615  21.472   3.620
89028W        W61343  34.023  35.046  12.795
89029W        W61344  37.910   2.492  11.131
89030W        W61345  23.328  20.266   2.886
89031W        W61346  22.711  30.687   2.373
89032W        W61347  43.915  33.702   0.625
89033W        W61348   4.246  37.014   3.165
89034W        W61349   1.206  36.515  10.572
89035W        W61350  43.182  35.441   0.439
89036W        W61351  33.054  32.122  14.287
89037W        W61352  42.185  20.199   4.967
89038W        W61353  15.417   9.109  13.999
89039W        W61354  26.647  14.852  14.820
89040W        W61355   0.294  44.488   0.723
89041W        W61356  17.655  12.046   4.386
89042W        W61357  29.634  41.528   1.415
89043W        W61358   4.646   4.822   3.375
89044W        W61359  32.077  16.138  10.777
89045W        W61360   6.099  39.727   0.227
89046W        W61361  20.154   8.926   3.660
89047W        W61362   7.703  14.134   5.044
89048W        W61363  17.622  24.447  14.453
89049W        W61364   4.205  25.512  10.469
89050W        W61365   0.703  11.408   3.639
89051W        W61366  30.968  28.228  13.257
89052W        W61367  17.282  20.129  11.555
89053W        W61368  25.968  20.140   0.447
89054W        W61369  13.552  17.190   1.407
89055W        W61370  39.413  41.307   3.366
89056W        W61371   7.203   4.177  10.700
89057W        W61372  22.196   6.802   4.143
89058W        W61373  39.973   9.095   0.891
89059W        W61374  14.669  38.986  10.668
89060W        W61375  33.150  13.944  10.133
89061W        W61376  11.284  23.158   4.753
89062W        W61377  40.319  42.326  13.321
89063W        W61378  32.352   5.862   3.286
89064W        W61379  26.880  34.054   3.663
89065W        W61380  18.231  34.967   3.285
89066W        W61381  21.168   3.984  10.904
89067W        W61382   2.881  30.912   4.626
89068W        W61383  27.707  14.632   4.165
89069W        W61384   6.755  28.701   1.801
89070W        W61385  33.309   4.928  10.837
89071W        W61386  44.376  24.707   4.115
89072W        W61387  15.645  30.620  12.596
89073W        W61388  16.254  33.693  13.199
89074W        W61389  28.161  22.596   3.197
89075W        W61390  24.120  39.771  13.994
89076W        W61391  43.055   7.030  13.410
89077W        W61392  30.095   9.625  12.883
89078W        W61393  13.234  28.504   1.819
89079W        W61394  11.375  15.707  12.922
89080W        W61395  40.206  17.390  12.402
89081W        W61396  29.562  37.043  12.290
89082W        W61397   7.200   9.696  10.662
89083W        W61398  44.748  39.600   0.275
89084W        W61399  19.541  18.455  11.172
89085W        W61400   2.371  35.097  10.474
89086W        W61401  34.994  35.585   4.331
89087W        W61402  22.453  37.543  13.858
89088W        W61403  23.584  20.669  14.502
89089W        W61404  38.495  28.654  12.388
89090W        W61405   3.718   3.983   2.502
89091W        W61406   4.506  41.254   3.143
89092W        W61407  35.463  21.638   2.784
89093W        W61408  11.795  37.000  13.921
89094W        W61409  22.719  33.930   2.639
89095W        W61410  20.766  32.922  12.224
89096W        W61411  41.310  11.725  14.889
89097W        W61412  36.346  22.107  11.534
89098W        W61413  10.087  24.200   4.166
89099W        W61414  11.174  39.490   0.213
89100W        W61415  26.861  26.079   4.865
89101W        W61416  22.671  10.219  10.933
89102W        W61417  21.363   6.471  14.296
89103W        W61418  18.332  23.239   1.767
89104W        W61419  39.108   4.857  14.525
89105W        W61420  26.843  24.526   0.948
89106W        W61421  31.504  36.063  14.863
89107W        W61422  35.464  39.553   4.551
89108W        W61423  11.824  25.689  14.108
89109W        W61424   8.325  32.653  11.508
89110W        W61425   5.767  20.575  11.644
89111W        W61426  44.927  35.125  13.719
89112W        W61427  16.407   7.606   1.708
89113W        W61428  29.088  25.778  13.408
89114W        W61429  30.196  33.002  13.748
89115W        W61430  26.605  44.253   2.873
89116W        W61431  40.906  20.086   3.865
89117W        W61432  28.231   1.850   1.868
89118W        W61433  17.366  40.506  11.511
89119W        W61434  25.540  20.476   0.626
89120W        W61435   4.339  26.882  10.956
89121W        W61436  20.295  24.225   0.154
89122W        W61437   5.619   4.719  11.990
89123W        W61438   6.334  33.109  12.414
89124W        W61439  12.153  41.634   1.784
89125W        W61440  10.990   9.342  10.650
89126W        W61441  23.790  41.910  10.684
89127W        W61442  10.884  25.424   5.164
89128W        W61443  22.249   7.997  14.342
89129W        W61444  34.039  25.137  12.337
89130W        W61445  42.720  36.979  11.755
89131W        W61446  17.773   7.219  12.071
89132W        W61447  23.003  11.193  11.545
89133W        W61448  20.299   3.973  14.885
89134W        W61449  31.570  11.678  11.127
89135W        W61450  25.599   9.592  13.571
89136W        W61451   6.950   1.368   4.756
89137W        W61452  11.465  26.349  12.584
89138W        W61453  15.614  44.069   2.355
89139W        W61454  29.969  23.071  13.039
89140W        W61455   4.781  28.064  12.765
89141W        W61456  35.040  27.438  13.621
89142W        W61457  13.822   5.311   1.684
89143W        W61458  39.232  39.000  14.130
89144W        W61459  23.181   5.785  14.488
89145W        W61460  17.562   7.770  13.858
89146W        W61461  36.161  42.255  14.364
89147W        W61462  31.482  25.531   2.203
89148W        W61463   2.473  44.443  10.935
89149W        W61464  42.947   9.744   0.914
89150W        W61465  23.504  37.576   0.400
89151W        W61466  31.655  33.363  14.727
89152W        W61467  31.036  23.691   3.178
89153W        W61468   8.211  14.393   0.849
89154W        W61469  10.994  27.159  14.256
89155W        W61470  24.233  27.467   4.497
89156W        W61471  40.078  25.125   1.372
89157W        W61472  10.959  44.730  14.278
89158W        W61473  35.899   3.809   1.317
89159W        W61474  26.456  23.493  10.951
89160W        W61475  17.429   9.877  14.436
89161W        W61476  28.194  44.587  13.974
89162W        W61477  28.175  13.695   3.614
89163W        W61478  33.369  21.487  11.982
89164W        W61479  40.254  39.591   4.211
89165W        W61480   8.458  28.095   0.849
89166W        W61481   7.733  19.568   1.199
89167W        W61482  44.298  39.551  14.960
89168W        W61483  32.863  16.974  10.877
89169W        W61484  16.510  10.815   4.687
89170W        W61485  18.071  42.226   3.702
89171W        W61486  42.417   1.753  11.473
89172W        W61487  11.209  12.389   3.827
89173W        W61488  30.113   4.989   3.586
89174W        W61489  33.909  37.314   1.726
89175W        W61490  28.009  19.484  11.200
89176W        W61491   8.898   9.286   0.197
89177W        W61492  20.148  19.280   3.184
89178W        W61493   9.258  32.902   2.783
89179W        W61494   6.636  34.896   2.742
89180W        W61495  33.101   1.680   1.568
89181W        W61496   9.427   2.845  10.973
89182W        W61497   9.414  12.229  10.645
89183W        W61498  39.996   9.185  12.562
89184W        W61499  21.485  29.021  14.342
89185W        W61500  15.377  19.056  12.745
89186W        W61501  24.674   7.165   1.324
89187W        W61502  26.216  15.218   2.360
89188W        W61503  38.878  11.354   5.202
89189W        W61504  43.931  42.497   0.423
89190W        W61505  32.512  21.098   0.763
89191W        W61506   5.649   0.090   4.512
89192W        W61507  26.664  12.935  11.735
89193W        W61508  19.991  19.188  11.561
89194W        W61509   2.761  29.576  13.543
89195W        W61510   5.359  37.143  14.440
89196W        W61511  30.085  27.075   3.431
89197W        W61512  35.891  33.705   0.746
89198W        W61513  39.907  35.084  11.635
89199W        W61514   9.048  33.679   4.114
89200W        W61515   5.140   0.680  13.383
89201W        W61516  44.908  21.492  13.844
89202W        W61517   6.722  18.563   2.326
89203W        W61518   5.381   6.323  11.892
89204W        W61519  10.867  12.101  11.901
89205W        W61520  27.816  40.362  12.641
89206W        W61521  41.369  29.401  11.676
89207W        W61522  22.565  18.792   1.702
89208W        W61523   4.662  39.142   2.011
89209W        W61524  23.278   3.224  12.095
89210W        W61525  12.160  43.915  11.892
89211W        W61526  22.079   8.011   1.154
89212W        W61527  14.607  21.708   0.967
89213W        W61528   3.992  13.179  14.459
89214W        W61529   9.088  25.922   2.726
89215W        W61530   7.531   3.633  12.480
89216W        W61531   3.450  22.169   4.611
89217W        W61532   0.419  33.568   3.423
89218W        W61533  43.769   2.695   2.706
89219W        W61534  19.785  32.462   2.420
89220W        W61535  14.338  42.511   4.268
89221W        W61536  36.994  18.241  14.535
89222W        W61537  10.649  25.220   0.230
89223W        W61538   7.243  12.419  11.907
89224W        W61539   3.812   2.793  13.415
89225W        W61540  42.890  41.512   5.006
89226W        W61541   3.510  44.247  10.840
89227W        W61542  21.089   6.229  11.980
89228W        W61543  15.878   1.618  12.442
89229W        W61544  43.311   1.705   5.097
89230W        W61545  11.106  22.095   1.299
89231W        W61546  42.437  42.127   3.435
89232W        W61547  16.647  44.288  11.927
89233W        W61548  22.409  34.426  13.320
89234W        W61549  27.687  21.435  11.572
89235W        W61550  33.530  37.142  13.668
89236W        W61551  14.201  13.640   4.366
89237W        W61552  34.129  44.097  13.133
89238W        W61553  15.372   4.842   3.647
89239W        W61554  21.303  10.367  14.904
89240W        W61555  11.688   9.389  12.335
89241W        W61556  37.966  25.149  12.110
89242W        W61557  31.638  16.664  14.500
89243W        W61558  32.146  18.248  13.853
89244W        W61559  21.486  15.649  11.753
89245W        W61560   1.756   9.703   0.334
89246W        W61561  39.914  24.981   4.811
89247W        W61562  35.956  42.518  10.539
89248W        W61563  13.787  41.765   2.378
89249W        W61564  28.431  13.921  10.616
89250W        W61565  25.042  42.965  10.534
89251W        W61566  18.327  42.149  13.470
89252W        W61567  19.581  36.468  12.451
89253W        W61568  19.009  18.345   1.706
89254W        W61569  41.673  23.723   4.967
89255W        W61570  44.013  35.102   1.229
89256W        W61571  13.286  38.566  12.107
89257W        W61572   6.637  20.084  13.623
89258W        W61573   5.214   2.797  14.095
89259W        W61574  11.094  11.357  12.513
89260W        W61575  15.291  20.930   2.845
89261W        W61576  23.960  17.611  12.096
89262W        W61577  25.695   3.353  11.175
89263W        W61578  38.159  43.097  13.630
89264W        W61579  27.698  41.714  13.736
89265W        W61580   9.574  30.343  13.598
89266W        W61581  43.345  41.335  13.004
89267W        W61582  14.778  27.133   1.953
89268W        W61583  26.234  40.949  12.384
89269W        W61584   2.878  38.469   4.797
89270W        W61585  35.579   3.202   1.870
89271W        W61586  15.930  27.256  10.267
89272W        W61587  22.449  44.043  11.553
89273W        W61588   3.711  14.663  14.381
89274W        W61589  13.965  19.554  13.936
89275W        W61590  33.052   9.820  14.240
89276W        W61591  22.797  36.054  11.375
89277W        W61592  31.756  16.722   3.628
89278W        W61593   8.330  16.680   4.111
89279W        W61594  30.974  32.459  11.230
89280W        W61595  33.540  36.773  14.050
89281W        W61596  12.766  40.326  14.333
89282W        W61597  12.106  12.158   4.689
89283W        W61598  24.758   0.258  14.664
89284W        W61599  20.834   5.381  13.475
89285W        W61600   2.347   4.897  14.236
89286W        W61601  44.037  37.146   3.651
89287W        W61602   9.188  40.090   3.690
89288W        W61603   1.269  17.364   0.840
89289W        W61604  13.015   1.403  14.256
89290W        W61605   1.479   3.378  14.350
89291W        W61606   3.352  28.560  13.996
89292W        W61607  30.483  24.755  11.638
89293W        W61608  27.085   5.212  12.313
89294W        W61609  15.235   3.006  12.923
89295W        W61610   4.788  34.998  13.951
89296W        W61611  41.306  13.140   2.378
89297W        W61612  41.038   7.642   1.423
89298W        W61613   7.672  31.436   2.437
89299W        W61614  17.515  34.342  11.067
89300W        W61615  27.916  18.531   2.159
89301W        W61616  43.923   1.341  14.855
89302W        W61617   3.388  37.392  11.965
89303W        W61618  16.280  13.365   3.706
89304W        W61619  40.921  32.626  11.481
89305W        W61620  44.213  16.559   0.811
89306W        W61621   0.801  41.911   1.431
89307W        W61622  18.485  18.112  13.811
89308W        W61623  38.426  35.442   3.906
89309W        W61624  10.336  42.982  11.470
89310W        W61625  16.128  28.184   4.010
89311W        W61626   9.447  28.976  13.897
89312W        W61627   3.708  43.639   2.778
89313W        W61628   8.640  40.343  14.449
89314W        W61629  33.023  35.954  14.927
89315W        W61630  33.514   2.006  12.534
89316W        W61631   8.722  33.166  11.965
89317W        W61632  20.983  29.662   0.550
89318W        W61633   7.188  19.005   4.086
89319W        W61634  24.189  24.445  13.484
89320W        W61635  10.601  44.371  10.211
89321W        W61636  41.038  36.040   0.714
89322W        W61637  15.050  25.089  12.566
89323W        W61638  16.109  26.177  11.258
89324W        W61639  20.122  19.362   2.673
89325W        W61640   3.404  28.677   0.491
89326W        W61641   9.348  42.983  11.896
89327W        W61642   5.992  23.327   4.179
89328W        W61643  12.589   2.704   1.700
89329W        W61644  30.032   5.395   4.103
89330W        W61645  21.729   8.302   0.884
89331W        W61646   5.246  16.982  14.768
89332W        W61647  43.906  42.746   3.290
89333W        W61648  13.731  37.193   1.318
89334W        W61649  31.709  27.994   4.030
89335W        W61650   4.250  12.699   1.671
89336W        W61651  43.151   1.825   1.916
89337W        W61652   3.347  30.907  12.007
89338W        W61653  32.557   0.215  12.449
89339W        W61654  32.511  30.717   3.693
89340W        W61655   0.767  15.692   3.957
89341W        W61656  25.026  18.559   2.479
89342W        W61657  44.195  44.946  14.995
89343W        W61658  26.244  16.596  10.982
89344W        W61659  30.210  19.962  11.917
89345W        W61660  38.396  11.908   0.963
89346W        W61661  13.100  39.011  14.851
89347W        W61662  17.474  30.592   4.026
89348W        W61663  31.528  26.398   0.318
89349W        W61664  39.091  40.359   3.559
89350W        W61665  36.825  19.379   0.381
89351W        W61666  33.526  12.155  11.837
89352W        W61667  36.141  15.300  14.915
89353W        W61668  22.609  24.951  13.556
89354W        W61669   9.312  24.096  13.333
89355W        W61670   8.360   5.201  14.819
89356W        W61671  32.115  26.037   1.370
89357W        W61672   1.035  29.031  13.510
89358W        W61673  39.301  42.731  10.664
89359W        W61674  18.275  31.054   2.070
89360W        W61675  33.046  44.134   2.127
89361W        W61676  18.584  17.501  12.427
89362W        W61677  12.695  26.787  11.075
89363W        W61678  43.937  24.664  10.747
89364W        W61679  35.958  39.468   1.644
89365W        W61680  44.840  19.328   1.048
89366W        W61681  20.616   6.912   4.706
89367W        W61682  25.468  19.323   0.449
89368W        W61683  26.634  17.666  11.517
89369W        W61684  18.698   1.729  11.941
89370W        W61685  25.716  18.682   0.520
89371W        W61686   6.195   5.914   2.508
89372W        W61687  44.518   5.768   2.818
89373W        W61688  37.955   2.405   1.382
89374W        W61689  43.567  38.945   1.123
89375W        W61690  10.450  15.728  12.931
89376W        W61691  14.844  40.921   2.338
89377W        W61692  35.210  26.568  11.063
89378W        W61693  19.262  27.802   2.084
89379W        W61694  43.892   3.995  14.465
89380W        W61695  30.119  12.618  11.048
89381W        W61696   2.521   3.812   4.000
89382W        W61697  41.006  17.765   3.431
89383W        W61698  42.490  36.785   1.854
89384W        W61699   6.854  21.624  14.377
89385W        W61700  43.646  35.375  10.417
89386W        W61701  36.137   6.332   4.651
89387W        W61702  11.644  13.542   1.379
89388W        W61703   6.054  33.509   2.574
89389W        W61704  12.318  41.604   3.158
89390W        W61705  38.962  34.511   3.152
89391W        W61706  26.134  28.730   1.858
89392W        W61707   0.996  33.669  14.895
89393W        W61708  37.351   4.594  12.912
89394W        W61709  41.332  21.507  11.096
89395W        W61710   4.017  32.597   0.349
89396W        W61711  43.698   6.477  11.531
89397W        W61712  20.570   5.624   1.713
89398W        W61713   5.765   6.259   4.225
89399W        W61714   5.493   8.370   2.889
89400W        W61715  29.010  29.593   0.536
89401W        W61716  30.159  18.991  14.931
89402W        W61717  36.835  23.490  14.480
89403W        W61718  43.527   8.713   1.979
89404W        W61719   6.131  28.857  14.466
89405W        W61720  34.064  26.046   2.328
89406W        W61721  12.056  36.659  14.944
89407W        W61722  38.455  20.101   3.209
89408W        W61723  12.117   8.594  12.899
89409W        W61724  26.100  25.520   4.672
89410W        W61725  22.085  29.868  11.110
89411W        W61726   5.144   2.314  13.484
89412W        W61727  16.826  26.694  14.080
89413W        W61728   6.041  14.272   2.796
89414W        W61729   7.411  29.831  12.044
89415W        W61730  16.317  34.897   4.221
89416W        W61731  16.218   4.044  13.367
89417W        W61732  17.404  23.599  11.174
89418W        W61733  43.411  11.550  10.337
89419W        W61734  19.531  44.972   1.101
89420W        W61735  32.610  39.966   4.184
89421W        W61736  33.865  32.481  13.057
89422W        W61737   7.341  36.526   0.809
89423W        W61738  27.637  23.721  12.079
89424W        W61739  39.807  22.273   1.276
89425W        W61740   4.862  41.089   1.335
89426W        W61741  20.952   5.811  11.224
89427W        W61742  38.870  20.556   0.279
89428W        W61743  27.169  22.138   0.610
89429W        W61744  29.498  14.404  14.258
89430W        W61745  33.141  24.548  11.032
89431W        W61746  35.115  22.239   4.964
89432W        W61747  36.499  38.616  11.179
89433W        W61748   0.845  31.453   3.061
89434W        W61749  30.165   2.313   4.385
89435W        W61750  36.852  23.753   1.846
89436W        W61751  30.060   3.879  13.786
89437W        W61752  38.912  14.267   2.620
89438W        W61753  27.152  22.191   3.704
89439W        W61754  32.669  41.164  12.126
89440W        W61755  22.434  41.416   4.502
89441W        W61756  28.629  21.746  11.326
89442W        W61757  28.571  26.803   3.215
89443W        W61758  16.123  24.583   2.407
89444W        W61759  37.974  21.363   1.973
89445W        W61760  19.360   4.668  11.104
89446W        W61761  22.215  30.644  14.326
89447W        W61762  41.798  10.283  14.931
89448W        W61763  19.825  35.978  13.143
89449W        W61764  22.609  21.516  11.342
89450W        W61765  28.989  39.283  11.925
89451W        W61766  41.046  42.873   3.253
89452W        W61767   9.316  18.617   2.771
89453W        W61768   2.904  10.337   1.297
89454W        W61769  28.100  37.856  11.611
89455W        W61770   8.324  29.781   3.585
89456W        W61771  29.198   1.960   4.598
89457W        W61772  21.757   9.322   0.989
89458W        W61773   7.263  39.071  13.079
89459W        W61774  10.759   7.456  14.447
89460W        W61775  17.852   4.017  14.891
89461W        W61776  42.975  31.579  13.019
89462W        W61777   3.715  27.706  10.627
89463W        W61778  26.523  14.565  12.346
89464W        W61779  37.989   3.183   0.347
89465W        W61780  34.628   7.440  13.410
89466W        W61781  40.731  14.799   2.828
89467W        W61782  30.357  37.528   0.015
89468W        W61783  11.955  39.408   1.210
89469W        W61784  10.595  22.066   1.172
89470W        W61785   0.385   7.299   2.820
89471W        W61786  22.879  19.591  14.692
89472W        W61787  44.526   9.260   4.551
89473W        W61788  17.741   5.902  11.547
89474W        W61789  21.516  18.639   4.262
89475W        W61790   7.172  26.853   4.752
89476W        W61791  34.321  22.569   3.256
89477W        W61792  34.478  25.156   0.724
89478W        W61793  23.601  29.397   1.471
89479W        W61794  19.615  10.798   4.191
89480W        W61795  35.654  28.129   4.834
89481W        W61796  14.075  34.298   2.347
89482W        W61797  40.457  28.690   2.933
89483W        W61798  37.416   0.220  13.955
89484W        W61799   8.390  24.219   4.928
89485W        W61800  15.675   4.712   0.912
89486W        W61801  38.005  10.894  11.416
89487W        W61802  44.359   3.300   1.915
89488W        W61803   2.240  40.643   9.900
89489W        W61804   4.696  15.269   0.976
89490W        W61805   7.207  44.154  13.937
89491W        W61806  27.872  10.707  13.792
89492W        W61807  28.605  14.810   1.194
89493W        W61808  33.177   6.395  14.424
89494W        W61809  16.609  39.989   5.255
89495W        W61810  10.428  31.437  13.435
89496W        W61811  23.502  44.729  10.619
89497W        W61812  19.103  38.811  10.586
89498W        W61813  28.429  30.262   0.524
89499W        W61814  23.116  36.396   4.389
89500W        W61815  11.710  42.911  11.229
89501W        W61816   6.324  32.897   0.872
89502W        W61817  31.950  14.869   1.464
89503W        W61818   5.843  28.273   4.863
89504W        W61819   6.340  18.619   0.239
89505W        W61820  28.556  29.396   2.655
89506W        W61821   0.540  14.121   4.504
89507W        W61822  44.687  26.668  10.647
89508W        W61823   2.141  31.559   3.184
89509W        W61824  18.806   4.566   4.930
89510W        W61825   5.388  36.277   1.364
89511W        W61826  14.554  15.311   2.743
89512W        W61827  35.900  36.537  11.475
89513W        W61828   8.048  37.404  10.312
89514W        W61829  12.555  21.959  13.879
89515W        W61830  25.557  21.516  12.023
89516W        W61831   5.097  43.807  11.145
89517W        W61832  12.394   1.998   2.315
89518W        W61833   5.615  43.848  10.884
89519W        W61834  15.622   8.933   5.070
89520W        W61835  15.742   2.868   2.298
89521W        W61836   1.332  39.687  11.554
89522W        W61837  41.397  24.809  12.602
89523W        W61838   5.294  22.633   1.185
89524W        W61839  13.213  13.774   1.046
89525W        W61840   6.836  29.021   2.197
89526W        W61841  21.270  10.838   1.362
89527W        W61842  43.825  14.216   2.199
89528W        W61843  42.305   1.603   2.864
89529W        W61844  11.667  37.466   0.810
89530W        W61845  12.151  44.335   2.224
89531W        W61846  36.906  38.612   0.410
89532W        W61847   3.253  33.567   2.327
89533W        W61848  42.636  12.390  11.591
89534W        W61849  44.477  44.807   1.809
89535W        W61850  23.744   8.384  10.705
89536W        W61851  37.273  20.278  12.074
89537W        W61852   2.423  21.639  14.789
89538W        W61853  25.555  23.808   2.350
89539W        W61854  40.318  22.571   3.786
89540W        W61855  31.129   1.973  12.946
89541W        W61856  27.204  24.011  12.028
89542W        W61857  24.037  19.586   4.702
89543W        W61858  17.365  11.472   2.908
89544W        W61859  18.229  42.431   1.358
89545W        W61860  26.028   7.777   4.724
89546W        W61861  37.091   5.171  14.021
89547W        W61862  39.015  18.324   2.728
89548W        W61863  39.444  40.014  14.509
89549W        W61864  17.279  32.892  11.052
89550W        W61865  44.442   2.521   2.648
89551W        W61866  18.637  37.526  13.594
89552W        W61867  26.418   7.683   3.750
89553W        W61868  34.074  35.614  11.618
89554W        W61869   6.860   3.265   3.604
89555W        W61870  14.058   0.019   3.292
89556W        W61871  40.030  24.799  13.541
89557W        W61872  42.341  32.350   3.139
89558W        W61873  38.273  22.977   4.085
89559W        W61874  22.577  34.331  14.832
89560W        W61875   4.018  35.988  11.475
89561W        W61876  25.716   7.133   3.706
89562W        W61877  14.392  18.090  11.020
89563W        W61878  24.414  12.102  14.085
89564W        W61879  28.260   3.263  14.455
89565W        W61880  24.206  39.032   3.255
89566W        W61881  32.390   6.946   4.485
89567W        W61882   7.261   9.575  11.943
89568W        W61883  41.048  38.569  14.962
89569W        W61884  20.480  11.805   4.258
89570W        W61885  19.224  29.716  12.162
89571W        W61886  13.076  16.208   1.892
89572W        W61887  19.837  35.157  10.964
89573W        W61888  18.338  19.103   5.026
89574W        W61889   7.250  20.587  10.690
89575W        W61890  21.660  20.955  13.863
89576W        W61891  13.387  32.424  10.145
89577W        W61892  22.555  31.974  13.332
89578W        W61893  26.735   2.987  10.499
89579W        W61894  14.848  14.119   2.767
89580W        W61895   1.795   6.787  11.072
89581W        W61896  11.072  36.481  14.937
89582W        W61897  43.023  17.050   3.698
89583W        W61898  39.824  24.084  11.158
89584W        W61899  44.289  35.470   4.317
89585W        W61900   6.999  32.292   4.100
89586W        W61901   1.954   9.514   2.851
89587W        W61902  22.731  25.788  12.538
89588W        W61903  15.285   5.330   1.201
89589W        W61904  33.333  15.793  14.018
89590W        W61905   7.408  44.777   0.855
89591W        W61906  43.847   5.951  11.401
89592W        W61907  16.244  40.408   2.214
89593W        W61908  24.967  34.389  10.968
89594W        W61909  10.444   0.604   4.143
89595W        W61910   5.134   9.764  13.754
89596W        W61911  10.008  22.549  10.737
89597W        W61912   9.410   2.787   1.682
89598W        W61913  12.778   1.405   0.935
89599W        W61914  12.047   8.801   2.179
89600W        W61915  18.744  12.202   1.162
89601W        W61916  14.411  21.337   5.050
89602W        W61917   3.689  24.009   2.419
89603W        W61918  12.583  21.603   0.714
89604W        W61919   6.994  42.448  13.505
89605W        W61920  21.993  37.768   4.082
89606W        W61921  21.582  40.305   2.438
89607W        W61922  41.558   8.465  11.665
89608W        W61923  39.854  36.502  11.184
89609W        W61924  24.263  25.152  13.882
89610W        W61925  42.570  20.792  13.008
89611W        W61926  16.287  15.225   4.186
89612W        W61927  38.637  28.649  13.451
89613W        W61928   3.017   0.385  12.915
89614W        W61929  40.436   5.801   3.836
89615W        W61930   2.278  15.614   3.950
89616W        W61931   7.264  28.169   0.199
89617W        W61932  43.695  37.857   3.252
89618W        W61933   8.187  40.975   3.744
89619W        W61934  35.403   1.421   4.155
89620W        W61935  38.404   2.654  11.138
89621W        W61936   3.554  16.718   2.837
89622W        W61937  21.068  38.095   2.709
89623W        W61938  25.636  25.920  11.203
89624W        W61939  17.153  21.683   0.665
89625W        W61940  28.180  38.020  14.526
89626W        W61941  22.113  14.095  10.569
89627W        W61942  22.989  31.354   0.819
89628W        W61943  30.587  26.646  10.679
89629W        W61944  34.824  35.415  14.772
89630W        W61945  41.376  13.296  13.891
89631W        W61946   9.464   9.142   4.696
89632W        W61947  34.470  43.984  13.548
89633W        W61948  14.411  42.159   2.376
89634W        W61949   4.832   2.326   5.066
89635W        W61950   3.638  14.278  10.212
89636W        W61951   6.809   5.318   4.050
89637W        W61952  40.903  24.738  10.695
89638W        W61953  40.582  31.735   4.218
89639W        W61954  44.552  30.965   1.520
89640W        W61955   4.641  18.182  11.048
89641W        W61956  11.188  42.792   2.911
89642W        W61957   5.203  36.440  10.370
89643W        W61958  23.507  18.165  10.488
89644W        W61959  12.713  21.187   1.652
89645W        W61960  27.035  22.469  10.658
89646W        W61961  30.534  35.255   3.653
89647W        W61962  31.952  15.539   3.239
89648W        W61963  32.072  36.899   3.819
89649W        W61964  32.480  34.582   2.415
89650W        W61965   7.915  11.132   3.912
89651W        W61966   4.735  14.320  13.401
89652W        W61967  13.095  12.725   0.779
89653W        W61968  10.318   5.406   1.941
89654W        W61969  10.171  27.395   0.338
89655W        W61970  24.986   8.691  12.434
89656W        W61971  28.880   8.782  12.846
89657W        W61972  37.361  28.160   1.457
89658W        W61973  18.527   8.838  13.298
89659W        W61974  35.729   0.309   3.737
89660W        W61975   8.184   3.914  14.917
89661W        W61976   3.247  32.482   2.114
89662W        W61977  44.919  22.123   2.664
89663W        W61978  17.199  17.093  11.955
89664W        W61979  14.385   4.362  11.604
89665W        W61980  28.647  19.437  12.153
89666W        W61981  16.052  31.389  12.080
89667W        W61982  34.869   1.345   2.195
89668W        W61983  16.338   2.348   3.270
89669W        W61984  35.054  23.195  10.879
89670W        W61985  34.779   5.795  14.982
89671W        W61986  43.470   2.759   0.308
89672W        W61987  41.475  44.509  14.426
89673W        W61988  11.826  29.518  13.006
89674W        W61989  21.962  44.218  12.528
89675W        W61990  22.027  40.340  11.695
89676W        W61991  15.584   5.295   3.550
89677W        W61992  16.681  31.134   0.722
89678W        W61993   7.651  32.097   3.258
89679W        W61994  36.884  34.045   4.250
89680W        W61995  15.232  11.845   0.684
89681W        W61996  13.274  11.809  11.456
89682W        W61997  22.560  17.597  13.273
89683W        W61998   5.185   3.306  13.483
89684W        W61999  15.768  42.798   1.310
89685W        W62000  27.433  18.945  10.511
89686W        W62001  40.071  32.886  14.010
89687W        W62002  26.962   3.397  10.872
89688W        W62003  27.721  21.042  10.687
89689W        W62004  40.342  18.706   0.075
89690W        W62005   8.804  16.046  14.411
89691W        W62006  37.032  43.719  10.461
89692W        W62007   7.602  18.713   1.280
89693W        W62008  19.350  24.276  12.889
89694W        W62009  28.689  11.190   2.696
89695W        W62010  24.140  15.269  12.035
89696W        W62011  12.618   9.776  13.296
89697W        W62012   8.705  29.472   3.397
89698W        W62013  13.119   4.850   1.478
89699W        W62014  37.312   9.777  13.889
89700W        W62015  11.841  13.814  13.102
89701W        W62016  38.358   3.660  13.957
89702W        W62017  31.670  41.288  13.405
89703W        W62018  43.858  31.569  13.921
89704W        W62019   5.382  19.333  13.300
89705W        W62020   0.934  39.595  13.588
89706W        W62021   8.568   7.845   1.538
89707W        W62022  17.336  10.694   0.370
89708W        W62023  11.656  32.118   1.697
89709W        W62024  18.212  16.784  11.207
89710W        W62025   8.287  37.589  12.578
89711W        W62026  33.886  23.765   0.267
89712W        W62027  15.703  30.811   2.171
89713W        W62028  28.895  35.961   0.500
89714W        W62029   0.029  38.261   1.449
89715W        W62030  12.261  39.446  12.359
89716W        W62031  39.066  34.091  13.371
89717W        W62032  12.686   2.183  10.633
89718W        W62033  27.664   0.821   1.308
89719W        W62034  17.284   3.210  13.804
89720W        W62035  10.913  16.650   3.024
89721W        W62036  38.160  21.135  11.170
89722W        W62037   9.661  41.273   4.248
89723W        W62038  28.046  26.156  11.964
89724W        W62039  41.733  14.616   2.825
89725W        W62040  16.875  14.499   4.198
89726W        W62041   5.325   4.807   2.844
89727W        W62042   8.316   0.565   3.642
89728W        W62043   8.168  28.081  10.703
89729W        W62044  36.107  40.746   1.010
89730W        W62045  27.838   6.878  12.580
89731W        W62046  28.423   1.566   0.276
89732W        W62047  12.577  38.026   0.997
89733W        W62048  31.646  10.076   2.818
89734W        W62049  16.787  42.924   4.646
89735W        W62050   4.202  17.108   3.674
89736W        W62051  35.171  42.118   3.708
89737W        W62052   0.526  12.673  10.218
89738W        W62053  40.966   9.807   0.877
89739W        W62054   8.915  33.879   2.135
89740W        W62055  29.692   1.899   3.675
89741W        W62056  23.136  21.765  11.622
89742W        W62057  28.715   2.490   0.577
89743W        W62058  44.465  20.468  12.948
89744W        W62059  16.187  18.800   1.897
89745W        W62060   3.445   1.719  14.877
89746W        W62061  28.981  21.249  12.381
89747W        W62062  25.559  11.832  11.047
89748W        W62063  22.240  35.505   2.960
89749W        W62064  13.546  15.174  12.294
89750W        W62065  25.456   6.129  10.632
89751W        W62066  29.430  28.567   3.724
89752W        W62067  44.252   8.234   0.988
89753W        W62068   9.922  28.063   4.169
89754W        W62069  38.312  41.395  13.775
89755W        W62070  11.505  25.085  13.405
89756W        W62071  15.745  13.676   0.256
89757W        W62072  32.929  31.409   1.239
89758W        W62073  22.573  26.695  13.102
89759W        W62074  34.546   6.066  14.578
89760W        W62075   4.379  39.759   2.348
89761W        W62076  21.084   8.403  13.642
89762W        W62077  11.217  16.598   4.791
89763W        W62078  32.580   4.881  13.564
89764W        W62079   5.967  39.622  12.900
89765W        W62080   2.423  44.388  11.880
89766W        W62081  30.220  40.938  10.590
89767W        W62082  25.731  15.798   3.438
89768W        W62083  23.520   9.729  12.624
89769W        W62084  17.872  21.241   2.553
89770W        W62085  15.399  42.328   2.623
89771W        W62086  39.502   0.885   1.028
89772W        W62087  43.483  27.936  12.706
89773W        W62088   5.725  30.113  11.440
89774W        W62089   4.821  36.120   4.231
89775W        W62090  23.795  21.458   3.621
89776W        W62091  18.062  36.051   1.731
89777W        W62092  18.662  26.140  14.792
89778W        W62093  43.649   5.942   2.977
89779W        W62094  23.475  36.959  12.428
89780W        W62095   5.808  29.189   1.683
89781W        W62096   9.338  40.865  13.345
89782W        W62097   1.411  42.701   3.408
89783W        W62098  17.104  44.914  12.998
89784W        W62099  18.262  32.602   1.890
89785W        W62100   0.404   4.361   4.786
89786W        W62101  15.091  32.932  10.657
89787W        W62102  21.773  23.072   3.263
89788W        W62103   5.242  25.586   0.043
89789W        W62104  19.587   7.910   5.044
89790W        W62105  14.533  39.076  12.910
89791W        W62106   5.477   0.782  11.972
89792W        W62107  20.298  41.099  13.973
89793W        W62108  18.758  26.058   4.318
89794W        W62109  22.730  23.532  14.192
89795W        W62110   9.732  14.363   4.572
89796W        W62111   3.320  42.802   0.009
89797W        W62112  15.781  43.827   0.531
89798W        W62113  28.484  16.791  10.693
89799W        W62114  38.350  36.907  11.421
89800W        W62115  36.092  35.334  12.694
89801W        W62116  29.053  28.148   0.185
89802W        W62117  17.454  33.597  10.741
89803W        W62118  15.484   1.197  10.870
89804W        W62119  29.441  29.147  11.403
89805W        W62120  42.011  23.504  10.594
89806W        W62121   1.647  27.757   0.841
89807W        W62122  40.415  38.025  13.896
89808W        W62123  44.679  36.890  14.091
89809W        W62124  21.158  17.710   1.683
89810W        W62125  18.029   8.399   4.248
89811W        W62126   6.440   1.008  13.085
89812W        W62127  42.449  17.502   2.451
89813W        W62128   6.947  24.934  11.059
89814W        W62129  27.000   6.899   0.479
89815W        W62130  41.687  35.621  12.004
89816W        W62131  41.860  12.498   0.228
89817W        W62132   0.477   3.578   4.116
89818W        W62133  26.562  25.980   2.458
89819W        W62134  13.302  44.021  12.638
89820W        W62135  25.612  32.421  13.092
89821W        W62136   0.749   5.361   0.463
89822W        W62137   5.277   0.778   2.362
89823W        W62138  23.187  43.741   1.294
89824W        W62139   0.982  29.626   1.230
89825W        W62140  43.648  12.760  11.539
89826W        W62141   3.403   7.034  13.956
89827W        W62142  16.005  30.932  10.970
89828W        W62143  28.150   0.778   0.851
89829W        W62144  37.433  11.911   0.977
89830W        W62145  13.698  11.635   1.464
89831W        W62146  30.995   2.211   1.300
89832W        W62147  38.118  32.084   1.838
89833W        W62148   1.787   5.156  11.830
89834W        W62149  30.411  10.668  11.551
89835W        W62150  17.323  20.497  13.816
89836W        W62151  15.552  32.151  10.799
89837W        W62152  36.465  24.609   2.341
89838W        W62153   3.357  20.846  14.949
89839W        W62154  32.166  32.153   0.284
89840W        W62155  26.133  33.017  12.106
89841W        W62156  38.030  37.487   1.372
89842W        W62157  21.483   7.307   2.333
89843W        W62158   1.763  31.891   1.685
89844W        W62159  29.214  35.988  11.536
89845W        W62160  30.207   9.846  11.416
89846W        W62161  35.195  31.273  11.114
89847W        W62162  32.924  26.954   1.401
89848W        W62163   3.003  18.251   3.977
89849W        W62164   9.144  20.659   3.249
89850W        W62165  22.567  14.042   1.487
89851W        W62166  40.983  15.881   1.376
89852W        W62167  34.334  40.927  13.934
89853W        W62168  11.508   0.273   1.342
89854W        W62169  28.061  32.050   1.277
89855W        W62170  29.189  24.862  11.721
89856W        W62171   0.978  27.195   2.215
89857W        W62172  16.826   7.778   0.579
89858W        W62173   2.390  43.186  11.082
89859W        W62174   1.936  30.405   0.243
89860W        W62175  30.440  13.325   2.264
89861W        W62176  34.914  28.215   0.718
89862W        W62177  26.236  31.244  12.787
89863W        W62178   0.922  10.347   0.225
89864W        W62179  33.632   7.500   4.131
89865W        W62180  29.825  31.545  12.110
89866W        W62181  37.390  41.806   3.002
89867W        W62182  10.634   2.628  12.459
89868W        W62183  35.997   6.850   3.902
89869W        W62184  33.077  17.181  14.010
89870W        W62185  21.683  41.562  10.717
89871W        W62186  40.789  27.533   1.807
89872W        W62187  25.021  39.897  11.183
89873W        W62188  11.381  30.325   3.635
89874W        W62189  11.503  26.426  10.335
89875W        W62190   6.953  19.852   3.819
89876W        W62191  22.311  13.489  11.532
89877W        W62192  18.293  28.995  14.850
89878W        W62193  36.150  37.849  11.306
89879W        W62194  10.638  25.574   1.653
89880W        W62195  44.474  14.131  13.357
89881W        W62196  17.542  32.002   2.316
89882W        W62197  10.170  32.542   2.344
89883W        W62198  40.881   1.072  11.468
89884W        W62199  24.383   8.900  10.783
89885W        W62200  19.125   1.978   4.481
89886W        W62201  42.509   8.329   2.185
89887W        W62202  27.991  43.356  12.841
89888W        W62203  34.884  26.683   4.024
89889W        W62204  34.065  24.441  14.553
89890W        W62205   7.915  10.694   0.428
89891W        W62206  41.852   5.365   1.208
89892W        W62207  42.067  31.976   1.912
89893W        W62208   9.469  42.958   0.922
89894W        W62209  39.509  38.548  14.604
89895W        W62210  39.531   7.878  14.560
89896W        W62211  42.974  32.382   4.515
89897W        W62212  42.784  19.112  11.137
89898W        W62213  23.257  43.431  10.892
89899W        W62214  40.835  12.687   4.178
89900W        W62215  35.115  30.455  11.506
89901W        W62216   1.944  26.943   3.268
89902W        W62217  17.352  33.660  12.412
89903W        W62218  40.049  43.516   1.430
89904W        W62219  18.678  35.597   2.198
89905W        W62220  33.906  32.540  11.138
89906W        W62221   7.093  42.032   3.632
89907W        W62222   2.197  35.555  13.552
89908W        W62223  11.285  39.792  11.934
89909W        W62224  23.224   6.996  13.737
89910W        W62225  35.298  22.957  14.574
89911W        W62226  22.141  25.233  14.756
89912W        W62227  27.711  34.428   0.330
89913W        W62228  24.717  38.931  14.413
89914W        W62229  32.052   6.529   4.637
89915W        W62230   6.391  26.109  14.687
89916W        W62231  36.942  10.986  14.318
89917W        W62232  40.776  31.395   0.997
89918W        W62233  15.207  20.858  12.678
89919W        W62234   8.750  35.010   4.251
89920W        W62235  39.356  19.022  10.771
89921W        W62236  30.241  37.578  11.998
89922W        W62237  44.416  19.760   1.566
89923W        W62238  27.681   9.419  12.754
89924W        W62239  22.274   7.717   0.782
89925W        W62240  11.725  17.027   2.145
89926W        W62241  27.611   8.961   1.331
89927W        W62242  35.056  31.104  13.724
89928W        W62243  32.094   9.152  14.858
89929W        W62244   0.640  24.145  12.397
89930W        W62245  40.503   7.122  13.130
89931W        W62246   7.429  22.170  12.950
89932W        W62247  31.732  35.918   3.680
89933W        W62248  30.053  29.853   3.370
89934W        W62249  14.116  27.369   0.778
89935W        W62250  26.463   7.278  13.743
89936W        W62251   3.246  44.995  11.675
89937W        W62252   0.959  42.514   3.230
89938W        W62253  10.304   5.388  12.182
89939W        W62254  11.791   3.409  12.950
89940W        W62255  36.071  18.717  14.450
89941W        W62256  27.478   0.187   2.307
89942W        W62257  15.985  13.257  12.197
89943W        W62258   3.423   1.782  11.876
89944W        W62259  38.529   5.369   3.299
89945W        W62260  14.777   7.849   2.284
89946W        W62261  19.928  23.544  10.978
89947W        W62262  21.844   8.193   4.467
89948W        W62263  16.260  35.566  11.680
89949W        W62264  35.598  19.206   0.709
89950W        W62265  39.663  28.995   3.133
89951W        W62266  38.943   9.041   2.645
89952W        W62267   7.647   3.806  10.758
89953W        W62268  28.843  18.794  11.120
89954W        W62269  13.586  34.155   4.588
89955W        W62270  17.114  30.755  12.742
89956W        W62271   0.480   3.685  13.758
89957W        W62272   1.870   6.590   2.482
89958W        W62273  16.128  33.431  11.665
89959W        W62274  22.059  20.836  14.857
89960W        W62275  15.569  17.071  11.743
89961W        W62276   1.013  43.999   0.589
89962W        W62277  34.952  10.564   3.344
89963W        W62278  39.038  27.154  14.950
89964W        W62279  22.723  24.146  10.666
89965W        W62280  19.623  18.421  12.478
89966W        W62281  39.122  17.290  13.528
89967W        W62282  29.633  17.793  10.880
89968W        W62283   5.210  18.823   2.320
89969W        W62284  31.407  15.730  13.851
89970W        W62285  28.654  37.746  14.379
89971W        W62286  36.846  11.150  11.013
89972W        W62287  29.015   7.400   4.457
89973W        W62288  20.215  21.089   3.322
89974W        W62289  22.238  36.695  11.966
89975W        W62290   9.096  34.308   0.319
89976W        W62291  14.111  25.970  12.566
89977W        W62292  41.437   3.661  13.468
89978W        W62293  26.939   6.190  11.467
89979W        W62294  33.888  35.876   0.359
89980W        W62295  21.399  23.440   3.276
89981W        W62296  11.216  33.253  11.074
89982W        W62297  16.164  29.664  10.555
89983W        W62298   8.428  16.215   0.917
89984W        W62299  28.099  37.572   2.199
89985W        W62300  36.522  41.403   0.858
89986W        W62301  29.171  18.086   1.264
89987W        W62302  25.125  21.289   3.247
89988W        W62303  32.061  22.521  14.802
89989W        W62304   1.638  16.839  11.537
89990W        W62305  44.892  17.858  13.863
89991W        W62306   8.723   6.434  12.179
89992W        W62307  14.610  19.027  12.038
89993W        W62308  41.655  20.745   2.841
89994W        W62309  15.830  42.325   0.456
89995W        W62310  26.505  25.737  11.945
89996W        W62311  38.847  22.245  13.472
89997W        W62312  15.849   9.335  13.810
89998W        W62313  10.699  19.572   9.735
89999W        W62314  41.542  35.882  14.537
90000W        W62315  38.983  32.990  11.676
90001W        W62316  21.036  30.948   1.311
90002W        W62317  10.561  40.089  12.509
90003W        W62318   4.172  33.864   1.386
90004W        W62319  22.417  42.761   5.106
90005W        W62320  26.256  42.998   2.472
90006W        W62321  27.452  26.954   2.208
90007W        W62322   1.417  39.607   0.884
90008W        W62323  13.718  21.141  10.901
90009W        W62324  41.969  18.628   0.679
90010W        W62325  13.722  30.864   3.380
90011W        W62326  38.541  33.820   3.112
90012W        W62327  28.917  23.726   3.333
90013W        W62328  35.550  18.174   2.533
90014W        W62329  43.357   6.732  12.987
90015W        W62330  41.826  27.590  12.562
90016W        W62331   1.876   3.018  11.403
90017W        W62332  37.910  13.732  14.538
90018W        W62333  27.456   5.315  11.571
90019W        W62334   2.820   3.874  12.403
90020W        W62335  24.092   2.853  12.924
90021W        W62336  40.318  20.626   3.336
90022W        W62337  23.327   5.929   2.188
90023W        W62338  22.625   5.461   0.184
90024W        W62339   5.870  28.014  10.576
90025W        W62340  32.975  21.369   3.796
90026W        W62341  36.004  33.861   1.941
90027W        W62342  25.260  21.450   2.296
90028W        W62343   5.209  39.428   2.784
90029W        W62344  38.541  10.136  11.434
90030W        W62345   1.370  24.017   4.248
90031W        W62346   4.960   1.732   2.369
90032W        W62347  22.960  23.696  11.492
90033W        W62348  21.695  44.946   4.107
90034W        W62349  29.520  41.092   0.005
90035W        W62350  28.200   3.919  13.864
90036W        W62351  30.446  14.099  12.071
90037W        W62352  29.478  12.368   3.280
90038W        W62353  16.717  35.975  12.466
90039W        W62354  26.893  13.170  13.497
90040W        W62355  44.971  12.923  11.972
90041W        W62356  20.272  38.726  11.472
90042W        W62357  13.083  18.108  13.323
90043W        W62358  29.889  40.963  10.984
90044W        W62359  22.193  10.605  13.919
90045W        W62360  40.480  42.853  12.467
90046W        W62361  40.534  26.160  14.700
90047W        W62362  43.993  15.853   2.828
90048W        W62363  23.514  27.979   1.237
90049W        W62364  11.267  13.102  13.981
90050W        W62365  34.068  22.377  12.831
90051W        W62366  41.125  44.475   2.467
90052W        W62367   9.729  35.017  14.968
90053W        W62368  15.673  18.622  12.801
90054W        W62369   1.711  16.857  12.488
90055W        W62370  29.784  42.484   4.287
90056W        W62371  32.120  31.954   1.341
90057W        W62372  35.373  26.655   1.359
90058W        W62373  25.944  24.206  11.115
90059W        W62374  12.389  36.064   2.684
90060W        W62375  27.668  34.103   0.771
90061W        W62376   1.943  26.481   1.247
90062W        W62377  12.263  13.166  13.242
90063W        W62378  33.873  31.038  12.816
90064W        W62379  23.946  14.224  11.552
90065W        W62380   8.337  28.547  13.816
90066W        W62381  30.890  10.890  11.145
90067W        W62382  12.212  28.612  13.350
90068W        W62383  15.620  30.568   0.306
90069W        W62384  43.756   2.701  14.821
90070W        W62385  14.030   7.908   1.986
90071W        W62386  42.422  20.035  12.542
90072W        W62387   0.292  13.586   4.975
90073W        W62388  23.870  43.114  10.233
90074W        W62389  17.661   5.033  12.606
90075W        W62390   1.441  18.654  14.990
90076W        W62391  26.856  31.595  14.846
90077W        W62392  22.930  25.446   0.742
90078W        W62393  11.112  41.512  14.457
90079W        W62394  31.526   6.310  11.708
90080W        W62395   9.181  28.382  11.076
90081W        W62396  26.126  13.644  11.228
90082W        W62397  21.360  41.090  12.111
90083W        W62398  38.079  43.022  12.660
90084W        W62399  12.647  19.309  12.979
90085W        W62400  44.395  38.621   1.641
90086W        W62401  31.355  19.970   2.395
90087W        W62402  35.065   3.940  12.497
90088W        W62403   0.043  44.756  11.025
90089W        W62404  17.652  10.881   5.575
90090W        W62405  40.630   9.910  12.576
90091W        W62406  44.747  12.387   4.154
90092W        W62407  43.777  11.765  11.071
90093W        W62408  25.454  18.570  12.055
90094W        W62409  32.379  40.441  11.623
90095W        W62410  29.156   7.627  11.029
90096W        W62411  22.605  32.574   1.907
90097W        W62412  40.834   7.257  12.313
90098W        W62413  13.045  39.095   3.201
90099W        W62414   9.900  17.769   2.273
90100W        W62415  34.396  44.935  13.010
90101W        W62416  18.571  16.963  10.826
90102W        W62417  30.833  10.176  12.462
90103W        W62418  21.493  22.208  14.444
90104W        W62419  31.363   7.313   3.278
90105W        W62420   3.871  37.961   3.094
90106W        W62421  43.821  29.530  13.736
90107W        W62422  41.076   1.076  10.989
90108W        W62423  23.142  29.897   3.389
90109W        W62424   8.115   5.760  12.517
90110W        W62425  39.571  34.013   4.619
90111W        W62426  38.519  21.323  11.498
90112W        W62427  36.564   7.870  12.845
90113W        W62428  17.202   3.365  14.320
90114W        W62429  12.258   1.020  12.503
90115W        W62430   9.353   7.715   1.828
90116W        W62431  35.178  43.210   2.594
90117W        W62432  36.285  30.604   1.277
90118W        W62433  39.257  23.206   9.290
90119W        W62434  10.803  34.513   3.329
90120W        W62435  17.223   2.072   4.131
90121W        W62436   0.926   2.310   3.081
90122W        W62437  32.596  34.419   0.522
90123W        W62438  20.186   7.224  14.185
90124W        W62439  27.329  27.100  14.985
90125W        W62440  17.351  26.226  11.553
90126W        W62441  38.127  41.664  14.388
90127W        W62442  39.239   1.066   0.050
90128W        W62443  12.246  35.631   0.692
90129W        W62444  41.752  29.084  11.914
90130W        W62445  38.116   1.120   0.562
90131W        W62446  44.746  23.746   4.556
90132W        W62447  11.325  31.007  14.298
90133W        W62448   6.179   0.974   0.340
90134W        W62449  13.621  36.447  12.852
90135W        W62450  42.783   1.248   4.128
90136W        W62451  30.391  30.355  13.507
90137W        W62452   9.547  36.001  13.764
90138W        W62453   2.918  31.670   2.695
90139W        W62454   0.913  36.406  10.181
90140W        W62455  28.102  13.717  14.883
90141W        W62456  12.162  39.511   0.232
90142W        W62457  11.240   0.828  12.031
90143W        W62458   7.217  11.389  11.019
90144W        W62459   8.254  22.390  12.514
90145W        W62460  26.610   5.148   0.300
90146W        W62461   4.189  42.052  13.748
90147W        W62462  37.296  40.760   0.334
90148W        W62463  13.763  22.038  12.947
90149W        W62464   2.173  23.097   1.181
90150W        W62465  11.555  16.673   0.322
90151W        W62466  12.156   2.938   3.373
90152W        W62467  32.513  33.467  10.268
90153W        W62468   1.899   7.168  12.739
90154W        W62469  12.073  34.014   3.414
90155W        W62470  38.560  21.810   2.988
90156W        W62471  36.851  40.292   0.873
90157W        W62472  41.290  42.070  11.979
90158W        W62473   6.235  44.350  10.683
90159W        W62474   1.026  40.672  10.411
90160W        W62475   0.663   7.218   0.879
90161W        W62476  30.113  20.949   1.307
90162W        W62477  41.322  32.118  11.061
90163W        W62478  40.265  24.703   3.714
90164W        W62479   9.423  29.123   2.224
90165W        W62480  37.878  37.979  13.976
90166W        W62481  18.560  19.853  14.573
90167W        W62482  26.044   3.111   0.127
90168W        W62483  41.471   2.449   3.781
90169W        W62484  44.937  29.681   3.357
90170W        W62485  44.765   1.836  12.950
90171W        W62486  30.521  25.631  12.890
90172W        W62487  15.907  21.592   4.116
90173W        W62488   6.914  18.805   1.885
90174W        W62489   1.798   8.368   0.852
90175W        W62490   1.087  19.140   1.968
90176W        W62491  20.260  27.712  11.221
90177W        W62492  41.996  22.212   1.267
90178W        W62493   0.834  18.385   2.718
90179W        W62494  19.101   7.940   4.683
90180W        W62495  33.902  29.292  12.520
90181W        W62496  39.466  31.480   1.330
90182W        W62497  41.369  42.338  13.873
90183W        W62498   9.922  34.929  13.323
90184W        W62499  41.163  13.065   4.323
90185W        W62500  27.657  12.661  11.161
90186W        W62501  11.149  21.174  12.456
90187W        W62502  22.911   9.179  12.967
90188W        W62503  17.667   5.939  14.952
90189W        W62504  35.290  41.879   2.842
90190W        W62505  37.137  34.873   3.220
90191W        W62506  32.861  13.191  13.387
90192W        W62507  13.258   1.424   0.586
90193W        W62508  35.206  17.187   3.632
90194W        W62509  20.146  32.754   0.924
90195W        W62510   4.110  40.829   3.330
90196W        W62511  25.510  35.606   2.627
90197W        W62512   3.837   8.336  13.179
90198W        W62513  41.237  14.051   2.329
90199W        W62514   5.669  20.333   4.096
90200W        W62515  30.045  12.079  14.490
90201W        W62516  19.573  19.215  12.826
90202W        W62517  19.440   0.403  11.653
90203W        W62518  17.669  24.980   2.128
90204W        W62519  38.547  42.707   1.167
90205W        W62520  17.600   5.819   4.681
90206W        W62521  20.170   5.916   9.960
90207W        W62522  31.136  29.068   4.585
90208W        W62523  39.856  18.732   1.853
90209W        W62524   3.855  20.056   4.501
90210W        W62525  23.706  37.601   4.039
90211W        W62526  36.988  44.914  13.938
90212W        W62527   6.868   6.281   0.943
90213W        W62528  25.453   3.793   3.323
90214W        W62529  22.378  33.546   1.812
90215W        W62530  23.004   3.486   3.232
90216W        W62531   2.984  24.821   3.236
90217W        W62532  18.964  11.188  10.220
90218W        W62533  44.331  28.643   4.332
90219W        W62534  17.100  25.924  11.924
90220W        W62535  17.315  37.899   0.869
90221W        W62536   4.971  27.198  11.168
90222W        W62537  17.286  19.121   4.158
90223W        W62538   5.432   8.255  11.115
90224W        W62539   9.200  15.995  13.095
90225W        W62540  11.593  37.060   4.912
90226W        W62541   1.428  32.398  12.587
90227W        W62542  29.193  41.451   3.918
90228W        W62543   0.274  41.280   4.101
90229W        W62544  20.645   2.019   3.193
90230W        W62545  36.900  18.809  12.744
90231W        W62546   7.435   3.215  10.735
90232W        W62547  32.061  11.731  14.264
90233W        W62548  27.696  20.257  12.920
90234W        W62549  15.783  14.583   1.474
90235W        W62550   2.842  31.844   1.731
90236W        W62551   9.467  13.038   1.959
90237W        W62552  27.406  13.269   4.654
90238W        W62553  28.445  25.169  14.939
90239W        W62554  14.495  14.105  14.128
90240W        W62555  34.291  32.641   3.179
90241W        W62556  44.739  11.160   0.443
90242W        W62557   8.997  22.236  13.271
90243W        W62558  35.468  41.229  13.778
90244W        W62559   2.480  34.677  10.063
90245W        W62560   7.288  13.161   3.349
90246W        W62561   3.904  19.248  12.107
90247W        W62562  21.307  41.458   3.684
90248W        W62563  41.743  14.077   2.383
90249W        W62564   9.462   2.807  14.510
90250W        W62565   1.855   2.498  12.222
90251W        W62566  23.984  17.517  11.147
90252W        W62567  35.588  16.229  12.842
90253W        W62568  17.426  30.195  13.369
90254W        W62569   5.889   7.350  12.305
90255W        W62570   4.976  42.802   1.503
90256W        W62571  10.078   5.380  14.004
90257W        W62572  32.429   5.100  14.018
90258W        W62573  36.369  34.696  14.033
90259W        W62574  38.016  23.591   4.126
90260W        W62575  28.619  12.826  12.980
90261W        W62576  16.717  18.649  13.991
90262W        W62577   6.530  44.973   3.319
90263W        W62578   2.776  40.859   4.228
90264W        W62579  29.427  41.282   1.002
90265W        W62580  10.109  24.668   4.372
90266W        W62581  12.086  21.595   0.797
90267W        W62582  31.776   1.380  11.132
90268W        W62583  38.941  11.647   2.619
90269W        W62584  34.381  39.453  11.011
90270W        W62585   7.198  34.157  12.467
90271W        W62586   7.281   1.216  11.222
90272W        W62587  16.958  40.897   0.379
90273W        W62588  17.751  33.369   3.828
90274W        W62589   7.136  18.689  13.107
90275W        W62590  17.765  25.787   3.639
90276W        W62591  14.084  11.030   2.640
90277W        W62592  28.548  17.338   2.924
90278W        W62593  22.592  25.473   4.881
90279W        W62594   4.257   6.159  14.745
90280W        W62595  18.117  42.973  13.254
90281W        W62596   2.798  12.194  10.655
90282W        W62597  15.742  34.912  12.414
90283W        W62598  39.449  14.450   3.529
90284W        W62599  26.924   0.864   3.777
90285W        W62600  30.928  30.897  11.570
90286W        W62601  29.046  35.882   3.849
90287W        W62602   6.682  19.061   4.220
90288W        W62603  33.159  24.155   3.149
90289W        W62604  13.089   3.465  10.745
90290W        W62605  34.953  41.832  14.697
90291W        W62606   2.723  32.888   1.937
90292W        W62607   3.557  11.436  14.869
90293W        W62608  41.868  37.023   1.725
90294W        W62609  31.952  25.191  13.407
90295W        W62610   1.724  28.073  12.894
90296W        W62611  16.205   6.652  14.418
90297W        W62612  14.067  42.404  12.117
90298W        W62613  39.807  43.326   1.008
90299W        W62614  31.674  18.018  13.779
90300W        W62615  26.527  27.384   4.487
90301W        W62616  29.215  43.801   0.828
90302W        W62617   2.536  11.692  14.254
90303W        W62618  39.471  33.602  14.965
90304W        W62619   0.780  38.942   4.459
90305W        W62620   6.084   3.696  10.083
90306W        W62621   3.990  31.149   1.660
90307W        W62622  30.944  22.259   0.306
90308W        W62623  34.898   8.108  12.374
90309W        W62624  38.460   4.351   2.332
90310W        W62625  26.693  24.713  12.020
90311W        W62626   8.856  31.049  14.992
90312W        W62627   3.242  27.309   4.178
90313W        W62628  16.690  38.585   5.271
90314W        W62629  20.200  17.134  10.604
90315W        W62630  42.621   6.405   1.453
90316W        W62631  36.516  29.488   2.733
90317W        W62632  20.009  25.637   0.588
90318W        W62633   4.702  31.198  14.458
90319W        W62634  24.118   4.271  13.095
90320W        W62635   9.905  10.702  13.942
90321W        W62636  36.993  43.665   4.994
90322W        W62637  14.266  41.595   1.188
90323W        W62638  31.114   5.448  11.102
90324W        W62639   2.890  37.164  12.064
90325W        W62640  24.190  10.854  11.429
90326W        W62641   0.879  44.057   5.016
90327W        W62642   8.734  30.588  11.957
90328W        W62643  33.231  35.047   3.193
90329W        W62644  30.886  15.328   2.345
90330W        W62645  41.432   3.198  14.796
90331W        W62646   8.229   2.937  12.782
90332W        W62647   6.856  19.216  11.043
90333W        W62648  28.987  37.217   1.836
90334W        W62649   1.343  40.844  13.041
90335W        W62650  26.372  35.020   2.332
90336W        W62651  32.609  43.879  12.137
90337W        W62652  33.744  38.720   3.465
90338W        W62653  29.454   7.984  14.418
90339W        W62654  25.727  30.974   4.304
90340W        W62655  10.908   0.353   4.560
90341W        W62656  30.516  15.211  11.129
90342W        W62657  12.682   2.987   3.646
90343W        W62658  44.256   5.076  12.399
90344W        W62659  40.475  35.560  12.556
90345W        W62660  10.255  11.090  10.626
90346W        W62661  17.143   9.750  12.634
90347W        W62662  22.627   2.061   4.174
90348W        W62663  20.034  28.435  11.649
90349W        W62664  12.107  39.865  11.501
90350W        W62665  43.959   3.291  10.068
90351W        W62666  12.882   0.250  13.751
90352W        W62667   9.084  24.126   0.794
90353W        W62668  40.730  39.831   3.424
90354W        W62669   4.041  31.989   3.159
90355W        W62670  25.608  18.184  14.844
90356W        W62671  30.875  27.153   1.923
90357W        W62672  24.666  43.521   1.556
90358W        W62673  27.111  38.379   3.140
90359W        W62674  13.655  23.568  13.933
90360W        W62675   0.622  16.614   0.815
90361W        W62676  22.116  43.040  13.367
90362W        W62677   2.375  13.619  12.615
90363W        W62678  12.015  18.673  11.648
90364W        W62679  10.981  44.769  13.769
90365W        W62680  26.003  12.623  13.241
90366W        W62681  16.881  36.809   0.329
90367W        W62682   8.312   2.655   1.806
90368W        W62683  19.916  15.743   2.901
90369W        W62684  20.530   8.360  14.254
90370W        W62685  27.717   1.010  10.956
90371W        W62686   4.927   4.030  13.907
90372W        W62687  44.969   7.373   1.630
90373W        W62688   7.398  21.237   3.843
90374W        W62689  29.485  39.991  13.652
90375W        W62690  33.168  35.163  11.580
90376W        W62691  20.865   9.107   5.507
90377W        W62692  20.638   9.807   5.218
90378W        W62693   0.010  31.490  13.002
90379W        W62694  32.062  44.752  12.353
90380W        W62695  34.820  44.226  11.207
90381W        W62696  24.312  34.466   4.098
90382W        W62697  35.823  43.913   2.693
90383W        W62698  16.165  28.429  12.539
90384W        W62699  40.276  10.146  12.880
90385W        W62700  11.592  23.765  12.578
90386W        W62701   7.595   5.496   3.424
90387W        W62702  18.057  33.733   4.068
90388W        W62703  20.135  27.203   2.259
90389W        W62704  32.532   9.442  13.576
90390W        W62705   4.727  11.666   2.877
90391W        W62706  10.877  22.867  12.650
90392W        W62707  39.433  13.541   0.333
90393W        W62708  33.112  37.431   3.223
90394W        W62709  24.960  34.872  14.976
90395W        W62710  31.122   3.166   0.364
90396W        W62711  10.287  13.282   2.160
90397W        W62712  26.521  16.164   2.888
90398W        W62713  28.277   7.477  14.838
90399W        W62714  14.238  39.061   4.076
90400W        W62715  39.084   6.152  12.429
90401W        W62716  17.700  36.787  12.976
90402W        W62717  38.231  19.447   1.418
90403W        W62718  20.669   3.901   0.688
90404W        W62719   4.234  14.363  12.513
90405W        W62720  29.177  14.740   0.038
90406W        W62721  31.891  40.567   1.289
90407W        W62722  21.407  29.200  12.437
90408W        W62723  26.613  39.312   1.235
90409W        W62724  44.807  23.385  13.461
90410W        W62725  18.125  20.455  13.800
90411W        W62726  15.157  34.457   1.629
90412W        W62727  22.120  14.265   0.248
90413W        W62728  30.929  23.627   1.174
90414W        W62729  35.944  15.396  14.443
90415W        W62730  30.995   0.825  13.876
90416W        W62731  27.116  24.744   4.117
90417W        W62732   4.345  29.925  13.075
90418W        W62733  41.740  31.168   1.378
90419W        W62734  31.377  10.888   3.209
90420W        W62735  30.860  24.581   0.956
90421W        W62736   3.423  29.613   1.801
90422W        W62737  16.200   2.932   0.059
90423W        W62738   7.755  33.813   2.000
90424W        W62739  25.454  18.200   0.856
90425W        W62740  25.406  19.244  11.593
90426W        W62741  24.209   3.888  14.895
90427W        W62742  42.308  36.773   2.472
90428W        W62743  18.613  18.000  10.768
90429W        W62744   1.017   7.334  12.332
90430W        W62745   7.672  20.939  13.400
90431W        W62746  43.777   7.736   0.358
90432W        W62747  34.103  10.761   0.537
90433W        W62748  35.596  10.171   1.783
90434W        W62749  29.973  28.084  14.688
90435W        W62750   8.421  11.238   4.038
90436W        W62751  39.230  35.481  12.117
90437W        W62752  33.661   0.528   2.155
90438W        W62753  35.185  35.385  12.994
90439W        W62754  38.776  25.425  12.760
90440W        W62755  40.310  10.928   3.174
90441W        W62756  33.520  22.369   4.788
90442W        W62757   6.657  14.731   1.506
90443W        W62758  34.966  43.332   2.130
90444W        W62759   0.024  32.058  12.315
90445W        W62760  28.095  34.021   4.963
90446W        W62761  26.056  17.354   3.789
90447W        W62762   1.068  43.758  13.855
90448W        W62763  39.522  22.694   1.389
90449W        W62764  39.315  18.061  11.714
90450W        W62765  34.498  21.730   2.922
90451W        W62766   4.450  29.368   2.939
90452W        W62767  18.295  39.646  11.103
90453W        W62768  26.711  22.585  11.940
90454W        W62769   4.781  21.612  10.751
90455W        W62770  17.114   2.992   4.253
90456W        W62771   4.703   5.384  14.258
90457W        W62772  10.717  22.428  11.808
90458W        W62773   6.996  25.650  13.514
90459W        W62774  24.504  24.239  14.414
90460W        W62775  31.655  28.693   0.257
90461W        W62776  39.726  19.588   4.781
90462W        W62777  39.070  10.411   3.307
90463W        W62778  22.299  30.547   2.098
90464W        W62779  36.329  12.237  11.156
90465W        W62780  35.094  23.943   3.161
90466W        W62781  38.253  44.987   4.084
90467W        W62782   2.212  42.501  12.278
90468W        W62783  40.027  41.537   4.164
90469W        W62784  43.425  42.056  11.996
90470W        W62785   7.848  24.772  10.710
90471W        W62786  39.985  40.502   3.093
90472W        W62787  16.451  44.413  10.413
90473W        W62788   9.178   5.157   2.751
90474W        W62789  24.699  10.299   0.611
90475W        W62790  38.352  41.657   2.400
90476W        W62791  12.620   3.537  13.704
90477W        W62792  18.328  15.555   0.343
90478W        W62793  36.146  37.451  14.833
90479W        W62794   8.614  10.156  12.416
90480W        W62795  34.498  23.525   4.553
90481W        W62796  31.745  37.400   2.886
90482W        W62797  37.415  42.981   1.742
90483W        W62798  21.371  12.933   0.140
90484W        W62799   9.848   7.957   3.126
90485W        W62800   5.477  24.277   0.390
90486W        W62801  43.579   5.911   3.727
90487W        W62802  33.753  44.021  10.161
90488W        W62803  32.831  20.262  13.969
90489W        W62804   6.699  41.075   3.585
90490W        W62805   1.149  38.977  11.685
90491W        W62806   7.324  40.519   0.805
90492W        W62807  15.598   2.105  11.118
90493W        W62808  30.899  21.500  14.833
90494W        W62809  29.812  17.634  11.419
90495W        W62810  23.412   3.807   0.361
90496W        W62811  30.674  12.790  10.437
90497W        W62812  41.792  11.145   3.580
90498W        W62813   3.926   3.170  14.853
90499W        W62814   3.968  33.070   4.182
90500W        W62815  33.633  25.051   3.171
90501W        W62816  19.622  12.479  10.846
90502W        W62817  43.378  19.370  13.382
90503W        W62818  20.798   9.634   2.302
90504W        W62819  23.520  29.544   0.986
90505W        W62820  21.328  12.014   3.240
90506W        W62821  44.910  22.135  10.556
90507W        W62822  26.195   4.922  12.879
90508W        W62823  10.389  33.910   1.196
90509W        W62824  35.067  38.722   4.919
90510W        W62825  32.592  44.490   4.195
90511W        W62826  22.171   2.917  11.555
90512W        W62827  42.696  43.893   0.020
90513W        W62828  19.295  27.924  13.837
90514W        W62829  25.353  42.698   3.988
90515W        W62830  44.332   5.122   5.157
90516W        W62831  25.594   2.439  11.222
90517W        W62832  36.779  14.135  14.782
90518W        W62833  29.956  13.247   4.199
90519W        W62834  33.679  13.864   1.310
90520W        W62835  26.684   7.970  10.709
90521W        W62836   0.408   4.435   3.788
90522W        W62837  38.823  36.575  13.488
90523W        W62838  23.739  33.881   4.250
90524W        W62839  17.909   5.514  12.482
90525W        W62840  34.971  12.632  13.056
90526W        W62841   9.778  12.068   1.382
90527W        W62842  21.156  29.042   4.572
90528W        W62843  32.675   9.879  11.045
90529W        W62844   5.271  20.598  12.484
90530W        W62845  37.569  15.736  14.691
90531W        W62846  11.131  37.957   5.227
90532W        W62847  23.760  14.102   1.968
90533W        W62848  30.584   0.796   4.526
90534W        W62849  26.204  33.414   1.316
90535W        W62850  29.696  25.997   3.293
90536W        W62851   5.045   0.014  11.650
90537W        W62852   5.204   0.575  12.541
90538W        W62853   9.902  29.906  11.153
90539W        W62854  30.941  23.950   1.884
90540W        W62855   6.439  19.962   3.088
90541W        W62856   3.676   2.191  14.872
90542W        W62857  26.613  15.375  11.019
90543W        W62858  28.134   3.411  13.248
90544W        W62859  15.334  18.289   1.494
90545W        W62860  41.044  32.891   1.869
90546W        W62861  31.530  29.490  14.537
90547W        W62862  37.605  20.981  13.493
90548W        W62863  20.085   8.440   2.779
90549W        W62864  14.145   5.234  10.703
90550W        W62865  34.584   7.566  11.296
90551W        W62866   3.924  36.060   5.161
90552W        W62867  39.760  13.349  14.948
90553W        W62868  29.568  33.538   1.231
90554W        W62869  23.232  41.033  12.027
90555W        W62870  24.790  27.719   0.360
90556W        W62871  44.423  17.026   0.850
90557W        W62872   3.980  23.418  11.567
90558W        W62873  18.541  22.320  10.072
90559W        W62874   2.431   4.914  13.745
90560W        W62875   7.508  29.994  13.771
90561W        W62876  19.467  29.970   1.402
90562W        W62877  19.770   6.334   2.856
90563W        W62878  38.508   7.939   3.146
90564W        W62879  39.926   0.623   1.813
90565W        W62880  12.450   0.064   4.143
90566W        W62881  43.039  39.489  11.151
90567W        W62882  41.461  19.091  12.158
90568W        W62883   2.451   4.859  11.493
90569W        W62884  20.653  14.297   4.548
90570W        W62885  41.768  40.098  11.626
90571W        W62886  35.036   1.837   2.110
90572W        W62887  23.687  14.435   2.402
90573W        W62888  34.000  44.720   3.417
90574W        W62889   7.094  19.202   1.596
90575W        W62890  10.704   5.394  14.152
90576W        W62891  40.065  37.097   0.087
90577W        W62892  12.220  33.290   0.069
90578W        W62893  15.179  12.410  13.513
90579W        W62894  15.633  43.971  11.564
90580W        W62895   4.442  32.635  12.050
90581W        W62896  29.483  31.390   4.157
90582W        W62897  14.455  44.266   2.949
90583W        W62898   5.373   6.385  13.878
90584W        W62899  38.924   2.426  11.340
90585W        W62900  43.587  30.923   0.973
90586W        W62901  40.016  10.036  14.969
90587W        W62902  12.376  20.350  13.823
90588W        W62903  29.550  30.041  11.432
90589W        W62904  29.476   0.712   2.242
90590W        W62905  14.440   6.720  11.902
90591W        W62906  23.223  29.024   1.390
90592W        W62907  17.756   5.514   2.667
90593W        W62908  12.221   6.005  13.138
90594W        W62909  39.663  17.148   3.942
90595W        W62910  32.839  12.402  11.078
90596W        W62911  36.405  17.543   0.515
90597W        W62912  35.905  20.482  12.072
90598W        W62913  11.126  19.128  14.306
90599W        W62914  37.635  44.413  12.548
90600W        W62915   6.480  28.117   3.836
90601W        W62916  22.853   1.729   2.707
90602W        W62917   7.331  40.423   3.683
90603W        W62918  17.039  18.263   3.235
90604W        W62919  38.193  30.131   5.137
90605W        W62920   8.655   4.867   0.906
90606W        W62921  36.033  11.375   0.828
90607W        W62922   0.462  36.877   0.205
90608W        W62923  36.486   3.941  13.824
90609W        W62924  23.187  36.656   1.573
90610W        W62925  20.793  38.277   0.362
90611W        W62926  27.278  17.178  12.581
90612W        W62927   7.975   2.194  12.833
90613W        W62928  24.419  36.943   1.388
90614W        W62929  22.388  37.088  11.010
90615W        W62930  11.645  27.914   2.383
90616W        W62931  32.989  39.124  11.036
90617W        W62932  44.436   1.334  14.799
90618W        W62933  22.490  22.193  11.055
90619W        W62934  27.954   2.167  12.998
90620W        W62935  35.914  29.375   0.691
90621W        W62936   7.166  36.569  14.762
90622W        W62937  11.345  26.005   0.314
90623W        W62938   8.891   6.338   3.177
90624W        W62939  25.697  25.538  10.848
90625W        W62940  41.462  39.778   0.282
90626W        W62941   9.359  27.592  11.606
90627W        W62942  13.617   3.432  13.399
90628W        W62943  22.354  33.046  14.249
90629W        W62944  36.354  15.609   0.537
90630W        W62945  42.478   2.197  11.700
90631W        W62946  17.675  32.131  13.567
90632W        W62947  32.691  42.942  11.544
90633W        W62948   2.994   2.901  14.800
90634W        W62949  37.093  19.146   3.905
90635W        W62950  29.908  14.347  12.912
90636W        W62951  25.098  22.896  11.605
90637W        W62952  31.511  24.413  12.926
90638W        W62953  39.030   9.988   1.344
90639W        W62954  44.204  44.354   3.697
90640W        W62955  13.401  28.087  11.087
90641W        W62956  41.597  10.633   2.081
90642W        W62957  32.864  24.586   0.885
90643W        W62958  34.373  29.230  14.404
90644W        W62959  13.595  17.777  11.976
90645W        W62960  42.457  30.120   1.514
90646W        W62961   1.379  11.213  11.657
90647W        W62962  12.170  20.966  14.550
90648W        W62963  28.585   8.652   2.371
90649W        W62964  41.986  40.074  10.946
90650W        W62965  29.439   8.732   2.933
90651W        W62966  21.230  27.868  12.436
90652W        W62967   2.507  32.072   2.375
90653W        W62968  29.303  32.951  11.421
90654W        W62969  19.811  35.543  11.676
90655W        W62970  20.176  41.917   1.145
90656W        W62971  23.052  34.439  14.657
90657W        W62972  22.197  15.038   3.046
90658W        W62973  27.733  31.869  14.815
90659W        W62974  25.760  24.194   2.096
90660W        W62975  33.636  31.890   0.490
90661W        W62976  20.308  19.614   4.221
90662W        W62977  40.634   9.324  11.720
90663W        W62978  29.150  35.935   3.346
90664W        W62979  40.788   7.829   3.847
90665W        W62980  38.063  25.133  11.604
90666W        W62981  34.124  20.729   2.363
90667W        W62982  34.310   9.594   3.745
90668W        W62983  30.157   1.846   1.968
90669W        W62984  12.804  29.016   1.811
90670W        W62985   9.355   5.826   4.490
90671W        W62986  36.794  41.992  13.607
90672W        W62987  14.766  15.364   1.839
90673W        W62988  42.768  12.238   1.329
90674W        W62989  17.202   7.436   2.277
90675W        W62990   0.361  39.781   4.401
90676W        W62991  33.463  15.078  11.571
90677W        W62992  41.345  23.775  13.526
90678W        W62993  31.458  12.358   4.067
90679W        W62994  11.378   4.860   0.806
90680W        W62995  22.549   0.001   1.434
90681W        W62996  35.438   1.394   0.035
90682W        W62997  39.608   3.766   2.790
90683W        W62998  10.353  21.836  11.572
90684W        W62999  43.888  26.987   4.552
90685W        W63000  36.790   1.845  14.557
90686W        W63001  23.306  21.096  14.378
90687W        W63002  15.318  12.796  11.991
90688W        W63003  31.420  37.292   1.703
90689W        W63004  39.137  41.878   4.747
90690W        W63005  10.707  17.090   0.267
90691W        W63006  35.369  40.595   3.288
90692W        W63007  28.368   8.622  12.888
90693W        W63008  32.982  29.469  13.390
90694W        W63009  41.436  24.036  13.073
90695W        W63010  29.677  10.861  12.362
90696W        W63011   6.681  39.743  14.523
90697W        W63012  13.036   9.622  12.954
90698W        W63013   1.915  44.752  13.017
90699W        W63014  31.107  18.991  13.403
90700W        W63015  23.106  13.370   4.525
90701W        W63016  41.290  16.149   2.241
90702W        W63017  17.226  30.188   4.573
90703W        W63018  33.819  39.368   1.803
90704W        W63019  41.805   2.232  14.843
90705W        W63020   2.171  44.150  10.094
90706W        W63021  31.953  41.265  13.863
90707W        W63022  43.377   2.398   0.788
90708W        W63023   9.363   7.101  13.927
90709W        W63024  16.316  41.509  12.468
90710W        W63025  29.463  44.358  10.419
90711W        W63026  10.629  10.327  13.519
90712W        W63027  11.153  24.209  14.994
90713W        W63028   5.814  21.604   2.623
90714W        W63029  43.911  21.505  10.819
90715W        W63030   3.606  18.190  12.400
90716W        W63031  12.679  33.915   2.819
90717W        W63032  44.695  20.277   3.667
90718W        W63033  43.380   1.357  11.076
90719W        W63034  22.868   0.280   1.813
90720W        W63035  23.166  16.697   3.214
90721W        W63036   5.063  40.619   0.227
90722W        W63037  19.205  30.737   4.065
90723W        W63038  13.647  28.770   2.978
90724W        W63039  28.655  15.527  13.482
90725W        W63040   4.116  26.717  13.889
90726W        W63041   4.315   0.396   1.294
90727W        W63042  32.963   3.172  11.578
90728W        W63043   8.519  10.842   1.791
90729W        W63044  24.121   5.839  14.884
90730W        W63045  42.258  37.770  14.882
90731W        W63046  11.357  19.326   4.085
90732W        W63047  35.556  41.308   4.606
90733W        W63048  33.777   4.974  14.952
90734W        W63049  15.077  36.985   4.469
90735W        W63050  10.717   5.355   3.426
90736W        W63051   9.941  20.260  12.576
90737W        W63052  39.253  40.335   0.774
90738W        W63053  17.975  35.593  12.007
90739W        W63054  43.794  43.276   0.845
90740W        W63055  29.039  13.780   0.888
90741W        W63056  36.557   0.525   3.257
90742W        W63057  33.725  23.251  12.476
90743W        W63058   1.286   6.282   1.813
90744W        W63059  25.551  28.697   4.770
90745W        W63060  34.325  19.484   1.879
90746W        W63061  27.085  22.642   3.459
90747W        W63062  41.758  34.425  13.780
90748W        W63063   6.812  32.352  12.410
90749W        W63064  44.308  36.232  10.623
90750W        W63065  23.498  16.159   3.794
90751W        W63066  13.764  35.381   3.441
90752W        W63067  18.025  25.046   2.779
90753W        W63068  29.872   6.675  11.597
90754W        W63069   3.713  37.976  12.393
90755W        W63070  20.636  11.314   0.893
90756W        W63071  14.047  35.809   3.327
90757W        W63072  13.864   6.171  11.567
90758W        W63073  30.046  24.051   3.182
90759W        W63074  23.205   5.220   1.347
90760W        W63075  40.076  30.340   2.096
90761W        W63076  11.944   9.074  11.480
90762W        W63077  14.456  23.234  14.301
90763W        W63078  18.786  18.808  11.961
90764W        W63079  39.896  28.634  11.695
90765W        W63080   3.325  29.256  11.216
90766W        W63081  40.405   2.331  13.542
90767W        W63082  34.995  13.330  11.416
90768W        W63083  22.428  39.786  13.999
90769W        W63084  26.662  16.123   0.428
90770W        W63085  35.988   5.840   3.897
90771W        W63086  19.651  28.463   1.479
90772W        W63087   8.896  18.112  13.004
90773W        W63088  32.475  39.032   1.841
90774W        W63089  32.027  12.733   4.676
90775W        W63090  44.698  28.992  14.300
90776W        W63091  25.378  39.567  11.866
90777W        W63092  25.287  26.705   1.874
90778W        W63093   3.319  34.909   2.968
90779W        W63094  44.525  29.589   2.798
90780W        W63095   6.266  16.597   0.481
90781W        W63096  30.820  18.287   9.864
90782W        W63097  21.024  18.314   1.164
90783W        W63098   2.767  37.888   2.200
90784W        W63099   6.923  29.670   0.222
90785W        W63100   8.898  34.167   4.591
90786W        W63101  42.765  38.059   0.516
90787W        W63102  43.675  19.552   4.279
90788W        W63103  42.035  31.910  10.496
90789W        W63104  25.161  32.474  11.682
90790W        W63105  35.248  26.266  14.048
90791W        W63106  31.148  13.749  12.958
90792W        W63107  29.088  13.352   2.672
90793W        W63108  14.306  38.373   1.047
90794W        W63109  38.623  34.645  13.048
90795W        W63110  10.273  38.605  13.498
90796W        W63111  12.601  14.687  14.871
90797W        W63112  24.724  31.347  11.944
90798W        W63113  10.289  38.605   1.288
90799W        W63114  14.829  17.597  14.303
90800W        W63115  31.817  42.826   4.901
90801W        W63116  21.115  44.075   2.319
90802W        W63117   0.693   2.675  12.152
90803W        W63118  34.946   2.296   3.975
90804W        W63119  17.583  26.778  14.009
90805W        W63120  32.656  13.214   3.214
90806W        W63121  42.868  24.001  12.984
90807W        W63122  10.612  11.309  11.798
90808W        W63123  24.183   8.080  12.799
90809W        W63124  44.360   2.734  10.649
90810W        W63125  42.726  34.774   0.832
90811W        W63126   5.954  26.049  10.646
90812W        W63127  37.086  35.334   0.450
90813W        W63128   2.360  26.483   4.740
90814W        W63129  33.918   5.655   4.079
90815W        W63130  42.605  23.175   2.681
90816W        W63131  36.787  16.563   3.250
90817W        W63132   1.992  17.639  12.944
90818W        W63133   9.267  35.908   1.497
90819W        W63134  25.748  36.367  12.900
90820W        W63135  14.862  24.173  13.754
90821W        W63136  33.419   7.193  11.950
90822W        W63137  34.105   0.635   3.681
90823W        W63138  29.883  41.343  11.738
90824W        W63139  20.212  27.145  13.008
90825W        W63140  34.537  34.652   3.369
90826W        W63141   3.404   2.757   0.704
90827W        W63142  43.373  20.518   0.120
90828W        W63143  20.348  31.392   1.874
90829W        W63144  17.316   3.267  12.759
90830W        W63145  43.694  27.310  11.156
90831W        W63146  15.738  43.537  13.828
90832W        W63147  18.032  25.033   4.647
90833W        W63148  27.575  29.309  11.185
90834W        W63149  37.555  25.737  11.172
90835W        W63150  26.104  23.974   4.804
90836W        W63151  41.752  27.222   0.914
90837W        W63152   5.309   3.224  14.373
90838W        W63153  13.852  29.467  11.920
90839W        W63154  17.002  33.665   0.489
90840W        W63155  13.770  10.214  13.523
90841W        W63156  19.200  41.252   1.417
90842W        W63157  25.021  30.026   4.626
90843W        W63158  17.506  30.366  10.483
90844W        W63159  31.003  16.140  11.051
90845W        W63160  32.089  32.968  12.108
90846W        W63161   0.950   2.339   4.021
90847W        W63162  11.847   0.225  12.333
90848W        W63163   8.550  38.392  14.956
90849W        W63164  36.499  14.030  11.497
90850W        W63165  12.074   0.330  13.271
90851W        W63166  10.755  12.211   1.821
90852W        W63167  23.554  41.976  13.300
90853W        W63168  26.728   8.602   2.305
90854W        W63169  22.260  21.575   2.900
90855W        W63170  32.101  39.782   2.939
90856W        W63171  30.091  21.072   0.782
90857W        W63172  29.362  21.033  11.004
90858W        W63173  21.229  38.538   4.508
90859W        W63174  33.522  17.861   0.438
90860W        W63175  39.598  13.829   4.897
90861W        W63176  34.604  18.288  13.316
90862W        W63177   7.597  40.420   3.215
90863W        W63178  27.186  38.622   3.661
90864W        W63179  30.171   2.692   2.086
90865W        W63180  21.141  37.540   3.358
90866W        W63181  40.404   3.550   4.744
90867W        W63182   0.579  33.477   4.322
90868W        W63183  21.526  20.611   1.253
90869W        W63184  29.650  37.382   1.965
90870W        W63185   2.259  13.643  10.681
90871W        W63186  29.083  19.711   1.146
90872W        W63187   2.159  35.504   4.228
90873W        W63188  25.980  28.864  13.486
90874W        W63189  43.505   3.461  13.137
90875W        W63190   9.253  44.115   0.340
90876W        W63191  15.262  17.905  13.864
90877W        W63192  36.019  11.360   4.679
90878W        W63193   3.328  26.986   3.309
90879W        W63194  17.881   2.777  14.530
90880W        W63195  25.563  23.216  12.986
90881W        W63196  24.101  30.396  13.399
90882W        W63197  25.077  17.714   1.866
90883W        W63198  17.538  10.344   0.749
90884W        W63199  44.707  19.474  10.931
90885W        W63200  24.995  22.422  12.360
90886W        W63201  35.105  44.735  11.151
90887W        W63202  27.363  13.628   4.241
90888W        W63203  13.789  41.301  14.978
90889W        W63204  36.528   3.033  13.033
90890W        W63205  11.767  11.577  13.407
90891W        W63206  11.098  36.410   4.787
90892W        W63207   7.351   5.441  14.919
90893W        W63208  11.419  17.313   4.579
90894W        W63209  24.779  21.811   5.065
90895W        W63210   9.899  12.713   3.644
90896W        W63211   8.856  30.673  11.054
90897W        W63212  12.785  27.755   4.313
90898W        W63213   1.176  32.355  13.022
90899W        W63214  17.240  25.600  13.497
90900W        W63215   2.895   9.976  14.868
90901W        W63216   9.864  34.002  12.417
90902W        W63217  15.804  15.149   4.602
90903W        W63218  24.745   3.845   0.831
90904W        W63219  36.111   0.814   1.703
90905W        W63220  42.795  34.470   3.686
90906W        W63221   4.849  37.030   0.347
90907W        W63222  18.752  27.493  14.200
90908W        W63223  25.530  42.001  11.236
90909W        W63224   5.754   1.050  14.283
90910W        W63225   7.424   7.450   0.816
90911W        W63226  25.690  32.505   3.654
90912W        W63227   5.333   1.366  11.151
90913W        W63228  13.202  41.545   3.163
90914W        W63229  33.417  13.176   3.826
90915W        W63230  35.911  19.694  12.486
90916W        W63231  27.564  17.208   4.772
90917W        W63232   1.234   1.226  14.092
90918W        W63233  40.016  17.248   0.092
90919W        W63234   0.728  34.586  10.604
90920W        W63235  34.044  28.053   4.081
90921W        W63236   3.325   9.960  10.677
90922W        W63237   7.155  18.493  14.819
90923W        W63238  25.549  39.964   3.776
90924W        W63239  22.258  41.350   3.490
90925W        W63240  32.490  19.360  12.603
90926W        W63241  31.151   4.039  11.244
90927W        W63242  21.968  22.522   1.424
90928W        W63243   0.394  34.654   2.853
90929W        W63244   7.391  13.166   4.378
90930W        W63245  37.070  17.671  12.883
90931W        W63246  19.037  36.859  11.481
90932W        W63247  38.061  36.235  12.218
90933W        W63248   9.611  35.298   2.696
90934W        W63249  16.884  44.870   2.869
90935W        W63250  20.728  35.878  12.989
90936W        W63251  27.225   6.445  10.202
90937W        W63252  24.586   9.197  11.153
90938W        W63253  21.004  38.825   0.773
90939W        W63254   1.772  37.479  10.849
90940W        W63255  32.520  40.575  12.106
90941W        W63256  30.446  36.828   1.654
90942W        W63257  40.013  24.226  13.479
90943W        W63258   3.305  20.149   0.785
90944W        W63259   9.121  28.670   3.360
90945W        W63260  43.307  43.239  13.965
90946W        W63261  33.028  39.974  12.965
90947W        W63262   2.728  19.381   5.038
90948W        W63263  21.258   2.362   1.118
90949W        W63264  21.766   9.715   4.224
90950W        W63265  40.837   6.455  13.596
90951W        W63266  39.270  19.284   1.382
90952W        W63267  11.824  17.392   2.515
90953W        W63268  11.219  10.603   3.311
90954W        W63269  24.707  42.026   0.557
90955W        W63270  13.801  20.669  11.158
90956W        W63271  36.455  16.345  10.531
90957W        W63272  15.052  15.829   3.202
90958W        W63273  25.951  33.576   5.109
90959W        W63274  38.824  35.255  11.907
90960W        W63275  41.545  29.914   1.713
90961W        W63276  19.034  39.627   0.034
90962W        W63277  28.946  27.293  14.713
90963W        W63278  13.259  33.935  14.253
90964W        W63279  10.920  26.775   1.178
90965W        W63280  14.589  43.289  11.101
90966W        W63281  14.752  38.105  11.789
90967W        W63282  22.024  32.019  10.021
90968W        W63283  12.317  30.127   1.792
90969W        W63284  21.406   7.296   0.006
90970W        W63285  22.808  13.249  14.501
90971W        W63286   7.871  43.495  13.518
90972W        W63287  11.852  31.627   1.664
90973W        W63288  36.374  38.790  14.813
90974W        W63289  30.656  13.328  14.321
90975W        W63290  32.426  15.336  10.483
90976W        W63291   0.334   4.250   3.327
90977W        W63292  38.590  16.219  10.675
90978W        W63293  29.644   7.776   3.115
90979W        W63294   4.595  36.000   4.680
90980W        W63295   0.828  34.882  10.206
90981W        W63296  43.560  40.324   1.296
90982W        W63297  43.255  17.821   2.414
90983W        W63298  29.327  19.736  12.605
90984W        W63299   4.759  11.198   3.206
90985W        W63300  30.018   5.890   3.896
90986W        W63301  32.042  10.106   3.771
90987W        W63302   5.037  40.449  11.133
90988W        W63303  25.675  28.433  12.391
90989W        W63304  31.949  16.560  11.089
90990W        W63305  35.636   6.246   2.324
90991W        W63306   9.708   1.425  13.596
90992W        W63307   0.632  35.158  12.074
90993W        W63308  17.715   3.463   0.440
90994W        W63309  37.712   3.286  13.482
90995W        W63310  33.154  39.012   2.810
90996W        W63311  20.703  20.586   3.725
90997W        W63312   0.855  29.012  14.911
90998W        W63313  41.420  44.498  13.888
90999W        W63314  25.007  19.706  13.729
91000W        W63315  10.419  16.089  14.811
91001W        W63316  39.500  44.435  13.444
91002W        W63317  31.443  32.474   1.287
91003W        W63318  36.997  12.764  14.334
91004W        W63319   8.633   0.395  11.573
91005W        W63320   5.924  34.190  13.003
91006W        W63321  43.875  36.082  14.731
91007W        W63322  19.729   7.284  11.115
91008W        W63323  25.249  27.729  11.054
91009W        W63324   6.392  43.644   1.864
91010W        W63325   1.035  17.722  10.971
91011W        W63326  19.814   1.010   2.637
91012W        W63327  27.193  34.016   2.373
91013W        W63328  41.551  40.028  14.815
91014W        W63329  29.581  16.060  10.430
91015W        W63330  33.778  37.438   1.226
91016W        W63331  36.969  41.473  10.320
91017W        W63332   8.349  29.592  13.389
91018W        W63333   8.718   5.904  12.054
91019W        W63334  27.983  21.663   3.323
91020W        W63335  37.083  43.769   3.643
91021W        W63336  13.201  27.827  14.457
91022W        W63337  17.158  15.878   4.226
91023W        W63338  28.366  27.104   2.306
91024W        W63339  27.261  10.331  11.178
91025W        W63340  17.508  25.670   3.179
91026W        W63341  10.533  42.487  11.596
91027W        W63342  34.893  44.778  13.847
91028W        W63343  35.092  21.078   0.364
91029W        W63344   5.424   9.955  11.633
91030W        W63345  21.520  17.862   0.927
91031W        W63346  11.500   1.418   3.637
91032W        W63347   1.281  14.879  14.023
91033W        W63348  27.501  44.483   0.944
91034W        W63349  25.780  13.417  13.025
91035W        W63350   6.713  31.048   0.356
91036W        W63351  17.627  21.752   4.479
91037W        W63352  24.101  25.691   4.614
91038W        W63353  32.409  25.433  11.106
91039W        W63354  22.524  41.580  14.011
91040W        W63355   0.793   5.372   2.716
91041W        W63356   1.283  16.244  14.132
91042W        W63357  11.401  30.215  14.950
91043W        W63358  11.267  28.163   0.803
91044W        W63359  35.437  39.091   3.272
91045W        W63360  43.323  41.173   4.727
91046W        W63361  12.797  25.200  14.993
91047W        W63362  20.228  42.976  13.773
91048W        W63363   9.212  17.396   3.506
91049W        W63364   7.834  14.310  12.936
91050W        W63365   4.190  25.714  13.828
91051W        W63366  26.592  25.021  10.340
91052W        W63367   9.408   8.262  14.061
91053W        W63368   4.612  24.548  14.070
91054W        W63369  35.543  11.700   3.597
91055W        W63370  12.585   9.607   4.098
91056W        W63371  26.609  25.801  12.748
91057W        W63372  37.699  23.250   5.274
91058W        W63373  25.687  40.821  14.080
91059W        W63374   3.364  40.164   5.054
91060W        W63375   7.917  14.247  10.376
91061W        W63376  11.693  12.354   2.072
91062W        W63377   7.304  13.610   1.771
91063W        W63378  24.112  38.920  12.383
91064W        W63379  37.808  11.120  10.613
91065W        W63380  21.658  20.757   3.374
91066W        W63381  39.585  43.778  10.605
91067W        W63382  38.501   6.933  10.749
91068W        W63383  13.141  28.435  14.859
91069W        W63384  27.879  26.601  11.234
91070W        W63385  20.522  31.181  14.678
91071W        W63386  24.600  32.016   2.186
91072W        W63387  10.402  35.517  11.806
91073W        W63388  37.097  23.800  10.588
91074W        W63389  21.196  33.094   0.230
91075W        W63390  14.001  32.375  12.228
91076W        W63391  23.164  33.659   2.302
91077W        W63392  25.151  35.552  11.567
91078W        W63393  15.880  34.589  13.871
91079W        W63394  29.989  39.522  14.275
91080W        W63395   7.718   8.275   2.179
91081W        W63396  26.456  39.590  12.079
91082W        W63397  16.394  30.752  10.633
91083W        W63398  41.605  34.617   2.291
91084W        W63399   3.089  39.341   2.154
91085W        W63400   9.489   8.353  12.010
91086W        W63401   9.108  11.716   2.094
91087W        W63402  16.602  30.750   0.323
91088W        W63403  33.128  20.009  12.893
91089W        W63404  39.943  18.947  14.382
91090W        W63405  20.998  35.525   4.596
91091W        W63406  10.650  44.938  13.377
91092W        W63407   4.882   5.141   1.440
91093W        W63408  16.005  27.029   0.119
91094W        W63409  44.311  25.190  11.549
91095W        W63410  18.584  24.326   3.665
91096W        W63411  37.268  24.690   0.998
91097W        W63412   5.276  44.105   3.684
91098W        W63413  44.549  14.348   1.871
91099W        W63414   1.835   6.708   1.490
91100W        W63415  31.110  32.179  13.482
91101W        W63416  41.383  36.540  13.404
91102W        W63417  21.480  14.925   1.856
91103W        W63418  15.992  18.657   0.019
91104W        W63419  43.906  30.892  11.034
91105W        W63420   7.250  42.572  11.614
91106W        W63421   9.854  25.889   2.294
91107W        W63422   2.593  30.199  11.657
91108W        W63423   2.267  31.273   1.289
91109W        W63424   3.519  42.024   3.328
91110W        W63425  11.317   1.848   0.749
91111W        W63426   0.729  32.558   2.155
91112W        W63427   4.345  25.501   3.177
91113W        W63428  20.057  12.047  11.994
91114W        W63429  39.093  13.307  12.805
91115W        W63430  28.746  22.243  14.328
91116W        W63431   1.269  34.700   2.649
91117W        W63432   2.629   0.522   0.924
91118W        W63433   1.926  29.122   2.827
91119W        W63434  31.877  29.438  11.593
91120W        W63435  29.889  36.496  10.638
91121W        W63436  13.232  29.968  13.820
91122W        W63437  27.973  37.390  12.478
91123W        W63438  25.921  26.605   2.376
91124W        W63439   6.622  15.602   3.193
91125W        W63440  12.641  16.743   1.186
91126W        W63441  11.371  26.770   0.891
91127W        W63442  17.272  23.448   1.348
91128W        W63443   5.268  25.643  13.921
91129W        W63444  44.863  10.045  14.595
91130W        W63445   4.416  38.024  12.629
91131W        W63446   0.880  18.583  13.507
91132W        W63447  30.449  20.797   5.071
91133W        W63448   5.190   0.401   4.465
91134W        W63449  18.576  11.246   0.457
91135W        W63450  15.101   3.341   3.783
91136W        W63451  39.477  18.009  12.973
91137W        W63452  12.526  23.095   1.743
91138W        W63453  28.965  31.516   2.840
91139W        W63454   0.631  29.322  11.533
91140W        W63455   8.377  37.303   0.346
91141W        W63456  16.644  18.205  13.222
91142W        W63457  31.006  30.159  10.462
91143W        W63458  36.617   5.702   3.243
91144W        W63459  27.578  35.885   3.305
91145W        W63460  31.946  42.553  14.412
91146W        W63461   1.069  15.363  14.449
91147W        W63462   8.642  35.027   2.460
91148W        W63463  36.810  41.068  13.973
91149W        W63464   1.854  30.459   1.172
91150W        W63465   4.469   8.612   3.262
91151W        W63466   9.506  33.665  13.980
91152W        W63467  11.123   5.365   4.872
91153W        W63468  18.007   1.829   1.131
91154W        W63469  39.778  40.387   2.624
91155W        W63470  40.043  40.789  11.529
91156W        W63471  37.942  25.902  14.542
91157W        W63472  24.266   3.404   4.092
91158W        W63473  36.624  11.802  11.021
91159W        W63474  36.318  42.994   3.290
91160W        W63475  14.716   6.662   4.198
91161W        W63476   4.717  22.324  14.914
91162W        W63477  21.040   6.273  14.673
91163W        W63478  10.396  25.041  11.172
91164W        W63479  23.744  36.906   1.800
91165W        W63480  26.159   4.728  10.625
91166W        W63481  42.547  26.954  12.628
91167W        W63482   8.871   0.398  14.951
91168W        W63483  36.367   9.631  14.046
91169W        W63484  13.963   0.051  10.828
91170W        W63485   0.182  17.194   4.659
91171W        W63486  15.503  29.749   9.962
91172W        W63487  43.406  30.873  14.464
91173W        W63488  12.883  12.247   3.660
91174W        W63489  33.916  23.094   3.550
91175W        W63490  38.795  44.567   0.754
91176W        W63491   7.870   4.937   1.270
91177W        W63492   5.805  26.672   0.235
91178W        W63493  42.338  11.099   0.423
91179W        W63494  12.223   2.142   0.451
91180W        W63495   0.236  38.564  14.354
91181W        W63496   2.462  34.435  14.440
91182W        W63497  33.497  14.793  10.778
91183W        W63498  44.800  11.543  12.470
91184W        W63499  41.525  13.810   3.293
91185W        W63500  24.141  33.328   1.441
91186W        W63501  36.613  37.260  13.108
91187W        W63502  37.231  21.497   2.209
91188W        W63503  29.835  11.088  11.017
91189W        W63504   7.451  20.355  12.621
91190W        W63505   6.681  39.558   3.691
91191W        W63506   5.799   7.602   3.107
91192W        W63507  11.626  42.822   3.169
91193W        W63508  26.095   0.007  14.961
91194W        W63509  11.585  38.439   1.950
91195W        W63510  28.074  30.393   1.846
91196W        W63511  40.997  41.774  11.112
91197W        W63512   2.353  36.753  11.308
91198W        W63513  14.200   1.205  13.393
91199W        W63514  36.994  11.123  12.590
91200W        W63515   0.063   1.398  13.030
91201W        W63516  30.465  12.044  13.416
91202W        W63517  20.399  26.714  11.062
91203W        W63518   5.784   3.817  11.874
91204W        W63519  40.315  27.057  12.856
91205W        W63520  40.380   9.314   0.642
91206W        W63521  26.017  10.331   2.235
91207W        W63522   2.798  13.367   3.685
91208W        W63523   5.261   7.599   1.390
91209W        W63524  36.370  22.789   3.588
91210W        W63525  36.128  10.852   4.546
91211W        W63526   5.685  20.031   3.104
91212W        W63527   1.725  33.277  12.571
91213W        W63528  30.867   4.172  12.397
91214W        W63529  42.581   9.792   3.291
91215W        W63530  42.545  29.019  11.448
91216W        W63531  23.378  36.352   3.386
91217W        W63532   0.722  32.033   2.857
91218W        W63533  34.788  33.670  14.378
91219W        W63534  16.645  35.045  12.806
91220W        W63535  34.610   6.187   4.477
91221W        W63536  37.877   2.133  13.344
91222W        W63537  21.202  38.330   5.158
91223W        W63538   2.363  18.926  12.099
91224W        W63539   6.564  19.617  11.160
91225W        W63540  17.987   1.323   3.432
91226W        W63541  44.052  41.316  10.719
91227W        W63542  13.083  19.621  12.974
91228W        W63543  34.503   0.391   2.297
91229W        W63544  16.152  20.104  13.639
91230W        W63545   9.133  16.761  10.230
91231W        W63546  28.151   6.149  10.486
91232W        W63547  44.843  24.640   1.940
91233W        W63548  15.756  21.174   1.336
91234W        W63549  17.274  35.116   3.176
91235W        W63550  44.895  30.451   2.798
91236W        W63551  41.198  44.541   3.025
91237W        W63552  12.572  36.364  12.001
91238W        W63553  36.159  13.574  11.076
91239W        W63554  39.887  20.665  12.352
91240W        W63555   9.077  29.526   1.347
91241W        W63556  18.174  29.915   5.572
91242W        W63557   3.978  38.944   2.623
91243W        W63558   8.900  14.131   4.412
91244W        W63559  37.291  32.517   0.973
91245W        W63560   1.756  26.969  12.440
91246W        W63561  37.608  30.150  12.067
91247W        W63562  23.972  33.691  11.235
91248W        W63563  25.617  30.861  14.451
91249W        W63564   8.245  16.171   3.880
91250W        W63565  11.506  18.748   5.042
91251W        W63566  41.933  35.409  11.026
91252W        W63567  40.859  26.686  12.490
91253W        W63568  43.350  43.542   1.596
91254W        W63569  29.007  14.448  10.567
91255W        W63570  12.763  43.882  13.779
91256W        W63571  34.881  18.974  11.609
91257W        W63572   2.364  44.762   1.371
91258W        W63573   8.462   2.356   3.578
91259W        W63574   7.826  17.887  11.562
91260W        W63575  16.304   6.721   1.932
91261W        W63576  26.712  25.024   1.755
91262W        W63577  19.458   0.190   4.230
91263W        W63578  26.058  14.729   1.657
91264W        W63579  15.132  42.364  11.070
91265W        W63580   6.419  17.781   3.330
91266W        W63581  43.993   5.193   1.922
91267W        W63582  19.291   3.909  14.846
91268W        W63583  17.164  32.240  14.314
91269W        W63584  27.132  31.908  12.088
91270W        W63585  15.100   4.451  11.104
91271W        W63586  25.507   9.743   4.569
91272W        W63587  24.568  44.394   3.365
91273W        W63588   7.182  44.404  10.607
91274W        W63589  38.462  44.928   0.630
91275W        W63590  11.928  25.089   0.401
91276W        W63591  39.340  20.660  12.979
91277W        W63592   8.168  15.025   4.066
91278W        W63593  43.367   5.401   2.219
91279W        W63594  36.491  41.925   3.335
91280W        W63595  16.150   5.801   4.222
91281W        W63596   6.381  16.703  10.766
91282W        W63597  23.666  20.541   1.751
91283W        W63598  24.676   0.930  13.304
91284W        W63599  44.520  39.124   0.768
91285W        W63600  31.110   4.518  11.061
91286W        W63601  24.615   4.478   3.383
91287W        W63602  25.713   6.732   1.983
91288W        W63603  32.463  42.334   2.315
91289W        W63604  36.861  43.894   4.237
91290W        W63605   2.137  38.950  13.857
91291W        W63606  22.173  19.984   3.339
91292W        W63607  17.293  41.374   5.013
91293W        W63608   0.786  22.521   4.126
91294W        W63609  16.726   3.930  12.234
91295W        W63610  34.087  41.857   4.006
91296W        W63611  39.241  38.527  12.916
91297W        W63612  16.160  19.124   1.264
91298W        W63613   8.093  26.574   1.383
91299W        W63614  25.893  25.774  11.642
91300W        W63615  28.111  32.097   4.480
91301W        W63616  22.757  41.580   1.846
91302W        W63617  24.618  16.704   0.360
91303W        W63618   0.537  41.968   0.987
91304W        W63619  10.121  44.218   2.283
91305W        W63620  10.729  26.454  13.068
91306W        W63621  23.724  28.430   1.442
91307W        W63622  30.980  42.075  10.412
91308W        W63623  24.502  40.430   1.705
91309W        W63624   7.111  32.076   4.565
91310W        W63625   6.308  37.014   3.216
91311W        W63626  34.026  28.950   4.654
91312W        W63627   6.258   1.681   5.036
91313W        W63628  32.782  17.210   0.414
91314W        W63629  44.014  38.961   0.793
91315W        W63630  38.434  40.192  13.904
91316W        W63631  22.263  28.276  12.683
91317W        W63632  16.194  10.285   1.055
91318W        W63633  24.257  20.456  11.924
91319W        W63634  40.028   7.356   4.604
91320W        W63635  27.615  19.686   4.507
91321W        W63636  35.052  24.204   3.602
91322W        W63637  43.693  28.070  11.931
91323W        W63638  14.570  36.797  12.008
91324W        W63639  42.955   9.725   4.131
91325W        W63640  33.441   3.658   3.120
91326W        W63641  14.179  17.427   4.407
91327W        W63642   4.429   9.724   2.796
91328W        W63643  30.665  17.898  14.338
91329W        W63644  26.351  25.421   0.897
91330W        W63645  39.124   6.762   3.196
91331W        W63646  26.377  35.136  14.908
91332W        W63647  10.644  19.656  12.514
91333W        W63648   1.406  18.506  10.363
91334W        W63649  12.174   7.405   0.892
91335W        W63650  44.276  41.428  13.333
91336W        W63651  26.605  12.665   3.865
91337W        W63652  29.479   2.920   0.451
91338W        W63653  37.853  17.185   4.523
91339W        W63654  37.946  40.104   0.447
91340W        W63655  31.200  10.592  14.390
91341W        W63656  30.675   2.949   0.322
91342W        W63657  35.617  34.432   1.150
91343W        W63658  17.747  29.071  12.546
91344W        W63659  13.558  30.915  14.102
91345W        W63660  25.762  31.980   0.097
91346W        W63661  37.965  19.551  10.520
91347W        W63662   1.030   8.864   5.316
91348W        W63663  10.618  16.006   1.193
91349W        W63664  29.468  27.252   1.773
91350W        W63665   6.346  44.179   2.755
91351W        W63666   5.641  15.766  13.419
91352W        W63667  38.426   7.498  14.307
91353W        W63668  17.275  40.907  13.839
91354W        W63669  38.066  34.118   4.608
91355W        W63670  28.537  44.073  11.342
91356W        W63671  19.588   3.590   1.994
91357W        W63672   4.397  28.890  12.011
91358W        W63673  35.060  22.031   2.782
91359W        W63674   9.808  21.819  14.865
91360W        W63675  38.995  34.785  12.728
91361W        W63676  38.509   7.834  12.573
91362W        W63677   5.926  25.937   1.703
91363W        W63678  11.971  21.208   4.664
91364W        W63679  19.563  18.396   0.963
91365W        W63680  32.149  25.469  14.932
91366W        W63681   4.606  11.617   0.061
91367W        W63682  18.310   5.203  12.406
91368W        W63683  35.039   8.888   3.752
91369W        W63684  24.550  29.127  12.466
91370W        W63685  27.020  17.552  10.719
91371W        W63686  42.810  20.286   0.497
91372W        W63687  27.048  17.920   4.945
91373W        W63688  22.333  40.239  13.391
91374W        W63689   2.362  20.197   2.269
91375W        W63690  43.893   5.428  12.568
91376W        W63691  22.028   6.749  11.452
91377W        W63692  19.363  31.108  11.679
91378W        W63693  28.033  36.075   2.407
91379W        W63694   9.312  14.856   3.863
91380W        W63695   2.524  31.623  12.331
91381W        W63696  20.644   0.816   0.219
91382W        W63697  37.106  44.888   3.696
91383W        W63698  39.254   9.910   2.556
91384W        W63699  31.040  35.933   2.441
91385W        W63700  33.047  37.897  13.686
91386W        W63701  36.191  43.402   4.007
91387W        W63702  36.207  35.844   4.653
91388W        W63703  21.026   9.097  14.395
91389W        W63704  39.802  16.041   4.592
91390W        W63705  41.914  22.674  11.988
91391W        W63706  29.382  30.521   4.689
91392W        W63707   3.866  17.868   3.664
91393W        W63708  32.623  36.834  14.043
91394W        W63709  28.225   6.679  14.506
91395W        W63710  37.725  15.976  12.509
91396W        W63711  32.591   6.769   0.391
91397W        W63712  43.745  17.512   0.106
91398W        W63713   8.144  17.569  13.448
91399W        W63714  20.125  25.568  10.576
91400W        W63715   3.261  23.129  14.079
91401W        W63716  32.154  29.072  13.085
91402W        W63717  17.239  35.107   4.537
91403W        W63718  44.305  20.423   2.305
91404W        W63719  11.843  20.188  14.281
91405W        W63720  16.459  24.573   0.979
91406W        W63721   8.606   5.307  10.683
91407W        W63722  28.333  34.475   0.480
91408W        W63723  43.437   3.700   4.675
91409W        W63724  10.630  26.228   4.143
91410W        W63725  25.614  10.658  10.644
91411W        W63726  10.273  29.239  14.934
91412W        W63727   0.312  27.182  14.285
91413W        W63728  13.719  25.791  11.496
91414W        W63729  39.872  24.620  14.584
91415W        W63730  18.457  21.723   0.770
91416W        W63731  38.999  29.571   1.975
91417W        W63732   0.324  16.022   2.726
91418W        W63733  42.439   5.536  14.216
91419W        W63734   2.879  11.317   0.360
91420W        W63735  11.712   4.947  12.816
91421W        W63736   0.778  28.276  13.871
91422W        W63737  28.559  26.596  14.465
91423W        W63738  44.586  40.340   1.317
91424W        W63739  36.358  27.129  11.860
91425W        W63740   8.593  19.784   2.877
91426W        W63741  32.231  33.889   3.794
91427W        W63742  43.550  28.578  12.016
91428W        W63743  36.872  25.018   3.897
91429W        W63744  12.158  42.872   4.452
91430W        W63745  26.976   8.713  11.586
91431W        W63746  22.707  24.208   1.399
91432W        W63747  35.552  22.101   2.566
91433W        W63748  43.677   4.810  14.727
91434W        W63749  38.404  12.687  11.537
91435W        W63750  33.570  16.269  10.558
91436W        W63751  42.069   5.863  14.605
91437W        W63752  39.713  26.156   9.751
91438W        W63753  27.570  41.714  12.377
91439W        W63754  13.263   0.250   2.622
91440W        W63755   3.369  41.906  11.505
91441W        W63756  24.161  19.564  10.169
91442W        W63757   4.331  44.008   3.595
91443W        W63758  34.218   7.132  11.668
91444W        W63759  25.570  26.675   4.935
91445W        W63760  43.777   3.356   3.795
91446W        W63761  18.739  12.850  14.773
91447W        W63762   0.661   4.187   0.857
91448W        W63763  21.768  17.307  13.860
91449W        W63764  39.385  41.506   1.263
91450W        W63765   8.477  30.306  11.164
91451W        W63766  26.909  17.029   1.874
91452W        W63767  22.465  38.587   3.241
91453W        W63768   2.284   1.287   1.444
91454W        W63769   4.487  19.307   3.735
91455W        W63770  28.347  28.999  12.970
91456W        W63771  43.758  34.239   1.129
91457W        W63772   4.281  19.561  13.148
91458W        W63773   7.800  22.570  12.678
91459W        W63774  34.308  15.067   2.883
91460W        W63775  36.470  28.146  11.890
91461W        W63776  18.998  25.202  13.427
91462W        W63777   0.011   9.819  13.376
91463W        W63778  38.354  13.825  14.266
91464W        W63779  32.546  38.612   4.805
91465W        W63780  35.843  15.893   4.728
91466W        W63781  10.047  21.535  10.703
91467W        W63782  28.473  39.518   1.262
91468W        W63783  27.383  28.945  14.993
91469W        W63784  32.043   7.419  11.936
91470W        W63785  28.593  10.872   1.263
91471W        W63786  10.314  36.863   3.663
91472W        W63787   9.688   4.316  14.302
91473W        W63788  40.587  20.781   2.147
91474W        W63789   6.600  13.093   2.322
91475W        W63790  37.649  26.689   0.938
91476W        W63791  29.170  22.717   3.185
91477W        W63792  12.549  40.335   3.478
91478W        W63793  12.900   8.378  11.763
91479W        W63794  20.683   4.346   0.256
91480W        W63795  20.340  34.524  13.160
91481W        W63796   3.325   9.072   0.902
91482W        W63797  16.236   6.284   4.027
91483W        W63798  14.232  35.837   4.365
91484W        W63799   8.319  14.141   2.875
91485W        W63800  33.032  20.274   1.877
91486W        W63801  16.851  15.881   5.046
91487W        W63802  38.102  33.466   1.370
91488W        W63803  40.356  23.484   3.867
91489W        W63804  39.851  31.102   0.318
91490W        W63805   3.820  44.360  12.797
91491W        W63806  14.611  24.943   4.620
91492W        W63807  10.034  41.468  14.863
91493W        W63808  26.132  37.874   3.130
91494W        W63809  29.084  36.336  13.267
91495W        W63810  28.794  11.367  11.920
91496W        W63811  44.713  19.998   0.313
91497W        W63812  38.406  15.498   2.286
91498W        W63813  17.795  22.671   1.460
91499W        W63814  41.211  39.271   2.894
91500W        W63815   8.693  30.324   1.255
91501W        W63816   1.520  36.885  11.179
91502W        W63817   3.995   8.258  14.276
91503W        W63818  41.296  25.845  14.778
91504W        W63819  33.151  43.487  11.109
91505W        W63820  22.190  16.142   1.648
91506W        W63821  24.530  25.636   3.837
91507W        W63822  28.114  17.312  12.618
91508W        W63823  32.883  10.664  11.073
91509W        W63824   6.236  36.002  12.095
91510W        W63825  21.127  24.102  14.768
91511W        W63826  11.728  42.730   3.662
91512W        W63827  22.468  16.057   4.734
91513W        W63828  39.641  21.861  14.947
91514W        W63829   6.298   7.376   4.679
91515W        W63830   3.823  17.226   2.829
91516W        W63831  19.202  18.487   0.249
91517W        W63832   4.682  44.428  12.260
91518W        W63833  20.094  19.345   1.190
91519W        W63834  26.532  36.057   0.419
91520W        W63835  40.140   8.769  13.850
91521W        W63836  13.612  33.659   2.468
91522W        W63837  26.447  22.717   1.050
91523W        W63838  33.859  12.614  10.724
91524W        W63839  10.254   7.810  11.236
91525W        W63840  39.456  41.810  11.779
91526W        W63841  37.542   1.413   3.885
91527W        W63842  17.777  27.223   0.885
91528W        W63843  28.011  15.189  11.060
91529W        W63844  21.826  30.740   5.001
91530W        W63845  31.297   7.793  14.872
91531W        W63846  40.811  15.182   0.576
91532W        W63847  44.457  30.414  12.083
91533W        W63848  30.163  28.057   2.908
91534W        W63849   5.684  17.890   3.804
91535W        W63850  42.284  40.975  14.396
91536W        W63851  30.864  39.043  11.004
91537W        W63852  41.520  33.637  12.401
91538W        W63853  10.379  10.733   3.362
91539W        W63854  41.717   9.842   0.162
91540W        W63855  29.423  10.285   3.667
91541W        W63856  13.769  28.584   0.557
91542W        W63857  22.717  27.465   1.956
91543W        W63858  14.629  27.227   2.920
91544W        W63859  34.064  11.645   2.359
91545W        W63860  18.251   6.253   1.182
91546W        W63861   7.258   7.866   1.846
91547W        W63862  32.911   4.275   3.337
91548W        W63863  36.877  22.206  13.409
91549W        W63864  36.029  35.165   5.030
91550W        W63865  21.046  21.629   0.139
91551W        W63866  14.275   7.861  10.398
91552W        W63867   4.243  25.291   1.314
91553W        W63868  29.202   1.761   3.721
91554W        W63869  33.320  44.275  10.985
91555W        W63870  12.647  30.490   3.658
91556W        W63871  12.335  43.972  12.945
91557W        W63872  18.272  12.829  14.558
91558W        W63873  44.762   7.949   2.263
91559W        W63874  41.473   3.944   1.316
91560W        W63875  42.407  38.999   0.442
91561W        W63876  12.202  20.367  12.917
91562W        W63877   1.843   6.916  11.978
91563W        W63878  37.097  10.621  10.570
91564W        W63879  41.957  42.105   4.519
91565W        W63880  32.135  34.249   0.753
91566W        W63881   4.738  33.176   4.636
91567W        W63882  19.587  23.143  10.692
91568W        W63883   3.020  31.881   3.195
91569W        W63884   5.903  17.199   1.727
91570W        W63885  23.001  38.961   3.506
91571W        W63886  10.122  35.052   4.215
91572W        W63887  30.119  20.561   4.738
91573W        W63888  27.050  16.664  14.685
91574W        W63889  31.624   0.642  11.526
91575W        W63890   8.831   7.706   1.097
91576W        W63891  30.912  13.410   1.443
91577W        W63892  11.648  41.879   2.630
91578W        W63893  12.929  27.356   2.279
91579W        W63894  37.919  24.679   4.227
91580W        W63895  33.327  27.141  12.021
91581W        W63896   1.850  21.199   2.158
91582W        W63897  43.895  32.859  14.352
91583W        W63898  39.652   4.288   2.786
91584W        W63899  23.492  25.267   2.777
91585W        W63900  40.336  36.380  14.046
91586W        W63901  37.381   1.302   1.439
91587W        W63902  35.532  32.563   1.403
91588W        W63903  26.906  12.660  13.276
91589W        W63904   6.175  16.692  12.380
91590W        W63905  15.802  42.438  12.427
91591W        W63906   9.732  16.710   2.282
91592W        W63907  38.557  12.383  10.451
91593W        W63908  15.906  14.272   4.112
91594W        W63909  31.043  21.317   3.766
91595W        W63910  17.217  33.823  12.893
91596W        W63911   5.849  41.264   0.649
91597W        W63912  18.791   8.888   3.378
91598W        W63913  31.714  14.873   0.515
91599W        W63914  26.427   1.467   1.341
91600W        W63915  39.385  41.221  13.018
91601W        W63916  13.252  40.955  14.830
91602W        W63917  24.057  16.687   0.467
91603W        W63918   9.555  22.736   3.533
91604W        W63919   9.214  19.024   1.401
91605W        W63920  31.882  26.134  13.407
91606W        W63921   3.785  44.297   4.200
91607W        W63922  37.966   0.550   2.278
91608W        W63923   3.855  16.428   0.275
91609W        W63924  22.043  22.246   2.817
91610W        W63925  18.306  38.311  11.520
91611W        W63926   0.366  10.648   2.835
91612W        W63927  13.632  43.761   3.447
91613W        W63928  35.548  13.980  11.188
91614W        W63929   6.669  23.529  14.852
91615W        W63930  13.339   5.663   3.563
91616W        W63931  29.050   7.840   2.248
91617W        W63932   5.477  22.662  11.137
91618W        W63933  35.860   6.644  13.809
91619W        W63934  38.291  24.893  11.164
91620W        W63935   9.930  13.603   3.898
91621W        W63936  23.290  19.806   0.387
91622W        W63937  16.140  16.797   4.126
91623W        W63938  41.222  34.899   3.195
91624W        W63939   5.798  18.237   0.757
91625W        W63940  17.325  27.908  12.128
91626W        W63941   0.414  27.572  13.305
91627W        W63942  42.164  11.829   0.750
91628W        W63943  17.538  39.764   4.716
91629W        W63944  18.284  25.652   3.638
91630W        W63945   5.715  39.520   4.053
91631W        W63946  26.419  25.522   1.687
91632W        W63947  39.329  13.022   3.148
91633W        W63948  30.747  25.130  10.766
91634W        W63949  37.046   4.417   0.487
91635W        W63950   5.981  13.697   4.610
91636W        W63951   0.705  22.614   3.267
91637W        W63952  13.783  29.135   4.794
91638W        W63953  23.912  25.178   5.135
91639W        W63954  15.869  36.598  13.241
91640W        W63955  15.220  27.064   4.663
91641W        W63956  39.849  43.956   1.214
91642W        W63957  38.731  41.357   2.638
91643W        W63958  32.495  33.850  11.538
91644W        W63959  29.285  25.922   1.781
91645W        W63960  39.085  15.987  12.613
91646W        W63961  32.045  20.491  11.412
91647W        W63962  37.867  10.441  11.149
91648W        W63963  18.044   7.361   2.173
91649W        W63964  26.494  10.884  12.078
91650W        W63965  14.364  39.118  13.407
91651W        W63966  31.875  16.054   0.696
91652W        W63967  40.815  13.531  12.965
91653W        W63968  39.737  12.379  11.094
91654W        W63969   3.552  34.877   3.431
91655W        W63970  13.810  16.578   0.794
91656W        W63971  16.286  10.573  11.140
91657W        W63972  32.830   5.762   1.285
91658W        W63973   3.935   0.445  14.316
91659W        W63974  19.279   2.925  12.926
91660W        W63975   2.975  35.324   2.796
91661W        W63976   4.857  34.026  11.696
91662W        W63977  29.444  40.937   3.565
91663W        W63978   5.804  24.993  11.331
91664W        W63979  25.452  31.140   3.316
91665W        W63980  34.798  39.304  14.835
91666W        W63981  39.486  30.219   0.958
91667W        W63982  16.718  43.418   3.378
91668W        W63983  20.686   4.856   4.154
91669W        W63984   6.316  43.806   3.252
91670W        W63985   3.478   0.289  13.149
91671W        W63986  19.996  16.173  14.370
91672W        W63987  40.323  22.262   1.744
91673W        W63988  24.729  23.601  14.446
91674W        W63989  15.661   8.399   3.851
91675W        W63990  12.072  14.580   2.787
91676W        W63991  24.905  25.414  11.461
91677W        W63992   3.822  13.502   4.354
91678W        W63993  18.802  31.672  10.540
91679W        W63994   1.874   3.877  13.784
91680W        W63995  17.193   2.968   2.723
91681W        W63996  10.206  22.298  11.412
91682W        W63997  11.679  11.338   0.274
91683W        W63998  31.345  36.562   0.010
91684W        W63999  12.781  11.342  14.924
91685W        W64000  16.815  21.007  11.408
91686W        W64001  12.151  10.618  10.464
91687W        W64002  36.448   1.270   4.360
91688W        W64003   1.764  26.312  13.791
91689W        W64004   0.420   3.334   0.476
91690W        W64005   9.861  38.101   4.765
91691W        W64006  39.500  26.003   2.688
91692W        W64007  28.935   2.739   2.899
91693W        W64008   6.957  27.338  11.193
91694W        W64009   6.166  28.517   0.215
91695W        W64010  17.628  10.180   5.133
91696W        W64011  29.642  19.463   4.117
91697W        W64012  13.662   9.283   1.445
91698W        W64013  15.401   0.445   1.658
91699W        W64014  12.644   2.346   0.700
91700W        W64015  43.721  30.449  11.216
91701W        W64016  11.703  15.493   4.403
91702W        W64017  41.979   1.487  11.309
91703W        W64018   4.717  11.611   4.580
91704W        W64019  14.164  24.968   4.353
91705W        W64020   6.860  13.903   1.723
91706W        W64021  38.602  43.905  12.073
91707W        W64022  36.380  11.882  12.981
91708W        W64023  36.371  13.808   0.647
91709W        W64024  38.037  43.939   2.430
91710W        W64025  25.772  16.588  14.168
91711W        W64026  26.581   3.155  11.220
91712W        W64027   1.543  16.363   1.027
91713W        W64028  29.924   3.232  10.896
91714W        W64029  32.469  39.951   0.330
91715W        W64030  30.529  30.521   1.231
91716W        W64031  20.656  19.278   3.331
91717W        W64032   0.743  20.835  12.470
91718W        W64033   9.636  23.590  12.905
91719W        W64034  27.129  10.377   1.368
91720W        W64035  19.670   4.438   3.193
91721W        W64036  18.961  26.190  12.596
91722W        W64037  14.917  42.846   3.207
91723W        W64038  36.400  23.605  10.771
91724W        W64039  25.032  34.464  12.516
91725W        W64040  44.792  11.235   3.903
91726W        W64041  10.468  38.774   1.804
91727W        W64042  39.975  40.426   1.205
91728W        W64043  35.956   8.682  11.945
91729W        W64044  16.332  23.700  12.550
91730W        W64045   2.890  13.130  14.909
91731W        W64046   7.893  36.144   0.227
91732W        W64047  28.332   1.800  11.717
91733W        W64048  21.302   4.063  12.615
91734W        W64049  10.528  44.375   1.514
91735W        W64050   4.722   5.124   4.991
91736W        W64051  10.672  41.844   0.841
91737W        W64052  39.406   4.243   2.240
91738W        W64053  18.099  26.002  13.052
91739W        W64054  38.366  32.015  12.378
91740W        W64055  23.871  26.842   3.157
91741W        W64056  37.888  20.851   2.748
91742W        W64057  38.417   5.509  14.327
91743W        W64058  28.682  38.294  14.917
91744W        W64059  24.056  18.635  10.691
91745W        W64060   6.328   3.806  11.108
91746W        W64061  24.052  44.194   4.700
91747W        W64062   7.114  15.698  14.984
91748W        W64063   8.574   4.339   0.039
91749W        W64064   2.291  28.419  11.798
91750W        W64065  24.104  24.125  12.467
91751W        W64066  39.612  40.486  14.352
91752W        W64067  32.155  18.121   0.318
91753W        W64068   3.701  10.728  11.600
91754W        W64069  28.388   9.822  11.527
91755W        W64070   5.141  28.245   4.241
91756W        W64071  10.831  35.355  12.008
91757W        W64072   8.941   2.466   0.895
91758W        W64073  35.536  38.072  13.761
91759W        W64074  31.055  24.991  14.934
91760W        W64075   5.167   4.811   3.342
91761W        W64076  42.915  37.846  12.908
91762W        W64077  19.965  22.703   4.744
91763W        W64078  35.814  34.477  13.096
91764W        W64079   0.501  16.231  13.471
91765W        W64080   0.691  32.798   3.308
91766W        W64081  43.521  31.910   0.898
91767W        W64082  25.722  23.350  10.904
91768W        W64083  38.015  20.131  11.647
91769W        W64084  29.021   1.091   1.288
91770W        W64085  20.715   4.196  11.170
91771W        W64086   8.178  20.636  11.899
91772W        W64087  44.599  24.048  12.361
91773W        W64088  35.488   3.630  12.440
91774W        W64089  36.480  11.420  13.242
91775W        W64090  33.173  16.867   1.728
91776W        W64091   9.733  42.000  13.526
91777W        W64092   9.086  37.090   0.472
91778W        W64093  16.697  16.592   0.783
91779W        W64094   8.964  37.870   4.346
91780W        W64095  41.396  40.450   3.693
91781W        W64096  32.917  18.050   3.315
91782W        W64097  44.421  42.709  10.324
91783W        W64098  21.858  32.022  12.984
91784W        W64099  37.003  14.481   3.352
91785W        W64100  29.393  21.792  11.559
91786W        W64101  44.268  16.350  11.003
91787W        W64102  23.527  39.022   2.672
91788W        W64103  23.350  12.136   0.185
91789W        W64104   4.827   9.612   2.228
91790W        W64105  22.542   2.439  13.660
91791W        W64106   9.164  20.949   0.686
91792W        W64107   0.188  26.977   2.752
91793W        W64108  18.379  24.912  12.634
91794W        W64109  38.238  28.920   0.007
91795W        W64110  16.496  31.043  12.656
91796W        W64111  23.957   7.792  10.777
91797W        W64112   8.651  30.124   2.148
91798W        W64113  20.718  35.447  13.413
91799W        W64114  17.453  40.137  13.519
91800W        W64115  44.957  14.334  13.385
91801W        W64116  33.423  34.963  10.344
91802W        W64117  11.266  34.804   2.216
91803W        W64118   8.425   5.597   2.037
91804W        W64119  12.196  15.301  10.701
91805W        W64120  37.620  13.094  11.736
91806W        W64121   5.824  16.283   1.500
91807W        W64122  32.082  24.976  14.799
91808W        W64123  43.348  34.028   1.861
91809W        W64124   9.436  12.571  13.072
91810W        W64125  11.336   4.663  13.034
91811W        W64126  26.177   7.210  10.517
91812W        W64127  36.012  43.785   0.873
91813W        W64128   9.745  31.179  11.390
91814W        W64129  14.569  25.844  14.383
91815W        W64130  42.965  43.468   0.892
91816W        W64131   4.880   9.924  11.632
91817W        W64132  28.680   7.636   3.194
91818W        W64133  26.647   4.859  10.736
91819W        W64134  16.559  28.375   3.216
91820W        W64135  34.040  13.405  11.112
91821W        W64136   5.856  14.516   4.193
91822W        W64137   7.336   0.393  13.312
91823W        W64138  34.546  22.522   3.706
91824W        W64139   3.999   6.530   1.183
91825W        W64140  33.098  41.002  10.496
91826W        W64141  25.934   9.770   4.289
91827W        W64142   4.703  19.992  14.291
91828W        W64143   4.927  24.488  11.093
91829W        W64144   3.282  24.677   0.640
91830W        W64145  10.217  27.065  11.947
91831W        W64146   9.267  11.214  13.449
91832W        W64147  28.980   2.398  12.451
91833W        W64148  14.255  26.742   3.109
91834W        W64149  43.983   2.775   0.415
91835W        W64150  13.808   3.472   0.854
91836W        W64151  43.668  44.437   3.737
91837W        W64152  34.929  38.377  14.413
91838W        W64153  14.443  25.905   0.629
91839W        W64154   4.679   2.575   5.508
91840W        W64155  12.711   4.731   4.413
91841W        W64156  15.370  24.275   1.671
91842W        W64157  10.632  36.865   0.191
91843W        W64158  24.482  28.991  13.477
91844W        W64159  37.629   7.538   2.845
91845W        W64160  38.603  23.117  14.040
91846W        W64161  44.984  41.822  14.887
91847W        W64162  44.781  33.681   0.382
91848W        W64163  15.071  27.743  14.552
91849W        W64164  32.084   1.937  10.781
91850W        W64165  27.404  12.242   4.119
91851W        W64166  30.849  43.466  13.126
91852W        W64167  26.628  24.012   3.637
91853W        W64168  22.546  32.817  13.743
91854W        W64169  12.323  28.517  12.183
91855W        W64170  15.977  13.165   3.278
91856W        W64171   8.432  12.389  11.518
91857W        W64172  17.702  34.888   4.624
91858W        W64173  30.031  16.718   2.546
91859W        W64174  19.122  38.490  12.812
91860W        W64175  21.079  17.037  10.802
91861W        W64176  40.848   6.230   4.342
91862W        W64177  31.531  22.192  10.432
91863W        W64178  24.958  39.599  13.519
91864W        W64179  13.583  36.343  14.518
91865W        W64180  41.959  26.504  13.354
91866W        W64181  29.153  17.570   1.289
91867W        W64182  30.083  31.564  14.238
91868W        W64183  23.252  15.448   2.504
91869W        W64184  41.014   0.967  13.273
91870W        W64185   1.741   4.191   2.839
91871W        W64186  39.079   5.728   0.529
91872W        W64187   8.424  27.205  12.938
91873W        W64188  36.232  19.514  12.856
91874W        W64189   9.895  41.977  14.976
91875W        W64190  31.088  44.431  10.957
91876W        W64191   6.816  32.069  12.946
91877W        W64192  34.925  37.062  13.267
91878W        W64193   0.278   2.951   1.444
91879W        W64194  18.125  13.616   4.583
91880W        W64195  32.181  35.187   5.078
91881W        W64196  31.981  33.596  14.390
91882W        W64197   3.551  24.943  11.520
91883W        W64198  41.282  42.600  12.051
91884W        W64199   8.678  44.707  13.234
91885W        W64200  29.427  13.488  13.880
91886W        W64201  34.129  24.994   3.291
91887W        W64202  33.833  24.519   0.920
91888W        W64203  24.924  23.493  11.158
91889W        W64204  40.198  17.133   1.489
91890W        W64205   5.007  20.591   2.543
91891W        W64206  34.596  14.768   3.750
91892W        W64207  30.509  33.900   1.393
91893W        W64208   2.947  17.949   3.036
91894W        W64209   9.380  14.707  14.385
91895W        W64210  23.192   9.015  14.479
91896W        W64211  36.651   8.240   4.577
91897W        W64212   3.511  13.204  12.005
91898W        W64213  31.084  41.519  14.257
91899W        W64214   3.350  38.470  10.591
91900W        W64215  17.836  17.843   4.102
91901W        W64216  10.633   8.808   3.269
91902W        W64217   4.692  24.122   4.786
91903W        W64218   4.192   9.100   3.810
91904W        W64219  13.830  24.776  13.549
91905W        W64220  37.933  39.846  12.272
91906W        W64221  39.431  26.567   2.478
91907W        W64222  13.800   4.490  12.505
91908W        W64223  16.286  23.812   3.210
91909W        W64224  16.657  15.449  12.805
91910W        W64225  36.587  25.171  12.326
91911W        W64226   1.681  28.011   4.370
91912W        W64227  23.802  26.395  13.412
91913W        W64228  15.813  19.144  14.444
91914W        W64229   8.480  14.683   1.718
91915W        W64230  39.933  21.488  12.869
91916W        W64231  22.486  28.935  13.862
91917W        W64232  13.217   4.009   0.531
91918W        W64233  11.162   1.684   3.371
91919W        W64234  24.245   5.545  12.971
91920W        W64235  23.138  14.521   0.225
91921W        W64236  17.615   8.153  12.089
91922W        W64237  13.177  29.147  11.920
91923W        W64238  19.134  41.787  11.568
91924W        W64239   5.972  11.368   0.673
91925W        W64240  38.889  16.633  10.622
91926W        W64241  41.537   4.788   0.448
91927W        W64242  24.477  34.374  11.632
91928W        W64243  41.443  12.244  12.307
91929W        W64244  27.894  27.559   1.379
91930W        W64245   9.636  30.170  10.788
91931W        W64246  41.063  33.867   1.934
91932W        W64247  33.055  24.403   2.684
91933W        W64248  11.936   2.496   1.733
91934W        W64249   1.867  15.505   3.624
91935W        W64250  21.210  12.111  13.084
91936W        W64251  11.786  42.872   2.127
91937W        W64252  39.088  19.270  14.039
91938W        W64253   8.222  16.519   4.607
91939W        W64254  16.829  29.931   1.978
91940W        W64255  10.089  40.890  12.787
91941W        W64256   2.375  19.201   1.041
91942W        W64257  35.973  32.563  12.126
91943W        W64258  18.618   5.572  14.768
91944W        W64259  27.738   6.372   2.486
91945W        W64260  29.421   4.207  13.131
91946W        W64261  25.338  28.257  14.040
91947W        W64262  33.916  22.755  12.480
91948W        W64263  21.220  32.812   1.200
91949W        W64264   7.874  10.737   3.423
91950W        W64265   6.930   8.750  11.480
91951W        W64266  26.757  27.485  12.168
91952W        W64267   6.152   6.251   0.369
91953W        W64268  40.709   2.382  12.595
91954W        W64269  33.686  15.061   4.264
91955W        W64270  26.899  38.345  11.498
91956W        W64271   9.626   5.125  13.902
91957W        W64272  39.623  36.365  12.039
91958W        W64273  29.442  34.074  12.891
91959W        W64274  12.244  15.363   3.261
91960W        W64275  22.662  42.389   1.497
91961W        W64276   8.687  16.252   4.722
91962W        W64277  41.296  28.191  14.528
91963W        W64278  34.388  12.155   2.674
91964W        W64279   2.837   2.733  13.374
91965W        W64280  33.567  19.769  13.855
91966W        W64281  32.543   1.161  10.701
91967W        W64282  39.305  39.084   2.702
91968W        W64283  12.307  20.005  14.196
91969W        W64284   7.145  15.581   1.288
91970W        W64285  24.037  19.409   2.897
91971W        W64286  42.067   9.846  12.310
91972W        W64287  15.262  29.030  12.811
91973W        W64288  23.055   7.101   1.889
91974W        W64289  14.300  30.573  11.997
91975W        W64290  41.982  14.360  13.329
91976W        W64291  13.307   5.702   1.273
91977W        W64292   0.757   5.930  13.527
91978W        W64293  11.828  28.572   0.357
91979W        W64294  37.884  12.886   1.086
91980W        W64295   4.366   5.388  12.405
91981W        W64296  34.597  28.044   3.910
91982W        W64297  43.358  40.611   1.923
91983W        W64298  33.578  13.043   0.978
91984W        W64299   0.878  21.633   1.052
91985W        W64300  21.190  19.772   2.332
91986W        W64301  16.714  23.572  14.681
91987W        W64302   2.933  25.678  10.999
91988W        W64303  40.538  22.613   4.253
91989W        W64304  42.241  31.997  12.837
91990W        W64305   6.824  10.749   4.605
91991W        W64306  35.832   3.766  13.817
91992W        W64307  13.902  28.476  11.702
91993W        W64308  38.012  44.752   3.672
91994W        W64309  44.151  32.537  13.005
91995W        W64310  38.475  30.415  13.368
91996W        W64311  20.431  26.665  11.925
91997W        W64312  38.866   4.595  12.315
91998W        W64313  34.691  17.478   5.055
91999W        W64314   5.750  34.598   2.682
92000W        W64315   7.404  35.509  12.097
92001W        W64316  14.849  40.472   4.913
92002W        W64317  37.322  29.080   0.630
92003W        W64318  20.508   8.891   3.239
92004W        W64319  33.421  26.075  11.676
92005W        W64320  28.537  19.544   2.838
92006W        W64321  11.753  40.884   0.379
92007W        W64322  44.485  30.849   3.412
92008W        W64323   8.777  28.149  11.294
92009W        W64324  28.122  44.826   2.826
92010W        W64325   2.577   0.745  10.695
92011W        W64326  43.513   8.668  11.974
92012W        W64327  24.495  17.808  12.893
92013W        W64328  31.487  14.650  11.585
92014W        W64329  31.071  42.386  11.744
92015W        W64330  25.026  30.928  13.343
92016W        W64331  17.679  10.915  12.900
92017W        W64332  13.068   2.206  13.754
92018W        W64333   4.478  37.691  11.119
92019W        W64334  24.661   5.567  13.302
92020W        W64335  19.009  37.553  12.266
92021W        W64336  10.900  17.999   2.656
92022W        W64337  29.891  34.532  14.065
92023W        W64338  24.936  36.629   0.732
92024W        W64339  20.624  21.057   3.930
92025W        W64340   5.522  40.898  10.729
92026W        W64341  26.959  19.991  14.499
92027W        W64342   1.953  33.451  11.680
92028W        W64343  33.071   1.795  11.571
92029W        W64344  19.681  16.299  13.423
92030W        W64345  23.235  37.517  14.306
92031W        W64346  42.746  12.624   2.727
92032W        W64347  41.804  14.664  14.796
92033W        W64348  36.627  24.244   4.854
92034W        W64349  40.009  27.090  13.947
92035W        W64350  20.905  21.625   0.988
92036W        W64351  12.737  42.933   1.837
92037W        W64352  18.234  20.510  14.292
92038W        W64353  27.953  32.439   4.103
92039W        W64354  37.884   8.232  14.963
92040W        W64355   6.188  23.349   2.869
92041W        W64356  42.812  42.041  13.016
92042W        W64357  20.657  11.171   4.710
92043W        W64358   0.755  42.109   0.457
92044W        W64359  20.990  12.733   2.448
92045W        W64360  28.649  32.780   1.356
92046W        W64361  17.317  25.185   3.157
92047W        W64362  36.361  30.143  14.233
92048W        W64363  14.428  25.274   2.318
92049W        W64364  34.590  20.986   3.668
92050W        W64365  42.925  22.996  14.737
92051W        W64366  31.632  32.166   3.370
92052W        W64367  25.452  35.309   2.187
92053W        W64368  22.977  10.908  11.101
92054W        W64369  37.374   1.023   5.253
92055W        W64370   9.607  44.919  11.521
92056W        W64371  16.199  29.012  13.369
92057W        W64372  24.290  15.952   0.479
92058W        W64373  43.686  20.044  11.175
92059W        W64374  38.824   4.683  10.138
92060W        W64375  40.526   2.715   2.319
92061W        W64376  22.031  12.965   4.269
92062W        W64377  30.643  40.124  14.305
92063W        W64378  20.810  15.796  14.271
92064W        W64379  21.520   6.654   0.349
92065W        W64380  16.269  27.170  14.269
92066W        W64381  12.810  41.281  14.444
92067W        W64382  38.034  11.787   0.413
92068W        W64383  21.576  26.494   0.709
92069W        W64384  25.778  12.279   3.251
92070W        W64385  22.613  21.052  11.550
92071W        W64386  41.664  10.524   1.585
92072W        W64387  15.933  32.639  11.145
92073W        W64388  39.950  34.892  10.589
92074W        W64389   2.848  19.166  12.078
92075W        W64390   5.765   3.399  11.587
92076W        W64391  26.228  24.232  14.329
92077W        W64392  33.893  39.724   3.186
92078W        W64393  33.664   3.432   5.057
92079W        W64394  27.443  10.143   1.894
92080W        W64395  39.151  34.782  10.130
92081W        W64396  35.446  38.815  12.947
92082W        W64397  23.122  39.881   2.573
92083W        W64398  17.553  31.627   1.778
92084W        W64399   5.136  27.706  10.415
92085W        W64400  40.731  44.981  14.385
92086W        W64401   8.900  25.045   0.389
92087W        W64402   6.259  11.683  11.907
92088W        W64403  29.599  39.191  14.366
92089W        W64404  39.079  23.949   4.699
92090W        W64405  38.099  29.508  12.429
92091W        W64406  27.397  14.206   4.823
92092W        W64407  26.961   9.701   1.419
92093W        W64408  17.605   9.093  14.825
92094W        W64409   9.306   3.957   1.314
92095W        W64410  16.640  14.552  14.997
92096W        W64411  28.515  23.780  10.368
92097W        W64412  27.994  39.329   1.255
92098W        W64413  42.048  33.860   3.658
92099W        W64414  38.672  14.722  13.072
92100W        W64415  28.494   3.965   3.206
92101W        W64416  40.825   1.319   3.866
92102W        W64417  32.415  29.184   1.043
92103W        W64418  39.088  17.699  13.871
92104W        W64419  44.086   3.407  14.287
92105W        W64420  40.933  38.327  10.694
92106W        W64421  24.956  15.262   3.766
92107W        W64422  19.606  22.461   1.290
92108W        W64423  17.610  41.796  14.459
92109W        W64424  35.844  10.859  11.322
92110W        W64425  25.740  17.819  12.556
92111W        W64426  20.170  33.573   4.362
92112W        W64427  44.310  16.724  13.058
92113W        W64428  17.211  16.202   3.802
92114W        W64429  11.012  25.723  12.033
92115W        W64430  17.096  23.333   0.869
92116W        W64431  10.314  41.076   1.243
92117W        W64432  28.669  43.998  13.142
92118W        W64433  11.859  20.141   2.748
92119W        W64434  33.424  12.121   1.051
92120W        W64435  22.989   9.163   1.628
92121W        W64436  40.099  19.266   4.558
92122W        W64437  29.061  22.610   2.119
92123W        W64438  41.572  33.626   3.626
92124W        W64439  27.576  13.924  11.117
92125W        W64440  24.062   6.715   3.408
92126W        W64441  40.441  19.915  12.633
92127W        W64442  25.136  10.782  12.801
92128W        W64443  33.973  39.136  13.505
92129W        W64444  24.249   4.748   0.927
92130W        W64445  34.893  10.204  13.837
92131W        W64446  27.253  18.291   2.917
92132W        W64447  33.551  24.002   2.164
92133W        W64448  29.226  21.754   4.008
92134W        W64449  27.006   4.846  10.095
92135W        W64450  41.240  10.412  10.726
92136W        W64451  39.802  25.165  11.990
92137W        W64452  10.659  17.271   2.352
92138W        W64453  40.416  10.334  14.871
92139W        W64454  22.669   0.811  11.127
92140W        W64455   1.193   7.195  10.524
92141W        W64456  23.124   7.457   0.976
92142W        W64457   9.378  13.609   4.834
92143W        W64458  15.183  20.639   1.110
92144W        W64459  20.490  34.901   1.918
92145W        W64460   0.191  18.255   2.329
92146W        W64461  32.651  42.839   0.364
92147W        W64462  35.576  21.073   0.043
92148W        W64463   0.149  18.149   4.622
92149W        W64464  29.856  44.115   4.860
92150W        W64465  21.555  17.691   3.279
92151W        W64466   3.217  14.709  13.496
92152W        W64467  37.530   2.393  14.013
92153W        W64468  17.593  42.212   0.906
92154W        W64469  25.900  29.027   1.113
92155W        W64470  29.365  22.960   3.635
92156W        W64471  41.708  14.155  12.942
92157W        W64472  14.315   4.847  10.399
92158W        W64473  21.871  12.209   1.496
92159W        W64474  23.088  38.308  11.499
92160W        W64475  34.391  31.928  11.292
92161W        W64476  30.190  44.332  11.542
92162W        W64477  30.160  20.690   3.833
92163W        W64478  10.966  20.687  11.266
92164W        W64479  24.921  16.761   3.661
92165W        W64480  10.186   4.155   4.756
92166W        W64481  14.832  39.143  11.595
92167W        W64482  21.797   2.496   4.969
92168W        W64483  27.678  20.966   4.069
92169W        W64484  29.148  14.184  12.474
92170W        W64485   9.809  31.843  10.169
92171W        W64486  10.091  14.114  10.710
92172W        W64487  21.120  13.714  11.989
92173W        W64488   5.803  33.027   0.854
92174W        W64489  12.904  32.455  10.413
92175W        W64490  13.334   5.692  13.068
92176W        W64491  33.193   1.583  13.301
92177W        W64492  35.129   1.194   4.520
92178W        W64493  25.968   9.328   3.322
92179W        W64494  12.840  30.537  13.216
92180W        W64495  14.686   8.834   2.183
92181W        W64496  20.095  26.590  11.476
92182W        W64497  19.170  36.450  14.616
92183W        W64498  32.875  31.896  10.690
92184W        W64499  21.213   0.394   4.612
92185W        W64500  35.372   0.937   1.546
92186W        W64501  14.203   5.930   4.504
92187W        W64502  25.827   0.374  11.866
92188W        W64503   0.700  23.640   4.231
92189W        W64504  12.938  22.617  14.798
92190W        W64505  15.784   6.739   1.848
92191W        W64506   9.864  14.372  14.933
92192W        W64507  34.645  37.521   4.052
92193W        W64508  44.020  34.890   3.136
92194W        W64509  32.252   7.599   4.094
92195W        W64510  39.856  12.905   2.262
92196W        W64511  13.349   1.454  13.783
92197W        W64512  30.629  38.578   1.252
92198W        W64513  11.633  19.148   2.199
92199W        W64514  20.021  24.010   3.371
92200W        W64515   7.808   5.286  13.152
92201W        W64516   7.688  22.888  10.405
92202W        W64517   7.448  31.535   4.168
92203W        W64518  25.620  26.458  11.125
92204W        W64519   7.133  25.162   0.734
92205W        W64520  39.407   2.758  11.172
92206W        W64521  33.096  33.438  11.143
92207W        W64522  34.688  38.391   4.127
92208W        W64523  30.564   9.640  11.733
92209W        W64524   6.023  44.984   4.152
92210W        W64525   1.157  39.790   4.508
92211W        W64526  40.831  27.379  14.459
92212W        W64527   4.292  16.120   0.363
92213W        W64528  25.737  19.682  11.544
92214W        W64529  43.374   3.766   1.881
92215W        W64530   9.179  25.987   3.220
92216W        W64531  40.356  39.603   2.457
92217W        W64532  40.971   2.271   0.728
92218W        W64533  12.656  43.543   2.895
92219W        W64534  28.979  25.253   1.299
92220W        W64535  17.960  29.635  10.275
92221W        W64536  27.631  11.896  12.533
92222W        W64537  27.176   0.739   1.141
92223W        W64538  32.397  29.544   4.178
92224W        W64539   0.921  38.146   2.807
92225W        W64540   5.386  23.947   3.729
92226W        W64541  26.570   6.815   5.501
92227W        W64542  14.849  38.459  14.570
92228W        W64543  27.183   9.331   4.062
92229W        W64544  35.648  42.256  14.385
92230W        W64545   2.221   8.649   1.844
92231W        W64546  39.250  14.286   3.021
92232W        W64547  10.101  30.317   1.259
92233W        W64548  16.191   7.788   1.273
92234W        W64549  15.678  11.326   0.199
92235W        W64550   3.203  43.837  12.024
92236W        W64551  39.553  21.512   1.775
92237W        W64552  32.689  23.291  12.585
92238W        W64553  10.206  15.728  14.458
92239W        W64554   9.779  17.765   4.908
92240W        W64555  44.508   9.444   2.403
92241W        W64556  24.691   0.466   4.550
92242W        W64557  29.497  23.705   1.424
92243W        W64558   2.777  26.172   4.737
92244W        W64559  11.168   0.302   1.747
92245W        W64560  18.007  11.140  14.450
92246W        W64561  19.585  32.174  10.114
92247W        W64562  35.655  19.180  13.954
92248W        W64563  30.629  28.926   2.536
92249W        W64564  42.472  22.665  14.945
92250W        W64565   7.732  42.292  13.854
92251W        W64566  37.351  29.614   2.422
92252W        W64567  35.499  41.494   2.585
92253W        W64568  14.220  30.701  13.484
92254W        W64569  28.436   5.245  14.844
92255W        W64570  17.248  11.606   0.404
92256W        W64571   0.438  23.162  14.749
92257W        W64572  35.310   7.600  12.627
92258W        W64573  16.031  18.813   5.082
92259W        W64574  27.443  28.358  12.869
92260W        W64575  15.459  25.668   3.199
92261W        W64576  39.106  31.984   0.534
92262W        W64577  16.056  38.036   1.222
92263W        W64578   5.249  21.332  14.225
92264W        W64579   3.331  43.316  12.117
92265W        W64580  43.922   5.007  12.843
92266W        W64581  26.595   8.966  12.920
92267W        W64582   7.846  16.136   1.191
92268W        W64583  25.943  21.136   2.738
92269W        W64584   1.511  37.642  13.307
92270W        W64585  27.103  43.669  14.775
92271W        W64586  26.992  21.581  11.059
92272W        W64587   3.279   7.886   2.259
92273W        W64588  32.404   9.367   1.284
92274W        W64589   2.217  40.421  13.440
92275W        W64590   7.737   0.014   4.005
92276W        W64591  11.416  25.069  10.148
92277W        W64592   4.374   8.456  10.517
92278W        W64593  22.368  37.996   2.165
92279W        W64594  18.393   2.684   0.447
92280W        W64595  24.397  21.100   2.257
92281W        W64596  15.332   8.395  11.086
92282W        W64597   6.316  27.626  14.142
92283W        W64598  23.189  17.023  11.125
92284W        W64599   7.920  27.227  12.014
92285W        W64600  20.561  14.115   2.299
92286W        W64601  13.834  29.535   2.394
92287W        W64602   0.236  16.692  14.791
92288W        W64603  33.633  37.950  10.445
92289W        W64604  32.566  25.703  14.766
92290W        W64605  43.343  29.895  14.392
92291W        W64606  21.729   9.947  12.940
92292W        W64607   1.195  42.495  10.689
92293W        W64608  18.194   6.885   0.547
92294W        W64609  14.574  24.611  12.452
92295W        W64610  29.726  38.532  14.935
92296W        W64611  15.501  24.596   1.130
92297W        W64612  42.773  33.808  11.943
92298W        W64613  12.600  10.649   3.283
92299W        W64614  39.095  37.536  11.631
92300W        W64615   4.328  18.599  11.124
92301W        W64616  13.332  33.807  10.960
92302W        W64617  21.598  20.310   5.154
92303W        W64618  40.047  41.252  12.400
92304W        W64619  22.104   5.641   3.138
92305W        W64620  17.204  34.338  12.903
92306W        W64621  33.008  11.330  11.861
92307W        W64622  37.893   0.234  13.501
92308W        W64623  11.401  42.852   0.818
92309W        W64624  33.878  14.750   0.412
92310W        W64625  39.879   6.127   1.843
92311W        W64626  37.451  36.566  11.172
92312W        W64627   7.213  32.627  12.623
92313W        W64628   9.327   1.006   4.949
92314W        W64629   8.880   5.374   0.853
92315W        W64630  20.355   7.480   1.934
92316W        W64631  35.428   7.743  14.078
92317W        W64632   0.508  32.521   2.890
92318W        W64633  37.827  16.721  12.052
92319W        W64634  41.015  23.224  13.791
92320W        W64635   5.521  30.688  11.561
92321W        W64636  37.849   1.176   0.105
92322W        W64637  31.138  43.936  10.795
92323W        W64638  36.151  19.760   3.010
92324W        W64639  42.238  42.263  10.675
92325W        W64640  28.500  38.008   2.393
92326W        W64641  28.021   2.269   2.359
92327W        W64642   4.684  27.546  12.703
92328W        W64643  23.516   6.704  14.359
92329W        W64644   6.278  15.713  11.258
92330W        W64645  12.743  33.521   5.359
92331W        W64646  32.637   0.544  13.822
92332W        W64647   7.825  10.177   0.345
92333W        W64648  21.262   7.258  14.028
92334W        W64649  43.774  41.034  12.557
92335W        W64650  39.634  14.347  13.556
92336W        W64651   5.496   0.781   4.296
92337W        W64652  19.381  33.046  12.916
92338W        W64653   2.281   6.696   2.187
92339W        W64654  32.064  37.891  11.666
92340W        W64655   3.362  30.904  14.473
92341W        W64656  37.916  11.607   4.652
92342W        W64657  16.506  38.257   4.336
92343W        W64658  13.542   2.451   0.907
92344W        W64659  10.017  25.140  10.227
92345W        W64660  20.261   8.274  13.100
92346W        W64661  31.355  27.318   2.136
92347W        W64662  26.508  12.486  11.559
92348W        W64663  39.209  27.174   5.062
92349W        W64664  12.089  31.855  11.925
92350W        W64665  15.217  25.046   0.302
92351W        W64666  11.842  15.645   1.748
92352W        W64667  34.434  24.119  10.682
92353W        W64668  35.697   3.073   0.687
92354W        W64669  23.255  29.415  11.560
92355W        W64670  15.841   1.697   3.732
92356W        W64671  40.027  21.498   0.835
92357W        W64672  36.900   7.247  14.665
92358W        W64673  38.889  37.629  10.251
92359W        W64674   8.663  17.552  13.459
92360W        W64675  29.980  11.799   4.638
92361W        W64676  32.709  12.330  12.962
92362W        W64677  13.502   8.794  14.281
92363W        W64678  44.655  37.465   1.734
92364W        W64679  20.143  19.045  12.039
92365W        W64680  15.558  28.127   3.367
92366W        W64681   0.695   1.813  11.089
92367W        W64682  29.072  27.682  12.089
92368W        W64683   1.252  35.526   2.430
92369W        W64684  31.187  36.086  12.578
92370W        W64685  40.879   1.857   1.353
92371W        W64686  28.222  20.898  14.865
92372W        W64687  28.924  25.555   1.741
92373W        W64688  13.023   2.627  14.912
92374W        W64689  29.493   8.386   0.186
92375W        W64690   5.991  39.881   2.619
92376W        W64691  37.007  23.413   0.914
92377W        W64692  25.123   0.889   1.932
92378W        W64693  31.083  43.274  14.843
92379W        W64694  33.711  21.001  12.006
92380W        W64695  23.525  16.352   3.323
92381W        W64696   4.931  13.606  11.253
92382W        W64697   6.237  44.041   0.949
92383W        W64698   8.141  39.514   1.893
92384W        W64699  25.819  34.165  10.016
92385W        W64700  36.823   9.080   4.634
92386W        W64701   1.791  10.658   0.266
92387W        W64702  22.430  40.201  11.429
92388W        W64703   8.253  24.971  10.425
92389W        W64704  39.404  30.661  14.227
92390W        W64705  15.119  17.412  13.905
92391W        W64706  14.168  44.376  13.744
92392W        W64707  26.076  11.315   4.186
92393W        W64708  14.949  13.202   4.390
92394W        W64709  10.124  18.960   3.649
92395W        W64710  38.439  44.838   2.251
92396W        W64711  44.265   5.885  11.764
92397W        W64712  10.103   3.888   1.474
92398W        W64713  41.377  10.821   4.533
92399W        W64714  37.019   8.083  14.782
92400W        W64715  28.745  20.736  14.540
92401W        W64716  37.003  42.355  13.942
92402W        W64717  20.947  11.587   4.667
92403W        W64718  39.035  14.201   2.106
92404W        W64719  31.683  16.051   2.369
92405W        W64720  40.913  21.502  14.519
92406W        W64721  14.652  19.794  10.709
92407W        W64722  15.626  20.965  11.565
92408W        W64723  39.444  23.680   1.249
92409W        W64724  14.620   3.310  14.485
92410W        W64725  24.899   1.114   3.343
92411W        W64726  14.785   0.004   2.650
92412W        W64727   1.385  33.483   4.582
92413W        W64728  10.418  41.224   3.547
92414W        W64729  15.957   8.405   0.979
92415W        W64730   5.672  31.322  13.419
92416W        W64731  34.798  16.199  11.142
92417W        W64732  15.086  35.859  13.160
92418W        W64733  41.504  42.560  12.976
92419W        W64734  21.737  36.674  11.919
92420W        W64735  11.168  34.180   3.172
92421W        W64736  22.645   1.361  10.387
92422W        W64737  26.778   5.783   0.967
92423W        W64738  43.916   9.641  11.011
92424W        W64739  10.886   2.851  13.543
92425W        W64740  39.460   1.791   2.297
92426W        W64741  18.707  39.453  10.850
92427W        W64742  29.368  18.459   4.066
92428W        W64743  15.189  12.338  11.738
92429W        W64744   1.263   3.215  10.628
92430W        W64745   1.912   9.148  14.471
92431W        W64746  44.353  36.394   3.862
92432W        W64747  14.784   0.717  14.504
92433W        W64748   2.504  36.532   2.886
92434W        W64749   4.513   8.777   0.045
92435W        W64750  17.060  27.510  13.992
92436W        W64751  11.860   5.722  13.908
92437W        W64752  43.806  16.112  10.867
92438W        W64753  38.105   6.446  12.740
92439W        W64754  12.742  19.183   0.446
92440W        W64755  16.618  37.971  14.983
92441W        W64756  42.735  41.881  11.237
92442W        W64757  21.199  28.532  14.799
92443W        W64758  29.690  21.889  11.974
92444W        W64759  44.004  28.978   3.239
92445W        W64760   5.734  10.746   1.476
92446W        W64761   1.869  17.137  11.183
92447W        W64762   4.295   5.988   1.506
92448W        W64763  34.571  39.962  10.320
92449W        W64764  12.164  12.332   2.335
92450W        W64765  14.551  25.613  12.842
92451W        W64766  24.217  21.727   2.963
92452W        W64767   9.612   9.847   0.741
92453W        W64768  30.002  43.389  14.005
92454W        W64769   7.461  10.327   4.187
92455W        W64770  23.514  29.634  12.073
92456W        W64771   9.870  28.515   0.309
92457W        W64772   0.700  22.087   3.818
92458W        W64773  18.162  32.655  14.682
92459W        W64774  44.262   8.664  12.330
92460W        W64775  13.262  18.289  10.297
92461W        W64776  13.076  34.454   0.889
92462W        W64777  22.174  23.353  12.999
92463W        W64778  44.861   6.809   0.838
92464W        W64779  41.247   3.351   4.683
92465W        W64780  28.267  25.941  11.408
92466W        W64781  30.824   6.860  14.447
92467W        W64782  22.764  13.938   5.146
92468W        W64783  28.925   7.581  10.590
92469W        W64784  37.975   9.326  11.625
92470W        W64785   3.575  38.049   2.677
92471W        W64786  18.147   3.871   4.292
92472W        W64787  27.264  15.579  12.112
92473W        W64788  16.784  43.173   0.738
92474W        W64789  27.239   5.703   1.767
92475W        W64790  27.362  43.794   1.192
92476W        W64791  43.237   6.402   3.842
92477W        W64792  40.811  15.078   1.077
92478W        W64793  24.650  26.586   3.746
92479W        W64794  40.583  26.453   4.109
92480W        W64795  32.815  30.401  13.993
92481W        W64796   0.118   3.733   0.319
92482W        W64797  26.136  38.819  12.928
92483W        W64798  32.060  12.345  10.727
92484W        W64799   3.325   2.605  12.535
92485W        W64800  16.653   6.628  12.383
92486W        W64801  13.700  37.893   1.890
92487W        W64802  28.103  20.689  12.379
92488W        W64803  28.565   0.824  14.091
92489W        W64804  40.035  27.112  12.399
92490W        W64805  22.477  20.293  12.782
92491W        W64806   6.296  42.777  14.368
92492W        W64807  30.218  25.507   1.251
92493W        W64808  13.566  33.597  12.494
92494W        W64809  12.806  43.256  14.733
92495W        W64810  29.021  11.102  11.541
92496W        W64811  31.464  40.774  11.458
92497W        W64812  37.988  35.249  13.446
92498W        W64813  13.780  32.956  13.903
92499W        W64814  37.794  17.460  11.627
92500W        W64815  20.989  39.610   5.387
92501W        W64816  12.621  15.881  14.974
92502W        W64817   4.936  12.189  11.873
92503W        W64818  29.138  30.503   4.105
92504W        W64819  34.465   2.432   4.145
92505W        W64820   4.980  10.767  12.816
92506W        W64821   6.321  23.708  11.934
92507W        W64822   9.240  40.587   3.843
92508W        W64823  18.554   9.194   2.558
92509W        W64824  31.721   0.104  14.940
92510W        W64825  19.316  40.448  13.196
92511W        W64826  31.642   5.259   0.268
92512W        W64827  41.467   1.773  13.341
92513W        W64828  38.161  31.189  13.064
92514W        W64829  13.137  32.584  14.813
92515W        W64830  18.557   4.747  12.504
92516W        W64831   5.330   0.861   0.900
92517W        W64832  30.941  36.888   1.063
92518W        W64833   2.621  21.636   3.703
92519W        W64834   0.532  33.884   2.269
92520W        W64835   5.704  24.525  11.523
92521W        W64836  42.389   6.227  14.854
92522W        W64837  30.530  42.227   0.701
92523W        W64838  19.134  12.054   1.712
92524W        W64839  26.671  44.010  10.977
92525W        W64840  18.796   9.820   2.810
92526W        W64841  15.864   1.785   2.802
92527W        W64842  32.631   7.998  12.494
92528W        W64843   0.720   4.744  13.367
92529W        W64844  30.472  32.001  13.874
92530W        W64845  37.350  32.556   2.834
92531W        W64846  31.212  24.039  13.163
92532W        W64847  13.522   0.178   1.394
92533W        W64848   5.673  18.478   1.457
92534W        W64849  21.281  27.821   5.270
92535W        W64850  41.982  41.202  13.027
92536W        W64851  33.044  32.054   2.108
92537W        W64852  41.385   8.927  10.989
92538W        W64853  24.761  27.031  13.124
92539W        W64854  18.360   6.269  12.317
92540W        W64855  22.696   4.422   1.810
92541W        W64856  28.409  20.575   3.755
92542W        W64857  13.572   8.928   3.249
92543W        W64858  14.661  34.530   3.862
92544W        W64859  44.720  38.215  11.447
92545W        W64860  20.580   5.676  10.850
92546W        W64861   2.356  30.284  10.342
92547W        W64862  10.821  15.025   4.322
92548W        W64863  15.133  32.582  14.869
92549W        W64864  29.342  33.064   4.871
92550W        W64865  19.844  20.221   2.725
92551W        W64866  17.161  39.906   0.887
92552W        W64867   4.287  17.181   1.201
92553W        W64868  39.391   3.730  14.304
92554W        W64869  40.961  43.321  12.921
92555W        W64870  38.475  21.054   4.893
92556W        W64871  38.141  20.087   3.820
92557W        W64872  11.945  16.650  10.556
92558W        W64873  41.064  35.418   0.468
92559W        W64874  10.586  30.455   1.423
92560W        W64875   2.223  28.282   1.370
92561W        W64876  36.776  38.388  10.711
92562W        W64877  42.359  35.023  12.137
92563W        W64878  21.661  19.677   4.580
92564W        W64879  29.399  22.685   1.723
92565W        W64880   6.933   5.892   0.208
92566W        W64881   0.034  40.225  14.534
92567W        W64882  34.553  13.720  13.375
92568W        W64883   5.185   1.556  12.967
92569W        W64884  33.128  21.579   4.298
92570W        W64885  29.518  33.068  11.994
92571W        W64886  39.823  41.510  14.327
92572W        W64887  10.362  37.601   2.296
92573W        W64888   6.457  23.925  12.575
92574W        W64889  16.738  32.580  14.945
92575W        W64890  43.354  34.971  14.640
92576W        W64891   0.000   5.891   3.605
92577W        W64892  42.217  11.734   2.598
92578W        W64893  20.258  28.052  10.780
92579W        W64894  22.762   9.182  14.710
92580W        W64895  13.714  28.003  11.535
92581W        W64896  27.983  16.444  10.057
92582W        W64897  20.912   4.380   4.564
92583W        W64898  25.433  10.260  11.603
92584W        W64899  27.505  30.004  12.249
92585W        W64900  23.768   2.921  14.771
92586W        W64901   4.343  19.600  14.912
92587W        W64902  22.089  22.786  13.942
92588W        W64903  38.345   0.782  13.085
92589W        W64904  17.188  13.872   1.444
92590W        W64905   1.163  21.480   3.299
92591W        W64906  28.637  13.633   3.909
92592W        W64907  12.971   3.014   2.687
92593W        W64908  42.764  34.426  12.903
92594W        W64909  14.918  35.749  14.496
92595W        W64910   8.166  42.875   3.099
92596W        W64911  39.907  19.728  13.957
92597W        W64912  24.254   9.857   4.133
92598W        W64913  31.009   2.400   4.438
92599W        W64914  18.504  22.442  11.776
92600W        W64915  13.289   5.745  11.235
92601W        W64916   9.802  10.234  11.215
92602W        W64917  18.057  22.765  11.914
92603W        W64918  29.711  20.217  12.972
92604W        W64919   2.964  38.260   1.255
92605W        W64920  43.569   3.434   3.329
92606W        W64921   1.406  36.846  13.891
92607W        W64922   3.324   9.925  14.470
92608W        W64923  14.446  40.056   4.229
92609W        W64924  18.980  38.298   2.274
92610W        W64925  20.225  44.196   2.131
92611W        W64926  42.985   7.315  14.726
92612W        W64927   7.861  42.274  12.948
92613W        W64928  31.146   2.072  11.596
92614W        W64929  25.540  24.700   3.783
92615W        W64930  28.583  23.289   3.259
92616W        W64931  41.059  25.990   3.213
92617W        W64932  24.355  42.484  12.183
92618W        W64933  42.327  39.004   3.392
92619W        W64934  25.442  38.806   1.268
92620W        W64935  15.650  26.632   1.640
92621W        W64936  12.156  32.083  10.547
92622W        W64937   5.446  35.419  14.757
92623W        W64938  41.333  34.523   3.580
92624W        W64939  41.429  42.871  14.806
92625W        W64940  33.328  20.202  11.419
92626W        W64941  34.669  28.928  13.839
92627W        W64942  35.109  28.206   2.702
92628W        W64943   7.273   3.970   3.173
92629W        W64944  42.033   1.517   3.686
92630W        W64945  11.971  40.029  12.909
92631W        W64946  25.564  17.006  10.730
92632W        W64947  30.515  13.103  11.644
92633W        W64948  29.915   7.867   4.046
92634W        W64949  40.278   3.229  12.257
92635W        W64950  27.366  22.633   0.640
92636W        W64951  16.349  25.442  11.556
92637W        W64952  29.257  30.087   3.194
92638W        W64953  29.422  15.178  13.804
92639W        W64954  44.340  42.972  10.759
92640W        W64955  18.528  31.238  10.532
92641W        W64956  21.626   1.880  10.415
92642W        W64957  12.816  11.388  12.864
92643W        W64958   1.770  34.961   1.002
92644W        W64959  17.280  26.015   2.801
92645W        W64960  42.300  20.187   3.605
92646W        W64961  13.149   1.218   2.377
92647W        W64962  11.934  35.745   3.837
92648W        W64963   3.924  25.059  10.673
92649W        W64964  19.047  41.975  13.026
92650W        W64965   4.621  32.675   1.735
92651W        W64966  41.295  36.450  11.109
92652W        W64967  27.115  16.836  14.210
92653W        W64968  37.578  20.657  14.768
92654W        W64969  40.154  30.305   0.507
92655W        W64970  35.835  28.425  10.828
92656W        W64971  22.702  38.109   1.363
92657W        W64972  30.422  30.657   3.182
92658W        W64973   5.822  34.092  10.731
92659W        W64974   7.905  32.535  10.554
92660W        W64975  33.108   8.775  11.000
92661W        W64976  23.439   8.297   2.324
92662W        W64977   9.302  24.896   2.742
92663W        W64978  34.758  35.525   2.711
92664W        W64979  30.886   1.438   1.886
92665W        W64980   2.755  26.703  11.732
92666W        W64981  13.275  22.957  11.135
92667W        W64982  39.684  39.792  13.515
92668W        W64983  34.532  37.482  13.971
92669W        W64984  32.918   3.815  14.003
92670W        W64985  35.443  23.928  10.507
92671W        W64986  18.920  42.900  13.361
92672W        W64987   9.416  24.961   1.837
92673W        W64988  26.660  27.876   4.613
92674W        W64989  15.672  23.683   1.379
92675W        W64990   8.119  37.790  14.344
92676W        W64991  33.123  12.327  14.291
92677W        W64992  10.795  36.010  12.050
92678W        W64993  38.723  37.188   4.952
92679W        W64994  40.306  40.019  11.153
92680W        W64995  16.552  39.368  12.631
92681W        W64996   7.670   9.377  11.598
92682W        W64997  21.994   8.241  13.320
92683W        W64998  37.855   1.246  14.581
92684W        W64999  34.275  22.763  13.787
92685W        W65000  16.143  33.846   0.474
92686W        W65001  20.841  11.276   0.285
92687W        W65002  14.099  18.368  12.803
92688W        W65003  39.922   5.322   2.729
92689W        W65004   7.328  14.224   4.140
92690W        W65005  32.627  28.067  14.017
92691W        W65006  27.019  23.868   4.757
92692W        W65007  19.621  10.193   2.451
92693W        W65008  41.059  32.937   0.746
92694W        W65009  44.003  42.516   4.859
92695W        W65010  30.502  35.854   2.426
92696W        W65011  23.463  44.937   3.833
92697W        W65012  25.123   6.454   2.279
92698W        W65013  39.834  26.538  14.694
92699W        W65014  20.056   9.280  10.017
92700W        W65015  27.995  24.446  14.078
92701W        W65016  40.392   1.250  11.516
92702W        W65017  26.441  10.733   3.647
92703W        W65018  26.635  32.877   3.570
92704W        W65019  44.331  14.155   2.281
92705W        W65020  24.958  42.011   3.316
92706W        W65021   7.387  22.160   4.643
92707W        W65022  32.865  41.403   3.177
92708W        W65023   4.412   7.726   3.307
92709W        W65024  43.246  31.055  14.980
92710W        W65025  26.249   4.594   1.704
92711W        W65026  39.903   5.495   1.158
92712W        W65027  38.471  21.332  12.001
92713W        W65028  27.608  31.452   3.465
92714W        W65029   4.414  31.645   2.945
92715W        W65030   8.748   7.565  13.519
92716W        W65031  37.975  31.573   1.857
92717W        W65032  38.109  26.876  11.969
92718W        W65033   5.771  36.424  12.509
92719W        W65034  31.780   1.760   4.298
92720W        W65035  35.424  31.378   0.409
92721W        W65036  41.917  13.404   0.027
92722W        W65037  24.120  43.774   3.644
92723W        W65038  13.836  22.009  14.765
92724W        W65039  33.788  35.999   5.069
92725W        W65040  19.799   5.983  12.509
92726W        W65041  43.796  17.033  11.577
92727W        W65042  30.672  40.752  13.686
92728W        W65043  13.555  20.697  10.707
92729W        W65044  38.474  25.171  10.203
92730W        W65045  27.503  34.318   4.110
92731W        W65046  40.897  12.011   2.201
92732W        W65047  27.688  43.515   2.068
92733W        W65048   4.647  18.278  13.814
92734W        W65049  44.223  38.418   4.586
92735W        W65050  17.563  17.340   3.254
92736W        W65051  31.463  42.559  13.887
92737W        W65052  40.061  22.631   3.341
92738W        W65053  36.043  39.131   2.403
92739W        W65054  10.825  40.512  12.622
92740W        W65055  32.490  29.908  14.265
92741W        W65056  19.608  43.794  12.815
92742W        W65057   0.763   3.907   3.282
92743W        W65058   0.719  23.560  11.839
92744W        W65059  37.325   0.385   0.386
92745W        W65060   9.178   7.472   2.262
92746W        W65061  33.940  33.467   3.619
92747W        W65062  37.332  31.599   3.689
92748W        W65063  44.754  17.157  11.020
92749W        W65064  28.013   3.139  11.854
92750W        W65065  44.854   7.749  11.490
92751W        W65066   7.252  11.552   1.468
92752W        W65067   9.293  31.197  14.769
92753W        W65068  44.806  11.770   2.724
92754W        W65069  22.515  10.355  10.434
92755W        W65070  27.464  36.830   2.874
92756W        W65071  27.082  25.956  13.586
92757W        W65072  18.040  31.938   2.233
92758W        W65073  11.857  44.718  10.688
92759W        W65074  44.150  15.173   4.273
92760W        W65075  17.675   5.374   0.714
92761W        W65076  12.957  35.346  14.459
92762W        W65077  14.974  29.617   9.824
92763W        W65078   8.517  21.704  11.864
92764W        W65079   4.484  27.091  13.962
92765W        W65080   8.863  18.671   4.954
92766W        W65081  37.379   7.939  13.335
92767W        W65082  37.027  28.863  10.787
92768W        W65083  43.477  42.029   1.783
92769W        W65084   7.158  35.614   4.930
92770W        W65085  44.507  31.946  12.239
92771W        W65086  18.501  42.468   0.899
92772W        W65087  37.329  18.171   0.958
92773W        W65088  23.027  23.498   3.729
92774W        W65089   4.616   6.637  11.847
92775W        W65090  44.856  43.824   3.926
92776W        W65091   4.409   7.699   1.840
92777W        W65092  22.775  11.838  12.885
92778W        W65093  39.952  40.858  12.080
92779W        W65094   2.722   9.341   0.352
92780W        W65095   0.491  43.938   4.648
92781W        W65096  25.031  14.170   5.046
92782W        W65097  27.087  18.089  10.747
92783W        W65098  42.214  25.112   4.676
92784W        W65099  15.081   7.833  12.091
92785W        W65100  17.604  34.435   4.380
92786W        W65101  36.570  28.390   1.928
92787W        W65102  16.220  12.141   3.229
92788W        W65103  19.684  39.434   2.329
92789W        W65104  38.447   1.283   2.593
92790W        W65105   5.313  18.621  14.663
92791W        W65106  37.404   7.240   3.189
92792W        W65107  29.350   7.426   2.184
92793W        W65108  20.942  14.640  12.013
92794W        W65109  11.704  38.155  11.014
92795W        W65110  33.483  41.280   0.122
92796W        W65111  42.006  17.341  11.897
92797W        W65112   0.452   6.857   4.078
92798W        W65113  17.416   5.861   2.865
92799W        W65114   5.380  20.519  10.647
92800W        W65115  24.574  19.389  13.724
92801W        W65116   8.827  36.349   0.352
92802W        W65117  15.199  32.045   4.648
92803W        W65118  17.784  14.088  13.384
92804W        W65119  44.679  23.522  14.507
92805W        W65120   0.877  29.148   2.498
92806W        W65121  14.251  27.075  14.904
92807W        W65122  28.010  26.544   3.863
92808W        W65123  16.882  12.692  14.548
92809W        W65124   2.876  39.506   3.733
92810W        W65125  27.283  39.257   4.186
92811W        W65126  12.146   4.345  13.541
92812W        W65127  33.427  20.480   1.405
92813W        W65128  32.231  24.039  11.399
92814W        W65129  24.545  17.188   0.448
92815W        W65130  44.593   8.883   3.787
92816W        W65131   5.843  13.759   2.171
92817W        W65132  40.354  39.932   2.009
92818W        W65133  30.595  37.821   0.812
92819W        W65134   5.410  10.365   2.380
92820W        W65135  38.383  32.548  11.076
92821W        W65136  43.897  24.671   5.059
92822W        W65137  31.061  12.755   2.054
92823W        W65138   3.535  31.028   4.337
92824W        W65139  10.937  17.122  10.991
92825W        W65140   0.430   1.130   1.799
92826W        W65141   7.324  43.823  11.939
92827W        W65142   2.202   8.129   4.544
92828W        W65143  19.123  34.139  14.393
92829W        W65144  40.233  22.376   4.601
92830W        W65145   4.210   3.218   0.659
92831W        W65146  13.576   2.552   1.812
92832W        W65147  20.144  42.422   2.803
92833W        W65148   2.897  43.035  11.153
92834W        W65149  41.544   5.467   3.187
92835W        W65150   0.229  22.465  14.052
92836W        W65151   5.817   0.163  11.139
92837W        W65152  24.277  31.494   1.307
92838W        W65153  16.066  39.313  13.422
92839W        W65154  29.891  34.376   0.689
92840W        W65155  41.418  33.939  11.114
92841W        W65156  20.606  41.796   4.196
92842W        W65157  19.458  29.965   5.355
92843W        W65158  27.592  16.266  13.144
92844W        W65159  27.931  41.565   4.641
92845W        W65160  42.298  27.873  13.448
92846W        W65161  32.082  11.708   3.259
92847W        W65162  31.542  35.632   2.216
92848W        W65163  41.336  33.309  14.753
92849W        W65164   8.441  38.119  10.640
92850W        W65165  16.272  37.004   4.606
92851W        W65166  27.692  18.145   0.614
92852W        W65167  31.871  21.711  12.084
92853W        W65168  43.426  16.517  14.388
92854W        W65169   4.294  26.737   4.234
92855W        W65170  42.811  22.269  11.179
92856W        W65171  27.669  28.546   2.307
92857W        W65172  13.568   0.085   4.719
92858W        W65173  37.073  17.072   3.776
92859W        W65174  35.627  43.844  13.809
92860W        W65175   2.047  18.226   4.126
92861W        W65176  40.445  43.949   2.229
92862W        W65177   4.325  26.538   3.218
92863W        W65178   2.499  25.203   0.253
92864W        W65179  42.713  23.686  14.020
92865W        W65180   0.602  36.769  11.523
92866W        W65181  15.794  31.601   3.297
92867W        W65182   9.065  24.134  10.116
92868W        W65183  15.062  27.229  12.664
92869W        W65184  21.701   3.245  14.488
92870W        W65185  19.575  13.796  13.863
92871W        W65186  26.143  11.691  11.262
92872W        W65187   3.202  28.986  12.982
92873W        W65188  11.135  41.913  14.132
92874W        W65189  25.285  24.053   4.758
92875W        W65190  20.243  28.192   1.257
92876W        W65191   3.901   2.518  13.849
92877W        W65192  26.188  32.903   1.446
92878W        W65193   8.322   0.486  13.506
92879W        W65194  41.564  23.182   2.753
92880W        W65195  42.550   1.586   1.592
92881W        W65196  25.687  43.371   1.749
92882W        W65197  39.927  16.099   1.148
92883W        W65198   1.001  29.135  12.355
92884W        W65199   0.689  14.278   0.771
92885W        W65200   6.447  37.635   5.356
92886W        W65201  25.694  15.192   2.351
92887W        W65202  36.560   9.903  13.362
92888W        W65203  21.535  34.021  11.173
92889W        W65204  10.957   0.714  13.830
92890W        W65205   8.387   0.308  12.449
92891W        W65206   9.740  38.524   3.357
92892W        W65207  42.428   3.401   2.727
92893W        W65208  36.924  13.109  11.279
92894W        W65209   4.299  20.687  10.435
92895W        W65210  37.294   1.277  10.538
92896W        W65211   4.614  21.035  13.456
92897W        W65212  12.662  17.313  12.843
92898W        W65213   0.551  27.920   1.756
92899W        W65214  21.307  15.690   4.102
92900W        W65215  19.084  26.234  10.937
92901W        W65216   7.787  38.243  12.953
92902W        W65217   8.014  12.225  13.447
92903W        W65218  43.858   4.967  14.238
92904W        W65219  14.669  24.531  10.632
92905W        W65220  25.128  43.447   4.334
92906W        W65221  16.699  42.792   1.107
92907W        W65222   0.260  28.488  13.271
92908W        W65223  21.638  14.033   1.487
92909W        W65224  44.074   2.320  13.237
92910W        W65225  43.479  15.787   4.840
92911W        W65226  37.766  20.503  12.833
92912W        W65227  34.574  34.461   1.320
92913W        W65228  19.739   6.642  13.162
92914W        W65229  21.071  14.588  13.810
92915W        W65230  38.404  16.444   4.579
92916W        W65231  11.228  16.268  12.286
92917W        W65232  35.491  39.807  11.856
92918W        W65233  22.344  39.673  11.120
92919W        W65234  23.680  35.027   2.984
92920W        W65235  24.176  24.211   0.373
92921W        W65236  15.569   0.979  14.864
92922W        W65237   0.221   8.778   0.458
92923W        W65238  42.254   0.347   1.342
92924W        W65239  24.722  28.353   2.046
92925W        W65240  38.533  29.200  10.691
92926W        W65241  21.185  41.520  12.729
92927W        W65242  39.499  10.170   1.476
92928W        W65243  28.448  10.468  12.636
92929W        W65244   7.273  35.535   2.951
92930W        W65245  27.935  33.506   5.003
92931W        W65246  26.161   2.637   1.684
92932W        W65247  15.027  36.354  13.098
92933W        W65248  11.617  13.224   2.260
92934W        W65249  14.244  29.230   5.264
92935W        W65250  11.886  27.141  14.748
92936W        W65251  27.025  43.550   4.654
92937W        W65252  43.272  31.448   4.600
92938W        W65253  13.242  31.690  12.081
92939W        W65254  14.835  29.238  12.053
92940W        W65255  31.391  33.850   1.195
92941W        W65256  44.388   9.677  10.768
92942W        W65257  27.401  39.485   1.887
92943W        W65258   0.503   3.404   1.393
92944W        W65259  13.866  22.034   2.377
92945W        W65260  14.287  42.883   9.786
92946W        W65261   7.613   1.196   0.801
92947W        W65262   9.204  44.764  13.496
92948W        W65263  19.886   4.615  10.204
92949W        W65264  28.121  12.750  14.661
92950W        W65265   2.599  27.117  11.046
92951W        W65266  42.368   3.724  14.942
92952W        W65267   2.266   6.814   0.770
92953W        W65268  27.599   8.407  10.999
92954W        W65269  33.557  25.277   4.574
92955W        W65270  19.184  25.305  12.438
92956W        W65271   2.455  24.901   1.181
92957W        W65272  30.882  11.686  12.272
92958W        W65273  39.002  20.182  13.793
92959W        W65274  38.615  40.376  14.376
92960W        W65275   5.224  20.449   3.835
92961W        W65276   4.278  39.592  13.797
92962W        W65277   3.311  22.957  10.989
92963W        W65278  15.728  34.383  11.543
92964W        W65279  41.803  41.709   2.787
92965W        W65280  20.801  11.044   5.603
92966W        W65281  43.410  30.438  11.639
92967W        W65282  25.506  34.402   5.169
92968W        W65283  23.435   3.963  10.666
92969W        W65284  13.301   8.718   3.690
92970W        W65285   2.223   1.996   1.904
92971W        W65286  17.629   1.518   2.209
92972W        W65287  43.859  39.589  14.136
92973W        W65288  42.029  14.351   4.122
92974W        W65289  35.024  15.273   2.270
92975W        W65290  39.022  35.121   5.415
92976W        W65291   6.147  27.934  11.569
92977W        W65292  14.273  29.080   4.756
92978W        W65293  44.749  34.072  11.989
92979W        W65294  25.703  39.165  14.542
92980W        W65295  18.135  16.701   3.048
92981W        W65296  20.275   7.705  11.155
92982W        W65297  24.030  16.747   2.830
92983W        W65298  12.263  24.287   0.756
92984W        W65299   5.216  26.043  12.322
92985W        W65300  37.664  16.080  13.382
92986W        W65301   7.346  41.285  10.942
92987W        W65302  36.202  22.694  11.592
92988W        W65303   1.235  15.839   4.660
92989W        W65304  38.543  34.856   0.779
92990W        W65305  44.861  37.794  11.171
92991W        W65306   5.342   8.677  13.368
92992W        W65307  12.188  35.690  11.985
92993W        W65308  32.387  20.642  10.551
92994W        W65309  26.782  17.354  11.959
92995W        W65310  31.720  15.668  14.957
92996W        W65311  31.157  44.491   3.177
92997W        W65312   3.289  17.614  14.434
92998W        W65313   1.870  37.641   1.680
92999W        W65314  12.191  35.612   1.755
93000W        W65315   0.895  21.390   1.735
93001W        W65316   1.149  28.889   4.272
93002W        W65317  36.162   8.319   4.375
93003W        W65318  36.637  28.960   4.167
93004W        W65319  17.199  24.033   0.276
93005W        W65320  20.402   3.222  14.557
93006W        W65321   1.149  10.169  14.782
93007W        W65322  18.289  39.480   0.322
93008W        W65323  24.771   0.739  12.832
93009W        W65324   3.537  15.863   2.690
93010W        W65325   4.665  42.381  10.720
93011W        W65326  12.948   2.526   4.298
93012W        W65327  32.515   7.342  10.719
93013W        W65328  23.740  41.849  14.245
93014W        W65329  10.929  43.345  11.410
93015W        W65330   3.044  11.623  13.390
93016W        W65331   6.827  23.192  13.503
93017W        W65332  12.136   7.933   0.905
93018W        W65333  11.776  19.225  14.919
93019W        W65334  23.930  42.962   4.022
93020W        W65335   9.669  27.595   4.145
93021W        W65336   1.762   9.962  10.477
93022W        W65337  21.014  22.482   5.263
93023W        W65338   3.745  10.572  11.074
93024W        W65339  42.759  32.880   4.355
93025W        W65340  26.131  12.393  14.592
93026W        W65341  38.805  11.330  10.966
93027W        W65342  24.680  19.523   1.815
93028W        W65343  14.857   4.397  13.044
93029W        W65344  41.266   1.422  11.436
93030W        W65345  17.156  14.203  13.085
93031W        W65346  16.816   3.304  13.534
93032W        W65347   8.389  24.739  12.926
93033W        W65348  27.989  41.030  10.209
93034W        W65349  19.357   4.890  11.963
93035W        W65350   8.731  13.698   0.934
93036W        W65351  28.532  30.633  14.954
93037W        W65352  12.833   6.738  14.769
93038W        W65353   9.802  31.221  11.982
93039W        W65354   7.790  17.496   2.709
93040W        W65355  17.056  14.384  12.272
93041W        W65356  38.469  36.159   4.158
93042W        W65357   0.297  20.129   2.328
93043W        W65358  42.065  38.543   2.730
93044W        W65359  13.795  18.042  12.393
93045W        W65360  14.754   6.988   3.799
93046W        W65361   8.907  40.339   4.176
93047W        W65362  44.474  31.353   2.590
93048W        W65363  12.612   8.814  12.972
93049W        W65364  21.251  14.631   2.756
93050W        W65365  44.415  39.957   1.955
93051W        W65366  11.409  19.858  12.102
93052W        W65367   6.347   1.181  10.558
93053W        W65368  13.582  44.208   1.250
93054W        W65369  19.087  43.468   1.966
93055W        W65370   5.753   9.200  14.666
93056W        W65371  36.426  22.572  14.457
93057W        W65372  42.983   9.713  10.678
93058W        W65373  12.126  34.957   0.817
93059W        W65374  35.345   8.376   1.511
93060W        W65375  38.751  35.572   1.707
93061W        W65376  35.655  33.418   0.363
93062W        W65377  30.392   5.191  14.815
93063W        W65378  42.902  10.561  10.988
93064W        W65379   3.857   9.921   0.776
93065W        W65380  38.873  43.272   1.155
93066W        W65381  42.776  35.607  11.780
93067W        W65382  44.538  11.879   0.601
93068W        W65383  32.430  11.717   1.856
93069W        W65384   2.901  38.580  14.303
93070W        W65385  19.347  38.993  10.169
93071W        W65386  11.681   2.676   0.834
93072W        W65387  11.618   5.756  13.371
93073W        W65388  17.691  41.515  13.502
93074W        W65389  14.714   7.705  10.756
93075W        W65390   1.356  38.252   0.388
93076W        W65391  12.806  43.045  12.829
93077W        W65392  17.881  34.033   5.054
93078W        W65393   1.198  39.882   1.285
93079W        W65394   2.362  34.629  13.300
93080W        W65395   9.320  29.542   0.475
93081W        W65396  34.597   5.039   2.680
93082W        W65397  43.514  44.051   4.119
93083W        W65398  21.722  22.637  13.073
93084W        W65399  38.095  17.147  14.348
93085W        W65400  27.574  44.519   1.861
93086W        W65401  28.472  12.728   3.746
93087W        W65402  29.330  14.774  10.804
93088W        W65403   8.455  11.291  10.766
93089W        W65404   5.191  39.661  14.865
93090W        W65405  43.031  25.491  10.672
93091W        W65406  39.151  25.584   2.852
93092W        W65407   4.278   6.657  14.080
93093W        W65408  23.641   2.181   2.216
93094W        W65409  11.563  42.083   4.232
93095W        W65410  43.793  21.522   3.522
93096W        W65411  25.979   0.064   1.441
93097W        W65412   2.400  34.088  14.893
93098W        W65413   5.758  26.445  13.907
93099W        W65414   1.072  28.260  12.508
93100W        W65415  36.527  18.413   2.908
93101W        W65416   7.767  43.373  11.008
93102W        W65417  28.569  33.445  14.380
93103W        W65418  27.415  23.730  11.191
93104W        W65419  33.487  13.624   4.088
93105W        W65420  39.153  37.451  14.604
93106W        W65421  25.273  39.973   3.338
93107W        W65422  15.662  34.033   0.491
93108W        W65423  35.038   0.250  14.570
93109W        W65424  44.960  26.596  10.197
93110W        W65425  35.569  30.444   2.364
93111W        W65426  19.619  30.912   3.221
93112W        W65427  16.767  31.256   5.284
93113W        W65428  23.303  18.680   5.122
93114W        W65429  26.100  31.088   3.861
93115W        W65430  31.983  14.171  14.532
93116W        W65431  17.169  22.260   3.823
93117W        W65432  30.851  21.312  11.101
93118W        W65433  38.554   6.483  14.498
93119W        W65434  16.668   9.580  12.615
93120W        W65435  15.685   9.551  12.453
93121W        W65436  14.816  28.263   3.855
93122W        W65437  19.165   7.755   3.788
93123W        W65438   0.319  26.689  11.583
93124W        W65439  25.679  32.205   4.190
93125W        W65440  34.482  30.768   0.540
93126W        W65441  37.113  10.589   2.868
93127W        W65442  43.592  27.562  11.770
93128W        W65443  19.486   7.899  13.065
93129W        W65444  27.016  29.567   1.418
93130W        W65445  29.438   0.120   3.371
93131W        W65446  34.914  12.888   2.339
93132W        W65447  12.745   9.736  14.241
93133W        W65448  43.416  17.877   0.330
93134W        W65449  32.842  44.453  11.032
93135W        W65450  40.117  19.025  11.683
93136W        W65451  22.482   2.758   0.464
93137W        W65452   0.790  19.702   1.772
93138W        W65453  43.163   1.765  13.838
93139W        W65454  41.213  27.095  14.298
93140W        W65455  43.043  36.038   1.587
93141W        W65456  33.360  40.524  13.614
93142W        W65457  29.446  35.861   2.346
93143W        W65458  26.064  22.223   2.765
93144W        W65459  33.426  20.141  14.802
93145W        W65460  41.752  33.702   4.103
93146W        W65461  23.260  35.003   3.704
93147W        W65462  31.332  27.097  14.394
93148W        W65463  37.769   4.355   1.268
93149W        W65464  38.301   6.199   0.409
93150W        W65465  43.598   8.185   1.306
93151W        W65466  17.483   3.004   0.432
93152W        W65467   8.319  44.588  10.970
93153W        W65468  16.557   4.683   1.069
93154W        W65469  28.939  29.055   4.214
93155W        W65470   5.239  23.505  12.547
93156W        W65471  39.008  40.786   0.667
93157W        W65472   6.526  30.473   0.953
93158W        W65473  20.526  27.963  11.666
93159W        W65474  17.631  28.790   2.325
93160W        W65475   9.756  44.214   1.168
93161W        W65476  37.041  43.832   2.271
93162W        W65477  30.080  17.228  11.598
93163W        W65478  34.020   9.435  14.822
93164W        W65479  38.421  28.636   3.495
93165W        W65480  21.829   6.229  14.265
93166W        W65481   3.172   4.538   4.247
93167W        W65482   5.825  16.572  13.082
93168W        W65483   0.035  40.078   4.674
93169W        W65484  43.688   8.358   3.272
93170W        W65485  41.573  16.594   2.265
93171W        W65486   6.448  38.272  10.823
93172W        W65487  28.353   7.821   4.604
93173W        W65488  22.867  31.438   3.846
93174W        W65489   4.177  29.048   3.253
93175W        W65490  44.533  23.215   1.627
93176W        W65491  27.142  11.858   2.402
93177W        W65492   9.326  27.758   0.350
93178W        W65493  21.572  26.761   3.769
93179W        W65494  12.045   3.845  14.808
93180W        W65495   7.129  28.053   1.449
93181W        W65496  32.086  26.592  13.316
93182W        W65497  35.293  12.556  11.709
93183W        W65498  13.285   3.240  10.232
93184W        W65499  36.116  34.318  14.385
93185W        W65500  32.934  43.953  10.846
93186W        W65501  16.221  10.166   4.103
93187W        W65502  30.838  13.684   3.157
93188W        W65503  19.721  38.898   1.123
93189W        W65504   9.135  17.404   5.097
93190W        W65505  44.840  14.605   3.704
93191W        W65506  13.569  44.880  11.112
93192W        W65507  43.520  19.301   1.376
93193W        W65508  25.203  42.947  13.049
93194W        W65509   2.800   7.688   1.236
93195W        W65510   5.540  18.796  11.208
93196W        W65511   4.187   4.904  13.621
93197W        W65512   4.660  42.820   0.541
93198W        W65513  43.887  23.654  10.737
93199W        W65514  18.561   3.357  14.825
93200W        W65515  19.581   2.785   3.861
93201W        W65516  44.377   3.886  11.478
93202W        W65517  33.947  11.904  13.066
93203W        W65518  23.052  21.581  14.472
93204W        W65519  39.874  32.426  13.857
93205W        W65520  39.271  40.939   4.298
93206W        W65521   3.057   7.240   2.768
93207W        W65522   7.514  32.480   4.047
93208W        W65523  28.459  12.170  11.121
93209W        W65524  31.058  34.583  13.320
93210W        W65525   3.985  41.867   2.106
93211W        W65526  34.791  40.825   4.605
93212W        W65527  31.476   9.380  11.595
93213W        W65528  23.110  19.225  13.532
93214W        W65529  15.034  36.294  14.472
93215W        W65530  43.918  16.998   0.774
93216W        W65531  11.906  23.968   1.669
93217W        W65532  34.017  42.922  13.196
93218W        W65533  26.101  38.297  11.051
93219W        W65534  16.624  36.522   4.202
93220W        W65535  13.158   1.295  13.320
93221W        W65536  11.217  42.051  10.646
93222W        W65537  26.755   6.423   4.253
93223W        W65538   2.788   0.265  11.572
93224W        W65539  29.131  31.319  11.443
93225W        W65540  37.471  24.029   2.635
93226W        W65541  21.064  29.942  12.405
93227W        W65542  19.812  19.816   0.565
93228W        W65543  34.109  29.853   1.768
93229W        W65544  26.991   8.854   4.091
93230W        W65545   6.306  25.554   0.825
93231W        W65546   4.290  17.381  13.051
93232W        W65547   1.531  25.118   4.153
93233W        W65548  13.222   5.167  13.014
93234W        W65549  17.241  15.005   0.313
93235W        W65550  10.710  27.300   3.330
93236W        W65551  14.234  18.794   1.878
93237W        W65552   6.719  42.313  13.940
93238W        W65553  40.903   4.843   1.038
93239W        W65554   7.373   2.414   4.608
93240W        W65555   9.825  37.044  11.559
93241W        W65556  17.160  16.770  13.683
93242W        W65557  42.760  25.215  13.450
93243W        W65558  37.580  30.131  10.710
93244W        W65559   3.322  13.749  13.535
93245W        W65560   7.341  42.011  12.954
93246W        W65561  42.892  29.452  13.880
93247W        W65562  28.485  18.099  10.439
93248W        W65563  42.492  33.786   0.892
93249W        W65564  26.431  11.840   4.736
93250W        W65565   0.972  26.533   2.802
93251W        W65566  38.342   2.683   3.197
93252W        W65567  27.066  25.669  10.522
93253W        W65568  22.713  44.800   1.912
93254W        W65569  10.697  15.870  14.428
93255W        W65570   0.259  44.576  11.653
93256W        W65571  13.662  34.593   1.435
93257W        W65572  38.407  12.327   2.218
93258W        W65573  25.944  37.001   2.658
93259W        W65574  40.350  38.617   2.210
93260W        W65575  25.229   3.189   3.549
93261W        W65576  43.521   8.237   0.350
93262W        W65577   7.136  36.400   2.632
93263W        W65578  41.579  16.503  11.040
93264W        W65579   0.509  40.332   2.197
93265W        W65580  27.242  37.841   1.764
93266W        W65581  16.566   4.235  11.182
93267W        W65582  31.121  30.558  14.175
93268W        W65583   4.084  19.142  14.978
93269W        W65584  32.872  32.911  12.545
93270W        W65585  34.956  23.526   1.317
93271W        W65586  22.537  16.810   1.820
93272W        W65587  26.316  23.339  10.043
93273W        W65588  23.771  19.073   1.682
93274W        W65589  12.153  12.582  11.191
93275W        W65590  40.978  19.113  12.430
93276W        W65591  42.256  18.722  12.498
93277W        W65592  20.346  27.396  12.537
93278W        W65593  12.755  15.162  13.433
93279W        W65594  38.843  28.012  14.271
93280W        W65595  23.551  27.706   3.100
93281W        W65596  36.449  22.844   2.752
93282W        W65597   0.317   6.373   4.225
93283W        W65598  17.480  40.288   4.058
93284W        W65599   4.139   9.660   1.909
93285W        W65600   1.748   5.224  12.335
93286W        W65601  23.250  20.456   4.324
93287W        W65602   9.925  10.917   3.207
93288W        W65603  17.479  16.703  14.624
93289W        W65604  37.109  36.459  14.954
93290W        W65605  29.145  26.663   4.162
93291W        W65606   9.470   4.858  14.324
93292W        W65607  37.478   2.245   1.698
93293W        W65608  37.028   2.703  11.917
93294W        W65609  26.749  35.374  13.521
93295W        W65610  31.431  20.286   1.092
93296W        W65611  16.484  13.573   3.278
93297W        W65612  25.625   7.212  12.752
93298W        W65613  14.716  17.753   4.766
93299W        W65614  20.796  27.683  13.418
93300W        W65615   2.382  13.460   2.707
93301W        W65616   0.933  37.106  13.880
93302W        W65617   1.437  14.240  10.675
93303W        W65618  33.853   9.798  12.535
93304W        W65619   5.765  20.608   4.531
93305W        W65620  44.556   8.150   0.507
93306W        W65621  17.567   5.366   3.137
93307W        W65622  17.171  11.952   1.203
93308W        W65623  22.198  36.077  13.895
93309W        W65624  39.986   7.671   0.227
93310W        W65625  19.286   1.729  13.788
93311W        W65626  14.067  41.968   1.501
93312W        W65627  40.527  13.269   3.790
93313W        W65628  40.387  27.071   2.494
93314W        W65629  42.723  28.162  13.245
93315W        W65630   2.763  26.656  11.229
93316W        W65631   7.548  38.420  10.630
93317W        W65632  41.305   7.187  11.103
93318W        W65633  21.506  24.082  13.748
93319W        W65634   6.899  35.601   2.164
93320W        W65635  30.891   4.978  11.110
93321W        W65636  11.381   9.086  12.623
93322W        W65637   7.822  31.135   1.658
93323W        W65638  12.650  40.453   1.983
93324W        W65639  12.467   3.743  12.380
93325W        W65640   6.850  40.443   0.957
93326W        W65641  34.954   5.543   4.795
93327W        W65642   0.481  11.576   5.030
93328W        W65643   7.959  10.839  13.517
93329W        W65644  28.941  25.586  14.258
93330W        W65645   0.384  12.950  12.297
93331W        W65646   4.038   2.366  14.358
93332W        W65647  35.093   9.087  14.415
93333W        W65648  24.471  17.639  12.093
93334W        W65649  43.970   6.365  12.365
93335W        W65650   8.921   1.731   1.748
93336W        W65651  41.369  17.317   4.168
93337W        W65652  12.240  23.410  14.887
93338W        W65653  21.473   9.803   3.314
93339W        W65654  18.370  16.103  12.487
93340W        W65655   6.888   5.043  11.686
93341W        W65656  15.538  43.347   1.790
93342W        W65657  19.591  20.684  13.493
93343W        W65658   1.024   8.806  12.784
93344W        W65659  22.219  27.068  13.883
93345W        W65660   1.320   0.479  11.339
93346W        W65661  36.808  26.541  13.465
93347W        W65662  30.050  33.761  11.631
93348W        W65663  14.633  28.678   0.830
93349W        W65664  37.941  15.119   3.845
93350W        W65665  26.425  24.402  11.675
93351W        W65666  23.657   2.295  11.178
93352W        W65667  42.405  13.782   0.299
93353W        W65668  25.593  42.488  11.092
93354W        W65669  35.340   3.791  13.936
93355W        W65670  14.305  23.542  12.816
93356W        W65671  10.680  40.162  14.837
93357W        W65672  40.065  22.035  13.988
93358W        W65673   9.968  27.545  12.250
93359W        W65674   7.865  39.918  13.186
93360W        W65675  10.202  24.054  11.383
93361W        W65676  11.403  43.358   0.803
93362W        W65677  41.220  20.776  12.134
93363W        W65678  32.697  29.595  11.982
93364W        W65679  17.967   9.816   4.995
93365W        W65680  20.461  33.014  14.088
93366W        W65681  31.652  11.771  14.554
93367W        W65682   6.081  28.512  11.103
93368W        W65683  38.950  42.461  14.065
93369W        W65684  15.901  22.748  14.529
93370W        W65685  44.710   6.278   2.770
93371W        W65686  34.652  28.998   0.945
93372W        W65687  25.785   7.312   4.580
93373W        W65688  41.246   3.376   2.229
93374W        W65689  38.404  28.148   3.311
93375W        W65690   4.442  41.084   3.633
93376W        W65691   4.014  10.905   2.774
93377W        W65692  12.761  26.581   2.718
93378W        W65693  33.007  39.134  13.075
93379W        W65694  35.567  42.528   0.744
93380W        W65695  10.758  13.419   2.299
93381W        W65696  20.118   1.064   4.624
93382W        W65697  19.836  20.684  10.998
93383W        W65698   2.891   4.893  13.543
93384W        W65699  13.219   8.269  14.725
93385W        W65700  13.997  21.213  11.581
93386W        W65701  33.270  17.404   0.381
93387W        W65702  43.192  25.462   2.182
93388W        W65703   2.934  20.561  13.796
93389W        W65704  22.217  24.402  14.238
93390W        W65705  23.666  44.710   1.569
93391W        W65706  31.196  23.285  14.283
93392W        W65707  34.285  30.335   0.749
93393W        W65708   4.241  28.423   3.773
93394W        W65709  22.073   2.056  11.975
93395W        W65710  11.064  38.081  12.455
93396W        W65711  34.146  37.344  13.615
93397W        W65712   0.268  11.679   3.698
93398W        W65713  40.859   2.844   3.428
93399W        W65714   5.484  30.070   1.900
93400W        W65715   2.651  13.350   2.249
93401W        W65716  40.354  30.082   2.758
93402W        W65717  24.203  11.696   0.061
93403W        W65718  32.121   8.801  11.565
93404W        W65719  16.131  15.734  13.599
93405W        W65720  44.355  38.406  12.726
93406W        W65721  17.155  37.750   3.713
93407W        W65722  40.876   8.696   4.413
93408W        W65723   2.456  17.745  10.801
93409W        W65724   0.547  29.179   4.846
93410W        W65725   4.877  33.074  14.206
93411W        W65726  11.448  27.195   1.849
93412W        W65727  33.821  13.802  12.909
93413W        W65728  16.624  16.607   4.194
93414W        W65729  30.405   8.755  12.009
93415W        W65730   8.491  38.510  10.968
93416W        W65731   1.851  32.388   2.416
93417W        W65732   3.531   7.672   3.689
93418W        W65733   3.448  10.664  13.930
93419W        W65734  12.542  36.933   3.747
93420W        W65735  23.653  27.926  12.335
93421W        W65736  44.423  27.597  11.834
93422W        W65737  33.528  21.491  11.098
93423W        W65738  44.874   6.201  13.774
93424W        W65739   0.771  21.873   2.017
93425W        W65740  15.053  11.573  14.374
93426W        W65741  13.691  27.607  12.328
93427W        W65742  39.982  14.537  12.788
93428W        W65743  34.419  35.710  14.911
93429W        W65744  33.722  15.358  14.050
93430W        W65745  13.542  29.514  13.925
93431W        W65746   8.865  31.154  13.936
93432W        W65747  16.134  40.611  14.030
93433W        W65748  37.133  40.788   2.371
93434W        W65749  25.504  22.017  10.590
93435W        W65750  34.067  40.671   1.137
93436W        W65751  19.450  15.781  10.697
93437W        W65752  31.585  34.087   1.623
93438W        W65753  16.682  25.911   1.948
93439W        W65754  30.574  29.471   2.441
93440W        W65755  14.381  39.104   3.223
93441W        W65756  12.104  40.423  12.114
93442W        W65757  20.043   4.841  12.483
93443W        W65758  16.740   8.366   3.801
93444W        W65759  14.842  30.010  11.529
93445W        W65760   0.800  29.684  14.766
93446W        W65761  25.566   3.502  10.136
93447W        W65762  27.636  43.869  13.971
93448W        W65763  32.350  17.675   1.178
93449W        W65764  22.017  18.495  11.442
93450W        W65765  31.388  32.587   3.602
93451W        W65766   2.181  15.649  11.549
93452W        W65767   6.137  17.649   3.728
93453W        W65768  15.062   2.742  10.589
93454W        W65769  33.976  27.191   3.964
93455W        W65770  32.015  27.290  12.155
93456W        W65771  38.005   2.218   0.347
93457W        W65772  44.471  16.648  13.969
93458W        W65773   3.503  22.618   1.360
93459W        W65774  17.847  29.994   1.839
93460W        W65775  19.219   9.946   4.715
93461W        W65776  30.926  21.088   5.113
93462W        W65777  28.014  14.596   3.231
93463W        W65778  35.541  18.535  12.805
93464W        W65779  30.405  16.568   3.823
93465W        W65780  28.880   7.224  12.841
93466W        W65781  25.078  26.243   1.670
93467W        W65782   7.565   5.149   0.323
93468W        W65783   1.203  17.497  12.526
93469W        W65784   4.759  17.458  13.323
93470W        W65785  13.197  33.362  10.699
93471W        W65786  36.599  31.496   4.930
93472W        W65787  25.531  43.256  14.158
93473W        W65788  42.238  28.203  14.912
93474W        W65789  36.563  42.644  14.712
93475W        W65790   1.048  23.940   2.881
93476W        W65791  30.378   5.751  11.004
93477W        W65792  13.245   7.856   3.992
93478W        W65793  19.989  35.147  13.416
93479W        W65794   5.200   4.372   4.579
93480W        W65795  14.063  26.768  13.426
93481W        W65796  29.957  26.409  14.328
93482W        W65797   3.891   8.957  11.622
93483W        W65798   9.429   8.382  12.518
93484W        W65799  29.023  14.364   1.777
93485W        W65800   8.693   3.000  14.002
93486W        W65801  16.488  21.099   2.196
93487W        W65802   6.500  25.511  13.407
93488W        W65803   7.601  39.779  12.577
93489W        W65804  44.955  41.247  11.130
93490W        W65805  24.417  37.863  13.143
93491W        W65806  43.964  25.461   2.822
93492W        W65807   7.446  25.486  13.354
93493W        W65808  18.742  41.339   0.434
93494W        W65809   0.276   2.396   0.318
93495W        W65810  23.004  18.508   3.179
93496W        W65811  18.384   6.180   2.175
93497W        W65812   8.940  32.586  12.950
93498W        W65813  30.001  15.033  13.400
93499W        W65814  28.424  43.992  14.492
93500W        W65815  40.316  34.290  12.594
93501W        W65816  13.256  20.187   3.384
93502W        W65817  28.431  29.145   1.255
93503W        W65818   0.879  20.520  12.872
93504W        W65819  24.672   7.995  13.033
93505W        W65820  24.056   6.338  14.735
93506W        W65821  26.978  30.090  11.509
93507W        W65822  19.175  17.671   4.427
93508W        W65823  15.313  18.102   4.471
93509W        W65824  25.153  42.051  12.829
93510W        W65825  41.278  40.420   2.778
93511W        W65826  28.915  44.064  12.360
93512W        W65827   1.949  16.597   1.260
93513W        W65828  24.520  42.861   4.599
93514W        W65829  34.471  37.606   0.341
93515W        W65830  40.475  20.282   4.641
93516W        W65831  44.771  32.022  11.307
93517W        W65832  10.798   2.558   0.662
93518W        W65833   8.756  32.633   2.762
93519W        W65834   4.193  12.554  14.970
93520W        W65835  15.701  23.051  12.900
93521W        W65836  42.876  33.706   2.400
93522W        W65837  28.651   1.956   4.572
93523W        W65838  25.182   3.365   4.587
93524W        W65839  24.717  13.563   2.775
93525W        W65840  35.731  33.835   2.400
93526W        W65841  14.562  32.329   4.133
93527W        W65842  26.635  27.768  13.146
93528W        W65843   9.262  41.755  12.594
93529W        W65844  38.573  39.600  11.014
93530W        W65845  22.734  23.480   1.808
93531W        W65846   4.433   1.245  13.649
93532W        W65847  15.070   2.379  11.889
93533W        W65848  18.640  21.184  14.973
93534W        W65849  29.714   6.898  12.039
93535W        W65850   7.735  41.684   1.636
93536W        W65851  21.054   8.934   4.711
93537W        W65852   3.205  13.212  12.933
93538W        W65853  16.157  35.163  12.597
93539W        W65854   0.003  34.561   0.522
93540W        W65855  15.709  31.325   2.331
93541W        W65856   9.416  40.279   4.233
93542W        W65857  28.187  13.119   1.922
93543W        W65858  33.863  41.931  14.416
93544W        W65859  23.594   4.625  12.400
93545W        W65860  43.727  10.738   2.804
93546W        W65861  44.971  20.789  13.342
93547W        W65862   8.416  43.019   0.483
93548W        W65863  29.942   1.289   3.212
93549W        W65864  39.943  18.761   2.845
93550W        W65865   0.916  26.914  14.334
93551W        W65866  10.587  16.108   0.322
93552W        W65867  15.057  32.725   1.977
93553W        W65868  43.249  36.032   1.114
93554W        W65869  43.482  35.045   4.382
93555W        W65870  11.704  35.054  14.036
93556W        W65871   8.122  17.752  14.918
93557W        W65872  39.344  30.324   0.467
93558W        W65873   4.347  18.329  11.957
93559W        W65874  23.499  13.895  10.992
93560W        W65875  41.537  28.881   3.604
93561W        W65876  37.155  18.573   1.293
93562W        W65877  22.313  19.735  12.076
93563W        W65878  26.534  36.387  14.319
93564W        W65879  12.305  34.429   0.007
93565W        W65880  12.352  40.923   0.547
93566W        W65881   9.712   8.856   0.290
93567W        W65882  13.885  39.038   3.648
93568W        W65883  37.858  11.797  11.679
93569W        W65884  42.391  27.662   2.437
93570W        W65885  18.196   2.009  10.655
93571W        W65886  25.834   5.755   9.779
93572W        W65887  44.864  16.544  10.327
93573W        W65888  31.236  44.824  13.534
93574W        W65889  33.951  26.622  10.123
93575W        W65890   5.274  39.330   1.522
93576W        W65891   9.420  44.861   2.338
93577W        W65892   0.305  11.858   9.896
93578W        W65893  15.575  16.175   0.315
93579W        W65894  23.725  11.837   1.486
93580W        W65895  41.790  24.216   1.089
93581W        W65896  24.478  33.009   3.225
93582W        W65897  20.778  43.300  14.480
93583W        W65898  18.266  37.076  10.998
93584W        W65899   4.231  35.835  14.113
93585W        W65900  28.520  19.611   4.721
93586W        W65901  39.094  37.278   1.292
93587W        W65902   8.219  10.702   2.201
93588W        W65903  10.118  17.488   2.631
93589W        W65904  31.735   5.689   3.223
93590W        W65905   1.968  44.743  13.562
93591W        W65906  41.443  34.380  11.558
93592W        W65907  13.157  24.974   4.161
93593W        W65908   6.707   3.954   3.251
93594W        W65909  19.119  19.063   3.694
93595W        W65910  19.937  28.746   4.797
93596W        W65911  22.558  32.875  12.382
93597W        W65912  28.927  11.835   3.690
93598W        W65913  20.619   1.220   1.501
93599W        W65914   1.243  29.811  14.536
93600W        W65915  16.709  17.018   2.719
93601W        W65916  23.283  39.833  13.783
93602W        W65917  40.321  10.201  10.757
93603W        W65918  34.501  34.562   3.891
93604W        W65919   4.330  41.902  14.311
93605W        W65920   9.832   4.366  13.267
93606W        W65921  34.470  26.149  10.757
93607W        W65922  10.788  40.995  11.065
93608W        W65923   5.433  33.419   4.281
93609W        W65924  31.179  28.077   4.103
93610W        W65925  20.725   0.329  13.852
93611W        W65926  26.147  42.994  10.674
93612W        W65927  12.780  24.440  12.017
93613W        W65928  10.769  32.965  12.406
93614W        W65929  13.041   5.429  13.441
93615W        W65930  16.681  26.648  11.658
93616W        W65931  23.637  36.470   1.380
93617W        W65932   0.915  21.569  13.495
93618W        W65933  27.399   8.414   0.918
93619W        W65934   7.865  33.925   3.906
93620W        W65935  26.223  13.635  12.895
93621W        W65936  23.906  28.051   1.798
93622W        W65937   1.256   3.208   1.160
93623W        W65938  17.143  25.163   3.745
93624W        W65939  43.907  44.505  14.976
93625W        W65940   4.908   7.241   1.160
93626W        W65941  41.356  41.828   2.017
93627W        W65942  26.020  34.909   4.663
93628W        W65943  43.691  35.451   0.407
93629W        W65944   2.888  20.157  14.103
93630W        W65945   3.684  22.606   3.599
93631W        W65946  11.393  40.391  11.505
93632W        W65947  17.376  13.811   2.784
93633W        W65948  36.761  24.977   4.395
93634W        W65949   8.040  23.245  14.354
93635W        W65950   4.033   2.137  10.549
93636W        W65951   3.978  19.006  12.555
93637W        W65952  35.351  32.624   1.887
93638W        W65953  20.279   8.291  12.555
93639W        W65954  39.498  44.870   2.515
93640W        W65955  21.680  25.033  10.694
93641W        W65956  38.823  10.828   2.777
93642W        W65957  19.741   6.166  11.718
93643W        W65958  17.147   7.728  13.523
93644W        W65959  19.815  28.492  11.173
93645W        W65960  38.781   2.084   2.292
93646W        W65961  39.892  30.826   3.240
93647W        W65962  17.625  30.146   0.801
93648W        W65963  30.638   6.367   0.202
93649W        W65964  25.624   1.952  11.440
93650W        W65965   8.794  28.746   2.720
93651W        W65966  35.991  20.311  13.393
93652W        W65967  24.274  38.081   3.604
93653W        W65968  29.045  23.387   1.477
93654W        W65969  22.399   9.768   1.400
93655W        W65970  16.160  33.482   4.683
93656W        W65971  14.125  23.208  12.445
93657W        W65972   9.415  34.506   3.262
93658W        W65973   6.822  15.026  12.050
93659W        W65974  10.842  18.269  14.293
93660W        W65975  29.838  44.424  14.037
93661W        W65976  27.039  14.049   1.414
93662W        W65977  41.988  31.620  13.051
93663W        W65978  31.653  43.871   1.933
93664W        W65979  44.760  38.032  13.948
93665W        W65980  25.455  37.177   0.491
93666W        W65981  31.492  34.902   3.577
93667W        W65982   3.436  19.228  10.562
93668W        W65983  13.109  21.748   1.725
93669W        W65984   3.272  11.369   4.951
93670W        W65985  36.509  11.620  13.714
93671W        W65986  41.531  37.517  13.010
93672W        W65987  18.730  16.153   0.007
93673W        W65988  41.103  18.309  13.615
93674W        W65989  17.933  38.919   3.194
93675W        W65990  16.603   8.918   2.389
93676W        W65991  21.060  25.198   1.432
93677W        W65992  41.573  28.583   2.181
93678W        W65993  29.673   7.966  14.910
93679W        W65994  15.069  28.052   0.377
93680W        W65995  40.856  18.870   0.246
93681W        W65996  39.304  10.208  12.314
93682W        W65997  10.947  30.702  13.385
93683W        W65998  24.386   7.015   4.767
93684W        W65999   3.494  32.471   0.345
93685W        W66000  43.346  40.569   3.305
93686W        W66001  26.830   4.794   3.184
93687W        W66002  35.374  20.132   0.506
93688W        W66003   9.737  19.704  10.570
93689W        W66004   2.109  36.330   5.240
93690W        W66005  28.529  17.011   4.994
93691W        W66006   7.691  12.444  13.034
93692W        W66007  17.270  37.443   4.493
93693W        W66008  23.190  41.045  10.495
93694W        W66009  30.875  24.165  14.074
93695W        W66010  16.866  18.050   1.917
93696W        W66011  31.024  32.500  12.520
93697W        W66012   8.745  10.872   0.428
93698W        W66013  37.501  31.489  12.938
93699W        W66014  26.134   8.113  12.066
93700W        W66015   4.261  16.679   3.366
93701W        W66016  41.400  40.034  12.931
93702W        W66017  25.115  28.413   3.338
93703W        W66018  26.382   9.633  12.068
93704W        W66019  39.865  12.650  14.290
93705W        W66020  42.512  12.101  11.170
93706W        W66021  14.343  10.893   0.430
93707W        W66022  28.908   9.825   2.419
93708W        W66023  19.997  25.602  12.886
93709W        W66024  39.028  28.566   2.809
93710W        W66025   8.105  12.768  12.961
93711W        W66026   3.494  23.503   1.287
93712W        W66027  15.178  17.586  11.084
93713W        W66028  21.540  38.517  11.585
93714W        W66029  20.802   2.887   1.782
93715W        W66030  28.743  36.923  12.424
93716W        W66031  35.960  11.422   3.784
93717W        W66032  26.070  42.440  13.428
93718W        W66033   3.893  21.728   2.886
93719W        W66034  35.775  29.632  12.448
93720W        W66035  10.541   6.136  12.461
93721W        W66036  38.115  27.156  11.120
93722W        W66037   3.883   7.241  13.928
93723W        W66038  31.111  41.925   1.409
93724W        W66039  41.460  10.599  13.816
93725W        W66040   1.492   8.682  12.007
93726W        W66041  29.529  12.716   3.654
93727W        W66042  39.132  38.934  10.397
93728W        W66043   1.189  18.979   3.670
93729W        W66044  13.130  14.440   2.415
93730W        W66045  21.634  32.311   3.198
93731W        W66046  23.474  16.568  11.368
93732W        W66047   1.842   2.532   4.126
93733W        W66048  36.102  28.909   0.917
93734W        W66049   9.389  31.105  13.946
93735W        W66050  41.299  21.614   2.740
93736W        W66051  25.194  16.230  13.500
93737W        W66052  10.789   5.869   3.682
93738W        W66053  28.429  18.976  12.188
93739W        W66054   0.545  31.229  14.772
93740W        W66055  25.044   9.650   4.746
93741W        W66056  35.803   5.413   4.266
93742W        W66057   1.816  10.988   4.948
93743W        W66058  13.880  41.987   1.014
93744W        W66059  31.618  43.994   0.362
93745W        W66060   9.149   3.518  10.413
93746W        W66061  27.245  31.583   3.819
93747W        W66062  10.368  26.289  12.314
93748W        W66063  44.642  37.304  13.347
93749W        W66064   7.776   2.948  13.105
93750W        W66065   2.396  25.788   2.239
93751W        W66066  29.653  34.014   0.996
93752W        W66067  13.320  21.662  12.135
93753W        W66068  13.898  14.329   3.568
93754W        W66069  13.657   4.838  13.772
93755W        W66070  35.954   9.385   3.618
93756W        W66071  44.400  43.587  13.629
93757W        W66072  24.307  33.570   3.133
93758W        W66073  40.274  17.366   1.029
93759W        W66074  35.766  43.368   4.337
93760W        W66075  23.130  18.216   3.565
93761W        W66076  20.478  15.805  13.319
93762W        W66077  13.254  35.402  11.418
93763W        W66078   9.215  35.990  11.097
93764W        W66079  18.564   6.401  10.939
93765W        W66080  29.564  44.920   0.881
93766W        W66081  34.939  41.355  10.339
93767W        W66082  41.748  13.663   4.597
93768W        W66083   3.730  40.184  11.386
93769W        W66084  21.925  34.519  11.695
93770W        W66085  43.944  12.649  12.997
93771W        W66086   5.861  38.132  14.378
93772W        W66087  42.295  42.770  10.573
93773W        W66088  10.679   8.635   4.205
93774W        W66089  14.259  43.079  13.955
93775W        W66090  24.551  30.655   3.393
93776W        W66091  41.458  12.691   2.164
93777W        W66092  43.124  40.587   0.290
93778W        W66093  40.620  38.959   4.982
93779W        W66094   9.762  12.144   3.296
93780W        W66095  12.532   2.400  11.079
93781W        W66096  31.507  20.990   2.438
93782W        W66097   1.334  41.817  12.969
93783W        W66098  44.424  33.411  11.384
93784W        W66099  32.932  22.466   1.207
93785W        W66100  26.364  42.202  11.540
93786W        W66101   2.004  37.052  13.018
93787W        W66102  38.491   6.153  14.094
93788W        W66103  10.345  42.318  14.323
93789W        W66104  27.184  30.439   0.521
93790W        W66105  37.429  39.348   0.189
93791W        W66106  16.463  29.916   4.274
93792W        W66107   6.692  29.931   4.177
93793W        W66108  17.788  32.320   0.402
93794W        W66109   9.190  13.553  10.932
93795W        W66110  34.369  14.800  14.280
93796W        W66111  32.432  39.554   1.861
93797W        W66112  36.489  40.552  14.451
93798W        W66113  17.582  24.188   2.977
93799W        W66114  33.384   0.550   4.190
93800W        W66115  22.198  21.767   0.848
93801W        W66116  17.068  17.809   4.537
93802W        W66117   9.274  35.560   0.404
93803W        W66118  11.743   5.871  14.971
93804W        W66119  27.962  11.527   2.510
93805W        W66120  20.213  31.052  13.510
93806W        W66121  38.329  26.222  10.138
93807W        W66122  20.796  30.127  13.947
93808W        W66123  26.762   1.347  14.003
93809W        W66124  15.332   3.377   4.243
93810W        W66125  25.687  40.554   2.614
93811W        W66126   0.215  15.690   0.517
93812W        W66127  13.488  28.122  13.491
93813W        W66128   2.521  23.270  13.013
93814W        W66129  29.347   3.420  13.402
93815W        W66130   3.232   1.989   3.766
93816W        W66131  31.535  35.741  11.070
93817W        W66132   4.706  17.179   3.943
93818W        W66133  25.739  36.139   4.976
93819W        W66134  28.825   6.459  14.067
93820W        W66135  27.000  34.735   4.580
93821W        W66136   6.518  43.325   0.404
93822W        W66137  28.016  32.725  11.167
93823W        W66138  15.363   6.676   3.759
93824W        W66139  41.954   7.729   3.960
93825W        W66140  16.620  34.508   4.611
93826W        W66141  23.265  22.529  14.556
93827W        W66142   0.916  41.336   0.014
93828W        W66143  10.344  31.513  14.528
93829W        W66144  34.814  14.251   3.118
93830W        W66145   8.719  44.275  11.172
93831W        W66146  25.880  32.220  11.102
93832W        W66147  18.401  35.066  13.913
93833W        W66148  38.323  16.771   4.178
93834W        W66149  41.686  12.734   2.627
93835W        W66150   6.525  39.903   2.693
93836W        W66151  31.310   6.107  14.925
93837W        W66152  19.005   0.866  12.516
93838W        W66153  19.056  11.509  10.617
93839W        W66154  28.083  14.532   1.363
93840W        W66155  27.518   5.626  12.563
93841W        W66156  42.951   9.519  11.925
93842W        W66157  15.938  18.559  13.514
93843W        W66158  20.051  18.855   2.682
93844W        W66159  10.984  17.677   2.262
93845W        W66160  16.594   5.245  14.527
93846W        W66161   3.166   8.632  11.075
93847W        W66162   1.348  17.776   3.161
93848W        W66163  16.631  39.865  10.637
93849W        W66164  23.612  40.792   3.835
93850W        W66165  21.807  16.733  13.804
93851W        W66166  32.618  20.542  13.047
93852W        W66167  39.459  12.931  14.383
93853W        W66168  19.785   5.169   1.317
93854W        W66169   9.249  19.784  12.065
93855W        W66170  37.815  20.426   3.048
93856W        W66171  28.203  14.194  14.007
93857W        W66172  18.121   1.925  11.185
93858W        W66173   0.422  12.285  13.911
93859W        W66174  36.053  29.389   1.715
93860W        W66175  24.513  10.147   1.651
93861W        W66176  14.557  30.093   0.992
93862W        W66177   3.284   4.151   3.563
93863W        W66178  16.522   4.308   0.359
93864W        W66179   0.561  16.718  14.381
93865W        W66180  13.104  20.023  10.913
93866W        W66181  26.205  41.872   0.915
93867W        W66182   0.972  15.078  13.632
93868W        W66183  10.045  25.111   4.029
93869W        W66184  17.851  44.183  14.059
93870W        W66185  14.839  16.565   1.765
93871W        W66186   8.637   8.930  14.844
93872W        W66187   7.702  25.562  12.896
93873W        W66188  16.694  17.162  12.101
93874W        W66189  30.962  15.583   1.876
93875W        W66190  19.909  42.729   3.871
93876W        W66191   0.015   4.658   4.572
93877W        W66192  38.407  22.477   2.339
93878W        W66193  32.469   0.336  11.361
93879W        W66194  23.143  17.990  11.975
93880W        W66195  35.514  15.969   0.283
93881W        W66196   3.789  32.459  14.908
93882W        W66197  19.395  43.031  13.505
93883W        W66198  43.431  10.603   3.240
93884W        W66199  44.978  15.417  11.291
93885W        W66200  17.245   9.958  10.953
93886W        W66201  19.323  32.018  11.191
93887W        W66202  16.162   6.928  10.541
93888W        W66203   0.637  43.992   3.256
93889W        W66204   4.435  29.456   1.992
93890W        W66205  41.812  11.628  13.089
93891W        W66206   6.757  33.625  13.027
93892W        W66207  31.103  18.665  13.828
93893W        W66208   9.396  27.599  13.439
93894W        W66209  41.935  32.901  10.783
93895W        W66210  18.175  16.182  14.303
93896W        W66211  33.684   2.154  14.435
93897W        W66212  41.803  17.690   4.684
93898W        W66213  28.611  21.165   4.782
93899W        W66214  11.073  19.256  10.264
93900W        W66215   4.875  25.607   4.558
93901W        W66216  17.628  13.836  12.053
93902W        W66217  17.610  38.822   0.611
93903W        W66218  18.108   1.683  13.417
93904W        W66219  30.231  20.183   0.992
93905W        W66220  15.286  16.650   2.008
93906W        W66221  19.783  41.111   2.252
93907W        W66222   6.814  36.581  13.394
93908W        W66223  41.289  26.700   2.445
93909W        W66224   6.207  32.969  11.446
93910W        W66225   8.179   0.911   0.388
93911W        W66226  28.365  18.189  14.838
93912W        W66227  11.048  42.588   1.605
93913W        W66228  16.303   9.156  11.101
93914W        W66229  43.769  15.640  12.012
93915W        W66230   3.140  14.736  14.191
93916W        W66231   0.195  13.609  10.324
93917W        W66232  38.320  29.565   2.383
93918W        W66233  34.862   0.303   4.307
93919W        W66234  26.039  13.312   0.800
93920W        W66235  41.564  13.290   1.364
93921W        W66236  40.565  27.990   3.551
93922W        W66237   4.932  14.139   1.933
93923W        W66238  42.247  25.559  14.720
93924W        W66239  20.975  31.043  12.578
93925W        W66240   0.603  41.524   4.457
93926W        W66241  32.569   2.197   0.330
93927W        W66242  26.272  18.308   2.649
93928W        W66243   7.243   4.294   2.676
93929W        W66244  32.672   6.420  14.556
93930W        W66245  19.221  37.847   3.698
93931W        W66246  17.006  12.230  12.467
93932W        W66247   0.867  14.349   1.308
93933W        W66248  38.288  14.621  12.149
93934W        W66249  31.176  11.787  10.798
93935W        W66250   8.642  11.771   0.045
93936W        W66251  38.484  35.348   2.097
93937W        W66252   9.194  23.113   2.188
93938W        W66253  38.979  15.187   1.814
93939W        W66254  40.310  15.057  12.237
93940W        W66255  31.148   8.817  12.934
93941W        W66256  29.373  24.626   2.297
93942W        W66257  13.712  21.502  10.531
93943W        W66258  14.091   1.401   3.784
93944W        W66259  24.568  34.602   3.102
93945W        W66260  34.085   0.185  12.519
93946W        W66261   2.006   0.236  12.887
93947W        W66262  38.520  36.629   2.776
93948W        W66263  33.087  41.146  14.820
93949W        W66264  20.593  16.242   3.230
93950W        W66265  18.934  15.767  10.673
93951W        W66266   6.420  34.899  12.979
93952W        W66267  15.315  26.018   2.816
93953W        W66268  21.698  12.447   1.927
93954W        W66269   4.250  15.180   3.690
93955W        W66270  37.434  38.159   2.787
93956W        W66271   1.764   5.793  12.444
93957W        W66272  15.175  10.796  12.752
93958W        W66273  32.576  18.768   0.359
93959W        W66274  44.895  38.390  11.908
93960W        W66275  17.603  34.694   0.956
93961W        W66276   2.286  20.032  11.121
93962W        W66277  26.693  39.022   0.826
93963W        W66278  40.880  30.178   2.748
93964W        W66279   2.823  22.377  11.508
93965W        W66280  28.673   8.308  14.877
93966W        W66281  33.011  39.330   0.893
93967W        W66282  15.892  14.122  14.409
93968W        W66283  17.971  20.135   2.287
93969W        W66284  23.731   7.447  11.946
93970W        W66285   4.336  21.999   2.736
93971W        W66286  13.377  26.314  12.132
93972W        W66287  27.683  21.174  13.018
93973W        W66288   5.904  35.484   3.144
93974W        W66289   7.274  21.539   1.159
93975W        W66290  22.378   6.819   2.220
93976W        W66291  39.577  16.744   1.370
93977W        W66292  19.225  35.884   0.790
93978W        W66293  20.987  19.542  11.808
93979W        W66294  38.876  38.857  10.836
93980W        W66295   8.211  30.458  13.646
93981W        W66296  19.408  18.134   4.572
93982W        W66297  11.336  30.316   2.747
93983W        W66298  21.242  28.061   3.693
93984W        W66299  19.578   8.198   2.736
93985W        W66300  42.022  39.226  11.025
93986W        W66301  15.295  12.324   0.943
93987W        W66302  15.540  43.455   3.666
93988W        W66303  25.017  13.721  12.923
93989W        W66304  16.776  23.215  13.581
93990W        W66305  16.492  29.387   2.619
93991W        W66306   0.299  30.896  12.424
93992W        W66307   3.735  10.186   2.902
93993W        W66308  16.026  15.088   0.336
93994W        W66309   7.583  14.878  13.922
93995W        W66310  27.041  20.559   3.201
93996W        W66311  12.074   7.884  14.479
93997W        W66312   7.755  14.756   3.923
93998W        W66313  19.120  37.803   2.303
93999W        W66314  43.849  21.184   2.257
94000W        W66315  27.505  28.697  13.302
94001W        W66316   6.350  12.180   1.006
94002W        W66317  11.090  41.772   0.506
94003W        W66318   1.223  32.404   0.303
94004W        W66319  43.828  18.525  11.428
94005W        W66320  39.693  41.985   2.421
94006W        W66321  13.808  29.040  13.734
94007W        W66322  31.975  19.599  14.234
94008W        W66323  18.377  38.143   4.119
94009W        W66324  12.007  23.037   1.768
94010W        W66325   3.827   2.816   0.376
94011W        W66326   8.166  38.070   4.694
94012W        W66327   0.508  27.431   4.051
94013W        W66328  17.264  24.142  14.232
94014W        W66329  26.454   6.228   3.881
94015W        W66330  42.215  17.407  14.060
94016W        W66331   8.685  27.730   3.262
94017W        W66332  10.403  10.516  13.948
94018W        W66333  28.714  31.550  14.123
94019W        W66334   2.416  26.270  12.374
94020W        W66335  42.906  13.835   0.414
94021W        W66336  10.815   5.679  11.064
94022W        W66337  43.482  43.385  11.559
94023W        W66338  29.251  28.112   3.475
94024W        W66339  38.507  10.195  13.409
94025W        W66340  24.236  40.924   4.191
94026W        W66341   4.484  16.727   1.008
94027W        W66342  40.525  26.139   3.712
94028W        W66343  31.610  24.730   1.260
94029W        W66344  33.681  26.047   3.237
94030W        W66345  41.764  43.758   2.859
94031W        W66346  15.281  25.934  12.427
94032W        W66347  20.745  23.499  10.704
94033W        W66348  17.325   1.716  14.038
94034W        W66349  36.035  28.024  14.889
94035W        W66350  42.579  33.119   1.727
94036W        W66351  22.770  33.616   4.114
94037W        W66352   7.491   6.845  12.304
94038W        W66353  34.869  17.006  11.610
94039W        W66354  27.508   2.768  13.438
94040W        W66355   0.276  22.431  12.057
94041W        W66356  36.342  36.518   3.121
94042W        W66357   6.349  40.371   3.703
94043W        W66358  17.033  33.567  13.856
94044W        W66359  36.420  25.529  10.431
94045W        W66360  42.910  27.240   1.807
94046W        W66361  17.369  34.318  14.979
94047W        W66362  20.012  42.909   2.166
94048W        W66363  21.183   1.837  13.431
94049W        W66364  20.086  11.461   2.645
94050W        W66365  44.538  25.663  13.437
94051W        W66366  23.066   6.734  11.003
94052W        W66367  32.175  18.201   1.135
94053W        W66368  39.456  23.646   4.902
94054W        W66369  36.088  20.811  13.402
94055W        W66370  37.981  41.959   3.394
94056W        W66371  12.862   5.532  12.908
94057W        W66372  37.897  35.902  14.524
94058W        W66373  42.510  19.458   0.865
94059W        W66374  26.989  12.270   1.362
94060W        W66375  12.000  17.888   2.426
94061W        W66376  28.906  14.302  14.970
94062W        W66377   8.241  13.503  14.844
94063W        W66378  31.865  39.723   3.706
94064W        W66379  26.032  28.698  14.244
94065W        W66380   3.636  12.835   3.205
94066W        W66381   1.455   3.485   0.192
94067W        W66382  23.254   7.655  13.487
94068W        W66383  33.141  38.883  11.510
94069W        W66384  22.741  40.028  11.079
94070W        W66385  26.658  16.904  12.827
94071W        W66386  44.028  11.841   3.218
94072W        W66387   0.231  39.764  14.713
94073W        W66388  16.345  36.680   1.964
94074W        W66389  34.452  29.958   4.503
94075W        W66390  36.586  36.342  10.726
94076W        W66391  36.802  41.651  11.552
94077W        W66392   0.964  19.249  12.104
94078W        W66393  28.205  28.393  12.482
94079W        W66394  25.628  17.314   3.097
94080W        W66395  21.718  16.028  10.514
94081W        W66396  44.426  29.121  10.631
94082W        W66397  19.178   5.313  14.456
94083W        W66398  24.146  21.506  12.055
94084W        W66399   0.428  37.332   0.437
94085W        W66400  27.885   7.308  13.945
94086W        W66401  15.141  25.561   4.563
94087W        W66402  42.419   1.524   3.340
94088W        W66403  18.358   3.243  11.520
94089W        W66404  27.472  16.145   1.680
94090W        W66405  21.733   0.248   3.689
94091W        W66406  28.702   8.937   0.867
94092W        W66407  38.751  20.042  14.379
94093W        W66408   0.737  30.507  11.035
94094W        W66409  39.377  41.823   0.848
94095W        W66410   4.171   4.461   4.524
94096W        W66411  27.620   7.974   3.301
94097W        W66412  43.727  41.352   3.315
94098W        W66413  33.173  27.761  11.186
94099W        W66414  22.681   3.007  11.503
94100W        W66415   5.364  36.158   0.143
94101W        W66416   9.837  39.486  11.186
94102W        W66417  39.263  42.864   4.617
94103W        W66418  43.732  15.674   3.609
94104W        W66419  28.766  33.508  12.882
94105W        W66420   8.429  12.979  13.974
94106W        W66421  28.323  32.738  12.435
94107W        W66422  37.342  37.390   1.251
94108W        W66423  11.907  34.572   4.642
94109W        W66424  31.497  43.378   2.141
94110W        W66425  36.982   7.272   0.674
94111W        W66426  21.681  35.489   4.585
94112W        W66427  12.265  30.146   0.289
94113W        W66428  12.699  37.115  13.126
94114W        W66429  16.108  29.608   1.615
94115W        W66430  33.834  11.818   3.725
94116W        W66431   3.820   4.912  14.016
94117W        W66432  11.809  32.471   0.010
94118W        W66433  32.200  13.007  11.984
94119W        W66434  15.521  26.633   4.557
94120W        W66435   0.543  32.093  12.431
94121W        W66436  32.959  36.894  14.779
94122W        W66437  14.122  28.172   3.257
94123W        W66438  41.915   9.179   2.279
94124W        W66439  11.559  28.354  14.971
94125W        W66440   9.561  10.412  12.430
94126W        W66441  41.805  31.851   4.655
94127W        W66442   7.995  37.010  14.297
94128W        W66443  16.299   7.002   0.835
94129W        W66444   6.482  18.203   1.132
94130W        W66445  28.104  35.457   1.204
94131W        W66446  36.842   9.924  14.612
94132W        W66447  40.083  41.120  11.014
94133W        W66448  43.715   3.783  13.497
94134W        W66449  24.465   6.706   0.184
94135W        W66450  39.505   6.003   0.960
94136W        W66451   3.040   9.499   0.730
94137W        W66452  15.264  29.255  14.254
94138W        W66453  14.890  38.636   3.554
94139W        W66454   2.763  30.715  12.828
94140W        W66455  14.305  23.055   2.633
94141W        W66456  39.805  42.551  12.057
94142W        W66457  17.563  12.031  14.488
94143W        W66458  40.840  27.135   0.897
94144W        W66459  32.430  27.048  13.966
94145W        W66460  27.759   6.455   1.110
94146W        W66461  30.450   8.281  13.487
94147W        W66462  31.630  26.614   3.867
94148W        W66463  33.787  41.711  12.968
94149W        W66464  15.857  15.828   4.122
94150W        W66465  39.067  18.739  14.783
94151W        W66466   4.130   6.226   3.900
94152W        W66467  10.111  33.382   1.918
94153W        W66468  16.341  14.128  13.377
94154W        W66469   7.239   2.920   4.553
94155W        W66470   4.226  11.918  11.570
94156W        W66471  27.811  20.696   4.959
94157W        W66472  29.587   5.034   3.807
94158W        W66473  33.991  44.264   1.737
94159W        W66474  15.172   0.302   3.303
94160W        W66475  41.154  14.495   2.771
94161W        W66476  16.825  38.871   2.968
94162W        W66477  32.452  16.961  14.588
94163W        W66478  40.633  11.885  11.201
94164W        W66479  17.283  28.457   0.951
94165W        W66480  34.143  37.005  11.959
94166W        W66481  39.784  31.847   1.114
94167W        W66482  33.167  43.873  14.540
94168W        W66483  12.248   0.799   3.638
94169W        W66484  13.205  19.575  10.663
94170W        W66485  42.522  38.490   0.310
94171W        W66486  33.681   5.514   0.323
94172W        W66487  21.452  21.767  10.052
94173W        W66488  26.240  18.012   2.192
94174W        W66489  27.131  13.414  13.100
94175W        W66490  35.970   4.266   1.602
94176W        W66491  42.340  14.343   4.541
94177W        W66492   6.869  24.174  13.289
94178W        W66493  38.382   4.674  13.076
94179W        W66494  25.226  42.735   4.688
94180W        W66495  28.127  33.506   3.746
94181W        W66496  41.137  43.068  14.296
94182W        W66497  35.163  25.777   4.206
94183W        W66498  40.409  13.209   1.860
94184W        W66499  22.564  19.293   2.341
94185W        W66500  22.081  11.880  14.487
94186W        W66501  35.490   7.462   3.449
94187W        W66502  37.596  17.622  13.035
94188W        W66503  19.867  44.353   3.328
94189W        W66504  20.078   7.759   4.894
94190W        W66505  17.090  36.866  11.656
94191W        W66506  19.547   5.386   2.337
94192W        W66507  42.545   3.498  14.500
94193W        W66508   1.137  31.730   5.097
94194W        W66509  43.536   9.500   0.097
94195W        W66510  31.922  40.992   2.265
94196W        W66511  29.598  12.072  14.753
94197W        W66512  42.738  19.497   1.735
94198W        W66513   4.670  38.174  11.121
94199W        W66514  15.089  24.455  11.403
94200W        W66515  42.861  29.640   3.607
94201W        W66516   8.276   9.854   2.793
94202W        W66517  38.466  27.991  10.193
94203W        W66518  37.494  35.821  12.444
94204W        W66519  15.733   6.270  14.725
94205W        W66520  18.891  24.539  12.915
94206W        W66521  38.700  39.355  12.494
94207W        W66522  10.367   3.929  11.928
94208W        W66523  44.136  23.085  11.511
94209W        W66524   0.863   0.728  11.104
94210W        W66525  26.494   1.511  10.683
94211W        W66526  15.617   9.764  11.920
94212W        W66527  35.167  30.427   1.439
94213W        W66528  22.109  33.051   3.587
94214W        W66529  22.658  36.683  14.461
94215W        W66530  18.062  13.121   0.174
94216W        W66531  25.529  11.273   3.632
94217W        W66532   0.028  27.617  14.461
94218W        W66533  18.025  29.159  12.992
94219W        W66534  10.226  31.336  12.938
94220W        W66535   3.673  14.950  12.187
94221W        W66536  43.650  41.568  10.324
94222W        W66537  36.488   4.146  10.621
94223W        W66538   7.784  18.935  11.619
94224W        W66539  11.259  34.359   1.928
94225W        W66540  39.872   7.234  14.453
94226W        W66541  27.734  13.421  10.934
94227W        W66542  22.583  18.648  11.378
94228W        W66543  34.498   1.705  14.500
94229W        W66544   2.454  16.097  11.608
94230W        W66545  40.790   4.328   2.186
94231W        W66546   8.805  16.535  13.424
94232W        W66547  31.631  18.221   1.864
94233W        W66548  15.810   0.453  10.548
94234W        W66549  31.206  27.776  11.008
94235W        W66550  20.620  37.889  11.943
94236W        W66551  31.339   6.889  14.432
94237W        W66552  28.570  29.229   0.413
94238W        W66553   5.718  31.136  14.471
94239W        W66554  44.811  38.973  11.184
94240W        W66555  11.746  13.917   3.345
94241W        W66556  34.820   2.251  11.422
94242W        W66557  31.134  41.784   3.435
94243W        W66558  37.957  15.517   1.970
94244W        W66559  31.105   1.282  12.053
94245W        W66560  20.229   4.782   3.917
94246W        W66561  27.136  35.239  10.866
94247W        W66562   8.955  37.015   3.811
94248W        W66563  31.651  44.269  11.719
94249W        W66564  36.823  43.946  14.850
94250W        W66565   7.096  33.873  10.723
94251W        W66566  23.969  33.276  14.059
94252W        W66567  33.504   8.685   0.285
94253W        W66568  28.388  43.728  11.708
94254W        W66569  19.654  25.623  13.906
94255W        W66570  32.569   1.920  12.887
94256W        W66571   9.688  24.927  13.042
94257W        W66572  37.411  18.973  13.495
94258W        W66573   2.393  22.100  11.571
94259W        W66574  21.112   8.253  10.973
94260W        W66575  25.340  37.452   1.995
94261W        W66576  20.704   0.425   4.579
94262W        W66577  41.324  38.265   3.627
94263W        W66578   5.201  13.165  13.143
94264W        W66579  12.814  37.579  11.460
94265W        W66580   7.770  22.297   1.720
94266W        W66581  17.287  27.049   0.258
94267W        W66582  38.614  20.267   3.682
94268W        W66583  13.552  29.911   0.761
94269W        W66584  40.389  28.518   2.177
94270W        W66585  31.501  39.305   1.247
94271W        W66586  42.756  42.479  14.254
94272W        W66587  31.050  37.771   3.658
94273W        W66588   1.702  19.208  11.525
94274W        W66589  21.840  18.284   2.722
94275W        W66590  15.266  30.484   4.769
94276W        W66591  43.965  18.617  12.292
94277W        W66592  28.071  29.452   0.454
94278W        W66593  24.453  28.551   0.031
94279W        W66594  37.365  36.369   4.141
94280W        W66595   0.429  13.124   2.611
94281W        W66596  42.676  12.282  14.526
94282W        W66597  33.459  37.106  13.156
94283W        W66598  32.559  41.569   0.807
94284W        W66599  26.579   1.444   0.435
94285W        W66600  35.132   0.240   4.749
94286W        W66601   5.186   2.298   0.762
94287W        W66602  31.545  20.170   1.973
94288W        W66603   6.461  30.329  11.595
94289W        W66604   7.822  42.228  12.086
94290W        W66605  19.642   9.440   4.086
94291W        W66606  37.096   3.722  12.061
94292W        W66607   5.948  15.589  12.065
94293W        W66608  38.943  37.592  13.645
94294W        W66609   3.732   2.261  13.398
94295W        W66610  33.353  20.674   2.756
94296W        W66611  12.215  34.398   1.548
94297W        W66612  40.564  32.875  12.411
94298W        W66613  32.134   7.004   2.310
94299W        W66614   3.207   8.806   3.822
94300W        W66615  11.294  10.116   0.980
94301W        W66616  40.431  28.263   2.654
94302W        W66617  41.267  44.801   0.935
94303W        W66618   7.682  30.719  10.715
94304W        W66619   1.360  32.838  12.897
94305W        W66620  30.435   7.108   4.568
94306W        W66621   5.869   8.377  10.751
94307W        W66622   3.228  23.041   1.191
94308W        W66623   5.928  26.949   3.689
94309W        W66624  29.259  10.203   2.261
94310W        W66625  10.372  41.277   1.792
94311W        W66626  22.583  22.673  13.788
94312W        W66627   4.013  41.384   1.180
94313W        W66628   3.421  35.051   0.299
94314W        W66629  11.683  27.062   2.768
94315W        W66630  17.125  35.303  14.962
94316W        W66631  31.755   0.475  13.750
94317W        W66632  22.677  21.468   4.237
94318W        W66633  27.033   4.810   1.232
94319W        W66634  23.344  14.664  14.768
94320W        W66635  40.343  15.132  14.030
94321W        W66636  26.581  21.179  11.934
94322W        W66637  32.952  42.208   2.456
94323W        W66638  23.122   6.443  11.927
94324W        W66639  39.555   6.336   2.204
94325W        W66640  18.610  32.971   2.104
94326W        W66641  15.181  43.837  11.812
94327W        W66642  38.926   4.968   1.403
94328W        W66643  21.543  26.003   4.766
94329W        W66644   4.948  17.826   3.189
94330W        W66645  42.859  23.490  12.981
94331W        W66646  40.448   8.877   2.123
94332W        W66647  42.297  44.831   0.702
94333W        W66648  33.965  37.566   0.471
94334W        W66649  31.099   0.827  14.784
94335W        W66650  13.533   8.880   4.132
94336W        W66651  33.678  15.803   3.231
94337W        W66652  14.633  39.280  10.229
94338W        W66653  24.679  31.959   0.276
94339W        W66654  20.307   4.779  11.031
94340W        W66655  20.951  29.443   2.444
94341W        W66656   2.971  35.412   3.809
94342W        W66657   3.188  30.939   2.144
94343W        W66658  36.469  17.177  11.221
94344W        W66659  28.583  21.271   1.794
94345W        W66660  42.881  22.744  13.364
94346W        W66661  29.561  32.898  14.855
94347W        W66662   8.183  15.203   0.396
94348W        W66663  35.002  41.924   3.274
94349W        W66664   2.401   4.403  13.050
94350W        W66665   4.281   7.864   2.830
94351W        W66666   2.311  25.976  11.114
94352W        W66667  20.630  24.162  10.307
94353W        W66668  21.618  24.792  12.128
94354W        W66669   0.411  22.118  10.697
94355W        W66670  14.182  19.992   2.854
94356W        W66671  10.626  17.193  14.733
94357W        W66672  32.938  37.342  10.765
94358W        W66673   6.647  40.058  10.456
94359W        W66674  35.023   4.881   2.367
94360W        W66675  27.598  35.133  11.152
94361W        W66676   6.917  31.943   2.360
94362W        W66677  41.384  28.789   2.619
94363W        W66678  42.731   0.192  12.019
94364W        W66679  33.546  12.146   0.447
94365W        W66680  41.459  39.328   1.201
94366W        W66681   0.734  43.344   2.870
94367W        W66682   4.484  34.511   4.979
94368W        W66683   3.741  17.354   3.706
94369W        W66684  39.519   0.366   2.749
94370W        W66685  13.854  28.074   1.883
94371W        W66686   0.242   2.424   3.671
94372W        W66687  29.219  10.300   0.363
94373W        W66688  35.041  27.051  11.131
94374W        W66689  11.601  39.967  12.533
94375W        W66690  23.457  11.673   2.833
94376W        W66691  33.357  24.714   0.981
94377W        W66692  26.050  12.018   3.655
94378W        W66693   3.324  12.714  14.520
94379W        W66694   4.459   2.420   2.886
94380W        W66695  11.983  38.364  12.879
94381W        W66696   2.429   3.759   0.687
94382W        W66697  13.169  15.983   4.047
94383W        W66698  33.818  44.170  12.358
94384W        W66699  11.873  44.546   4.047
94385W        W66700   2.481  12.802  14.806
94386W        W66701  22.152  41.633  14.360
94387W        W66702   8.849  13.090  14.333
94388W        W66703  16.857  17.742  13.065
94389W        W66704  33.353  11.796  11.484
94390W        W66705  40.243  21.173   3.535
94391W        W66706  32.598  41.329  11.442
94392W        W66707  33.021  18.509  11.438
94393W        W66708  38.857  15.602  13.126
94394W        W66709   3.422  29.458  12.948
94395W        W66710  10.918  14.545  11.683
94396W        W66711  14.913  17.715  11.527
94397W        W66712  25.043   4.274   0.882
94398W        W66713   7.394   4.394   4.792
94399W        W66714  43.907  20.016  14.659
94400W        W66715  39.692   0.281  13.244
94401W        W66716  20.794  27.410   2.876
94402W        W66717  17.779   6.307   0.312
94403W        W66718   9.860  22.697  11.462
94404W        W66719  39.553  19.113   0.801
94405W        W66720  44.391   2.773   1.961
94406W        W66721  13.079  35.569   3.198
94407W        W66722   9.195   6.482  11.508
94408W        W66723  14.191   4.464  10.746
94409W        W66724  29.719  35.416  14.038
94410W        W66725  21.989  23.910   4.763
94411W        W66726  14.758   8.832   4.333
94412W        W66727  44.795  22.471  10.143
94413W        W66728   3.867  41.440  11.947
94414W        W66729  31.506  16.397  11.345
94415W        W66730   5.773  31.213   1.946
94416W        W66731   2.621  37.832  13.959
94417W        W66732  25.414  22.591  11.336
94418W        W66733  20.840   3.824  10.363
94419W        W66734  12.635   0.272  10.425
94420W        W66735  28.127  21.816   1.466
94421W        W66736  22.723  40.938  11.970
94422W        W66737  37.631  33.963  13.043
94423W        W66738  31.204  15.124   2.012
94424W        W66739   0.397   6.324   0.708
94425W        W66740  24.450  25.142   1.764
94426W        W66741  34.572  16.727  11.983
94427W        W66742   4.397  40.555   3.663
94428W        W66743  30.972  26.440  14.996
94429W        W66744  36.277   7.664   3.683
94430W        W66745  14.689  32.060   4.550
94431W        W66746   6.963  22.147   0.156
94432W        W66747  15.350   8.218  13.068
94433W        W66748   0.329  15.709  13.422
94434W        W66749  18.839  36.607  13.682
94435W        W66750  30.105  44.896   2.728
94436W        W66751   2.413  42.263   4.177
94437W        W66752  17.618  27.727   3.673
94438W        W66753   8.210  31.154   2.442
94439W        W66754  18.902  30.354  11.521
94440W        W66755  28.571   2.501   3.220
94441W        W66756  44.438  43.749  11.170
94442W        W66757   0.933  40.112   0.371
94443W        W66758  26.148  14.162   3.369
94444W        W66759   7.223  34.192  11.608
94445W        W66760  42.489  20.225  10.648
94446W        W66761  36.760   5.313  10.383
94447W        W66762  24.950  10.784  11.901
94448W        W66763   9.205  10.634  14.506
94449W        W66764  19.567  11.597   1.405
94450W        W66765  12.165  11.900   3.286
94451W        W66766   6.317  37.351  10.728
94452W        W66767  37.665  16.083  11.648
94453W        W66768  22.726   9.261   0.712
94454W        W66769   3.290  20.456   1.790
94455W        W66770   0.979  35.372  11.575
94456W        W66771  36.020   6.779   3.388
94457W        W66772  29.047  35.977   4.735
94458W        W66773  34.451  20.174  13.121
94459W        W66774  16.035  27.333  14.693
94460W        W66775  26.392   0.922  12.527
94461W        W66776  43.962  42.795  13.579
94462W        W66777  29.979  10.401   3.357
94463W        W66778  35.808   8.469   4.758
94464W        W66779  15.226  42.158   4.151
94465W        W66780  39.865  22.535   0.224
94466W        W66781  21.111   9.618  14.349
94467W        W66782  26.924  35.447   0.765
94468W        W66783  37.750  36.662   1.694
94469W        W66784  12.864  41.759   2.272
94470W        W66785   5.235  42.956  14.343
94471W        W66786   0.418  28.528  10.547
94472W        W66787   1.588  13.171   4.498
94473W        W66788   5.500  17.087  10.117
94474W        W66789  21.830  32.824  14.969
94475W        W66790   1.494  20.253  13.971
94476W        W66791  37.641  33.923   4.906
94477W        W66792  16.749  36.424   1.757
94478W        W66793  31.571  42.552   3.945
94479W        W66794  22.660  31.261  12.594
94480W        W66795  27.008   7.470  14.416
94481W        W66796  12.815   5.467   3.511
94482W        W66797  43.984   3.107   3.265
94483W        W66798  40.233  24.438   9.767
94484W        W66799   4.730  13.185  13.917
94485W        W66800  35.132   6.375  11.081
94486W        W66801   3.543   7.695   0.763
94487W        W66802  36.883  25.529   1.464
94488W        W66803  25.894  15.725  13.403
94489W        W66804  34.109  29.210   3.620
94490W        W66805  13.051  11.847   3.333
94491W        W66806  44.802  15.816  12.012
94492W        W66807  31.595  18.278   2.892
94493W        W66808   4.714   8.512   0.468
94494W        W66809  16.643  35.374   0.754
94495W        W66810  18.544  19.755   0.560
94496W        W66811   7.714   7.940  12.199
94497W        W66812  25.652  42.466  12.059
94498W        W66813   1.976  35.461   1.904
94499W        W66814  19.304  32.691   2.401
94500W        W66815  24.644  28.637  14.556
94501W        W66816  12.022   2.382  11.154
94502W        W66817  34.500  28.273  10.782
94503W        W66818  17.729   1.724   2.666
94504W        W66819  29.322   3.960   4.660
94505W        W66820  24.191   3.193   1.615
94506W        W66821  43.580  26.900  12.553
94507W        W66822  21.222  10.475  10.644
94508W        W66823  25.028  44.074   0.817
94509W        W66824   4.272  43.986   4.697
94510W        W66825  25.501   4.214  10.732
94511W        W66826  29.078  35.079   2.287
94512W        W66827  44.731  38.447  14.378
94513W        W66828  31.695   3.697  14.658
94514W        W66829  39.154  14.277   4.162
94515W        W66830  35.366   3.951   2.719
94516W        W66831  12.322  18.889  13.361
94517W        W66832  11.230  21.626  12.659
94518W        W66833  29.866  36.507   1.788
94519W        W66834  25.490  13.119  12.462
94520W        W66835  12.862  12.128  11.538
94521W        W66836  39.343  29.071   1.145
94522W        W66837  19.599  21.145   1.881
94523W        W66838   0.156  41.870  14.383
94524W        W66839  14.017  30.353  11.598
94525W        W66840  20.182  39.359  11.100
94526W        W66841  10.305  24.534  14.676
94527W        W66842  15.585  11.269  11.185
94528W        W66843  43.711   9.596   4.651
94529W        W66844  19.680  42.351   4.760
94530W        W66845  32.294  24.735  13.988
94531W        W66846  44.770   8.771  11.440
94532W        W66847  20.760  21.100  10.154
94533W        W66848  20.166  33.045   4.082
94534W        W66849  16.297  43.440   3.099
94535W        W66850   5.026  12.759   4.827
94536W        W66851  42.769  15.118   0.348
94537W        W66852   4.280  10.187   1.879
94538W        W66853  34.640  24.482  11.648
94539W        W66854  18.001  30.589   0.991
94540W        W66855  14.144  17.928   2.279
94541W        W66856  29.420  25.566   4.052
94542W        W66857   5.712  24.414  14.936
94543W        W66858  16.455  43.845  10.977
94544W        W66859  23.525   5.974   3.721
94545W        W66860  38.986  10.930   3.341
94546W        W66861  33.004  23.636   3.209
94547W        W66862   5.663  34.025  14.932
94548W        W66863  44.054   0.687  11.622
94549W        W66864  11.793   6.703  14.822
94550W        W66865  23.120  13.430   4.006
94551W        W66866  28.981   5.292  14.752
94552W        W66867  18.083   3.603  10.648
94553W        W66868   7.741   9.740   2.736
94554W        W66869  33.639  26.483   3.593
94555W        W66870  40.979   9.376  13.399
94556W        W66871  19.759  16.737  12.811
94557W        W66872  31.094  13.795   4.561
94558W        W66873  30.653  41.043   2.842
94559W        W66874  15.584  29.766   2.973
94560W        W66875   6.027  13.132   3.768
94561W        W66876  11.306  24.268  12.897
94562W        W66877   9.393  21.973  12.990
94563W        W66878  19.575   1.952  10.684
94564W        W66879  20.539  40.393   4.371
94565W        W66880   4.466  42.438   4.596
94566W        W66881  23.718  18.490   0.866
94567W        W66882   2.373   8.937  12.922
94568W        W66883  36.463   1.817   3.602
94569W        W66884  21.437  21.171   1.901
94570W        W66885  37.447  43.242   4.235
94571W        W66886  12.090   9.364   3.233
94572W        W66887  24.034  11.951   4.520
94573W        W66888  19.601  21.503  13.094
94574W        W66889  42.338   1.367  12.672
94575W        W66890  42.545  34.513  12.363
94576W        W66891  11.167   1.666   1.222
94577W        W66892   9.174  43.452  14.005
94578W        W66893  10.376  35.381  14.316
94579W        W66894  12.736   8.233  11.296
94580W        W66895  12.078  23.583  10.173
94581W        W66896   1.244  43.475   2.895
94582W        W66897   8.930   1.276  13.404
94583W        W66898  27.602  27.521  14.085
94584W        W66899  30.322   9.662   3.036
94585W        W66900  24.104  21.274   4.841
94586W        W66901  33.750  29.486  12.081
94587W        W66902  37.380  37.932  13.864
94588W        W66903  11.861  29.059  13.730
94589W        W66904   9.610  33.966   0.785
94590W        W66905  30.462  11.602  11.987
94591W        W66906  39.905  30.420   2.574
94592W        W66907  41.794  28.421   3.498
94593W        W66908   2.112  14.816  13.794
94594W        W66909  35.375  37.976  13.288
94595W        W66910  11.867  10.102   2.836
94596W        W66911  33.906  36.851  11.081
94597W        W66912   1.877  16.051   3.613
94598W        W66913  39.107  36.546  12.082
94599W        W66914  42.421  23.134   3.156
94600W        W66915  10.297  27.442   4.259
94601W        W66916  38.948   2.294  13.760
94602W        W66917  24.707  19.939   1.366
94603W        W66918   5.032  28.636  12.803
94604W        W66919   8.642  29.238  13.616
94605W        W66920  43.968  42.274  11.160
94606W        W66921  24.286  42.943   0.762
94607W        W66922  13.606   4.407   3.544
94608W        W66923  34.490  15.728   4.072
94609W        W66924  32.913   9.270   2.968
94610W        W66925  15.261   0.429  12.136
94611W        W66926  29.264  23.807  13.353
94612W        W66927   9.787  13.727  13.802
94613W        W66928   9.108   0.908  12.601
94614W        W66929  24.475  40.424  14.979
94615W        W66930  42.552   2.000   4.608
94616W        W66931  40.749  44.341   2.789
94617W        W66932  25.548   9.671   0.940
94618W        W66933  39.354  20.539   0.994
94619W        W66934   8.435  11.737  14.290
94620W        W66935  44.779   9.181  14.438
94621W        W66936  14.843  28.143  10.182
94622W        W66937  18.147  27.947  13.660
94623W        W66938  40.307  18.041  12.926
94624W        W66939  11.402  17.639   1.880
94625W        W66940  14.599   8.833  14.938
94626W        W66941  29.650  31.032  13.450
94627W        W66942  42.476   2.697   0.821
94628W        W66943  41.060  16.824   1.382
94629W        W66944  28.945  34.046   1.387
94630W        W66945  37.984  26.699  13.491
94631W        W66946   2.338  27.227   4.189
94632W        W66947  19.362   2.255  12.028
94633W        W66948   3.508   1.935   4.568
94634W        W66949  19.602  11.416  12.406
94635W        W66950  21.204   4.934  12.446
94636W        W66951   2.197  18.135   0.424
94637W        W66952  19.866  32.527  10.416
94638W        W66953  13.814   2.178   4.499
94639W        W66954  21.067  40.468   1.778
94640W        W66955  20.257  28.878   3.273
94641W        W66956  14.819  36.220  10.799
94642W        W66957  21.894  42.969  12.029
94643W        W66958  35.532  33.350  11.377
94644W        W66959  20.631  33.013   0.388
94645W        W66960   0.901  37.512   0.424
94646W        W66961   5.721  13.043   3.358
94647W        W66962  12.897   8.861  11.550
94648W        W66963  26.157  39.418   3.348
94649W        W66964  20.942  29.088   0.438
94650W        W66965  30.453  26.947   2.199
94651W        W66966  17.744   8.596   1.372
94652W        W66967  26.778   4.771   1.716
94653W        W66968  35.752  40.268   1.606
94654W        W66969  20.630  25.594   4.363
94655W        W66970   9.406  23.216  11.071
94656W        W66971   3.188  31.378   0.350
94657W        W66972  41.978  37.559  11.384
94658W        W66973  41.509  16.185  11.599
94659W        W66974  39.445  19.981  14.722
94660W        W66975   4.838   2.308   3.540
94661W        W66976  11.781  25.204  10.680
94662W        W66977  22.238  21.646  11.700
94663W        W66978  44.824  43.008  12.660
94664W        W66979   7.540  42.221  12.531
94665W        W66980  26.215  39.358  12.868
94666W        W66981  21.541  29.458   2.376
94667W        W66982  23.915   5.286   1.840
94668W        W66983  28.993  18.350  11.930
94669W        W66984   1.494   2.690  11.462
94670W        W66985  40.236  20.695  11.993
94671W        W66986  15.080  38.913   0.744
94672W        W66987  42.590  30.638  11.592
94673W        W66988  23.702   2.668  14.324
94674W        W66989  42.043   4.577   3.959
94675W        W66990   2.311  37.665   4.634
94676W        W66991  16.749  28.429  13.472
94677W        W66992  30.950   3.150  12.419
94678W        W66993   9.125  20.702  13.902
94679W        W66994   1.489   3.373  13.100
94680W        W66995  29.385  42.795   1.662
94681W        W66996  25.001   1.250  10.649
94682W        W66997  17.269  27.195   4.703
94683W        W66998   1.293  42.992  12.456
94684W        W66999  41.402  29.246  14.498
94685W        W67000  23.432  12.620   3.706
94686W        W67001  44.881   0.168   0.431
94687W        W67002  41.276   2.669  13.351
94688W        W67003  39.895  12.833   4.547
94689W        W67004  43.071  35.646  13.510
94690W        W67005   2.895  26.142   1.822
94691W        W67006   9.336  36.979  10.454
94692W        W67007   2.049  28.434  12.775
94693W        W67008  40.037  15.619   3.715
94694W        W67009   3.454   3.850   2.905
94695W        W67010  21.969  25.343   4.856
94696W        W67011   8.149   3.459   2.840
94697W        W67012  22.054   4.753  12.017
94698W        W67013  22.988  32.414   4.770
94699W        W67014   1.025  32.076  12.605
94700W        W67015  19.657  29.705   0.743
94701W        W67016  29.498  28.700  11.152
94702W        W67017   5.070  13.342   2.589
94703W        W67018  24.603   8.276   3.624
94704W        W67019   2.378  33.424   1.780
94705W        W67020  14.829  10.111  13.529
94706W        W67021  28.288  22.094   2.311
94707W        W67022  16.042  37.009  13.778
94708W        W67023  19.586  33.360  10.836
94709W        W67024  34.849   6.383  10.654
94710W        W67025   1.476  33.706  10.914
94711W        W67026  29.385  31.722   1.702
94712W        W67027   1.377  21.174   0.511
94713W        W67028  22.502  20.713  12.317
94714W        W67029  30.072  43.046  14.444
94715W        W67030  20.835  28.165   0.952
94716W        W67031  16.479  40.258  14.962
94717W        W67032  32.556  18.101   2.371
94718W        W67033   6.956  30.561   0.395
94719W        W67034  22.845  38.503  11.884
94720W        W67035  20.360  10.226  10.923
94721W        W67036  16.711  16.868   0.352
94722W        W67037   9.928   6.191   3.196
94723W        W67038   8.473  13.723  14.405
94724W        W67039  42.030  22.716  11.439
94725W        W67040  31.544  12.620   2.895
94726W        W67041  39.580  20.814   1.383
94727W        W67042  11.638  40.415  13.503
94728W        W67043  42.358  19.409  12.718
94729W        W67044  36.838  25.613  14.942
94730W        W67045   8.883   3.374  11.651
94731W        W67046   9.939  43.662  13.824
94732W        W67047  44.263  18.153   4.539
94733W        W67048   0.947  33.230  10.592
94734W        W67049  18.542  20.558  11.476
94735W        W67050  38.895  38.477   0.270
94736W        W67051   5.913  23.913   3.543
94737W        W67052  37.341  39.909  13.120
94738W        W67053   2.537  27.088   4.653
94739W        W67054  27.004  22.931  12.894
94740W        W67055  13.221  36.067  12.114
94741W        W67056  28.199  44.889  13.549
94742W        W67057  42.551  15.524  14.264
94743W        W67058  21.322  13.806  10.560
94744W        W67059  35.745   0.277   1.857
94745W        W67060   2.475  14.698   3.706
94746W        W67061  28.237  44.526   5.106
94747W        W67062  44.388  20.955   3.205
94748W        W67063  44.571  26.741  12.013
94749W        W67064   0.884  37.809  11.142
94750W        W67065  25.392  33.191   4.051
94751W        W67066   3.977  30.538   1.800
94752W        W67067  21.752  43.428  13.327
94753W        W67068  24.999   3.224  11.604
94754W        W67069  36.477   0.452   1.546
94755W        W67070  15.853  27.622  12.035
94756W        W67071   1.911  42.211  14.340
94757W        W67072  25.998  21.480  14.835
94758W        W67073  12.721  26.119  14.872
94759W        W67074  36.323  34.921  12.422
94760W        W67075  16.617  27.636  10.941
94761W        W67076  30.459  12.108  14.813
94762W        W67077  22.445  27.459   2.400
94763W        W67078  12.352  12.663  10.711
94764W        W67079  39.591   0.784  12.590
94765W        W67080  32.921  27.459   1.427
94766W        W67081  30.069  16.095   1.161
94767W        W67082  40.779  28.209   2.285
94768W        W67083  36.513  24.293   3.051
94769W        W67084  28.996  17.660   3.595
94770W        W67085  19.154   3.953   2.226
94771W        W67086  21.111  25.202   3.150
94772W        W67087  19.840   2.358   4.083
94773W        W67088   2.036  28.120  11.398
94774W        W67089  38.309  27.249  12.631
94775W        W67090  38.299  17.326   3.783
94776W        W67091  25.517  39.019   2.927
94777W        W67092   3.010   2.021  12.590
94778W        W67093   6.619  41.009   4.549
94779W        W67094   2.650  41.292   1.390
94780W        W67095  31.085  14.174  11.028
94781W        W67096  21.521  11.510  12.190
94782W        W67097  40.979  30.202  13.435
94783W        W67098  39.462   7.420   0.403
94784W        W67099  30.115  19.072  11.578
94785W        W67100  23.215  36.611  12.078
94786W        W67101  35.598  25.034   4.144
94787W        W67102  31.312  36.492   4.107
94788W        W67103  29.727  44.554   0.467
94789W        W67104  43.053   5.328  10.709
94790W        W67105  39.876   8.206  12.438
94791W        W67106  11.756  31.432   2.393
94792W        W67107  20.123  15.801   0.745
94793W        W67108   8.414  24.689   2.587
94794W        W67109   4.274  27.236   4.227
94795W        W67110  39.302  20.272   2.249
94796W        W67111  26.366  17.154   0.216
94797W        W67112  22.253  16.507  13.964
94798W        W67113  19.107  14.882   3.993
94799W        W67114  27.417  13.486  11.353
94800W        W67115  28.607  14.570  13.801
94801W        W67116  17.349  41.303   2.298
94802W        W67117  15.807   7.134   1.405
94803W        W67118  25.741  22.311  11.022
94804W        W67119  20.206  38.123   4.716
94805W        W67120  27.640  31.621  11.584
94806W        W67121  31.608  29.625  11.981
94807W        W67122  19.147   3.886   0.825
94808W        W67123  39.950  24.999   0.908
94809W        W67124  34.940   9.108  12.510
94810W        W67125  43.439  31.154  11.102
94811W        W67126  30.990  34.709   2.843
94812W        W67127  21.838  33.183   4.014
94813W        W67128  15.298  24.033  14.392
94814W        W67129  39.938  34.402  13.405
94815W        W67130  13.557  15.301   4.425
94816W        W67131  11.833  15.849   2.936
94817W        W67132   7.370   9.113   2.253
94818W        W67133  31.723  23.989  13.110
94819W        W67134   6.303  37.022  12.030
94820W        W67135  18.578  20.388   1.527
94821W        W67136  35.023  11.687  12.127
94822W        W67137  32.642  31.586  11.062
94823W        W67138   4.011  35.376  10.832
94824W        W67139  19.777  26.192   4.338
94825W        W67140  31.607  26.174  10.643
94826W        W67141  29.088  33.553   1.363
94827W        W67142  40.339  29.356  11.101
94828W        W67143  36.115   1.886  13.305
94829W        W67144   9.723  13.128   1.366
94830W        W67145   3.203  15.043  10.772
94831W        W67146  44.280  24.521   0.269
94832W        W67147   5.918  13.303  14.000
94833W        W67148   2.186  23.669  10.940
94834W        W67149  41.134  23.443   5.099
94835W        W67150   2.887  17.058  12.915
94836W        W67151  12.124   4.391   2.342
94837W        W67152  26.618  36.826   1.072
94838W        W67153   8.255  31.052   0.671
94839W        W67154  28.865  24.273   4.643
94840W        W67155   3.799  28.290  12.484
94841W        W67156  39.152  26.174  14.088
94842W        W67157   2.641   7.180   4.679
94843W        W67158  42.341  23.905  14.321
94844W        W67159  12.660  22.345   0.277
94845W        W67160   8.582  10.300  14.885
94846W        W67161  16.599  28.139  13.937
94847W        W67162  14.324  20.990  12.195
94848W        W67163   1.487  21.112  13.864
94849W        W67164   8.204  25.080  10.930
94850W        W67165  39.037   7.157   1.012
94851W        W67166  16.050   1.352   4.081
94852W        W67167  24.195  10.171   3.532
94853W        W67168   0.985  23.813   1.764
94854W        W67169  25.863  40.323  14.123
94855W        W67170   9.528  20.111  12.939
94856W        W67171  16.622  15.155  10.608
94857W        W67172  10.577   3.409  10.850
94858W        W67173  37.577  18.271   3.651
94859W        W67174  21.163  31.494   4.657
94860W        W67175  30.460  34.301   3.753
94861W        W67176  34.334  20.813   1.006
94862W        W67177  21.653  38.846   3.366
94863W        W67178   4.622  33.436  11.084
94864W        W67179   9.306  22.803   1.289
94865W        W67180  28.319  30.911   0.885
94866W        W67181  37.692  21.686   2.363
94867W        W67182  43.279  23.619   2.378
94868W        W67183   2.131   5.768   3.157
94869W        W67184  17.524  43.402  11.122
94870W        W67185   7.885  20.544  14.472
94871W        W67186  28.684  25.177  14.411
94872W        W67187  41.498  43.593   1.995
94873W        W67188  27.810  31.313  13.831
94874W        W67189   1.798   7.900  11.551
94875W        W67190  38.555   3.091   2.293
94876W        W67191   1.070  17.115   0.411
94877W        W67192   8.654  34.675  12.608
94878W        W67193  40.351  33.606  10.648
94879W        W67194   9.146  38.101   2.247
94880W        W67195  27.453  28.683   1.317
94881W        W67196  27.480   2.393  13.034
94882W        W67197  35.830  28.278  11.326
94883W        W67198  24.342  33.102  14.380
94884W        W67199  43.740  40.249  13.468
94885W        W67200   0.488   9.581   4.655
94886W        W67201   7.712   9.801  13.188
94887W        W67202   2.702  35.430  14.346
94888W        W67203  44.987   3.427   4.126
94889W        W67204  35.461  17.908   4.249
94890W        W67205   3.277   7.718   2.742
94891W        W67206   7.649  42.626   1.628
94892W        W67207  11.048  21.387  12.009
94893W        W67208  24.184  20.737  10.661
94894W        W67209  28.535   4.955  10.702
94895W        W67210  43.825  34.173   2.346
94896W        W67211  35.870   5.004   3.311
94897W        W67212   1.089   5.528  10.626
94898W        W67213  35.094  23.218  12.407
94899W        W67214  41.494  25.463  11.444
94900W        W67215  20.314  33.955   3.683
94901W        W67216  14.176  12.225   0.674
94902W        W67217  35.013  12.575   1.933
94903W        W67218  43.492   2.467   4.264
94904W        W67219  13.924  41.615   4.007
94905W        W67220   1.841  27.998  10.383
94906W        W67221  40.909  21.178   4.630
94907W        W67222  40.166  17.817   0.790
94908W        W67223  23.104   9.378   1.107
94909W        W67224  18.592  10.995  12.665
94910W        W67225  37.458  32.375  14.366
94911W        W67226  40.059  26.223   0.502
94912W        W67227   1.703  12.519   9.486
94913W        W67228  19.552  14.183   1.652
94914W        W67229  21.566   7.692  11.572
94915W        W67230   5.079  36.957   4.494
94916W        W67231  40.411  25.354   3.312
94917W        W67232  41.502  16.692   3.123
94918W        W67233  20.500  10.287  14.388
94919W        W67234  33.917  39.105  12.614
94920W        W67235  33.388  43.944  13.440
94921W        W67236  27.636  22.724  11.247
94922W        W67237  26.088  17.112   3.325
94923W        W67238  17.297  32.915  12.854
94924W        W67239  25.724   8.444  12.020
94925W        W67240  28.663  15.054   0.674
94926W        W67241  10.801  39.327  14.403
94927W        W67242  33.332  24.178   1.732
94928W        W67243  25.724  16.663  12.545
94929W        W67244  13.870  19.643  14.778
94930W        W67245   5.240  19.451  14.194
94931W        W67246  10.733  18.119  12.034
94932W        W67247  12.166  17.120  11.785
94933W        W67248  31.124  18.130   2.605
94934W        W67249   0.309  33.624   0.435
94935W        W67250  33.374  22.040  14.922
94936W        W67251   5.973  44.972   2.085
94937W        W67252   8.635  20.802  12.154
94938W        W67253   9.846   5.098   1.097
94939W        W67254  34.371  15.552   2.686
94940W        W67255  24.020  43.641   4.666
94941W        W67256  18.665  29.438  13.338
94942W        W67257  36.411  31.341  10.929
94943W        W67258  41.818  10.466   4.666
94944W        W67259   5.828   0.851   0.703
94945W        W67260  41.461  16.567  11.962
94946W        W67261  11.480  23.415  13.024
94947W        W67262  29.685  33.408  14.815
94948W        W67263   4.449  24.481   3.665
94949W        W67264  31.002  21.253   1.191
94950W        W67265  33.279  18.785   4.552
94951W        W67266  29.650  36.940  12.833
94952W        W67267  31.579  24.946  14.951
94953W        W67268  12.312  10.611  12.689
94954W        W67269  25.475   4.111   3.753
94955W        W67270  10.621  33.822   1.646
94956W        W67271  22.046  33.633   2.447
94957W        W67272  17.105  44.769  14.561
94958W        W67273  14.031  12.855   4.787
94959W        W67274  25.048   9.388  11.002
94960W        W67275  43.523  21.522  12.010
94961W        W67276  35.748  13.114  14.839
94962W        W67277   6.742   1.256  14.914
94963W        W67278   6.358  12.755  13.937
94964W        W67279  13.594  30.689  11.599
94965W        W67280  12.126  36.305  11.193
94966W        W67281  38.733  41.428  13.480
94967W        W67282  31.584  44.846  13.104
94968W        W67283  33.682  11.942   3.235
94969W        W67284  39.096  41.566  12.086
94970W        W67285   8.641  23.762  11.926
94971W        W67286   8.187  40.779  12.273
94972W        W67287   6.871  28.413   2.256
94973W        W67288   7.762   5.984   3.291
94974W        W67289  15.770   7.366  13.135
94975W        W67290  18.882   6.414  14.286
94976W        W67291   7.333  12.508   2.795
94977W        W67292  23.767   3.966   1.999
94978W        W67293  41.838  21.278  11.562
94979W        W67294   2.817   4.853   4.480
94980W        W67295  34.379  11.945  14.321
94981W        W67296  10.698  25.841   4.465
94982W        W67297  26.174  43.289   1.631
94983W        W67298   3.747  26.581  12.895
94984W        W67299  13.720  31.858  14.852
94985W        W67300   4.455  18.966   4.263
94986W        W67301  25.706   6.172  10.143
94987W        W67302   1.330   2.484   4.777
94988W        W67303   6.632  37.006   1.434
94989W        W67304  35.054  13.159  12.328
94990W        W67305  26.217  43.911  13.668
94991W        W67306   6.918  12.083  10.743
94992W        W67307  38.701  23.924  12.004
94993W        W67308   1.928  35.760   1.406
94994W        W67309   5.057  28.722   1.640
94995W        W67310  41.719   7.656  12.463
94996W        W67311  37.934  33.460  11.733
94997W        W67312   9.636  41.774   0.380
94998W        W67313  18.388  23.770   0.424
94999W        W67314  39.289  18.271  10.239
95000W        W67315  20.714  25.267  11.063
95001W        W67316   6.826  37.384   2.208
95002W        W67317  10.774  43.029   3.118
95003W        W67318  13.320  30.889  12.859
95004W        W67319  11.240  43.984  14.385
95005W        W67320  42.014  42.317   3.982
95006W        W67321   1.991  40.633  14.866
95007W        W67322  24.126  25.537  11.377
95008W        W67323  33.382  15.372  10.745
95009W        W67324  23.530  18.364  11.404
95010W        W67325  20.154  11.792  14.255
95011W        W67326  37.958  22.980  14.903
95012W        W67327  41.494   3.756  11.536
95013W        W67328   9.332  33.552   1.930
95014W        W67329  21.341  22.257   0.688
95015W        W67330  17.256  27.151  12.456
95016W        W67331  22.010  18.644   0.307
95017W        W67332  16.693  42.461   3.253
95018W        W67333  41.314   2.797   3.112
95019W        W67334  37.160  24.768  13.147
95020W        W67335  17.208   3.889  14.914
95021W        W67336   0.239  42.970  11.828
95022W        W67337  40.340  33.065  12.878
95023W        W67338  29.921   8.761   1.721
95024W        W67339  12.432  16.276  12.102
95025W        W67340  25.512   5.507   3.315
95026W        W67341  14.918  33.961   4.179
95027W        W67342  31.990  35.824  14.828
95028W        W67343  19.667  32.174  10.728
95029W        W67344  12.646  28.658   4.227
95030W        W67345  19.485   8.253  14.884
95031W        W67346  21.907  26.252  13.479
95032W        W67347  39.021  15.614   3.752
95033W        W67348  44.419  21.216  14.827
95034W        W67349  35.437  33.437   0.854
95035W        W67350  39.581  44.751  10.633
95036W        W67351  23.512   4.739   1.294
95037W        W67352   4.834  12.899   4.148
95038W        W67353  20.982   0.781  13.873
95039W        W67354   0.737   4.056   5.027
95040W        W67355  42.942  15.046  11.953
95041W        W67356  14.676  34.537   1.411
95042W        W67357  10.810  15.038   1.509
95043W        W67358  40.016  15.532   1.209
95044W        W67359  22.591   2.452   4.534
95045W        W67360  14.606   3.422  11.679
95046W        W67361  40.812  19.759   2.330
95047W        W67362  17.717  42.934  11.194
95048W        W67363   3.119  13.601   2.096
95049W        W67364  34.325  14.057   3.166
95050W        W67365  26.265  43.722  12.614
95051W        W67366  35.064  18.097  13.679
95052W        W67367  31.602  44.734  12.606
95053W        W67368  31.135  29.223   1.295
95054W        W67369   1.898  19.628   2.599
95055W        W67370  22.188  33.226   2.161
95056W        W67371  44.215  29.179   2.800
95057W        W67372   8.182  23.606  14.697
95058W        W67373  44.197  27.281  11.050
95059W        W67374  28.605  23.522   1.259
95060W        W67375  44.914  26.141   1.466
95061W        W67376  42.107  14.783  11.239
95062W        W67377  18.580  42.915   5.099
95063W        W67378   7.969  19.489   0.740
95064W        W67379  19.978   0.489  11.989
95065W        W67380  26.163  43.524  10.712
95066W        W67381  19.751  25.689  13.382
95067W        W67382  37.856   5.758   0.738
95068W        W67383  26.886  11.852   4.525
95069W        W67384  21.244  40.949   1.900
95070W        W67385  13.901   9.906  12.004
95071W        W67386  42.291  19.584   2.802
95072W        W67387  10.748  39.460  11.242
95073W        W67388  12.789  41.053   4.856
95074W        W67389   9.796  40.274  12.148
95075W        W67390  18.927   7.930  10.213
95076W        W67391  41.360  20.505   4.610
95077W        W67392  18.679  24.640  13.893
95078W        W67393  34.413  16.936   2.040
95079W        W67394  10.643  41.517   0.362
95080W        W67395  23.284  37.424  12.308
95081W        W67396  37.546   1.298   1.916
95082W        W67397  23.763  33.622  11.928
95083W        W67398  40.060   4.519  12.480
95084W        W67399   4.306  36.520   1.822
95085W        W67400   5.856  29.613   2.442
95086W        W67401  43.388  17.315   2.574
95087W        W67402   3.415  28.423   2.781
95088W        W67403   0.275  34.572   3.365
95089W        W67404  42.548   2.876   2.595
95090W        W67405   0.212  33.567  11.548
95091W        W67406  43.348  42.855  14.290
95092W        W67407   7.177   5.425  14.369
95093W        W67408  16.724  41.054  10.330
95094W        W67409  23.209  36.603  11.129
95095W        W67410  41.386  44.400  11.879
95096W        W67411   9.250  16.403   5.458
95097W        W67412  24.591   7.870  11.564
95098W        W67413   0.497  21.676  11.591
95099W        W67414  24.682  41.535   1.742
95100W        W67415   6.519  21.580  11.272
95101W        W67416  27.643  28.785   4.087
95102W        W67417   9.325  26.200  12.396
95103W        W67418  34.492  22.087   3.434
95104W        W67419  38.921  16.779  14.254
95105W        W67420  14.903  24.073   1.791
95106W        W67421  12.068  32.015   2.512
95107W        W67422  25.069  29.975   1.386
95108W        W67423  38.023   7.919  13.716
95109W        W67424  24.685  17.589  11.618
95110W        W67425  42.096  36.997  12.691
95111W        W67426   9.957  21.238  13.606
95112W        W67427  18.456   3.252  10.646
95113W        W67428  26.943  26.345   1.586
95114W        W67429  24.431   8.880   2.803
95115W        W67430  40.090  34.235  14.045
95116W        W67431  18.460   1.755   4.622
95117W        W67432   9.892  33.602  14.853
95118W        W67433   4.362  29.652   4.376
95119W        W67434  23.171  30.045  11.973
95120W        W67435  26.027  13.210   1.409
95121W        W67436  32.730  29.610   1.214
95122W        W67437  43.452   3.414  14.480
95123W        W67438  24.606  14.046  12.938
95124W        W67439  25.699   7.245  14.759
95125W        W67440  32.381  15.032  13.392
95126W        W67441  10.676   3.114  12.588
95127W        W67442  20.267   9.978  14.822
95128W        W67443  26.532   0.435  12.748
95129W        W67444  11.906  17.587   2.018
95130W        W67445  36.576  35.996  10.300
95131W        W67446  44.522  44.272   0.348
95132W        W67447  20.259  44.441   2.603
95133W        W67448  44.574  11.826   2.232
95134W        W67449  35.779  17.697  11.511
95135W        W67450  38.179  26.611  11.534
95136W        W67451  25.733  43.874  12.960
95137W        W67452  15.854  39.064  10.934
95138W        W67453  42.969   0.067  11.002
95139W        W67454  30.997  29.447   1.796
95140W        W67455  10.016  26.519   1.308
95141W        W67456  29.820  32.932  12.392
95142W        W67457  38.126  13.088  11.956
95143W        W67458  43.354  21.604  14.689
95144W        W67459  23.659  31.860  11.750
95145W        W67460   2.024  18.283  11.529
95146W        W67461   9.562  35.615  11.215
95147W        W67462  20.230  10.885   4.700
95148W        W67463  27.978  14.227  14.964
95149W        W67464  14.688  39.367  14.996
95150W        W67465   8.260   3.014  10.559
95151W        W67466  31.950  28.338  14.918
95152W        W67467  25.525  43.519   3.550
95153W        W67468  24.742  38.604  10.696
95154W        W67469  26.643   3.693  11.154
95155W        W67470  14.845   3.905   2.464
95156W        W67471  35.995  15.626   3.847
95157W        W67472  44.382  12.047   4.263
95158W        W67473   0.363  18.740   1.218
95159W        W67474  34.783  10.755   0.890
95160W        W67475  38.835  21.619  13.863
95161W        W67476  44.879  21.991   0.150
95162W        W67477  43.966  39.484   3.207
95163W        W67478   7.898   9.743  14.049
95164W        W67479  22.183  27.626   4.538
95165W        W67480  24.957   5.719  14.410
95166W        W67481  24.496  37.505  10.536
95167W        W67482  30.912  23.686   5.105
95168W        W67483  13.782  30.454  12.046
95169W        W67484  13.852  24.820  11.493
95170W        W67485   5.590   0.797   1.382
95171W        W67486  30.396  15.021  11.596
95172W        W67487  19.204  11.081  14.805
95173W        W67488  16.729   5.121   0.876
95174W        W67489  30.461  29.923  13.123
95175W        W67490   8.287  41.381   0.219
95176W        W67491   0.850   0.580   2.459
95177W        W67492  40.824   3.858  14.245
95178W        W67493  19.009  23.129   2.280
95179W        W67494  17.594  41.532  11.141
95180W        W67495   7.208  31.886   3.385
95181W        W67496  12.343  13.146   1.652
95182W        W67497  21.594  26.346   4.351
95183W        W67498  26.133  37.988   1.180
95184W        W67499   5.507  12.394  14.863
95185W        W67500  21.041  21.077  10.634
95186W        W67501  30.974   2.788  13.269
95187W        W67502  20.923  23.793  14.368
95188W        W67503  29.704  18.535   0.525
95189W        W67504  25.761  11.379  11.135
95190W        W67505  34.388  26.567  10.413
95191W        W67506   1.369   6.786   1.671
95192W        W67507   2.985  40.397  14.205
95193W        W67508  26.062  23.147  13.135
95194W        W67509   4.869   4.196  14.850
95195W        W67510  42.459  34.927   3.586
95196W        W67511  34.405  16.158   1.389
95197W        W67512   8.311  43.051  12.903
95198W        W67513  33.974  31.933   9.909
95199W        W67514  11.663  23.723   0.415
95200W        W67515   2.778  27.160  14.004
95201W        W67516  18.608   5.244  12.837
95202W        W67517  24.144  22.388  12.400
95203W        W67518  18.853  34.571  11.572
95204W        W67519  40.639  20.627  10.709
95205W        W67520  24.790  16.598  14.341
95206W        W67521  39.461  26.103   4.095
95207W        W67522   2.320  17.621  12.503
95208W        W67523   7.112  39.278  13.569
95209W        W67524  44.833  19.478   1.553
95210W        W67525  43.927  17.883  13.486
95211W        W67526   5.319  23.000  12.526
95212W        W67527   2.287  24.920  14.875
95213W        W67528  16.346  34.073   0.946
95214W        W67529  15.181  37.069   0.637
95215W        W67530  12.545  20.790   4.074
95216W        W67531  15.167  34.162   4.897
95217W        W67532   7.908  20.952   1.782
95218W        W67533  37.077  33.498   1.403
95219W        W67534  18.116  10.234   3.539
95220W        W67535  26.962  10.701  11.372
95221W        W67536  35.456  32.876  12.388
95222W        W67537  33.877  13.647  12.047
95223W        W67538  41.118  16.276   3.106
95224W        W67539  28.705  25.202  12.915
95225W        W67540  36.782  44.825  14.817
95226W        W67541  32.095  21.619  12.527
95227W        W67542  26.455  23.093   4.622
95228W        W67543  19.005  22.988   0.941
95229W        W67544   0.390  25.038  10.728
95230W        W67545  30.447  11.599  14.813
95231W        W67546  13.800  14.660  14.352
95232W        W67547  44.975  17.122  13.301
95233W        W67548  11.134  18.471  10.672
95234W        W67549  10.972  12.246  14.195
95235W        W67550  19.088  28.793  14.365
95236W        W67551  11.746  41.022  10.978
95237W        W67552   7.722   2.351  11.656
95238W        W67553  10.893   8.116  11.637
95239W        W67554   1.372   1.527   4.589
95240W        W67555  21.188  19.140  10.617
95241W        W67556  19.537  26.609   3.663
95242W        W67557  28.912  42.249   2.888
95243W        W67558  21.408   1.275   3.801
95244W        W67559   1.841  27.618  13.944
95245W        W67560  43.942  22.011  13.043
95246W        W67561  25.478  20.013   4.222
95247W        W67562   0.229   9.594   9.836
95248W        W67563   8.976  29.959  12.536
95249W        W67564   7.363  24.140   2.207
95250W        W67565  13.659  33.300   2.108
95251W        W67566  13.097  30.286  14.426
95252W        W67567  11.203   5.563   3.412
95253W        W67568  44.285   6.106  14.862
95254W        W67569  36.553  35.331   1.304
95255W        W67570  29.879  19.082   3.833
95256W        W67571  30.723   1.253   3.669
95257W        W67572  42.784  41.021   1.186
95258W        W67573  22.629  37.111   2.374
95259W        W67574  34.346  38.634   0.248
95260W        W67575  37.781   3.715   3.737
95261W        W67576   1.558   8.955  14.812
95262W        W67577  40.902   7.386   0.156
95263W        W67578  19.888  40.542  10.706
95264W        W67579   8.183  41.330   1.487
95265W        W67580  22.814  30.877  12.938
95266W        W67581  42.051   3.388  13.388
95267W        W67582  20.124  11.905   3.264
95268W        W67583  18.074   3.417  11.121
95269W        W67584  41.442  40.031   3.991
95270W        W67585  39.899  42.220   3.250
95271W        W67586   8.550  19.988   0.037
95272W        W67587  39.779  30.509  12.505
95273W        W67588  30.697  10.622  10.698
95274W        W67589  11.882  21.649   1.279
95275W        W67590  37.799  42.838  10.277
95276W        W67591  19.505  16.392  14.210
95277W        W67592   8.867   2.407   4.941
95278W        W67593  34.254  13.746   2.750
95279W        W67594  24.504  41.737   2.388
95280W        W67595  19.138   3.521   1.217
95281W        W67596   2.401  10.061  11.636
95282W        W67597  42.400  40.456   3.619
95283W        W67598  41.846  15.733  13.049
95284W        W67599  43.846   7.741   4.580
95285W        W67600  42.354  38.414  14.292
95286W        W67601   0.769  12.952  13.187
95287W        W67602  27.674   2.351   4.274
95288W        W67603  35.172  44.796  11.936
95289W        W67604  19.645  35.949  10.488
95290W        W67605  34.224  26.050   4.262
95291W        W67606  28.214  41.932  12.892
95292W        W67607  34.630  21.127   1.290
95293W        W67608  17.124  28.148   9.810
95294W        W67609  19.228  34.397  13.917
95295W        W67610   7.713  25.703   3.881
95296W        W67611  44.327  25.760  11.048
95297W        W67612  23.057  42.886   4.556
95298W        W67613  37.034  26.915  14.356
95299W        W67614  20.301  22.753  10.656
95300W        W67615  41.887  36.937  12.213
95301W        W67616  36.372   1.922   3.096
95302W        W67617  12.651  19.544  11.117
95303W        W67618   7.101  40.989  13.923
95304W        W67619  21.012  43.487  12.108
95305W        W67620   0.182   4.003   0.783
95306W        W67621   3.765  32.199  11.866
95307W        W67622  36.862   7.749  13.348
95308W        W67623   3.476  21.025   0.429
95309W        W67624  28.584  15.309   2.190
95310W        W67625   5.415   0.477   1.897
95311W        W67626  20.720   3.748  10.887
95312W        W67627  34.425  14.650   4.655
95313W        W67628  29.301  16.692   4.962
95314W        W67629   2.432  24.563   4.325
95315W        W67630  33.172   9.783   2.294
95316W        W67631  21.164  18.575   1.631
95317W        W67632  41.889   8.102   3.532
95318W        W67633  23.852   8.906  10.762
95319W        W67634   2.896  31.332   0.792
95320W        W67635  34.223   4.335  12.382
95321W        W67636  14.000  26.498   4.562
95322W        W67637   6.389  23.825   2.733
95323W        W67638  22.096  38.414   4.591
95324W        W67639  38.128   6.772   0.961
95325W        W67640  28.811  32.872  12.586
95326W        W67641  41.456  17.114   2.240
95327W        W67642  26.139  44.721   4.602
95328W        W67643  10.845  41.561   4.801
95329W        W67644   1.887  40.245  12.035
95330W        W67645  27.145  21.421  13.922
95331W        W67646   5.477  32.935   4.117
95332W        W67647  41.721  37.773  14.210
95333W        W67648  21.129  13.311  11.150
95334W        W67649   6.337   1.424   1.330
95335W        W67650  27.539  34.779  14.921
95336W        W67651  34.982  35.635   3.821
95337W        W67652  13.182  33.889  13.211
95338W        W67653   7.783  38.473  14.460
95339W        W67654  22.474   0.531  10.285
95340W        W67655  22.779  18.370  10.128
95341W        W67656   9.793  39.305  13.815
95342W        W67657  33.227  27.395  14.284
95343W        W67658  40.035  44.575  12.253
95344W        W67659  12.943  13.635  11.469
95345W        W67660   4.474  27.377  10.993
95346W        W67661  26.116   5.858  14.846
95347W        W67662   8.202   9.135   4.940
95348W        W67663   6.399  20.526  11.985
95349W        W67664   8.104  30.513   0.098
95350W        W67665  26.116  42.934  13.611
95351W        W67666  30.490   7.216   4.083
95352W        W67667  39.765  11.747  14.642
95353W        W67668  30.532  16.692   0.008
95354W        W67669  27.204  19.310  12.052
95355W        W67670   1.826   0.712   3.451
95356W        W67671  25.685  44.408   3.663
95357W        W67672  15.746  19.792   1.896
95358W        W67673  12.641   3.910  12.881
95359W        W67674  44.229  22.772   3.792
95360W        W67675   5.958  38.422  14.857
95361W        W67676   4.296  37.132  11.037
95362W        W67677  22.488   0.310  11.174
95363W        W67678   6.796  28.433   4.665
95364W        W67679  24.553  26.166   1.745
95365W        W67680  35.584  32.521  14.855
95366W        W67681  35.647   2.333   2.815
95367W        W67682  35.390  27.524  10.523
95368W        W67683  24.583  35.414   0.703
95369W        W67684   6.983  39.749   2.520
95370W        W67685   3.462   1.979   2.623
95371W        W67686  32.042  38.686  10.231
95372W        W67687  41.824  41.991  12.592
95373W        W67688  32.977  25.465   1.504
95374W        W67689  28.046  24.007   3.356
95375W        W67690   6.431  28.927  14.990
95376W        W67691   1.777  37.652  13.765
95377W        W67692  39.421  32.552  11.037
95378W        W67693  27.178   5.289   1.489
95379W        W67694   4.320  17.306  13.900
95380W        W67695  23.763   2.158  14.318
95381W        W67696  15.197  18.549  12.494
95382W        W67697  27.570   2.934   1.284
95383W        W67698  21.116   5.248  12.037
95384W        W67699  28.023  40.783  10.666
95385W        W67700  34.325  14.152   1.800
95386W        W67701  28.943  28.149  10.711
95387W        W67702  25.247  34.814  11.206
95388W        W67703   9.304  25.256  12.499
95389W        W67704  37.554  39.149  11.182
95390W        W67705   9.721  22.519   1.254
95391W        W67706  14.023  11.601  10.772
95392W        W67707  13.659  11.683  12.923
95393W        W67708  26.225  15.064   3.211
95394W        W67709  15.661   3.752  11.936
95395W        W67710  44.277  44.321   4.518
95396W        W67711  16.597   6.088  13.854
95397W        W67712  32.836  19.122   0.748
95398W        W67713  21.088   1.781  11.580
95399W        W67714  43.381  25.004   0.919
95400W        W67715  25.583  13.368  11.149
95401W        W67716  21.976  40.493   1.571
95402W        W67717  22.264  11.977   4.174
95403W        W67718   7.168  13.172  14.462
95404W        W67719  12.319   9.185   4.478
95405W        W67720  15.769  33.596  12.468
95406W        W67721  42.369  22.954   4.005
95407W        W67722  26.374   5.086   1.774
95408W        W67723  14.505  26.617  14.876
95409W        W67724   7.123  30.626   4.176
95410W        W67725  11.700  31.168   3.785
95411W        W67726  13.148  19.480   3.791
95412W        W67727   4.783  28.632  14.002
95413W        W67728  41.486   9.706  14.105
95414W        W67729  24.518  43.313  12.896
95415W        W67730  24.182  24.533  11.066
95416W        W67731  22.555  39.158   3.625
95417W        W67732  32.454  42.314   1.358
95418W        W67733   9.700  10.615   3.596
95419W        W67734   5.798  33.205   1.812
95420W        W67735   1.068  32.367  11.945
95421W        W67736  44.884  31.015   0.304
95422W        W67737   4.889  35.347   3.438
95423W        W67738   3.997  11.783   2.155
95424W        W67739  41.406  10.411   2.886
95425W        W67740   5.213  29.002  14.321
95426W        W67741  29.963   2.789   0.211
95427W        W67742  28.444  32.861   1.846
95428W        W67743  42.840  40.412   3.308
95429W        W67744   0.689  34.143   4.075
95430W        W67745   3.497   0.961  13.932
95431W        W67746  40.746  33.392   0.785
95432W        W67747  43.804  39.889  11.515
95433W        W67748   0.691  21.035   2.595
95434W        W67749  20.007  14.900  13.473
95435W        W67750  13.587  41.247   1.903
95436W        W67751  29.193  27.433   2.397
95437W        W67752   7.708  18.227  11.959
95438W        W67753  33.166  40.352   0.804
95439W        W67754   3.648  31.468  13.287
95440W        W67755  11.612   6.268   2.367
95441W        W67756  43.286  39.808  10.743
95442W        W67757  30.870  36.519   1.748
95443W        W67758   7.999  40.350   4.521
95444W        W67759  39.027  10.687   3.788
95445W        W67760  32.880  14.256   0.780
95446W        W67761  30.608   2.558   1.761
95447W        W67762  37.480  37.476  12.055
95448W        W67763  33.380   7.728   4.556
95449W        W67764  40.870   1.312   0.871
95450W        W67765  19.557  44.358  12.388
95451W        W67766  22.641  35.343  13.814
95452W        W67767  31.093  30.564  11.223
95453W        W67768   7.354  10.755   2.705
95454W        W67769  12.331  26.888  13.973
95455W        W67770  24.068  13.286  12.933
95456W        W67771   5.817   5.934   3.820
95457W        W67772  40.983  19.654  12.429
95458W        W67773  27.499  37.019   0.158
95459W        W67774   8.646  42.051  11.081
95460W        W67775  28.593  12.689  13.895
95461W        W67776  21.361  12.775   2.816
95462W        W67777  31.847  31.661   0.356
95463W        W67778  22.069   6.135   3.262
95464W        W67779  27.468  15.110   2.774
95465W        W67780   8.772  12.775   1.692
95466W        W67781  25.353  39.673   1.382
95467W        W67782  28.146   1.697   0.963
95468W        W67783   6.208   3.862  13.138
95469W        W67784  33.936  23.028   0.588
95470W        W67785  24.059   3.450  13.494
95471W        W67786   7.928  30.389  11.521
95472W        W67787  28.532  17.082  14.580
95473W        W67788  21.881  14.772  12.170
95474W        W67789  23.797  32.659  11.197
95475W        W67790  31.892  35.887  12.017
95476W        W67791  36.142  15.020  12.549
95477W        W67792   6.217  35.036  12.070
95478W        W67793  38.211  17.982   4.424
95479W        W67794  16.237  34.417  12.963
95480W        W67795   9.710  42.809   0.227
95481W        W67796  33.585  22.029   1.885
95482W        W67797  10.855   7.162  14.017
95483W        W67798  40.129  12.633  12.550
95484W        W67799  19.812  41.334   3.664
95485W        W67800  28.756   1.664   2.624
95486W        W67801  36.728  12.142   4.487
95487W        W67802  15.395  33.500  12.820
95488W        W67803   6.225  30.156   4.279
95489W        W67804  41.861  43.040  10.625
95490W        W67805  24.160  43.474   1.368
95491W        W67806  13.563  38.027   1.007
95492W        W67807   6.130  29.122   0.375
95493W        W67808  14.432  28.621   3.837
95494W        W67809  17.205  18.054   1.533
95495W        W67810  18.637  10.850   3.246
95496W        W67811   1.695  29.032   0.460
95497W        W67812  20.214  35.128   3.154
95498W        W67813  34.401  14.305  10.747
95499W        W67814  31.943  33.470  10.382
95500W        W67815  32.107   9.285  12.824
95501W        W67816  41.368  17.681   1.971
95502W        W67817  19.166  36.597  13.248
95503W        W67818  18.302  41.829  13.901
95504W        W67819  22.919  11.723   1.484
95505W        W67820  16.818  20.657  12.469
95506W        W67821  42.487  16.683   4.180
95507W        W67822  23.577  30.572  13.923
95508W        W67823  36.542  27.017  10.350
95509W        W67824  19.181  13.863   0.383
95510W        W67825  32.458  13.793  12.344
95511W        W67826  18.701   2.350   0.712
95512W        W67827  24.954   9.468   0.794
95513W        W67828   1.185  42.981   1.961
95514W        W67829  27.918   4.388  14.061
95515W        W67830  33.950  42.424   1.478
95516W        W67831   0.181  30.210   0.322
95517W        W67832  19.313  11.957  13.991
95518W        W67833  33.043  21.267  11.126
95519W        W67834  44.432  12.388  13.597
95520W        W67835  24.186  39.020  12.882
95521W        W67836  38.870  38.784  14.861
95522W        W67837  17.201  18.620   4.125
95523W        W67838  29.873   4.507   4.318
95524W        W67839  36.138  39.942   1.802
95525W        W67840  19.469   9.911  13.042
95526W        W67841  38.922  38.840   2.461
95527W        W67842  27.679  38.341   1.339
95528W        W67843  16.209  24.966  12.967
95529W        W67844   4.883  22.155  10.807
95530W        W67845  44.397   9.792   0.847
95531W        W67846   5.191  36.318   2.920
95532W        W67847  38.571   1.754   4.982
95533W        W67848   6.827  42.616  10.895
95534W        W67849  35.755  11.331  12.080
95535W        W67850  21.281  19.125   2.924
95536W        W67851  35.882   0.870   3.619
95537W        W67852  22.530  39.241   2.568
95538W        W67853  21.022  39.550   4.850
95539W        W67854  19.619   4.751   0.611
95540W        W67855  38.185  37.434   4.306
95541W        W67856  39.355  42.706   2.806
95542W        W67857   0.553   8.841   5.088
95543W        W67858   5.992  43.050   2.155
95544W        W67859  17.291  42.726  12.368
95545W        W67860  24.481  22.899   0.338
95546W        W67861   6.794  41.800   4.042
95547W        W67862   0.109  34.896  14.609
95548W        W67863  32.393   3.675   2.956
95549W        W67864   4.614  39.642   1.879
95550W        W67865  35.241  28.320  14.981
95551W        W67866  29.996  36.835  12.476
95552W        W67867  24.469  22.490  13.569
95553W        W67868  18.859  38.983  11.029
95554W        W67869   4.761  39.500  10.874
95555W        W67870  44.223  39.284   2.544
95556W        W67871  28.845  17.058  14.018
95557W        W67872  13.889  22.477  14.569
95558W        W67873  38.890  12.519  13.948
95559W        W67874  24.088  35.782  11.292
95560W        W67875  30.888  34.868  11.615
95561W        W67876   7.581  19.598  12.976
95562W        W67877  32.570  39.094  12.155
95563W        W67878   5.996  26.522  13.405
95564W        W67879   2.490  13.507   4.146
95565W        W67880  23.186  41.234   3.605
95566W        W67881  29.073  28.209  12.348
95567W        W67882  30.210  22.608  13.848
95568W        W67883   4.154  24.783  13.905
95569W        W67884  25.109  44.555   0.985
95570W        W67885   0.157  24.323   1.376
95571W        W67886   9.944   1.927   3.351
95572W        W67887  31.683  25.525  13.694
95573W        W67888  38.807   1.549  12.845
95574W        W67889   8.644  38.909  13.497
95575W        W67890   3.279  32.658  12.505
95576W        W67891  15.074   5.330   4.901
95577W        W67892  17.335  42.534   5.126
95578W        W67893  41.862  29.897  12.467
95579W        W67894  38.884  32.506   1.945
95580W        W67895  31.928  25.741  12.508
95581W        W67896   0.796   4.616   5.078
95582W        W67897   1.444   9.233   3.707
95583W        W67898  40.260  44.785  14.295
95584W        W67899  12.709   4.396  11.082
95585W        W67900  11.908  13.006  12.365
95586W        W67901  26.029  42.111  13.831
95587W        W67902  37.523  41.934  14.286
95588W        W67903  37.852  27.871  12.799
95589W        W67904  11.902  33.849  11.102
95590W        W67905  26.572   7.189   2.207
95591W        W67906  13.097  40.475  14.935
95592W        W67907  30.879  10.845  11.675
95593W        W67908  25.104   5.804  11.148
95594W        W67909  27.502  34.662   5.326
95595W        W67910  32.918   8.891   1.852
95596W        W67911  11.894  15.286  14.563
95597W        W67912  22.589   5.930  10.968
95598W        W67913   4.031  25.421   2.493
95599W        W67914  32.076  13.342  14.805
95600W        W67915  16.338   8.718   0.770
95601W        W67916  17.194  19.065  14.850
95602W        W67917  15.783   6.441   0.642
95603W        W67918   7.553   2.431  13.085
95604W        W67919  42.404  10.366   1.673
95605W        W67920  40.091   9.266   4.369
95606W        W67921  16.021   7.732   4.620
95607W        W67922  44.291  18.137   4.033
95608W        W67923  25.215   2.320   2.358
95609W        W67924  12.235  36.943   0.425
95610W        W67925   1.404  23.700   2.468
95611W        W67926   9.865   2.546   1.017
95612W        W67927  12.006  18.781  14.763
95613W        W67928  30.057  20.801  14.925
95614W        W67929  18.843  44.332   2.431
95615W        W67930  23.115   0.149  14.312
95616W        W67931  35.130  31.523   3.240
95617W        W67932  40.824  23.691   1.771
95618W        W67933  20.491  31.034  12.420
95619W        W67934  39.542  33.990   2.792
95620W        W67935  41.931  33.943  12.504
95621W        W67936  42.561  32.731  12.966
95622W        W67937  13.828   0.057  12.663
95623W        W67938  41.900  12.162  13.086
95624W        W67939  28.266  41.162   0.377
95625W        W67940  18.558   9.231  13.610
95626W        W67941  13.790  31.355  13.906
95627W        W67942  27.966  16.014  10.393
95628W        W67943   3.867  19.604   4.174
95629W        W67944   3.408   4.486   1.602
95630W        W67945   4.048  40.026   1.463
95631W        W67946  22.923   7.361   4.085
95632W        W67947   5.628   6.228   0.309
95633W        W67948  24.294  33.611  12.024
95634W        W67949  29.031  22.152   0.833
95635W        W67950   2.224  27.658  14.908
95636W        W67951  16.952  39.825   0.397
95637W        W67952   1.295  22.135   0.224
95638W        W67953  20.548   9.142  11.943
95639W        W67954   3.864  41.860  11.498
95640W        W67955   2.825  41.780  14.674
95641W        W67956  33.994  10.014  12.968
95642W        W67957  15.943  34.477  11.071
95643W        W67958  44.299  35.538  13.957
95644W        W67959  11.421  19.528  10.536
95645W        W67960  15.587  13.195   3.629
95646W        W67961   4.807  29.426  11.613
95647W        W67962  16.554  38.021  12.422
95648W        W67963  44.265  14.352  13.788
95649W        W67964  31.458  23.969   3.312
95650W        W67965  14.367  20.031   0.447
95651W        W67966  25.072  34.644   0.871
95652W        W67967  21.678  40.870  13.406
95653W        W67968   1.216  16.054   2.936
95654W        W67969  20.689   2.777  10.615
95655W        W67970  14.911   1.739   2.673
95656W        W67971  25.537   3.452  13.142
95657W        W67972  29.450   6.464  12.027
95658W        W67973  14.160  44.404   4.045
95659W        W67974  23.156   9.096   2.928
95660W        W67975  18.759  16.855  13.999
95661W        W67976  16.537  33.458   0.312
95662W        W67977  39.431  27.963  13.393
95663W        W67978  39.293   5.841   4.299
95664W        W67979  18.721  37.386   4.440
95665W        W67980  26.560   5.496  14.159
95666W        W67981  23.456  20.645  12.504
95667W        W67982  25.557  23.541   0.301
95668W        W67983  21.679  40.094   3.635
95669W        W67984   4.189   0.352   2.220
95670W        W67985  24.992  35.971  12.463
95671W        W67986  18.091  21.615   4.187
95672W        W67987  31.423  44.927   3.270
95673W        W67988  17.077  32.769   2.827
95674W        W67989   2.483  12.691   2.331
95675W        W67990  41.649  32.529  11.067
95676W        W67991  39.769  28.754   1.001
95677W        W67992  17.769  26.333  10.738
95678W        W67993  28.591   6.304   5.444
95679W        W67994  13.614  42.049   2.768
95680W        W67995  18.706  40.515   3.570
95681W        W67996   0.772   2.177  11.457
95682W        W67997   3.222  40.124   0.356
95683W        W67998  40.830   6.851   0.861
95684W        W67999  12.098   5.663   1.880
95685W        W68000  15.805  38.986   0.352
95686W        W68001   5.272  23.698   1.827
95687W        W68002  16.161  44.757  14.466
95688W        W68003  40.784  19.991  14.437
95689W        W68004   3.187  28.059  13.353
95690W        W68005   5.358  40.599  13.315
95691W        W68006   5.457   4.938  14.751
95692W        W68007   1.188  30.889  13.545
95693W        W68008   2.241  26.028   0.228
95694W        W68009  44.384  12.862  12.758
95695W        W68010   0.517  43.372  11.099
95696W        W68011  21.609  36.252   3.215
95697W        W68012   0.699   8.413  10.657
95698W        W68013  12.939   2.697  13.845
95699W        W68014  21.639  12.285  12.824
95700W        W68015  30.155  18.676   0.324
95701W        W68016  21.989   7.670  12.912
95702W        W68017  34.523  32.386   0.309
95703W        W68018  40.437  37.918   1.158
95704W        W68019   2.840  19.709  12.118
95705W        W68020  16.626   4.225   0.871
95706W        W68021  31.088  32.492   4.751
95707W        W68022   2.414  17.448  10.345
95708W        W68023   5.614   4.453   0.361
95709W        W68024  14.407  42.260  14.353
95710W        W68025  35.816  18.501   0.753
95711W        W68026  18.609  15.389   4.739
95712W        W68027  12.271  13.284   3.201
95713W        W68028   7.901  35.809  13.769
95714W        W68029  27.226  29.814  11.876
95715W        W68030  10.334  15.790  13.962
95716W        W68031   4.918  21.034  11.462
95717W        W68032  40.008   9.603   2.396
95718W        W68033  13.912  23.673  12.455
95719W        W68034  15.570   0.410   2.976
95720W        W68035  12.188  42.832   3.915
95721W        W68036  24.181  28.595   3.751
95722W        W68037  13.039  18.280  10.790
95723W        W68038  32.046  37.934  14.189
95724W        W68039  36.666  34.108  11.922
95725W        W68040  22.515  20.962   4.284
95726W        W68041  35.343   0.568  11.956
95727W        W68042  20.030   5.761  10.944
95728W        W68043  39.788   3.096   2.626
95729W        W68044  42.536  35.276  14.754
95730W        W68045  10.211   4.359  13.630
95731W        W68046  37.655  15.558  13.340
95732W        W68047   1.708  17.849  13.351
95733W        W68048  26.119  43.685  12.098
95734W        W68049  36.413  41.470   3.080
95735W        W68050  42.387  42.311   4.329
95736W        W68051   6.848  41.633  11.553
95737W        W68052  29.374  19.180  13.806
95738W        W68053  23.138  35.367   0.092
95739W        W68054  28.935  37.618  10.115
95740W        W68055  29.249  42.322  14.359
95741W        W68056  26.512  44.033   4.966
95742W        W68057  39.928  14.944  13.751
95743W        W68058  34.385  19.125   3.630
95744W        W68059  23.846   5.868   0.326
95745W        W68060  44.093   9.722   9.471
95746W        W68061  16.650  28.611   4.029
95747W        W68062   6.818  23.690  14.401
95748W        W68063   7.134  22.958   1.915
95749W        W68064  14.458  19.255  13.202
95750W        W68065   3.768  35.995   0.353
95751W        W68066   8.724  10.725   2.861
95752W        W68067  17.364  44.330  13.864
95753W        W68068  30.322  33.090  12.425
95754W        W68069  38.105  37.518   1.917
95755W        W68070   4.413  23.482   4.215
95756W        W68071  31.525  13.595  12.364
95757W        W68072   9.475  23.198   2.635
95758W        W68073   9.213  10.190  11.561
95759W        W68074  12.615  29.881  12.077
95760W        W68075  15.063  41.779  14.978
95761W        W68076  21.328  36.436  14.677
95762W        W68077  13.405   7.008   2.271
95763W        W68078  33.973  33.142   1.361
95764W        W68079   4.512   8.672   4.115
95765W        W68080  41.532  40.561   3.210
95766W        W68081  42.400  39.506   1.312
95767W        W68082   2.253  11.328  12.565
95768W        W68083  19.055   8.926  12.473
95769W        W68084   9.267  22.179   1.988
95770W        W68085  24.098  26.034  12.461
95771W        W68086  36.422  21.499  13.309
95772W        W68087   0.017  20.496   4.842
95773W        W68088  27.914  39.891  13.776
95774W        W68089   4.300  25.591  14.830
95775W        W68090  12.647   5.258  11.599
95776W        W68091   3.475  24.632   4.153
95777W        W68092  15.081  16.020  11.617
95778W        W68093  10.847  16.133   1.657
95779W        W68094  22.555  15.228   4.083
95780W        W68095  40.426  38.253   0.728
95781W        W68096  22.032  12.260   4.563
95782W        W68097  39.107   4.923   4.059
95783W        W68098  10.695   9.815  14.922
95784W        W68099  41.241  40.908   1.189
95785W        W68100  38.541  29.624   3.406
95786W        W68101   5.195  17.101   4.184
95787W        W68102  36.053  19.886   3.633
95788W        W68103  28.344  19.101  13.926
95789W        W68104  21.345  22.427  11.380
95790W        W68105  33.478  37.096   1.889
95791W        W68106  31.091  12.748   3.083
95792W        W68107   6.325  14.772  11.431
95793W        W68108  22.262  43.523  13.290
95794W        W68109   2.774  18.593   1.637
95795W        W68110  20.502  23.817   2.654
95796W        W68111  33.124  16.288  14.428
95797W        W68112  15.962  26.483  10.016
95798W        W68113  34.456  36.835  14.568
95799W        W68114  36.484   0.507  12.914
95800W        W68115  24.109  36.996  14.957
95801W        W68116  22.242   0.206   3.975
95802W        W68117  37.119  31.596   0.942
95803W        W68118  27.329   2.758  11.545
95804W        W68119   3.476  13.749  11.548
95805W        W68120   2.297   1.255  12.157
95806W        W68121  27.462  24.503   2.264
95807W        W68122  38.901  38.844  11.851
95808W        W68123  16.347   8.937  14.280
95809W        W68124   9.039  22.943  12.133
95810W        W68125  29.343  35.649  13.322
95811W        W68126  20.723   4.814   0.716
95812W        W68127  19.146  30.622   3.560
95813W        W68128  11.628  29.945   4.962
95814W        W68129   8.154  34.187  11.694
95815W        W68130  13.155  44.775   2.802
95816W        W68131  23.446  17.667  13.568
95817W        W68132  19.111  27.508   4.827
95818W        W68133  43.931  20.470   1.708
95819W        W68134  29.071   4.164  10.523
95820W        W68135   0.316  33.110  12.658
95821W        W68136  22.604   8.852   1.440
95822W        W68137  15.163   5.603   0.241
95823W        W68138  13.172   6.679   1.433
95824W        W68139  10.106  36.122   0.529
95825W        W68140   9.934  15.653   3.663
95826W        W68141  11.335   8.640   1.237
95827W        W68142  34.532  26.248  12.145
95828W        W68143   1.700  35.839  10.276
95829W        W68144  42.461   5.149  12.994
95830W        W68145  27.554   2.378   2.147
95831W        W68146   7.693  40.304   1.418
95832W        W68147  37.931  17.593   2.010
95833W        W68148  31.351   2.427  13.037
95834W        W68149  17.068  42.466  11.152
95835W        W68150  17.060  27.668   4.659
95836W        W68151   8.452  36.253  14.503
95837W        W68152  18.225   3.829   2.306
95838W        W68153  44.742  12.338   0.449
95839W        W68154   8.762  16.200  10.835
95840W        W68155  24.287  16.678  14.248
95841W        W68156  44.326  36.352  11.556
95842W        W68157  29.010   5.455   1.215
95843W        W68158  21.166  37.730  12.054
95844W        W68159  34.075  32.163   3.238
95845W        W68160   7.960  27.727   2.634
95846W        W68161  18.526   0.023   3.122
95847W        W68162  10.318  42.961   5.059
95848W        W68163   8.899  33.138   0.863
95849W        W68164  12.203  20.103  14.689
95850W        W68165  36.013   9.402   0.761
95851W        W68166  12.223  36.808  11.111
95852W        W68167  26.199  24.102  12.927
95853W        W68168  17.655  38.790  11.432
95854W        W68169   9.601  24.543   4.690
95855W        W68170  25.467  16.119   3.772
95856W        W68171  19.482  20.622  13.985
95857W        W68172  11.389   1.549  10.732
95858W        W68173  31.381  11.696   0.475
95859W        W68174  41.465  19.296  10.716
95860W        W68175  22.257  11.127   1.322
95861W        W68176   7.720   8.707  12.681
95862W        W68177  38.368  25.899  10.970
95863W        W68178  24.715  38.656   4.274
95864W        W68179  15.302  17.142  13.499
95865W        W68180  34.039  35.975  13.362
95866W        W68181  44.444   2.288   0.827
95867W        W68182  32.716  16.927  12.116
95868W        W68183  41.174  42.107  14.316
95869W        W68184  33.858  11.224  12.421
95870W        W68185  10.656  33.839   0.757
95871W        W68186  30.958  28.634  12.129
95872W        W68187   8.522  25.259   0.022
95873W        W68188   0.426  29.282  14.874
95874W        W68189  35.897  30.899  13.026
95875W        W68190  13.128   4.365  13.389
95876W        W68191  42.914  11.480  10.042
95877W        W68192  32.526  22.974   2.166
95878W        W68193   2.129  16.497  11.704
95879W        W68194  21.185  39.912   3.653
95880W        W68195  31.654   7.075  14.918
95881W        W68196  15.267  31.834   3.846
95882W        W68197  33.719  26.206   4.336
95883W        W68198  15.155   2.005  13.958
95884W        W68199   6.092   2.997  11.691
95885W        W68200  32.854  11.443   0.708
95886W        W68201  10.357  22.676  12.713
95887W        W68202  11.660  11.049   0.733
95888W        W68203  20.462  12.696  10.667
95889W        W68204  14.647  34.624   0.334
95890W        W68205  10.135   1.311  12.536
95891W        W68206  28.584  39.891   3.403
95892W        W68207  13.789   2.311   2.210
95893W        W68208  42.492  33.987  13.165
95894W        W68209  35.005  34.789   1.714
95895W        W68210   5.009  22.455   4.500
95896W        W68211  19.107  40.710  11.467
95897W        W68212  26.536  13.845   3.315
95898W        W68213  20.497  30.971   1.122
95899W        W68214   7.442   3.335  13.117
95900W        W68215   3.013  23.568   3.286
95901W        W68216  31.586  34.340   3.647
95902W        W68217  24.106  24.933   3.395
95903W        W68218  24.747  32.656  11.441
95904W        W68219  26.243   7.776   4.243
95905W        W68220  25.112  36.189   0.982
95906W        W68221  34.093  29.373  14.814
95907W        W68222  21.604  18.362   0.035
95908W        W68223  16.070  27.654  14.278
95909W        W68224  42.777  19.346   4.623
95910W        W68225  42.515   3.935   1.299
95911W        W68226  20.217  10.454   2.805
95912W        W68227  21.274  21.579   2.756
95913W        W68228  39.301   9.349  12.086
95914W        W68229   3.010  13.099  12.015
95915W        W68230  12.135   4.245  14.458
95916W        W68231  27.184  34.398  14.048
95917W        W68232  22.757   5.434  14.318
95918W        W68233   3.266  26.495   1.781
95919W        W68234   9.869  37.006   4.626
95920W        W68235   9.870  30.364   0.416
95921W        W68236  17.308  16.781  12.733
95922W        W68237  13.436  29.456  11.611
95923W        W68238   7.896  35.452  12.147
95924W        W68239  38.584  41.256   4.651
95925W        W68240  44.446  27.719  12.344
95926W        W68241  24.046  16.635  11.629
95927W        W68242   4.944  24.814  14.406
95928W        W68243  15.927  23.082  10.521
95929W        W68244  22.277  13.810   1.136
95930W        W68245  20.620   8.098  11.102
95931W        W68246  35.079  25.136  14.880
95932W        W68247  27.871  27.221   2.273
95933W        W68248   4.713   2.272  14.777
95934W        W68249  17.715   4.717  13.007
95935W        W68250   0.766  44.106  12.195
95936W        W68251  14.078  16.337   0.415
95937W        W68252  22.469  23.003  10.638
95938W        W68253   5.391  25.021   2.878
95939W        W68254  15.118   5.171  13.498
95940W        W68255   3.267   6.335   2.766
95941W        W68256   7.379  41.540   3.730
95942W        W68257  44.305  10.642  14.386
95943W        W68258  11.754  12.131   3.064
95944W        W68259  10.405  14.105  12.968
95945W        W68260  25.016   4.600  13.344
95946W        W68261   6.906  29.071   4.081
95947W        W68262  41.862  26.791  12.624
95948W        W68263  37.548  11.342   2.725
95949W        W68264   8.571  23.538   0.503
95950W        W68265  34.627  39.000  10.920
95951W        W68266  18.542  20.674   2.855
95952W        W68267  43.380  20.332   0.859
95953W        W68268  22.763  22.284  13.472
95954W        W68269  23.279  33.954   4.538
95955W        W68270  22.908   3.701   0.428
95956W        W68271  10.308  20.733   3.220
95957W        W68272   7.716  22.010   2.163
95958W        W68273  18.078   4.881  10.701
95959W        W68274  25.617  32.901   2.691
95960W        W68275  34.034  13.752  13.362
95961W        W68276  10.819  16.682   3.557
95962W        W68277  27.692  35.646  11.135
95963W        W68278  39.121  33.129  13.560
95964W        W68279  12.854  23.748  10.762
95965W        W68280  22.139  30.197   2.858
95966W        W68281  12.092  36.947   4.679
95967W        W68282  22.796  31.114   4.244
95968W        W68283   6.758  32.853  12.522
95969W        W68284  44.393  14.854  13.884
95970W        W68285  29.177  33.940   4.115
95971W        W68286  28.545  38.881   3.638
95972W        W68287  11.715  15.997   4.321
95973W        W68288  44.529   1.411   3.849
95974W        W68289  42.035  20.640   2.456
95975W        W68290   8.155  39.038  13.604
95976W        W68291   7.341  40.346   0.290
95977W        W68292  23.269  42.702  14.543
95978W        W68293  30.606  39.848   0.879
95979W        W68294  44.875  33.179  11.521
95980W        W68295  42.363  25.199   0.878
95981W        W68296  14.546  35.872  14.857
95982W        W68297  35.899  13.655   1.853
95983W        W68298  41.510   5.219  12.132
95984W        W68299  36.260  25.264  11.473
95985W        W68300  23.404  41.180   3.075
95986W        W68301  39.843  25.977   4.456
95987W        W68302  19.777  16.686   2.750
95988W        W68303  25.407   1.326  13.841
95989W        W68304  34.589  24.941   1.189
95990W        W68305  39.786  15.989  13.921
95991W        W68306   5.353  26.965  12.830
95992W        W68307  36.596   3.146   1.641
95993W        W68308  18.121  36.672  12.371
95994W        W68309  20.763  41.559   0.462
95995W        W68310  30.879  17.258   2.671
95996W        W68311  39.561  13.566   3.704
95997W        W68312  37.907  38.978  12.053
95998W        W68313   4.985  25.651  13.473
95999W        W68314  17.548  29.465   2.793
96000W        W68315  35.328   2.477   3.673
96001W        W68316  44.797  21.679   0.566
96002W        W68317  15.541  24.964  13.446
96003W        W68318  37.189  38.829  13.258
96004W        W68319  21.214  27.320  11.622
96005W        W68320  30.816  27.414  12.807
96006W        W68321  38.867  13.848  11.579
96007W        W68322  36.699  20.403  11.390
96008W        W68323  27.026  33.452  11.583
96009W        W68324  21.147   3.321   3.287
96010W        W68325  20.511   8.768   0.710
96011W        W68326   7.444   7.211  14.067
96012W        W68327  11.130   3.327  13.429
96013W        W68328   8.263   4.593   1.159
96014W        W68329  24.597  34.875  11.487
96015W        W68330  33.655   4.368   2.441
96016W        W68331  31.649  25.286   4.184
96017W        W68332  11.838  20.539  11.851
96018W        W68333  14.621  26.594   2.304
96019W        W68334  10.547  26.686  12.632
96020W        W68335  27.240  36.657  12.967
96021W        W68336  32.785  20.630   4.906
96022W        W68337  28.392  14.094  13.448
96023W        W68338  24.498   9.186   4.120
96024W        W68339  10.353  19.239  11.526
96025W        W68340  10.851   1.976  13.527
96026W        W68341  19.405  11.307   0.661
96027W        W68342  26.118  43.525   0.902
96028W        W68343  24.333  11.221  11.077
96029W        W68344  42.512   2.946  11.157
96030W        W68345  11.828  17.001  12.761
96031W        W68346  40.118  41.940  14.466
96032W        W68347  43.090  16.523   1.524
96033W        W68348   5.745   9.649  13.437
96034W        W68349  18.349  14.320  14.123
96035W        W68350  22.150   2.248   4.112
96036W        W68351  14.900  32.887  12.434
96037W        W68352  13.364  27.682   0.347
96038W        W68353   3.043  38.062   1.783
96039W        W68354   6.270  22.003  10.531
96040W        W68355  18.595  33.428  12.036
96041W        W68356  20.162  24.930   1.345
96042W        W68357  37.520  19.313   4.635
96043W        W68358  27.741  38.035   1.756
96044W        W68359  15.077  15.611   4.665
96045W        W68360  20.327  40.641  11.561
96046W        W68361  19.344  23.348   3.544
96047W        W68362  42.757  35.447  12.260
96048W        W68363   8.857  33.614  14.667
96049W        W68364   6.288  26.400  11.614
96050W        W68365  44.039  11.912  11.486
96051W        W68366  37.865  20.746  11.028
96052W        W68367   1.267  17.777   0.323
96053W        W68368   1.421  24.192  11.580
96054W        W68369  39.276  37.846  11.076
96055W        W68370  17.789  34.986   3.661
96056W        W68371  16.241  38.551   9.731
96057W        W68372  26.292   2.013  12.599
96058W        W68373  11.863  10.751  10.864
96059W        W68374  16.205  22.725   4.916
96060W        W68375  29.036  27.557   4.933
96061W        W68376   6.501  41.584   2.243
96062W        W68377  36.545  30.631  14.257
96063W        W68378   4.220  30.213  13.478
96064W        W68379  20.094  16.163   3.382
96065W        W68380  14.514  29.510  14.842
96066W        W68381  19.031  30.595   1.602
96067W        W68382  18.732  27.091   1.841
96068W        W68383  11.830   2.243  14.303
96069W        W68384   8.658  13.646  11.685
96070W        W68385  26.989   4.976   4.343
96071W        W68386   9.953  43.491   3.335
96072W        W68387   0.236  42.363  12.378
96073W        W68388  26.381  17.315   4.587
96074W        W68389  10.376  33.490  14.937
96075W        W68390  18.533  40.435  12.535
96076W        W68391   8.376  18.030   2.274
96077W        W68392  20.296   6.422   0.368
96078W        W68393  31.416   8.184   1.333
96079W        W68394  25.985  25.842   3.011
96080W        W68395  29.337  35.586  14.321
96081W        W68396  30.689  15.801   4.659
96082W        W68397  15.798  42.842  12.073
96083W        W68398  42.951  10.453   9.996
96084W        W68399  22.281  42.721   3.193
96085W        W68400  25.766  21.535   2.432
96086W        W68401  26.436   2.066   2.937
96087W        W68402   7.336   2.313   1.703
96088W        W68403  36.282  31.033  13.371
96089W        W68404  18.044   5.768   3.750
96090W        W68405  28.526  24.480  14.282
96091W        W68406  36.299  21.765  13.817
96092W        W68407  15.898  40.908   3.616
96093W        W68408  26.184  44.539   3.715
96094W        W68409  23.008  23.203   0.401
96095W        W68410  25.141  41.080  13.400
96096W        W68411  30.877  15.832  14.925
96097W        W68412   3.818   2.539   3.294
96098W        W68413  30.414  37.426   0.526
96099W        W68414  29.564   0.355   1.194
96100W        W68415  42.102  23.698   4.189
96101W        W68416  41.343  43.282   2.379
96102W        W68417  12.632  41.410  10.605
96103W        W68418  38.801   4.446  12.831
96104W        W68419   6.851  13.779   1.188
96105W        W68420  37.492  16.096  14.334
96106W        W68421  38.883  29.201   4.406
96107W        W68422  35.016   5.259   3.579
96108W        W68423  17.764  24.545   4.700
96109W        W68424   8.683   9.672  12.850
96110W        W68425   0.295  37.272   5.367
96111W        W68426  32.471   1.305  12.531
96112W        W68427  15.303  37.861  14.281
96113W        W68428  10.877   8.689   3.722
96114W        W68429  31.159  33.996   1.924
96115W        W68430   3.809  36.072  12.916
96116W        W68431  33.587   4.757  12.269
96117W        W68432  44.324   9.217   1.906
96118W        W68433   2.627  41.857   2.352
96119W        W68434   6.893  36.295  13.823
96120W        W68435   6.709  35.445  12.593
96121W        W68436  28.174  10.631   3.769
96122W        W68437  20.537   7.414   1.399
96123W        W68438   1.479  26.119  10.684
96124W        W68439  10.772  17.625  11.885
96125W        W68440  29.527  42.519  13.964
96126W        W68441  12.116  32.800  11.164
96127W        W68442  16.733  30.078  12.305
96128W        W68443  25.617  13.954   1.866
96129W        W68444  32.874  39.973  11.034
96130W        W68445  24.224  38.480  10.739
96131W        W68446  34.040   7.773   0.932
96132W        W68447  39.541  21.706   3.330
96133W        W68448  35.033  25.128   1.373
96134W        W68449  19.151   2.454   2.594
96135W        W68450  27.638  13.677   2.351
96136W        W68451  13.738  16.592   3.532
96137W        W68452  39.954   5.832  12.058
96138W        W68453   3.944   9.322  14.004
96139W        W68454  30.994   1.790  11.188
96140W        W68455   7.376  43.629   1.882
96141W        W68456  37.013  40.728   4.348
96142W        W68457   5.838  31.544  13.870
96143W        W68458  14.593  16.171  10.775
96144W        W68459  28.123   5.628   1.230
96145W        W68460  42.881  32.310   5.211
96146W        W68461   6.680   2.255  14.686
96147W        W68462  31.765  40.471   3.817
96148W        W68463  41.712  33.332  10.022
96149W        W68464   0.058  25.157  11.913
96150W        W68465  27.660  21.734   1.665
96151W        W68466   2.618  36.892   2.382
96152W        W68467   0.885   3.728   3.776
96153W        W68468  34.893  39.378   3.261
96154W        W68469  42.371  23.205  10.893
96155W        W68470   4.344  15.243   0.208
96156W        W68471  16.604   6.418  14.745
96157W        W68472  25.122  20.595   0.274
96158W        W68473  24.887  27.904  12.034
96159W        W68474   5.442  14.837  11.124
96160W        W68475  11.737   5.229  13.976
96161W        W68476  10.878  20.543  12.898
96162W        W68477  18.013  31.036   3.313
96163W        W68478  20.296  14.759   3.867
96164W        W68479   4.383  36.992   2.105
96165W        W68480   0.435  26.131  13.249
96166W        W68481  35.065  39.048  12.632
96167W        W68482  37.875  18.713  13.514
96168W        W68483  19.589  25.718   4.223
96169W        W68484   7.009  18.219   1.141
96170W        W68485  30.963  14.901  13.467
96171W        W68486   0.377  28.674  14.766
96172W        W68487  41.881  36.490   0.028
96173W        W68488   0.934  14.807   0.315
96174W        W68489  27.623   0.003   2.886
96175W        W68490  13.714  29.022   3.444
96176W        W68491  24.920   8.105   0.425
96177W        W68492  36.743  42.799   0.483
96178W        W68493  25.434   8.704   4.146
96179W        W68494   5.236   3.270   2.089
96180W        W68495  27.314   1.487   3.422
96181W        W68496  18.065  18.083  12.916
96182W        W68497   4.281  15.051  13.233
96183W        W68498  25.937  32.130   0.912
96184W        W68499  17.626  34.619  12.822
96185W        W68500  27.677   2.988  13.925
96186W        W68501  24.479   1.972   4.066
96187W        W68502  37.567  27.558   4.783
96188W        W68503  39.916  26.156   0.979
96189W        W68504  22.228  20.350  11.412
96190W        W68505  42.911  26.924  10.690
96191W        W68506  13.020  41.893  12.381
96192W        W68507  40.137  12.031   2.599
96193W        W68508   8.340  25.094   4.840
96194W        W68509  25.039  30.371  14.747
96195W        W68510  21.216  17.119   0.347
96196W        W68511  43.020  19.147   1.445
96197W        W68512  35.362  37.107   3.868
96198W        W68513  11.764  14.637  12.003
96199W        W68514   0.307   4.823  14.232
96200W        W68515  10.320  12.900  14.049
96201W        W68516  14.444   2.420   1.291
96202W        W68517  15.134  44.465  11.175
96203W        W68518   4.888   7.644   3.135
96204W        W68519  18.513  41.286  13.316
96205W        W68520  24.995  34.035  13.389
96206W        W68521  33.978  34.391  14.936
96207W        W68522   3.923  19.844  11.463
96208W        W68523  28.241  34.219   5.420
96209W        W68524  29.560   1.192  13.743
96210W        W68525  31.453   4.423  13.487
96211W        W68526  16.541  17.144   4.138
96212W        W68527   4.249  26.509  10.610
96213W        W68528  38.203  41.284   2.743
96214W        W68529  25.146  15.094  14.785
96215W        W68530  37.319   1.772   2.047
96216W        W68531  37.066  19.110   2.881
96217W        W68532  12.209  21.307   2.784
96218W        W68533  16.544   6.894   1.518
96219W        W68534   2.350  39.286   2.760
96220W        W68535  36.514  22.501   1.792
96221W        W68536  14.063  10.725  12.901
96222W        W68537  12.715  15.208  10.943
96223W        W68538   5.028  42.431  11.630
96224W        W68539   5.891  38.997  10.953
96225W        W68540   9.671  41.277   0.251
96226W        W68541  31.854  40.495   4.825
96227W        W68542  39.790  16.088   2.827
96228W        W68543   1.924  23.012   3.833
96229W        W68544  29.052  43.241  13.440
96230W        W68545  24.111  41.245   5.053
96231W        W68546  27.603  19.694   0.867
96232W        W68547   0.065  11.213  11.960
96233W        W68548  11.383   4.828  14.526
96234W        W68549  22.576   9.601  11.164
96235W        W68550  29.635  33.004   4.166
96236W        W68551  18.059  26.113  11.110
96237W        W68552  39.383  33.692  11.619
96238W        W68553   3.411  19.246  11.878
96239W        W68554  37.639  30.465  12.485
96240W        W68555  20.245  44.561  14.380
96241W        W68556  21.610  42.957  13.477
96242W        W68557  26.995  40.401   1.706
96243W        W68558   4.222  23.036  12.002
96244W        W68559  18.198  19.653   2.299
96245W        W68560   4.293  27.590  13.959
96246W        W68561  22.572  32.159   0.041
96247W        W68562  42.463  37.527   4.099
96248W        W68563   8.451  38.012   4.247
96249W        W68564  44.842  37.564   2.201
96250W        W68565  28.602  19.322   1.692
96251W        W68566  43.730   3.717   2.574
96252W        W68567   6.699  14.345  14.737
96253W        W68568  27.115   4.376   1.659
96254W        W68569  41.630  27.507   1.449
96255W        W68570  19.671  29.464   4.389
96256W        W68571   2.277   5.902  12.348
96257W        W68572  21.631  22.926   1.688
96258W        W68573  37.329  43.512   0.426
96259W        W68574  14.822   2.638   2.739
96260W        W68575  29.989   3.676  10.636
96261W        W68576  30.671  18.388  14.197
96262W        W68577  13.150  14.353   3.353
96263W        W68578   1.531  11.034   2.214
96264W        W68579  28.711  30.464  11.176
96265W        W68580  20.684  26.724   3.588
96266W        W68581  37.345   3.453  14.870
96267W        W68582   1.509   2.766   3.362
96268W        W68583  16.120  25.364  12.016
96269W        W68584  16.231  39.305  14.391
96270W        W68585  22.670  11.903   3.591
96271W        W68586  44.305  21.470   2.249
96272W        W68587  30.602  12.788  10.943
96273W        W68588  28.220  15.481  14.597
96274W        W68589   0.905  40.887  13.338
96275W        W68590  21.662  12.650  14.735
96276W        W68591  21.648  15.893   3.754
96277W        W68592   6.697  39.039  10.749
96278W        W68593  18.751  34.973  12.415
96279W        W68594  21.813  16.564   4.138
96280W        W68595  40.707  37.265  13.497
96281W        W68596  22.861   6.270   0.481
96282W        W68597  30.639  17.786   4.276
96283W        W68598  13.012  38.671   2.540
96284W        W68599  29.167  28.953  13.486
96285W        W68600   7.739   8.155   0.501
96286W        W68601  37.447   2.937   0.767
96287W        W68602  25.227  34.365   2.521
96288W        W68603  15.918   4.411  13.054
96289W        W68604  29.447  28.874   4.538
96290W        W68605  24.363  41.957   4.124
96291W        W68606  31.164  28.529   3.299
96292W        W68607  34.465  41.129  12.943
96293W        W68608  25.499   3.909   5.093
96294W        W68609  27.389  44.747   1.386
96295W        W68610  26.986   1.269   2.454
96296W        W68611  11.161  19.201   1.241
96297W        W68612  25.359  16.281  11.264
96298W        W68613  17.255  36.614   2.035
96299W        W68614   0.550  21.046   1.899
96300W        W68615   9.930  12.326  10.671
96301W        W68616  35.958  41.746   4.211
96302W        W68617  31.866  27.134  14.289
96303W        W68618  16.171  15.966   4.908
96304W        W68619  15.303   6.701  11.655
96305W        W68620   2.514  35.733  10.984
96306W        W68621  43.271  40.827   3.849
96307W        W68622  37.301   5.681   2.065
96308W        W68623  41.087  43.554  12.450
96309W        W68624  10.191  23.387   3.663
96310W        W68625  43.506  27.709  12.252
96311W        W68626  25.955   2.248   2.793
96312W        W68627   7.051  42.593  10.407
96313W        W68628  18.090   7.642   2.602
96314W        W68629  41.043  30.457   3.155
96315W        W68630  36.423  10.709   2.723
96316W        W68631  31.091  43.916  13.106
96317W        W68632  26.485   4.745   2.148
96318W        W68633  42.365  31.132  11.486
96319W        W68634  17.561  11.255  14.100
96320W        W68635  11.574  41.069  11.490
96321W        W68636  38.474  29.247   4.106
96322W        W68637   9.248  24.698   2.232
96323W        W68638  26.031  41.390   4.738
96324W        W68639  21.488   5.784   2.452
96325W        W68640  15.396  28.087   4.944
96326W        W68641  17.833   4.811  11.131
96327W        W68642  22.933   5.263  14.786
96328W        W68643  41.438   7.451  10.662
96329W        W68644  17.625  38.584  14.321
96330W        W68645  21.117  24.072  11.572
96331W        W68646  33.633  41.889   2.224
96332W        W68647  38.442  15.831   0.946
96333W        W68648   8.731   0.375   3.327
96334W        W68649  15.841  31.410   3.795
96335W        W68650  17.348  37.463   3.325
96336W        W68651  29.966  18.089   2.213
96337W        W68652   0.317  42.430  10.722
96338W        W68653  28.211  40.824  14.013
96339W        W68654   2.553  26.458   0.347
96340W        W68655   6.937   9.201  13.053
96341W        W68656  28.875  35.407  14.158
96342W        W68657  37.474  18.026   1.887
96343W        W68658   0.291  36.397  11.899
96344W        W68659   3.551  38.977  11.164
96345W        W68660  33.982   2.250  11.506
96346W        W68661  20.934   0.665   4.138
96347W        W68662  29.082  23.084   0.786
96348W        W68663  43.748   8.364   0.836
96349W        W68664  25.730  44.859   1.834
96350W        W68665   9.993  37.640  13.508
96351W        W68666  15.823  12.217  12.401
96352W        W68667  12.844  40.025  11.934
96353W        W68668  33.871  27.030   4.694
96354W        W68669  29.935   7.357   1.950
96355W        W68670  44.930   3.929  12.064
96356W        W68671  27.110  42.328   0.958
96357W        W68672  42.496  10.094  11.630
96358W        W68673   0.648  20.191   0.205
96359W        W68674  24.266  28.595   0.538
96360W        W68675  22.597  42.224   2.462
96361W        W68676  29.259   9.700  13.742
96362W        W68677  42.297  16.341  13.935
96363W        W68678  23.742   0.258   0.103
96364W        W68679   6.439  10.372  10.673
96365W        W68680  43.538  24.165   3.775
96366W        W68681   1.672  10.722   3.211
96367W        W68682   3.246  34.153   4.617
96368W        W68683  40.512  14.278   2.323
96369W        W68684  33.402   7.154  11.120
96370W        W68685  34.047  25.749   3.810
96371W        W68686  31.753  30.883  14.843
96372W        W68687  17.490  42.427  13.628
96373W        W68688  38.000  30.191  13.399
96374W        W68689  39.763  29.507   0.316
96375W        W68690  40.245  15.685  11.607
96376W        W68691  23.724  17.527  11.607
96377W        W68692  13.069  38.608   2.025
96378W        W68693  35.460  40.342  13.881
96379W        W68694  36.422   3.901  12.417
96380W        W68695  11.162  19.623  14.498
96381W        W68696  32.128  39.235   4.608
96382W        W68697  15.548  41.889   4.533
96383W        W68698  10.273   1.514   4.189
96384W        W68699  15.340  14.804  12.029
96385W        W68700  34.023  28.461   2.827
96386W        W68701  27.252  10.717  11.805
96387W        W68702   5.090  31.053   1.211
96388W        W68703  14.068   6.981   1.495
96389W        W68704   2.777  33.528  10.792
96390W        W68705  40.575  36.026   1.726
96391W        W68706  34.580  38.824  13.315
96392W        W68707  22.545  21.492  14.209
96393W        W68708  30.691  17.922   2.929
96394W        W68709  15.870   0.626   0.493
96395W        W68710  38.900  39.828  12.589
96396W        W68711   5.741  22.136   3.636
96397W        W68712  35.353  37.384   5.081
96398W        W68713  40.356  13.817  12.919
96399W        W68714  28.517   5.229  11.590
96400W        W68715  33.857  25.176  14.366
96401W        W68716  18.588   2.210   3.677
96402W        W68717  31.657  29.627   0.449
96403W        W68718  38.228   2.400   2.546
96404W        W68719   1.864  44.896   4.631
96405W        W68720  32.688  44.024   2.930
96406W        W68721   6.169  33.644  11.946
96407W        W68722  26.944  19.497  11.512
96408W        W68723  18.764   2.002  14.545
96409W        W68724  15.863  15.252  10.764
96410W        W68725  25.919  34.617   4.257
96411W        W68726  22.064  20.731   4.488
96412W        W68727  14.141   8.180   2.827
96413W        W68728  44.507  28.517  14.391
96414W        W68729  13.766  37.147   0.215
96415W        W68730   6.773  11.836   0.310
96416W        W68731  44.041  38.816   4.993
96417W        W68732  31.014  40.334   3.196
96418W        W68733  11.670  19.581  10.099
96419W        W68734  27.465  10.174   4.988
96420W        W68735  30.537  10.701  12.153
96421W        W68736  19.113   1.448   3.596
96422W        W68737  17.133   1.253   4.544
96423W        W68738  27.851  39.964  11.015
96424W        W68739  35.528   6.234  14.659
96425W        W68740  21.027   2.887  11.707
96426W        W68741  15.554  16.239   1.408
96427W        W68742   9.043  30.600   4.987
96428W        W68743  30.046  16.795   4.126
96429W        W68744  34.603   4.565   3.648
96430W        W68745  10.356  29.437   1.635
96431W        W68746  19.302   7.980  11.110
96432W        W68747  21.255  41.966  14.825
96433W        W68748   0.213   6.193   4.701
96434W        W68749  27.677   8.437   1.372
96435W        W68750  14.098  44.872  11.913
96436W        W68751  29.288  16.314  13.628
96437W        W68752  39.855   6.234  11.698
96438W        W68753   2.715  36.496  10.612
96439W        W68754  16.711  24.119   0.432
96440W        W68755  42.969  21.215  13.551
96441W        W68756  41.198  42.416   3.864
96442W        W68757  37.516  40.651   1.922
96443W        W68758  27.807  21.130  13.528
96444W        W68759  14.829  33.071   3.648
96445W        W68760  39.343  21.088  10.678
96446W        W68761   7.343  17.056   2.596
96447W        W68762  11.129   8.656   3.261
96448W        W68763   2.924  29.790   1.677
96449W        W68764  30.912  17.987  13.368
96450W        W68765  16.840  14.299  13.484
96451W        W68766   2.203   6.117   1.307
96452W        W68767  35.160  37.960  14.197
96453W        W68768   3.680   0.403  11.358
96454W        W68769   8.432  35.359   0.007
96455W        W68770  21.045  44.994  11.040
96456W        W68771  22.021   8.352   2.171
96457W        W68772  20.544  16.831  12.435
96458W        W68773   1.917  44.904  10.542
96459W        W68774  22.182  38.817  11.499
96460W        W68775   4.814  15.356   4.614
96461W        W68776  37.001   2.209   2.800
96462W        W68777   4.971   3.455  11.601
96463W        W68778  31.429  21.206   0.917
96464W        W68779  44.344  21.217  11.603
96465W        W68780  33.132  25.967   2.370
96466W        W68781  32.435   9.810   0.360
96467W        W68782  26.201  30.833   4.793
96468W        W68783  12.693  18.528  14.245
96469W        W68784  16.209  13.323   0.968
96470W        W68785  41.251  44.990  14.389
96471W        W68786  12.119  39.984   3.813
96472W        W68787  30.669  32.922   1.419
96473W        W68788  10.836  13.743  14.141
96474W        W68789  19.572   4.312   9.863
96475W        W68790  23.230  32.621   3.635
96476W        W68791  10.815  16.243   0.781
96477W        W68792   9.432  30.832  13.504
96478W        W68793   1.840  13.307   1.482
96479W        W68794  18.455  30.119  11.453
96480W        W68795  32.919  38.332  14.459
96481W        W68796  40.341  38.835   1.462
96482W        W68797  43.835  39.614  14.657
96483W        W68798   2.955  44.944  10.774
96484W        W68799   6.352  44.903   2.430
96485W        W68800   2.990  31.272  11.137
96486W        W68801  29.838   0.724   0.815
96487W        W68802  30.372  32.389  14.485
96488W        W68803  16.281  16.483  10.606
96489W        W68804  18.791  20.595  12.861
96490W        W68805  38.420   3.753  11.528
96491W        W68806  41.317  37.876   0.446
96492W        W68807  28.407   7.243  13.043
96493W        W68808  30.974  10.797  13.097
96494W        W68809  15.846  42.931  10.744
96495W        W68810  26.929  33.488   5.032
96496W        W68811  20.307  23.789   3.749
96497W        W68812  37.597  32.353  13.874
96498W        W68813  34.855   8.469  11.030
96499W        W68814  33.446  25.516   1.260
96500W        W68815  27.735  11.270  11.175
96501W        W68816  30.925  14.336   1.468
96502W        W68817  14.652  29.974  14.051
96503W        W68818  35.920  13.781   4.500
96504W        W68819  31.367   7.367  14.596
96505W        W68820  16.224  26.414  11.699
96506W        W68821  34.061   4.303  10.570
96507W        W68822  13.772  38.373  11.856
96508W        W68823  27.161  42.862   3.662
96509W        W68824   8.683   7.268  14.426
96510W        W68825  27.691   5.201  11.095
96511W        W68826  39.156   2.414   2.173
96512W        W68827  23.189  23.213  12.956
96513W        W68828  43.702  11.809  13.297
96514W        W68829  36.603  35.387  11.558
96515W        W68830  19.192  28.684   3.296
96516W        W68831   8.630  39.985  14.932
96517W        W68832  27.251   9.446   0.827
96518W        W68833  30.426  34.155  13.067
96519W        W68834  28.456  14.088  14.735
96520W        W68835  44.268  18.806  11.399
96521W        W68836  23.506   1.495  13.428
96522W        W68837  35.870  10.261  10.445
96523W        W68838  26.149   7.476   2.410
96524W        W68839   5.461  18.459  10.802
96525W        W68840  30.156  16.675   0.348
96526W        W68841  42.862  26.451   0.401
96527W        W68842  27.061  44.838  11.967
96528W        W68843  29.111  16.390   2.787
96529W        W68844  31.518  20.855  12.512
96530W        W68845  17.761  10.242  10.925
96531W        W68846   8.707  26.512   3.609
96532W        W68847  31.616  11.393  14.205
96533W        W68848   8.381  35.877   2.927
96534W        W68849  25.726   7.184   1.212
96535W        W68850  25.715  34.406  12.921
96536W        W68851  43.916  15.338   2.799
96537W        W68852  40.651  13.165   4.264
96538W        W68853  21.045  20.740  13.549
96539W        W68854  40.969  38.870   3.124
96540W        W68855  14.189   4.452   4.254
96541W        W68856  39.545  18.979  14.931
96542W        W68857  23.836  10.374   3.222
96543W        W68858   9.923  11.283   2.793
96544W        W68859   0.774  39.047   1.243
96545W        W68860   3.274  30.894  13.974
96546W        W68861   7.890   2.223  14.402
96547W        W68862  16.578  41.824  11.600
96548W        W68863  11.655  10.553   2.615
96549W        W68864  14.750  30.771  13.501
96550W        W68865  31.662  15.460   3.696
96551W        W68866  29.007  12.737   1.809
96552W        W68867  14.468   3.906   4.108
96553W        W68868  38.779  39.528   0.321
96554W        W68869  32.158  19.717   0.120
96555W        W68870  39.504  10.661   1.542
96556W        W68871  32.045  22.549  11.995
96557W        W68872  16.891  28.034  10.767
96558W        W68873  26.130  41.072   2.382
96559W        W68874   3.109  20.012   0.283
96560W        W68875  10.669   5.395   0.897
96561W        W68876  44.142  44.020   2.254
96562W        W68877  26.286   6.655   0.292
96563W        W68878  19.741  27.913   2.360
96564W        W68879  34.673  18.547  14.414
96565W        W68880  12.197  31.528   2.631
96566W        W68881  25.636   7.698   2.365
96567W        W68882  11.621  39.982   2.732
96568W        W68883  27.146  13.092  11.561
96569W        W68884  27.982  28.632  12.893
96570W        W68885  26.915   1.279   1.899
96571W        W68886  28.435   9.689   1.808
96572W        W68887  31.553   3.631  12.963
96573W        W68888   0.393  28.875   3.381
96574W        W68889  17.323  42.713   9.636
96575W        W68890  29.221   5.829   1.804
96576W        W68891  36.601  19.119  10.352
96577W        W68892  27.056  28.361  14.632
96578W        W68893  13.774  34.075  10.909
96579W        W68894  23.676  40.176  13.436
96580W        W68895  40.058  42.357  14.846
96581W        W68896   3.708   8.812  13.898
96582W        W68897   9.425  39.307   4.324
96583W        W68898   8.411   7.157   3.646
96584W        W68899  16.578  33.433  11.312
96585W        W68900  39.466  41.053   4.752
96586W        W68901  13.838   9.616  12.480
96587W        W68902  26.246  35.924  10.902
96588W        W68903  29.535  16.784  12.060
96589W        W68904  24.725  32.713  13.462
96590W        W68905  33.628  39.984   0.402
96591W        W68906   6.177  15.049   0.418
96592W        W68907  15.680  36.943   0.781
96593W        W68908  19.687  29.413  13.971
96594W        W68909  10.292  16.857   9.799
96595W        W68910  11.162  18.862  11.885
96596W        W68911  28.697  37.304   4.364
96597W        W68912  28.183  14.874   4.202
96598W        W68913   3.725  22.547   4.837
96599W        W68914  26.435  10.387  10.646
96600W        W68915   1.618  25.317   2.363
96601W        W68916   5.382  11.615   4.118
96602W        W68917  11.953   6.093   0.926
96603W        W68918  12.604   3.477  13.189
96604W        W68919  11.658  26.153   4.119
96605W        W68920  11.404   8.711   3.699
96606W        W68921  21.028   4.263   2.105
96607W        W68922   2.801   3.434   3.291
96608W        W68923   2.217  27.504  11.002
96609W        W68924   4.356  33.613   3.819
96610W        W68925  41.844  29.173  13.352
96611W        W68926  21.953  18.283  13.148
96612W        W68927  14.352  24.680  11.985
96613W        W68928  28.574  26.773   1.918
96614W        W68929   4.316  31.537   4.463
96615W        W68930  31.366  21.987   2.221
96616W        W68931   4.877   0.733   0.665
96617W        W68932  33.503  21.550   2.016
96618W        W68933   9.765  24.122  11.639
96619W        W68934  31.383  11.832   4.004
96620W        W68935  12.123  31.118   1.462
96621W        W68936   0.912  42.625  12.932
96622W        W68937   4.697  39.436   2.883
96623W        W68938  25.110  16.556   0.411
96624W        W68939  34.973  19.105   4.338
96625W        W68940   5.923  16.246  12.519
96626W        W68941  28.393   9.476  12.638
96627W        W68942  33.491   7.276  13.416
96628W        W68943  20.813  27.175   4.617
96629W        W68944   9.896   6.688  14.246
96630W        W68945  29.614  30.472  11.722
96631W        W68946  25.609   0.195  13.390
96632W        W68947  15.121  20.625   0.183
96633W        W68948   7.950  40.796   1.485
96634W        W68949   5.389  44.565   0.953
96635W        W68950  22.155  38.406  13.542
96636W        W68951  41.331  42.459   0.193
96637W        W68952   9.632   9.892  12.478
96638W        W68953   6.996  38.405  12.075
96639W        W68954  40.769  18.628  12.222
96640W        W68955  25.171  42.414  14.300
96641W        W68956  15.036   3.340   2.357
96642W        W68957  31.416  24.145   1.911
96643W        W68958   1.925  21.885  11.514
96644W        W68959  44.854  25.164  10.670
96645W        W68960   0.460  24.224  14.957
96646W        W68961  37.135  43.473   2.647
96647W        W68962  22.766  27.063   2.305
96648W        W68963  24.118  42.500   2.330
96649W        W68964   6.280  16.898   1.950
96650W        W68965   6.400  25.842   2.902
96651W        W68966  44.499  22.734  11.476
96652W        W68967   3.207  38.011  11.138
96653W        W68968  42.835  23.676  14.531
96654W        W68969  21.572  13.527   2.387
96655W        W68970  10.635  11.907  13.930
96656W        W68971  27.007  34.913  14.951
96657W        W68972   4.373  21.483  13.763
96658W        W68973  14.688  22.102  14.698
96659W        W68974  28.500  13.082  14.914
96660W        W68975  41.348  12.065   3.825
96661W        W68976  24.699  30.173  14.279
96662W        W68977   6.290  29.891  14.403
96663W        W68978  34.217  22.553   4.161
96664W        W68979  43.916  27.228   3.223
96665W        W68980  38.430  18.499   0.399
96666W        W68981  29.076  27.229   4.205
96667W        W68982  37.373  27.410   2.825
96668W        W68983  34.009  15.768   0.246
96669W        W68984  32.022  21.994  14.810
96670W        W68985  14.187  39.083   1.359
96671W        W68986  10.518  40.851  11.458
96672W        W68987  13.333  24.673  11.215
96673W        W68988  20.079   6.311  14.927
96674W        W68989  26.745  41.785   0.074
96675W        W68990  37.970  20.594  13.309
96676W        W68991   4.395   9.222  11.133
96677W        W68992  20.690  13.633  14.582
96678W        W68993  16.853  19.805  13.900
96679W        W68994   3.922  14.216  13.813
96680W        W68995  44.693   7.998  13.937
96681W        W68996  15.027  36.992   1.118
96682W        W68997  25.312  36.994   1.726
96683W        W68998   5.729  27.551   4.186
96684W        W68999  40.477  10.675   1.047
96685W        W69000   6.798  23.529  13.020
96686W        W69001  13.619  30.009   4.898
96687W        W69002  36.895  14.635  14.857
96688W        W69003  38.819  16.731   0.864
96689W        W69004  38.620  27.093  11.140
96690W        W69005  20.356  21.642  11.159
96691W        W69006  19.827   4.822   2.413
96692W        W69007  25.021  11.669   4.605
96693W        W69008  40.455  26.600  13.414
96694W        W69009   0.719  17.141  14.115
96695W        W69010   9.931   8.276   2.711
96696W        W69011   4.980  16.161   2.155
96697W        W69012   8.756  31.300  12.495
96698W        W69013  28.891  31.856   2.424
96699W        W69014  13.829  33.455  12.938
96700W        W69015  31.345  37.421  14.779
96701W        W69016   0.779  29.985  14.329
96702W        W69017  34.739   8.646   4.070
96703W        W69018  32.538  37.752   1.415
96704W        W69019  38.503  40.282  12.991
96705W        W69020  42.994  24.082   0.620
96706W        W69021   6.839  43.416  10.497
96707W        W69022  24.530   3.982  11.489
96708W        W69023  19.607  19.631  12.062
96709W        W69024  28.451  24.230  11.666
96710W        W69025   1.242  31.979   2.935
96711W        W69026  10.497  21.221   1.273
96712W        W69027  22.268  28.947   2.477
96713W        W69028  26.710  42.148   1.779
96714W        W69029   3.505   7.549   5.166
96715W        W69030  23.444   1.343  12.950
96716W        W69031  38.409  32.376   3.727
96717W        W69032  14.113  15.837  11.053
96718W        W69033  31.570  41.084   1.906
96719W        W69034  44.875  31.210   2.304
96720W        W69035  14.648  31.568   2.208
96721W        W69036  16.376  13.890  12.434
96722W        W69037  32.652  40.048   2.270
96723W        W69038  23.547  14.270  14.494
96724W        W69039  37.280  18.525  12.520
96725W        W69040  20.601  22.018  14.373
96726W        W69041  33.170  33.659  13.403
96727W        W69042  20.098  18.324   1.769
96728W        W69043  21.624  39.389  12.402
96729W        W69044  15.240  24.993   3.238
96730W        W69045   0.662   0.401   4.687
96731W        W69046   2.915  36.107  10.898
96732W        W69047  44.051  19.325  12.564
96733W        W69048  14.167  42.898   3.728
96734W        W69049  30.475  25.452  13.348
96735W        W69050   4.473  43.360  13.413
96736W        W69051  19.115  24.588  14.216
96737W        W69052  12.646  17.394   4.151
96738W        W69053   4.190  24.520   0.958
96739W        W69054   2.250  44.036   4.788
96740W        W69055  31.385  41.059  12.272
96741W        W69056  41.717  18.767   2.227
96742W        W69057  43.586  37.581  11.190
96743W        W69058  37.589  14.640  12.922
96744W        W69059  42.107   4.926  11.543
96745W        W69060  25.760  40.629  13.159
96746W        W69061  39.442  12.370  12.056
96747W        W69062  27.143  11.185  12.057
96748W        W69063  13.185  11.223   2.231
96749W        W69064  17.156  25.531  14.026
96750W        W69065  28.518  15.870  14.404
96751W        W69066  18.098  18.224  11.144
96752W        W69067  40.929  40.246  13.086
96753W        W69068  14.710  32.463  12.655
96754W        W69069  42.849  23.800  12.514
96755W        W69070  41.538  15.434   3.698
96756W        W69071  41.060  39.484   3.642
96757W        W69072  33.093  29.950  11.351
96758W        W69073  28.461  44.156  12.628
96759W        W69074  15.745  31.888   1.473
96760W        W69075  27.833   1.788  11.744
96761W        W69076  11.616  22.095  12.543
96762W        W69077  12.750   5.193  12.104
96763W        W69078  33.103  16.194   1.192
96764W        W69079  18.679   5.940  11.125
96765W        W69080  35.638  27.565   1.690
96766W        W69081  20.970  26.874  11.560
96767W        W69082   4.696  20.053  14.801
96768W        W69083  32.676  35.808   2.711
96769W        W69084  11.594  32.936  14.748
96770W        W69085  18.643  40.327  12.052
96771W        W69086  35.829   8.734  10.501
96772W        W69087  20.667  37.361   3.088
96773W        W69088   5.821  12.319   0.714
96774W        W69089  31.545   3.425   0.475
96775W        W69090   2.389  12.611   4.512
96776W        W69091  11.150   6.239   3.777
96777W        W69092  15.240   6.090   0.420
96778W        W69093  40.870  28.575  12.942
96779W        W69094  29.824  15.773  13.095
96780W        W69095  24.613  26.116   4.150
96781W        W69096  24.514  17.984   3.232
96782W        W69097  43.524   2.900   2.189
96783W        W69098  10.660  27.534   2.475
96784W        W69099  39.131  40.896  11.483
96785W        W69100  44.512  30.642  12.926
96786W        W69101  25.432  20.561   4.127
96787W        W69102  43.099  34.871  12.847
96788W        W69103  26.999  38.010  13.919
96789W        W69104   7.424  15.123  13.333
96790W        W69105  18.608  10.604  11.449
96791W        W69106   7.305   9.755  14.837
96792W        W69107   7.387  19.236   3.138
96793W        W69108  36.180  25.333  10.858
96794W        W69109  17.550  34.565   0.445
96795W        W69110  21.967   8.743  13.129
96796W        W69111  40.430   1.783  12.428
96797W        W69112  25.618  10.993   1.620
96798W        W69113  26.699  43.851  12.362
96799W        W69114  17.618  20.346  13.055
96800W        W69115  41.459  44.373  11.394
96801W        W69116  38.464  16.634   5.041
96802W        W69117   4.305  14.684  10.700
96803W        W69118  15.140  14.288   1.279
96804W        W69119  41.485  24.563   4.439
96805W        W69120  20.300   4.364   1.732
96806W        W69121  38.625  40.605  13.420
96807W        W69122  12.860  36.990   0.294
96808W        W69123  10.399   7.301   4.180
96809W        W69124  39.189  15.059  11.199
96810W        W69125   0.847  15.194  12.781
96811W        W69126  44.464  16.744  10.687
96812W        W69127  27.206  24.592  11.182
96813W        W69128  11.864  33.419  11.905
96814W        W69129  10.247  23.892   2.347
96815W        W69130  41.340  36.481   0.695
96816W        W69131  35.535  11.113   2.645
96817W        W69132  36.542  23.090  13.779
96818W        W69133  42.077  38.940   1.854
96819W        W69134  41.875  26.971   1.367
96820W        W69135   6.764  27.675   2.748
96821W        W69136  15.974   0.233  14.488
96822W        W69137  22.182  16.433   3.110
96823W        W69138  44.516  26.891  10.216
96824W        W69139  37.462  21.188   1.244
96825W        W69140  39.080   9.626  13.869
96826W        W69141  35.160  18.590   3.680
96827W        W69142  24.011  27.775   1.173
96828W        W69143   0.426  13.191  14.778
96829W        W69144   7.668   5.975  13.449
96830W        W69145  14.800   8.575  13.833
96831W        W69146  40.614  21.144  12.822
96832W        W69147   9.278  18.776  12.048
96833W        W69148  35.847  38.581   1.139
96834W        W69149  20.714  22.456   1.830
96835W        W69150   9.417  41.575  10.691
96836W        W69151   7.187   1.112   3.867
96837W        W69152  34.889  18.282   0.231
96838W        W69153  38.910   8.678  12.515
96839W        W69154  13.771  20.782   3.826
96840W        W69155  31.093  19.219   0.068
96841W        W69156  34.413   8.291   0.900
96842W        W69157  18.301  40.441  13.504
96843W        W69158   4.908  17.998   2.256
96844W        W69159  30.984  38.952  12.093
96845W        W69160  37.957  29.969   3.441
96846W        W69161  11.611  40.336  12.093
96847W        W69162  39.924  37.617  11.834
96848W        W69163  17.598  44.344   2.652
96849W        W69164  40.410  40.484  12.909
96850W        W69165   4.175  19.784  10.417
96851W        W69166  20.780  41.863  13.399
96852W        W69167  39.693  43.436   2.197
96853W        W69168  15.411   1.521  12.962
96854W        W69169  20.346  27.124   2.754
96855W        W69170  31.083  37.466  13.784
96856W        W69171   4.397   0.897  14.907
96857W        W69172  11.943  38.989  10.658
96858W        W69173   8.887  30.476   0.218
96859W        W69174   7.994  21.467   4.970
96860W        W69175  43.890  22.953  13.542
96861W        W69176  10.314  36.113  11.166
96862W        W69177  10.420  17.729   0.908
96863W        W69178  21.768  29.893   1.621
96864W        W69179  39.926  40.301  11.377
96865W        W69180  39.263  42.105  13.859
96866W        W69181  36.819  34.810   2.300
96867W        W69182   3.627  42.396  14.930
96868W        W69183   0.224  25.200  14.024
96869W        W69184   0.019   5.403   3.919
96870W        W69185  30.064  10.301  11.665
96871W        W69186  33.492   8.943  13.533
96872W        W69187   1.732  43.565   0.528
96873W        W69188  35.489  11.372   4.536
96874W        W69189   5.910  26.860   2.097
96875W        W69190  18.078   0.696  10.946
96876W        W69191   8.295  26.799  13.238
96877W        W69192  35.776  22.704  13.828
96878W        W69193  32.201  43.962   2.762
96879W        W69194  16.368  21.148   2.693
96880W        W69195  39.088  42.088   3.741
96881W        W69196   2.857   0.200   4.472
96882W        W69197  26.132  24.044   3.796
96883W        W69198   6.303  34.692   4.975
96884W        W69199  23.692  27.167  13.078
96885W        W69200  42.304  22.793   1.784
96886W        W69201  16.128  13.183  14.017
96887W        W69202   0.393  12.581  13.464
96888W        W69203  14.265  23.660   4.689
96889W        W69204  17.623   0.757  13.987
96890W        W69205  10.146  22.625   1.880
96891W        W69206  13.857  35.855  10.945
96892W        W69207  38.887  12.157  10.820
96893W        W69208  32.189   6.218  11.086
96894W        W69209   3.214  25.141   4.146
96895W        W69210  39.340  27.039   4.167
96896W        W69211  27.990  10.160   1.433
96897W        W69212  32.591  32.893   1.705
96898W        W69213   5.372  30.543  14.447
96899W        W69214  18.276  41.102   2.269
96900W        W69215   6.276  25.534  14.334
96901W        W69216   5.708  19.353   4.070
96902W        W69217  17.695  21.225   0.162
96903W        W69218  10.208  36.967  12.845
96904W        W69219  16.116   1.275  14.480
96905W        W69220  39.963  28.558  13.125
96906W        W69221   6.364  37.014   1.911
96907W        W69222  29.068  21.024  11.457
96908W        W69223   9.651  31.071  10.899
96909W        W69224  18.249  26.925  12.990
96910W        W69225  30.593   6.194  11.721
96911W        W69226  43.410  44.631   3.162
96912W        W69227  16.239  17.035  10.703
96913W        W69228  39.844   2.510   2.675
96914W        W69229  36.365  27.583   2.336
96915W        W69230  28.515  19.668   3.809
96916W        W69231  35.545  14.254  12.667
96917W        W69232   2.941  39.480   4.620
96918W        W69233  32.854   4.230   2.385
96919W        W69234  24.045  36.995  14.076
96920W        W69235  20.584   2.670  11.505
96921W        W69236   1.435  36.157   5.000
96922W        W69237  34.096  27.045  10.409
96923W        W69238  12.818  14.107   0.577
96924W        W69239  30.378  31.965   4.235
96925W        W69240   7.613  26.644   4.546
96926W        W69241  40.581  24.249  12.407
96927W        W69242   7.295  27.931  11.930
96928W        W69243  31.452   7.746  11.654
96929W        W69244  18.143  11.850  11.089
96930W        W69245  40.461  19.862   5.375
96931W        W69246  29.714  37.465  10.561
96932W        W69247  33.459   0.734   0.282
96933W        W69248   8.566  28.961  14.503
96934W        W69249  44.203   1.197   4.192
96935W        W69250   1.309  16.645   0.406
96936W        W69251  43.227  11.665  11.742
96937W        W69252  14.598  20.375  14.535
96938W        W69253  20.743  40.278   3.146
96939W        W69254  17.199  27.368   5.512
96940W        W69255  28.496  24.919   4.268
96941W        W69256  28.026  39.911   2.198
96942W        W69257   2.674  43.672   4.210
96943W        W69258  27.012  37.738   1.297
96944W        W69259   9.145  39.890  14.796
96945W        W69260  34.824   8.615  12.394
96946W        W69261  10.223   1.662  11.211
96947W        W69262   4.913  40.386  14.332
96948W        W69263  22.966  38.472  13.816
96949W        W69264  13.105  38.392  11.137
96950W        W69265  29.168   9.819   0.177
96951W        W69266   4.770   3.357  12.854
96952W        W69267  10.647  42.263  12.953
96953W        W69268  18.224   7.446   3.879
96954W        W69269  25.537  20.963   3.178
96955W        W69270  29.495  23.513   0.186
96956W        W69271  29.873  17.220   0.918
96957W        W69272   8.383  35.683   0.990
96958W        W69273  22.381  18.994   1.274
96959W        W69274  17.568  36.345   4.677
96960W        W69275  23.980  42.871   4.525
96961W        W69276   7.967  22.048  11.642
96962W        W69277  28.608  21.275  11.984
96963W        W69278   9.623  43.707   0.435
96964W        W69279   2.793  13.528  12.908
96965W        W69280  38.866  18.771  11.487
96966W        W69281   2.284  28.775   1.463
96967W        W69282   3.830  34.834   2.251
96968W        W69283  14.671  17.141  14.538
96969W        W69284  24.743  25.854   0.006
96970W        W69285  43.818  12.918   0.785
96971W        W69286  41.048   8.392  11.626
96972W        W69287  42.399   1.091   3.046
96973W        W69288  39.725   8.955   3.672
96974W        W69289  28.560  22.228  11.128
96975W        W69290  36.341  25.126  13.053
96976W        W69291  34.999  37.903   3.312
96977W        W69292   3.005   7.812   3.625
96978W        W69293  12.696  38.386   0.372
96979W        W69294  10.147   7.274  13.505
96980W        W69295  22.990  28.451   2.638
96981W        W69296   4.307  11.280   3.440
96982W        W69297  36.560  42.440  13.688
96983W        W69298  28.029  11.715   9.994
96984W        W69299  29.889  13.204   3.207
96985W        W69300  18.131  38.689  14.382
96986W        W69301   4.163  27.735   4.210
96987W        W69302  43.288  26.537  11.610
96988W        W69303  24.097  30.900  13.368
96989W        W69304  38.880  26.423  14.487
96990W        W69305  37.326  33.900   2.674
96991W        W69306  12.348  36.335  13.930
96992W        W69307  31.146  20.812  14.043
96993W        W69308  20.234  39.806  11.598
96994W        W69309   6.709   2.823  12.942
96995W        W69310  21.962  40.503   4.873
96996W        W69311  15.163   6.016  13.120
96997W        W69312  12.830  16.335  14.023
96998W        W69313  34.334  31.106   2.091
96999W        W69314  23.974   2.458  13.937
97000W        W69315  23.710  34.905   3.968
97001W        W69316  11.524  41.403   0.418
97002W        W69317  15.108  27.299   4.184
97003W        W69318  43.262  12.144   3.302
97004W        W69319  31.414  19.067  11.937
97005W        W69320  29.714  24.139   4.135
97006W        W69321  40.836  34.140   2.329
97007W        W69322  34.856  28.659  14.901
97008W        W69323  13.166  26.078  12.508
97009W        W69324  10.709  33.932   3.045
97010W        W69325  16.483  41.361  13.837
97011W        W69326  23.537  31.121   1.388
97012W        W69327  34.440  36.920  13.431
97013W        W69328  22.702   9.594  13.392
97014W        W69329   7.691  34.396   0.820
97015W        W69330  36.926  26.634   2.817
97016W        W69331  38.812  33.984   1.477
97017W        W69332  39.735   0.309   2.268
97018W        W69333  22.940  27.460   2.630
97019W        W69334  32.112  26.728   3.057
97020W        W69335  37.888  27.094   0.659
97021W        W69336   7.348  36.475  12.109
97022W        W69337   2.942  30.525   1.906
97023W        W69338  39.252  21.817   4.140
97024W        W69339   5.348  22.249  13.903
97025W        W69340  15.751   9.615  13.376
97026W        W69341  16.155   9.653   2.269
97027W        W69342  40.834  29.505  11.508
97028W        W69343  26.338  35.764   4.631
97029W        W69344  12.354  14.605  11.286
97030W        W69345  39.170   8.897   3.545
97031W        W69346  40.999  26.238   4.312
97032W        W69347   0.376  16.965  12.969
97033W        W69348  19.579  38.446   4.613
97034W        W69349   4.967   9.078   1.359
97035W        W69350  18.458  38.516   3.769
97036W        W69351  37.392   4.039   3.593
97037W        W69352   5.555  20.167  12.550
97038W        W69353  27.567  22.472   1.098
97039W        W69354  29.174   9.067  10.611
97040W        W69355  17.722  41.248  12.959
97041W        W69356  23.032  29.392   0.878
97042W        W69357  40.604  42.323   4.636
97043W        W69358  12.139  39.349  11.384
97044W        W69359  40.900  42.604  10.697
97045W        W69360  28.073  44.696   1.918
97046W        W69361  41.282  20.171   2.393
97047W        W69362   7.451   6.607   0.344
97048W        W69363  30.658   5.306  10.773
97049W        W69364   1.816   4.962   0.373
97050W        W69365   6.266  15.888   4.462
97051W        W69366  22.041  35.090   4.626
97052W        W69367  17.574  11.388  11.662
97053W        W69368  23.942  32.416   1.531
97054W        W69369   2.285   3.896  13.190
97055W        W69370   7.181  33.644   4.370
97056W        W69371  38.188  28.507  11.247
97057W        W69372   4.792  19.066   3.411
97058W        W69373  33.898  44.754   2.906
97059W        W69374   6.923  16.055  11.202
97060W        W69375  33.186  23.130   2.809
97061W        W69376   0.546  19.529  12.623
97062W        W69377  28.223  10.819  13.413
97063W        W69378  29.892  42.829   1.735
97064W        W69379  11.692   9.819   4.615
97065W        W69380  33.557  22.296  12.604
97066W        W69381  33.056  44.392  10.569
97067W        W69382  25.924  31.881  11.500
97068W        W69383  12.667  12.113   2.394
97069W        W69384  33.111  23.043  11.423
97070W        W69385  15.329  40.353   0.783
97071W        W69386  35.031  39.821  12.097
97072W        W69387  16.267  30.917  10.115
97073W        W69388  23.174  25.133  12.048
97074W        W69389  37.976   4.374  11.852
97075W        W69390  26.026  30.768   1.566
97076W        W69391  44.241  16.064  10.547
97077W        W69392  34.475  41.056  14.429
97078W        W69393  37.421  43.721   1.274
97079W        W69394  31.149  30.029   0.061
97080W        W69395  32.057  25.165   2.251
97081W        W69396   6.805  43.859   4.246
97082W        W69397  24.584  44.392   1.728
97083W        W69398  36.976  31.412  10.615
97084W        W69399  38.955  27.555   3.144
97085W        W69400  10.751  14.593   1.182
97086W        W69401  20.224  14.853  11.087
97087W        W69402  39.799  13.411   0.714
97088W        W69403   4.980  30.236  12.029
97089W        W69404   1.915  12.712  11.529
97090W        W69405   6.732   2.854   2.307
97091W        W69406  14.066   4.793  14.065
97092W        W69407  26.800  44.511   2.449
97093W        W69408   8.663   4.191  11.596
97094W        W69409  29.197  19.332   1.900
97095W        W69410  30.619  17.383  14.286
97096W        W69411  17.287  26.693   1.449
97097W        W69412  22.880   6.868   2.315
97098W        W69413  22.208  19.788   1.793
97099W        W69414   0.698  40.554  12.557
97100W        W69415  27.609   4.432  14.495
97101W        W69416  11.147  13.950   3.748
97102W        W69417  30.882   1.698   1.295
97103W        W69418  41.165  31.100  13.759
97104W        W69419  43.396   2.219  13.899
97105W        W69420  22.670   6.865   3.270
97106W        W69421   1.850  11.455  11.095
97107W        W69422  22.110   4.468   2.324
97108W        W69423  15.297  20.124   4.900
97109W        W69424  41.966  22.550   0.857
97110W        W69425  25.265  27.022   3.253
97111W        W69426  41.557  27.980  11.041
97112W        W69427  19.463  12.736  12.355
97113W        W69428  38.909   3.694   4.627
97114W        W69429  29.195  26.456   1.739
97115W        W69430  35.122   3.519  14.324
97116W        W69431  26.547  33.416   0.437
97117W        W69432   5.849   4.967   1.906
97118W        W69433   8.349   1.317  14.087
97119W        W69434  35.578   7.218   0.789
97120W        W69435  10.174  20.223   4.078
97121W        W69436   9.648  32.519   2.228
97122W        W69437  20.218   0.956   5.108
97123W        W69438  19.302  20.262   3.641
97124W        W69439   4.358  22.563   2.647
97125W        W69440   5.720  14.097  11.968
97126W        W69441  39.307   8.693   2.421
97127W        W69442   3.556  16.843   3.729
97128W        W69443  22.971  25.532  12.959
97129W        W69444   6.190   9.316  11.622
97130W        W69445   0.709  36.165   4.129
97131W        W69446  12.884  26.633   3.228
97132W        W69447  21.089  24.740   1.719
97133W        W69448  21.289  40.823   0.008
97134W        W69449   9.935  24.478  12.898
97135W        W69450  40.926   2.388   4.187
97136W        W69451  32.121  10.134   1.682
97137W        W69452   7.265  19.774  14.481
97138W        W69453  18.504   7.420   0.688
97139W        W69454   0.940  40.620   0.429
97140W        W69455  40.194  43.230   0.670
97141W        W69456  31.680  28.005  12.547
97142W        W69457   2.777  22.535  13.000
97143W        W69458  24.625   9.709   2.434
97144W        W69459  41.839  33.689   0.300
97145W        W69460   7.302  21.985  14.781
97146W        W69461   4.659  10.210   2.815
97147W        W69462  31.574  30.586   4.646
97148W        W69463   3.269  12.043  11.574
97149W        W69464  24.058   1.832   3.707
97150W        W69465   0.268  22.700  14.547
97151W        W69466  10.770   3.774  14.720
97152W        W69467  20.545  15.685   0.465
97153W        W69468  40.318  13.548   4.185
97154W        W69469  32.015   2.963   2.421
97155W        W69470  15.739  12.901  12.964
97156W        W69471  32.860  12.483   4.168
97157W        W69472  26.604  28.796   2.796
97158W        W69473  30.012  12.153  12.605
97159W        W69474  13.771  17.137  14.300
97160W        W69475  20.209  12.052  11.172
97161W        W69476  21.154  33.976  11.644
97162W        W69477  26.826  39.488  13.007
97163W        W69478  44.390  22.016   4.281
97164W        W69479   2.533  21.046   2.913
97165W        W69480  24.393  30.006   1.423
97166W        W69481   1.016  27.518  14.548
97167W        W69482   5.905  41.323   4.221
97168W        W69483  13.116  31.938  13.052
97169W        W69484  44.994  27.535   3.288
97170W        W69485  26.095   0.465  12.452
97171W        W69486  15.829  17.581   0.872
97172W        W69487  36.792  23.015   2.391
97173W        W69488  23.076  31.305   3.075
97174W        W69489  16.854  36.588  13.506
97175W        W69490  27.941   6.871   0.866
97176W        W69491  42.375  34.977  12.638
97177W        W69492  12.805  24.064  14.409
97178W        W69493  44.698  24.249  11.861
97179W        W69494  35.644  26.685   0.896
97180W        W69495  24.019  11.792   3.692
97181W        W69496  15.212   9.072   2.224
97182W        W69497  41.329  44.933  13.111
97183W        W69498  11.559  23.456  12.123
97184W        W69499  42.082   6.067  11.171
97185W        W69500  18.006  33.118  11.531
97186W        W69501  13.109  33.509   3.922
97187W        W69502   5.192  35.422   1.907
97188W        W69503   5.553  42.555   4.620
97189W        W69504  16.350   6.211   4.508
97190W        W69505   7.684  20.409   2.305
97191W        W69506  30.938  13.219   2.928
97192W        W69507  34.614  28.392  12.921
97193W        W69508   2.851  11.755  11.438
97194W        W69509   0.807  16.700  13.464
97195W        W69510  36.536   3.982   1.260
97196W        W69511  29.206  34.397   1.109
97197W        W69512   4.239  42.519  11.937
97198W        W69513   9.739  24.971   4.962
97199W        W69514   8.110  25.193  12.951
97200W        W69515   2.185  17.901   2.586
97201W        W69516   5.878   6.176   3.299
97202W        W69517  32.580  12.624  11.956
97203W        W69518  32.774   1.337   4.927
97204W        W69519   1.237  14.659  13.500
97205W        W69520  12.745  10.845  12.478
97206W        W69521  42.358  13.631  13.108
97207W        W69522   7.665  30.549   3.464
97208W        W69523  22.992  44.958   0.283
97209W        W69524  31.091  26.248  13.362
97210W        W69525  24.204  20.361   4.325
97211W        W69526  25.943  39.567  11.995
97212W        W69527  31.208  24.954  13.016
97213W        W69528  10.952  19.593  12.085
97214W        W69529  25.656  39.727   1.819
97215W        W69530   6.451  25.452  11.744
97216W        W69531   8.742   4.675   5.131
97217W        W69532  37.317  34.907   0.237
97218W        W69533  44.875  38.580   0.222
97219W        W69534   4.589   8.461  11.547
97220W        W69535  44.811  20.509   1.996
97221W        W69536  15.688  21.020  12.463
97222W        W69537   4.532   3.933  14.477
97223W        W69538   9.184  23.690   4.664
97224W        W69539   4.280  40.103  14.725
97225W        W69540  37.098  41.659  11.999
97226W        W69541   7.013  34.394  12.052
97227W        W69542   7.406  32.610  11.246
97228W        W69543  44.348  43.883  12.854
97229W        W69544  29.969   7.273  14.320
97230W        W69545  29.408   3.416   1.820
97231W        W69546  19.246   0.875  11.051
97232W        W69547   2.494  31.456   1.752
97233W        W69548  43.924  10.110   1.726
97234W        W69549  30.419  28.182  13.977
97235W        W69550  18.566  37.858  11.498
97236W        W69551  28.984  35.497  14.668
97237W        W69552  40.426  12.114  14.916
97238W        W69553  27.519  43.986  12.158
97239W        W69554  22.271   6.640  14.758
97240W        W69555  18.094   1.172  13.282
97241W        W69556  11.089  17.549   0.181
97242W        W69557  20.243   5.240   0.379
97243W        W69558  29.518  11.385  10.713
97244W        W69559  26.539  10.066  11.445
97245W        W69560  28.965   9.720  12.494
97246W        W69561  43.107  40.627   1.261
97247W        W69562  10.839  34.318  14.933
97248W        W69563   7.037  43.386  11.950
97249W        W69564   2.187  26.697  10.577
97250W        W69565   4.534  18.476   1.072
97251W        W69566  36.428  32.202  12.071
97252W        W69567   9.307  35.277   0.825
97253W        W69568  17.648  19.202   2.349
97254W        W69569  25.258  31.984   5.159
97255W        W69570  19.673  42.876   3.220
97256W        W69571  11.243  33.997   2.303
97257W        W69572   8.679  44.995  14.176
97258W        W69573  18.083  28.686   4.074
97259W        W69574  41.493  19.247   4.021
97260W        W69575  27.659  25.260  11.834
97261W        W69576   1.737  17.559   3.699
97262W        W69577  29.929   9.655   2.669
97263W        W69578   9.904  33.512  13.063
97264W        W69579   5.067  18.720  11.005
97265W        W69580  25.054   1.852   2.823
97266W        W69581  29.061  32.262  13.557
97267W        W69582  29.681  31.369  11.480
97268W        W69583  28.649  33.646  11.603
97269W        W69584  14.779  38.214   2.373
97270W        W69585  40.932  31.675   2.911
97271W        W69586   5.313  43.065  10.563
97272W        W69587  24.971  37.894  14.435
97273W        W69588  24.685   0.205  14.121
97274W        W69589  26.118  28.006   4.685
97275W        W69590  42.978  13.774   4.076
97276W        W69591  41.082   6.986   0.426
97277W        W69592  11.716   4.399   2.020
97278W        W69593  30.732  12.822  14.414
97279W        W69594  32.371  20.059   0.923
97280W        W69595  26.179  31.539  14.475
97281W        W69596  22.719  34.631   1.389
97282W        W69597  33.444   4.324   4.457
97283W        W69598  30.451  32.917   3.922
97284W        W69599  38.879   0.515   0.884
97285W        W69600   0.912  27.236   1.305
97286W        W69601   2.811  38.003  11.477
97287W        W69602  36.632  27.351   0.452
97288W        W69603   0.764  17.168  13.212
97289W        W69604  34.889  31.855   3.688
97290W        W69605   2.671  25.554  10.561
97291W        W69606   4.444  21.264   3.661
97292W        W69607  27.005  25.718  11.804
97293W        W69608  11.951   4.286  11.090
97294W        W69609  37.545   7.697   3.655
97295W        W69610  10.898  42.809   2.118
97296W        W69611  31.605   5.305  14.343
97297W        W69612  17.551  22.082  13.466
97298W        W69613  18.856  22.877  11.651
97299W        W69614   6.896   1.823  12.023
97300W        W69615   5.839  34.091   2.796
97301W        W69616  27.680   9.777  14.615
97302W        W69617   9.599  30.200   1.253
97303W        W69618  25.277  42.938   2.959
97304W        W69619  11.373  19.307   2.627
97305W        W69620  13.084  40.251  13.906
97306W        W69621  10.904  17.477  10.612
97307W        W69622  38.739  30.989   4.129
97308W        W69623   5.139  44.406   2.209
97309W        W69624  24.022  19.449  11.061
97310W        W69625  19.714  11.134   2.809
97311W        W69626  39.307  39.527   0.442
97312W        W69627  44.435  40.331   3.595
97313W        W69628  27.881  10.417   1.895
97314W        W69629  38.066  38.608   0.979
97315W        W69630   2.686   8.572  13.078
97316W        W69631  21.442  11.765   4.536
97317W        W69632   1.610  13.653   4.285
97318W        W69633  36.794  33.389   3.681
97319W        W69634  14.662  25.131  13.079
97320W        W69635  13.466  11.133  11.089
97321W        W69636  16.714  18.203  13.722
97322W        W69637  43.640  32.617   1.380
97323W        W69638  41.768  14.349  12.458
97324W        W69639  24.239  40.474  12.637
97325W        W69640  31.002  11.157  12.696
97326W        W69641  22.159  21.780  14.019
97327W        W69642  43.045  24.044  13.871
97328W        W69643   1.570  39.298  11.800
97329W        W69644  18.033  36.548  10.937
97330W        W69645  43.425   7.081   1.208
97331W        W69646  30.395   2.443  12.667
97332W        W69647  10.796  42.844   1.174
97333W        W69648   3.770   9.292   3.070
97334W        W69649  40.780  38.022  11.102
97335W        W69650  35.191   6.797   2.765
97336W        W69651   3.745  12.010  11.175
97337W        W69652  13.040  21.097   9.903
97338W        W69653  41.429  35.338  14.022
97339W        W69654  10.018  21.098   1.468
97340W        W69655  37.056  23.006  14.421
97341W        W69656  23.044   2.324  12.625
97342W        W69657  37.327  23.452  10.214
97343W        W69658   9.345  20.982   2.847
97344W        W69659  12.634  10.683   2.768
97345W        W69660  15.645  11.823   0.990
97346W        W69661   4.849  37.553   1.248
97347W        W69662  44.419  42.896  12.370
97348W        W69663  24.026  24.898   3.886
97349W        W69664   9.136  18.147   2.945
97350W        W69665   6.759  22.189  13.454
97351W        W69666  39.797  28.586  13.982
97352W        W69667  44.270  32.463   3.048
97353W        W69668  17.577   3.976  12.316
97354W        W69669  29.415  36.016  12.967
97355W        W69670  37.335  30.472  13.848
97356W        W69671  43.399  21.632   1.212
97357W        W69672  35.983  44.215   4.306
97358W        W69673  12.592  29.137  14.528
97359W        W69674  10.801  32.394  11.606
97360W        W69675  32.736  32.795   2.210
97361W        W69676  37.394  22.233  13.610
97362W        W69677  16.382  18.759   3.271
97363W        W69678  12.436  13.166   0.333
97364W        W69679  20.921  35.770   3.674
97365W        W69680  14.647  30.815  10.358
97366W        W69681   2.221   3.999  14.145
97367W        W69682   9.226  21.709  13.418
97368W        W69683  11.935   7.363   4.204
97369W        W69684  34.439  14.845   0.902
97370W        W69685  12.158  25.100   1.279
97371W        W69686   4.067   1.495  13.363
97372W        W69687  31.600   9.265   3.593
97373W        W69688  38.091  22.000  12.957
97374W        W69689  25.067  12.605  11.173
97375W        W69690   4.320  29.443  11.440
97376W        W69691   3.544  23.471   4.981
97377W        W69692  35.741  44.567  11.055
97378W        W69693  32.945  30.411  14.858
97379W        W69694   3.667  26.108   3.276
97380W        W69695  12.735  12.148   1.872
97381W        W69696  11.839  29.280   0.640
97382W        W69697  21.060   7.345   2.780
97383W        W69698  36.754  17.521  11.512
97384W        W69699  30.990  13.370  14.858
97385W        W69700  15.760   7.445  14.516
97386W        W69701  21.266  34.704  11.124
97387W        W69702  12.627  35.238  10.361
97388W        W69703  41.578  14.642  12.046
97389W        W69704  39.554  34.669   0.928
97390W        W69705  19.948  19.360   3.665
97391W        W69706   3.455  21.021   2.432
97392W        W69707  22.646  26.115  12.927
97393W        W69708   9.175  28.136  11.631
97394W        W69709  16.711  24.065   1.969
97395W        W69710  28.116  42.434   0.772
97396W        W69711  11.115  43.249  13.933
97397W        W69712  32.415  35.959  10.631
97398W        W69713  20.519  41.739  11.100
97399W        W69714  35.135  15.273  14.046
97400W        W69715  17.237  38.605   4.631
97401W        W69716  21.648   3.773   0.012
97402W        W69717  26.411  28.470  10.996
97403W        W69718  42.357   0.828  12.969
97404W        W69719  16.404   9.803  10.487
97405W        W69720   9.237  19.066   3.152
97406W        W69721  17.673  10.845   0.743
97407W        W69722  21.965   4.672   1.437
97408W        W69723  31.847   4.101  13.378
97409W        W69724  18.581   3.805  12.565
97410W        W69725  32.242  35.957   1.799
97411W        W69726  26.058  35.857   0.347
97412W        W69727   1.554  12.413   3.764
97413W        W69728  36.140  19.189   0.701
97414W        W69729  14.064  26.731  14.515
97415W        W69730   1.287   4.835   1.167
97416W        W69731  28.664   9.179  11.219
97417W        W69732  11.834   1.779  13.436
97418W        W69733  38.628  44.529  14.333
97419W        W69734  41.602  43.273   1.033
97420W        W69735  35.390  19.321  14.408
97421W        W69736  37.118  26.993   3.138
97422W        W69737   1.753  44.030   1.363
97423W        W69738  29.646  16.819  11.139
97424W        W69739  11.093  27.162   2.422
97425W        W69740   6.612  21.367  14.810
97426W        W69741  37.051   7.880   1.834
97427W        W69742  23.468  41.941   1.383
97428W        W69743  42.962   2.846   0.493
97429W        W69744  23.342  20.118   1.918
97430W        W69745  34.889  37.460   4.500
97431W        W69746  17.074  10.251   0.475
97432W        W69747  12.321  44.970   1.220
97433W        W69748  29.449   8.203   3.373
97434W        W69749  32.297  42.200   3.664
97435W        W69750  29.122  36.399  12.289
97436W        W69751   8.760   6.737   3.719
97437W        W69752   0.809  20.340  12.393
97438W        W69753  13.091  26.977  12.883
97439W        W69754  23.559  35.052  13.042
97440W        W69755  41.397  25.042   3.164
97441W        W69756  14.834  24.263  14.281
97442W        W69757  26.705   4.267  12.609
97443W        W69758   5.401  43.883   2.274
97444W        W69759   4.941  15.923  14.338
97445W        W69760  12.617  27.063   4.586
97446W        W69761   6.390  16.707   3.816
97447W        W69762  41.383   7.107   2.278
97448W        W69763  34.893  42.191   0.505
97449W        W69764  34.198  28.182   3.610
97450W        W69765  16.682  24.158   4.418
97451W        W69766  41.800  30.998   4.853
97452W        W69767   9.872  24.018   1.953
97453W        W69768   5.315  31.846  13.078
97454W        W69769  12.583  13.583   2.426
97455W        W69770  37.088  12.895  11.920
97456W        W69771  43.780  18.299   4.044
97457W        W69772  11.307  39.072   4.756
97458W        W69773  15.188   7.147  13.920
97459W        W69774  16.180   4.683   1.423
97460W        W69775  21.201  12.698   1.946
97461W        W69776  44.421  14.187   1.367
97462W        W69777  40.739  14.674   0.743
97463W        W69778  30.592  30.561  11.403
97464W        W69779  30.005  36.883   0.316
97465W        W69780  44.574  42.880   3.910
97466W        W69781  41.850  25.794   1.026
97467W        W69782  22.142  26.122   2.277
97468W        W69783  16.007  20.686   0.534
97469W        W69784  29.236  16.161  11.581
97470W        W69785  44.360  42.251   0.304
97471W        W69786  35.615  25.526   4.337
97472W        W69787  22.538  21.134   2.921
97473W        W69788  16.253  30.437   0.947
97474W        W69789  21.084  11.165  12.159
97475W        W69790  22.518  14.177  12.993
97476W        W69791  30.115  33.171   2.458
97477W        W69792   6.723  16.527  11.129
97478W        W69793  27.110  32.581   3.776
97479W        W69794   6.894   5.761  12.987
97480W        W69795   0.292  29.179  13.033
97481W        W69796  29.053  24.769   3.235
97482W        W69797  36.561   5.311   0.768
97483W        W69798  18.631  11.883   0.755
97484W        W69799  16.154  28.095   2.133
97485W        W69800   7.193   3.793  14.932
97486W        W69801  31.494  18.740  11.479
97487W        W69802  42.803  12.345   3.214
97488W        W69803  17.045   4.316   4.588
97489W        W69804  37.377  28.072  12.886
97490W        W69805   6.642  14.412  14.192
97491W        W69806   2.459   4.342   3.331
97492W        W69807   3.307  44.877   0.970
97493W        W69808  30.058  10.798   3.667
97494W        W69809  38.569   5.295  13.863
97495W        W69810  33.707  37.251   5.134
97496W        W69811   3.774  16.986  14.784
97497W        W69812  19.200  33.627  12.513
97498W        W69813  29.131  18.018  10.689
97499W        W69814  11.835  42.213  10.649
97500W        W69815  39.969   6.636   1.892
97501W        W69816   9.403   6.205  11.124
97502W        W69817  24.699  11.619  14.014
97503W        W69818  41.733   5.373  13.466
97504W        W69819  21.141   3.536  10.647
97505W        W69820   6.594  14.668   0.992
97506W        W69821  13.935  34.613   0.995
97507W        W69822  13.364  33.741   1.282
97508W        W69823  12.258  42.847   2.920
97509W        W69824   1.268  41.026   0.542
97510W        W69825  17.199   9.838   3.756
97511W        W69826  26.426  21.887   0.615
97512W        W69827   0.520  43.864   2.288
97513W        W69828  35.860  23.627  14.267
97514W        W69829  24.466  36.782   2.728
97515W        W69830  34.088   4.779  11.151
97516W        W69831  25.030  43.292  12.308
97517W        W69832   0.684  32.184  14.776
97518W        W69833  25.466  21.355  10.117
97519W        W69834   0.395  15.633   1.022
97520W        W69835  12.171  14.253  11.632
97521W        W69836  16.098  12.437   1.860
97522W        W69837  29.060  33.853   2.821
97523W        W69838   0.322  14.534  13.068
97524W        W69839  37.437  12.605  14.543
97525W        W69840  33.041  34.435  12.395
97526W        W69841   8.166   4.170   2.264
97527W        W69842   8.292   1.231  11.411
97528W        W69843  32.699   3.480   5.051
97529W        W69844  29.055   1.459   4.530
97530W        W69845  17.714   2.284  12.889
97531W        W69846  18.299  16.251  11.159
97532W        W69847   5.040  21.463   1.790
97533W        W69848  24.599  22.682  10.124
97534W        W69849  23.385  36.354  14.834
97535W        W69850  41.152  22.129   3.800
97536W        W69851  23.621  22.768  10.989
97537W        W69852   3.599   9.397  11.562
97538W        W69853   9.653  27.930  12.415
97539W        W69854  31.042  35.430  10.411
97540W        W69855   8.291  32.176   0.728
97541W        W69856  33.560   2.543   3.514
97542W        W69857  44.881  36.534  12.242
97543W        W69858  19.231  34.994   2.311
97544W        W69859   3.381  27.910   2.748
97545W        W69860  40.873  16.725   2.849
97546W        W69861  23.502  32.982   1.847
97547W        W69862  36.374  37.885   1.506
97548W        W69863  42.016  12.005   0.241
97549W        W69864  19.064  38.266  10.534
97550W        W69865  38.785  43.213   2.399
97551W        W69866  18.988   8.942   0.863
97552W        W69867  15.264  26.991   1.766
97553W        W69868   0.000   7.592   2.605
97554W        W69869  31.201  34.582   0.799
97555W        W69870  39.507   6.913  12.366
97556W        W69871  27.217   7.842  12.564
97557W        W69872  32.374  43.707  14.815
97558W        W69873  41.773  27.649  14.703
97559W        W69874  25.878  44.817  11.142
97560W        W69875   1.170  28.653   3.779
97561W        W69876  32.528   1.938   3.674
97562W        W69877  20.545  44.946   2.243
97563W        W69878   0.342  31.100  12.985
97564W        W69879  38.025  35.941   2.401
97565W        W69880   3.669   1.490   4.225
97566W        W69881   9.417  11.247   2.887
97567W        W69882  32.141   6.921  12.095
97568W        W69883  20.647  20.676   2.744
97569W        W69884  16.244   1.995   3.618
97570W        W69885  36.182  18.570   3.778
97571W        W69886   9.584  35.620   4.582
97572W        W69887  37.952   3.216   2.364
97573W        W69888   6.226   9.483   2.906
97574W        W69889  43.417  16.814   2.813
97575W        W69890   9.847  37.799  10.432
97576W        W69891  25.724  36.601  11.190
97577W        W69892  43.214  35.178  11.124
97578W        W69893  40.552  22.174  12.925
97579W        W69894  36.935  12.128   2.238
97580W        W69895  32.481  27.137   0.478
97581W        W69896  19.631   3.330  10.949
97582W        W69897  39.816  14.248   4.717
97583W        W69898  12.161  17.699  11.398
97584W        W69899   9.346  40.011  13.469
97585W        W69900  24.700   4.860  10.640
97586W        W69901  30.042  25.556  12.597
97587W        W69902  31.111   2.081   2.808
97588W        W69903  19.232   4.864  14.720
97589W        W69904  11.128  36.950  13.817
97590W        W69905  29.710  17.590  12.728
97591W        W69906  36.034  41.908   2.361
97592W        W69907  31.657  44.478  13.564
97593W        W69908  16.727   8.718  12.015
97594W        W69909   6.225   9.186  12.532
97595W        W69910  14.042  32.414   3.199
97596W        W69911  34.004   0.275   0.967
97597W        W69912  27.035  37.505   4.029
97598W        W69913  34.690  35.614  12.981
97599W        W69914  38.808  18.227  10.994
97600W        W69915  35.254  43.135  13.255
97601W        W69916  34.794  44.413  12.648
97602W        W69917  30.435  26.113   3.621
97603W        W69918   0.867  44.699  13.874
97604W        W69919  21.109  30.064  13.508
97605W        W69920  25.609  38.513   3.708
97606W        W69921  11.738  40.163  11.131
97607W        W69922   3.713  34.251  12.216
97608W        W69923  37.430   2.732   3.674
97609W        W69924  26.455  43.070  11.093
97610W        W69925   3.880  24.575   3.620
97611W        W69926  19.578  19.707  12.603
97612W        W69927   1.794  28.555   0.166
97613W        W69928  25.921  20.644   1.454
97614W        W69929  34.114  11.353   3.639
97615W        W69930  21.214   5.315   4.792
97616W        W69931  10.921  21.634   3.265
97617W        W69932   7.839  31.135  12.908
97618W        W69933  34.172  39.613  13.566
97619W        W69934  36.544  20.880  11.570
97620W        W69935  32.709  28.662  12.224
97621W        W69936  36.073  14.261  10.606
97622W        W69937  36.437   4.173  14.318
97623W        W69938  15.277  43.958   3.718
97624W        W69939  42.840   3.506  14.953
97625W        W69940  36.654   5.120   1.672
97626W        W69941   3.796  37.492  12.576
97627W        W69942   1.148  29.219   0.953
97628W        W69943  35.950  28.412  12.885
97629W        W69944  43.472  32.855  13.579
97630W        W69945  12.094  12.083  12.455
97631W        W69946  41.536   3.827   2.297
97632W        W69947  10.358   1.792  13.544
97633W        W69948  19.779  27.029  13.602
97634W        W69949  15.590  20.151   2.235
97635W        W69950  19.642  44.520  14.987
97636W        W69951  26.698  19.316  12.091
97637W        W69952  33.595  29.929   1.123
97638W        W69953  43.624  38.107  11.120
97639W        W69954   1.682  40.296  12.523
97640W        W69955  18.084  43.554   4.116
97641W        W69956  42.058  32.872   0.006
97642W        W69957  22.560  15.330  12.325
97643W        W69958  44.016   4.518  14.472
97644W        W69959   6.258  36.949   0.514
97645W        W69960  14.561  32.081   2.333
97646W        W69961  31.267  38.953  13.478
97647W        W69962  38.499  41.757  11.929
97648W        W69963  43.420  42.479   0.309
97649W        W69964   0.932  44.175   1.466
97650W        W69965  44.093  40.980  14.637
97651W        W69966  39.801  11.374  14.988
97652W        W69967  15.592  12.876  11.082
97653W        W69968  42.085  22.208   3.579
97654W        W69969  31.715  38.570  11.153
97655W        W69970  30.108  35.085  14.828
97656W        W69971  39.711  40.967  13.519
97657W        W69972  17.351  29.937   5.518
97658W        W69973   1.425  22.557   0.526
97659W        W69974  33.433  39.914   2.948
97660W        W69975   9.588  23.584   4.349
97661W        W69976  19.716  16.075  11.081
97662W        W69977  40.016  27.229   2.124
97663W        W69978  38.090  13.763   2.737
97664W        W69979  24.983  20.689  13.485
97665W        W69980  14.303  13.310   2.737
97666W        W69981   4.457  26.976  10.463
97667W        W69982  32.503  39.482  14.150
97668W        W69983  38.496  23.055  11.089
97669W        W69984  39.206  17.368  12.534
97670W        W69985  21.009  21.819   2.326
97671W        W69986  39.416   3.839   1.426
97672W        W69987  32.434  31.589  11.549
97673W        W69988  10.943  15.380   3.469
97674W        W69989  31.103  26.483  10.626
97675W        W69990  12.373  14.895   0.729
97676W        W69991  40.791   4.982  13.578
97677W        W69992  37.797   7.355  11.121
97678W        W69993  22.015  18.313  13.676
97679W        W69994  13.212  33.137   4.668
97680W        W69995  14.537  15.122  11.458
97681W        W69996  40.934  30.546   2.222
97682W        W69997  31.382  36.944   1.341
97683W        W69998  42.672  41.898   0.661
97684W        W69999  31.245  33.398  12.386
97685W        W70000   8.298  21.796   1.331
97686W        W70001   8.668  29.902   0.359
97687W        W70002   3.133  35.720  11.664
97688W        W70003  31.685  36.515   1.407
97689W        W70004   2.774   9.918   4.026
97690W        W70005  10.907  28.679  13.928
97691W        W70006  30.601   1.168   2.259
97692W        W70007  14.153  22.400   1.063
97693W        W70008  27.103  38.574  11.929
97694W        W70009  40.925   3.761  14.725
97695W        W70010  35.751   8.612   4.251
97696W        W70011  13.525  21.281  11.370
97697W        W70012  13.126   3.910   4.598
97698W        W70013  15.102   4.301  14.488
97699W        W70014  11.957  11.349   4.218
97700W        W70015  11.100  24.966  10.543
97701W        W70016  39.179  24.115  12.134
97702W        W70017   8.350  44.597   3.680
97703W        W70018  24.059   7.590  11.354
97704W        W70019  10.041  23.531   4.580
97705W        W70020  10.152  34.740  11.278
97706W        W70021  12.842  15.786  14.019
97707W        W70022  24.806  24.770   1.695
97708W        W70023  25.077  23.703   0.372
97709W        W70024  35.985  11.851  12.464
97710W        W70025  43.417  23.869   1.372
97711W        W70026  24.053  23.986   0.877
97712W        W70027  26.130  15.828  14.342
97713W        W70028  44.712   9.189  12.893
97714W        W70029   1.911  30.584   3.528
97715W        W70030  39.488  17.665  14.422
97716W        W70031  13.160   1.971  10.674
97717W        W70032   9.979  13.059  10.733
97718W        W70033  15.611  40.324   3.679
97719W        W70034   9.717  14.588   2.390
97720W        W70035   4.661  10.312   3.747
97721W        W70036  41.471  40.847   1.697
97722W        W70037  22.266  43.785   3.266
97723W        W70038   9.881   8.150   1.711
97724W        W70039  42.533   6.164   0.941
97725W        W70040  13.169  42.944  10.787
97726W        W70041  11.218  38.192  13.882
97727W        W70042  43.749  24.846   1.892
97728W        W70043  26.221  29.640  14.484
97729W        W70044  12.799  14.836   4.606
97730W        W70045  24.193  28.028  14.968
97731W        W70046  20.618   1.313  13.890
97732W        W70047  35.132   0.858   0.327
97733W        W70048  43.723  13.133  11.157
97734W        W70049   4.710   0.513  14.714
97735W        W70050  41.832  23.203  11.432
97736W        W70051  11.214  11.602   4.274
97737W        W70052  18.218  12.243  14.805
97738W        W70053  22.581  38.412  14.988
97739W        W70054   4.699  30.871   2.295
97740W        W70055   2.788  29.387   1.414
97741W        W70056  25.678  18.725   0.009
97742W        W70057  42.770   7.693  10.421
97743W        W70058  11.064  27.062  11.538
97744W        W70059  20.742  34.999  11.162
97745W        W70060  22.016  10.627   3.160
97746W        W70061  36.665  42.412  12.137
97747W        W70062  18.496  27.710  12.802
97748W        W70063   3.702  20.929   4.292
97749W        W70064   8.153  20.176  14.752
97750W        W70065  29.474  41.775  11.131
97751W        W70066  12.888  10.113  13.581
97752W        W70067  21.073  44.880   3.406
97753W        W70068  27.686   1.831  12.213
97754W        W70069  36.465  27.462   4.115
97755W        W70070  23.076  12.309  12.941
97756W        W70071  38.203  36.424   4.537
97757W        W70072  27.921   4.402   2.679
97758W        W70073   9.601   0.435  11.587
97759W        W70074   9.789  39.321   2.716
97760W        W70075  27.562  14.719  11.538
97761W        W70076  21.270   0.180  10.620
97762W        W70077  20.769   7.710   2.238
97763W        W70078  23.204   6.298   1.245
97764W        W70079  36.932  19.631  11.998
97765W        W70080  18.775  41.518   1.339
97766W        W70081   2.270   1.908  12.853
97767W        W70082  16.346   0.159   2.221
97768W        W70083  44.018  39.407  13.676
97769W        W70084  22.527   8.950   2.877
97770W        W70085  32.929  31.526   2.186
97771W        W70086  26.515  18.597  11.335
97772W        W70087  13.637   6.430   2.245
97773W        W70088  24.937  33.912   0.335
97774W        W70089  20.716  29.667  13.554
97775W        W70090  14.220  34.187  10.678
97776W        W70091  21.574  11.790   1.212
97777W        W70092   9.113  31.969  12.699
97778W        W70093   7.384  40.289   1.855
97779W        W70094  44.694  43.042   1.100
97780W        W70095  28.714  30.192  11.630
97781W        W70096  22.633  19.763   3.206
97782W        W70097  34.776  44.416   4.593
97783W        W70098  35.922  32.068  14.959
97784W        W70099  11.798  20.952   3.393
97785W        W70100   6.335  12.683  13.295
97786W        W70101  29.137  32.043  12.488
97787W        W70102  39.619  16.710  11.629
97788W        W70103   1.045  16.860  14.461
97789W        W70104  37.029  15.823  12.195
97790W        W70105  30.900   1.730  14.004
97791W        W70106   6.213  19.723  14.540
97792W        W70107  28.623  38.407   4.591
97793W        W70108  14.440  34.463  14.841
97794W        W70109   3.906  11.257   3.120
97795W        W70110  32.015   4.457   1.920
97796W        W70111   2.951  33.974   2.673
97797W        W70112  38.912  31.604   0.212
97798W        W70113  18.210  13.120  10.916
97799W        W70114  37.490   3.268  10.632
97800W        W70115  30.368  26.956   0.258
97801W        W70116  34.611  16.070  13.097
97802W        W70117  36.329  26.318  13.431
97803W        W70118  44.445  25.572   1.741
97804W        W70119  24.576  43.811  12.071
97805W        W70120   8.392   0.175   1.677
97806W        W70121  20.791  24.761  13.814
97807W        W70122  23.455   8.631   2.927
97808W        W70123   1.701  12.305  12.527
97809W        W70124  19.185   4.042   1.328
97810W        W70125  21.864  32.514  13.541
97811W        W70126  12.409  15.286   3.792
97812W        W70127  29.249  41.997  13.930
97813W        W70128  26.803  26.186  14.855
97814W        W70129  21.705   7.764  13.359
97815W        W70130  23.107  28.503  14.435
97816W        W70131  20.623  36.848   4.602
97817W        W70132   0.384  30.473   2.439
97818W        W70133  40.363  37.281  13.889
97819W        W70134  16.053  43.394   3.701
97820W        W70135   4.779   4.639   1.391
97821W        W70136   4.893   0.526   1.715
97822W        W70137  30.942   9.668  12.538
97823W        W70138  35.501  27.751   3.443
97824W        W70139  36.558  10.851  12.439
97825W        W70140  13.590  22.466   2.241
97826W        W70141  30.553  23.941   3.226
97827W        W70142  33.547  39.821  11.207
97828W        W70143  32.469   8.750   0.530
97829W        W70144  41.460  23.501  13.063
97830W        W70145  30.226  38.456   2.800
97831W        W70146  35.478  14.944   1.279
97832W        W70147  17.361  13.675   0.551
97833W        W70148  42.950  18.169   0.864
97834W        W70149  33.545  32.701  13.889
97835W        W70150  15.168  43.970  11.331
97836W        W70151  10.167  14.317  14.488
97837W        W70152   4.390  27.479   3.177
97838W        W70153  38.974   8.148  12.457
97839W        W70154   3.492   2.416   0.310
97840W        W70155  10.398  14.347   1.745
97841W        W70156  32.602  33.649  13.801
97842W        W70157  17.236  32.435  14.870
97843W        W70158  23.988  29.291   3.147
97844W        W70159  30.600  18.399   0.385
97845W        W70160  30.142  32.832  12.005
97846W        W70161   0.780  16.589  14.829
97847W        W70162  34.679  41.328  12.533
97848W        W70163   9.760   8.656  11.017
97849W        W70164  30.730   7.670   4.110
97850W        W70165  41.265  37.874  10.997
97851W        W70166  42.544  21.955  11.525
97852W        W70167  12.592  15.838   4.532
97853W        W70168  19.722   8.443  13.050
97854W        W70169   2.861  25.445   4.458
97855W        W70170  16.996  16.373   1.135
97856W        W70171  42.289   6.657   0.973
97857W        W70172  41.810  16.664   0.960
97858W        W70173   5.662   5.328  14.443
97859W        W70174  26.483   8.224  14.613
97860W        W70175  39.853  43.197  11.169
97861W        W70176  13.781  13.172  14.897
97862W        W70177   9.385  38.934   0.250
97863W        W70178  27.740  22.083  14.444
97864W        W70179  43.302  39.744   2.703
97865W        W70180  35.869  18.799  11.550
97866W        W70181  33.033   0.281   2.820
97867W        W70182  20.253  11.374   4.473
97868W        W70183   1.916   2.533   1.510
97869W        W70184  14.554  31.074  13.895
97870W        W70185  36.147  27.623   0.744
97871W        W70186  29.506  34.422  12.464
97872W        W70187  20.476  22.123  12.837
97873W        W70188  39.296  43.904  13.811
97874W        W70189  35.521  43.359  12.836
97875W        W70190  41.245   2.016   3.953
97876W        W70191   6.376  18.648  12.488
97877W        W70192  13.080  43.710   4.701
97878W        W70193  10.307   6.881  11.609
97879W        W70194   6.238  31.736  10.193
97880W        W70195  14.785  22.141  12.876
97881W        W70196  42.046   1.209   2.667
97882W        W70197  32.810   1.981   1.249
97883W        W70198   7.631  29.244  13.586
97884W        W70199   1.005   8.881   4.787
97885W        W70200  38.576  40.396   3.517
97886W        W70201  22.790  27.552   3.679
97887W        W70202  34.055  42.964   4.535
97888W        W70203  24.647  19.075   4.563
97889W        W70204   7.380  44.762  14.719
97890W        W70205  38.400  14.098   4.508
97891W        W70206  14.267  11.354   2.216
97892W        W70207  39.734   9.245  13.985
97893W        W70208  40.889  20.154  12.537
97894W        W70209  25.805  40.060   3.325
97895W        W70210  27.450  14.065  12.380
97896W        W70211   1.960  13.867  12.802
97897W        W70212   8.694  29.386  14.223
97898W        W70213  10.801  40.506   1.905
97899W        W70214  41.050  23.247   2.858
97900W        W70215   2.253  11.401   2.643
97901W        W70216  24.650   0.007   2.672
97902W        W70217  33.742  44.476   2.207
97903W        W70218  34.714  40.828   0.496
97904W        W70219  24.459   9.117  12.967
97905W        W70220  26.496  12.560   0.432
97906W        W70221  44.880  18.258  13.525
97907W        W70222  41.234  16.333   1.193
97908W        W70223  40.418  44.991   2.246
97909W        W70224  24.699  41.431  13.865
97910W        W70225  34.452  38.266   1.182
97911W        W70226   9.810  13.366   4.663
97912W        W70227   5.834  12.616  13.415
97913W        W70228   1.167  23.969  11.185
97914W        W70229   8.632  42.821   4.250
97915W        W70230  20.105  13.014  13.852
97916W        W70231  31.738  11.652  12.445
97917W        W70232  37.973  15.605   0.942
97918W        W70233  43.693  18.237  11.009
97919W        W70234  32.257  21.965   3.807
97920W        W70235  39.371  12.145  12.598
97921W        W70236  16.429  14.718   4.447
97922W        W70237  34.937   0.181   2.802
97923W        W70238  32.118  34.312  12.085
97924W        W70239  17.764  17.587   0.810
97925W        W70240  21.461   8.769  14.491
97926W        W70241   6.297   1.465   4.153
97927W        W70242  38.576  25.454   4.165
97928W        W70243  20.092  10.130   0.442
97929W        W70244   5.674   0.903   2.053
97930W        W70245  14.620   5.034   2.531
97931W        W70246   5.515   3.018   4.479
97932W        W70247  30.429   1.058  14.641
97933W        W70248  30.991  40.323  12.506
97934W        W70249   5.132  36.048   4.666
97935W        W70250  19.562   6.391  14.932
97936W        W70251   6.163  12.795   3.187
97937W        W70252  10.841  22.516   0.262
97938W        W70253   2.347  12.641  14.258
97939W        W70254  15.296  11.061  11.981
97940W        W70255  16.587  41.539   2.138
97941W        W70256   6.937   1.270  12.532
97942W        W70257   7.711  20.045  14.483
97943W        W70258  39.062  24.712   1.873
97944W        W70259  30.161  17.085  14.339
97945W        W70260   5.814  25.707   3.262
97946W        W70261  22.300  37.379   0.201
97947W        W70262  14.448  39.800   1.764
97948W        W70263   4.964   6.749  12.796
97949W        W70264   6.463   5.397   3.189
97950W        W70265  11.825  19.708   0.911
97951W        W70266  11.827  14.595   1.826
97952W        W70267  24.254  10.727  10.488
97953W        W70268  33.623  40.197  14.363
97954W        W70269   7.802  22.070  11.152
97955W        W70270  42.836  37.957  11.816
97956W        W70271  29.552  37.978   3.296
97957W        W70272  32.161  35.214   0.415
97958W        W70273   5.600  26.901  14.791
97959W        W70274   5.416  28.970   3.758
97960W        W70275  33.281  27.133   0.730
97961W        W70276  28.583  12.741  14.430
97962W        W70277  14.043  18.789   1.374
97963W        W70278  31.781  18.804  14.644
97964W        W70279  23.731  41.148  12.106
97965W        W70280  17.105  42.271  13.933
97966W        W70281   8.284  41.800   2.362
97967W        W70282   1.862  28.498   1.685
97968W        W70283  40.568   9.719  13.674
97969W        W70284  30.006  26.369   1.482
97970W        W70285   1.695  39.777  14.418
97971W        W70286  26.918  37.876   4.800
97972W        W70287   2.835   3.478   2.217
97973W        W70288  29.675   8.478  13.883
97974W        W70289  31.075  36.855   3.019
97975W        W70290  11.342   0.825  11.517
97976W        W70291   4.332  23.848  12.490
97977W        W70292  10.798  18.569   3.846
97978W        W70293  16.196  19.239  12.989
97979W        W70294  41.026  13.321  14.773
97980W        W70295  23.103  32.546  14.293
97981W        W70296  40.860  22.563   3.821
97982W        W70297  38.747  24.699  11.593
97983W        W70298  24.544  26.130   3.100
97984W        W70299  12.836  43.489   2.424
97985W        W70300  19.235  24.694   3.201
97986W        W70301  37.381  13.834   2.131
97987W        W70302  27.622   8.220   5.059
97988W        W70303  24.974  30.181   3.706
97989W        W70304  14.497   8.715   9.878
97990W        W70305  21.728  28.064   0.790
97991W        W70306  33.525  13.589   0.339
97992W        W70307   2.472  20.890  11.625
97993W        W70308  43.450  36.374  14.346
97994W        W70309  12.396   0.710  12.956
97995W        W70310  22.335  18.169   2.636
97996W        W70311  41.657  16.963  10.263
97997W        W70312  38.457  14.623   4.498
97998W        W70313  15.690  18.077  13.446
97999W        W70314  21.522  34.716   2.284
98000W        W70315  20.652  31.847   3.287
98001W        W70316  30.638  41.035   3.391
98002W        W70317  33.552  44.487  10.547
98003W        W70318  26.573   5.958  13.479
98004W        W70319  42.799  32.848   0.424
98005W        W70320  30.203  39.013   2.711
98006W        W70321  15.398   3.780   3.270
98007W        W70322   8.789  20.257   2.731
98008W        W70323  14.362  13.355  14.534
98009W        W70324  33.843  24.642  12.603
98010W        W70325  14.408  10.315   4.544
98011W        W70326  15.642   4.453   2.870
98012W        W70327   1.497  39.172   1.694
98013W        W70328  12.588  26.147  11.848
98014W        W70329  43.462   6.272   3.373
98015W        W70330   0.245  35.435  12.798
98016W        W70331  21.092  34.074   0.295
98017W        W70332   8.617  17.573  11.187
98018W        W70333  13.238  44.261  10.237
98019W        W70334  26.430   9.824  10.027
98020W        W70335  13.149   6.347   0.901
98021W        W70336  41.765   3.355   4.780
98022W        W70337  20.521  21.023  10.617
98023W        W70338  10.364  21.726   0.344
98024W        W70339  42.059  28.725   3.128
98025W        W70340   9.499  26.713   2.183
98026W        W70341  25.173   3.915   4.633
98027W        W70342  39.848  18.068   3.827
98028W        W70343  30.592  26.240  13.597
98029W        W70344  11.890  11.625  11.887
98030W        W70345  10.205   6.272   2.751
98031W        W70346  25.939  10.329  13.110
98032W        W70347   3.686  39.388   4.155
98033W        W70348  29.251   6.187   4.650
98034W        W70349  15.144  34.421   4.068
98035W        W70350  10.774  42.079  11.837
98036W        W70351  21.060  30.415  12.119
98037W        W70352   4.961   4.247   4.120
98038W        W70353  15.734  10.918   2.296
98039W        W70354  27.938   8.098  12.918
98040W        W70355  13.557  26.222   1.739
98041W        W70356  42.570  32.836  14.970
98042W        W70357  41.376  27.978  13.275
98043W        W70358  30.992  10.227   3.204
98044W        W70359  20.835  29.072   5.007
98045W        W70360   5.342  16.496   1.901
98046W        W70361  41.459  20.212  14.282
98047W        W70362  28.961  44.566  13.828
98048W        W70363   9.338  10.990   1.762
98049W        W70364  12.027   5.436  14.886
98050W        W70365   3.181  41.444   2.711
98051W        W70366  25.809  20.449  11.055
98052W        W70367  39.617  26.031  14.809
98053W        W70368   5.145  11.860  13.689
98054W        W70369   5.732  24.904   3.712
98055W        W70370  15.092  30.298   3.774
98056W        W70371  31.939  35.601  11.369
98057W        W70372  20.009  19.341   0.672
98058W        W70373  28.765   1.169  11.487
98059W        W70374  24.278  33.186   2.772
98060W        W70375  34.915  44.295  14.117
98061W        W70376  33.598  24.943   4.147
98062W        W70377   3.822  30.592   5.015
98063W        W70378  25.757  33.778   0.084
98064W        W70379  13.458  39.472   2.482
98065W        W70380  35.777   5.389  10.732
98066W        W70381  35.575   2.291  13.617
98067W        W70382  12.438   2.427   4.310
98068W        W70383  29.224  22.304  14.537
98069W        W70384  43.713  30.182  13.016
98070W        W70385  35.015  20.964   2.905
98071W        W70386  13.124  21.641  14.995
98072W        W70387   9.447  44.767   4.391
98073W        W70388  29.432  44.089  12.501
98074W        W70389  34.757  31.520  10.611
98075W        W70390   9.342  15.846  14.921
98076W        W70391  39.350  17.615   0.476
98077W        W70392   8.877  25.047  13.448
98078W        W70393  37.438  37.778  11.626
98079W        W70394   7.202  24.530  11.664
98080W        W70395  19.011  14.200   3.420
98081W        W70396   3.249   2.878   2.666
98082W        W70397   9.668  20.727   2.292
98083W        W70398   2.749  28.895   1.665
98084W        W70399  16.770  15.166  13.995
98085W        W70400   2.699   2.797  10.633
98086W        W70401  15.063   3.763   1.251
98087W        W70402  14.307   1.205  13.927
98088W        W70403   3.763   0.673   2.065
98089W        W70404  13.050  36.525  11.958
98090W        W70405   8.282  44.014   4.534
98091W        W70406  42.315  44.185   3.625
98092W        W70407  22.163  35.548  13.980
98093W        W70408  33.970   5.886  14.551
98094W        W70409   5.723   7.151   1.578
98095W        W70410  24.747  32.984  14.721
98096W        W70411  16.215  25.988   4.179
98097W        W70412   1.749  40.595  10.667
98098W        W70413  13.334  40.864  11.723
98099W        W70414   2.854  24.659   0.977
98100W        W70415   4.651  34.619  10.679
98101W        W70416  36.012   5.681   2.868
98102W        W70417  13.049  31.128  11.129
98103W        W70418  40.518   1.825   3.176
98104W        W70419  31.575  21.136   3.714
98105W        W70420  14.645  28.648  14.880
98106W        W70421  27.989  41.321   2.175
98107W        W70422   7.354  36.092   4.890
98108W        W70423  33.417  43.021   3.898
98109W        W70424  34.766  41.394   0.819
98110W        W70425  21.016  14.343   3.607
98111W        W70426  26.699  40.863  14.995
98112W        W70427  25.999  25.468   1.300
98113W        W70428  20.213  35.099   1.340
98114W        W70429  15.235  31.676   1.799
98115W        W70430   4.345   1.023   4.621
98116W        W70431  12.890  16.612  10.911
98117W        W70432   2.002  37.287   1.092
98118W        W70433  11.114  18.925   9.859
98119W        W70434  30.963   8.807   2.658
98120W        W70435  23.022  25.188  11.448
98121W        W70436   7.433   6.359  14.836
98122W        W70437  20.254  29.436   1.839
98123W        W70438  14.085  16.141   0.899
98124W        W70439  11.403   6.209  12.765
98125W        W70440  27.897  16.928  11.230
98126W        W70441  22.735  41.173   3.271
98127W        W70442   8.883   6.062   1.396
98128W        W70443  38.189  12.686  11.027
98129W        W70444  33.807  33.569   2.254
98130W        W70445  15.701   9.369   0.798
98131W        W70446  35.035  23.124  10.357
98132W        W70447   3.811   4.746  12.979
98133W        W70448  32.011  19.507  12.393
98134W        W70449  22.496  16.678   0.315
98135W        W70450  44.862  28.218  13.006
98136W        W70451  34.104  11.722  13.881
98137W        W70452  43.077   4.306  12.949
98138W        W70453   6.558   3.603  14.316
98139W        W70454  15.694  23.983  12.461
98140W        W70455   4.329  20.770   4.854
98141W        W70456   9.518  28.389  10.599
98142W        W70457  31.413  15.366  14.243
98143W        W70458  35.138   6.318  12.007
98144W        W70459   6.746  20.737  11.484
98145W        W70460  22.648  42.306  10.586
98146W        W70461   4.395   4.967   3.779
98147W        W70462  20.482   8.871  12.379
98148W        W70463  18.614  30.024  14.754
98149W        W70464  15.320  33.688   0.306
98150W        W70465   6.862  43.488  11.395
98151W        W70466  15.674  23.219   4.942
98152W        W70467  34.516  34.138  13.064
98153W        W70468  39.989  29.630   0.804
98154W        W70469  27.615   3.135   4.346
98155W        W70470  24.434   2.788   3.606
98156W        W70471  32.770  44.047  14.863
98157W        W70472  21.562  36.577  11.335
98158W        W70473  13.830  24.478  12.930
98159W        W70474  40.489   0.790  14.011
98160W        W70475  27.075  16.919   1.023
98161W        W70476   4.437  44.885  12.407
98162W        W70477  10.513  21.716  11.084
98163W        W70478   9.282  11.046  12.414
98164W        W70479   0.164  34.103   0.251
98165W        W70480  32.119   9.599  13.913
98166W        W70481   6.399  21.531   3.810
98167W        W70482  43.966  42.011  12.599
98168W        W70483  38.523  34.359   2.227
98169W        W70484   7.900   6.261   0.050
98170W        W70485  25.063  22.724   2.750
98171W        W70486  34.792  27.208  12.502
98172W        W70487  30.239   8.702  13.281
98173W        W70488   5.668  10.092   1.989
98174W        W70489   0.997  44.241  11.619
98175W        W70490  38.938  34.928   3.962
98176W        W70491  21.663  24.332   2.275
98177W        W70492  18.746   7.818   0.408
98178W        W70493  22.258  26.616   0.010
98179W        W70494  39.553  38.534   3.603
98180W        W70495  21.181  34.981   4.004
98181W        W70496  22.230   8.515  14.341
98182W        W70497  16.255  14.100  11.112
98183W        W70498  43.771   0.846  14.711
98184W        W70499   4.858   4.896  14.198
98185W        W70500  26.525  39.300  14.800
98186W        W70501   4.347  39.323   1.543
98187W        W70502  37.114   8.636   1.480
98188W        W70503  33.809   8.697   3.693
98189W        W70504  23.725  24.291   1.681
98190W        W70505  11.759  25.444  13.672
98191W        W70506  20.163  34.825  13.965
98192W        W70507  31.661   0.807   1.684
98193W        W70508  36.907   5.295  13.539
98194W        W70509  14.090  22.715  10.762
98195W        W70510  37.362  15.665  11.000
98196W        W70511  11.457  29.165   0.969
98197W        W70512   1.369  14.534  12.438
98198W        W70513   1.814  38.365   3.779
98199W        W70514  39.503  16.569  13.099
98200W        W70515   1.681  21.492   3.388
98201W        W70516  26.607   6.763  13.993
98202W        W70517  39.452  23.212  12.152
98203W        W70518  25.746  27.571   0.468
98204W        W70519  30.714  23.091   1.922
98205W        W70520  31.480  34.105   0.764
98206W        W70521   5.003  39.137  11.646
98207W        W70522  39.766  23.354   5.660
98208W        W70523  21.439   4.716  11.576
98209W        W70524  29.013  22.519   3.630
98210W        W70525  40.865  15.078  13.911
98211W        W70526  38.442  16.089   0.326
98212W        W70527  38.261  39.842   3.651
98213W        W70528  19.582  26.280  14.635
98214W        W70529  43.068   4.888   1.221
98215W        W70530  12.185  22.292  13.956
98216W        W70531   8.328  13.232  14.405
98217W        W70532  29.446  17.003  10.667
98218W        W70533  24.238  21.070   0.324
98219W        W70534  13.349  43.567  12.422
98220W        W70535  26.141  34.431  10.720
98221W        W70536  26.547  34.333  12.548
98222W        W70537  26.071  38.048  11.497
98223W        W70538  38.542  23.016  14.976
98224W        W70539   3.744  33.435  14.012
98225W        W70540   3.049  29.548  10.660
98226W        W70541  34.114  38.681   1.269
98227W        W70542  21.759   6.858  10.571
98228W        W70543  33.180   8.421   1.846
98229W        W70544  31.395  28.707  12.431
98230W        W70545  42.324  22.006   0.337
98231W        W70546  19.310   4.406   3.653
98232W        W70547   1.541  14.670  12.942
98233W        W70548  25.044  39.582   0.050
98234W        W70549  17.835  42.293  11.568
98235W        W70550  26.715  18.309  12.116
98236W        W70551   7.100   9.864  12.351
98237W        W70552   2.879  28.544   4.559
98238W        W70553  41.720  39.924  12.504
98239W        W70554   7.925  24.644   0.366
98240W        W70555  37.359  38.017   1.906
98241W        W70556  38.062  34.990   3.448
98242W        W70557  31.514  44.936   1.797
98243W        W70558  35.580   2.907   0.206
98244W        W70559  26.629  35.787  10.597
98245W        W70560   1.968  41.977   4.129
98246W        W70561  20.211  20.725  12.297
98247W        W70562   5.746  17.103  12.895
98248W        W70563   4.244   9.789  14.070
98249W        W70564  34.457  24.842   1.674
98250W        W70565  27.997   0.753  14.338
98251W        W70566  19.477  35.810   1.245
98252W        W70567   0.980   6.210  11.160
98253W        W70568   9.597  24.888   3.879
98254W        W70569  25.226  10.731  11.444
98255W        W70570  20.766  15.842   2.345
98256W        W70571  21.421  29.580  11.142
98257W        W70572  13.288   2.238  14.458
98258W        W70573  38.522  33.911   0.691
98259W        W70574  35.781  34.822   0.252
98260W        W70575  20.116  23.341   2.564
98261W        W70576  25.196  34.893  13.546
98262W        W70577  28.493  21.117   4.281
98263W        W70578  17.346   1.982  14.524
98264W        W70579   7.759  41.506  13.399
98265W        W70580  25.243  20.023  12.862
98266W        W70581  15.715  22.107   3.981
98267W        W70582  17.137  20.197   4.974
98268W        W70583  27.403  17.847   2.718
98269W        W70584  27.756  37.606  12.915
98270W        W70585  11.742  10.593   0.457
98271W        W70586  22.640   1.164  14.900
98272W        W70587  16.542   9.664   0.963
98273W        W70588   5.474  11.884  14.989
98274W        W70589  41.025  33.658   4.861
98275W        W70590  10.505  23.431   2.311
98276W        W70591  16.037  38.885   4.220
98277W        W70592  23.742   4.638  12.909
98278W        W70593  42.082  16.663   1.413
98279W        W70594  44.018   7.709  11.017
98280W        W70595  18.136  13.210   0.687
98281W        W70596  18.782  22.589   0.649
98282W        W70597  39.984  16.501   2.152
98283W        W70598  37.656   7.925   3.193
98284W        W70599  34.688   1.346   3.610
98285W        W70600  33.487  23.418  14.369
98286W        W70601  12.533  12.047   0.889
98287W        W70602  32.672   3.459   4.172
98288W        W70603   3.009  22.007   0.945
98289W        W70604  21.827  29.428   1.380
98290W        W70605  23.609  30.261  14.389
98291W        W70606  30.588  30.126  13.922
98292W        W70607  42.725  38.891   0.064
98293W        W70608  41.008  17.541  14.994
98294W        W70609   3.390  11.790   1.108
98295W        W70610  21.714   1.213  11.142
98296W        W70611  40.009  10.793   3.578
98297W        W70612  10.454  32.498   1.902
98298W        W70613  29.077  44.976   1.825
98299W        W70614  30.921   3.002   2.635
98300W        W70615   7.327  11.604  14.369
98301W        W70616  16.675  27.797   0.275
98302W        W70617  30.668  14.759  13.876
98303W        W70618   2.267  33.003   3.651
98304W        W70619  41.801  32.841  11.760
98305W        W70620   3.409   8.169   0.944
98306W        W70621  16.130  12.684   1.338
98307W        W70622  29.119  15.736   4.607
98308W        W70623  25.675  33.198   3.123
98309W        W70624  30.071   9.927   4.243
98310W        W70625  29.502   6.741  13.507
98311W        W70626  35.632  31.232   3.847
98312W        W70627  42.288   8.198  14.655
98313W        W70628  36.307  22.021  12.446
98314W        W70629  35.325   5.798   2.350
98315W        W70630  31.530  11.557  13.414
98316W        W70631  39.312  10.749   2.971
98317W        W70632   6.995   6.875  12.394
98318W        W70633   7.498  35.018  13.924
98319W        W70634  33.651  43.411  11.364
98320W        W70635  43.285  32.735  12.445
98321W        W70636  11.710   9.101   0.025
98322W        W70637   3.211  23.519  11.075
98323W        W70638  24.232  10.223   0.826
98324W        W70639   3.766  37.131  12.947
98325W        W70640  14.279  15.779   4.108
98326W        W70641  31.872   3.172   1.377
98327W        W70642  42.296  11.767   4.937
98328W        W70643  23.507  43.717   1.767
98329W        W70644  44.915  16.367  12.243
98330W        W70645  41.925  42.739   1.905
98331W        W70646  39.739  23.573  11.080
98332W        W70647  26.649  37.382   2.667
98333W        W70648  37.141  35.558   0.950
98334W        W70649   2.032  28.940   1.902
98335W        W70650  18.750  32.494  13.092
98336W        W70651  27.586  34.420  10.623
98337W        W70652  35.943  23.165  13.614
98338W        W70653  18.357  29.947  11.968
98339W        W70654  18.925  30.092   5.560
98340W        W70655  41.048   2.081  10.942
98341W        W70656  32.377  12.106  12.648
98342W        W70657   0.770  40.897  14.782
98343W        W70658  14.154  25.655  10.564
98344W        W70659  37.834  31.973  11.394
98345W        W70660   0.265  37.915  12.477
98346W        W70661   0.740   3.176   2.894
98347W        W70662   7.982  44.365   5.546
98348W        W70663  25.530  23.063  12.386
98349W        W70664  20.836  38.602  14.924
98350W        W70665  17.338  21.504  13.825
98351W        W70666  42.263  26.545   2.152
98352W        W70667  20.186  24.040  11.879
98353W        W70668  14.771  19.519   2.783
98354W        W70669  23.970  39.055   3.731
98355W        W70670   2.179  34.078   4.447
98356W        W70671  24.057  38.718   0.515
98357W        W70672   5.916   3.222   3.153
98358W        W70673  19.843  39.699   5.491
98359W        W70674  23.093   7.861   4.199
98360W        W70675   4.483  28.895  10.092
98361W        W70676   8.332  27.567   4.580
98362W        W70677  10.003   0.393   3.989
98363W        W70678  21.020  21.077   2.715
98364W        W70679  16.205  18.050   2.346
98365W        W70680  21.063   9.133  12.999
98366W        W70681  33.864  38.994   2.596
98367W        W70682  32.672  24.905  10.966
98368W        W70683  27.957  16.581  11.611
98369W        W70684  14.269  29.452  11.609
98370W        W70685   1.223  37.286  13.040
98371W        W70686  24.537   7.131   0.484
98372W        W70687  21.815  10.210   4.386
98373W        W70688   9.314  22.615  14.499
98374W        W70689  37.862   7.360   2.127
98375W        W70690  43.905  13.608   0.412
98376W        W70691  43.420  26.722  10.701
98377W        W70692  25.994  12.867  12.339
98378W        W70693  16.251   8.821  10.709
98379W        W70694  25.553   5.212   2.199
98380W        W70695  14.697   7.711   3.192
98381W        W70696  23.323  16.156   1.741
98382W        W70697   7.686  38.305   1.713
98383W        W70698  41.445  19.696  13.901
98384W        W70699  31.936  40.924   0.913
98385W        W70700  26.478  24.875   2.199
98386W        W70701  35.300  26.435  10.547
98387W        W70702  19.145  35.453   3.235
98388W        W70703  11.102  35.458   2.349
98389W        W70704  26.411  32.348   2.138
98390W        W70705   8.253   8.553  14.797
98391W        W70706  43.976  32.741  13.444
98392W        W70707  40.455  25.528  13.785
98393W        W70708  23.706  35.458   1.169
98394W        W70709  12.135  19.698  13.567
98395W        W70710   1.997  24.089  14.951
98396W        W70711  38.890  13.033  12.384
98397W        W70712  23.061  33.128   3.597
98398W        W70713  18.674  17.295   0.715
98399W        W70714  30.252  40.821  13.966
98400W        W70715   9.985  27.187   3.890
98401W        W70716   8.798  31.157   4.163
98402W        W70717  38.351  26.787   3.733
98403W        W70718  20.241  27.988   3.546
98404W        W70719  38.498  11.087   3.279
98405W        W70720  36.385  30.297  12.118
98406W        W70721  22.794  37.744  12.930
98407W        W70722  38.372   4.618  13.947
98408W        W70723  32.188  16.626   4.571
98409W        W70724  23.664  31.451  10.846
98410W        W70725   1.504   5.867  13.011
98411W        W70726  31.086   9.282   0.830
98412W        W70727   4.726  29.611  14.951
98413W        W70728  11.785  14.129  10.693
98414W        W70729   7.900  13.810  10.662
98415W        W70730   5.418   6.329   2.137
98416W        W70731  38.032   8.265   0.461
98417W        W70732  26.700  34.527  12.085
98418W        W70733  12.565  32.814  11.539
98419W        W70734   1.694   7.342   0.843
98420W        W70735  10.392  36.547   0.515
98421W        W70736  34.754  41.806  10.540
98422W        W70737  41.289  36.953  13.747
98423W        W70738   0.937   3.415   1.998
98424W        W70739   8.352  15.500   4.195
98425W        W70740  30.836  33.890  11.328
98426W        W70741  20.052  36.289  11.097
98427W        W70742  18.665  17.783   2.337
98428W        W70743  13.202  31.054  14.779
98429W        W70744  37.389  44.978   4.643
98430W        W70745  20.762  25.516  14.863
98431W        W70746  41.065   6.282  11.148
98432W        W70747  38.943  27.475   3.633
98433W        W70748  18.801  40.289  13.333
98434W        W70749  23.687  39.472   2.899
98435W        W70750   6.664  23.511   3.791
98436W        W70751  15.664  35.940   0.668
98437W        W70752   4.039  35.961   4.644
98438W        W70753  27.941   1.143   1.647
98439W        W70754  12.065  30.602  11.505
98440W        W70755  33.563  15.017   2.312
98441W        W70756  23.088   4.064  13.165
98442W        W70757   6.054  32.303   0.395
98443W        W70758  26.630  27.670  12.631
98444W        W70759  16.625  15.267  14.518
98445W        W70760  29.920  23.665   4.010
98446W        W70761  29.435  27.844  13.014
98447W        W70762  35.952   7.348   1.144
98448W        W70763  10.806  31.591   1.464
98449W        W70764  28.236  28.457  13.894
98450W        W70765  37.535  23.209   1.868
98451W        W70766  15.781   0.225  11.024
98452W        W70767  35.304  16.715   2.375
98453W        W70768  13.184  19.441  12.166
98454W        W70769  40.204   4.797   1.801
98455W        W70770  36.318   1.946  14.755
98456W        W70771  43.951  44.800   4.117
98457W        W70772  36.329   6.085   1.716
98458W        W70773  39.826  12.782   1.252
98459W        W70774  27.935  44.946   4.977
98460W        W70775  12.150   9.617  13.084
98461W        W70776   0.708  44.650   9.723
98462W        W70777  23.569  39.377  14.711
98463W        W70778  39.333  16.074  12.181
98464W        W70779  30.127  43.848  14.899
98465W        W70780  20.050   5.310  11.576
98466W        W70781  35.582  27.892  14.579
98467W        W70782  38.819  32.740   4.495
98468W        W70783  18.657   7.505  11.690
98469W        W70784  17.294  36.373  11.932
98470W        W70785  38.916   9.435  13.390
98471W        W70786   2.649   2.266  12.888
98472W        W70787  18.106  28.977  12.158
98473W        W70788  26.299  39.436  11.618
98474W        W70789  26.070  39.655  10.762
98475W        W70790   5.789  23.408   0.770
98476W        W70791  20.092  43.857  10.673
98477W        W70792  24.065  34.088   0.948
98478W        W70793   0.851  35.235   1.529
98479W        W70794  11.970   4.130   4.226
98480W        W70795  15.263  10.649   2.314
98481W        W70796  33.972  32.462  14.069
98482W        W70797   3.900  31.882   3.655
98483W        W70798  19.035  30.076   5.051
98484W        W70799   3.544  32.371  14.471
98485W        W70800  43.788   4.360  10.769
98486W        W70801  42.303  32.446   1.712
98487W        W70802  14.024  40.548  13.788
98488W        W70803  42.881   5.885   0.215
98489W        W70804  20.749  10.759  13.576
98490W        W70805  27.712  39.931   4.297
98491W        W70806  24.028  41.613  10.308
98492W        W70807   9.701  30.431   3.484
98493W        W70808  12.175  23.963  13.398
98494W        W70809   4.474  38.629  12.376
98495W        W70810  18.132  30.857  11.097
98496W        W70811  44.214  22.017   2.351
98497W        W70812  10.226  34.550  12.700
98498W        W70813  13.250  14.815  12.520
98499W        W70814  36.913  14.931  14.395
98500W        W70815  29.868   5.751  11.715
98501W        W70816  37.824  44.449  13.035
98502W        W70817   2.717  13.774  14.424
98503W        W70818  31.948  34.946   4.690
98504W        W70819  29.393   9.417  12.432
98505W        W70820  33.919  39.574   3.691
98506W        W70821  41.514  26.181  14.462
98507W        W70822  12.740   6.226  13.557
98508W        W70823  42.903  17.449   2.178
98509W        W70824  21.776  33.965   4.586
98510W        W70825  35.438  28.891  13.177
98511W        W70826  29.606   0.133  14.782
98512W        W70827  27.191  11.331   0.531
98513W        W70828  27.417  18.786  12.022
98514W        W70829   5.169  36.903  11.586
98515W        W70830   7.412   2.383   0.261
98516W        W70831  28.465  41.019  10.515
98517W        W70832   9.949  25.239  14.639
98518W        W70833  40.275   5.954   4.850
98519W        W70834  14.914  21.732  13.191
98520W        W70835   2.974  14.576   0.885
98521W        W70836   5.978  16.873   2.679
98522W        W70837  22.920  41.827   4.520
98523W        W70838  40.367  22.010   4.228
98524W        W70839  24.676  22.198  14.863
98525W        W70840  40.093  17.183  10.672
98526W        W70841  40.583  14.327   1.719
98527W        W70842  35.528  13.284   0.299
98528W        W70843  26.406   1.314   1.837
98529W        W70844  11.875  22.966  14.071
98530W        W70845   0.267   3.377   3.666
98531W        W70846  37.867  36.231   4.890
98532W        W70847  44.891  31.966  13.186
98533W        W70848  41.184  30.081   2.341
98534W        W70849  44.785  20.271  14.839
98535W        W70850  42.220  29.958   2.861
98536W        W70851  13.568  23.251   3.733
98537W        W70852  16.045  12.150  10.913
98538W        W70853  12.059   9.605  10.651
98539W        W70854   4.258  20.922  13.104
98540W        W70855  33.117   5.791  11.060
98541W        W70856  44.328  37.088  12.103
98542W        W70857  33.347  20.047   4.674
98543W        W70858  17.822  37.835   4.126
98544W        W70859  21.925  14.786  13.434
98545W        W70860  16.821   9.630  10.255
98546W        W70861   7.435   5.835  10.672
98547W        W70862  30.160   8.308  14.049
98548W        W70863  40.948  10.147  10.271
98549W        W70864  18.147  31.454   4.618
98550W        W70865  26.771  42.911   2.333
98551W        W70866  29.873   8.038  11.990
98552W        W70867  40.089  11.747  12.036
98553W        W70868  38.362  11.433  12.574
98554W        W70869  19.538  27.597  14.706
98555W        W70870  28.471  34.913  10.891
98556W        W70871  24.522  20.428   4.747
98557W        W70872  14.354   2.834   4.168
98558W        W70873  34.000   9.602  10.857
98559W        W70874  21.491  30.727   4.188
98560W        W70875  25.715  41.780  14.132
98561W        W70876  32.221   1.786   0.327
98562W        W70877  38.232   1.526  14.797
98563W        W70878  28.062  31.738   5.532
98564W        W70879   2.173  43.469   0.302
98565W        W70880  39.389   8.846  12.856
98566W        W70881  27.088  14.542   1.387
98567W        W70882  18.852  18.604   1.268
98568W        W70883  32.000  40.783  11.495
98569W        W70884  44.964  40.068  11.967
98570W        W70885  20.109  34.312  11.190
98571W        W70886  20.313  44.419  11.196
98572W        W70887  12.394  38.483  11.686
98573W        W70888  41.653  15.706  11.217
98574W        W70889  24.973  30.965  11.050
98575W        W70890   3.830   6.279   4.320
98576W        W70891   9.597  25.323  12.044
98577W        W70892  29.106  32.434   0.144
98578W        W70893   2.876  26.197  12.855
98579W        W70894  40.286  43.439  13.908
98580W        W70895   8.540   7.777  13.109
98581W        W70896  28.017  31.429  11.885
98582W        W70897  28.651   4.987   3.715
98583W        W70898  37.336  31.050   4.502
98584W        W70899  19.217   8.766   1.320
98585W        W70900  28.966  17.100   3.719
98586W        W70901  23.521   8.629   4.285
98587W        W70902  14.863  32.641  13.118
98588W        W70903  31.554   4.679   1.845
98589W        W70904  14.769  17.852  12.320
98590W        W70905   4.632  23.996   0.281
98591W        W70906  17.790  25.014  13.977
98592W        W70907  27.520  11.235  12.900
98593W        W70908  26.090  36.962   3.151
98594W        W70909  40.137   4.075   2.801
98595W        W70910   7.643   9.883  10.402
98596W        W70911  19.662   9.740   2.757
98597W        W70912  14.608  22.479  14.336
98598W        W70913  21.668  38.087   3.801
98599W        W70914  16.091  16.841  12.897
98600W        W70915  20.080  23.737   0.109
98601W        W70916  19.363  24.812  12.740
98602W        W70917  27.509  12.331   1.451
98603W        W70918  28.376  43.921   1.401
98604W        W70919   3.781   3.081  12.914
98605W        W70920  41.182   7.969  14.427
98606W        W70921   3.664  44.495   0.902
98607W        W70922   1.880  19.521   3.673
98608W        W70923  27.938  41.004  14.425
98609W        W70924  11.859  19.805  10.507
98610W        W70925   5.711  18.920  14.005
98611W        W70926  35.939  20.183   1.893
98612W        W70927  38.390  22.668  11.793
98613W        W70928  42.490   2.438   4.216
98614W        W70929  15.783   7.496   0.423
98615W        W70930  11.366  36.055  14.888
98616W        W70931  25.709  19.677   3.879
98617W        W70932   6.189  32.846  14.217
98618W        W70933   4.499  16.716   3.819
98619W        W70934   2.230   3.351   1.424
98620W        W70935  41.444  29.883  11.523
98621W        W70936  26.529  22.773   4.200
98622W        W70937  28.451  34.637   0.956
98623W        W70938  13.273   4.843   4.586
98624W        W70939  13.828  27.692   2.805
98625W        W70940  33.988  16.796   3.138
98626W        W70941  34.784  12.562  11.704
98627W        W70942   7.262  28.033  11.421
98628W        W70943   0.741   3.395   3.374
98629W        W70944  16.568  41.078   5.651
98630W        W70945  44.381  31.996   0.942
98631W        W70946  26.754  30.010  12.004
98632W        W70947  31.824  36.863  11.752
98633W        W70948  14.221  43.546  12.015
98634W        W70949  13.553  12.743   0.981
98635W        W70950  34.883  23.262   0.831
98636W        W70951  25.592  19.728   4.798
98637W        W70952  24.896   6.188   3.837
98638W        W70953  33.891  43.985   3.122
98639W        W70954   9.818   2.984  13.587
98640W        W70955  40.685  34.886   3.076
98641W        W70956  21.816   4.108  13.368
98642W        W70957   9.946  26.153   0.840
98643W        W70958  18.026  25.211  13.536
98644W        W70959  25.670  34.349  10.479
98645W        W70960  18.437   9.054  10.048
98646W        W70961  29.061   9.191   3.586
98647W        W70962   5.146  31.818  14.030
98648W        W70963  11.604  40.364   0.275
98649W        W70964  37.419  13.642  14.389
98650W        W70965   9.095   9.154  11.599
98651W        W70966   1.176  35.921   2.751
98652W        W70967  21.070  25.193  10.644
98653W        W70968  18.785  21.057  12.632
98654W        W70969  28.675  39.118  11.555
98655W        W70970  27.566  33.913   4.942
98656W        W70971  10.261  11.260   1.162
98657W        W70972   8.286  25.715   0.839
98658W        W70973  13.055   5.787   1.737
98659W        W70974  37.281   0.537   3.740
98660W        W70975   2.366  43.818   2.934
98661W        W70976  19.987   4.302  11.708
98662W        W70977  19.090  29.198   0.354
98663W        W70978  16.790  24.170  10.716
98664W        W70979  28.611  31.896  13.298
98665W        W70980   9.844  16.861  12.474
98666W        W70981  21.139  31.959  13.480
98667W        W70982  40.114  13.007  12.120
98668W        W70983   9.889  16.145  13.966
98669W        W70984  37.949  36.834   2.541
98670W        W70985  30.345  25.685   1.726
98671W        W70986   6.341  12.573   1.359
98672W        W70987  43.456   8.962   4.207
98673W        W70988  17.251  36.461   3.423
98674W        W70989  20.744  38.063  12.932
98675W        W70990   7.337  10.463   2.267
98676W        W70991  34.637   9.338   2.398
98677W        W70992   6.819  38.630   0.420
98678W        W70993  10.736  29.642  14.355
98679W        W70994   3.341  44.734  12.114
98680W        W70995  35.049  33.900   2.005
98681W        W70996  19.087  30.619  10.521
98682W        W70997   1.169  39.568   4.044
98683W        W70998  24.983  16.566   2.740
98684W        W70999  35.367  36.006   4.601
98685W        W71000  16.462  18.622  13.487
98686W        W71001   3.648  38.786   4.624
98687W        W71002   7.864   0.902  11.914
98688W        W71003   9.120  35.242  11.323
98689W        W71004   1.078   9.849  11.469
98690W        W71005  38.020   9.724   3.575
98691W        W71006  12.366  44.390   3.781
98692W        W71007  10.992   2.219   0.289
98693W        W71008  31.903  25.552  11.849
98694W        W71009  16.693  32.529  10.591
98695W        W71010  20.732  22.723   2.265
98696W        W71011   8.131  10.850   0.901
98697W        W71012  32.098  10.623   1.201
98698W        W71013  31.091   0.315   1.054
98699W        W71014  20.111  31.476  13.950
98700W        W71015   6.591   0.043  13.967
98701W        W71016  17.132  12.869  14.976
98702W        W71017   1.463  37.389   4.133
98703W        W71018  38.103  31.583  14.353
98704W        W71019  36.017  41.232   4.343
98705W        W71020  20.001  26.456  14.336
98706W        W71021  15.272  32.221   0.299
98707W        W71022  43.755  33.237  14.965
98708W        W71023  42.014  32.339   2.733
98709W        W71024  21.511   3.877  13.033
98710W        W71025  40.735  42.854   4.599
98711W        W71026  14.347  40.470   0.329
98712W        W71027  22.252  11.278  12.018
98713W        W71028   5.018   3.324   5.356
98714W        W71029  10.654  30.135  12.666
98715W        W71030   1.350  31.866   1.998
98716W        W71031  35.783  28.748  11.532
98717W        W71032  37.367  12.268  11.103
98718W        W71033  10.406  39.569   0.031
98719W        W71034  10.202  18.311   1.667
98720W        W71035   2.820  15.232   2.787
98721W        W71036   1.934  33.545  14.563
98722W        W71037  27.646   8.139  12.474
98723W        W71038  12.874  20.767  12.080
98724W        W71039  26.214  11.915   3.193
98725W        W71040  25.731  21.316   5.472
98726W        W71041  23.114  35.073  13.785
98727W        W71042   1.995  30.591   4.026
98728W        W71043  42.458  41.806   2.051
98729W        W71044   6.839  19.784   1.659
98730W        W71045   6.871  43.282   0.019
98731W        W71046   0.062   0.417   3.702
98732W        W71047  12.234  28.534   1.990
98733W        W71048  17.541  44.503  14.335
98734W        W71049  24.770  24.776  13.726
98735W        W71050  22.603  16.666  14.356
98736W        W71051  30.583  14.470  11.764
98737W        W71052  41.505  29.201  14.001
98738W        W71053  35.062  24.693   2.798
98739W        W71054   1.297  12.604   3.258
98740W        W71055  19.183   5.382  11.923
98741W        W71056  26.549  10.187   0.735
98742W        W71057  10.351  27.631  11.893
98743W        W71058  21.170   4.052   0.287
98744W        W71059  30.740  25.517  14.889
98745W        W71060   1.424  21.958   1.237
98746W        W71061  37.982  34.964  14.393
98747W        W71062  19.719   8.750   2.257
98748W        W71063  11.039  23.702   3.598
98749W        W71064  26.467  18.298   1.786
98750W        W71065  22.216  40.879   1.826
98751W        W71066  36.105  31.860   0.844
98752W        W71067  31.776   9.212  14.033
98753W        W71068  25.756  27.159  10.622
98754W        W71069  32.045  14.065  10.001
98755W        W71070   5.640   5.310   0.505
98756W        W71071  35.385  32.447  13.912
98757W        W71072  34.960  20.964  11.721
98758W        W71073  27.648  27.813  14.505
98759W        W71074  23.102  43.075  14.218
98760W        W71075  13.178  24.218  13.462
98761W        W71076  11.378  10.227   4.637
98762W        W71077  21.502   3.387   3.881
98763W        W71078   7.715  33.340   1.769
98764W        W71079  13.429  34.659  13.585
98765W        W71080  20.532   0.725  12.079
98766W        W71081  27.052  23.195   2.978
98767W        W71082   7.353  32.992   2.403
98768W        W71083  15.598  39.366  13.601
98769W        W71084   3.341  11.189  13.446
98770W        W71085   2.719  30.842  11.086
98771W        W71086   1.711  10.561   2.062
98772W        W71087   7.394  33.693  11.590
98773W        W71088  17.739   5.354   0.185
98774W        W71089  17.825  29.034   2.741
98775W        W71090  11.720  10.672   3.576
98776W        W71091  34.163   1.243  12.464
98777W        W71092  16.352  31.528   4.526
98778W        W71093  22.079  22.266  10.220
98779W        W71094   9.318  44.920  11.079
98780W        W71095   8.896  31.393  11.613
98781W        W71096  33.814  22.387  10.963
98782W        W71097  14.907   4.227   4.131
98783W        W71098  26.019  43.116  14.090
98784W        W71099   3.884  15.139  11.445
98785W        W71100  24.329   6.950  14.172
98786W        W71101   3.710  34.397   4.059
98787W        W71102  24.503   6.929   3.246
98788W        W71103  44.279   3.198   0.467
98789W        W71104  42.316  26.107   4.494
98790W        W71105  20.164   1.971  14.881
98791W        W71106  39.013  16.162  11.380
98792W        W71107  22.543  29.873  10.731
98793W        W71108  30.614  14.356   0.326
98794W        W71109   0.318   6.655   0.078
98795W        W71110  28.095   4.661  14.484
98796W        W71111  14.388  17.730   1.882
98797W        W71112   5.376   3.457   4.125
98798W        W71113   1.862   7.643  10.741
98799W        W71114  31.611   9.356  10.484
98800W        W71115   0.409   5.348  11.277
98801W        W71116  21.761   6.227  12.407
98802W        W71117  26.203   6.635  14.286
98803W        W71118   5.623  40.198   4.656
98804W        W71119  28.202   8.671   1.752
98805W        W71120  14.874  15.960   5.001
98806W        W71121  32.022   8.024   2.386
98807W        W71122  44.772   0.633   4.565
98808W        W71123  38.823   4.040  11.397
98809W        W71124  43.248  32.827   4.552
98810W        W71125   5.684  36.085  14.017
98811W        W71126  31.600  25.978   3.339
98812W        W71127   1.895  30.733  12.943
98813W        W71128  11.897  40.050   1.748
98814W        W71129  32.844  43.691   2.071
98815W        W71130  24.049  22.652  13.835
98816W        W71131  30.266   3.928   0.846
98817W        W71132   9.173  12.174   4.637
98818W        W71133  10.880   1.697   1.643
98819W        W71134   4.679  24.612   4.114
98820W        W71135   9.815  22.058  10.672
98821W        W71136   4.789  38.672  11.570
98822W        W71137  16.266   8.287   4.122
98823W        W71138  37.302   1.861  14.625
98824W        W71139  44.913  35.038   3.337
98825W        W71140  23.687  25.430   2.309
98826W        W71141  34.298   4.464  13.308
98827W        W71142  31.565  13.839   2.860
98828W        W71143  32.120   1.014   0.789
98829W        W71144  11.541  30.424  10.596
98830W        W71145   8.148  36.397  12.864
98831W        W71146  42.331  23.394  14.227
98832W        W71147  26.444  28.087  13.948
98833W        W71148   3.952  23.803   1.289
98834W        W71149  10.208  18.832   9.809
98835W        W71150  22.506  24.601   0.327
98836W        W71151  14.077  31.101  11.140
98837W        W71152  23.050  19.739   9.794
98838W        W71153  42.971   2.415  11.755
98839W        W71154  15.260  41.275   2.872
98840W        W71155  21.509   9.278  14.337
98841W        W71156   3.912  34.137   2.691
98842W        W71157  12.161  31.447  11.168
98843W        W71158  19.667  44.715   5.165
98844W        W71159  19.154  27.349   2.389
98845W        W71160  27.212  39.931  12.021
98846W        W71161   1.858  37.838   2.672
98847W        W71162  14.583  35.481  11.486
98848W        W71163  44.845   2.889   0.995
98849W        W71164   2.689  21.063  12.613
98850W        W71165  43.114  26.908   0.468
98851W        W71166  26.159  25.054   3.634
98852W        W71167   0.509  30.380   1.657
98853W        W71168   5.381  22.629   4.165
98854W        W71169  15.753  27.111   1.865
98855W        W71170  39.480  21.040   0.921
98856W        W71171  25.755  26.362   1.962
98857W        W71172  36.086   0.600  13.984
98858W        W71173  40.935   2.302   0.197
98859W        W71174  15.612  41.386  10.779
98860W        W71175  27.427  26.886  12.774
98861W        W71176  32.898  15.669  11.959
98862W        W71177  34.442  28.454   1.893
98863W        W71178  23.435   9.606   3.815
98864W        W71179  13.623  39.957  12.371
98865W        W71180  39.275  38.533  11.556
98866W        W71181  38.623  38.018   0.932
98867W        W71182  17.575  38.097  10.278
98868W        W71183  21.436  29.833   0.346
98869W        W71184  22.149  34.582  10.356
98870W        W71185  18.954  36.893   1.716
98871W        W71186   0.298  34.506   1.848
98872W        W71187  37.842   6.579  12.304
98873W        W71188  24.165  14.460   2.668
98874W        W71189  38.019  37.097   3.951
98875W        W71190  31.320  20.722   2.906
98876W        W71191  18.263  44.389  11.003
98877W        W71192   7.276  38.370  14.504
98878W        W71193  39.597  16.600   0.054
98879W        W71194  18.976  40.644   4.646
98880W        W71195  30.030  38.797   3.152
98881W        W71196  30.658  40.406  12.897
98882W        W71197  14.617   7.147  13.265
98883W        W71198  34.661  39.071   0.260
98884W        W71199  38.184   1.665   2.822
98885W        W71200  30.454   3.642   3.323
98886W        W71201  42.510  14.950   0.904
98887W        W71202  34.141  25.237   1.500
98888W        W71203  43.383  41.882  14.486
98889W        W71204   9.650  18.234  13.414
98890W        W71205  23.743   2.983   2.869
98891W        W71206  31.624  21.684  10.628
98892W        W71207  13.001  14.363   4.619
98893W        W71208  27.540  15.286  11.234
98894W        W71209  39.380  19.715   4.078
98895W        W71210  22.163  17.618   1.359
98896W        W71211  20.815  43.863   4.267
98897W        W71212  20.291  33.044   1.330
98898W        W71213  26.941  30.608  12.453
98899W        W71214  39.119  15.422   0.238
98900W        W71215  27.486  12.908   0.818
98901W        W71216  22.096  42.182  13.147
98902W        W71217   0.909  27.107   4.034
98903W        W71218  36.867   2.421   3.774
98904W        W71219  32.545  33.420   0.851
98905W        W71220  36.779  33.866   2.460
98906W        W71221  34.669  20.246  13.577
98907W        W71222   9.477   9.175  11.950
98908W        W71223  43.403  24.982   2.277
98909W        W71224  16.589  12.316   2.672
98910W        W71225  19.438  20.094  10.487
98911W        W71226  12.443  36.601   1.627
98912W        W71227  10.229  29.411  11.201
98913W        W71228  44.596  36.785  11.433
98914W        W71229   9.370  33.196  13.806
98915W        W71230  26.604  23.619  12.100
98916W        W71231   3.702  36.699  11.083
98917W        W71232   6.605   4.887  13.876
98918W        W71233  37.814  12.896  12.298
98919W        W71234  24.253  32.000  14.355
98920W        W71235  43.495  19.995  12.504
98921W        W71236  36.912  41.613   0.615
98922W        W71237  41.906  38.431   1.867
98923W        W71238  22.025  20.356   4.836
98924W        W71239  30.287  29.214   4.533
98925W        W71240  25.174  13.966  12.456
98926W        W71241   7.891  27.486   1.617
98927W        W71242   8.351  10.131   1.346
98928W        W71243   9.847  22.763  12.329
98929W        W71244   4.388  22.164  14.359
98930W        W71245  21.850  33.759  12.065
98931W        W71246  10.876  31.450   0.510
98932W        W71247  35.492  23.052  10.636
98933W        W71248  12.193  22.036  13.501
98934W        W71249  33.631  27.062   1.741
98935W        W71250  26.775  18.186   2.768
98936W        W71251   1.696  24.570  10.692
98937W        W71252  26.496  17.077   5.044
98938W        W71253  36.596  33.603   4.135
98939W        W71254  38.862  13.209   1.854
98940W        W71255  17.537  35.056  12.555
98941W        W71256  33.469  33.748  14.005
98942W        W71257   1.338  21.330  12.018
98943W        W71258  11.568  27.962   4.620
98944W        W71259   7.495  35.211  10.938
98945W        W71260  25.208  41.939  12.331
98946W        W71261   6.833  12.595  14.864
98947W        W71262  20.709  34.510  12.800
98948W        W71263  24.241  22.695  12.805
98949W        W71264  20.741  24.459  12.685
98950W        W71265  12.680   2.029   4.572
98951W        W71266  21.433   7.283  13.533
98952W        W71267  33.542  26.474  10.397
98953W        W71268  20.316  24.667   2.341
98954W        W71269  17.623   3.858   4.216
98955W        W71270  12.246   7.283  11.682
98956W        W71271  22.650   9.947  12.985
98957W        W71272  10.983  20.053  13.921
98958W        W71273   3.811  36.441   4.838
98959W        W71274  34.695  19.685  13.936
98960W        W71275  17.235  36.057   0.771
98961W        W71276  30.904  28.118   3.667
98962W        W71277  26.329   0.011  12.536
98963W        W71278  20.696  27.500  10.402
98964W        W71279  40.091   4.368   4.006
98965W        W71280  11.629  22.487  12.942
98966W        W71281  11.780  41.749   3.909
98967W        W71282   4.082  37.925   1.762
98968W        W71283  10.519   3.378   4.980
98969W        W71284   9.690  27.786  12.941
98970W        W71285  17.833  24.977  11.027
98971W        W71286  28.404  17.632  13.770
98972W        W71287   0.683  41.286  13.126
98973W        W71288   8.317  31.908   2.892
98974W        W71289  24.559  16.731  10.733
98975W        W71290  15.320  39.922   0.473
98976W        W71291  22.521  44.763  14.767
98977W        W71292  37.354  14.677  10.490
98978W        W71293   8.034  44.447   4.721
98979W        W71294   3.138  34.825  13.600
98980W        W71295  25.530  29.583   3.547
98981W        W71296  39.015  11.846  11.311
98982W        W71297  14.398  26.111  12.973
98983W        W71298  17.205  10.586   4.158
98984W        W71299  35.406  27.066  13.664
98985W        W71300  43.814   2.036  14.488
98986W        W71301  42.977  36.860   3.655
98987W        W71302  10.091  37.105   1.438
98988W        W71303   4.673  14.800  11.664
98989W        W71304  21.099  24.465   0.754
98990W        W71305  38.400  41.961  10.923
98991W        W71306  16.299  28.852   3.256
98992W        W71307  26.641   1.936   4.970
98993W        W71308  31.139  26.054   1.044
98994W        W71309  23.967  44.886   3.764
98995W        W71310  17.210  21.673  11.567
98996W        W71311  28.432   2.779   2.783
98997W        W71312  15.978  21.363  11.552
98998W        W71313  13.676   9.322   0.117
98999W        W71314  18.474   7.225  11.310
99000W        W71315   5.246   3.904   3.319
99001W        W71316   4.616  10.598  13.156
99002W        W71317  19.739   2.288  11.526
99003W        W71318  42.558  30.172  10.728
99004W        W71319  16.113  17.188   1.044
99005W        W71320  15.085  37.465  14.541
99006W        W71321  23.620  15.129   1.726
99007W        W71322  19.054  42.496   4.165
99008W        W71323  23.944  26.883  13.435
99009W        W71324  12.031  16.808  13.956
99010W        W71325  36.873  37.564   2.222
99011W        W71326  20.858  12.340   0.793
99012W        W71327  28.895  30.725   3.300
99013W        W71328   5.717  10.324   4.273
99014W        W71329  35.927   2.244  14.939
99015W        W71330  12.125  38.824  13.077
99016W        W71331   7.241  17.915   1.507
99017W        W71332  28.414  34.719   1.602
99018W        W71333  38.636   7.173   3.988
99019W        W71334  11.608  22.605   3.075
99020W        W71335  28.871  18.163  14.884
99021W        W71336  18.838  43.305   2.397
99022W        W71337  41.314  22.760  11.584
99023W        W71338  22.094  22.023   1.280
99024W        W71339  44.373  11.227  12.397
99025W        W71340  21.644  34.786   0.030
99026W        W71341  11.255  43.468  14.412
99027W        W71342  31.945  25.437  12.963
99028W        W71343  42.060  19.288   2.403
99029W        W71344   2.329  18.582  12.528
99030W        W71345  13.697   5.671  11.548
99031W        W71346   1.479   1.288   1.777
99032W        W71347  38.851  22.983   5.702
99033W        W71348  35.755   8.280  11.688
99034W        W71349  17.185  14.167  11.118
99035W        W71350  28.782  36.776  12.926
99036W        W71351  29.684  39.295  12.923
99037W        W71352  21.416  12.823  14.309
99038W        W71353  16.260  34.266  13.916
99039W        W71354  10.885   9.784  14.423
99040W        W71355  39.785  14.984   1.323
99041W        W71356  29.003  10.768  12.664
99042W        W71357  33.493  37.271  14.171
99043W        W71358  40.229  26.237  13.144
99044W        W71359  36.971  29.773   2.777
99045W        W71360   5.829  30.317  13.547
99046W        W71361  23.025  24.216  12.506
99047W        W71362  35.816  10.889   0.807
99048W        W71363  22.983   9.716   0.747
99049W        W71364  21.546   8.956  12.945
99050W        W71365   2.170  40.905   0.356
99051W        W71366  42.968  15.767  10.673
99052W        W71367  18.438  31.206  13.973
99053W        W71368   5.958  22.969   3.163
99054W        W71369  34.199  22.128   3.869
99055W        W71370  35.039  27.821   3.692
99056W        W71371  18.542  35.009  11.436
99057W        W71372  32.214  33.857  12.441
99058W        W71373  26.601  41.402  11.433
99059W        W71374   6.613  20.652   4.900
99060W        W71375  20.929   7.200  13.634
99061W        W71376  36.000   5.259  11.903
99062W        W71377  14.510   7.986  12.942
99063W        W71378  28.655  26.890  14.885
99064W        W71379   5.721  39.340   3.573
99065W        W71380  14.728  24.318   3.260
99066W        W71381   3.112  32.878  11.431
99067W        W71382  16.963  30.982   4.885
99068W        W71383  23.154  30.866   3.331
99069W        W71384   4.769  15.148   3.639
99070W        W71385  40.526   6.027  12.013
99071W        W71386  41.027  44.906   3.986
99072W        W71387  19.091  19.103   1.283
99073W        W71388  29.193  12.133  13.980
99074W        W71389   4.823  34.050   2.430
99075W        W71390  20.453   8.255   4.946
99076W        W71391  16.158  26.498   1.436
99077W        W71392  13.095  38.030  11.524
99078W        W71393  24.802  29.831   3.227
99079W        W71394   9.472   4.809   3.278
99080W        W71395  38.289  11.946  14.971
99081W        W71396  13.208  39.956  14.301
99082W        W71397   9.290  34.833  12.854
99083W        W71398  37.589  13.525  10.988
99084W        W71399   3.036  34.955   3.597
99085W        W71400  29.998   2.382   4.934
99086W        W71401  43.956  19.958   1.658
99087W        W71402  17.926  30.994   0.674
99088W        W71403   3.357   7.343  11.299
99089W        W71404  37.960  22.984   0.962
99090W        W71405  20.096  38.617   4.554
99091W        W71406  36.626   7.946   4.092
99092W        W71407  41.533  24.995  14.009
99093W        W71408   2.540  39.459   2.252
99094W        W71409  35.448  17.653   4.714
99095W        W71410   0.459  33.899   4.578
99096W        W71411  25.050   6.433  10.658
99097W        W71412  10.228  40.115  11.855
99098W        W71413   9.258  24.103   3.354
99099W        W71414   5.837  26.240   4.631
99100W        W71415  31.135  26.591  14.404
99101W        W71416  11.876  36.985   0.823
99102W        W71417  34.399   8.324  11.195
99103W        W71418  31.396  38.774   2.358
99104W        W71419  13.248  39.977  13.308
99105W        W71420  43.042   6.051  11.262
99106W        W71421  25.247  22.756  12.086
99107W        W71422   2.480  20.637   3.779
99108W        W71423  42.871  10.547  11.969
99109W        W71424  40.440  25.829   5.510
99110W        W71425  43.555  44.421   0.339
99111W        W71426  21.777   8.937  11.529
99112W        W71427   4.887  10.723  12.054
99113W        W71428  15.328  28.073  10.691
99114W        W71429   2.028  18.785   2.824
99115W        W71430  17.136  43.467  14.730
99116W        W71431  28.658   5.810  13.347
99117W        W71432  37.385   7.936  12.459
99118W        W71433  27.943  28.668  12.063
99119W        W71434  37.523  25.708   4.169
99120W        W71435   8.739  11.439  12.058
99121W        W71436   1.507   1.073   2.782
99122W        W71437  40.017  20.207  12.573
99123W        W71438   0.900  14.615  10.946
99124W        W71439   6.228  16.610  14.284
99125W        W71440  27.193   4.871  11.007
99126W        W71441  22.084  22.235  12.344
99127W        W71442   2.890  35.027  11.198
99128W        W71443   9.305  15.086   4.826
99129W        W71444  38.364  23.669   2.748
99130W        W71445  29.932  34.178  12.920
99131W        W71446  39.109  15.089  12.383
99132W        W71447   5.487  12.773   3.760
99133W        W71448  17.214  18.405   3.675
99134W        W71449  29.362  17.311  12.979
99135W        W71450  38.793  44.089   4.117
99136W        W71451  26.579  32.593  14.930
99137W        W71452   8.151  14.183   0.380
99138W        W71453   7.471  41.585   0.843
99139W        W71454  43.166   7.476   9.847
99140W        W71455  33.505   2.018  14.907
99141W        W71456  26.064  12.765   0.198
99142W        W71457  33.186  31.923  12.122
99143W        W71458  17.715  22.900   3.042
99144W        W71459  44.967   2.915   3.823
99145W        W71460  10.948  40.338   4.246
99146W        W71461  18.461  39.431  12.318
99147W        W71462  40.672  11.157   1.131
99148W        W71463  40.764   5.251  11.419
99149W        W71464   5.980  30.485  11.702
99150W        W71465  31.962  11.950   1.794
99151W        W71466  26.681  20.299   2.887
99152W        W71467  16.006   8.145  11.612
99153W        W71468  37.601  14.100   5.312
99154W        W71469  18.530  24.740   1.868
99155W        W71470  15.374  21.122   0.961
99156W        W71471  23.252  43.828  13.330
99157W        W71472  30.988  10.353  14.880
99158W        W71473  23.503   8.470   1.816
99159W        W71474  34.537  34.338  13.554
99160W        W71475  36.999  39.443  12.007
99161W        W71476  31.380  44.560   3.651
99162W        W71477  40.425   9.685  10.727
99163W        W71478  41.772  40.883  14.377
99164W        W71479  18.337  38.039  11.959
99165W        W71480  11.780  13.304   0.445
99166W        W71481   7.759  31.602  11.103
99167W        W71482  14.017  21.514  11.127
99168W        W71483  32.856  34.209  11.517
99169W        W71484  44.416  30.916   0.737
99170W        W71485  13.034  37.562   3.291
99171W        W71486   7.454   6.517  11.181
99172W        W71487   2.383  37.653  12.483
99173W        W71488  22.161  19.098   0.070
99174W        W71489   4.811  16.251   0.301
99175W        W71490  13.835   7.383   2.242
99176W        W71491   5.173   0.541  13.905
99177W        W71492  42.873  21.785   3.114
99178W        W71493   1.046  15.622   3.161
99179W        W71494  33.013  30.482  11.149
99180W        W71495  22.717  19.935  12.478
99181W        W71496  18.069  11.184   0.361
99182W        W71497  30.015  42.339   0.508
99183W        W71498  17.701  42.889   0.385
99184W        W71499   9.037  15.181  12.467
99185W        W71500  38.593  18.719   3.915
99186W        W71501  31.638  31.522   4.902
99187W        W71502  32.028  38.009   4.903
99188W        W71503  38.074   5.204  13.786
99189W        W71504   1.917   1.683   3.718
99190W        W71505   1.925  36.495  13.842
99191W        W71506  19.725   9.434  13.789
99192W        W71507   2.511  19.255   3.527
99193W        W71508  26.683  26.961  10.494
99194W        W71509  41.573  23.817  10.651
99195W        W71510  20.812   4.279   1.621
99196W        W71511  24.305  24.367  11.989
99197W        W71512  41.799  11.013   0.404
99198W        W71513  40.266   3.688   0.591
99199W        W71514   1.009  22.738  12.430
99200W        W71515  38.876  28.050  11.999
99201W        W71516  11.250  24.248   4.629
99202W        W71517   0.472  44.755  10.743
99203W        W71518  20.237  17.290   1.825
99204W        W71519  17.656   0.929  13.100
99205W        W71520  44.758  14.508   0.998
99206W        W71521  13.951  16.195  13.068
99207W        W71522   1.878  22.206   3.950
99208W        W71523   9.176  27.755  12.533
99209W        W71524   8.717  13.357   3.719
99210W        W71525  32.317  27.037   0.007
99211W        W71526  37.938  13.391  12.993
99212W        W71527  39.823   8.603  13.476
99213W        W71528  38.853  28.587   4.286
99214W        W71529  15.568   6.275   1.648
99215W        W71530  19.114  36.805   2.253
99216W        W71531  32.970   4.461   1.938
99217W        W71532  40.836  43.305   3.066
99218W        W71533  11.666  39.987   4.596
99219W        W71534  20.783   4.333  12.088
99220W        W71535   2.233  38.767  11.616
99221W        W71536   8.068   4.383   0.122
99222W        W71537  13.302  34.077   1.840
99223W        W71538   1.255  23.275  10.621
99224W        W71539  32.881   3.210   3.786
99225W        W71540   2.443  19.907  13.953
99226W        W71541  22.212   4.766  12.499
99227W        W71542   8.398  20.468   0.304
99228W        W71543  39.234   0.782   2.275
99229W        W71544  31.847  32.354  12.998
99230W        W71545  39.568  11.824   0.431
99231W        W71546  37.085  44.078   1.764
99232W        W71547  41.615   6.369   1.386
99233W        W71548   1.422   1.547   3.117
99234W        W71549  35.035  39.980  10.648
99235W        W71550  41.183  37.112  12.786
99236W        W71551  32.278  15.591   2.844
99237W        W71552  37.883  15.631  11.386
99238W        W71553   8.897  28.033   0.535
99239W        W71554  17.469  20.205   3.186
99240W        W71555  34.471  34.097   4.101
99241W        W71556  40.550  21.599  13.461
99242W        W71557  38.981  25.689  14.166
99243W        W71558  25.675  25.047  11.995
99244W        W71559  14.847   7.746  13.789
99245W        W71560   7.108  34.424  14.275
99246W        W71561  23.256  39.786   0.652
99247W        W71562   0.418  11.846   0.796
99248W        W71563  12.142  13.365   2.182
99249W        W71564   9.698  36.979  14.008
99250W        W71565  38.399  43.567   4.050
99251W        W71566   9.006  19.634  11.597
99252W        W71567  28.590  10.424  13.501
99253W        W71568  10.241  42.464   2.628
99254W        W71569   4.244  30.900  12.901
99255W        W71570  42.776  38.410   2.258
99256W        W71571  39.868  14.028  12.760
99257W        W71572  32.574  38.845  12.995
99258W        W71573  34.313  36.195   3.662
99259W        W71574   9.126  28.543  14.274
99260W        W71575  16.047  25.055  12.436
99261W        W71576  30.698  34.469   4.654
99262W        W71577  12.649   7.372  12.941
99263W        W71578  38.355  39.961   0.720
99264W        W71579  29.653  25.037   2.398
99265W        W71580  32.609  10.905   1.485
99266W        W71581  17.857  16.228   0.917
99267W        W71582  20.296  10.635  13.791
99268W        W71583  24.309  22.607  10.555
99269W        W71584  22.731  33.676   0.849
99270W        W71585  10.286  19.142   4.554
99271W        W71586  24.973  42.234   1.270
99272W        W71587  31.420  41.454   0.381
99273W        W71588  26.960  36.348   0.738
99274W        W71589  32.820  20.126  12.165
99275W        W71590  21.467  16.667   0.343
99276W        W71591  42.008  28.725   1.672
99277W        W71592  34.379   8.941  14.117
99278W        W71593  29.544  37.479  13.116
99279W        W71594  20.668  24.239   2.373
99280W        W71595   0.226  40.543   4.616
99281W        W71596  27.459  38.334   0.471
99282W        W71597   1.985  39.940   1.464
99283W        W71598  36.319  40.419   0.336
99284W        W71599  30.655  43.475   4.220
99285W        W71600  40.026  36.346  10.687
99286W        W71601  30.600  21.853  12.632
99287W        W71602   2.920  43.400  10.725
99288W        W71603   1.302   2.327   0.867
99289W        W71604  37.008  15.210   0.969
99290W        W71605  39.940  29.103   4.687
99291W        W71606  35.889  23.785  11.595
99292W        W71607  15.272   5.301  14.829
99293W        W71608  37.507  29.042   3.763
99294W        W71609  21.232   1.021  12.888
99295W        W71610  10.646  12.109  13.431
99296W        W71611   8.675  35.850  13.886
99297W        W71612  29.604  22.010  11.127
99298W        W71613   9.301  35.754  13.160
99299W        W71614   3.267  28.551  13.484
99300W        W71615  24.932   7.602   1.209
99301W        W71616  28.785  11.224  11.105
99302W        W71617  28.028  18.514   3.374
99303W        W71618  12.330  16.344  14.860
99304W        W71619  17.857  25.437   1.305
99305W        W71620  20.316  23.108   3.257
99306W        W71621  25.921  23.637   1.065
99307W        W71622  31.668  35.732  13.914
99308W        W71623  25.448  17.610   2.227
99309W        W71624  21.220  22.164  12.639
99310W        W71625  29.945  26.237   2.378
99311W        W71626  34.472   1.420   4.444
99312W        W71627  41.957   0.864  13.297
99313W        W71628   3.289  35.066  10.854
99314W        W71629  31.173   7.797   3.230
99315W        W71630  13.700   1.548   0.835
99316W        W71631  38.744  14.695   3.394
99317W        W71632  26.129  34.120   1.698
99318W        W71633  17.841  15.120   2.126
99319W        W71634  13.558  31.103  11.209
99320W        W71635  33.602  39.904  11.733
99321W        W71636  32.775   3.906  13.438
99322W        W71637  44.771  10.356  11.710
99323W        W71638   6.736  17.237   1.264
99324W        W71639   9.755  44.043   4.810
99325W        W71640  24.191  32.591  12.100
99326W        W71641  21.108  31.960  11.628
99327W        W71642  44.892  13.374   3.330
99328W        W71643   1.408  21.335   1.871
99329W        W71644  27.839  33.399  11.050
99330W        W71645   5.867  34.462  13.432
99331W        W71646  38.555   0.046   3.646
99332W        W71647  12.172  19.175  13.860
99333W        W71648  12.282  22.613   1.910
99334W        W71649  31.382  42.687   3.296
99335W        W71650  10.936   6.482   4.628
99336W        W71651  23.505  33.038  12.951
99337W        W71652  25.934  42.504  11.561
99338W        W71653  19.551   1.797   3.786
99339W        W71654   2.367  25.044  13.839
99340W        W71655  33.771  17.685   1.737
99341W        W71656  26.428  22.488  12.372
99342W        W71657  44.811   8.819   4.556
99343W        W71658  23.788  26.998   0.860
99344W        W71659  37.558   0.861   0.572
99345W        W71660  18.095  31.351   3.879
99346W        W71661  15.535  25.654   3.733
99347W        W71662  32.949  42.316   2.949
99348W        W71663  36.917  26.164   1.883
99349W        W71664  17.086  30.308  11.428
99350W        W71665  24.083  38.319   0.167
99351W        W71666   0.705  18.343  14.349
99352W        W71667  28.544  37.647  13.334
99353W        W71668  42.461  10.603   0.586
99354W        W71669  13.724  22.584   1.406
99355W        W71670   7.834  33.359  10.154
99356W        W71671   9.601   3.903   0.860
99357W        W71672  42.771  32.779   1.351
99358W        W71673  23.790  38.093  11.154
99359W        W71674  21.160   7.728   1.391
99360W        W71675   3.936  11.273   2.261
99361W        W71676  42.543   6.891  13.283
99362W        W71677  15.564  41.901  14.788
99363W        W71678  24.750  26.996   4.077
99364W        W71679  35.438  12.356  12.983
99365W        W71680  24.630  18.536  11.672
99366W        W71681   7.274  33.404   3.366
99367W        W71682  10.188  16.986   2.425
99368W        W71683   5.149  23.263  12.087
99369W        W71684   7.586  28.631   4.032
99370W        W71685   3.334  28.073  12.336
99371W        W71686  43.509  16.619  10.439
99372W        W71687   0.987  34.208  10.353
99373W        W71688  31.864  33.528  10.972
99374W        W71689  13.129  39.916   1.343
99375W        W71690  40.524  13.297   5.075
99376W        W71691   4.920  36.846  13.475
99377W        W71692   4.347   8.631  11.989
99378W        W71693  34.507  15.814  11.432
99379W        W71694  43.267  40.763   2.804
99380W        W71695  26.397  39.346   5.066
99381W        W71696  38.912   5.006   3.581
99382W        W71697  18.120   8.072   1.653
99383W        W71698   2.700  14.841  10.782
99384W        W71699  24.482  43.997   2.499
99385W        W71700  13.922  44.390  12.068
99386W        W71701  26.825  38.552   1.577
99387W        W71702  30.627  41.285  10.611
99388W        W71703   1.084   7.311  14.920
99389W        W71704  29.542  21.288  13.439
99390W        W71705  10.483  13.076   5.286
99391W        W71706  14.293  29.011  12.963
99392W        W71707  19.817  25.439  11.947
99393W        W71708  43.332  35.520   3.162
99394W        W71709  23.752  14.224  12.519
99395W        W71710   1.737  36.725   0.326
99396W        W71711  32.521  35.135   4.202
99397W        W71712  16.821  25.529   0.188
99398W        W71713  40.072  19.093  10.682
99399W        W71714   1.532  10.323   5.381
99400W        W71715  14.290   7.257   4.650
99401W        W71716  32.628  40.493  13.061
99402W        W71717  38.462  38.890   2.686
99403W        W71718  20.213  41.715   5.084
99404W        W71719  22.205   0.817   4.652
99405W        W71720  20.406  34.650   0.292
99406W        W71721  23.030  30.882   2.749
99407W        W71722   8.765   4.857  14.870
99408W        W71723  33.519  33.611   0.934
99409W        W71724  15.209  25.195  13.056
99410W        W71725  21.059  29.942   4.148
99411W        W71726   6.690  26.467  13.966
99412W        W71727  16.165  13.425   2.877
99413W        W71728  19.622  35.589   3.098
99414W        W71729  38.638  22.250  14.307
99415W        W71730  32.762  31.529  13.949
99416W        W71731   3.319  12.564  14.028
99417W        W71732  27.019  31.233  11.065
99418W        W71733   5.773  39.077  10.451
99419W        W71734  30.666   4.342   2.840
99420W        W71735  19.582  32.083  12.522
99421W        W71736   5.252  29.620  14.038
99422W        W71737  25.183  12.983   1.146
99423W        W71738  15.824  17.172  13.531
99424W        W71739  37.609  38.558   0.745
99425W        W71740  29.372  39.103   1.404
99426W        W71741  24.229  35.021  13.754
99427W        W71742  14.177  15.504  13.864
99428W        W71743   1.180  42.194  11.173
99429W        W71744  32.047  39.826  13.108
99430W        W71745  41.016  34.129   1.014
99431W        W71746  20.166   5.800  14.278
99432W        W71747   3.293  43.337  12.629
99433W        W71748  10.828   5.284  11.985
99434W        W71749  30.579  30.688  12.439
99435W        W71750  44.829  27.977   2.564
99436W        W71751  39.014   6.771  13.274
99437W        W71752  28.133   8.631   1.221
99438W        W71753   6.843  36.896  11.675
99439W        W71754  10.310  25.501  11.488
99440W        W71755  25.031  24.936   3.737
99441W        W71756  35.407  29.383  13.014
99442W        W71757  20.052  17.831  14.460
99443W        W71758  13.285  25.063  14.908
99444W        W71759   2.967  37.964   4.784
99445W        W71760   9.177  14.450   2.432
99446W        W71761  12.093  35.371  13.312
99447W        W71762  33.384  13.681   1.689
99448W        W71763  17.222  33.356  13.118
99449W        W71764  12.173  19.950   1.776
99450W        W71765  25.870  38.515  11.477
99451W        W71766  19.111  36.837  10.565
99452W        W71767  40.763  11.720  14.875
99453W        W71768  39.884   6.686  14.227
99454W        W71769   7.938  11.215  10.737
99455W        W71770  22.572   5.163  13.857
99456W        W71771  15.867  39.837   3.634
99457W        W71772  35.113  11.030   1.878
99458W        W71773  27.465  23.730   0.378
99459W        W71774   4.802  13.371  11.681
99460W        W71775  41.878   1.212  12.507
99461W        W71776  17.110  25.165  11.241
99462W        W71777  34.586  16.295  14.390
99463W        W71778  41.238   8.691  11.994
99464W        W71779  39.749   9.833   1.780
99465W        W71780  23.639  43.301   1.417
99466W        W71781  44.473   6.507  13.499
99467W        W71782   2.793   0.749   4.341
99468W        W71783  41.255   0.431   3.183
99469W        W71784  10.318  26.475   0.082
99470W        W71785   3.246  29.998  14.708
99471W        W71786  24.702  31.214   1.317
99472W        W71787   8.675  22.296   2.509
99473W        W71788  20.104  11.481  13.713
99474W        W71789  16.312  42.269  11.565
99475W        W71790   1.212  44.207   1.018
99476W        W71791  23.036  26.568   3.110
99477W        W71792  29.414  31.737  11.729
99478W        W71793  22.509  21.053  13.963
99479W        W71794  41.928  25.229  11.294
99480W        W71795  11.271   8.894  10.660
99481W        W71796  37.755  12.932   3.366
99482W        W71797  38.160  18.672   4.781
99483W        W71798  28.788   4.886   1.353
99484W        W71799   8.780  35.555  13.146
99485W        W71800  44.867   4.439  12.060
99486W        W71801  13.215  42.299   0.975
99487W        W71802   7.738  33.471   0.303
99488W        W71803  15.360  37.538  13.436
99489W        W71804  27.946   9.779  13.419
99490W        W71805   6.998  30.878  13.656
99491W        W71806  31.566  38.121   1.957
99492W        W71807  10.813   6.835   1.649
99493W        W71808  20.166  16.920  14.762
99494W        W71809  42.979   5.447  13.041
99495W        W71810  35.383  23.996  11.012
99496W        W71811  15.632  22.690   3.233
99497W        W71812  43.337  25.072  11.564
99498W        W71813  18.281  22.712  14.690
99499W        W71814  26.681  31.595  11.979
99500W        W71815   6.117   2.559   0.687
99501W        W71816   9.777  22.239   1.674
99502W        W71817  15.612  16.248   4.241
99503W        W71818  44.916   0.478  12.654
99504W        W71819  42.684  21.348  13.104
99505W        W71820  19.965  42.428   4.329
99506W        W71821  26.502  12.844   2.362
99507W        W71822   4.627   1.267   2.379
99508W        W71823  12.232  13.347  11.622
99509W        W71824  26.127  31.760   4.782
99510W        W71825  29.475  19.944  11.273
99511W        W71826   9.777  33.526   2.274
99512W        W71827   8.431   1.874   2.260
99513W        W71828  43.752  40.762  13.496
99514W        W71829  24.963  18.393   4.890
99515W        W71830  11.606   4.336   3.048
99516W        W71831  19.192  27.747  11.973
99517W        W71832  18.293  14.204   4.192
99518W        W71833  17.255   0.296  11.028
99519W        W71834  11.313  34.692   3.164
99520W        W71835  17.713  19.788   4.100
99521W        W71836  43.843   3.224   0.763
99522W        W71837   8.696  26.608  12.958
99523W        W71838  41.248  18.192  12.126
99524W        W71839  42.306  21.141   4.727
99525W        W71840  33.602  10.772  12.367
99526W        W71841  30.404  28.249   3.690
99527W        W71842  33.597  28.546  14.252
99528W        W71843  41.985  11.637   3.524
99529W        W71844   8.903   6.953  12.199
99530W        W71845  38.684   7.278   1.965
99531W        W71846  28.707   9.699  12.967
99532W        W71847  39.497  17.138  14.325
99533W        W71848  31.039  32.822  12.968
99534W        W71849  30.064  30.426  10.549
99535W        W71850  20.277  10.751   0.463
99536W        W71851  32.594   0.754  12.490
99537W        W71852  41.295  40.267  11.581
99538W        W71853  22.263   0.817  14.812
99539W        W71854  41.011  16.870  12.010
99540W        W71855   7.855  43.285  13.010
99541W        W71856  28.619  30.282  14.563
99542W        W71857   0.142  38.093   3.667
99543W        W71858  43.932  24.582   2.873
99544W        W71859  36.442  27.080   1.762
99545W        W71860  13.247  31.021   2.648
99546W        W71861  20.374   0.756  14.769
99547W        W71862  33.462  22.446   2.250
99548W        W71863  26.244  30.533  11.058
99549W        W71864   6.844   8.261  12.975
99550W        W71865  25.022   4.165   4.174
99551W        W71866   5.345  17.769   1.224
99552W        W71867   7.666   1.324  13.028
99553W        W71868  11.853   7.271   3.290
99554W        W71869   3.901  10.403  13.924
99555W        W71870  44.875  15.351  10.738
99556W        W71871  33.350  27.947   2.385
99557W        W71872   0.875   1.547  13.874
99558W        W71873  35.422  34.123  13.123
99559W        W71874  44.421  27.212  12.161
99560W        W71875  37.729  14.187  12.656
99561W        W71876  23.617  32.958   4.386
99562W        W71877  25.133   7.899   4.426
99563W        W71878   7.382  25.555   1.965
99564W        W71879  39.597  42.430  10.982
99565W        W71880  26.923   9.783  13.308
99566W        W71881  20.053   0.991  11.482
99567W        W71882  19.074  12.657   1.888
99568W        W71883  42.763   0.386   4.171
99569W        W71884  23.485  11.052  13.674
99570W        W71885  39.649  25.247   5.558
99571W        W71886  23.541  35.065  14.578
99572W        W71887   8.223  43.212  11.214
99573W        W71888  41.981  33.877  13.760
99574W        W71889  36.442   9.815   1.274
99575W        W71890  16.326  24.584   4.377
99576W        W71891  19.073  38.523   0.719
99577W        W71892  22.449   5.920   1.828
99578W        W71893  34.847   8.767  12.879
99579W        W71894  24.587  10.390  10.265
99580W        W71895  34.257  34.497  11.654
99581W        W71896   7.682  14.307   0.152
99582W        W71897  42.710  28.156   0.718
99583W        W71898  44.300  29.721   3.721
99584W        W71899  44.280   4.817  13.927
99585W        W71900   4.346  28.449  13.820
99586W        W71901  31.414  14.999   3.676
99587W        W71902   2.246  19.833  13.452
99588W        W71903   6.429  38.247  12.938
99589W        W71904  39.502   2.736   2.360
99590W        W71905  14.398  20.881  13.413
99591W        W71906   6.023   7.931  11.901
99592W        W71907  36.876  24.151  10.889
99593W        W71908  38.692  15.142  13.363
99594W        W71909  13.142  39.047   1.763
99595W        W71910  28.102   8.385   5.268
99596W        W71911   3.288   0.615   3.468
99597W        W71912  42.902  22.557   2.057
99598W        W71913  14.730  19.781   4.852
99599W        W71914  17.355  32.517  13.452
99600W        W71915  36.351  34.059  14.982
99601W        W71916  30.186  29.745  10.975
99602W        W71917  22.493   5.874   2.859
99603W        W71918   2.465  35.356   1.839
99604W        W71919  19.863  20.679   1.868
99605W        W71920  18.327  23.111   3.747
99606W        W71921  24.666   5.598   2.987
99607W        W71922   6.451  37.577  13.400
99608W        W71923  18.709   0.858   2.390
99609W        W71924  26.296  23.583   3.612
99610W        W71925   3.979  43.585   0.835
99611W        W71926   1.021   4.696   2.375
99612W        W71927  38.872  13.312  10.878
99613W        W71928  31.703  29.841  11.249
99614W        W71929  29.662  42.554   2.421
99615W        W71930   8.582   3.638   1.689
99616W        W71931  43.262   2.331  11.232
99617W        W71932  39.570  43.399   3.553
99618W        W71933  19.783  21.472  10.777
99619W        W71934  10.353  19.307   0.960
99620W        W71935  23.553   9.160  11.177
99621W        W71936  25.008  28.178   0.312
99622W        W71937  23.530  22.091  14.389
99623W        W71938   1.962   0.704  13.077
99624W        W71939   7.443  34.348  13.817
99625W        W71940  39.727  35.408  13.019
99626W        W71941   3.864  19.468   5.200
99627W        W71942  38.056  21.763   2.782
99628W        W71943  17.359  30.489  14.885
99629W        W71944  16.767  22.673  14.852
99630W        W71945  16.379   6.244  12.585
99631W        W71946  31.476  13.090  11.545
99632W        W71947  41.933  27.595   0.200
99633W        W71948  19.401  34.542  11.598
99634W        W71949  21.261  42.757  14.790
99635W        W71950   7.667  44.946   1.276
99636W        W71951  17.264   8.698  14.694
99637W        W71952   0.282   0.899  11.904
99638W        W71953   9.839  42.471  13.307
99639W        W71954   9.268  26.524   4.938
99640W        W71955   8.606  42.456   4.664
99641W        W71956   8.163  29.788  12.873
99642W        W71957   5.467  16.103  14.335
99643W        W71958  23.124  31.459  14.912
99644W        W71959  39.818  25.526   0.998
99645W        W71960  20.697   0.282   1.266
99646W        W71961   9.270  20.529   1.404
99647W        W71962  29.775  30.893  10.426
99648W        W71963  18.426  36.025   5.002
99649W        W71964  15.557   2.482  14.834
99650W        W71965  31.987  22.101  10.670
99651W        W71966   8.852  11.278  11.091
99652W        W71967  20.206  14.656   0.919
99653W        W71968  34.436   8.327   4.326
99654W        W71969  24.025  17.127  11.465
99655W        W71970   1.213  22.641  13.066
99656W        W71971  39.029  24.705   0.924
99657W        W71972  26.426  23.184   3.288
99658W        W71973  37.607  39.511  12.890
99659W        W71974   3.304  37.963   4.382
99660W        W71975  35.321  21.340  10.780
99661W        W71976  11.076  40.558  13.073
99662W        W71977  21.935  14.182   1.873
99663W        W71978   4.977   5.732  13.089
99664W        W71979  31.158  34.409  10.573
99665W        W71980  42.188  43.946   0.811
99666W        W71981  28.889   3.136  12.018
99667W        W71982   3.278  22.921  12.371
99668W        W71983  39.492  18.358   4.566
99669W        W71984  40.705  25.459  11.114
99670W        W71985  30.556   7.328  11.174
99671W        W71986  10.285  41.364   3.078
99672W        W71987  37.826  23.590  10.075
99673W        W71988  26.083   8.382   2.919
99674W        W71989  15.644  27.559   0.952
99675W        W71990  38.142  35.566  12.302
99676W        W71991  41.228   4.705  11.445
99677W        W71992   0.463   2.377  12.563
99678W        W71993  12.398  34.158   1.961
99679W        W71994  13.798  22.796  12.441
99680W        W71995  22.718   4.396  11.809
99681W        W71996   4.749  20.202   4.049
99682W        W71997  34.818  42.960  10.951
99683W        W71998  19.125   1.618   4.083
99684W        W71999  20.625  13.705   4.102
99685W        W72000  35.712  30.729  14.726
99686W        W72001  43.082  24.153   4.091
99687W        W72002   4.780  25.595  12.995
99688W        W72003  26.089  43.216   4.852
99689W        W72004  38.494  16.338   3.924
99690W        W72005  20.613  21.982   3.616
99691W        W72006  35.019  44.543   0.120
99692W        W72007  29.757   2.635   1.419
99693W        W72008  34.331  12.648   2.955
99694W        W72009  32.944   0.400   1.724
99695W        W72010  40.777  39.366   3.194
99696W        W72011  40.552  42.986  14.010
99697W        W72012  11.214  13.596  11.190
99698W        W72013  30.026  37.809   4.552
99699W        W72014  21.119   9.592   0.730
99700W        W72015   3.792  32.704   2.775
99701W        W72016  22.320  20.164   2.888
99702W        W72017  42.082   7.149  13.291
99703W        W72018  24.311  29.083  11.989
99704W        W72019  35.144  21.133  10.160
99705W        W72020  28.222  22.602  12.000
99706W        W72021   5.165   0.385  14.928
99707W        W72022   5.445  15.649   4.146
99708W        W72023  36.374   9.318  10.487
99709W        W72024  17.030   5.213  14.247
99710W        W72025  10.363  23.164  12.904
99711W        W72026  33.965   1.628   4.472
99712W        W72027  21.981  33.496   0.478
99713W        W72028   5.212  24.016  11.096
99714W        W72029   4.722   5.365   3.744
99715W        W72030  15.029  15.072  12.370
99716W        W72031  37.579  35.612   4.602
99717W        W72032  40.796  22.270  11.083
99718W        W72033  10.828  12.870  13.036
99719W        W72034  33.004  25.806  13.942
99720W        W72035  31.324   9.113   0.404
99721W        W72036  23.660  33.865   2.366
99722W        W72037  17.599   4.654  11.543
99723W        W72038  21.270   7.713  10.903
99724W        W72039  42.018  31.553  12.081
99725W        W72040   5.923  28.969   3.728
99726W        W72041  15.625  17.775   4.843
99727W        W72042  29.553   2.764  14.877
99728W        W72043   8.383  23.060   4.235
99729W        W72044   8.471   9.808   3.325
99730W        W72045   1.999  26.031   1.934
99731W        W72046  12.037  38.447  11.307
99732W        W72047  24.127  39.572  10.748
99733W        W72048  40.533  39.438   3.741
99734W        W72049  26.234  35.399  10.658
99735W        W72050  44.407  10.198   1.946
99736W        W72051   2.714   0.443  11.093
99737W        W72052   3.910   8.938   4.611
99738W        W72053  13.805  39.456  12.381
99739W        W72054  13.836   9.148  13.371
99740W        W72055  19.792  33.783  11.144
99741W        W72056  33.877  43.476   2.234
99742W        W72057  44.011  38.033   0.719
99743W        W72058  39.466   9.960  13.889
99744W        W72059   8.685   3.853  13.575
99745W        W72060  30.674  25.660   3.651
99746W        W72061  30.897   8.449   4.593
99747W        W72062  34.178  15.196  12.105
99748W        W72063  16.619   9.936   2.218
99749W        W72064  15.922  44.365  12.360
99750W        W72065   9.899  38.788  14.978
99751W        W72066   3.212  34.609   0.109
99752W        W72067  35.477  24.148   2.159
99753W        W72068  19.973  11.796  13.315
99754W        W72069  42.613  18.011   4.567
99755W        W72070  31.413  19.091  12.831
99756W        W72071   4.868  10.856   4.099
99757W        W72072  32.598  38.460   3.334
99758W        W72073  38.030  39.450   1.365
99759W        W72074  10.747  34.538   3.862
99760W        W72075  38.544  40.000  11.368
99761W        W72076  19.144  16.104   2.844
99762W        W72077  32.315   1.873   1.268
99763W        W72078  32.042  37.450  14.011
99764W        W72079  10.261  12.397   1.775
99765W        W72080   9.285  12.079  12.364
99766W        W72081   7.957  36.881  12.867
99767W        W72082  27.101  16.077  12.930
99768W        W72083  38.354  39.736   1.735
99769W        W72084   0.808  11.150   0.919
99770W        W72085  34.005  24.259  10.939
99771W        W72086  12.276  20.065  10.648
99772W        W72087   5.802  37.561   3.704
99773W        W72088   8.462  16.752  14.731
99774W        W72089  35.522   5.614  12.438
99775W        W72090  17.456  18.791  13.465
99776W        W72091  20.743  41.490  13.034
99777W        W72092  39.892  18.306   1.539
99778W        W72093  40.683   5.644  11.077
99779W        W72094  39.333  38.714   0.065
99780W        W72095  32.882  18.721  14.859
99781W        W72096  33.774  24.698  11.649
99782W        W72097   3.434  17.352  11.883
99783W        W72098  42.372  29.544   2.550
99784W        W72099  39.845  22.736   4.750
99785W        W72100  35.619  28.229  12.092
99786W        W72101  10.494  32.420   4.227
99787W        W72102  17.267   1.204   1.447
99788W        W72103  24.678   1.176   0.293
99789W        W72104  39.478  31.684  13.343
99790W        W72105  20.345  39.977   1.885
99791W        W72106  26.548  27.742  11.264
99792W        W72107  20.824  16.698  13.793
99793W        W72108   5.313  32.553   3.809
99794W        W72109  20.182  20.508   4.207
99795W        W72110  36.592  33.380   9.994
99796W        W72111  19.184  16.191  10.898
99797W        W72112  10.355   1.774   0.779
99798W        W72113  41.979  21.976  13.606
99799W        W72114  23.809  41.103   1.173
99800W        W72115  38.922  35.327  14.510
99801W        W72116   0.016   6.334   3.349
99802W        W72117  36.453  14.201   2.427
99803W        W72118  18.689  26.637  13.836
99804W        W72119  37.547  19.236  13.058
99805W        W72120  33.983  36.412  12.549
99806W        W72121  13.276   8.214   1.329
99807W        W72122  30.079   9.893  13.852
99808W        W72123  20.795  12.673  12.027
99809W        W72124  33.359  35.954  12.027
99810W        W72125  15.837  35.735  11.953
99811W        W72126  35.106   6.117  12.891
99812W        W72127  23.268  44.714  11.816
99813W        W72128  17.580  14.731  14.702
99814W        W72129  24.713   2.654  10.487
99815W        W72130   2.510  17.313   3.168
99816W        W72131   8.219  30.392   1.441
99817W        W72132  20.214   5.726   3.898
99818W        W72133  25.667   1.626  11.871
99819W        W72134   4.437  20.210  11.686
99820W        W72135   9.296  22.768   0.521
99821W        W72136   9.926  38.010  13.859
99822W        W72137  11.111  25.154  13.068
99823W        W72138   9.284   9.830  13.984
99824W        W72139  25.128  35.956  11.944
99825W        W72140  35.998   5.225   1.478
99826W        W72141  22.062  18.744   2.772
99827W        W72142   5.353   6.121   0.740
99828W        W72143  44.048  40.897  13.924
99829W        W72144   2.800   9.909  10.681
99830W        W72145  42.861   3.927  12.570
99831W        W72146  19.324  10.813  13.549
99832W        W72147  42.752   2.411  11.285
99833W        W72148  15.732  28.445   4.220
99834W        W72149  37.553  28.072   4.628
99835W        W72150   1.247  24.806  12.877
99836W        W72151   4.183  44.374   2.194
99837W        W72152  42.394  37.876  13.035
99838W        W72153  10.919   7.277   4.153
99839W        W72154  20.144  25.043  12.687
99840W        W72155  13.131  13.891  10.739
99841W        W72156  14.570  28.768  11.967
99842W        W72157   8.606  35.207   4.703
99843W        W72158   3.833  44.983  14.076
99844W        W72159  14.631  34.741  14.388
99845W        W72160  28.230  22.269  14.305
99846W        W72161  42.549   4.323   2.676
99847W        W72162  32.132   2.332  13.920
99848W        W72163  34.011  44.723   0.924
99849W        W72164  44.384  16.155   0.278
99850W        W72165  17.262  31.050  10.047
99851W        W72166  22.976  42.697   1.208
99852W        W72167  41.275  31.898  13.110
99853W        W72168  11.347  42.830   2.405
99854W        W72169  27.289   6.808  12.471
99855W        W72170  27.692  29.981  11.684
99856W        W72171   9.770  19.129   9.877
99857W        W72172  27.667  35.004   2.852
99858W        W72173  16.564  27.059   2.785
99859W        W72174  43.097   1.175  14.491
99860W        W72175   0.856   6.973  14.280
99861W        W72176  40.900  21.624  13.059
99862W        W72177  38.578  33.926  14.754
99863W        W72178  29.665  24.187  10.295
99864W        W72179  44.629  40.495   4.769
99865W        W72180  21.881  26.874   1.427
99866W        W72181  18.511  23.799  10.444
99867W        W72182  36.103   1.752  10.532
99868W        W72183   2.881  37.610  13.005
99869W        W72184  37.044   0.276   2.390
99870W        W72185   5.392  25.064  14.522
99871W        W72186   7.757  40.228  11.240
99872W        W72187  43.355   0.420   3.778
99873W        W72188   0.750  10.775  12.894
99874W        W72189  14.629  16.363  12.466
99875W        W72190  32.414  15.289   3.258
99876W        W72191  17.475  16.217  11.507
99877W        W72192   1.429   3.931  12.087
99878W        W72193  15.157  12.849   1.350
99879W        W72194  20.243  34.819  10.953
99880W        W72195  22.750  22.036  14.857
99881W        W72196  17.174  27.031   3.430
99882W        W72197  32.033   5.695  14.730
99883W        W72198  18.463  19.102  13.078
99884W        W72199  41.439  44.932   3.266
99885W        W72200  41.424  27.739  14.315
99886W        W72201  41.873  32.987  11.277
99887W        W72202   9.362  28.270   0.416
99888W        W72203  38.850  10.146  12.560
99889W        W72204  41.083  21.760   1.347
99890W        W72205  11.835  12.592  10.678
99891W        W72206  27.699  39.250  11.004
99892W        W72207  16.065  11.227  12.321
99893W        W72208   8.190  13.251  12.371
99894W        W72209  38.402   6.797   2.658
99895W        W72210   4.285  20.045   4.227
99896W        W72211  17.166  33.066  13.727
99897W        W72212  37.454  36.123   4.608
99898W        W72213  30.408   8.041   4.170
99899W        W72214  42.287  29.476   0.385
99900W        W72215  31.628  40.273  12.887
99901W        W72216  33.468   0.325   1.683
99902W        W72217  15.721  41.820   1.844
99903W        W72218  34.820  18.490  10.700
99904W        W72219   9.476  30.517  14.446
99905W        W72220  42.244  14.811   1.870
99906W        W72221  17.672   6.665   3.364
99907W        W72222  41.340  24.937  12.090
99908W        W72223  42.515   7.345   1.328
99909W        W72224  16.312  19.493   0.799
99910W        W72225   5.957  38.894   0.732
99911W        W72226   2.438  42.182  12.631
99912W        W72227  22.653  44.707  12.918
99913W        W72228  27.044  26.014  10.927
99914W        W72229   0.476  22.201  14.465
99915W        W72230  15.859  18.840   4.034
99916W        W72231  27.862  20.773   2.804
99917W        W72232  13.680  34.083  11.400
99918W        W72233  33.965  21.619  14.481
99919W        W72234  33.438  40.750   4.825
99920W        W72235  16.441  27.947   2.931
99921W        W72236  11.211   2.179   2.374
99922W        W72237  27.396   3.449  11.136
99923W        W72238  17.796  11.845  12.363
99924W        W72239   1.900  19.766  14.314
99925W        W72240  30.760  23.197   0.055
99926W        W72241  13.744  36.909   1.793
99927W        W72242  18.330  40.920  13.749
99928W        W72243   2.334  29.720  11.174
99929W        W72244  17.088  18.869  11.475
99930W        W72245  32.577  41.905  12.185
99931W        W72246  31.778  19.476  12.872
99932W        W72247  30.881  18.173  12.024
99933W        W72248  43.808   1.624   4.207
99934W        W72249   3.360  40.640   0.241
99935W        W72250   0.221  33.837  11.983
99936W        W72251  40.485  14.986  13.561
99937W        W72252   2.448  17.747   1.347
99938W        W72253  29.001  38.421  10.640
99939W        W72254  24.789  16.115   3.166
99940W        W72255  17.061  12.021   0.665
99941W        W72256  22.456  19.588   0.740
99942W        W72257  18.884  33.442  11.596
99943W        W72258   6.867  13.783   4.685
99944W        W72259   4.221  15.146  10.456
99945W        W72260   0.952  17.909  14.456
99946W        W72261  20.380  16.233  14.015
99947W        W72262  24.607  36.612  13.452
99948W        W72263   2.696  44.020  12.144
99949W        W72264  27.720  37.441   4.650
99950W        W72265  24.187  20.971  11.144
99951W        W72266   7.938  44.931  14.890
99952W        W72267  36.257  16.915  14.762
99953W        W72268  30.257   0.887   3.188
99954W        W72269   5.778  37.065   1.937
99955W        W72270  29.993  20.593   2.814
99956W        W72271  19.594  31.068   4.140
99957W        W72272   3.337  39.826  11.481
99958W        W72273   9.311  16.352  13.472
99959W        W72274  17.783  27.157   3.544
99960W        W72275  38.461  13.598  11.386
99961W        W72276  22.966  24.645   1.343
99962W        W72277  40.973   2.334   3.632
99963W        W72278  32.578  41.829   2.373
99964W        W72279  12.319  14.714  11.818
99965W        W72280  33.528  29.910   3.694
99966W        W72281  42.334  35.549   3.330
99967W        W72282  25.434  38.737  14.936
99968W        W72283   7.229   8.720  11.057
99969W        W72284  20.746  42.831  14.846
99970W        W72285   7.176   4.028  12.412
99971W        W72286  29.139  36.030  14.529
99972W        W72287  28.236   6.818   2.859
99973W        W72288  31.596   0.616  14.733
99974W        W72289  34.438  23.758   3.190
99975W        W72290  18.366  12.570   4.969
99976W        W72291   0.784  12.847   9.776
99977W        W72292  30.431   5.927   0.449
99978W        W72293  44.775  11.879   9.850
99979W        W72294  23.968  41.599  12.159
99980W        W72295  14.554  37.978  12.525
99981W        W72296  18.681  35.307   5.204
99982W        W72297  38.005   3.874  13.180
99983W        W72298  41.543   2.320  14.375
99984W        W72299  21.107  17.764  14.400
99985W        W72300  22.718  24.669   3.346
99986W        W72301  17.841  23.080   1.794
99987W        W72302  40.779   3.503   1.456
99988W        W72303  24.525  14.300   0.239
99989W        W72304  34.103  29.666  12.804
99990W        W72305  13.575  29.131  12.252
99991W        W72306  32.945   6.977  11.912
99992W        W72307   5.643  30.083  12.384
99993W        W72308  42.842  11.078  12.422
99994W        W72309  10.838   6.278   3.359
99995W        W72310   1.461  43.070  11.165
99996W        W72311   1.539  24.864   0.184
99997W        W72312  13.691   5.565  14.384
99998W        W72313  29.523  33.414  10.690
99999W        W72314  18.519  30.858  14.890
    0W        W72315  41.288  33.793   0.343
    1W        W72316   0.082  32.497  12.055
    2W        W72317  34.319  28.003  12.255
    3W        W72318   2.439   1.903   5.064
    4W        W72319  11.269  42.137   1.501
    5W        W72320  39.894  39.876   0.961
    6W        W72321  30.535  26.468   0.288
    7W        W72322   7.188  23.621  10.503
    8W        W72323   4.420  33.370   4.270
    9W        W72324  23.655  16.792   2.189
   10W        W72325  30.738  21.596  10.657
   11W        W72326  34.802  17.906  12.646
   12W        W72327  33.948  11.284  11.448
   13W        W72328  26.404  43.468  13.990
   14W        W72329  25.240   5.439  11.551
   15W        W72330  16.591  11.762  13.474
   16W        W72331  14.660   2.555  13.548
   17W        W72332  17.835  15.768  14.320
   18W        W72333   5.219  27.429  12.642
   19W        W72334  44.814  22.292   4.165
   20W        W72335  29.142  36.852  11.547
   21W        W72336   6.556  24.938   1.395
   22W        W72337  27.107   8.859  12.365
   23W        W72338  11.707  44.074   3.688
   24W        W72339   8.407  32.511  14.731
   25W        W72340   4.312  38.462  12.899
   26W        W72341  32.721  41.250  12.617
   27W        W72342  41.797  23.460   4.541
   28W        W72343   5.192   8.151  11.556
   29W        W72344  16.707   7.236   0.573
   30W        W72345  18.976   6.177   5.047
   31W        W72346  28.981  22.330  12.462
   32W        W72347  20.525  41.216  12.410
   33W        W72348  25.075  21.170   3.776
   34W        W72349  21.512  39.801   3.223
   35W        W72350  16.573  10.296   0.250
   36W        W72351  12.368   9.861   2.747
   37W        W72352  37.417  34.293  11.519
   38W        W72353   5.173  21.007  14.811
   39W        W72354  34.167  18.084   2.803
   40W        W72355  27.962  13.318  12.128
   41W        W72356  10.922  20.538   0.088
   42W        W72357  31.053  34.862   4.229
   43W        W72358   4.473   9.317  13.967
   44W        W72359  36.354   3.296  12.572
   45W        W72360  13.255   7.032   3.578
   46W        W72361  35.593  28.451   2.796
   47W        W72362  44.677  33.192  13.946
   48W        W72363  41.418  14.916   4.594
   49W        W72364  13.447   6.238   1.778
   50W        W72365  41.473  34.815  11.154
   51W        W72366  27.398   7.170   9.959
   52W        W72367   5.431  32.327  10.850
   53W        W72368  29.057   3.397   1.419
   54W        W72369   4.419  12.684   2.602
   55W        W72370  10.252   5.476   4.264
   56W        W72371  29.662  39.755   2.784
   57W        W72372   4.865  18.694  14.928
   58W        W72373  16.201  34.936  12.134
   59W        W72374  26.025  31.318  13.648
   60W        W72375   3.551  14.807   0.345
   61W        W72376  44.338  43.831  14.195
   62W        W72377  25.200  35.806  14.067
   63W        W72378  22.279  21.459  13.632
   64W        W72379  21.574  13.156   4.036
   65W        W72380  34.997  38.852   1.988
   66W        W72381  11.675   2.227  10.792
   67W        W72382   7.888  38.775  12.344
   68W        W72383  14.590  34.384   3.366
   69W        W72384  37.459  14.486   2.660
   70W        W72385  28.903  24.521   2.466
   71W        W72386  21.979   2.364  12.976
   72W        W72387  29.712  16.803   2.162
   73W        W72388   1.396  14.257  14.939
   74W        W72389   3.799  30.956  14.048
   75W        W72390  21.203  32.665  11.085
   76W        W72391  14.114  25.180  13.839
   77W        W72392  44.266  14.353   4.518
   78W        W72393   4.235  30.886  10.435
   79W        W72394  14.563  14.199  12.001
   80W        W72395   4.731  37.299   1.682
   81W        W72396  43.524  35.760   5.213
   82W        W72397  24.969   5.584  11.953
   83W        W72398   9.239  36.838  13.841
   84W        W72399   3.754  16.862  12.533
   85W        W72400   2.317  43.037   4.647
   86W        W72401  23.863  36.764   2.815
   87W        W72402  41.566  17.610   1.459
   88W        W72403  43.142  31.580   2.325
   89W        W72404  29.598  11.542  14.775
   90W        W72405  32.773  11.989   9.874
   91W        W72406   8.306  10.116  13.492
   92W        W72407   4.576   1.976   3.892
   93W        W72408  27.537  19.256  13.321
   94W        W72409  28.724  38.988  12.830
   95W        W72410   8.892  17.828   2.199
   96W        W72411   8.618  21.020  13.372
   97W        W72412  11.346  37.265   5.327
   98W        W72413  16.174   0.885  10.756
   99W        W72414  14.007  42.826   0.258
  100W        W72415  42.811  10.119   3.790
  101W        W72416  13.919  25.349   1.412
  102W        W72417  17.476  34.497   3.856
  103W        W72418   6.829  36.339   4.892
  104W        W72419  14.339  12.843   1.320
  105W        W72420  17.620  13.692   0.078
  106W        W72421  14.767   4.081  12.471
  107W        W72422  38.528  30.276  11.637
  108W        W72423   4.474  12.977   3.727
  109W        W72424  40.987  37.066   1.794
  110W        W72425  36.582  19.266  12.128
  111W        W72426  22.988  30.325  14.321
  112W        W72427  36.425   8.126   2.738
  113W        W72428  26.078  44.947   2.775
  114W        W72429  13.191  36.085   1.703
  115W        W72430  15.028  31.151  12.049
  116W        W72431   2.210  35.972   2.666
  117W        W72432  29.652  38.805   1.872
  118W        W72433  27.231  44.184  13.968
  119W        W72434  43.302  11.385  11.226
  120W        W72435  18.649   2.712   1.957
  121W        W72436  42.464  19.763   3.307
  122W        W72437   9.720   9.378  11.547
  123W        W72438   2.719   8.588   1.746
  124W        W72439   8.694  35.808   3.665
  125W        W72440  33.111  22.280   1.907
  126W        W72441  28.443  11.616   3.666
  127W        W72442  24.773  25.546   1.826
  128W        W72443  12.675  16.545   5.375
  129W        W72444   4.447  31.382  12.949
  130W        W72445   9.561  41.249   1.930
  131W        W72446  37.425  26.212   4.227
  132W        W72447  40.247   1.022  13.105
  133W        W72448  27.499  44.818  11.549
  134W        W72449   0.363   3.054   4.119
  135W        W72450  16.317   8.387  12.106
  136W        W72451  12.882  11.641   1.783
  137W        W72452  24.069  40.985  10.976
  138W        W72453  24.554   9.790   0.810
  139W        W72454  23.350  43.934  10.628
  140W        W72455   4.041   3.375  10.637
  141W        W72456   5.898  44.476   0.255
  142W        W72457  13.347  42.023   2.286
  143W        W72458  23.066  16.427  14.356
  144W        W72459  35.025  24.609  13.123
  145W        W72460  26.038  15.350   4.603
  146W        W72461  39.467  14.191   2.515
  147W        W72462  14.763   1.479  11.454
  148W        W72463  30.989  24.221   3.190
  149W        W72464  21.098  12.832  12.436
  150W        W72465  15.611  11.776  10.633
  151W        W72466  12.338   1.144   1.785
  152W        W72467  22.247  34.912  11.807
  153W        W72468  16.242  10.736   0.249
  154W        W72469  21.204  14.664   0.825
  155W        W72470   1.585  19.634   0.689
  156W        W72471  30.558  43.940  14.635
  157W        W72472  24.995  31.569   1.625
  158W        W72473  41.397  35.515  12.418
  159W        W72474  23.211  23.268   2.865
  160W        W72475  40.750   8.255   4.700
  161W        W72476  39.895   8.280   4.592
  162W        W72477   6.271  26.729  13.799
  163W        W72478  17.006  41.030  13.414
  164W        W72479   2.207  25.766  10.658
  165W        W72480  34.813  31.795   1.410
  166W        W72481   0.494  40.628  11.043
  167W        W72482   8.385  37.494   4.109
  168W        W72483   8.817  42.356  12.861
  169W        W72484   4.313  36.052   4.209
  170W        W72485  43.404  10.136  11.648
  171W        W72486   7.000  26.141  10.506
  172W        W72487  23.997  34.147  14.582
  173W        W72488  42.371  22.727   2.799
  174W        W72489  35.078   2.724   3.241
  175W        W72490  13.602  31.969   1.407
  176W        W72491  24.654  18.571   4.451
  177W        W72492  24.166  39.647   2.713
  178W        W72493  42.435  41.341   4.738
  179W        W72494  40.071  22.251  11.531
  180W        W72495   7.792   4.685   3.213
  181W        W72496   7.638  26.952  13.938
  182W        W72497  17.371  27.264   3.832
  183W        W72498  42.293  38.020   0.328
  184W        W72499  22.024  39.781   0.874
  185W        W72500   4.345  36.584   2.404
  186W        W72501   1.304  16.731  10.682
  187W        W72502  13.320   8.185   0.418
  188W        W72503   6.850  11.134   1.765
  189W        W72504  32.952  22.277  11.053
  190W        W72505  15.075   2.173   2.978
  191W        W72506  16.253  31.927   4.869
  192W        W72507   3.498  39.414  10.545
  193W        W72508  14.751   4.490   0.861
  194W        W72509  30.449  17.279   4.261
  195W        W72510  40.808  18.510   2.361
  196W        W72511  13.539   0.819  10.991
  197W        W72512  44.737   5.193   0.377
  198W        W72513  27.218  37.914  13.445
  199W        W72514  40.376  41.031   0.949
  200W        W72515  40.284   5.886  14.329
  201W        W72516  16.207  11.735   0.298
  202W        W72517  35.596   4.230   1.942
  203W        W72518  37.779   9.904   3.990
  204W        W72519  19.307   7.129   0.380
  205W        W72520  18.716  15.124  12.678
  206W        W72521  25.407  35.563   1.661
  207W        W72522  44.264   1.250  13.912
  208W        W72523  35.563  14.861  12.910
  209W        W72524  26.329  36.488  12.493
  210W        W72525  31.457  15.073  13.321
  211W        W72526  27.608   6.856  13.859
  212W        W72527  36.557  43.634   2.387
  213W        W72528   7.802  30.412  13.322
  214W        W72529  42.505  34.085   3.898
  215W        W72530   3.498  25.639  13.341
  216W        W72531  26.859  36.315   1.651
  217W        W72532  32.105  20.156   0.481
  218W        W72533  27.530  31.129  13.416
  219W        W72534  42.402  22.775  13.584
  220W        W72535   3.810  41.742   0.213
  221W        W72536  22.745  14.116  12.209
  222W        W72537  16.627  27.216  11.809
  223W        W72538  35.489  44.378  12.037
  224W        W72539  44.989  22.569  12.457
  225W        W72540  21.189  18.295  12.093
  226W        W72541   8.139  42.187  11.133
  227W        W72542  39.954  28.527  11.203
  228W        W72543  37.993  11.578   0.980
  229W        W72544  22.127  20.529  10.575
  230W        W72545  37.702  36.903   3.318
  231W        W72546  37.405  19.790  12.172
  232W        W72547  11.087  33.394  12.354
  233W        W72548  33.071  14.786  13.944
  234W        W72549  25.220   2.452   3.232
  235W        W72550  42.356  41.269  13.763
  236W        W72551   1.743   7.491  13.122
  237W        W72552  41.519   4.641  11.019
  238W        W72553  31.012  30.014   2.688
  239W        W72554  34.399  21.489  12.777
  240W        W72555  34.668  35.676  12.026
  241W        W72556  44.331   1.770  13.894
  242W        W72557  27.448  12.189  11.118
  243W        W72558   9.280  34.143   4.211
  244W        W72559  18.610  32.537   0.028
  245W        W72560   0.839  22.024   4.333
  246W        W72561  31.252   5.800  11.653
  247W        W72562   4.119   5.699   3.178
  248W        W72563  32.573  21.814  12.431
  249W        W72564   0.528  24.729  14.780
  250W        W72565  37.494   7.691  14.208
  251W        W72566   0.324  36.916  14.721
  252W        W72567  31.885  34.092  14.410
  253W        W72568  41.229  39.026  14.797
  254W        W72569  16.538   5.519  13.007
  255W        W72570  10.677  18.191   1.759
  256W        W72571  16.757  10.820   3.265
  257W        W72572  23.942  21.586   4.106
  258W        W72573  29.132   1.008  11.147
  259W        W72574  24.949  31.415  13.537
  260W        W72575  39.561  17.885  13.926
  261W        W72576  26.464   4.310   4.224
  262W        W72577  21.212  27.662   2.708
  263W        W72578  30.377   5.745   0.948
  264W        W72579   2.542   7.869   3.271
  265W        W72580   8.967  16.846  13.810
  266W        W72581  11.640  19.444   1.330
  267W        W72582   6.823  24.192  10.549
  268W        W72583  33.835  12.303   1.381
  269W        W72584  32.244  35.567  11.784
  270W        W72585  29.089  18.167  13.895
  271W        W72586  11.166  10.905  10.644
  272W        W72587  38.380  25.460  11.913
  273W        W72588  35.538  37.795  12.832
  274W        W72589   7.379   0.321   3.791
  275W        W72590   2.276  18.701   4.181
  276W        W72591  27.705   0.384  14.093
  277W        W72592  11.734  43.882  11.613
  278W        W72593  44.741  32.423   2.831
  279W        W72594  39.398  41.996   4.166
  280W        W72595   7.397  36.014  10.664
  281W        W72596   9.768  14.663   3.306
  282W        W72597  36.572  38.871   1.323
  283W        W72598  14.720  29.568  10.311
  284W        W72599  19.278  23.036   1.833
  285W        W72600  31.539   3.893   3.778
  286W        W72601   3.800  23.511   2.250
  287W        W72602  35.958   6.144  13.988
  288W        W72603   5.473   7.462   1.907
  289W        W72604  23.435  30.136  11.180
  290W        W72605  29.120  40.918  12.098
  291W        W72606   7.542  39.750  11.218
  292W        W72607  10.783  42.312   1.262
  293W        W72608   8.456  21.560  10.529
  294W        W72609   9.395  24.018   0.385
  295W        W72610  31.581  19.270  14.893
  296W        W72611  39.025  28.737   5.231
  297W        W72612   6.348  21.480   1.199
  298W        W72613  42.569  10.660  12.607
  299W        W72614   3.786   3.226   4.647
  300W        W72615  33.669   4.738   1.232
  301W        W72616  33.505  24.580  13.438
  302W        W72617  24.343  13.760   3.896
  303W        W72618   0.391   6.279  13.756
  304W        W72619  30.475  31.277   4.912
  305W        W72620  10.222  31.616  10.660
  306W        W72621   7.810  24.249  11.100
  307W        W72622   0.761  30.811  11.647
  308W        W72623  25.228  21.731   4.571
  309W        W72624  27.556  37.607   3.323
  310W        W72625  21.595   1.753   3.676
  311W        W72626  40.174  11.617  11.141
  312W        W72627  44.035   9.917  14.871
  313W        W72628  36.438   6.157   0.766
  314W        W72629   3.015  17.743   2.215
  315W        W72630  37.514  17.031   1.750
  316W        W72631  36.379  18.729   3.322
  317W        W72632  25.574  34.587  13.389
  318W        W72633  39.240  37.317  11.111
  319W        W72634   8.759  15.635   3.119
  320W        W72635   0.359   7.339   1.287
  321W        W72636  43.652  25.002   2.764
  322W        W72637  23.000  18.766  13.296
  323W        W72638  13.046  44.987   0.439
  324W        W72639  34.455  39.369   4.515
  325W        W72640   4.685   8.144   2.232
  326W        W72641  24.270  42.901   3.100
  327W        W72642  27.746  37.850  14.767
  328W        W72643  38.754  16.533   0.383
  329W        W72644   4.444  31.156  14.911
  330W        W72645  44.446  37.923   2.169
  331W        W72646  30.435  44.913   0.686
  332W        W72647   6.871  14.792  13.242
  333W        W72648  27.897  36.848   3.303
  334W        W72649   4.409  37.576  14.820
  335W        W72650  37.175  16.636  14.972
  336W        W72651  32.957  37.366  11.635
  337W        W72652   4.752  44.225  13.766
  338W        W72653   4.646  44.330  12.781
  339W        W72654  11.107  24.836   3.460
  340W        W72655  18.881  22.255   1.929
  341W        W72656  19.703  14.589   1.931
  342W        W72657  17.042  24.937   2.206
  343W        W72658  19.985  21.468  13.443
  344W        W72659  35.068  10.379  11.098
  345W        W72660  38.866  30.068  12.495
  346W        W72661  26.024  36.391   1.790
  347W        W72662  16.186  29.183  14.307
  348W        W72663  43.122   8.865   3.845
  349W        W72664  29.679  24.070  12.194
  350W        W72665  29.250  12.833   0.806
  351W        W72666  39.753  27.828   0.748
  352W        W72667  30.025  35.025  13.347
  353W        W72668   7.357  29.068   3.828
  354W        W72669  17.679  14.116   2.268
  355W        W72670   7.853   8.602  13.981
  356W        W72671   3.151  43.934  10.542
  357W        W72672  14.838  37.309  13.872
  358W        W72673  33.608  12.235  14.073
  359W        W72674   7.650  27.732   4.000
  360W        W72675  40.518  23.577  12.071
  361W        W72676  23.210  23.217  11.457
  362W        W72677  18.740  44.159  13.774
  363W        W72678  38.166  34.565   1.692
  364W        W72679  35.992   7.175   3.044
  365W        W72680  21.057  43.078   4.653
  366W        W72681  34.791  42.968   4.008
  367W        W72682  17.125   2.361   2.414
  368W        W72683   4.302  31.531   1.467
  369W        W72684   2.716  36.060   2.664
  370W        W72685  24.895  15.258   0.793
  371W        W72686   3.846   0.825   1.000
  372W        W72687  41.939  12.565   3.327
  373W        W72688   5.377  22.013   0.439
  374W        W72689  24.287   3.974   2.216
  375W        W72690  34.864   2.191   2.464
  376W        W72691  34.486  29.913  13.093
  377W        W72692  35.452  26.862  13.205
  378W        W72693  15.725  16.232  13.878
  379W        W72694   4.770   1.306   0.044
  380W        W72695  26.434  25.652   2.848
  381W        W72696  42.498  26.504  14.206
  382W        W72697  37.513   5.869   1.637
  383W        W72698  33.579  14.342  14.781
  384W        W72699  24.678  18.056   1.920
  385W        W72700  41.303  31.618  14.902
  386W        W72701   1.759  12.703   1.050
  387W        W72702  18.273  33.050   0.997
  388W        W72703  17.843  40.729  12.934
  389W        W72704  28.633  12.073   2.736
  390W        W72705   1.776  37.405  11.348
  391W        W72706  11.291  33.638   1.314
  392W        W72707  40.590  43.953  10.447
  393W        W72708  31.851  21.192   4.152
  394W        W72709  40.731  16.994   3.851
  395W        W72710  14.749  22.887  11.993
  396W        W72711   2.866  16.277  10.860
  397W        W72712  18.174   6.273  13.500
  398W        W72713  42.861  16.195  11.910
  399W        W72714  27.873  23.856  10.133
  400W        W72715  35.496  42.941  12.441
  401W        W72716  21.130  41.873  13.803
  402W        W72717  22.243  38.102  12.032
  403W        W72718  17.283  21.025   1.385
  404W        W72719  29.483  18.917  11.599
  405W        W72720  14.167  30.201  13.426
  406W        W72721  29.087  24.586  12.167
  407W        W72722  11.673  11.843  12.650
  408W        W72723  21.602  12.842   0.706
  409W        W72724  29.499   7.311   1.189
  410W        W72725  39.612  24.500  10.896
  411W        W72726  21.563  23.046   2.724
  412W        W72727  42.921  38.434  14.980
  413W        W72728  11.200   4.162  12.149
  414W        W72729  35.909   8.865  14.880
  415W        W72730  13.969   0.367  14.331
  416W        W72731   8.469  16.478   2.837
  417W        W72732   5.932  14.667  14.249
  418W        W72733   2.171  31.637  11.416
  419W        W72734   6.720  10.219   1.893
  420W        W72735   5.793  44.008   1.710
  421W        W72736  27.217  17.623  12.309
  422W        W72737  13.836  12.529   2.912
  423W        W72738  15.041   9.684  11.261
  424W        W72739  30.024  32.830  11.148
  425W        W72740   0.895  30.101   1.444
  426W        W72741  41.394   6.300   0.367
  427W        W72742  16.345  44.033  12.481
  428W        W72743  12.154  34.879   1.344
  429W        W72744   9.219  35.113   4.061
  430W        W72745  14.278  15.601  14.375
  431W        W72746  18.949  18.443  12.488
  432W        W72747  16.343  34.682  12.538
  433W        W72748  12.756  23.492  11.675
  434W        W72749  15.565  13.762  14.274
  435W        W72750  42.732  23.104  12.064
  436W        W72751  20.760  36.751  13.006
  437W        W72752  20.331  21.115   4.593
  438W        W72753   5.635   6.636   4.570
  439W        W72754  38.276  39.374   2.750
  440W        W72755  33.049   1.385  14.181
  441W        W72756  20.447   4.362   0.742
  442W        W72757  21.246  36.847  12.853
  443W        W72758   0.808  10.579  11.053
  444W        W72759   4.505   3.152   2.712
  445W        W72760  10.459  40.501  13.881
  446W        W72761  30.190  44.083  13.562
  447W        W72762  11.098  40.734   0.477
  448W        W72763  17.267  22.059   0.326
  449W        W72764  25.909   1.425   1.240
  450W        W72765  25.047  34.796   2.790
  451W        W72766  23.957  32.467  12.544
  452W        W72767  17.210  20.481   1.200
  453W        W72768   9.706  17.809   1.410
  454W        W72769  32.795  28.458  11.227
  455W        W72770   0.278  12.231  10.241
  456W        W72771  35.984  13.116  10.958
  457W        W72772  39.558  25.435   1.983
  458W        W72773  35.050  24.279   0.755
  459W        W72774  34.069  39.830   4.128
  460W        W72775  25.767  24.251   2.607
  461W        W72776  28.015  41.520   0.641
  462W        W72777   0.968  26.673   2.271
  463W        W72778   6.368  20.936   1.265
  464W        W72779   1.455  14.189  13.501
  465W        W72780  34.654  24.072  13.940
  466W        W72781   5.531  23.052   0.461
  467W        W72782  31.482  25.440  12.345
  468W        W72783  16.709   6.268   2.108
  469W        W72784  37.031  33.056  13.361
  470W        W72785  38.513  40.799   3.839
  471W        W72786  16.271   5.023  11.226
  472W        W72787  40.579  13.790   0.746
  473W        W72788  13.201  10.387   5.153
  474W        W72789  34.434  14.053  11.568
  475W        W72790  19.738   0.420   0.933
  476W        W72791  15.863  10.283  11.070
  477W        W72792   5.135  15.697   5.102
  478W        W72793  16.878  14.788   2.263
  479W        W72794   4.335  15.582   4.603
  480W        W72795  24.257   5.158  10.640
  481W        W72796   8.918  14.210  12.070
  482W        W72797  22.680   2.735  14.975
  483W        W72798  34.613   8.889  11.928
  484W        W72799  14.239  24.192   3.127
  485W        W72800  35.320   8.646   4.758
  486W        W72801   7.211  18.737   3.629
  487W        W72802  15.848  37.491  13.573
  488W        W72803   1.976  33.075  13.382
  489W        W72804  18.111  21.250  14.853
  490W        W72805  36.089  16.057  10.758
  491W        W72806  26.474  23.455  12.582
  492W        W72807  40.260   4.416  10.626
  493W        W72808   1.315  44.789  14.790
  494W        W72809  40.566  23.381  14.031
  495W        W72810  31.880  23.437  13.771
  496W        W72811   3.063  22.068  14.282
  497W        W72812  35.604  28.224   3.273
  498W        W72813  10.174   2.321  13.539
  499W        W72814  26.038   7.520   0.428
  500W        W72815  16.814   9.859   0.189
  501W        W72816  27.106  38.053  10.576
  502W        W72817  26.116  16.089   3.207
  503W        W72818  35.865  18.939   1.063
  504W        W72819  16.001  21.484   2.783
  505W        W72820  20.543  14.737  11.520
  506W        W72821   2.787  30.177  12.910
  507W        W72822  24.185  30.195   4.584
  508W        W72823   5.157  20.905  10.062
  509W        W72824  16.976  33.159  14.192
  510W        W72825  28.719   6.131   2.631
  511W        W72826  29.502  15.153  14.958
  512W        W72827  14.458  25.457  14.714
  513W        W72828  40.912  40.800  14.778
  514W        W72829  29.467  25.574  12.943
  515W        W72830  17.362  33.931   0.894
  516W        W72831  11.717  23.023   3.656
  517W        W72832  42.979   1.752  13.360
  518W        W72833  18.628  26.045   3.825
  519W        W72834  34.079  39.934  12.592
  520W        W72835   6.397  40.273  11.427
  521W        W72836   1.787  21.085  11.963
  522W        W72837  19.561  39.000  11.517
  523W        W72838  14.244  44.477   2.141
  524W        W72839  34.424   4.023  13.061
  525W        W72840  14.618   3.889  13.823
  526W        W72841  11.326  44.451  13.543
  527W        W72842  13.600  17.076   3.826
  528W        W72843  22.400   0.296  12.048
  529W        W72844  15.451  31.970   3.377
  530W        W72845  17.823   9.803   0.398
  531W        W72846  40.371  33.223   2.221
  532W        W72847   8.708  29.428  12.061
  533W        W72848   8.775  31.731   3.093
  534W        W72849  21.962  29.910   1.154
  535W        W72850  32.981  30.540   3.575
  536W        W72851  30.655  18.189   3.360
  537W        W72852  34.886  29.341  10.787
  538W        W72853  44.907  25.361  12.364
  539W        W72854  35.779  12.175  13.372
  540W        W72855  11.308  38.719  13.914
  541W        W72856   7.009  34.709   2.446
  542W        W72857  15.095  13.400  13.326
  543W        W72858  16.700   3.427  14.502
  544W        W72859   2.562   0.830  12.320
  545W        W72860   7.680  42.800   3.371
  546W        W72861  26.844  12.670  12.174
  547W        W72862  44.911  41.570  12.882
  548W        W72863  42.902   5.416   1.319
  549W        W72864  26.711  16.740   0.725
  550W        W72865  31.169  22.529  12.953
  551W        W72866  44.969  40.258   2.814
  552W        W72867  40.385  28.590  10.653
  553W        W72868   8.679  31.916   0.481
  554W        W72869   2.346  15.692   1.697
  555W        W72870  31.696  16.806   1.824
  556W        W72871   1.775  29.116   2.338
  557W        W72872   0.996  15.734  13.002
  558W        W72873   9.409  18.848  10.097
  559W        W72874  36.179   4.892   4.330
  560W        W72875   8.848  29.519  10.945
  561W        W72876  31.144  29.965   3.233
  562W        W72877  34.490  30.959   0.053
  563W        W72878  10.831   3.934   3.673
  564W        W72879  34.877  12.378  13.533
  565W        W72880   9.812  21.716   0.818
  566W        W72881  13.927  32.341  13.509
  567W        W72882  29.182  12.010   2.393
  568W        W72883  21.675  24.416   3.102
  569W        W72884  23.731  14.066  10.566
  570W        W72885  42.226  43.561   3.114
  571W        W72886  29.512  18.190   2.449
  572W        W72887   8.848  23.502   3.525
  573W        W72888  37.262  20.171   0.990
  574W        W72889   7.582  21.476  13.477
  575W        W72890  43.826  34.465  13.127
  576W        W72891   4.276   6.278  10.537
  577W        W72892  40.521  21.024  10.078
  578W        W72893   0.419  26.927  13.406
  579W        W72894  30.338  44.442  13.906
  580W        W72895  23.403  41.541  12.072
  581W        W72896  17.298  31.428   9.659
  582W        W72897  41.543  37.480   1.360
  583W        W72898   2.004  38.406  11.141
  584W        W72899  14.243  11.347   4.217
  585W        W72900   7.733  11.032  12.683
  586W        W72901  12.756  36.426   4.731
  587W        W72902   6.266  13.815   5.067
  588W        W72903  44.647  16.604  12.647
  589W        W72904   4.142  39.044   0.458
  590W        W72905  41.028   7.877  14.928
  591W        W72906  26.022  27.602  11.438
  592W        W72907  18.018  42.922   1.238
  593W        W72908  35.634  36.925   2.485
  594W        W72909  22.806   8.548  13.638
  595W        W72910  43.101  10.004  10.252
  596W        W72911  14.179  28.921  11.631
  597W        W72912  22.668  12.435   1.859
  598W        W72913   5.213   5.862   1.344
  599W        W72914  13.684  10.750  13.484
  600W        W72915  11.693   2.821   4.827
  601W        W72916   5.387   5.810  14.414
  602W        W72917   7.064  34.725  13.840
  603W        W72918  30.589  24.037  12.276
  604W        W72919  20.157  40.615  13.814
  605W        W72920  27.559  18.570   4.619
  606W        W72921  23.666   6.431   1.512
  607W        W72922  30.668  10.814   4.260
  608W        W72923  37.385  38.840   0.333
  609W        W72924  10.281  13.098   4.556
  610W        W72925  21.702  26.979   2.957
  611W        W72926  27.059  12.737   3.648
  612W        W72927  28.168  42.804   0.402
  613W        W72928  25.555  11.554   2.716
  614W        W72929  17.769  15.146   4.881
  615W        W72930  23.874  13.639  12.158
  616W        W72931  16.640  29.514   1.241
  617W        W72932  44.379   9.290   4.058
  618W        W72933   9.788  25.698   0.487
  619W        W72934  30.553   6.737   3.177
  620W        W72935  18.724  34.137  14.975
  621W        W72936  29.916   1.047  14.508
  622W        W72937   5.167  32.211   0.840
  623W        W72938   8.976  10.340   4.132
  624W        W72939   0.306  17.370   4.175
  625W        W72940  12.737  28.877  12.020
  626W        W72941  34.218   9.747   0.198
  627W        W72942   9.338  29.090  10.306
  628W        W72943  27.159  32.601   2.420
  629W        W72944  21.491  17.868  12.007
  630W        W72945  30.518  32.550  10.671
  631W        W72946  14.773   2.871  14.257
  632W        W72947  28.049  38.510  14.316
  633W        W72948  15.573  30.075   4.757
  634W        W72949   8.439  12.409  13.243
  635W        W72950  22.261  32.113  10.522
  636W        W72951  42.463  20.934   5.326
  637W        W72952  18.134  27.671   2.860
  638W        W72953  21.437  30.268   9.939
  639W        W72954  39.493  42.924   0.748
  640W        W72955  26.378  29.101   4.590
  641W        W72956  25.889  26.720  11.482
  642W        W72957  36.728  19.809   3.204
  643W        W72958  18.550  41.442  14.845
  644W        W72959  43.893  16.173   0.960
  645W        W72960  25.220  16.638  12.540
  646W        W72961  29.073  38.250  12.015
  647W        W72962  17.143  19.945  12.016
  648W        W72963  31.660  23.231   0.016
  649W        W72964  28.612  14.147   4.092
  650W        W72965  24.097  36.533  12.107
  651W        W72966  27.420  21.467   1.301
  652W        W72967   1.915  17.263   1.868
  653W        W72968  31.170  26.765   1.751
  654W        W72969  38.792  40.788   4.293
  655W        W72970  12.149  26.938   3.323
  656W        W72971   4.827  19.268  13.930
  657W        W72972  38.694   3.463  13.519
  658W        W72973   0.342  42.302  13.692
  659W        W72974  36.288   7.211  13.053
  660W        W72975   9.098   4.545   0.724
  661W        W72976  38.517  28.449  12.894
  662W        W72977  40.236   2.867   2.710
  663W        W72978  13.653   8.961  13.808
  664W        W72979  43.418  12.688  11.077
  665W        W72980  17.535  29.703   3.769
  666W        W72981  11.273  37.773   0.967
  667W        W72982  21.133  19.365  13.685
  668W        W72983  27.015  41.810  11.164
  669W        W72984  19.876  39.861   4.147
  670W        W72985   9.624  37.034  12.032
  671W        W72986  32.523   3.365  10.778
  672W        W72987  17.486   9.818   0.820
  673W        W72988  34.446  41.894  11.173
  674W        W72989  44.720  20.982  13.752
  675W        W72990  11.787  11.258  14.264
  676W        W72991  16.860   3.430   0.793
  677W        W72992  39.214  36.372   4.237
  678W        W72993   7.462  43.395   3.885
  679W        W72994  20.321  36.025   4.523
  680W        W72995  22.460   9.447  12.088
  681W        W72996  15.838   6.339  10.600
  682W        W72997  35.517  15.131   2.333
  683W        W72998  40.786  25.492  10.206
  684W        W72999  42.187  24.469  10.997
  685W        W73000  44.751   4.893   3.595
  686W        W73001  32.875  19.478   0.375
  687W        W73002  34.984  17.921  13.179
  688W        W73003  34.368  24.570   0.916
  689W        W73004   0.997  38.308   0.963
  690W        W73005  44.407   2.754  11.551
  691W        W73006  43.892   7.892  11.455
  692W        W73007  40.547  24.482  11.928
  693W        W73008   0.940  43.612   4.691
  694W        W73009  29.115  15.127  12.399
  695W        W73010  11.193   2.156   1.382
  696W        W73011   4.787   2.959  12.500
  697W        W73012  15.847   8.878   0.856
  698W        W73013  11.535  16.473   4.202
  699W        W73014   2.398  13.834  13.088
  700W        W73015  29.567  25.422  12.439
  701W        W73016  11.685  14.267  12.393
  702W        W73017  40.978  14.255  14.535
  703W        W73018  19.136  31.749   2.306
  704W        W73019   4.629  12.082   1.655
  705W        W73020  14.546  15.700   0.923
  706W        W73021  24.183  30.186  12.899
  707W        W73022   7.427  29.643   0.499
  708W        W73023  36.160  25.306   2.781
  709W        W73024   9.102  30.748   1.789
  710W        W73025  28.944   0.854   3.854
  711W        W73026  40.229  23.508  11.186
  712W        W73027  29.034  15.777  14.511
  713W        W73028  28.563  17.943   3.876
  714W        W73029  38.157  43.394   1.716
  715W        W73030  30.105   7.736   1.163
  716W        W73031  21.067  27.875  10.235
  717W        W73032  20.833  43.329   1.302
  718W        W73033  38.028   7.226  10.666
  719W        W73034  24.704  11.098  13.979
  720W        W73035  42.533  13.118   3.352
  721W        W73036  26.047  11.447  14.535
  722W        W73037  43.343  30.079   4.250
  723W        W73038  10.313  11.771   4.887
  724W        W73039   1.481  16.785   3.179
  725W        W73040  33.991  29.366   2.691
  726W        W73041  31.846  18.829   4.231
  727W        W73042  24.756  38.885  13.046
  728W        W73043  32.880   2.376   4.284
  729W        W73044  36.631  23.692   4.699
  730W        W73045  25.581  21.141   3.685
  731W        W73046  16.741  17.744  10.491
  732W        W73047  26.610  10.226  13.333
  733W        W73048  27.079   3.204   3.735
  734W        W73049  22.240  35.629   0.975
  735W        W73050  20.255  24.791   0.853
  736W        W73051   9.490  30.242   3.972
  737W        W73052  26.046  41.434  12.610
  738W        W73053  40.372  21.053   3.045
  739W        W73054  33.469  20.101   3.620
  740W        W73055  21.311  21.654  12.555
  741W        W73056  20.269   2.258  11.661
  742W        W73057  17.034   4.857   1.218
  743W        W73058  41.506  23.013  14.894
  744W        W73059  30.429  36.134   0.362
  745W        W73060  30.513  16.780   3.369
  746W        W73061   8.085  14.734  11.249
  747W        W73062  33.971  40.076   3.570
  748W        W73063   1.580  12.788   4.123
  749W        W73064  21.774  19.022  10.929
  750W        W73065  21.717  14.721  10.821
  751W        W73066   3.411   1.454  11.441
  752W        W73067   5.624   7.607  11.924
  753W        W73068  26.173  31.514   2.174
  754W        W73069   8.143  28.524   0.733
  755W        W73070  19.295  43.306   0.381
  756W        W73071   0.345  33.039   1.673
  757W        W73072  24.792   8.386  14.632
  758W        W73073  25.573  19.970  11.933
  759W        W73074  28.872  26.993   3.610
  760W        W73075  17.206  24.233  14.748
  761W        W73076  32.323  24.551  14.973
  762W        W73077  16.930  42.785  14.908
  763W        W73078  22.492  34.880   1.807
  764W        W73079   2.750  16.674   4.664
  765W        W73080  14.962  38.784  12.892
  766W        W73081  36.921   8.936   1.960
  767W        W73082  25.608   2.651  10.526
  768W        W73083   6.851  24.014  14.896
  769W        W73084   9.780  44.492   3.698
  770W        W73085  18.387  40.920   5.648
  771W        W73086  20.618  35.514  12.452
  772W        W73087  38.073   7.982   2.016
  773W        W73088   8.575  14.590  11.268
  774W        W73089  28.662  26.925   4.101
  775W        W73090  32.970  34.888   1.021
  776W        W73091  40.111  26.055   1.448
  777W        W73092  33.991  23.664   4.574
  778W        W73093  18.301  12.272  10.839
  779W        W73094  33.409  16.426   0.413
  780W        W73095   1.385  11.774   0.797
  781W        W73096  44.747  42.562  14.189
  782W        W73097  23.637   1.262  14.257
  783W        W73098  24.073  10.062   2.204
  784W        W73099   2.336  25.448   4.608
  785W        W73100   0.465  41.785   4.026
  786W        W73101  25.086   7.266   0.392
  787W        W73102  30.565  43.890  13.258
  788W        W73103  42.035  41.317  10.309
  789W        W73104  19.524  11.603   3.513
  790W        W73105  44.436  12.268   0.961
  791W        W73106   0.137   4.405  14.904
  792W        W73107  21.229  26.447  11.531
  793W        W73108  30.940  43.763  14.914
  794W        W73109   6.065   5.085  13.263
  795W        W73110  36.452   3.485   4.758
  796W        W73111   3.984  14.235   3.438
  797W        W73112   4.711  17.276   2.516
  798W        W73113  35.168  32.816   3.685
  799W        W73114  44.667   6.811   1.499
  800W        W73115  28.906  24.046  13.970
  801W        W73116  19.000  25.131   3.910
  802W        W73117  23.695  30.590   2.094
  803W        W73118  43.277   0.292   1.334
  804W        W73119  20.760  26.122   1.790
  805W        W73120  31.445  41.508  13.843
  806W        W73121   8.207  24.206   0.933
  807W        W73122  42.052   7.619   3.454
  808W        W73123  12.533  29.489   1.839
  809W        W73124  21.613  24.139  10.597
  810W        W73125  42.915   5.095   4.918
  811W        W73126  29.839  16.765  11.636
  812W        W73127  24.665  28.879   4.556
  813W        W73128   9.125  36.865   1.107
  814W        W73129  18.294  40.889   1.795
  815W        W73130  23.763  13.744   4.056
  816W        W73131  16.272  38.535   0.907
  817W        W73132   2.728  21.406   2.222
  818W        W73133  28.278  35.022   4.742
  819W        W73134  33.027  31.375   4.602
  820W        W73135  27.816   9.444  11.067
  821W        W73136   6.792  25.238  14.283
  822W        W73137  12.564  25.468   4.635
  823W        W73138  40.485  30.912   3.719
  824W        W73139  35.973  37.279   2.666
  825W        W73140  39.585  18.971  11.770
  826W        W73141  39.829  23.127   1.370
  827W        W73142  35.643  13.138   1.969
  828W        W73143   5.283  14.020  12.680
  829W        W73144  13.484   6.715  11.586
  830W        W73145  12.142  19.338  13.114
  831W        W73146   6.341  19.460  10.326
  832W        W73147  33.008  17.776  14.595
  833W        W73148  38.783  10.068   0.877
  834W        W73149  33.421  36.645  13.532
  835W        W73150  43.300   3.145  14.064
  836W        W73151   6.827  40.127   0.365
  837W        W73152  16.563  42.298   0.913
  838W        W73153  24.998  37.467   4.040
  839W        W73154  13.321  27.573   1.350
  840W        W73155  11.129  23.668   1.690
  841W        W73156   0.409  36.035   3.025
  842W        W73157  20.724  35.144  13.982
  843W        W73158  27.543   6.510  14.703
  844W        W73159  24.967  42.772   0.390
  845W        W73160  19.452   6.890   1.269
  846W        W73161  28.640  27.480  10.558
  847W        W73162  23.324  31.456   3.571
  848W        W73163  19.206  15.396   4.121
  849W        W73164  43.248  13.271  14.281
  850W        W73165   1.284  11.229   0.417
  851W        W73166  12.382  27.425  14.017
  852W        W73167   0.247  32.095   2.090
  853W        W73168  21.816  15.653   4.171
  854W        W73169  13.231  11.251   2.744
  855W        W73170  12.337  40.014  11.931
  856W        W73171   2.700  31.037  13.399
  857W        W73172   3.159  17.232   3.772
  858W        W73173  38.739  26.079   4.032
  859W        W73174  10.187   6.712   5.093
  860W        W73175   3.304  13.055  10.711
  861W        W73176  33.558   8.726  11.251
  862W        W73177  11.669  16.861   4.632
  863W        W73178  12.230  25.627   2.125
  864W        W73179  40.041   3.948   1.033
  865W        W73180  27.595  30.749  10.504
  866W        W73181  19.699  17.753  14.043
  867W        W73182  16.567  37.895   2.366
  868W        W73183  39.866  12.971  13.417
  869W        W73184  31.506  10.371   3.218
  870W        W73185   7.208  19.647   3.404
  871W        W73186  41.454  26.363  14.966
  872W        W73187  34.470  28.515   0.748
  873W        W73188  37.555  35.434   1.219
  874W        W73189   3.916  30.231   2.801
  875W        W73190  33.339  24.112  13.283
  876W        W73191  37.570  36.998   4.828
  877W        W73192   8.070  40.393   2.329
  878W        W73193  11.204  28.836   3.781
  879W        W73194  44.267  40.956   4.615
  880W        W73195  42.281  36.119  13.462
  881W        W73196  13.132  16.561  12.753
  882W        W73197  10.705  20.034   2.659
  883W        W73198   5.937  11.197   1.316
  884W        W73199  23.154  26.142   3.366
  885W        W73200  24.583  40.047   4.518
  886W        W73201  36.171  32.884  14.383
  887W        W73202  21.593  18.143  11.326
  888W        W73203   9.885   6.897  13.254
  889W        W73204  33.693  12.829  13.331
  890W        W73205   9.365   6.801   0.995
  891W        W73206  30.195  37.881   0.417
  892W        W73207   4.273   8.771   0.508
  893W        W73208  40.861  16.181   4.455
  894W        W73209   3.697  41.344   2.789
  895W        W73210  44.296  17.748  11.612
  896W        W73211  33.666   6.163  14.015
  897W        W73212   6.859  15.623   2.729
  898W        W73213  25.776  30.051   3.345
  899W        W73214   4.988  11.846   1.956
  900W        W73215  15.993  36.835   1.200
  901W        W73216  44.528   8.366  11.616
  902W        W73217  12.144  35.880  13.734
  903W        W73218   7.210  29.024   2.739
  904W        W73219  28.847  12.910  11.965
  905W        W73220   7.770  21.842   2.647
  906W        W73221  12.737   3.951   1.170
  907W        W73222  27.391   7.796  14.478
  908W        W73223  25.932  19.125   0.321
  909W        W73224  39.973  38.384   2.939
  910W        W73225  19.625  13.247  13.852
  911W        W73226   0.943  18.821  14.947
  912W        W73227  33.719   3.462   1.011
  913W        W73228  35.289  39.501  12.471
  914W        W73229   4.251  26.724  12.370
  915W        W73230   4.384  27.329   0.406
  916W        W73231  19.338   2.791  12.021
  917W        W73232   1.101   2.738   1.771
  918W        W73233   6.695  33.899   1.830
  919W        W73234  30.961  25.975  11.352
  920W        W73235   6.193  32.076  14.781
  921W        W73236   0.963  16.233   0.503
  922W        W73237  16.574   0.895  14.982
  923W        W73238  10.400   4.600   2.389
  924W        W73239  19.835  19.751   3.310
  925W        W73240  34.999  44.173   0.491
  926W        W73241  34.811  41.724   2.834
  927W        W73242  25.995   4.085   5.043
  928W        W73243   6.147  10.112   0.336
  929W        W73244  38.069   8.900  11.017
  930W        W73245  22.650  39.016  11.038
  931W        W73246   2.456  21.096  10.379
  932W        W73247  43.472  31.561  12.872
  933W        W73248  28.209  10.797   2.028
  934W        W73249  24.464  43.360  12.363
  935W        W73250   0.319   8.165  12.991
  936W        W73251  44.618   9.690  14.315
  937W        W73252  36.429  31.142   0.456
  938W        W73253  37.350  42.327   4.721
  939W        W73254  12.794  28.548   0.808
  940W        W73255   3.915  34.115  11.237
  941W        W73256  21.664  20.011  14.032
  942W        W73257  20.744  26.673   0.113
  943W        W73258   9.891  40.869  10.613
  944W        W73259  25.798   0.323  11.361
  945W        W73260   4.111  29.154  13.366
  946W        W73261  43.044  41.502   0.459
  947W        W73262  35.477  33.886  11.139
  948W        W73263  28.858   5.454  12.530
  949W        W73264   3.980  20.497   4.182
  950W        W73265  12.203  19.745   2.705
  951W        W73266   2.325  10.811  11.102
  952W        W73267  10.689  11.138   3.608
  953W        W73268  22.809   2.748  12.401
  954W        W73269  41.585   7.640  11.141
  955W        W73270  43.715  28.704  13.653
  956W        W73271  15.800  14.388  12.951
  957W        W73272   9.509  30.037   2.515
  958W        W73273  13.511  41.716   3.712
  959W        W73274   8.836  34.436  13.965
  960W        W73275  35.109  19.528   0.998
  961W        W73276   0.542  43.717  13.897
  962W        W73277  40.821  35.522  11.227
  963W        W73278  19.321   5.470   3.739
  964W        W73279  10.526   0.275  11.993
  965W        W73280   3.377  24.860   4.594
  966W        W73281  27.577   0.917   1.925
  967W        W73282  18.054  26.928   2.269
  968W        W73283  21.077   6.091   2.204
  969W        W73284   1.123  13.544  12.369
  970W        W73285  31.347   4.226  12.133
  971W        W73286  38.260  24.121   0.946
  972W        W73287  15.880   4.456  13.925
  973W        W73288  16.903   1.285  14.874
  974W        W73289  14.334  14.567  13.463
  975W        W73290  19.582  32.477  11.144
  976W        W73291  11.150   9.309   0.448
  977W        W73292  33.362  13.665   3.021
  978W        W73293  18.473  15.835  10.431
  979W        W73294   9.078  25.242  12.049
  980W        W73295  31.145  14.367   0.105
  981W        W73296  39.666  20.663  11.109
  982W        W73297  33.636  38.388   4.274
  983W        W73298  26.236   3.263  13.515
  984W        W73299   1.805  32.243  12.270
  985W        W73300   2.272  30.513  13.502
  986W        W73301  32.248  16.605   3.678
  987W        W73302  25.812  31.070   0.298
  988W        W73303  18.500   0.176  11.457
  989W        W73304  39.125  27.169  11.180
  990W        W73305  32.819  33.609  12.135
  991W        W73306   8.785  44.331  14.884
  992W        W73307  33.682  28.846   1.100
  993W        W73308  29.913  13.087  14.673
  994W        W73309  39.031  18.673  10.481
  995W        W73310   2.206  11.219  10.757
  996W        W73311  24.624  23.555   2.669
  997W        W73312  28.370  20.489  11.076
  998W        W73313  15.714  25.594   0.878
  999W        W73314   8.184  18.116   1.808
 1000W        W73315  30.078  14.323   2.467
 1001W        W73316   2.819  21.259   1.232
 1002W        W73317  28.948  33.986  12.789
 1003W        W73318  18.790  18.741  12.878
 1004W        W73319  34.015  14.344   0.051
 1005W        W73320  40.815  35.158   4.711
 1006W        W73321  38.587  22.680  13.312
 1007W        W73322  44.347  26.957   3.334
 1008W        W73323  14.344   0.941  11.984
 1009W        W73324  44.739  31.462   1.483
 1010W        W73325  17.184   2.379  12.256
 1011W        W73326  22.096  27.073  13.376
 1012W        W73327  21.452  29.108  11.508
 1013W        W73328  35.426  33.337  13.581
 1014W        W73329   9.894  11.044   2.339
 1015W        W73330   1.162  15.663   2.286
 1016W        W73331  44.239  16.837   0.359
 1017W        W73332  29.073  17.692   4.094
 1018W        W73333  23.609  22.187   3.084
 1019W        W73334  26.762  33.397  12.515
 1020W        W73335  27.413  41.346   3.261
 1021W        W73336  13.806  11.221   0.477
 1022W        W73337  23.703  42.431   4.611
 1023W        W73338  20.085   8.489  14.517
 1024W        W73339  14.619  29.567   1.819
 1025W        W73340  14.623   1.958  14.941
 1026W        W73341  37.003  23.736  14.029
 1027W        W73342  14.614   8.891  11.498
 1028W        W73343  27.867  25.996  12.568
 1029W        W73344  24.456  22.181  10.272
 1030W        W73345  38.143  23.083  10.723
 1031W        W73346  44.006  33.796   3.659
 1032W        W73347  40.984  16.070   3.566
 1033W        W73348  25.970  22.271  10.550
 1034W        W73349   0.413  41.004   1.636
 1035W        W73350   4.305  19.965   0.806
 1036W        W73351  37.470   4.371  12.103
 1037W        W73352  23.685  34.994   2.475
 1038W        W73353   1.320  32.181  11.252
 1039W        W73354   6.891  16.866  10.779
 1040W        W73355  12.360  38.796   1.312
 1041W        W73356  18.966  29.120  11.088
 1042W        W73357   8.136  41.092   2.947
 1043W        W73358  22.128  15.915  11.083
 1044W        W73359  20.001  32.550   4.166
 1045W        W73360  43.958  29.095  14.019
 1046W        W73361   9.200  22.716  13.906
 1047W        W73362  42.828   4.906  12.317
 1048W        W73363   4.763   2.783   4.691
 1049W        W73364   1.308   5.350   0.454
 1050W        W73365  13.667  42.602  10.848
 1051W        W73366  37.907   4.361   0.432
 1052W        W73367  26.253  15.707   1.339
 1053W        W73368  43.672  27.366  14.426
 1054W        W73369  30.096  13.825   2.653
 1055W        W73370  28.386  44.221   4.263
 1056W        W73371  41.572  10.492   4.187
 1057W        W73372  21.294  30.137  14.851
 1058W        W73373   6.253  27.028   4.926
 1059W        W73374  29.200   4.027  13.978
 1060W        W73375  36.330   9.712  12.931
 1061W        W73376  43.316  23.142  11.379
 1062W        W73377   6.277  37.308  14.416
 1063W        W73378  35.316  11.523  11.722
 1064W        W73379  34.604  41.588   3.281
 1065W        W73380  38.551  37.160   2.872
 1066W        W73381   9.398  37.215   0.856
 1067W        W73382   7.179  42.758   3.297
 1068W        W73383   3.318   5.929  14.949
 1069W        W73384   2.937  28.320  12.535
 1070W        W73385   5.326  22.497  12.438
 1071W        W73386   3.361  12.919  14.992
 1072W        W73387  19.800  11.405   0.972
 1073W        W73388  39.978  24.565   5.090
 1074W        W73389   6.364  11.611   1.335
 1075W        W73390  44.356  28.124  14.716
 1076W        W73391  40.857  37.602   3.738
 1077W        W73392  32.832  19.283   3.729
 1078W        W73393  33.867  20.119   3.065
 1079W        W73394  21.241  14.286   0.269
 1080W        W73395  12.822  25.026  11.709
 1081W        W73396  35.128  35.854  12.788
 1082W        W73397  25.083  22.290   3.243
 1083W        W73398   9.121   0.892   2.439
 1084W        W73399   4.520  11.758   1.247
 1085W        W73400  28.086   5.219   5.044
 1086W        W73401  12.309   0.548   4.081
 1087W        W73402   7.006  42.809  13.897
 1088W        W73403  14.669  20.083   1.556
 1089W        W73404  17.086  37.364  12.524
 1090W        W73405  31.594  13.503   2.451
 1091W        W73406   8.340  11.784   0.723
 1092W        W73407  36.018  19.036   3.551
 1093W        W73408  21.022  16.148   3.541
 1094W        W73409  19.787  14.775   3.837
 1095W        W73410  39.311  44.815  11.609
 1096W        W73411   0.129  26.540   1.723
 1097W        W73412  21.687  41.051  12.933
 1098W        W73413  42.091  21.225   0.720
 1099W        W73414  29.394  17.597   1.738
 1100W        W73415  20.292  15.631   4.016
 1101W        W73416  44.976  21.017   4.770
 1102W        W73417  28.787  44.773  11.047
 1103W        W73418  43.945  10.920  12.413
 1104W        W73419  18.252  21.490  13.887
 1105W        W73420   1.683  29.638  14.709
 1106W        W73421   4.297  41.413   4.546
 1107W        W73422  14.825  12.159   0.791
 1108W        W73423  14.430  44.478  11.953
 1109W        W73424  14.749  22.276  10.401
 1110W        W73425  36.955  10.833  14.942
 1111W        W73426   0.748   2.722  11.171
 1112W        W73427  26.099   5.719  13.624
 1113W        W73428  35.804   7.861   3.671
 1114W        W73429  14.187  10.802   3.848
 1115W        W73430  36.096  24.511  12.055
 1116W        W73431  23.081  41.046  13.523
 1117W        W73432  13.836  38.919  13.976
 1118W        W73433   5.911   5.804  14.394
 1119W        W73434  25.214  10.097   0.090
 1120W        W73435   5.622  13.776   3.760
 1121W        W73436  42.678  17.015   5.045
 1122W        W73437  40.231  12.588  13.925
 1123W        W73438  12.127  32.030   1.479
 1124W        W73439  15.642  35.808   4.553
 1125W        W73440  22.240  33.505   0.915
 1126W        W73441  16.291   5.800  11.843
 1127W        W73442   4.861  23.065   0.454
 1128W        W73443  41.543  35.173  10.764
 1129W        W73444  19.029  33.522   0.235
 1130W        W73445  29.799   4.744   1.282
 1131W        W73446  14.871   1.998   3.775
 1132W        W73447   4.215  42.328   4.147
 1133W        W73448  11.156   0.616   1.304
 1134W        W73449  27.391  21.717   0.833
 1135W        W73450  44.963  34.503  14.291
 1136W        W73451  27.603  21.237   1.772
 1137W        W73452   3.886   8.427   0.537
 1138W        W73453   0.528   0.474   4.182
 1139W        W73454  22.638  38.510  12.329
 1140W        W73455  15.361   7.667   3.559
 1141W        W73456  10.868  25.163   3.790
 1142W        W73457  27.986  20.104  11.555
 1143W        W73458  14.924  10.818  11.021
 1144W        W73459  30.515  22.550   0.245
 1145W        W73460  16.868  18.010   3.669
 1146W        W73461  10.507  12.370   3.131
 1147W        W73462  34.698  33.578   4.680
 1148W        W73463  20.622  35.976  14.325
 1149W        W73464  29.294  31.681   3.253
 1150W        W73465  31.671  11.248  11.391
 1151W        W73466  27.961   1.027  14.790
 1152W        W73467  17.127  31.241  11.077
 1153W        W73468   4.316  20.311  14.474
 1154W        W73469  28.493  37.764  13.864
 1155W        W73470  23.183  12.565   0.479
 1156W        W73471   3.746  15.690   1.835
 1157W        W73472  14.736  23.675  13.630
 1158W        W73473  13.381  11.552   1.866
 1159W        W73474  22.497  40.361   9.968
 1160W        W73475  44.298  30.497  13.414
 1161W        W73476  40.497  19.068   0.941
 1162W        W73477  21.634  35.078  11.071
 1163W        W73478  20.583  43.287  14.007
 1164W        W73479   1.256  20.716  14.843
 1165W        W73480  39.446   7.733   4.576
 1166W        W73481  24.220  13.296  11.878
 1167W        W73482   4.677  16.788  14.529
 1168W        W73483  31.946  16.677   4.115
 1169W        W73484   5.711  34.375   3.229
 1170W        W73485   2.283   3.937   2.225
 1171W        W73486  42.503  27.762  11.199
 1172W        W73487   6.883  31.120   2.115
 1173W        W73488   5.751  35.559   4.189
 1174W        W73489  27.069  39.904   1.838
 1175W        W73490  40.791  28.012  12.006
 1176W        W73491  11.792  25.929   2.153
 1177W        W73492  39.636  41.977  12.680
 1178W        W73493  28.053  34.041   0.445
 1179W        W73494  27.537  34.512  14.411
 1180W        W73495  25.714  29.952   0.972
 1181W        W73496   6.729  35.870  11.838
 1182W        W73497   3.882  43.935  14.849
 1183W        W73498  10.692   6.571  11.730
 1184W        W73499  30.201  36.412   1.394
 1185W        W73500  16.235   8.214  14.472
 1186W        W73501  42.752   7.745  13.826
 1187W        W73502  27.265  15.685  14.985
 1188W        W73503  15.554  27.073   4.259
 1189W        W73504  24.762  44.302  13.036
 1190W        W73505  12.365  32.539  12.805
 1191W        W73506   8.222  21.524  12.311
 1192W        W73507  43.790  44.872  10.525
 1193W        W73508  31.614  14.252  11.006
 1194W        W73509  12.855   1.958  12.458
 1195W        W73510  39.635  27.334  12.002
 1196W        W73511  20.234  20.227  12.166
 1197W        W73512   6.298   5.834   1.417
 1198W        W73513  16.887  40.363  11.564
 1199W        W73514  22.295  25.002   0.922
 1200W        W73515  44.969  33.621  13.988
 1201W        W73516  17.181  38.610  13.042
 1202W        W73517  13.102   5.946  12.626
 1203W        W73518   6.201  16.350  11.951
 1204W        W73519  42.864   0.932  13.892
 1205W        W73520  20.726  15.095  14.914
 1206W        W73521  25.609  36.175   0.264
 1207W        W73522  28.011  11.674   0.745
 1208W        W73523  41.392  21.282  14.456
 1209W        W73524  35.218  18.203  12.578
 1210W        W73525  13.364  20.625  12.025
 1211W        W73526  41.202  15.824   4.567
 1212W        W73527  27.967  12.732   2.650
 1213W        W73528   8.351  12.276  12.407
 1214W        W73529  22.034  39.041   2.770
 1215W        W73530  10.391  19.675   1.901
 1216W        W73531  35.348  40.766  13.600
 1217W        W73532  18.232  44.996  11.863
 1218W        W73533   9.325  38.317  12.881
 1219W        W73534   1.297  25.178   3.683
 1220W        W73535   9.162  35.419   1.309
 1221W        W73536  40.775  15.106   4.258
 1222W        W73537   8.334   8.666  11.999
 1223W        W73538  23.715  36.516  12.471
 1224W        W73539  20.689  36.495   1.482
 1225W        W73540  24.511  41.777  13.497
 1226W        W73541  34.660  38.693  12.459
 1227W        W73542  39.317   5.202   2.729
 1228W        W73543  20.719  27.939  11.191
 1229W        W73544   3.241  42.038  13.849
 1230W        W73545  36.842  34.876   4.622
 1231W        W73546  41.218  25.514   0.682
 1232W        W73547   7.324   5.212  11.453
 1233W        W73548   7.073   7.856   2.711
 1234W        W73549   8.803  11.884   0.539
 1235W        W73550   6.664  29.772  14.757
 1236W        W73551  32.333   9.700   3.889
 1237W        W73552  22.969   5.946  12.115
 1238W        W73553   2.894  12.808   4.471
 1239W        W73554  35.824  44.475   3.906
 1240W        W73555  13.491  38.864   3.340
 1241W        W73556  34.839  36.940  13.798
 1242W        W73557  31.728  44.083   4.911
 1243W        W73558  10.378   0.020   2.063
 1244W        W73559   5.413  38.833  13.902
 1245W        W73560  41.097  19.401   2.661
 1246W        W73561  23.760  41.717  11.155
 1247W        W73562  12.871  44.344   1.671
 1248W        W73563  33.380  29.123   1.898
 1249W        W73564  40.925   1.757  13.284
 1250W        W73565  13.114   9.860  11.548
 1251W        W73566  15.264  13.792   1.213
 1252W        W73567  21.036  39.403  12.675
 1253W        W73568  31.883  14.202  10.565
 1254W        W73569  38.959   4.431  11.069
 1255W        W73570  17.185   6.782  12.090
 1256W        W73571   2.067  35.982  11.115
 1257W        W73572  26.490   7.881   0.019
 1258W        W73573  34.372  16.042   0.512
 1259W        W73574  13.073  33.602   0.048
 1260W        W73575  27.331  17.320   0.383
 1261W        W73576  17.512  13.331  14.450
 1262W        W73577  39.069   0.036   3.669
 1263W        W73578  27.477   0.713  14.395
 1264W        W73579  41.647   2.287  13.453
 1265W        W73580  42.228  43.259   4.475
 1266W        W73581  23.376  19.982   2.446
 1267W        W73582  20.066  25.038  10.697
 1268W        W73583   1.651  39.433   0.422
 1269W        W73584  29.229  34.606  11.997
 1270W        W73585   1.515  38.990  12.953
 1271W        W73586  12.004  17.269  14.759
 1272W        W73587   9.205   6.403   4.563
 1273W        W73588  16.671  12.734   2.092
 1274W        W73589  19.434  12.557  13.297
 1275W        W73590   5.072  19.662   2.339
 1276W        W73591  26.720  23.917  10.778
 1277W        W73592  34.624   0.428   4.773
 1278W        W73593  26.949  18.350   0.790
 1279W        W73594   3.436  18.468   0.878
 1280W        W73595  33.074  24.673  12.991
 1281W        W73596  10.617  11.817   0.881
 1282W        W73597  37.018   4.910  11.219
 1283W        W73598  26.021  12.761   1.717
 1284W        W73599  29.004  22.299  10.808
 1285W        W73600  16.100  38.080   0.694
 1286W        W73601  23.946  14.980   2.490
 1287W        W73602  22.606  17.301  11.172
 1288W        W73603   3.440   7.841  11.134
 1289W        W73604  10.251  20.140  14.482
 1290W        W73605   5.359  38.077  14.462
 1291W        W73606   8.266  14.126   3.901
 1292W        W73607  31.638  31.654   2.548
 1293W        W73608  42.480  14.474  10.525
 1294W        W73609   8.363  35.792  14.715
 1295W        W73610  29.752  10.216  14.460
 1296W        W73611  38.824  10.532   4.645
 1297W        W73612  40.788  27.235   4.406
 1298W        W73613  19.293  34.652  12.420
 1299W        W73614  39.685   4.883  10.918
 1300W        W73615   7.266  18.762   0.303
 1301W        W73616   7.669   2.737   3.239
 1302W        W73617  12.401   1.541  11.613
 1303W        W73618  30.494  20.602   0.187
 1304W        W73619  21.557  39.020  10.338
 1305W        W73620  23.797  13.268   1.685
 1306W        W73621  22.552  10.157   2.357
 1307W        W73622  18.769   9.139  12.890
 1308W        W73623  18.737  19.432   9.702
 1309W        W73624  44.908   6.967   1.964
 1310W        W73625  33.989  43.904   4.118
 1311W        W73626  15.288   0.238   4.150
 1312W        W73627  27.463   4.505   1.290
 1313W        W73628  19.141  37.356   4.725
 1314W        W73629  34.883   7.779  14.842
 1315W        W73630  26.025  29.993  12.638
 1316W        W73631  21.008  13.862  12.458
 1317W        W73632  15.249   3.971   1.719
 1318W        W73633  10.226   5.640   1.033
 1319W        W73634   1.808  17.575   2.781
 1320W        W73635   5.432  41.540   0.489
 1321W        W73636  19.514   9.487  14.803
 1322W        W73637  24.434  29.540   1.210
 1323W        W73638  29.330  17.213   0.972
 1324W        W73639  26.200   7.493  14.136
 1325W        W73640  27.914  44.941   0.462
 1326W        W73641  41.788  19.363   2.852
 1327W        W73642  10.160  10.348   0.772
 1328W        W73643  30.484  35.682  11.503
 1329W        W73644  28.811  38.620  12.364
 1330W        W73645  22.198  22.109  11.487
 1331W        W73646   5.764  36.396   4.081
 1332W        W73647  24.072  41.007  14.433
 1333W        W73648  33.881  11.183   4.072
 1334W        W73649  13.233  34.857  14.962
 1335W        W73650  10.835   0.724   4.922
 1336W        W73651  21.923   2.806  13.372
 1337W        W73652   3.881  32.132   0.479
 1338W        W73653   9.808  13.773  11.445
 1339W        W73654  24.883   1.416  13.853
 1340W        W73655  24.742  21.269   1.839
 1341W        W73656  14.818  11.825   2.010
 1342W        W73657  16.314  16.292   3.382
 1343W        W73658  22.030  17.646   1.873
 1344W        W73659  42.592  19.092  14.953
 1345W        W73660  34.850  24.210   2.781
 1346W        W73661  32.643  31.811  14.378
 1347W        W73662  27.685  12.058   0.635
 1348W        W73663  11.432  23.556   2.168
 1349W        W73664  31.970  29.147   2.603
 1350W        W73665  34.084  13.149  10.669
 1351W        W73666  27.604   2.888   2.154
 1352W        W73667  32.000  22.692   3.225
 1353W        W73668  11.639   3.322  13.461
 1354W        W73669  42.040  24.028  14.747
 1355W        W73670  32.440  29.114   0.447
 1356W        W73671  35.578  32.913  13.313
 1357W        W73672  33.951  36.405  14.061
 1358W        W73673   7.554   1.887  11.525
 1359W        W73674   5.690  44.946   0.223
 1360W        W73675  30.851  21.335   4.238
 1361W        W73676   6.406  44.941   4.482
 1362W        W73677  31.903  42.370   0.248
 1363W        W73678  39.445  13.950   3.358
 1364W        W73679  10.017  35.295  12.072
 1365W        W73680  36.918   5.769  11.199
 1366W        W73681  44.422  18.520   0.758
 1367W        W73682  29.900   0.051  12.128
 1368W        W73683   6.210  40.046   3.065
 1369W        W73684  20.061  35.594   4.603
 1370W        W73685  20.694  38.823   1.207
 1371W        W73686  37.933  29.594   1.608
 1372W        W73687  14.350  28.659  11.233
 1373W        W73688   0.325  40.996  13.399
 1374W        W73689   8.143  11.652   1.304
 1375W        W73690  19.035  18.651  13.323
 1376W        W73691  28.486  31.684  10.635
 1377W        W73692  34.809  13.782   3.672
 1378W        W73693  14.843  17.816   0.954
 1379W        W73694  19.767  29.652   1.724
 1380W        W73695  17.268  26.322   2.337
 1381W        W73696  22.006  14.907  11.186
 1382W        W73697  44.986   5.828   2.596
 1383W        W73698   0.882  18.675   4.853
 1384W        W73699  17.075  29.104  13.033
 1385W        W73700   9.308  39.846   3.221
 1386W        W73701  21.064   4.979   1.382
 1387W        W73702   9.846  28.507   4.931
 1388W        W73703  24.458  13.842   3.413
 1389W        W73704  38.904  42.540  11.999
 1390W        W73705  41.963  17.885  14.065
 1391W        W73706   7.738  12.820   4.609
 1392W        W73707  19.113  16.635   4.806
 1393W        W73708   4.505  16.483  11.567
 1394W        W73709  17.091  41.533  11.018
 1395W        W73710  40.366  20.140  10.754
 1396W        W73711  20.183   5.690   0.825
 1397W        W73712   4.260  26.041  11.119
 1398W        W73713   9.334   7.320   4.066
 1399W        W73714  36.069  16.282  11.485
 1400W        W73715  30.593  22.897   2.382
 1401W        W73716   6.598   2.072   2.770
 1402W        W73717  20.119   7.423  13.334
 1403W        W73718  35.808  25.593   3.587
 1404W        W73719   5.272  25.232  13.582
 1405W        W73720   1.976   1.624  11.161
 1406W        W73721   5.483  16.505  14.675
 1407W        W73722  21.804  20.983   2.212
 1408W        W73723   1.381  10.306   4.380
 1409W        W73724  39.027   3.332  14.271
 1410W        W73725  16.545  18.257   3.288
 1411W        W73726  30.218   6.228   4.558
 1412W        W73727  32.158  41.057  13.431
 1413W        W73728  10.543  22.102  12.403
 1414W        W73729  43.627  12.761   1.484
 1415W        W73730  26.373  35.402  14.436
 1416W        W73731   6.157   4.887   5.153
 1417W        W73732  24.209  33.109  12.110
 1418W        W73733   2.318   4.604   1.253
 1419W        W73734  34.390  28.520  11.561
 1420W        W73735  15.683   0.253  12.400
 1421W        W73736  39.035   5.306   3.164
 1422W        W73737  16.286  23.038  14.325
 1423W        W73738  21.496  11.329  11.601
 1424W        W73739  14.918  12.358   1.318
 1425W        W73740   5.699  21.793  11.072
 1426W        W73741   0.668  33.828  14.505
 1427W        W73742   5.942  17.794  11.241
 1428W        W73743  39.443  11.635   2.407
 1429W        W73744  15.381  40.330  13.562
 1430W        W73745   7.835   4.709   0.441
 1431W        W73746  43.306  28.970   4.310
 1432W        W73747  12.518  31.071  11.219
 1433W        W73748   9.198  32.993   4.837
 1434W        W73749  12.763   8.364  14.514
 1435W        W73750  23.923  28.099   2.814
 1436W        W73751  23.787   2.918  11.519
 1437W        W73752   2.747   6.657   0.063
 1438W        W73753  32.125  25.495   1.465
 1439W        W73754  14.790  36.777  10.699
 1440W        W73755  38.565  12.394  12.377
 1441W        W73756   1.571  14.220   4.726
 1442W        W73757  14.505   4.242   0.280
 1443W        W73758   1.778   1.454  13.858
 1444W        W73759   6.336  21.041  12.051
 1445W        W73760  31.673  31.912  11.937
 1446W        W73761  29.199   6.412   0.980
 1447W        W73762  34.159  37.909  12.182
 1448W        W73763  29.031  37.518  11.015
 1449W        W73764  27.375  18.517   1.688
 1450W        W73765  27.683  15.765  11.134
 1451W        W73766  36.454   5.785  10.335
 1452W        W73767  42.786  13.121  14.102
 1453W        W73768  40.123  43.250  12.439
 1454W        W73769  43.976  10.414  12.357
 1455W        W73770  43.781  20.508   4.198
 1456W        W73771  44.015  36.809   0.437
 1457W        W73772  16.185  38.563  13.870
 1458W        W73773  27.126  40.378  14.224
 1459W        W73774  22.825   2.262   0.386
 1460W        W73775  39.453  21.601  10.771
 1461W        W73776  17.624  40.061  11.541
 1462W        W73777  17.024  43.392   1.650
 1463W        W73778   9.918  29.877  12.863
 1464W        W73779  36.845  21.680   0.192
 1465W        W73780   8.393  11.390   2.738
 1466W        W73781  17.630  27.094  12.079
 1467W        W73782  27.365  29.915   4.929
 1468W        W73783  13.663   9.645   4.468
 1469W        W73784  21.870  18.748  14.808
 1470W        W73785  41.994  39.531   1.910
 1471W        W73786   0.934  38.583   1.373
 1472W        W73787   7.537   9.711   0.457
 1473W        W73788   0.356  37.996   4.127
 1474W        W73789   0.186  14.479   2.348
 1475W        W73790  30.559   1.523  14.915
 1476W        W73791   3.779  22.159  13.495
 1477W        W73792   3.858  28.201   2.407
 1478W        W73793   0.559   8.199  14.082
 1479W        W73794  12.794  31.109  10.686
 1480W        W73795   5.232  42.366   2.832
 1481W        W73796  44.030   3.117   4.186
 1482W        W73797  21.753  28.951  11.115
 1483W        W73798  37.061  23.033   0.469
 1484W        W73799  32.060  15.883  13.463
 1485W        W73800  24.736  15.748  14.426
 1486W        W73801   3.021  44.082   0.347
 1487W        W73802   4.681  26.477  12.699
 1488W        W73803  40.790  25.958   4.698
 1489W        W73804  21.042  13.865   3.836
 1490W        W73805  26.516  44.540  12.558
 1491W        W73806   1.392   9.818   5.420
 1492W        W73807   8.228  15.334  10.655
 1493W        W73808  42.502  25.644   3.592
 1494W        W73809   1.698  22.617   1.957
 1495W        W73810  28.256  14.289  11.549
 1496W        W73811   3.775  20.736  10.518
 1497W        W73812  33.089  29.377  13.918
 1498W        W73813  34.491  25.265  12.090
 1499W        W73814   8.008  30.503  11.032
 1500W        W73815  13.721  24.775   2.887
 1501W        W73816  11.351  35.586  13.441
 1502W        W73817  28.213   3.614  10.601
 1503W        W73818  32.127  39.855  14.142
 1504W        W73819   1.736  30.067  10.686
 1505W        W73820  17.544  10.121  11.886
 1506W        W73821  33.015  33.726  11.559
 1507W        W73822   5.385   3.807  10.527
 1508W        W73823  11.145  19.049  13.788
 1509W        W73824  38.996  10.077  11.594
 1510W        W73825  18.973  41.038  11.106
 1511W        W73826  43.713  38.470   4.671
 1512W        W73827  17.252  42.901  10.957
 1513W        W73828  20.668   3.289   1.439
 1514W        W73829  10.152  23.636  12.153
 1515W        W73830  30.515  10.200   1.789
 1516W        W73831  35.074  41.973   2.193
 1517W        W73832  28.077  21.025  14.004
 1518W        W73833  35.408  43.575   2.292
 1519W        W73834  33.939  15.780  12.905
 1520W        W73835  40.707  18.488  11.353
 1521W        W73836   0.720  38.494  11.548
 1522W        W73837   6.428  16.810   1.403
 1523W        W73838  14.614  43.551  13.335
 1524W        W73839   7.682  36.503   4.926
 1525W        W73840  25.222   7.157   1.266
 1526W        W73841  24.277  37.911  12.042
 1527W        W73842  22.199   2.889  14.962
 1528W        W73843  30.442  35.933   1.338
 1529W        W73844  33.582   4.910  13.549
 1530W        W73845  40.496  43.536   0.383
 1531W        W73846  37.952  40.416   2.825
 1532W        W73847  25.816  36.977  13.524
 1533W        W73848  20.243  11.269  14.448
 1534W        W73849  15.767  15.788  11.482
 1535W        W73850  36.952  24.558  14.368
 1536W        W73851  12.942  36.437  13.595
 1537W        W73852  14.572  26.941  14.452
 1538W        W73853   9.900  24.229  14.495
 1539W        W73854  44.511  35.247   1.245
 1540W        W73855  27.091  21.286  12.194
 1541W        W73856  24.326  11.435   5.071
 1542W        W73857  18.570  42.429  12.086
 1543W        W73858  38.553  43.461  12.653
 1544W        W73859  11.197  36.298   2.750
 1545W        W73860  38.906  43.525  11.733
 1546W        W73861  20.987  14.056  12.924
 1547W        W73862  14.783   1.517  13.983
 1548W        W73863  12.256  20.875  12.848
 1549W        W73864  25.965  25.006  11.555
 1550W        W73865   7.866  40.977  14.581
 1551W        W73866  23.583  35.606   0.290
 1552W        W73867  36.016  15.589  12.039
 1553W        W73868   2.314  36.432   2.411
 1554W        W73869  36.728   4.539  11.014
 1555W        W73870   7.871  14.396  10.881
 1556W        W73871  12.790  33.111   2.531
 1557W        W73872   1.686   3.242   3.618
 1558W        W73873  32.515  24.253   4.362
 1559W        W73874  18.120   8.885  12.206
 1560W        W73875  43.735   1.826   3.742
 1561W        W73876   3.391  30.401  14.374
 1562W        W73877   1.447  44.858   2.475
 1563W        W73878  40.642  24.523  11.071
 1564W        W73879  28.438  20.641  12.764
 1565W        W73880   4.384   2.865   3.115
 1566W        W73881  44.654  32.456   1.107
 1567W        W73882  14.970  28.738   3.240
 1568W        W73883  31.483  31.647  12.390
 1569W        W73884  30.850  32.618   3.681
 1570W        W73885  44.415  30.938  11.363
 1571W        W73886  10.629  20.668   2.332
 1572W        W73887  29.843   2.314  14.894
 1573W        W73888  20.587  26.709   4.522
 1574W        W73889  40.254   4.303  12.963
 1575W        W73890  23.936  26.232  11.508
 1576W        W73891   6.712   7.815   3.103
 1577W        W73892  32.439   3.251  12.821
 1578W        W73893   8.401  39.591  12.380
 1579W        W73894   3.547   5.902  10.841
 1580W        W73895  26.770  20.997  13.473
 1581W        W73896  17.279  43.362  10.652
 1582W        W73897  10.255  37.746  12.238
 1583W        W73898  26.468   9.043   9.866
 1584W        W73899  14.172  32.573   1.712
 1585W        W73900  37.067  35.819  11.184
 1586W        W73901  14.063  31.405   0.727
 1587W        W73902  17.790  31.147   5.152
 1588W        W73903  40.090  36.279  12.971
 1589W        W73904  27.192  15.207  10.417
 1590W        W73905  24.520  44.504  13.481
 1591W        W73906  30.948   5.702   1.845
 1592W        W73907   2.169  19.159  11.300
 1593W        W73908   3.877  12.759   4.912
 1594W        W73909  27.298  21.244  14.432
 1595W        W73910   7.921  26.099   0.922
 1596W        W73911  19.211  40.937  14.401
 1597W        W73912  39.393   6.229  13.856
 1598W        W73913  11.793  26.042  12.338
 1599W        W73914  24.948  41.024   3.264
 1600W        W73915   1.994  43.004  12.911
 1601W        W73916  12.105  32.861  14.795
 1602W        W73917  37.095   2.568   0.919
 1603W        W73918   0.560   0.858   2.828
 1604W        W73919   5.734  14.739   1.978
 1605W        W73920  19.376   8.385   4.498
 1606W        W73921  31.929  28.505   0.800
 1607W        W73922   9.009  30.152  13.911
 1608W        W73923   9.189   7.581  13.799
 1609W        W73924   4.296  36.227   1.321
 1610W        W73925  40.373   2.429   4.311
 1611W        W73926  14.679  42.842   4.496
 1612W        W73927  16.805  33.066   0.705
 1613W        W73928  27.133   0.028   1.731
 1614W        W73929  35.017   2.434  13.625
 1615W        W73930  35.546  31.086  13.953
 1616W        W73931   2.796  19.169  11.214
 1617W        W73932  19.740   9.864   3.789
 1618W        W73933   0.262  12.804   9.784
 1619W        W73934  12.399   3.858   0.720
 1620W        W73935  28.219  23.212  10.753
 1621W        W73936  13.194   6.628  12.988
 1622W        W73937  10.709  12.700   0.962
 1623W        W73938  41.029  36.459   4.899
 1624W        W73939  28.965  42.199   3.714
 1625W        W73940  30.545  14.884   4.499
 1626W        W73941  24.690  28.849   1.921
 1627W        W73942  23.074   1.382  12.607
 1628W        W73943  15.145  17.060   4.508
 1629W        W73944  31.994  24.757  10.718
 1630W        W73945  12.569   6.986  11.365
 1631W        W73946  26.996  25.226  14.899
 1632W        W73947  29.758  12.984   0.950
 1633W        W73948  40.279  32.209   2.486
 1634W        W73949   0.130  21.528  12.469
 1635W        W73950  37.376   1.959  11.176
 1636W        W73951  27.093  42.453   1.486
 1637W        W73952  26.906   7.068   3.214
 1638W        W73953  17.554  30.556  12.970
 1639W        W73954  18.540  12.284  13.888
 1640W        W73955  32.126   3.483   1.734
 1641W        W73956  35.411  21.569  13.690
 1642W        W73957  41.988   9.553  11.446
 1643W        W73958  23.694   2.862  10.494
 1644W        W73959  37.865  25.020   3.745
 1645W        W73960  35.947  28.004   3.953
 1646W        W73961   8.172  19.246   1.900
 1647W        W73962  36.246  35.750   1.163
 1648W        W73963  38.515  29.770  11.536
 1649W        W73964  37.746  38.563  14.504
 1650W        W73965  10.820  29.156  13.794
 1651W        W73966  34.814   6.397  11.511
 1652W        W73967  29.304  12.610  13.372
 1653W        W73968   9.699  40.855   0.573
 1654W        W73969  28.094  21.910   4.940
 1655W        W73970  19.955   1.610   4.052
 1656W        W73971  22.814  18.858  13.977
 1657W        W73972   4.979  32.920   1.455
 1658W        W73973  25.221  25.684   2.042
 1659W        W73974  14.111   0.926   3.122
 1660W        W73975  16.986  43.934  14.596
 1661W        W73976  29.470  35.532   0.501
 1662W        W73977  23.227  31.845  12.871
 1663W        W73978  26.181  18.163  10.329
 1664W        W73979  28.634   8.107   2.984
 1665W        W73980  44.167   1.408   0.351
 1666W        W73981  26.240  18.678  13.498
 1667W        W73982  31.996  34.672   4.245
 1668W        W73983   3.558   9.297   1.333
 1669W        W73984  20.880   5.969   1.358
 1670W        W73985  18.328  21.262  12.658
 1671W        W73986   1.830  15.520   0.919
 1672W        W73987  29.450   6.474   5.032
 1673W        W73988  27.039  41.035   3.607
 1674W        W73989  10.927  42.501  10.746
 1675W        W73990   5.706  39.874   3.662
 1676W        W73991  26.566  40.123   4.947
 1677W        W73992  34.048  10.756   2.339
 1678W        W73993  43.681  10.663   4.646
 1679W        W73994  36.872   8.600   2.364
 1680W        W73995  40.875   5.847   3.036
 1681W        W73996  19.236  28.734  11.967
 1682W        W73997  27.284  14.062  11.530
 1683W        W73998  38.070  42.796   1.381
 1684W        W73999  26.768   5.699  13.085
 1685W        W74000  32.601  44.030   2.413
 1686W        W74001  14.807   2.731   4.373
 1687W        W74002  28.123  31.615   4.666
 1688W        W74003  29.021  26.440  14.767
 1689W        W74004  13.498  20.258  11.172
 1690W        W74005  42.783  32.708   4.879
 1691W        W74006  34.030   8.658  11.094
 1692W        W74007  27.137  10.490   4.223
 1693W        W74008  36.975   0.401  14.157
 1694W        W74009  15.848  25.290  11.574
 1695W        W74010  29.849  31.870  11.406
 1696W        W74011  20.444  11.760   4.763
 1697W        W74012  35.836  15.607  10.725
 1698W        W74013  18.547  11.199   3.610
 1699W        W74014  15.269  15.106  12.878
 1700W        W74015  27.963  42.437   3.618
 1701W        W74016  40.572  40.741  14.404
 1702W        W74017  12.388  36.997   3.255
 1703W        W74018  22.500  17.785   3.278
 1704W        W74019   6.916   7.697  14.761
 1705W        W74020  43.363  32.642  10.907
 1706W        W74021   9.935  43.298  10.697
 1707W        W74022  14.801  29.074  13.559
 1708W        W74023   4.008   6.800  13.052
 1709W        W74024  35.193  26.932  10.660
 1710W        W74025   0.062  34.074   0.789
 1711W        W74026   8.243  23.735   4.651
 1712W        W74027   6.934   5.878  14.296
 1713W        W74028  19.951  15.660  10.659
 1714W        W74029  14.255  11.232  11.570
 1715W        W74030   3.771  36.317   3.259
 1716W        W74031   3.502   3.689  14.341
 1717W        W74032  41.279  15.763   3.231
 1718W        W74033  23.615  34.094  13.817
 1719W        W74034  30.525  22.573   4.643
 1720W        W74035  17.136   8.302   0.555
 1721W        W74036   0.820  18.607   4.356
 1722W        W74037  42.174  15.194  14.292
 1723W        W74038  15.274  24.655   4.214
 1724W        W74039  28.067  42.986  11.170
 1725W        W74040  13.612   3.024  10.589
 1726W        W74041  16.734  31.592   3.363
 1727W        W74042  12.743  44.410  11.432
 1728W        W74043  13.708  25.357  11.775
 1729W        W74044   3.679  19.522  14.900
 1730W        W74045  39.401   2.877   1.846
 1731W        W74046  28.233  27.215  14.694
 1732W        W74047  41.060  39.747  11.144
 1733W        W74048  12.752  41.227   3.878
 1734W        W74049  16.551  13.047  14.272
 1735W        W74050  37.054  44.087   3.177
 1736W        W74051  43.691  36.584   1.242
 1737W        W74052  44.860  43.342   4.118
 1738W        W74053  24.473  12.006   3.614
 1739W        W74054  11.211  19.236   5.861
 1740W        W74055  11.368  20.078  11.628
 1741W        W74056  37.745  13.016   2.317
 1742W        W74057   8.925  34.887  13.370
 1743W        W74058   6.818   7.928   4.111
 1744W        W74059  31.953  22.216  12.645
 1745W        W74060  11.045  26.075   1.694
 1746W        W74061  32.402  28.871   2.827
 1747W        W74062   6.232  16.938   0.889
 1748W        W74063  27.906   4.858   0.945
 1749W        W74064   5.211  44.503  14.974
 1750W        W74065  10.220  39.289   0.977
 1751W        W74066   6.737   2.319   4.544
 1752W        W74067   8.371   1.412   3.675
 1753W        W74068   6.149  44.953   1.561
 1754W        W74069  20.833  20.188   2.890
 1755W        W74070  12.667  20.633   1.697
 1756W        W74071  35.302   4.702   1.850
 1757W        W74072  25.845  17.347  11.106
 1758W        W74073   4.013  20.049  12.484
 1759W        W74074   3.337  19.249   3.584
 1760W        W74075  33.909  42.898   4.037
 1761W        W74076  10.649  31.425  12.304
 1762W        W74077  17.846  30.003  10.619
 1763W        W74078   4.733  20.081   0.354
 1764W        W74079   7.595  36.047  11.829
 1765W        W74080  40.313  36.598   3.654
 1766W        W74081   7.899  29.226  14.027
 1767W        W74082  33.609   9.281  10.679
 1768W        W74083   3.689  43.894  13.001
 1769W        W74084   3.025   9.966  10.217
 1770W        W74085   9.679  11.758   2.703
 1771W        W74086  38.543  37.426   1.441
 1772W        W74087   8.441   5.868  10.720
 1773W        W74088  33.231  41.131  12.563
 1774W        W74089  29.566  30.480   3.780
 1775W        W74090  10.188  44.557   4.153
 1776W        W74091  25.552  35.605   4.074
 1777W        W74092  10.124  33.341   3.433
 1778W        W74093  39.818  38.329  12.982
 1779W        W74094  20.586   3.509  12.444
 1780W        W74095   1.356  32.111  14.029
 1781W        W74096  19.998  20.173   1.703
 1782W        W74097   0.240  36.394   4.678
 1783W        W74098  29.681  22.638  12.935
 1784W        W74099   6.149  31.055  13.429
 1785W        W74100  39.115  13.605  14.934
 1786W        W74101  36.627   3.166  14.373
 1787W        W74102  13.741  19.180   4.175
 1788W        W74103  20.788  17.316   3.686
 1789W        W74104  32.205  25.508   2.901
 1790W        W74105   7.201   3.004  14.401
 1791W        W74106  13.228  32.501   0.778
 1792W        W74107  40.024  44.255   3.602
 1793W        W74108  15.370  18.824  11.473
 1794W        W74109  10.099   8.708  14.988
 1795W        W74110  19.096  22.755  14.405
 1796W        W74111  28.460  42.925   3.122
 1797W        W74112  11.646  28.103  11.555
 1798W        W74113  26.536  13.565   2.892
 1799W        W74114  28.989  16.052   0.403
 1800W        W74115  35.041  36.075   4.165
 1801W        W74116  20.027  13.082  12.031
 1802W        W74117   4.312  38.509  11.900
 1803W        W74118  20.974  15.216   3.533
 1804W        W74119  35.581  20.323   4.088
 1805W        W74120  30.594  10.325  12.975
 1806W        W74121  38.462  13.896  13.743
 1807W        W74122  24.984  23.187   4.287
 1808W        W74123  13.672  13.310  14.407
 1809W        W74124  22.181  14.666  14.294
 1810W        W74125  35.966  21.162   1.843
 1811W        W74126  20.140   5.663   2.743
 1812W        W74127  41.836  29.393  12.496
 1813W        W74128   6.851  23.086   0.547
 1814W        W74129  23.625  25.681   3.870
 1815W        W74130  23.250  37.207   4.560
 1816W        W74131  33.816   7.763   3.680
 1817W        W74132   7.779  11.502   4.255
 1818W        W74133  38.095   2.685  11.590
 1819W        W74134  22.495   9.340  10.697
 1820W        W74135  40.476  23.910   4.091
 1821W        W74136  34.016   2.214  13.018
 1822W        W74137  36.074   2.910  12.728
 1823W        W74138  17.134   4.715  14.980
 1824W        W74139  19.263  35.952  13.977
 1825W        W74140   3.287  36.846  12.021
 1826W        W74141  10.137  41.985   4.139
 1827W        W74142  10.086   6.697  10.674
 1828W        W74143  15.049   6.194   2.814
 1829W        W74144  21.619  22.511   0.287
 1830W        W74145  31.028   4.319  10.591
 1831W        W74146  14.058  32.835  13.466
 1832W        W74147   6.385  10.891  13.051
 1833W        W74148  44.754  12.203   5.047
 1834W        W74149  14.280  14.603   4.648
 1835W        W74150   7.259  41.331   0.431
 1836W        W74151  17.127  30.558   0.437
 1837W        W74152   9.490  21.100  11.210
 1838W        W74153   5.451  18.244  14.297
 1839W        W74154  40.334  10.552  13.647
 1840W        W74155  40.470  40.802  12.372
 1841W        W74156  37.677  26.532  11.369
 1842W        W74157  36.653  27.548   1.892
 1843W        W74158  40.700  26.999  13.243
 1844W        W74159  16.126  31.468  13.507
 1845W        W74160   8.625  35.885  11.975
 1846W        W74161  23.866  38.287  11.991
 1847W        W74162  19.589  13.314  12.960
 1848W        W74163  21.825  26.039   0.247
 1849W        W74164  10.373  10.832  11.062
 1850W        W74165  21.047  13.152  12.022
 1851W        W74166   2.381  36.224   4.796
 1852W        W74167  42.551  25.332  12.878
 1853W        W74168  13.754  13.229  12.810
 1854W        W74169  39.143   2.798  11.624
 1855W        W74170  39.115  23.056  14.067
 1856W        W74171  21.781  43.398   2.415
 1857W        W74172  19.466  10.349  13.329
 1858W        W74173  43.390  23.890  13.075
 1859W        W74174  30.687  31.669  10.972
 1860W        W74175   1.012  42.010   3.306
 1861W        W74176   3.976  29.131   2.124
 1862W        W74177  28.166  12.549  12.940
 1863W        W74178  18.009  35.137   2.843
 1864W        W74179  44.814  36.379   2.675
 1865W        W74180  37.029  13.705  14.763
 1866W        W74181  33.518   7.646  11.544
 1867W        W74182  40.479  36.932  10.768
 1868W        W74183   2.636  30.438   3.092
 1869W        W74184  20.460   7.310   2.406
 1870W        W74185   3.789  37.023  11.962
 1871W        W74186  14.346   4.767  14.489
 1872W        W74187  12.536  29.492  13.901
 1873W        W74188  41.898  12.610  11.959
 1874W        W74189  34.562  30.140   1.814
 1875W        W74190   4.112  30.459   4.579
 1876W        W74191  37.432  20.175  14.554
 1877W        W74192   9.151  30.065   0.416
 1878W        W74193  26.429  27.797   3.717
 1879W        W74194  41.917  18.272  12.516
 1880W        W74195  34.107   4.262  11.522
 1881W        W74196  28.950  27.014   0.530
 1882W        W74197   8.120  14.125  12.537
 1883W        W74198  40.331  26.633  14.782
 1884W        W74199  31.850  22.945  11.103
 1885W        W74200   5.395  38.157  11.110
 1886W        W74201  15.639  18.299   4.851
 1887W        W74202  18.992  25.671   0.339
 1888W        W74203  30.501  39.081   3.142
 1889W        W74204  17.530  16.671  11.212
 1890W        W74205  21.000  39.822   3.191
 1891W        W74206  40.035  19.618  14.972
 1892W        W74207  30.413  44.334   1.831
 1893W        W74208  42.519  16.182   0.729
 1894W        W74209  21.829   4.237  12.407
 1895W        W74210  43.175  27.455  14.340
 1896W        W74211  22.159  27.989   0.038
 1897W        W74212   4.809  20.314   4.618
 1898W        W74213  10.814  10.895   3.152
 1899W        W74214  32.709  19.622  12.022
 1900W        W74215  20.071  13.541  12.990
 1901W        W74216  15.089  42.074  10.665
 1902W        W74217  38.617   1.625  11.633
 1903W        W74218  12.015  30.942   4.613
 1904W        W74219  19.695  37.817  13.086
 1905W        W74220  31.373  36.923  12.570
 1906W        W74221  29.671   1.943  11.946
 1907W        W74222  36.050  17.547   0.884
 1908W        W74223  36.606  36.309   0.367
 1909W        W74224  44.075  23.241   2.126
 1910W        W74225  17.781  35.623  11.046
 1911W        W74226  42.988  25.470   1.681
 1912W        W74227   8.775   9.776   2.906
 1913W        W74228   4.942  30.091   4.873
 1914W        W74229  33.965   1.790   3.339
 1915W        W74230  13.760  24.775  10.968
 1916W        W74231  38.690  11.020  12.462
 1917W        W74232  12.277  39.046   3.144
 1918W        W74233   8.757  18.752   1.360
 1919W        W74234  36.400   1.069   2.519
 1920W        W74235  12.820  21.798  12.868
 1921W        W74236  23.675  26.468  11.091
 1922W        W74237  32.399  40.568  14.981
 1923W        W74238  37.948  32.183   3.600
 1924W        W74239  24.086  33.602   4.652
 1925W        W74240  14.374   3.967  10.798
 1926W        W74241  11.665  39.466  14.942
 1927W        W74242  37.388  40.436  11.501
 1928W        W74243  38.876  29.575  11.866
 1929W        W74244  18.659  42.089   2.682
 1930W        W74245   0.687   9.237   1.730
 1931W        W74246   5.418   3.276  10.776
 1932W        W74247  37.418   7.332   0.394
 1933W        W74248  28.138  36.541  12.032
 1934W        W74249   4.679  13.637   2.841
 1935W        W74250   5.337  32.509   4.362
 1936W        W74251   9.083  42.279   1.657
 1937W        W74252  44.677  37.032   4.270
 1938W        W74253  40.431  28.923   3.677
 1939W        W74254  44.839  36.047  10.644
 1940W        W74255  42.044  15.511   2.265
 1941W        W74256  38.302  37.863  14.259
 1942W        W74257  22.726  40.909  10.711
 1943W        W74258  37.602  30.041  13.970
 1944W        W74259  40.335  37.938   0.310
 1945W        W74260   3.701  35.027  14.293
 1946W        W74261  27.625   7.276   2.156
 1947W        W74262  40.686  29.451   1.790
 1948W        W74263   2.613  21.988  11.103
 1949W        W74264  24.048  31.932  13.425
 1950W        W74265   6.181   4.196   3.933
 1951W        W74266  42.965  14.090  14.412
 1952W        W74267  20.070  31.283  14.445
 1953W        W74268   1.268  29.391  11.535
 1954W        W74269  37.546   8.096   2.094
 1955W        W74270  19.802  26.504   3.204
 1956W        W74271   7.280  32.066   2.904
 1957W        W74272   8.616  37.151   0.936
 1958W        W74273  34.897  33.853   4.199
 1959W        W74274  11.561   0.858   2.183
 1960W        W74275  17.093  20.449  12.079
 1961W        W74276  14.663   8.444   3.669
 1962W        W74277  24.948  35.404  14.871
 1963W        W74278   4.522  10.907  14.473
 1964W        W74279  22.688   7.303   1.208
 1965W        W74280   3.545  43.480   3.238
 1966W        W74281  41.362  31.544   3.740
 1967W        W74282  43.473  21.167   1.445
 1968W        W74283  16.616  24.486   1.681
 1969W        W74284  13.289  10.095  14.839
 1970W        W74285  15.588  42.889  12.567
 1971W        W74286   6.741  11.273   4.885
 1972W        W74287  32.724  41.149   5.048
 1973W        W74288   8.255   4.747  10.452
 1974W        W74289  39.010  39.937   0.536
 1975W        W74290  10.695  18.256   2.272
 1976W        W74291   9.651   5.923   0.818
 1977W        W74292   0.766   6.665   2.321
 1978W        W74293  15.751  17.739  10.732
 1979W        W74294   4.171   4.335  14.394
 1980W        W74295  12.696  30.187   0.551
 1981W        W74296  31.221  21.742   4.544
 1982W        W74297  29.569  37.149   4.772
 1983W        W74298   5.748  40.762   3.093
 1984W        W74299  23.643  24.601  14.345
 1985W        W74300  39.069  17.221  14.042
 1986W        W74301   2.527  39.152  11.088
 1987W        W74302  22.873  40.259  11.664
 1988W        W74303  42.435   7.588  10.803
 1989W        W74304  21.059  13.161  10.665
 1990W        W74305  44.693  20.648  11.679
 1991W        W74306   5.060  26.286  11.406
 1992W        W74307  13.268   0.668   1.097
 1993W        W74308  44.937  41.296  14.833
 1994W        W74309  12.218   0.020   0.692
 1995W        W74310  26.645  13.815  12.014
 1996W        W74311  22.894  23.729  13.735
 1997W        W74312   4.414  30.194   3.598
 1998W        W74313  10.598   4.276   2.831
 1999W        W74314  40.360  37.134   4.939
 2000W        W74315  14.056  20.450  12.551
 2001W        W74316  39.834  43.374   4.543
 2002W        W74317  38.766  18.924  11.969
 2003W        W74318  31.182  41.473   1.189
 2004W        W74319  39.401  33.134   2.298
 2005W        W74320  28.959   2.427   4.647
 2006W        W74321  33.927   2.303   2.865
 2007W        W74322   5.327   7.484   3.835
 2008W        W74323  19.067  11.543   1.568
 2009W        W74324  27.396  12.312   2.299
 2010W        W74325  13.513  17.149   1.915
 2011W        W74326  30.190  14.789  12.984
 2012W        W74327  38.295  19.055  14.295
 2013W        W74328   3.870  20.518   3.690
 2014W        W74329  17.913  24.498   2.702
 2015W        W74330  14.996   4.346   4.672
 2016W        W74331  17.880   7.089   1.376
 2017W        W74332  44.859  22.288   3.158
 2018W        W74333   8.741  12.116   2.405
 2019W        W74334   0.496  29.498   1.362
 2020W        W74335  24.733  12.088   4.065
 2021W        W74336  23.906   5.231   4.079
 2022W        W74337  33.931  28.550   1.918
 2023W        W74338  24.472  33.945  14.365
 2024W        W74339  31.548   2.243  10.669
 2025W        W74340  23.290  27.210  11.116
 2026W        W74341  27.032  43.409   0.223
 2027W        W74342  25.464  33.243  13.349
 2028W        W74343  43.162  17.521  14.744
 2029W        W74344   1.864  35.242   1.441
 2030W        W74345  36.469   0.337   0.019
 2031W        W74346  22.172  41.157  10.513
 2032W        W74347  25.575  28.782  12.758
 2033W        W74348  30.085  18.700  11.218
 2034W        W74349  21.479  41.249   4.630
 2035W        W74350   0.460  11.849  10.864
 2036W        W74351  42.507  17.124  13.462
 2037W        W74352  24.237  27.218   3.196
 2038W        W74353  18.219  27.132   2.747
 2039W        W74354   0.994  37.123   1.778
 2040W        W74355   2.567  38.988  10.205
 2041W        W74356   8.784  25.017   4.031
 2042W        W74357  14.720  31.888  10.219
 2043W        W74358   2.402  27.175  10.582
 2044W        W74359   1.247  21.480  11.031
 2045W        W74360  37.838  37.642   0.708
 2046W        W74361  22.468  33.045   1.750
 2047W        W74362  36.877  13.375   3.910
 2048W        W74363  27.666  31.870  11.085
 2049W        W74364   8.581  24.240   2.871
 2050W        W74365  40.253  27.997   2.234
 2051W        W74366  15.599  18.026   0.789
 2052W        W74367   2.185  41.696   2.824
 2053W        W74368  25.994  32.095   2.402
 2054W        W74369  21.160   3.204   0.729
 2055W        W74370  20.281  13.124   0.767
 2056W        W74371  31.876  37.557  10.737
 2057W        W74372  34.096  17.311  10.983
 2058W        W74373  20.167   3.936   0.843
 2059W        W74374  27.255  20.763   4.463
 2060W        W74375  44.741   3.345   3.663
 2061W        W74376  24.614  23.387   0.400
 2062W        W74377  12.887   9.626   1.890
 2063W        W74378  32.086   5.080  13.647
 2064W        W74379  17.050   4.432  11.106
 2065W        W74380  18.157  10.280   5.128
 2066W        W74381  16.617  39.606   2.161
 2067W        W74382  16.369  14.165   0.645
 2068W        W74383  15.191  10.857  10.574
 2069W        W74384  33.996  23.939   4.150
 2070W        W74385  30.406  44.234   4.585
 2071W        W74386  35.560   7.779  10.887
 2072W        W74387  42.311  27.816   2.939
 2073W        W74388   0.751  19.949  12.868
 2074W        W74389   8.137  19.584   5.098
 2075W        W74390  37.585  40.831  12.943
 2076W        W74391  38.034  36.559  13.967
 2077W        W74392  17.094   8.662  11.073
 2078W        W74393   8.850  34.464  11.257
 2079W        W74394  23.775  13.079   0.266
 2080W        W74395  30.705   6.123   4.506
 2081W        W74396  42.400  38.366  14.820
 2082W        W74397  10.680  35.754  11.130
 2083W        W74398  33.028  21.465  10.645
 2084W        W74399  34.629  35.704   3.194
 2085W        W74400  35.376  41.543   2.099
 2086W        W74401  28.524   7.976   1.091
 2087W        W74402   3.680   4.875   0.406
 2088W        W74403  29.733  37.528  12.122
 2089W        W74404  32.650  34.314   3.803
 2090W        W74405  30.998  14.425  11.464
 2091W        W74406  38.904  11.329   0.253
 2092W        W74407  32.859  40.374   4.927
 2093W        W74408  35.979  28.994   2.401
 2094W        W74409  14.263  18.630   4.763
 2095W        W74410  20.269  33.462  10.188
 2096W        W74411  34.393  32.354   4.052
 2097W        W74412  41.827  36.878   4.240
 2098W        W74413  35.945  22.719  14.322
 2099W        W74414  20.928  23.083   0.740
 2100W        W74415  33.146  24.996  10.751
 2101W        W74416  32.408  22.359   4.149
 2102W        W74417  32.012  44.013  12.078
 2103W        W74418   9.958  17.124  11.361
 2104W        W74419  23.230  44.275  13.919
 2105W        W74420   5.667  36.343   3.153
 2106W        W74421  21.152   4.810   2.828
 2107W        W74422  16.938   0.072  12.057
 2108W        W74423   8.406  17.725  13.905
 2109W        W74424  43.461  40.976  12.165
 2110W        W74425  20.793   3.799   2.154
 2111W        W74426  42.004  12.553   1.637
 2112W        W74427  24.256  29.217   3.614
 2113W        W74428  15.111  25.972  10.807
 2114W        W74429   4.689   4.248   1.753
 2115W        W74430  30.216  44.174  11.049
 2116W        W74431   2.511  15.950   4.323
 2117W        W74432  24.644  32.818  12.181
 2118W        W74433  28.458  22.650   4.362
 2119W        W74434  42.888  42.914  14.529
 2120W        W74435  43.297  12.110   0.543
 2121W        W74436  26.386  27.038   1.228
 2122W        W74437  43.012   4.950  12.927
 2123W        W74438  17.264  20.695   2.368
 2124W        W74439   2.853  16.734   0.920
 2125W        W74440  22.063  19.715   2.747
 2126W        W74441   7.350  19.657  13.986
 2127W        W74442  38.702  27.561  10.370
 2128W        W74443  20.931  30.869   2.318
 2129W        W74444  10.323   7.801  11.748
 2130W        W74445  39.319   9.693  11.571
 2131W        W74446  40.938   0.960  14.211
 2132W        W74447  10.347  20.516  12.863
 2133W        W74448  21.381  37.202   0.927
 2134W        W74449  16.391  44.434  12.870
 2135W        W74450  13.636  27.048  14.412
 2136W        W74451  38.132  42.504   2.771
 2137W        W74452  32.624  17.060   2.616
 2138W        W74453  31.038   1.573   2.799
 2139W        W74454  21.715   7.643  12.464
 2140W        W74455  16.271   0.941   0.407
 2141W        W74456   3.916  11.281  14.519
 2142W        W74457   3.019  21.482  13.994
 2143W        W74458   7.835  10.181  12.876
 2144W        W74459  12.600   0.049   3.196
 2145W        W74460  28.206  31.928  10.223
 2146W        W74461  12.642  34.181   0.823
 2147W        W74462   1.047  35.398   3.741
 2148W        W74463   0.586  35.418   5.112
 2149W        W74464  31.822  22.581  10.713
 2150W        W74465  32.296  37.299   2.881
 2151W        W74466  24.237  14.871  12.919
 2152W        W74467  42.464  43.275   0.797
 2153W        W74468  23.802  13.656   1.283
 2154W        W74469  38.916  31.937   4.113
 2155W        W74470   4.904  19.173   0.282
 2156W        W74471  25.448  15.456   1.969
 2157W        W74472  17.703  44.364   4.394
 2158W        W74473   4.977  42.503   0.262
 2159W        W74474   7.706  35.589  10.665
 2160W        W74475  31.905   9.864   0.310
 2161W        W74476   7.196  27.956  10.395
 2162W        W74477  27.020   9.225  11.569
 2163W        W74478  44.980  22.483   4.650
 2164W        W74479  23.924  31.843   2.816
 2165W        W74480  30.435  28.142  10.835
 2166W        W74481  27.007  38.673   0.208
 2167W        W74482  37.837  31.041   1.782
 2168W        W74483  44.516  26.642   2.924
 2169W        W74484   8.991  11.767  11.120
 2170W        W74485  42.793  29.063  14.817
 2171W        W74486  10.005  36.278  14.585
 2172W        W74487   0.866   2.143  12.817
 2173W        W74488  20.320  10.607  11.885
 2174W        W74489   1.413  22.996   1.254
 2175W        W74490  29.362  10.760   2.398
 2176W        W74491  19.623  25.302   0.757
 2177W        W74492  44.301  34.403   2.334
 2178W        W74493  31.196   1.864   1.746
 2179W        W74494  43.251   0.036   3.444
 2180W        W74495  41.590  35.567   4.782
 2181W        W74496  29.520  23.217   1.589
 2182W        W74497   6.461   9.373  12.953
 2183W        W74498  17.215  22.995   0.460
 2184W        W74499  11.841  11.311  14.770
 2185W        W74500  19.083  30.962   4.553
 2186W        W74501  43.340  44.872  10.734
 2187W        W74502  30.670  41.324   4.888
 2188W        W74503   8.718  12.835  12.130
 2189W        W74504  38.441  24.480  10.903
 2190W        W74505   6.393  39.498  14.129
 2191W        W74506  30.627   2.003  13.055
 2192W        W74507  42.912  15.778  14.540
 2193W        W74508   3.907  22.331  14.500
 2194W        W74509  13.366  26.015   2.197
 2195W        W74510  19.336  16.673   1.363
 2196W        W74511   6.162  10.305   0.839
 2197W        W74512   1.754  18.668   4.146
 2198W        W74513  14.674  42.987  12.679
 2199W        W74514  43.445  28.098   2.406
 2200W        W74515  18.939  35.048   0.808
 2201W        W74516  15.157  23.596  10.729
 2202W        W74517   8.323   3.732  13.926
 2203W        W74518  21.198  28.176   2.719
 2204W        W74519   4.317   2.378   3.385
 2205W        W74520  19.702  25.188  12.403
 2206W        W74521  30.437  10.010   0.927
 2207W        W74522   2.330   8.420   1.390
 2208W        W74523  27.455  20.155  14.545
 2209W        W74524  19.087   2.515  10.756
 2210W        W74525   2.923  10.136  12.412
 2211W        W74526  19.270   1.263   2.204
 2212W        W74527   5.399  11.295   4.547
 2213W        W74528  42.312  34.486  11.877
 2214W        W74529  23.509  43.913   2.401
 2215W        W74530  17.324  33.551  10.254
 2216W        W74531   6.055   1.730  13.432
 2217W        W74532  14.257  28.431  14.001
 2218W        W74533  41.925  20.170   3.947
 2219W        W74534  30.142   1.924   4.754
 2220W        W74535   5.964  12.717   4.783
 2221W        W74536  31.437  31.634  14.467
 2222W        W74537  33.048  18.999   0.286
 2223W        W74538  18.816  33.098   3.358
 2224W        W74539  37.501  35.340  13.413
 2225W        W74540  33.092   9.362  10.752
 2226W        W74541   2.385  31.009   4.660
 2227W        W74542  37.026  21.616   0.720
 2228W        W74543  12.169   3.677   3.559
 2229W        W74544  32.184  40.276  12.877
 2230W        W74545   5.348  13.181  14.610
 2231W        W74546  14.639  44.965  12.655
 2232W        W74547  40.455   4.340   1.795
 2233W        W74548   0.335   0.299  14.244
 2234W        W74549  44.162  16.135  13.351
 2235W        W74550  24.266  12.845   4.070
 2236W        W74551  11.285  36.415   3.846
 2237W        W74552  24.240  23.741  14.771
 2238W        W74553  14.798  31.909   1.394
 2239W        W74554  11.398  36.488  13.142
 2240W        W74555   4.351  33.875  14.538
 2241W        W74556  10.804  38.011  12.978
 2242W        W74557  17.417  44.475  13.026
 2243W        W74558  41.015  17.428   3.824
 2244W        W74559  13.028  21.229  12.261
 2245W        W74560  43.463  24.172   0.828
 2246W        W74561  34.816   4.332   3.191
 2247W        W74562   6.239  43.764  14.547
 2248W        W74563  16.799  31.918  14.472
 2249W        W74564  35.667  30.955  12.242
 2250W        W74565   6.689   9.684  10.470
 2251W        W74566  25.663  11.607  12.499
 2252W        W74567  32.903  39.337   1.807
 2253W        W74568  17.622  37.490   0.701
 2254W        W74569  38.083  37.743  12.326
 2255W        W74570   9.777  19.665  11.087
 2256W        W74571  29.074   2.797  10.850
 2257W        W74572   3.339  16.938   1.036
 2258W        W74573  29.567   6.103   2.971
 2259W        W74574   6.844  33.795  11.647
 2260W        W74575  25.570  20.819   0.247
 2261W        W74576   9.548   5.247   0.250
 2262W        W74577   8.701   5.427   2.706
 2263W        W74578  30.125  40.798  13.476
 2264W        W74579  44.234  42.296   2.198
 2265W        W74580  36.970  41.406   3.843
 2266W        W74581   2.463  27.946  14.062
 2267W        W74582  24.711  13.707  13.392
 2268W        W74583   9.785  42.739  12.035
 2269W        W74584  32.628  10.158   3.132
 2270W        W74585  21.201  24.187   4.130
 2271W        W74586  13.110  29.122   1.306
 2272W        W74587  24.235   5.863   3.154
 2273W        W74588  41.798  12.832   1.238
 2274W        W74589  23.110  35.546   5.020
 2275W        W74590   3.626  13.115   1.043
 2276W        W74591   3.468   5.417   0.770
 2277W        W74592  10.927   9.257   1.030
 2278W        W74593   9.390  25.262  11.166
 2279W        W74594   5.497  10.587  10.753
 2280W        W74595  12.730  35.981  13.788
 2281W        W74596  12.415   2.608  12.924
 2282W        W74597  26.937  21.976  10.521
 2283W        W74598  33.582  16.571  14.382
 2284W        W74599   2.513  36.402   4.334
 2285W        W74600  17.167  29.446  10.751
 2286W        W74601  32.544  21.104  11.188
 2287W        W74602  35.006   4.865  12.595
 2288W        W74603  32.054  33.059   0.274
 2289W        W74604  34.779  27.454   0.454
 2290W        W74605  24.712  12.620  11.532
 2291W        W74606  27.551  18.668   2.711
 2292W        W74607  20.079  15.922   4.369
 2293W        W74608   8.165  29.999   0.354
 2294W        W74609  19.737  12.759   2.970
 2295W        W74610  12.288  37.700  14.274
 2296W        W74611  10.169  29.000   2.717
 2297W        W74612  24.752  11.917   3.195
 2298W        W74613  32.849   5.114   3.556
 2299W        W74614  24.903   1.349   2.127
 2300W        W74615  13.617  42.107  13.921
 2301W        W74616  23.076  28.116  14.927
 2302W        W74617  29.146   1.308   0.810
 2303W        W74618  31.158  39.422  12.130
 2304W        W74619  22.594  26.856   2.739
 2305W        W74620  35.839  18.589  13.996
 2306W        W74621   7.766  19.546  12.499
 2307W        W74622  37.102  18.661  14.251
 2308W        W74623  22.689  27.668   4.910
 2309W        W74624  35.669  31.606  14.993
 2310W        W74625  14.177  40.814   1.055
 2311W        W74626  10.797   5.974  12.915
 2312W        W74627  10.182   2.546   5.049
 2313W        W74628  11.549  26.088  11.417
 2314W        W74629  25.983   4.497   4.151
 2315W        W74630  43.643  31.954  12.062
 2316W        W74631  10.765  11.737  11.557
 2317W        W74632  34.690   3.737   4.422
 2318W        W74633  14.696  14.570  13.080
 2319W        W74634  38.443  42.804  13.287
 2320W        W74635  32.843  35.379   3.022
 2321W        W74636  36.145  23.089   3.264
 2322W        W74637  11.236   7.090   0.301
 2323W        W74638  23.286  29.027  14.671
 2324W        W74639  20.453  19.902  12.593
 2325W        W74640   7.192  12.024   2.669
 2326W        W74641  34.323   2.469   0.454
 2327W        W74642  20.991  29.632   3.748
 2328W        W74643  44.476   2.547  14.012
 2329W        W74644   5.741  42.560   2.862
 2330W        W74645  26.034  34.393   2.180
 2331W        W74646  32.928  22.156   3.304
 2332W        W74647   2.500  16.269  10.488
 2333W        W74648  24.120  14.094   0.839
 2334W        W74649  25.432  19.990   9.670
 2335W        W74650   3.530  31.944   3.272
 2336W        W74651   6.157  40.985   2.316
 2337W        W74652  26.521   5.412   3.552
 2338W        W74653  17.689   1.210   2.609
 2339W        W74654  29.514  17.124  12.494
 2340W        W74655  44.130  13.155  13.127
 2341W        W74656  20.640  39.040   2.040
 2342W        W74657  15.209  21.571  10.890
 2343W        W74658   1.726   6.293  10.656
 2344W        W74659   3.193  25.525  10.565
 2345W        W74660  28.729  29.045   1.683
 2346W        W74661  16.299  33.004  11.151
 2347W        W74662   1.670  40.783   0.283
 2348W        W74663  33.443  28.160  14.556
 2349W        W74664  33.670  18.583  14.430
 2350W        W74665  37.994   6.478  14.029
 2351W        W74666   4.469   4.285  13.948
 2352W        W74667  11.932  25.768   1.690
 2353W        W74668  23.683  33.704  14.783
 2354W        W74669   9.125  33.966  12.826
 2355W        W74670  24.099  22.180   3.215
 2356W        W74671  41.578   5.579  14.525
 2357W        W74672  37.093   8.121   2.317
 2358W        W74673  37.902   5.016   4.305
 2359W        W74674  44.311  24.392   5.039
 2360W        W74675  14.313  26.865   3.822
 2361W        W74676  35.662  21.091  14.533
 2362W        W74677   1.360  24.577  13.328
 2363W        W74678  27.796  13.121  11.356
 2364W        W74679  24.152  30.977   3.376
 2365W        W74680  23.991  19.244   0.299
 2366W        W74681  25.757   5.442   1.395
 2367W        W74682  30.026  26.614   0.497
 2368W        W74683   8.350  19.964   4.241
 2369W        W74684  17.694  27.571  11.861
 2370W        W74685  33.727  35.949  14.341
 2371W        W74686   1.302  23.567  12.618
 2372W        W74687  25.742  30.819  10.711
 2373W        W74688  21.012   2.534  12.142
 2374W        W74689  19.901  44.476   0.461
 2375W        W74690  33.731  11.753  12.381
 2376W        W74691  10.339  38.250  12.082
 2377W        W74692  21.675  42.540  11.105
 2378W        W74693  39.226  27.615  10.642
 2379W        W74694  29.971   7.788  14.194
 2380W        W74695   7.374  18.548  14.364
 2381W        W74696   0.410  23.679  14.916
 2382W        W74697  33.602  28.703   4.495
 2383W        W74698   1.898  13.827   0.272
 2384W        W74699   7.457  39.850   1.573
 2385W        W74700  31.472  41.020  12.866
 2386W        W74701  24.040   2.534   0.020
 2387W        W74702  29.854   9.487   3.242
 2388W        W74703  10.293  32.486  10.703
 2389W        W74704  38.057   7.786   0.244
 2390W        W74705  25.685  39.892  13.906
 2391W        W74706  31.538   1.512  12.825
 2392W        W74707  33.459  29.582   5.043
 2393W        W74708  31.112  28.636   4.909
 2394W        W74709  36.347  17.169  14.323
 2395W        W74710   8.743   3.029  12.643
 2396W        W74711  30.941   5.677  10.305
 2397W        W74712  13.335  19.314   1.912
 2398W        W74713  12.201   5.454  11.759
 2399W        W74714  18.704  26.177  11.609
 2400W        W74715  42.450  29.108   2.898
 2401W        W74716  13.414  14.258   4.322
 2402W        W74717  44.424   2.157  12.007
 2403W        W74718   5.012  35.330  11.970
 2404W        W74719  33.181   6.024   2.873
 2405W        W74720  25.946   6.655  11.451
 2406W        W74721   3.408  26.587  14.966
 2407W        W74722   1.148  11.112   4.182
 2408W        W74723  11.565  24.036   2.345
 2409W        W74724  30.127  22.708   2.184
 2410W        W74725   1.238  12.118   4.620
 2411W        W74726  19.694  18.700   2.315
 2412W        W74727  19.946  23.106  12.658
 2413W        W74728  41.258  19.764   4.607
 2414W        W74729  16.075   1.916   1.275
 2415W        W74730   4.923  30.330   3.789
 2416W        W74731   6.162  19.120   4.159
 2417W        W74732  28.437   3.688   2.737
 2418W        W74733  20.135  22.305   3.832
 2419W        W74734  35.875  31.634   0.457
 2420W        W74735  13.731  10.831   4.915
 2421W        W74736  17.248  17.185  13.401
 2422W        W74737  23.124  38.618  12.747
 2423W        W74738  27.498  20.616  14.307
 2424W        W74739  25.643   0.368  10.672
 2425W        W74740  39.108  40.969  14.196
 2426W        W74741  11.620   5.938   1.523
 2427W        W74742  39.886  21.599   0.336
 2428W        W74743  31.446  34.302  13.105
 2429W        W74744  26.995  29.024   4.616
 2430W        W74745  34.880  15.478  11.612
 2431W        W74746  35.881   9.889  14.827
 2432W        W74747   0.203  23.538  11.651
 2433W        W74748  38.601   7.972  11.190
 2434W        W74749   3.973  40.712  12.014
 2435W        W74750  31.531  16.150  10.893
 2436W        W74751  33.710  22.576   0.752
 2437W        W74752  27.296   9.870   0.546
 2438W        W74753  37.249  31.179   4.006
 2439W        W74754  15.660  20.015   9.950
 2440W        W74755  32.424  44.812  14.270
 2441W        W74756  30.862  27.939  12.827
 2442W        W74757  30.410   6.766   0.395
 2443W        W74758   6.942   2.797  12.050
 2444W        W74759  37.102  10.303   0.846
 2445W        W74760  11.236  27.094  13.128
 2446W        W74761  40.043   2.513  14.370
 2447W        W74762  31.549  20.396   3.893
 2448W        W74763  13.856  30.637  11.180
 2449W        W74764  25.013  14.669   2.155
 2450W        W74765  34.392  40.521   0.757
 2451W        W74766  11.215  39.820   4.327
 2452W        W74767  13.713  32.128  10.651
 2453W        W74768  27.759  24.679   1.351
 2454W        W74769   6.880  24.013   0.508
 2455W        W74770   9.650  23.664  13.424
 2456W        W74771  18.518   9.925   0.644
 2457W        W74772  15.693  31.745  13.481
 2458W        W74773  44.555  11.821   1.222
 2459W        W74774  37.305  43.851   0.027
 2460W        W74775  36.105   4.297  12.529
 2461W        W74776   3.565  38.428  13.560
 2462W        W74777   7.208  35.224  12.556
 2463W        W74778   3.303  41.091   4.886
 2464W        W74779  22.670  17.108   2.220
 2465W        W74780   8.749  35.074  12.923
 2466W        W74781  43.422  29.576   4.305
 2467W        W74782  10.697  23.719  10.810
 2468W        W74783  23.533  26.625  11.601
 2469W        W74784  10.728  35.823  14.981
 2470W        W74785  16.905  27.357   5.080
 2471W        W74786  27.985  39.869   3.804
 2472W        W74787  41.248  19.709   4.078
 2473W        W74788  23.744  11.192  14.100
 2474W        W74789  27.631  16.512  10.447
 2475W        W74790  36.909   7.261   0.170
 2476W        W74791   0.557   8.388  13.400
 2477W        W74792  34.030  29.874   2.795
 2478W        W74793   4.014  43.203  13.894
 2479W        W74794  26.895  10.453   3.745
 2480W        W74795  10.374   1.151  12.098
 2481W        W74796  34.467  13.208  12.465
 2482W        W74797   4.448   4.334  11.555
 2483W        W74798  21.477  39.299   4.795
 2484W        W74799  36.176  42.957  10.395
 2485W        W74800  30.759  42.146  13.098
 2486W        W74801   0.893  12.448  13.083
 2487W        W74802   7.554   4.670  10.188
 2488W        W74803  14.369  38.347   2.699
 2489W        W74804  13.668  26.833   4.240
 2490W        W74805  32.121  44.506  11.900
 2491W        W74806  22.782  30.319  12.199
 2492W        W74807  23.301   7.563   4.562
 2493W        W74808  21.999  17.949   3.181
 2494W        W74809  15.813  36.368   2.167
 2495W        W74810  35.814  36.011  10.609
 2496W        W74811  14.031   4.371  14.376
 2497W        W74812  26.175   8.246  11.276
 2498W        W74813  12.837  19.467   0.885
 2499W        W74814   8.199   5.524   1.016
 2500W        W74815   8.309  19.216   3.171
 2501W        W74816   3.917  34.323   2.205
 2502W        W74817  28.171  38.546  14.846
 2503W        W74818  29.946  31.630   4.233
 2504W        W74819  37.094  34.533  10.600
 2505W        W74820   2.815  42.857  13.802
 2506W        W74821  32.548  42.642   2.771
 2507W        W74822  43.851   0.809  13.596
 2508W        W74823  13.612  36.930  13.206
 2509W        W74824  12.143   6.334   2.348
 2510W        W74825  13.422  44.843   2.357
 2511W        W74826  18.846  33.981   3.898
 2512W        W74827  24.209  24.680  10.537
 2513W        W74828   3.504  36.846   3.642
 2514W        W74829  13.606  14.656  14.965
 2515W        W74830   3.322  31.660  14.944
 2516W        W74831  18.730  17.512  13.347
 2517W        W74832  19.976  41.446   0.929
 2518W        W74833  16.357  23.686   4.596
 2519W        W74834  39.973  14.053   1.545
 2520W        W74835  44.344  42.772   0.297
 2521W        W74836  41.348  37.449  14.494
 2522W        W74837  42.800  39.220   3.257
 2523W        W74838   2.534  28.128   0.983
 2524W        W74839   8.457  25.989   4.521
 2525W        W74840  15.469  16.141   0.900
 2526W        W74841   8.127  35.093  11.684
 2527W        W74842  35.289  44.454   1.413
 2528W        W74843  39.146   9.134   4.863
 2529W        W74844  42.352  26.995   1.886
 2530W        W74845  34.337   6.793   0.855
 2531W        W74846  43.049  39.097  14.657
 2532W        W74847  30.536  24.248   2.789
 2533W        W74848  25.596  21.356   0.386
 2534W        W74849   2.026  25.055  13.101
 2535W        W74850  36.964   9.248  13.505
 2536W        W74851   4.390  33.897  11.026
 2537W        W74852  10.361   6.842  14.062
 2538W        W74853  37.866  17.725   3.912
 2539W        W74854  44.912  25.722  13.872
 2540W        W74855   8.909  10.411  12.068
 2541W        W74856  24.657  37.121   3.159
 2542W        W74857  23.332  35.476   3.981
 2543W        W74858  24.150  40.256   0.364
 2544W        W74859   8.637  32.990  13.484
 2545W        W74860  34.587  12.876  12.075
 2546W        W74861  37.363  20.762  11.900
 2547W        W74862  29.108  38.110   4.583
 2548W        W74863  38.066  32.078   0.482
 2549W        W74864   2.349  31.531   3.670
 2550W        W74865  34.377  32.592  13.773
 2551W        W74866  41.045  13.518  12.004
 2552W        W74867  29.778  18.613   1.842
 2553W        W74868  42.703  42.442  10.503
 2554W        W74869  28.459   7.356  10.689
 2555W        W74870  25.569  14.770  14.017
 2556W        W74871  32.070  31.826   4.887
 2557W        W74872   9.191  32.028   4.025
 2558W        W74873  26.569  15.077  12.380
 2559W        W74874   0.067  32.100  13.652
 2560W        W74875  27.997   6.617   5.260
 2561W        W74876   8.389  41.652  13.880
 2562W        W74877   4.961  33.943   2.901
 2563W        W74878   0.824  15.796   2.710
 2564W        W74879   8.449  26.089   4.014
 2565W        W74880  27.765  26.542  11.746
 2566W        W74881   4.214  20.982   4.347
 2567W        W74882  43.047  24.562   0.808
 2568W        W74883  35.536  12.091  12.564
 2569W        W74884  33.507  43.976   3.925
 2570W        W74885  18.813  35.292   1.258
 2571W        W74886  39.976   1.967  14.470
 2572W        W74887  15.213  38.323   0.948
 2573W        W74888   6.339   8.459   3.703
 2574W        W74889  14.279   7.127   2.203
 2575W        W74890  32.839   1.624  11.136
 2576W        W74891  30.847  35.274   5.222
 2577W        W74892  37.005   3.739   1.159
 2578W        W74893  36.980  20.177   4.156
 2579W        W74894   3.414  42.274   0.882
 2580W        W74895   2.506  10.075   1.073
 2581W        W74896   1.841   7.301   3.628
 2582W        W74897  35.133  44.721  12.897
 2583W        W74898  30.164   6.702   4.771
 2584W        W74899  33.392  23.659   3.608
 2585W        W74900  40.816  13.118  10.665
 2586W        W74901  22.294  22.503  10.683
 2587W        W74902   3.015   8.131  11.033
 2588W        W74903  39.910  13.082  11.619
 2589W        W74904  24.685  18.093  13.530
 2590W        W74905  17.839  28.536  11.948
 2591W        W74906   7.566  35.568   4.582
 2592W        W74907  23.129  35.437   4.490
 2593W        W74908   6.748  22.574   2.838
 2594W        W74909  38.845   8.835   4.028
 2595W        W74910  37.034   5.286   0.958
 2596W        W74911  33.879  17.927  12.224
 2597W        W74912  17.180  44.931   0.973
 2598W        W74913   9.106  25.896  14.876
 2599W        W74914  36.969   9.731   2.650
 2600W        W74915  33.142  34.786  10.731
 2601W        W74916  30.876  31.968  10.577
 2602W        W74917  28.223  33.908  10.411
 2603W        W74918  22.273   1.732   0.943
 2604W        W74919   0.784  26.039  11.054
 2605W        W74920  20.694  24.060  11.859
 2606W        W74921  39.864  26.565  12.286
 2607W        W74922  21.993  23.858  13.881
 2608W        W74923  23.682   8.632  12.033
 2609W        W74924  16.478  17.723  14.992
 2610W        W74925   7.896  17.313   0.973
 2611W        W74926  18.082  23.761  12.056
 2612W        W74927  13.007  42.976   3.183
 2613W        W74928  34.879  34.384   2.265
 2614W        W74929   5.843   4.046  10.357
 2615W        W74930  36.709  20.586   4.596
 2616W        W74931  32.160  28.899   4.542
 2617W        W74932  40.831  33.915   3.242
 2618W        W74933  24.441  12.797  10.636
 2619W        W74934  32.877  42.344   1.973
 2620W        W74935  40.946  25.977  14.430
 2621W        W74936  32.680   0.779  13.341
 2622W        W74937  38.386  18.748  12.600
 2623W        W74938   0.896  11.603  11.069
 2624W        W74939  31.877  21.982   3.236
 2625W        W74940  18.914  12.054  14.372
 2626W        W74941  23.580   1.777  14.026
 2627W        W74942  14.259  14.016  12.394
 2628W        W74943  33.041  44.757   4.214
 2629W        W74944   4.657  24.028  11.998
 2630W        W74945  21.145   7.858   4.069
 2631W        W74946  30.183  38.500  13.475
 2632W        W74947  10.564  18.262   4.687
 2633W        W74948  16.588  44.239   3.904
 2634W        W74949   9.968  42.843   0.977
 2635W        W74950  17.523  30.364   2.258
 2636W        W74951  14.362  30.483   2.402
 2637W        W74952  41.128  21.168  12.950
 2638W        W74953  29.074  18.578   1.222
 2639W        W74954   9.894   1.668  14.960
 2640W        W74955  44.012  23.941   3.688
 2641W        W74956  18.143  27.633   0.805
 2642W        W74957  13.678   4.888   3.383
 2643W        W74958  14.585  11.262  12.522
 2644W        W74959  41.928  26.112  14.795
 2645W        W74960  20.237   5.829  14.800
 2646W        W74961  33.369  36.478   3.565
 2647W        W74962  29.614  28.454   0.930
 2648W        W74963  29.628  38.040  11.306
 2649W        W74964  36.588   0.212  13.339
 2650W        W74965  39.601  34.969  14.998
 2651W        W74966  41.611  21.006  14.843
 2652W        W74967  39.487  20.841  13.436
 2653W        W74968  31.336  36.859  11.557
 2654W        W74969  24.750   9.808  13.897
 2655W        W74970   6.174  12.207  13.114
 2656W        W74971  25.686  33.063   4.459
 2657W        W74972  36.332  14.561  12.375
 2658W        W74973   2.014  32.270  11.668
 2659W        W74974  14.664  33.656   2.271
 2660W        W74975  40.395  27.139   0.618
 2661W        W74976  23.532  31.846   2.478
 2662W        W74977  39.173   4.229   1.176
 2663W        W74978  29.209   5.759  11.929
 2664W        W74979  36.577  19.498  11.150
 2665W        W74980   9.900  34.164   2.924
 2666W        W74981  29.143  44.394   1.238
 2667W        W74982   3.713   8.286  11.284
 2668W        W74983  41.487  12.655   0.837
 2669W        W74984  14.339  37.459  13.493
 2670W        W74985  38.546  37.028  10.577
 2671W        W74986   1.807  22.412  14.177
 2672W        W74987  18.103  39.958   4.609
 2673W        W74988  36.932   9.405   4.254
 2674W        W74989  43.793  33.953   1.604
 2675W        W74990  22.835  38.463  13.296
 2676W        W74991   0.421  17.560   2.830
 2677W        W74992  31.120  43.274  11.405
 2678W        W74993  30.083  16.570  12.086
 2679W        W74994   4.921  17.575   4.261
 2680W        W74995  16.304  38.290  10.178
 2681W        W74996  14.545  19.190   2.254
 2682W        W74997  28.121  24.080   2.867
 2683W        W74998   5.952   9.826   1.613
 2684W        W74999  34.395  28.212  13.357
 2685W        W75000  10.779   9.307  14.585
 2686W        W75001  40.050  14.198  14.527
 2687W        W75002  10.793  34.822  14.774
 2688W        W75003   5.396  27.497  14.402
 2689W        W75004  12.522  20.101   4.079
 2690W        W75005   8.164  12.812  13.474
 2691W        W75006  40.135  18.670  10.383
 2692W        W75007  35.418  44.863  10.763
 2693W        W75008  34.375   0.469  12.894
 2694W        W75009  13.321   1.719  11.177
 2695W        W75010  24.087  29.825  14.889
 2696W        W75011  33.309  44.246   1.433
 2697W        W75012  19.725  19.691  10.698
 2698W        W75013  11.071  13.607  12.557
 2699W        W75014  44.864   8.575   4.109
 2700W        W75015   1.409  12.119  10.683
 2701W        W75016  15.302  41.846  11.943
 2702W        W75017  20.309   4.654   2.483
 2703W        W75018  24.953  33.168  13.347
 2704W        W75019   7.669  44.318   0.931
 2705W        W75020  17.228  19.437   2.133
 2706W        W75021  18.804  38.676  10.194
 2707W        W75022  20.730   5.113  12.557
 2708W        W75023  22.587  41.884   1.459
 2709W        W75024  27.403  10.753   1.011
 2710W        W75025  34.908   0.025   1.870
 2711W        W75026  34.451   0.747  13.421
 2712W        W75027  37.391  27.154  12.460
 2713W        W75028  39.013  38.594  13.387
 2714W        W75029   8.411  13.691  12.581
 2715W        W75030  41.418  41.247  14.269
 2716W        W75031   7.426   5.506  13.461
 2717W        W75032   4.809  21.067   2.838
 2718W        W75033   9.654  36.222   0.745
 2719W        W75034   7.422  18.273   0.212
 2720W        W75035  30.583  13.244  11.167
 2721W        W75036  23.116  37.396   2.245
 2722W        W75037   7.828  16.855   4.784
 2723W        W75038  11.330   3.637  12.938
 2724W        W75039  12.101  22.575  13.133
 2725W        W75040   4.949  34.448  12.070
 2726W        W75041  40.100  34.613   0.928
 2727W        W75042  25.966   5.713  14.145
 2728W        W75043  44.875   6.191   2.260
 2729W        W75044  16.192  43.775  14.438
 2730W        W75045   1.310  42.327  13.053
 2731W        W75046   2.596  27.673   3.347
 2732W        W75047  28.483  25.906  11.926
 2733W        W75048  40.959  34.177  11.580
 2734W        W75049  25.032  43.785   1.258
 2735W        W75050  38.230  30.281   1.117
 2736W        W75051   2.282   5.360  14.518
 2737W        W75052  40.299  35.131  10.912
 2738W        W75053  42.583  16.200   3.305
 2739W        W75054  28.909  31.006  10.981
 2740W        W75055  31.368  30.950   0.645
 2741W        W75056   4.833  26.869  10.815
 2742W        W75057  34.942   5.194   3.054
 2743W        W75058   0.230  24.994   2.698
 2744W        W75059  31.671  41.624   1.269
 2745W        W75060   1.158   9.960   4.109
 2746W        W75061  19.313  21.180   0.519
 2747W        W75062   7.162  29.042  13.103
 2748W        W75063  27.960  39.222  12.607
 2749W        W75064  26.994  15.346  12.532
 2750W        W75065  37.826  39.098   0.488
 2751W        W75066  35.641  22.971   3.278
 2752W        W75067   6.989  21.270   4.683
 2753W        W75068  26.143   7.929   0.728
 2754W        W75069  17.108  17.992   2.442
 2755W        W75070  35.042  26.674   3.528
 2756W        W75071   2.783  43.030   2.942
 2757W        W75072   3.802  27.386  13.309
 2758W        W75073  36.017  28.378   3.610
 2759W        W75074  18.323  24.947  11.750
 2760W        W75075  17.194   1.705   3.192
 2761W        W75076   7.385  21.062  13.814
 2762W        W75077  39.785   4.318   0.183
 2763W        W75078   3.764  44.840   3.207
 2764W        W75079  34.997   3.857   3.095
 2765W        W75080  42.289  36.946  10.505
 2766W        W75081   8.410  30.599  11.568
 2767W        W75082   9.570   8.604  13.047
 2768W        W75083  29.931  10.880   3.160
 2769W        W75084   4.956  42.569   3.769
 2770W        W75085   9.882  19.454   4.630
 2771W        W75086  42.213  43.250   2.692
 2772W        W75087  22.257  38.087  11.116
 2773W        W75088  38.046  11.848  10.769
 2774W        W75089  34.511  42.087   3.153
 2775W        W75090  12.415  23.741   1.328
 2776W        W75091  22.572  34.527  12.471
 2777W        W75092  13.859  24.863  14.206
 2778W        W75093  18.729  27.487  14.710
 2779W        W75094  35.094  24.152  12.867
 2780W        W75095  43.752   7.810   2.384
 2781W        W75096  19.913  25.130   3.762
 2782W        W75097  29.057  24.498  14.818
 2783W        W75098  15.175  36.126   4.750
 2784W        W75099   3.191  40.552   4.757
 2785W        W75100  30.331  12.390   3.266
 2786W        W75101  24.904  25.931  11.440
 2787W        W75102  33.932  38.642  10.874
 2788W        W75103  37.631  26.003  14.959
 2789W        W75104  28.052  14.732  14.936
 2790W        W75105   7.670   2.375  14.829
 2791W        W75106   5.732  30.180  14.388
 2792W        W75107  44.307  20.543   4.230
 2793W        W75108  32.052  37.575   3.270
 2794W        W75109  36.783  17.318   0.974
 2795W        W75110  15.302  15.612   2.802
 2796W        W75111  29.934  10.710   4.710
 2797W        W75112  15.681  41.770   1.329
 2798W        W75113  38.412  25.172   0.186
 2799W        W75114  30.653  11.868   0.970
 2800W        W75115  36.289  14.527   1.705
 2801W        W75116  44.731  26.139  13.572
 2802W        W75117  29.168  41.794   0.345
 2803W        W75118  12.302  11.925  14.431
 2804W        W75119  21.032  26.035  13.571
 2805W        W75120  19.464   7.924  10.218
 2806W        W75121  44.503  29.710  14.960
 2807W        W75122  38.605  25.745   2.865
 2808W        W75123  11.368  31.288   2.725
 2809W        W75124  11.324  29.067  12.428
 2810W        W75125  38.781  28.603   2.317
 2811W        W75126  33.449   1.337   1.857
 2812W        W75127  37.281  37.324   4.555
 2813W        W75128  44.338  25.162  13.473
 2814W        W75129  29.014  41.455   0.753
 2815W        W75130   2.977  44.679  13.779
 2816W        W75131   8.027  32.215   4.081
 2817W        W75132  27.087  22.067  11.888
 2818W        W75133  17.816  33.871   2.671
 2819W        W75134  31.228  36.004   2.911
 2820W        W75135   8.858   3.525  12.568
 2821W        W75136  32.205  14.206   3.304
 2822W        W75137  17.392  38.461  14.758
 2823W        W75138  35.087  32.639   4.528
 2824W        W75139  23.244  22.292   4.026
 2825W        W75140   7.339  33.969   1.313
 2826W        W75141  12.139  41.872  11.082
 2827W        W75142   9.396  25.193   2.348
 2828W        W75143   2.789  13.121  12.602
 2829W        W75144   4.505  31.985   1.318
 2830W        W75145  16.952   8.859   3.753
 2831W        W75146  17.744  34.803   3.171
 2832W        W75147  21.792  24.901   3.285
 2833W        W75148  30.348   3.254   0.845
 2834W        W75149  29.846  20.606  12.461
 2835W        W75150  43.996   1.189   1.955
 2836W        W75151  29.486  30.018  11.956
 2837W        W75152   4.918  11.303   0.396
 2838W        W75153  36.363  30.717  12.972
 2839W        W75154  26.598  44.311   2.021
 2840W        W75155  32.651  42.951  12.205
 2841W        W75156  41.563   0.256   0.384
 2842W        W75157  17.503   6.313   0.763
 2843W        W75158  21.478  13.796   1.945
 2844W        W75159  39.769  37.032  13.345
 2845W        W75160  12.743   8.100  10.714
 2846W        W75161  30.259  23.114   0.043
 2847W        W75162  26.730   3.272   0.504
 2848W        W75163  27.994   9.872   0.035
 2849W        W75164  10.208   3.288   3.640
 2850W        W75165  22.714  12.546   0.722
 2851W        W75166   9.429  24.416   2.619
 2852W        W75167  28.468  37.123  13.203
 2853W        W75168  33.877  11.056  11.923
 2854W        W75169  12.960  24.524  13.833
 2855W        W75170  43.659  31.464   2.285
 2856W        W75171  43.272  12.595  10.573
 2857W        W75172  27.811  19.684  13.400
 2858W        W75173   6.887  42.422  14.868
 2859W        W75174  11.473   6.464  11.051
 2860W        W75175  27.487  34.939   1.447
 2861W        W75176  43.850  33.057  12.361
 2862W        W75177  39.771  22.113  11.955
 2863W        W75178  25.416   2.492   0.986
 2864W        W75179  18.677   6.753   0.371
 2865W        W75180  10.837  23.126  13.523
 2866W        W75181  16.320   0.642   5.054
 2867W        W75182  25.666  38.802   1.928
 2868W        W75183  36.004  28.136   2.887
 2869W        W75184   0.261  39.782   0.225
 2870W        W75185  17.120  20.156   2.802
 2871W        W75186   0.311  24.261   3.253
 2872W        W75187   8.176  34.194  13.637
 2873W        W75188  34.050  37.115  12.739
 2874W        W75189  38.328   3.238  14.845
 2875W        W75190  24.507   3.916   1.325
 2876W        W75191   5.893  31.807  10.589
 2877W        W75192  20.502   6.916  10.733
 2878W        W75193  19.058  10.341   0.903
 2879W        W75194   5.827  22.261  11.262
 2880W        W75195  34.045  26.186   1.321
 2881W        W75196  36.292  44.914  14.728
 2882W        W75197   2.198   4.704  10.065
 2883W        W75198  30.649   2.897  11.920
 2884W        W75199  21.360   6.791  14.769
 2885W        W75200  29.967  44.214  12.452
 2886W        W75201   6.472  35.607   1.860
 2887W        W75202  41.432  28.491   3.924
 2888W        W75203  37.535  24.199   2.133
 2889W        W75204  27.702  41.306   4.199
 2890W        W75205   0.326  32.580  14.839
 2891W        W75206   2.071  14.885   1.727
 2892W        W75207  39.448  35.889  11.429
 2893W        W75208   2.498  32.054   3.665
 2894W        W75209  24.557  44.699   4.164
 2895W        W75210  15.331  40.513  11.490
 2896W        W75211  38.371   8.772   4.292
 2897W        W75212  13.783  31.835  13.507
 2898W        W75213  23.145  15.325   4.723
 2899W        W75214  11.591  44.181  14.038
 2900W        W75215  27.898  42.550  12.572
 2901W        W75216  24.242  26.284   1.344
 2902W        W75217  25.206  26.083   4.270
 2903W        W75218   6.338  28.465  14.729
 2904W        W75219   6.721  38.744  11.659
 2905W        W75220  33.761   5.809   1.340
 2906W        W75221  21.040   1.212   4.174
 2907W        W75222  17.708  15.527  13.847
 2908W        W75223  27.022  20.039   1.968
 2909W        W75224  12.105   1.846   2.872
 2910W        W75225  32.989  23.556  11.583
 2911W        W75226  20.676  12.919   2.044
 2912W        W75227  16.637  28.100   4.204
 2913W        W75228  14.589  26.711  11.122
 2914W        W75229   8.592  27.084  13.576
 2915W        W75230  15.104  22.863   3.136
 2916W        W75231  31.905  11.197   2.385
 2917W        W75232  36.905   6.284   1.032
 2918W        W75233   4.147  42.786   3.341
 2919W        W75234  26.592  16.176  12.541
 2920W        W75235  20.792  41.093  14.273
 2921W        W75236  24.160  12.249  12.702
 2922W        W75237   3.412  26.485  10.000
 2923W        W75238  35.581  16.168  10.674
 2924W        W75239  29.672   2.727  12.936
 2925W        W75240  42.154   6.352  14.371
 2926W        W75241   3.208  23.534   1.759
 2927W        W75242   8.677   5.087  11.646
 2928W        W75243  26.753  39.026  12.100
 2929W        W75244  39.903  41.490  10.615
 2930W        W75245  16.265  12.927   2.840
 2931W        W75246  19.210  38.849   0.298
 2932W        W75247   7.749  32.448   0.776
 2933W        W75248  28.863  44.839   0.358
 2934W        W75249  11.901  19.486   4.273
 2935W        W75250  34.043   9.615   1.171
 2936W        W75251  44.422  27.611   1.499
 2937W        W75252  17.497  11.548   1.260
 2938W        W75253  21.141  39.081   1.211
 2939W        W75254   0.916  30.308  13.848
 2940W        W75255   9.862  31.558   3.687
 2941W        W75256  43.421  19.418  14.194
 2942W        W75257  11.403  12.045  13.054
 2943W        W75258  41.941  24.515  10.521
 2944W        W75259  30.439  31.857   0.740
 2945W        W75260  21.357   7.307  12.597
 2946W        W75261   1.671   0.378   4.695
 2947W        W75262  20.387   6.682   2.703
 2948W        W75263  18.656   4.919   4.576
 2949W        W75264  40.921  29.222  14.718
 2950W        W75265  34.850  26.636   1.350
 2951W        W75266  10.977  35.438  12.492
 2952W        W75267  33.604  38.548  11.659
 2953W        W75268  37.885   1.044  13.870
 2954W        W75269  40.857  43.327  12.055
 2955W        W75270  30.632  11.796  11.065
 2956W        W75271  37.102   2.532   4.218
 2957W        W75272  12.274   0.802   4.551
 2958W        W75273  19.322  19.770   3.207
 2959W        W75274  25.232  18.201  12.977
 2960W        W75275  13.328  38.440   2.860
 2961W        W75276  34.308  37.403   0.894
 2962W        W75277  18.034  35.140  12.567
 2963W        W75278  31.086  19.030  12.406
 2964W        W75279  23.152  11.140  14.045
 2965W        W75280  40.299  14.680   3.669
 2966W        W75281  38.746  10.930   0.532
 2967W        W75282  19.586  12.745  10.400
 2968W        W75283  19.800   7.266   0.336
 2969W        W75284  18.877  38.270   9.878
 2970W        W75285  10.451  16.703  14.990
 2971W        W75286  11.368  41.350  12.920
 2972W        W75287  35.400  21.538   0.741
 2973W        W75288  41.934   1.450  13.572
 2974W        W75289   0.755  30.967   2.898
 2975W        W75290   0.959  36.302   5.089
 2976W        W75291  39.346  37.636   2.498
 2977W        W75292  40.608  22.115   3.755
 2978W        W75293   8.444  43.595   3.737
 2979W        W75294   8.910  21.195  13.839
 2980W        W75295  18.020  22.984  10.648
 2981W        W75296  29.540   1.937  13.428
 2982W        W75297  24.806  32.919  14.205
 2983W        W75298  31.142  23.256   4.792
 2984W        W75299  22.485  17.335   1.770
 2985W        W75300  16.795  41.290  12.543
 2986W        W75301  25.864  29.766  14.816
 2987W        W75302   6.565  21.738   1.900
 2988W        W75303  26.123  35.288  13.990
 2989W        W75304   3.302  20.352   1.277
 2990W        W75305  32.182   8.242   2.833
 2991W        W75306  44.707  13.726   1.399
 2992W        W75307  34.938  42.021   4.154
 2993W        W75308  43.298  26.529  12.342
 2994W        W75309   6.182   0.375  14.876
 2995W        W75310   9.127  33.546   3.400
 2996W        W75311  13.286  42.378   4.703
 2997W        W75312  37.281  26.619   4.566
 2998W        W75313  13.397  38.284  13.665
 2999W        W75314  29.017   7.950  13.395
 3000W        W75315  44.904  35.438   0.548
 3001W        W75316  34.171  41.490   4.531
 3002W        W75317   6.848  43.981  11.820
 3003W        W75318  37.466  22.603   4.617
 3004W        W75319  25.680  15.132   1.398
 3005W        W75320  42.554   5.813   3.698
 3006W        W75321  38.763  30.381  11.191
 3007W        W75322  34.458  38.484  12.906
 3008W        W75323  28.539  16.058   3.002
 3009W        W75324  12.476  44.307  13.583
 3010W        W75325  33.341  23.763  14.007
 3011W        W75326  17.440  40.986   4.680
 3012W        W75327  44.080  29.518  14.668
 3013W        W75328  44.444  32.239   4.479
 3014W        W75329   5.144  43.437   3.670
 3015W        W75330  13.228  33.980   2.787
 3016W        W75331  10.516   4.368   0.824
 3017W        W75332  26.619  31.391   9.752
 3018W        W75333  21.379  27.657  14.784
 3019W        W75334  15.694  39.935   4.689
 3020W        W75335  10.318   1.171   2.688
 3021W        W75336   5.011  41.267   4.128
 3022W        W75337   7.834  39.037   1.800
 3023W        W75338   9.650  10.374   0.673
 3024W        W75339  38.978   8.125   0.200
 3025W        W75340   7.191  10.427  13.925
 3026W        W75341   7.409   3.426   3.308
 3027W        W75342  35.141   6.294   2.821
 3028W        W75343   4.455  27.868   0.487
 3029W        W75344  37.646  26.118   2.294
 3030W        W75345   2.969  33.958  13.980
 3031W        W75346  35.957  34.826  14.330
 3032W        W75347  44.835  31.182   3.211
 3033W        W75348  36.634  11.726   2.295
 3034W        W75349   9.865   5.183   3.266
 3035W        W75350  10.826  23.000   4.036
 3036W        W75351   3.032  16.221   2.635
 3037W        W75352  26.743   0.355   3.832
 3038W        W75353  39.577  21.569   4.466
 3039W        W75354  36.730  41.963  13.049
 3040W        W75355   9.176  31.900  12.010
 3041W        W75356  41.836  36.893  11.691
 3042W        W75357  31.955  30.869   1.412
 3043W        W75358  30.589  16.885  11.253
 3044W        W75359   9.942  44.043  12.499
 3045W        W75360   9.462  43.842   0.897
 3046W        W75361  18.804  34.397   1.835
 3047W        W75362   3.939  41.874  10.637
 3048W        W75363  40.753  14.319  12.344
 3049W        W75364  27.277  21.713   3.851
 3050W        W75365  31.326  32.917  12.555
 3051W        W75366   4.489  43.155   3.229
 3052W        W75367  25.027   8.135  10.506
 3053W        W75368  26.499  12.944   1.837
 3054W        W75369  40.755   2.643   4.650
 3055W        W75370  24.137  35.101   0.833
 3056W        W75371  36.496  22.265  12.025
 3057W        W75372  19.958  11.318  10.180
 3058W        W75373  43.867  20.667   2.186
 3059W        W75374  39.474  20.042   1.829
 3060W        W75375   4.192  18.294  12.896
 3061W        W75376  34.574  36.400   4.084
 3062W        W75377   9.780   4.873   4.524
 3063W        W75378   8.401  41.760  12.352
 3064W        W75379  26.174  16.792   4.651
 3065W        W75380  15.512  16.831  12.220
 3066W        W75381  13.304  24.731   1.213
 3067W        W75382  36.814  38.767  13.582
 3068W        W75383  17.529   1.181   0.691
 3069W        W75384  32.084   7.905   0.376
 3070W        W75385  41.286  34.320  13.997
 3071W        W75386  28.633  22.245   1.227
 3072W        W75387   1.190  13.534  14.548
 3073W        W75388  40.791  30.212  11.027
 3074W        W75389   7.695  33.118   3.253
 3075W        W75390  19.025  23.517   0.902
 3076W        W75391  26.076  34.505   1.328
 3077W        W75392  16.187   3.270  14.318
 3078W        W75393   5.691   1.345  14.852
 3079W        W75394   7.415  44.059  12.951
 3080W        W75395  36.852  38.908  14.977
 3081W        W75396  18.514   9.801   3.268
 3082W        W75397  24.225  38.790   2.390
 3083W        W75398  21.944  21.633   4.668
 3084W        W75399  25.547  26.957  11.039
 3085W        W75400  23.194  43.600   2.139
 3086W        W75401  31.100  23.274  10.692
 3087W        W75402  13.182  27.182  11.566
 3088W        W75403  14.159  43.855  13.631
 3089W        W75404   2.263  37.237  11.448
 3090W        W75405  17.978  37.562   4.717
 3091W        W75406  14.376  27.934  13.920
 3092W        W75407  19.068  27.566   3.751
 3093W        W75408  24.469  37.889  14.588
 3094W        W75409   3.409  44.305  10.288
 3095W        W75410   2.954   3.720   2.886
 3096W        W75411  42.629  14.998  13.430
 3097W        W75412  24.931  42.466  10.482
 3098W        W75413   4.889  42.249  11.165
 3099W        W75414  24.024  34.071  13.056
 3100W        W75415   6.000  11.646  12.360
 3101W        W75416  29.538   2.640   4.725
 3102W        W75417  12.045  39.805  10.647
 3103W        W75418  38.690   6.887  12.075
 3104W        W75419  29.401   9.637   2.547
 3105W        W75420  36.926  16.621   2.317
 3106W        W75421  31.956   7.987   3.843
 3107W        W75422  26.037  40.329   4.306
 3108W        W75423  19.103  25.938  11.810
 3109W        W75424  38.129  27.411  14.314
 3110W        W75425  13.101  33.582   4.424
 3111W        W75426  44.783  19.221   2.384
 3112W        W75427   1.025  40.550   4.997
 3113W        W75428  29.688  38.290   1.810
 3114W        W75429   7.157  13.258   2.351
 3115W        W75430  22.008  17.289  14.368
 3116W        W75431  35.556  37.239  11.146
 3117W        W75432   1.062   8.574  11.042
 3118W        W75433  25.974   6.167  10.596
 3119W        W75434  42.774  35.214  10.861
 3120W        W75435  41.057  11.276  14.849
 3121W        W75436  11.649   4.246  12.417
 3122W        W75437  44.875  22.772  11.978
 3123W        W75438   5.846  18.107  10.826
 3124W        W75439  38.993  39.361   0.806
 3125W        W75440  14.843   8.562   1.715
 3126W        W75441  37.411   7.369   4.086
 3127W        W75442  30.454   2.212   0.811
 3128W        W75443  19.694  14.191   2.702
 3129W        W75444  39.454  18.486   0.014
 3130W        W75445  14.811  42.510  12.533
 3131W        W75446  33.347  11.743   1.859
 3132W        W75447  27.178  34.120  14.543
 3133W        W75448  25.115  25.236   0.302
 3134W        W75449  23.121  12.255  14.543
 3135W        W75450  24.003  33.969  10.775
 3136W        W75451  12.587  13.346  11.228
 3137W        W75452   0.844  28.484   4.181
 3138W        W75453   7.622  19.442   2.712
 3139W        W75454  14.252  35.029  13.602
 3140W        W75455  17.008  35.424  12.045
 3141W        W75456  23.967  16.299  14.136
 3142W        W75457  18.128   2.433   3.696
 3143W        W75458  11.626  12.352  12.601
 3144W        W75459   5.939  29.623   0.276
 3145W        W75460  30.244   2.323   0.212
 3146W        W75461  20.454  39.859  13.367
 3147W        W75462  37.102  21.700   4.190
 3148W        W75463  10.673   7.272  13.508
 3149W        W75464  30.925  11.370  10.984
 3150W        W75465   6.276  42.385   3.364
 3151W        W75466  35.398  13.031   3.214
 3152W        W75467   9.192  19.309  10.069
 3153W        W75468  37.777  44.719  13.496
 3154W        W75469  24.997  21.148  10.313
 3155W        W75470  18.723  38.081   2.704
 3156W        W75471   3.960  40.651  10.147
 3157W        W75472  18.528  33.608  10.699
 3158W        W75473  43.905   6.725   4.203
 3159W        W75474  27.916  18.013   3.375
 3160W        W75475  33.169   9.881  13.223
 3161W        W75476   2.651  26.230  11.924
 3162W        W75477  20.668  11.733  12.023
 3163W        W75478  16.284   4.327  10.752
 3164W        W75479  33.596  31.593  12.133
 3165W        W75480  26.912   3.435   9.826
 3166W        W75481  29.959  25.011  11.032
 3167W        W75482  26.145  14.709  11.563
 3168W        W75483  43.537   7.862   0.875
 3169W        W75484  10.290  11.340   3.946
 3170W        W75485  30.245  33.978  10.775
 3171W        W75486  32.357  20.534  14.424
 3172W        W75487  36.302  14.825  13.346
 3173W        W75488  35.895  43.692  13.035
 3174W        W75489  44.612  34.972  14.774
 3175W        W75490  28.524  19.196  11.188
 3176W        W75491  30.837  37.405   4.815
 3177W        W75492  43.859  22.480   4.058
 3178W        W75493  30.403  31.019  11.638
 3179W        W75494   2.410  27.576  13.165
 3180W        W75495  35.383  14.218  13.959
 3181W        W75496  38.573  25.950  11.930
 3182W        W75497  14.334   8.325   0.419
 3183W        W75498   8.384  17.534   4.464
 3184W        W75499  27.782   7.120   5.222
 3185W        W75500  36.237   8.442  11.566
 3186W        W75501  20.048  18.259  12.191
 3187W        W75502   5.359  26.176  11.828
 3188W        W75503  32.634   3.209   2.895
 3189W        W75504  43.330  19.344   3.734
 3190W        W75505  31.875   7.160   3.249
 3191W        W75506  11.687  43.436   1.267
 3192W        W75507  39.112   7.598  11.590
 3193W        W75508   2.268  24.216  12.543
 3194W        W75509  42.701  14.803  14.929
 3195W        W75510  32.937  39.738  13.987
 3196W        W75511  43.639  27.594   3.699
 3197W        W75512  32.124  28.016  13.868
 3198W        W75513  12.650  34.958  13.911
 3199W        W75514  36.321  16.189   2.375
 3200W        W75515  33.909   5.474  14.863
 3201W        W75516  37.430  12.045   2.362
 3202W        W75517  40.427  41.536  14.619
 3203W        W75518  43.893   1.809   0.121
 3204W        W75519  30.878  16.566   0.873
 3205W        W75520  19.357   0.393   4.710
 3206W        W75521  40.403  12.916   2.370
 3207W        W75522   5.028  25.274  11.589
 3208W        W75523   7.613  39.899   3.249
 3209W        W75524  25.153   5.108  10.596
 3210W        W75525  33.844  32.168   4.179
 3211W        W75526  13.721  36.064  13.335
 3212W        W75527   7.281  41.836   0.384
 3213W        W75528  10.699  42.087   2.678
 3214W        W75529  11.193  15.000  13.871
 3215W        W75530   7.890  39.462  11.497
 3216W        W75531  10.193  42.500   3.161
 3217W        W75532  43.010  11.203  10.475
 3218W        W75533  34.284  27.087   4.368
 3219W        W75534   2.379   7.316  14.410
 3220W        W75535  26.062  17.193  10.663
 3221W        W75536   4.992   2.470  13.025
 3222W        W75537   7.777  25.819  10.714
 3223W        W75538  34.671  28.482   3.631
 3224W        W75539   6.321  34.669   4.458
 3225W        W75540  38.364  13.856  14.789
 3226W        W75541  44.778  43.860   3.406
 3227W        W75542  33.379  28.474  14.952
 3228W        W75543  14.844  25.534  12.391
 3229W        W75544  28.049  39.344   3.169
 3230W        W75545  13.431   9.414  13.639
 3231W        W75546  41.029  42.991   5.075
 3232W        W75547  35.411  28.041   0.584
 3233W        W75548  43.833   9.875   2.188
 3234W        W75549  23.603  36.853   0.705
 3235W        W75550  14.311   1.211  11.090
 3236W        W75551  11.270  22.801   0.386
 3237W        W75552  15.815   2.797   4.604
 3238W        W75553  28.912  23.679   4.262
 3239W        W75554  44.806  30.502  13.508
 3240W        W75555  19.629  39.285  11.968
 3241W        W75556  28.399   9.872   2.295
 3242W        W75557  17.726   5.760  12.052
 3243W        W75558  40.292  14.718  10.651
 3244W        W75559  41.026   0.136   3.519
 3245W        W75560  43.800  38.978   0.280
 3246W        W75561  43.284  40.856  10.766
 3247W        W75562  11.775   0.905   0.222
 3248W        W75563   7.453  13.301   0.803
 3249W        W75564  18.806  22.143   2.440
 3250W        W75565  27.193  12.280   4.599
 3251W        W75566  20.440  39.595  14.965
 3252W        W75567  38.602   7.700  11.616
 3253W        W75568  13.729  18.571  13.299
 3254W        W75569  36.331  43.932   2.759
 3255W        W75570  19.883  18.870  11.147
 3256W        W75571  36.483   0.831   0.221
 3257W        W75572  32.582  42.845   1.286
 3258W        W75573  31.629  13.356  12.824
 3259W        W75574  18.037  30.209   2.312
 3260W        W75575   1.299  41.685  11.333
 3261W        W75576  20.668   6.660   3.780
 3262W        W75577  43.258  41.906   1.339
 3263W        W75578  14.141  38.446   4.781
 3264W        W75579  24.375  38.929  10.512
 3265W        W75580  38.041  40.052   2.032
 3266W        W75581  27.150  35.528  12.334
 3267W        W75582  16.530  32.463   4.146
 3268W        W75583  24.411  26.443  11.610
 3269W        W75584  20.146  15.794   1.263
 3270W        W75585  36.364  10.316   1.357
 3271W        W75586  24.547  39.483   4.636
 3272W        W75587  26.015   7.642  11.896
 3273W        W75588  19.129  40.033  11.965
 3274W        W75589  25.871  28.120  13.929
 3275W        W75590  18.007  33.549   0.326
 3276W        W75591   8.118   7.448   3.157
 3277W        W75592  42.472  40.931  13.038
 3278W        W75593   0.918  27.031  10.849
 3279W        W75594  28.097  30.440   0.860
 3280W        W75595  23.627  38.321   1.351
 3281W        W75596   0.291  12.213   3.098
 3282W        W75597   7.866  17.781   4.780
 3283W        W75598  13.579  11.686  11.861
 3284W        W75599  27.003  41.112   2.412
 3285W        W75600  30.889  12.372  14.916
 3286W        W75601  24.336  13.232   1.605
 3287W        W75602  10.322  32.063   0.909
 3288W        W75603  20.683  20.763  11.966
 3289W        W75604  17.289   2.797  11.082
 3290W        W75605   4.165  14.336  14.296
 3291W        W75606  40.473  28.675  14.122
 3292W        W75607  31.886   8.835  13.471
 3293W        W75608  16.151  13.740   2.440
 3294W        W75609  32.532  21.615  13.768
 3295W        W75610  29.059  16.208   4.818
 3296W        W75611  39.684   5.002  13.436
 3297W        W75612  40.370  16.156  11.467
 3298W        W75613  11.372  16.260   1.658
 3299W        W75614  30.199   9.157   3.452
 3300W        W75615  11.112  13.308  14.988
 3301W        W75616  12.924  28.620  11.486
 3302W        W75617  31.402  23.754  12.340
 3303W        W75618  30.517   3.855  13.537
 3304W        W75619  25.270  33.631  13.638
 3305W        W75620  30.385   1.675  13.951
 3306W        W75621  20.216  11.846  14.758
 3307W        W75622  20.326  43.619  11.516
 3308W        W75623   3.522   4.213   4.018
 3309W        W75624  36.581  27.178   4.899
 3310W        W75625  18.528  27.371   0.170
 3311W        W75626  10.363   2.757  14.426
 3312W        W75627   8.352  32.127  11.523
 3313W        W75628  20.241  40.490   5.107
 3314W        W75629  24.503  29.072   0.422
 3315W        W75630  39.224  27.942  11.591
 3316W        W75631   2.887  34.901  12.647
 3317W        W75632  22.599   2.944   4.391
 3318W        W75633  41.302  35.838   0.022
 3319W        W75634  42.309   7.369   3.079
 3320W        W75635  31.969  30.061   2.742
 3321W        W75636  39.797  18.810  12.854
 3322W        W75637  33.377  20.698  12.560
 3323W        W75638  26.484  37.961  13.937
 3324W        W75639  19.653  12.144   2.254
 3325W        W75640  25.970  14.754   2.195
 3326W        W75641  36.079  30.543  14.433
 3327W        W75642  32.333  22.721  11.581
 3328W        W75643  11.682  34.687   0.867
 3329W        W75644  37.850   2.219  11.575
 3330W        W75645  29.668  16.309   1.425
 3331W        W75646   2.927  30.001   4.823
 3332W        W75647  36.552   0.716  13.406
 3333W        W75648  15.486  10.133  11.534
 3334W        W75649  33.491   5.328   4.256
 3335W        W75650  42.575  35.026   4.090
 3336W        W75651  37.515   1.237  12.301
 3337W        W75652  42.805  40.829   3.637
 3338W        W75653  20.915  35.215   3.636
 3339W        W75654  22.424   3.283  10.962
 3340W        W75655  22.755  23.541   2.741
 3341W        W75656  35.145  38.996  11.159
 3342W        W75657   9.816  21.237  12.166
 3343W        W75658  43.415  44.489   1.792
 3344W        W75659  19.198  22.764   1.392
 3345W        W75660  23.988  20.612  13.419
 3346W        W75661  20.234  18.567   2.217
 3347W        W75662  16.096   6.145   3.216
 3348W        W75663   1.699   8.292   4.557
 3349W        W75664  24.679  31.756   4.803
 3350W        W75665   3.737  24.924   0.775
 3351W        W75666   6.569   5.143  13.428
 3352W        W75667  35.043  41.239   0.403
 3353W        W75668  26.029   7.926   2.642
 3354W        W75669  19.214  44.877   4.893
 3355W        W75670   7.652  23.579  14.463
 3356W        W75671  17.587  26.822  14.529
 3357W        W75672   6.378   4.793  11.565
 3358W        W75673  27.576  35.706  13.025
 3359W        W75674  17.612  24.221  11.771
 3360W        W75675   3.998  35.805   2.332
 3361W        W75676  35.763  13.750  10.779
 3362W        W75677   6.929  36.027   4.044
 3363W        W75678   8.713   1.255   4.317
 3364W        W75679  21.059  36.295   0.799
 3365W        W75680   6.784   0.893   4.592
 3366W        W75681  33.266  43.728   1.743
 3367W        W75682  11.827   8.747  13.552
 3368W        W75683  43.981   6.159   3.372
 3369W        W75684   2.410  13.653  11.505
 3370W        W75685  39.724   4.300  11.531
 3371W        W75686  36.332  20.149   3.314
 3372W        W75687  31.712  41.352  12.543
 3373W        W75688   7.904  29.661  13.660
 3374W        W75689  22.750  30.479  14.822
 3375W        W75690  26.788   5.717   4.494
 3376W        W75691  27.202   5.938   5.376
 3377W        W75692  40.382  26.610   2.768
 3378W        W75693   6.857  37.791  14.036
 3379W        W75694  27.814  34.665   1.781
 3380W        W75695   3.709   2.952   1.906
 3381W        W75696  16.557   9.205   1.913
 3382W        W75697  36.072  44.683   4.529
 3383W        W75698  15.370  22.437   0.939
 3384W        W75699  34.413  32.452  11.190
 3385W        W75700  37.893  19.137   2.383
 3386W        W75701  35.430   7.430  12.148
 3387W        W75702  41.887  12.344   1.120
 3388W        W75703   1.505  41.782   4.295
 3389W        W75704  26.152  17.139   1.347
 3390W        W75705  15.153   4.774  10.683
 3391W        W75706   5.239  13.095  12.635
 3392W        W75707   3.329  11.528   3.625
 3393W        W75708   9.643  21.068   0.958
 3394W        W75709   5.297  27.941   0.260
 3395W        W75710  20.525  22.557  14.543
 3396W        W75711   3.850  10.641   3.222
 3397W        W75712  17.424  40.979  12.050
 3398W        W75713  43.394  33.464   3.326
 3399W        W75714  30.500  43.451  12.290
 3400W        W75715   1.230  36.030   1.762
 3401W        W75716  36.810  15.817   2.802
 3402W        W75717  21.927  17.145  11.402
 3403W        W75718  31.437  14.046   3.753
 3404W        W75719  30.390  20.777   4.324
 3405W        W75720  14.239  19.657  12.591
 3406W        W75721  39.083  40.414  13.459
 3407W        W75722   5.032  22.720   4.947
 3408W        W75723  36.955  34.639  14.967
 3409W        W75724  15.650  16.535  10.100
 3410W        W75725  43.077  20.131   2.630
 3411W        W75726  18.353  42.288  10.726
 3412W        W75727  39.823  26.706   2.132
 3413W        W75728  39.415  26.022   1.745
 3414W        W75729  11.674   5.453  11.782
 3415W        W75730  22.018  23.648   0.136
 3416W        W75731  44.474  10.600  14.898
 3417W        W75732  24.862   2.948  12.582
 3418W        W75733  22.872  26.643  12.154
 3419W        W75734  29.205  16.607   1.233
 3420W        W75735  14.069  15.109  14.299
 3421W        W75736  28.480  27.937  10.721
 3422W        W75737  40.751  35.357   3.312
 3423W        W75738   0.762  16.303   2.832
 3424W        W75739   0.022  18.080  13.031
 3425W        W75740  19.461  19.244  10.783
 3426W        W75741   0.819  12.221  10.240
 3427W        W75742  28.367  20.345   1.352
 3428W        W75743   3.052   0.486  10.689
 3429W        W75744  28.662   4.906   4.656
 3430W        W75745  30.594   6.806  11.098
 3431W        W75746  37.387  21.963   1.996
 3432W        W75747  32.108  14.684  10.675
 3433W        W75748   5.359  31.344  14.014
 3434W        W75749  33.407  18.825  14.028
 3435W        W75750   3.385   0.864  11.992
 3436W        W75751   6.306  25.987   4.714
 3437W        W75752  36.938   8.447   3.738
 3438W        W75753  40.497  21.183  14.198
 3439W        W75754   8.367  28.215  14.644
 3440W        W75755  40.587   7.820  11.009
 3441W        W75756   8.740  10.682   2.337
 3442W        W75757  25.626  31.092  13.933
 3443W        W75758  31.389  11.142   3.676
 3444W        W75759  28.970  20.845   3.303
 3445W        W75760   2.252   2.720   0.275
 3446W        W75761  44.027   2.481   1.772
 3447W        W75762  15.055   2.704   2.201
 3448W        W75763  14.293   3.761  12.454
 3449W        W75764  17.042  22.485   1.325
 3450W        W75765   2.501  43.724   1.509
 3451W        W75766  13.198  44.776   0.952
 3452W        W75767  37.072  20.812  14.803
 3453W        W75768  15.787   4.745   1.774
 3454W        W75769  40.678  16.012   3.978
 3455W        W75770  35.790  42.023  10.651
 3456W        W75771  42.756  13.433   0.071
 3457W        W75772   9.705  44.525  12.505
 3458W        W75773  10.581  18.071   3.587
 3459W        W75774  16.040  30.064  13.373
 3460W        W75775  21.094  27.628  12.875
 3461W        W75776  21.478  27.756   4.055
 3462W        W75777   4.341  33.217   0.832
 3463W        W75778  41.989  21.111  13.479
 3464W        W75779  21.005  28.836  11.564
 3465W        W75780   8.716   7.168   2.266
 3466W        W75781  36.062  24.210  13.920
 3467W        W75782  41.786   3.150  12.587
 3468W        W75783  30.119  19.315  12.445
 3469W        W75784  20.005  30.428   0.661
 3470W        W75785  43.488  44.135   3.275
 3471W        W75786  17.677   8.087  12.599
 3472W        W75787  18.560  22.190   4.642
 3473W        W75788  26.634  29.124  13.477
 3474W        W75789   3.383  21.751   2.745
 3475W        W75790   4.268   0.860   2.279
 3476W        W75791   2.853  25.694   3.187
 3477W        W75792  14.614  25.202  13.600
 3478W        W75793  17.178  11.252   4.705
 3479W        W75794  38.310  32.163  11.495
 3480W        W75795   0.415  11.204   1.675
 3481W        W75796   5.682  36.572   2.204
 3482W        W75797   9.602   0.328   3.096
 3483W        W75798  30.531   6.362   0.721
 3484W        W75799  37.646  11.806  11.180
 3485W        W75800  15.420  33.393   5.061
 3486W        W75801  28.890   1.600  12.925
 3487W        W75802  10.196  32.251  13.857
 3488W        W75803  21.128   6.689   4.155
 3489W        W75804  41.972  21.255  12.394
 3490W        W75805  28.549   8.369   1.475
 3491W        W75806  12.628   6.734   4.269
 3492W        W75807   7.839  14.095   1.022
 3493W        W75808  25.014  34.927  10.773
 3494W        W75809  40.112   6.733  10.379
 3495W        W75810   9.779  44.440  10.673
 3496W        W75811  34.953  35.456   2.243
 3497W        W75812  42.061  42.748   2.791
 3498W        W75813   0.976  31.610   1.710
 3499W        W75814   1.890  13.458  12.482
 3500W        W75815  21.141  28.215   1.400
 3501W        W75816  33.932  14.442   3.166
 3502W        W75817  27.052  12.820   2.612
 3503W        W75818   9.869  19.706   2.380
 3504W        W75819  32.487  11.565  14.508
 3505W        W75820  33.964   0.869  14.013
 3506W        W75821  24.037  10.190  13.916
 3507W        W75822  14.622  43.484   1.811
 3508W        W75823   8.643  20.470   5.121
 3509W        W75824  29.469  19.342   3.657
 3510W        W75825   5.601  36.099  11.122
 3511W        W75826  32.549   0.463  11.935
 3512W        W75827  37.402   3.476   0.893
 3513W        W75828   8.537   6.064  12.499
 3514W        W75829  15.117  27.499   1.745
 3515W        W75830  41.690  19.746  10.628
 3516W        W75831  35.183  37.072  12.020
 3517W        W75832   9.758  21.737  13.554
 3518W        W75833  22.157  29.455   0.992
 3519W        W75834  43.409  36.441   4.253
 3520W        W75835  26.061  23.552  11.280
 3521W        W75836  16.859  33.975   0.948
 3522W        W75837  19.300  15.301   1.802
 3523W        W75838   6.449  31.974   0.243
 3524W        W75839   0.251  42.561   2.178
 3525W        W75840  28.628  44.332   1.202
 3526W        W75841   4.950   9.572  12.497
 3527W        W75842  27.135   3.988   5.472
 3528W        W75843   5.260  32.469   4.895
 3529W        W75844  15.361  19.082   3.974
 3530W        W75845  21.569  17.411   1.856
 3531W        W75846  38.053   5.873   3.254
 3532W        W75847  39.997   0.562   2.662
 3533W        W75848  44.841   9.379  10.108
 3534W        W75849   3.049  36.301  14.784
 3535W        W75850   9.202  13.312  12.523
 3536W        W75851   0.730  40.337  11.634
 3537W        W75852  19.804  15.385   3.287
 3538W        W75853  18.331  29.642   4.195
 3539W        W75854  10.173  34.333   4.646
 3540W        W75855  39.529  33.473  14.371
 3541W        W75856  28.658   6.218   0.862
 3542W        W75857  43.579  11.748   0.870
 3543W        W75858  20.649   0.481  12.537
 3544W        W75859  25.512  17.230  10.259
 3545W        W75860  37.939  16.193  12.070
 3546W        W75861  21.696  31.554   0.839
 3547W        W75862  25.719  18.522  10.626
 3548W        W75863  21.672  37.620  13.300
 3549W        W75864  40.836   6.150   3.836
 3550W        W75865  27.952  15.622  11.637
 3551W        W75866   8.735  39.962   3.878
 3552W        W75867  16.268  15.445  14.037
 3553W        W75868   0.767  24.548  10.698
 3554W        W75869  25.306  36.386  12.437
 3555W        W75870  14.605  31.874  14.859
 3556W        W75871   4.524  38.294  13.375
 3557W        W75872  22.406  13.852  12.503
 3558W        W75873  42.826  18.259   1.935
 3559W        W75874  11.841  27.611   0.432
 3560W        W75875  18.687  12.302  12.155
 3561W        W75876  36.249  31.649   2.435
 3562W        W75877  18.459  41.045  12.020
 3563W        W75878   7.806  36.543   0.529
 3564W        W75879  34.580   0.530  10.623
 3565W        W75880  19.142  22.697   4.140
 3566W        W75881   9.951  29.493  13.393
 3567W        W75882  18.584  35.461  13.635
 3568W        W75883   0.409  38.852  12.515
 3569W        W75884   3.419  38.265   3.617
 3570W        W75885  27.738   3.894   4.293
 3571W        W75886  23.942  33.619   3.644
 3572W        W75887  21.700  23.585  11.027
 3573W        W75888   0.372   4.212  13.925
 3574W        W75889  41.832  26.074   2.710
 3575W        W75890  28.387  33.407   1.865
 3576W        W75891   2.282  35.065   0.246
 3577W        W75892  35.661  37.494   4.057
 3578W        W75893  38.022  14.372  10.621
 3579W        W75894  23.669  21.115   3.264
 3580W        W75895   7.737  30.961   2.666
 3581W        W75896  37.742  30.497   1.170
 3582W        W75897   8.758  26.763   3.159
 3583W        W75898  25.369  14.843  13.551
 3584W        W75899  19.328  22.013  11.991
 3585W        W75900   9.603  37.042   0.377
 3586W        W75901  32.412  29.084   3.288
 3587W        W75902  25.088  10.402   0.993
 3588W        W75903  14.369  29.407   4.357
 3589W        W75904  32.887  29.067  14.532
 3590W        W75905   4.333  30.245  10.368
 3591W        W75906  16.428  28.819  12.333
 3592W        W75907  16.508  33.563   2.936
 3593W        W75908  20.314  29.484  14.599
 3594W        W75909  37.065  38.024  14.908
 3595W        W75910   1.373  27.959   0.420
 3596W        W75911   9.629  34.634   2.799
 3597W        W75912  32.112   4.434  14.266
 3598W        W75913   2.283  17.395   2.729
 3599W        W75914  26.880  27.663   1.959
 3600W        W75915  11.090   9.099   3.024
 3601W        W75916  40.887  31.504  13.626
 3602W        W75917  35.923  17.351  13.404
 3603W        W75918  42.007  19.953  11.888
 3604W        W75919   2.729  34.539   3.897
 3605W        W75920  33.482   7.599   3.304
 3606W        W75921   1.281   5.987  13.899
 3607W        W75922  22.199  37.971   1.324
 3608W        W75923   1.338  25.010   0.915
 3609W        W75924   2.796  29.927   0.046
 3610W        W75925  41.068  42.450   4.380
 3611W        W75926  19.722  34.010   0.690
 3612W        W75927  37.908  24.554  14.788
 3613W        W75928  13.432  35.843  11.227
 3614W        W75929  42.530  35.527  10.469
 3615W        W75930   3.483   0.670   4.695
 3616W        W75931  35.111  38.002  12.042
 3617W        W75932  23.006  13.877   0.790
 3618W        W75933  38.987  17.174   4.553
 3619W        W75934  17.107  22.503  11.967
 3620W        W75935  38.569   4.132  13.958
 3621W        W75936  42.865  21.147  10.408
 3622W        W75937  10.619  10.366  10.897
 3623W        W75938   7.704  28.497  14.076
 3624W        W75939  36.708   3.531  13.471
 3625W        W75940  20.907  42.321  13.984
 3626W        W75941  16.787  43.580  10.685
 3627W        W75942  27.676  26.933   4.126
 3628W        W75943  35.998  12.761   1.421
 3629W        W75944   1.091  23.183   2.065
 3630W        W75945  34.833  35.037  13.383
 3631W        W75946  42.530   5.189  13.835
 3632W        W75947  11.354  25.200   4.691
 3633W        W75948   9.397  28.607   2.923
 3634W        W75949  33.156  20.181   4.217
 3635W        W75950  42.029  26.081   2.247
 3636W        W75951   3.467   8.213   2.763
 3637W        W75952  35.500  17.540   0.279
 3638W        W75953   5.052  23.150  14.053
 3639W        W75954  26.021  19.653  10.692
 3640W        W75955  35.920  23.817  10.727
 3641W        W75956  32.532  15.491   0.365
 3642W        W75957  39.983   4.861   3.802
 3643W        W75958  15.296   2.835  14.203
 3644W        W75959   8.268  35.547  11.515
 3645W        W75960  38.535  36.264  12.032
 3646W        W75961  42.960  37.414   4.120
 3647W        W75962  31.514  20.149  14.631
 3648W        W75963  13.830   3.125   2.888
 3649W        W75964  42.012  19.628  10.183
 3650W        W75965   0.546  42.845   4.295
 3651W        W75966  12.331   3.716  14.389
 3652W        W75967   0.408  33.609   9.942
 3653W        W75968  12.439  37.611  14.776
 3654W        W75969  44.316  13.363  13.573
 3655W        W75970  16.776  30.363  10.616
 3656W        W75971  21.819  44.496  11.163
 3657W        W75972  42.390  35.156   0.697
 3658W        W75973  37.131  27.375  11.580
 3659W        W75974  21.614   9.625  14.712
 3660W        W75975  20.643  26.468  11.503
 3661W        W75976  12.635  44.996  14.626
 3662W        W75977  42.450  38.572   1.783
 3663W        W75978   3.253  24.179   0.577
 3664W        W75979  24.648   9.360  11.643
 3665W        W75980  17.809  33.894  11.015
 3666W        W75981  24.193  29.413   4.984
 3667W        W75982  10.380   7.193   5.106
 3668W        W75983  26.451  21.621  14.633
 3669W        W75984  12.288   6.875   1.967
 3670W        W75985  14.024  44.009   3.188
 3671W        W75986  15.069  37.857   1.205
 3672W        W75987  41.236   1.861  12.859
 3673W        W75988  34.393   2.460   2.648
 3674W        W75989  33.623   3.927  12.082
 3675W        W75990   7.169  40.468  14.793
 3676W        W75991  31.192   3.502   0.824
 3677W        W75992  44.291   1.321   2.379
 3678W        W75993  39.539  38.046   3.833
 3679W        W75994  20.930   3.812  13.883
 3680W        W75995  24.969  20.793   5.485
 3681W        W75996  33.601  41.897   3.212
 3682W        W75997  44.715  44.035   2.009
 3683W        W75998  21.446  32.047  10.826
 3684W        W75999   0.819   5.961  10.729
 3685W        W76000   6.759  36.065   1.930
 3686W        W76001  11.117  28.959   0.620
 3687W        W76002  39.852   8.234   1.887
 3688W        W76003  35.386   8.759   1.139
 3689W        W76004   4.180   5.270  10.675
 3690W        W76005  36.386  40.401  10.901
 3691W        W76006   5.198   7.134   1.597
 3692W        W76007  21.637  41.046   0.333
 3693W        W76008   1.709  31.703   5.104
 3694W        W76009   5.327   1.934   4.638
 3695W        W76010  31.935  17.309  12.025
 3696W        W76011  25.964  22.925   3.204
 3697W        W76012   6.147  21.673   4.838
 3698W        W76013  42.713  36.144   3.106
 3699W        W76014  39.836  10.719  13.712
 3700W        W76015  10.352  40.741   1.763
 3701W        W76016  24.439  33.216  13.286
 3702W        W76017  20.617  23.624   4.185
 3703W        W76018  31.392  19.507   1.303
 3704W        W76019  10.999  22.639  13.573
 3705W        W76020  17.504  14.576  12.485
 3706W        W76021  42.778   5.042  13.388
 3707W        W76022  24.083  23.998  11.122
 3708W        W76023  18.578  11.094   2.195
 3709W        W76024  16.004  37.637  11.640
 3710W        W76025  16.914  41.885   1.239
 3711W        W76026   0.660  41.996  14.290
 3712W        W76027  26.442  36.616   3.288
 3713W        W76028  22.076  42.236   0.233
 3714W        W76029   5.796  32.575   0.025
 3715W        W76030  26.338   0.438   1.265
 3716W        W76031  38.491  24.668  12.413
 3717W        W76032  10.227   4.777   2.850
 3718W        W76033  15.379  30.133   0.258
 3719W        W76034  14.956  28.907  14.500
 3720W        W76035  11.601  15.081  11.708
 3721W        W76036  36.927  21.133   1.954
 3722W        W76037   3.739  22.914   0.233
 3723W        W76038   9.288   0.993  10.086
 3724W        W76039  31.692   3.151   4.156
 3725W        W76040   1.859  44.601   2.228
 3726W        W76041   7.702  41.040   0.140
 3727W        W76042  22.378  10.793   4.940
 3728W        W76043  16.245  22.113   1.444
 3729W        W76044   5.733  30.861  12.525
 3730W        W76045  33.966  13.358  14.569
 3731W        W76046  40.522  24.494   0.915
 3732W        W76047  14.099  11.544   2.720
 3733W        W76048  22.389  38.586  11.087
 3734W        W76049  11.533  31.860   3.280
 3735W        W76050  37.761  17.729   4.454
 3736W        W76051  36.964   2.556  13.418
 3737W        W76052   4.813   3.667   3.539
 3738W        W76053  37.348  23.486   2.402
 3739W        W76054  33.098  18.205   3.775
 3740W        W76055  23.184  13.168  11.971
 3741W        W76056  32.018  17.215   1.934
 3742W        W76057  32.687  22.513  13.002
 3743W        W76058  20.671   1.407   1.983
 3744W        W76059  41.845  36.389   4.427
 3745W        W76060  14.709  35.839   4.612
 3746W        W76061  17.881   9.172  14.401
 3747W        W76062  21.899  24.072   0.913
 3748W        W76063   3.721   0.203   4.759
 3749W        W76064   3.943  30.049   1.504
 3750W        W76065  44.362  28.739   4.910
 3751W        W76066  35.595  34.405  14.402
 3752W        W76067   7.299  37.528   4.607
 3753W        W76068   4.714  13.878  14.531
 3754W        W76069  20.132  21.326   2.865
 3755W        W76070  38.268  23.280   4.494
 3756W        W76071  32.412  12.200   1.743
 3757W        W76072  32.490  39.325   1.401
 3758W        W76073  42.765  18.714   2.193
 3759W        W76074   6.687  44.106  10.856
 3760W        W76075  22.843  22.366  11.913
 3761W        W76076  22.992  19.419   0.574
 3762W        W76077  44.230  11.718   3.673
 3763W        W76078  41.418  12.153   1.023
 3764W        W76079  20.135  12.341  11.597
 3765W        W76080  25.976  35.812  11.764
 3766W        W76081  27.923  35.079  12.998
 3767W        W76082  29.554  24.701  12.949
 3768W        W76083  43.706  19.681  13.850
 3769W        W76084   8.689   8.144  14.740
 3770W        W76085  16.140  36.574   4.929
 3771W        W76086  28.630  35.176   1.671
 3772W        W76087  43.485  25.462   2.602
 3773W        W76088  28.584  40.235   0.767
 3774W        W76089   0.963  34.590   2.161
 3775W        W76090  21.601   5.605   0.337
 3776W        W76091  30.123   9.854  11.917
 3777W        W76092  34.938  20.216  12.840
 3778W        W76093  38.088  22.493  14.796
 3779W        W76094  14.895  43.470  12.871
 3780W        W76095  29.152  18.255  14.433
 3781W        W76096  27.576  15.621   3.659
 3782W        W76097  16.736  23.648   0.207
 3783W        W76098  43.480  34.634   2.623
 3784W        W76099  22.454  32.670  11.551
 3785W        W76100   8.318  14.139  10.715
 3786W        W76101  13.548  11.901   2.229
 3787W        W76102  38.758  42.273   5.046
 3788W        W76103  13.113  33.406   0.992
 3789W        W76104  28.920   0.965  14.665
 3790W        W76105   4.495  34.549  12.415
 3791W        W76106  33.629  28.852   0.273
 3792W        W76107  36.607  34.478  13.598
 3793W        W76108  27.649   0.290  11.679
 3794W        W76109   9.753   5.272  14.406
 3795W        W76110  25.493  17.097  12.419
 3796W        W76111   5.707   0.525  11.528
 3797W        W76112   0.746  26.050   2.831
 3798W        W76113  37.847  41.004  14.737
 3799W        W76114  25.632  26.910   0.713
 3800W        W76115   8.692  20.205   2.201
 3801W        W76116  28.421  33.533   2.381
 3802W        W76117  34.596  24.233  12.859
 3803W        W76118   4.285  26.073  13.367
 3804W        W76119  22.595  35.895   3.675
 3805W        W76120  11.929  19.727  14.959
 3806W        W76121  28.748  21.106   0.729
 3807W        W76122  27.377  36.901  14.338
 3808W        W76123  37.515  41.920   1.483
 3809W        W76124   8.626  14.719   3.239
 3810W        W76125  19.819  13.267   2.214
 3811W        W76126  30.000   8.724   2.218
 3812W        W76127   5.923   7.653  14.476
 3813W        W76128  36.099  13.307   4.280
 3814W        W76129   4.692  22.662  11.549
 3815W        W76130   9.804   3.927   2.941
 3816W        W76131  11.264  41.392  14.955
 3817W        W76132  20.277  37.372   0.458
 3818W        W76133   3.341  37.410  13.772
 3819W        W76134  11.391  20.604  10.343
 3820W        W76135  27.565  30.379   0.867
 3821W        W76136   2.221  13.833   0.975
 3822W        W76137  31.937   3.368   4.593
 3823W        W76138  33.949  34.755   1.178
 3824W        W76139  27.407  20.962   2.648
 3825W        W76140  30.332  18.597   1.491
 3826W        W76141   7.296  32.569   2.713
 3827W        W76142  17.169  36.329   3.915
 3828W        W76143  22.222  12.403  11.035
 3829W        W76144  30.069  36.130   2.286
 3830W        W76145  26.614  35.117   0.444
 3831W        W76146  44.524  21.015  14.345
 3832W        W76147  13.271  15.171   2.295
 3833W        W76148  12.879  24.662   3.243
 3834W        W76149  18.273  25.693  13.541
 3835W        W76150  16.090   2.254  10.960
 3836W        W76151  42.261   0.406  12.072
 3837W        W76152  26.492   8.622   1.833
 3838W        W76153  16.780   4.718  12.549
 3839W        W76154  23.150  37.314   3.228
 3840W        W76155   1.588  32.560   1.359
 3841W        W76156  19.222  13.030  13.214
 3842W        W76157   4.543  39.923   2.835
 3843W        W76158   4.706  36.343   3.220
 3844W        W76159  11.374   0.365  10.611
 3845W        W76160  12.081  44.727   1.844
 3846W        W76161  10.664  16.059  12.446
 3847W        W76162  33.531  13.394  14.843
 3848W        W76163  38.861  19.146   3.795
 3849W        W76164  23.119  33.447  14.218
 3850W        W76165  16.312  42.869  12.151
 3851W        W76166  23.481   9.542  12.092
 3852W        W76167  42.400   4.220   0.003
 3853W        W76168  40.512  37.395   1.148
 3854W        W76169   6.130  20.133   3.461
 3855W        W76170   3.736  34.582  13.995
 3856W        W76171   4.430  15.171  13.723
 3857W        W76172  15.345  32.504   0.743
 3858W        W76173  11.894  23.250   0.389
 3859W        W76174  35.150  21.201  14.449
 3860W        W76175  24.107  39.572   3.715
 3861W        W76176  15.036  32.945   0.757
 3862W        W76177  28.014  39.553  11.809
 3863W        W76178  26.483  13.841  11.533
 3864W        W76179  24.590  19.499   5.146
 3865W        W76180  12.296  34.384  14.068
 3866W        W76181   3.822  21.390  11.410
 3867W        W76182  43.073  25.671  14.100
 3868W        W76183  32.535  12.568   0.415
 3869W        W76184  14.351  11.469  14.328
 3870W        W76185   2.803   6.990  13.523
 3871W        W76186  22.307   4.286  12.639
 3872W        W76187  30.351  38.437  10.597
 3873W        W76188   1.943  21.286   4.533
 3874W        W76189  14.196   1.444  12.081
 3875W        W76190  19.230  35.429   0.974
 3876W        W76191  20.848  43.196  10.780
 3877W        W76192   4.344   6.165  13.223
 3878W        W76193  19.842  39.874   1.906
 3879W        W76194  14.003  15.761  14.779
 3880W        W76195  14.853  43.967   1.026
 3881W        W76196  41.753  20.529   4.274
 3882W        W76197  37.065  23.064  11.884
 3883W        W76198  24.708  13.898  11.238
 3884W        W76199  27.664  40.748  12.355
 3885W        W76200  40.368  18.414  12.510
 3886W        W76201  20.771   5.480   1.266
 3887W        W76202  38.142  11.515  12.080
 3888W        W76203  32.664  16.357  10.732
 3889W        W76204  35.730   7.744  11.834
 3890W        W76205   1.783   8.684   4.152
 3891W        W76206  42.186  20.678  10.607
 3892W        W76207  32.902  12.357   0.747
 3893W        W76208  14.843  15.355   3.182
 3894W        W76209  12.653  34.128  12.051
 3895W        W76210  16.276  25.496  12.991
 3896W        W76211  39.600  36.518  12.998
 3897W        W76212  21.056   5.901  13.476
 3898W        W76213  27.651  33.226  10.224
 3899W        W76214   1.845  36.138  10.662
 3900W        W76215  24.666  22.965  10.663
 3901W        W76216  22.947  17.814  13.546
 3902W        W76217   1.335  13.230   2.199
 3903W        W76218  43.874  30.237  11.674
 3904W        W76219  27.034  26.663  14.029
 3905W        W76220  43.877  30.663   4.162
 3906W        W76221  11.927   7.128   2.276
 3907W        W76222  43.512  26.229  11.967
 3908W        W76223  28.432  17.821   2.757
 3909W        W76224  31.416   6.207  13.922
 3910W        W76225  10.770  13.548  10.690
 3911W        W76226   6.782  32.638  14.836
 3912W        W76227  16.740  42.344   1.406
 3913W        W76228  23.871  21.946   3.747
 3914W        W76229  19.627  33.972   4.495
 3915W        W76230  19.582  21.354   5.053
 3916W        W76231  25.156  31.051   1.085
 3917W        W76232  19.297   1.140  12.192
 3918W        W76233  24.538  13.518  12.934
 3919W        W76234  26.058  14.543  13.966
 3920W        W76235  10.239  18.848   5.453
 3921W        W76236  15.285   9.871  13.506
 3922W        W76237  34.075  23.413  14.806
 3923W        W76238  43.920   9.450  12.366
 3924W        W76239  27.483  22.474  13.430
 3925W        W76240  22.131  25.104   1.434
 3926W        W76241  29.099  14.308   4.029
 3927W        W76242  35.140  20.326  14.108
 3928W        W76243  25.222  30.037  13.027
 3929W        W76244  38.259  28.023  13.060
 3930W        W76245  34.438  32.960   4.085
 3931W        W76246  25.842  18.142   4.657
 3932W        W76247  11.548   2.504  13.929
 3933W        W76248  33.356  37.448   4.512
 3934W        W76249  20.356  10.204   1.329
 3935W        W76250  21.703  18.864  10.454
 3936W        W76251  43.797  30.898   4.648
 3937W        W76252  27.767   9.191   2.745
 3938W        W76253  28.698   8.226   3.831
 3939W        W76254  33.384   9.566   3.165
 3940W        W76255   0.934  16.746  11.035
 3941W        W76256  25.123  44.751  12.341
 3942W        W76257   9.202  19.591   3.256
 3943W        W76258  34.427  17.867   0.915
 3944W        W76259  38.821  39.990   0.054
 3945W        W76260  40.572  20.294  12.948
 3946W        W76261  25.427  24.181  10.977
 3947W        W76262  34.016  23.199   2.616
 3948W        W76263   5.252  37.138   1.690
 3949W        W76264  32.448  39.043   5.115
 3950W        W76265   8.587  30.664   1.872
 3951W        W76266  24.853   8.281  12.097
 3952W        W76267  41.447  13.779  13.557
 3953W        W76268  41.758  37.288   4.560
 3954W        W76269  42.725  35.959  10.698
 3955W        W76270  11.564  16.595  14.416
 3956W        W76271  21.298  24.957   0.802
 3957W        W76272  25.776   6.465   2.854
 3958W        W76273  41.506   4.256  14.907
 3959W        W76274  15.694  23.166   2.330
 3960W        W76275  24.703  12.590   2.678
 3961W        W76276  13.145  27.747  10.783
 3962W        W76277  22.117  15.627  10.640
 3963W        W76278  27.385  28.543   1.863
 3964W        W76279  12.975  31.964   0.903
 3965W        W76280  40.274  15.724   1.792
 3966W        W76281  33.543  32.668   2.655
 3967W        W76282  27.071  16.375  12.508
 3968W        W76283  27.624  14.633   3.632
 3969W        W76284  34.855   0.446   0.463
 3970W        W76285  28.563  33.789   4.959
 3971W        W76286   2.307  37.842  10.645
 3972W        W76287   2.213  12.399   1.277
 3973W        W76288  28.379  32.561  14.884
 3974W        W76289   6.389   1.719   0.883
 3975W        W76290  25.650  30.001   1.500
 3976W        W76291  43.898   0.506  10.973
 3977W        W76292  18.600  20.139  14.145
 3978W        W76293  39.745  30.003   0.542
 3979W        W76294  12.849   9.286  14.517
 3980W        W76295   3.961   2.657  14.894
 3981W        W76296  17.519   7.904  10.700
 3982W        W76297  38.921  44.309   2.153
 3983W        W76298  19.500  19.311   3.933
 3984W        W76299  27.021   4.544   0.736
 3985W        W76300  20.293  10.814  12.379
 3986W        W76301  12.418   1.945  14.892
 3987W        W76302   0.363  24.547   3.700
 3988W        W76303   4.095  28.139   1.928
 3989W        W76304  39.823  21.781  11.563
 3990W        W76305  13.699  16.601  14.344
 3991W        W76306  23.673  21.735  12.104
 3992W        W76307   1.685   5.672  13.788
 3993W        W76308  31.065   5.237  12.492
 3994W        W76309   3.410   9.220   5.158
 3995W        W76310  44.901  32.969   4.686
 3996W        W76311  23.985   3.007   3.893
 3997W        W76312  23.911   9.790   3.754
 3998W        W76313   7.351  14.112   1.879
 3999W        W76314  30.239  18.321   4.061
 4000W        W76315  44.506  26.496   4.221
 4001W        W76316  24.936  36.868   1.307
 4002W        W76317  13.887  38.922  11.749
 4003W        W76318   1.320  42.724  10.233
 4004W        W76319   5.340  44.492   2.685
 4005W        W76320  14.665  21.846   3.725
 4006W        W76321  32.147  34.806   2.881
 4007W        W76322  39.119   0.926   3.654
 4008W        W76323  14.082   1.386   2.894
 4009W        W76324  15.842  17.001  11.031
 4010W        W76325  43.763  40.997   2.539
 4011W        W76326  18.152   2.756  12.415
 4012W        W76327  11.328   7.136  11.579
 4013W        W76328   8.926  40.502  11.082
 4014W        W76329   6.033  32.824   0.431
 4015W        W76330  20.079   1.178  14.955
 4016W        W76331  30.324  17.378  13.850
 4017W        W76332  35.916  36.351  12.381
 4018W        W76333  28.703  13.898   4.946
 4019W        W76334  44.216  18.091  11.033
 4020W        W76335  12.569   3.232  14.474
 4021W        W76336   4.316   1.758   0.846
 4022W        W76337  13.478  29.882  12.542
 4023W        W76338  23.746   1.138   0.540
 4024W        W76339   8.624  28.490  12.449
 4025W        W76340   7.635  43.994   1.348
 4026W        W76341  11.562  29.561   4.522
 4027W        W76342  20.610  26.206  12.137
 4028W        W76343  28.496  32.517  14.083
 4029W        W76344  17.789  28.226   3.789
 4030W        W76345  35.903   4.117  14.410
 4031W        W76346  18.742   0.317   2.256
 4032W        W76347  16.643  39.591   3.149
 4033W        W76348  36.721  39.300  12.445
 4034W        W76349  12.094  31.563  13.962
 4035W        W76350  31.374  23.521  13.832
 4036W        W76351  27.738  17.778   2.299
 4037W        W76352  34.017  44.301  10.555
 4038W        W76353  42.884  44.207  11.165
 4039W        W76354  28.145  43.759  12.496
 4040W        W76355  11.802  30.522  11.922
 4041W        W76356   1.228  14.278  11.576
 4042W        W76357  28.235  43.258   4.027
 4043W        W76358  40.364  12.283   0.417
 4044W        W76359   8.813  37.646   2.599
 4045W        W76360  30.136  34.941   2.361
 4046W        W76361  44.953  29.479  14.798
 4047W        W76362  28.607  10.731   2.376
 4048W        W76363  30.894  11.833  14.923
 4049W        W76364  27.619  22.063   2.915
 4050W        W76365   4.961  38.011   0.441
 4051W        W76366  18.279   7.514   4.398
 4052W        W76367  43.451   0.558   1.749
 4053W        W76368  13.794  37.268   3.183
 4054W        W76369  17.802  23.021  13.374
 4055W        W76370   0.953  24.349  14.779
 4056W        W76371  32.937  36.387   1.565
 4057W        W76372  16.412   8.870   3.587
 4058W        W76373  35.201  42.422  11.599
 4059W        W76374  18.005   6.427   0.756
 4060W        W76375   5.379   9.261  12.844
 4061W        W76376  12.630  29.094   3.814
 4062W        W76377  39.357   8.316   2.804
 4063W        W76378  18.552  27.239  11.580
 4064W        W76379  13.229  13.326   1.388
 4065W        W76380  31.552  10.175   1.798
 4066W        W76381  17.532  32.192   0.830
 4067W        W76382  18.077  25.932  12.488
 4068W        W76383   5.652  11.016   0.912
 4069W        W76384  23.443  12.491   2.376
 4070W        W76385   7.517   3.004   4.145
 4071W        W76386  37.902  22.184   2.319
 4072W        W76387  20.805   7.809   5.078
 4073W        W76388  37.156  17.915   2.282
 4074W        W76389   2.823   1.280   4.581
 4075W        W76390  44.291  12.380   1.949
 4076W        W76391   3.007  31.015   4.136
 4077W        W76392  18.227  26.849  12.474
 4078W        W76393  22.373  29.882   4.736
 4079W        W76394  16.055  38.836   5.063
 4080W        W76395  39.334  27.633  11.190
 4081W        W76396  38.043   7.871  14.217
 4082W        W76397  24.748  33.051   4.705
 4083W        W76398   6.820  37.693   4.762
 4084W        W76399  39.591   8.244   2.344
 4085W        W76400  17.530  26.262   4.615
 4086W        W76401  42.142  30.665   4.601
 4087W        W76402  30.387  18.986   1.150
 4088W        W76403   1.886  12.746   4.537
 4089W        W76404   0.387   0.816   2.259
 4090W        W76405   5.761  31.361  12.501
 4091W        W76406   6.611  31.993   1.893
 4092W        W76407  43.997  30.650  12.979
 4093W        W76408  10.270  39.276   4.800
 4094W        W76409   7.482  18.794   2.897
 4095W        W76410  22.778  39.865  13.126
 4096W        W76411  10.463  35.554  12.341
 4097W        W76412  17.911  26.461   4.107
 4098W        W76413   6.427  41.551  11.280
 4099W        W76414  34.082   6.934   2.652
 4100W        W76415   5.808   2.150   4.431
 4101W        W76416   8.787   4.038   3.282
 4102W        W76417  20.549   2.333  14.834
 4103W        W76418  20.640  34.957  13.114
 4104W        W76419   1.038  29.634   2.687
 4105W        W76420   7.011  29.496  12.815
 4106W        W76421   3.314  14.115  13.893
 4107W        W76422  17.796  44.470  13.613
 4108W        W76423  33.635  39.976   4.418
 4109W        W76424  31.946  16.106   0.169
 4110W        W76425   6.964   9.246   1.945
 4111W        W76426  39.905   7.802   4.357
 4112W        W76427  20.480  37.831   0.299
 4113W        W76428  32.840  43.940   0.734
 4114W        W76429  18.297  41.756   3.668
 4115W        W76430  22.233  41.420   2.044
 4116W        W76431  40.816  38.511   2.726
 4117W        W76432  19.155  39.536  12.112
 4118W        W76433  24.961  39.272  11.783
 4119W        W76434  21.773  31.321  13.022
 4120W        W76435  11.412   6.729  13.448
 4121W        W76436  25.378  43.606   0.337
 4122W        W76437  12.091   4.821   2.009
 4123W        W76438  28.147   6.103  12.934
 4124W        W76439  40.099   5.473   2.143
 4125W        W76440  12.337   1.464  11.103
 4126W        W76441   5.744  15.315   0.480
 4127W        W76442  12.338  35.335   1.139
 4128W        W76443  41.024  42.791  12.931
 4129W        W76444  28.673  21.762   3.332
 4130W        W76445  10.531   4.806   1.118
 4131W        W76446  10.702  37.420   4.514
 4132W        W76447  32.273  33.884  11.075
 4133W        W76448   0.933  41.502  11.661
 4134W        W76449   2.833  18.249   2.176
 4135W        W76450   7.789  11.721   3.602
 4136W        W76451  44.052  37.352  13.484
 4137W        W76452  10.392  41.304  12.802
 4138W        W76453  26.772   4.629  14.013
 4139W        W76454   8.285  41.396   1.992
 4140W        W76455  33.998  34.305  12.051
 4141W        W76456  25.495  11.777  10.069
 4142W        W76457  44.206  34.851  11.986
 4143W        W76458  33.001  15.243   0.201
 4144W        W76459  43.286  44.188   2.239
 4145W        W76460  22.320  18.613  13.312
 4146W        W76461  34.554   5.514  12.493
 4147W        W76462  12.363  10.301   0.765
 4148W        W76463   1.323   6.730  14.182
 4149W        W76464  28.697  43.471   2.246
 4150W        W76465   1.888  11.856   4.505
 4151W        W76466  28.928   6.247   1.943
 4152W        W76467  15.262   0.009   2.854
 4153W        W76468  20.096  36.216  13.543
 4154W        W76469   3.517  12.738   2.281
 4155W        W76470   5.775  22.779  12.585
 4156W        W76471  11.121   4.539   4.385
 4157W        W76472  21.750  43.307   3.932
 4158W        W76473   0.435  39.175   0.879
 4159W        W76474   0.706  12.730  12.688
 4160W        W76475  23.212  36.913  13.432
 4161W        W76476  14.628  13.347   0.895
 4162W        W76477  15.173  26.986  12.164
 4163W        W76478  34.707  35.609   1.793
 4164W        W76479  39.549  32.078  10.837
 4165W        W76480  37.525  16.361  12.957
 4166W        W76481  35.940   9.177  12.575
 4167W        W76482  15.080  32.442  10.911
 4168W        W76483  10.351  29.112   3.317
 4169W        W76484  14.659  19.300   3.310
 4170W        W76485  33.655  13.308  12.986
 4171W        W76486  35.902  10.559  14.025
 4172W        W76487  39.626  41.530  12.193
 4173W        W76488  12.606  37.148  11.259
 4174W        W76489  17.675  26.960   2.618
 4175W        W76490  42.700  28.238  13.877
 4176W        W76491  43.681  23.893  12.516
 4177W        W76492  11.943   8.300  13.898
 4178W        W76493   1.247   1.688   2.006
 4179W        W76494  12.250  27.190   0.563
 4180W        W76495  36.604  36.576  11.185
 4181W        W76496  43.993  27.564  10.644
 4182W        W76497  29.457   4.769  12.465
 4183W        W76498  26.738  19.314   0.877
 4184W        W76499   5.731  24.122   4.852
 4185W        W76500   4.194   5.721  13.478
 4186W        W76501  27.872   1.914  14.972
 4187W        W76502  26.126  23.998  13.854
 4188W        W76503  17.765  16.953   0.419
 4189W        W76504  33.037   5.534  11.496
 4190W        W76505   2.822  39.792  12.173
 4191W        W76506  18.837   5.029   3.240
 4192W        W76507   2.181  29.685   3.249
 4193W        W76508  17.999  37.381   3.886
 4194W        W76509   0.292   6.942   3.190
 4195W        W76510  41.991  35.439   4.496
 4196W        W76511  12.686   5.223  14.349
 4197W        W76512  10.151  15.647   4.712
 4198W        W76513  32.389  34.197   1.222
 4199W        W76514  26.628  30.582   4.666
 4200W        W76515  15.886   8.695  11.689
 4201W        W76516  22.433  23.479  12.552
 4202W        W76517  32.666   4.871  14.906
 4203W        W76518  18.624  14.358   4.592
 4204W        W76519  35.889  34.480  13.957
 4205W        W76520  43.887  10.923   0.958
 4206W        W76521  23.121   3.672   2.762
 4207W        W76522  35.868  37.043  11.503
 4208W        W76523  43.757  22.202   1.297
 4209W        W76524   6.633   8.721   2.692
 4210W        W76525  43.728  13.883  13.315
 4211W        W76526  13.443   0.265  12.356
 4212W        W76527  42.015   1.993   2.305
 4213W        W76528  21.603   4.657   3.833
 4214W        W76529  20.243  11.424  13.028
 4215W        W76530  17.686  22.291  10.639
 4216W        W76531   9.386  21.416   0.646
 4217W        W76532  41.083   9.697   4.646
 4218W        W76533  38.924  43.019   2.863
 4219W        W76534  39.527  25.934  13.819
 4220W        W76535   7.349  39.992  13.087
 4221W        W76536   2.633   5.265  12.436
 4222W        W76537  35.026  23.626  10.625
 4223W        W76538  38.980  30.555  11.604
 4224W        W76539  26.626  30.437  10.693
 4225W        W76540   1.442  42.816   0.046
 4226W        W76541  11.613  13.856  13.574
 4227W        W76542   4.259  18.324  14.759
 4228W        W76543   8.155  42.886   3.600
 4229W        W76544  24.741  16.200   0.317
 4230W        W76545  22.642  10.638  14.846
 4231W        W76546  16.251   9.443  13.495
 4232W        W76547   5.393  14.223   0.991
 4233W        W76548  16.720  24.114   0.951
 4234W        W76549  33.566   7.003   4.132
 4235W        W76550  37.146   0.920   1.798
 4236W        W76551  41.049   9.194   1.241
 4237W        W76552  36.316   5.381   4.172
 4238W        W76553  43.765  12.651   2.783
 4239W        W76554  43.073  37.530  11.946
 4240W        W76555  38.892   3.924   1.479
 4241W        W76556  20.602  24.918  12.429
 4242W        W76557  18.357   0.482   3.372
 4243W        W76558  19.604  15.871  14.088
 4244W        W76559  10.145  14.856   1.198
 4245W        W76560   9.371   9.277   2.215
 4246W        W76561  41.041  12.823  14.971
 4247W        W76562  31.742  33.501   0.207
 4248W        W76563  39.080  35.107  14.067
 4249W        W76564   0.905  33.489   2.287
 4250W        W76565   9.887  31.690  14.381
 4251W        W76566  20.750  40.390   0.837
 4252W        W76567  18.534   0.774   4.656
 4253W        W76568  23.908  15.773   5.113
 4254W        W76569   1.740  20.705  14.648
 4255W        W76570   0.051  27.415  12.780
 4256W        W76571   0.992  26.158   2.381
 4257W        W76572  19.622  23.299   4.336
 4258W        W76573  33.274   9.037   3.884
 4259W        W76574  14.528  18.287   2.321
 4260W        W76575  15.204  10.941   4.137
 4261W        W76576  38.578  44.505   2.912
 4262W        W76577  41.690  31.911  11.928
 4263W        W76578   8.610  42.973  10.949
 4264W        W76579  44.905  14.817  13.136
 4265W        W76580  15.141  16.559  12.472
 4266W        W76581  39.041  12.502   0.803
 4267W        W76582  41.739  18.120  11.170
 4268W        W76583  40.716  42.195   3.686
 4269W        W76584  32.171  34.807   0.019
 4270W        W76585  26.795  24.214  14.322
 4271W        W76586  37.563  43.392  14.993
 4272W        W76587  34.411  40.243   4.067
 4273W        W76588  10.644  27.671   1.924
 4274W        W76589  11.604  31.534   4.201
 4275W        W76590  30.896  19.158  11.955
 4276W        W76591  22.104  10.312   2.718
 4277W        W76592   9.949  32.536   1.793
 4278W        W76593  18.912   8.173  12.019
 4279W        W76594  44.289  44.835  10.558
 4280W        W76595  15.161  33.827  11.181
 4281W        W76596  25.505   6.586  10.385
 4282W        W76597   9.398  29.663   4.751
 4283W        W76598   7.647   3.314   1.360
 4284W        W76599  24.551  23.244  12.442
 4285W        W76600  29.934  32.062  13.858
 4286W        W76601  26.972  19.564   1.684
 4287W        W76602   4.492   0.765  13.850
 4288W        W76603  37.293   4.221  14.729
 4289W        W76604  40.684   0.978  12.828
 4290W        W76605  26.889  22.715  12.427
 4291W        W76606  32.439  38.291   3.775
 4292W        W76607   6.831   3.272   4.501
 4293W        W76608   9.872   1.307  12.093
 4294W        W76609  35.366  27.664   4.927
 4295W        W76610  42.028  25.208  12.530
 4296W        W76611  16.027   5.219   0.325
 4297W        W76612   3.679   1.942   0.371
 4298W        W76613  32.615   7.190   2.447
 4299W        W76614  10.701  24.173  10.558
 4300W        W76615  42.935  17.882  10.637
 4301W        W76616  25.323   8.316  12.324
 4302W        W76617  44.706  43.479  14.923
 4303W        W76618  23.509   7.716   1.331
 4304W        W76619  28.459  43.084   2.612
 4305W        W76620  27.537  44.483   4.594
 4306W        W76621  37.837  38.113   0.434
 4307W        W76622  11.823  20.698   4.937
 4308W        W76623  25.653  16.573   4.150
 4309W        W76624  33.106  35.006  12.421
 4310W        W76625  35.680   1.899  10.767
 4311W        W76626  18.138  24.552   3.847
 4312W        W76627  13.723  13.365  13.313
 4313W        W76628   3.865  44.751   4.518
 4314W        W76629  19.425  33.849  12.053
 4315W        W76630  15.742  44.498   0.970
 4316W        W76631   4.024  43.388  14.922
 4317W        W76632  21.240  35.941  13.044
 4318W        W76633  22.742  26.023   3.094
 4319W        W76634  26.146  18.758   2.880
 4320W        W76635  36.936  24.770  13.892
 4321W        W76636  26.279  36.774  11.512
 4322W        W76637  16.877  24.544   0.699
 4323W        W76638  37.928  24.162  13.800
 4324W        W76639  28.191  34.306   2.699
 4325W        W76640  20.802   3.692   4.895
 4326W        W76641  40.549  20.983   4.327
 4327W        W76642  24.810  43.808   2.865
 4328W        W76643  22.281  43.895   4.111
 4329W        W76644  28.880  41.999  10.582
 4330W        W76645  27.875  32.875   2.746
 4331W        W76646  25.634  30.834  12.080
 4332W        W76647   1.653  24.248  11.139
 4333W        W76648  37.891   0.005   3.213
 4334W        W76649   5.221  26.586  14.590
 4335W        W76650  18.297  16.003   2.365
 4336W        W76651  44.232  23.248  12.422
 4337W        W76652  29.370  41.124   2.270
 4338W        W76653  25.696  18.812  12.493
 4339W        W76654  32.638   6.143   2.133
 4340W        W76655  34.641  40.820  11.917
 4341W        W76656  39.134  43.991  14.299
 4342W        W76657  22.371   0.689   4.188
 4343W        W76658   6.403  33.417  14.824
 4344W        W76659  33.591   1.476  10.766
 4345W        W76660   0.299  11.356   2.186
 4346W        W76661  23.126  11.393  12.811
 4347W        W76662  26.393  26.511  11.419
 4348W        W76663   1.797  26.103   2.824
 4349W        W76664  37.902  11.352  14.545
 4350W        W76665  10.195  11.542  13.932
 4351W        W76666  32.623  31.475  14.781
 4352W        W76667  34.387  44.868   3.106
 4353W        W76668  38.474  38.415   1.251
 4354W        W76669  41.410  16.327   4.474
 4355W        W76670  39.316   0.313  11.736
 4356W        W76671  31.608  27.937  13.999
 4357W        W76672  15.270  42.461  13.982
 4358W        W76673  14.424   2.539  14.018
 4359W        W76674  33.969  27.601   2.880
 4360W        W76675   1.633  35.816  13.114
 4361W        W76676  34.412  35.906   2.761
 4362W        W76677   6.759   6.226  12.828
 4363W        W76678  15.669  38.688  11.233
 4364W        W76679  24.988  30.114  12.462
 4365W        W76680  26.479  44.013   2.418
 4366W        W76681  32.149  25.518   4.667
 4367W        W76682  29.542  39.184  11.083
 4368W        W76683  31.188   0.364  14.492
 4369W        W76684  19.065   8.186   0.208
 4370W        W76685   3.466  31.705  12.443
 4371W        W76686  22.123  21.675  13.161
 4372W        W76687  42.957   2.243   3.595
 4373W        W76688  17.969   9.462   1.116
 4374W        W76689   5.805  33.065  10.674
 4375W        W76690   6.289   0.447   3.258
 4376W        W76691  19.392  17.558  12.668
 4377W        W76692   8.182   8.507   2.131
 4378W        W76693   7.288   5.165   2.402
 4379W        W76694  13.621  12.161  12.690
 4380W        W76695   6.682  19.555   3.366
 4381W        W76696  41.892  43.996   2.354
 4382W        W76697  17.758  10.298   3.180
 4383W        W76698  11.009   5.814  14.247
 4384W        W76699   2.001  34.829  10.210
 4385W        W76700  23.670  42.730  11.051
 4386W        W76701  35.540  41.962   2.384
 4387W        W76702  14.206  16.868  14.437
 4388W        W76703   6.231  26.429   4.337
 4389W        W76704  24.409  42.392  12.677
 4390W        W76705  34.021  14.329   1.390
 4391W        W76706   8.411  25.210   2.720
 4392W        W76707  10.673  40.374  14.345
 4393W        W76708  44.972  13.254   0.049
 4394W        W76709  16.833   6.755   2.817
 4395W        W76710  38.419   7.259   2.970
 4396W        W76711  36.814  12.097  14.350
 4397W        W76712  13.186  39.455  14.538
 4398W        W76713   4.713  29.210  11.144
 4399W        W76714   9.471  15.869   3.668
 4400W        W76715   7.944  31.711   4.198
 4401W        W76716  24.099  30.487  14.334
 4402W        W76717  19.433  30.724  10.893
 4403W        W76718  17.183  15.738   2.325
 4404W        W76719  26.102  37.540   4.371
 4405W        W76720  29.413  14.592   0.559
 4406W        W76721  36.152  18.643   1.360
 4407W        W76722  26.941  31.873   1.874
 4408W        W76723  22.675  33.783  13.748
 4409W        W76724  31.331   6.275  12.537
 4410W        W76725  16.310  42.401  14.290
 4411W        W76726   1.493  23.608   3.440
 4412W        W76727  29.983  35.999   3.734
 4413W        W76728   6.218  26.226  13.836
 4414W        W76729  10.832  34.689   0.823
 4415W        W76730  42.025   2.849   0.617
 4416W        W76731  14.137  33.655   4.198
 4417W        W76732  27.252  23.442   4.429
 4418W        W76733  31.092  42.091   4.745
 4419W        W76734  25.092  10.229  10.117
 4420W        W76735  18.247  22.606   3.972
 4421W        W76736  41.419   8.081  12.515
 4422W        W76737  41.132  43.346   1.639
 4423W        W76738  41.334   2.384   2.149
 4424W        W76739  25.646  39.609  12.818
 4425W        W76740   3.211  25.182  10.970
 4426W        W76741  20.595  42.866  13.391
 4427W        W76742   6.624   0.200  11.457
 4428W        W76743  18.585  44.837   1.283
 4429W        W76744  22.635  29.889   1.782
 4430W        W76745  24.246  27.116  13.096
 4431W        W76746  14.025  32.015  13.945
 4432W        W76747   1.557  42.586  12.211
 4433W        W76748  35.453  14.516   1.628
 4434W        W76749  33.080   1.200   2.273
 4435W        W76750  29.261  34.386   2.831
 4436W        W76751  41.780  41.479  12.619
 4437W        W76752  25.014   7.914  12.405
 4438W        W76753  29.212  33.559   4.599
 4439W        W76754  37.857  38.561  12.980
 4440W        W76755  41.432  31.469  11.946
 4441W        W76756  30.497  32.924   0.532
 4442W        W76757  29.476  10.929  13.783
 4443W        W76758  14.831  33.768  14.441
 4444W        W76759  33.034  24.524  10.525
 4445W        W76760  21.334  36.841   2.465
 4446W        W76761  32.424   3.916  11.228
 4447W        W76762  14.618  25.579  11.920
 4448W        W76763  34.631  42.343  11.989
 4449W        W76764  29.234  23.609   1.894
 4450W        W76765  38.983   7.956  13.844
 4451W        W76766  10.604  12.691   0.373
 4452W        W76767  32.727  13.108  12.018
 4453W        W76768  27.701  12.921  10.718
 4454W        W76769  25.692  42.507   3.644
 4455W        W76770  30.377  14.171  10.770
 4456W        W76771  40.826   5.344   1.208
 4457W        W76772  12.737  42.010  14.256
 4458W        W76773  41.906  43.116  13.806
 4459W        W76774  27.027  23.490  10.641
 4460W        W76775  17.362  15.299  11.518
 4461W        W76776   2.152   1.399  10.721
 4462W        W76777  21.761  10.699  14.200
 4463W        W76778  35.107  17.706   2.259
 4464W        W76779  16.873  41.115   2.205
 4465W        W76780   8.867  40.245   2.774
 4466W        W76781  34.032   7.195   4.822
 4467W        W76782  41.953   8.624   4.184
 4468W        W76783   7.688  38.382   4.576
 4469W        W76784  29.603  28.319  12.442
 4470W        W76785  12.224  37.028   1.828
 4471W        W76786  41.425  37.976  12.789
 4472W        W76787   1.254  34.168   9.792
 4473W        W76788  13.502  16.077   2.172
 4474W        W76789  39.266  23.211   4.128
 4475W        W76790  42.430  28.623   4.652
 4476W        W76791  27.235  31.478  10.293
 4477W        W76792  24.540  30.563  11.539
 4478W        W76793  42.434  39.784   2.773
 4479W        W76794  30.073  35.572   1.179
 4480W        W76795   8.585  28.490   4.204
 4481W        W76796   2.931  17.533   3.384
 4482W        W76797  14.122   9.969  11.446
 4483W        W76798  29.875  14.540  13.381
 4484W        W76799  15.251  11.147  14.575
 4485W        W76800  23.043  39.355   3.828
 4486W        W76801  35.296  30.614   2.779
 4487W        W76802  29.638  13.619   1.493
 4488W        W76803  29.419  42.990  13.757
 4489W        W76804   6.769   9.702  14.847
 4490W        W76805  36.400  30.594   1.798
 4491W        W76806  26.578  15.184   1.741
 4492W        W76807  29.662  39.024   3.693
 4493W        W76808  37.075  31.437  14.371
 4494W        W76809  13.629  27.039  13.494
 4495W        W76810  19.690  29.507   1.212
 4496W        W76811  13.647  25.908  13.511
 4497W        W76812   1.001  17.379  14.504
 4498W        W76813  41.480  35.902   4.404
 4499W        W76814  37.101  42.436   0.369
 4500W        W76815  26.044  30.824  13.706
 4501W        W76816  32.413   3.869  10.717
 4502W        W76817   2.480   5.830  10.055
 4503W        W76818  36.842  34.990  12.421
 4504W        W76819   1.163   1.916   2.872
 4505W        W76820  35.895  44.983   4.120
 4506W        W76821   2.718   1.314  14.380
 4507W        W76822  39.341   3.696   0.259
 4508W        W76823  33.976   2.758  11.537
 4509W        W76824   7.208  28.090   4.631
 4510W        W76825  20.072  12.874  14.735
 4511W        W76826  30.696  26.052   1.935
 4512W        W76827  21.613  39.367   2.089
 4513W        W76828  43.528  33.543   1.962
 4514W        W76829  36.928  17.356  11.040
 4515W        W76830  27.352  19.174  13.935
 4516W        W76831   8.809  24.028   3.618
 4517W        W76832  21.709  44.579   0.296
 4518W        W76833  18.648  21.039   3.764
 4519W        W76834  42.704   9.921  13.088
 4520W        W76835  12.729  37.894   1.958
 4521W        W76836  15.405  19.073   2.059
 4522W        W76837   3.150  28.759  12.007
 4523W        W76838  20.132  32.872   0.422
 4524W        W76839  36.687  15.605   2.336
 4525W        W76840   1.471  29.571  12.009
 4526W        W76841  32.046  38.510   1.229
 4527W        W76842  10.035  18.759   0.365
 4528W        W76843  40.978  15.160  14.904
 4529W        W76844   7.361  17.644   4.916
 4530W        W76845  26.321   4.869   0.750
 4531W        W76846  14.132   2.458  13.596
 4532W        W76847  29.556  23.187  14.024
 4533W        W76848  18.448  38.370  14.732
 4534W        W76849  34.321  41.931  11.981
 4535W        W76850  36.764  10.374   2.127
 4536W        W76851  42.978   9.817  13.515
 4537W        W76852  19.996  26.598  13.394
 4538W        W76853  23.610   1.439   1.514
 4539W        W76854  12.925  35.503   0.422
 4540W        W76855   9.239  33.441   2.908
 4541W        W76856  18.175  15.246   3.595
 4542W        W76857  36.691  36.787  13.737
 4543W        W76858  29.868  37.463  11.628
 4544W        W76859  41.376  19.428   3.141
 4545W        W76860   0.493  35.014   4.762
 4546W        W76861  14.064  22.769   4.475
 4547W        W76862  44.475  25.205   3.990
 4548W        W76863  40.277  20.571   4.241
 4549W        W76864  17.714  14.518   2.611
 4550W        W76865  35.361  18.586   3.170
 4551W        W76866  29.675  23.958  14.938
 4552W        W76867  29.997  12.788   1.393
 4553W        W76868  44.314  17.878  14.519
 4554W        W76869  42.924  35.347   2.894
 4555W        W76870  35.458  35.542   3.675
 4556W        W76871  13.575   7.246  11.598
 4557W        W76872  18.084  39.551  14.087
 4558W        W76873   9.913   1.401  14.101
 4559W        W76874  42.076  29.212   4.534
 4560W        W76875  27.605  29.533   2.305
 4561W        W76876  16.119  37.399  14.538
 4562W        W76877  24.976  16.262   3.615
 4563W        W76878  27.738  27.163  14.518
 4564W        W76879  30.527  38.613  11.048
 4565W        W76880  44.627  28.382   3.217
 4566W        W76881  16.618  40.863  11.637
 4567W        W76882   5.242  16.016   1.731
 4568W        W76883   1.365  34.898  14.227
 4569W        W76884  14.701  24.387   4.876
 4570W        W76885  41.551  31.666   1.383
 4571W        W76886  19.486  28.658   4.566
 4572W        W76887  14.112  33.026  12.995
 4573W        W76888  24.471  30.044  12.460
 4574W        W76889  10.114  22.029  14.419
 4575W        W76890   9.328  43.284   4.595
 4576W        W76891   4.712  20.935   2.248
 4577W        W76892  40.997  43.302  14.744
 4578W        W76893  23.748  36.013  11.599
 4579W        W76894  35.466  25.498  12.709
 4580W        W76895  11.922  24.945  13.139
 4581W        W76896  42.005   5.422  11.595
 4582W        W76897   1.298  17.558   2.699
 4583W        W76898  13.739  24.339  11.260
 4584W        W76899  26.754  28.182  11.444
 4585W        W76900  12.314  26.398  13.747
 4586W        W76901   7.170  29.473  11.052
 4587W        W76902   4.464  28.346  12.080
 4588W        W76903  22.664   9.308  13.837
 4589W        W76904  33.895   1.252   4.133
 4590W        W76905  19.923  34.001  12.124
 4591W        W76906   1.185  34.886  13.744
 4592W        W76907  23.588   0.736  14.243
 4593W        W76908  20.128  43.994   0.334
 4594W        W76909   8.646   6.970   1.793
 4595W        W76910   3.911  43.863   1.315
 4596W        W76911  42.932  18.499   3.725
 4597W        W76912  36.068  29.948   1.204
 4598W        W76913   3.046  22.516   3.540
 4599W        W76914  15.133  38.413   5.004
 4600W        W76915   2.494   0.380   4.144
 4601W        W76916  35.256  14.888   1.962
 4602W        W76917  42.439  26.156   3.550
 4603W        W76918  27.494  29.452  12.574
 4604W        W76919   8.777   0.759  13.513
 4605W        W76920  22.697   6.423   2.069
 4606W        W76921  15.136  33.999  12.964
 4607W        W76922  13.937  18.240   4.915
 4608W        W76923  44.242   1.771   3.104
 4609W        W76924  19.286  14.032   4.245
 4610W        W76925  22.432  29.217  14.289
 4611W        W76926  33.587  24.162  13.750
 4612W        W76927  36.100  26.771   4.140
 4613W        W76928  15.889  44.732   0.476
 4614W        W76929  34.378   0.833  14.831
 4615W        W76930  44.884  34.566  13.755
 4616W        W76931  18.312   7.922  13.520
 4617W        W76932  44.362  40.560  11.455
 4618W        W76933  27.598  26.423   2.162
 4619W        W76934   8.501  12.010   1.204
 4620W        W76935  44.429  25.497   4.930
 4621W        W76936  40.931  18.539   1.705
 4622W        W76937  31.671  34.996   2.710
 4623W        W76938  28.122  32.361   3.608
 4624W        W76939  14.816  10.695   0.391
 4625W        W76940  42.285  32.002  11.073
 4626W        W76941  19.590  29.771   4.800
 4627W        W76942  11.167  29.914   4.546
 4628W        W76943  36.875  36.935   2.886
 4629W        W76944  16.727  16.314   0.239
 4630W        W76945  41.517  43.086   1.910
 4631W        W76946  33.932  14.120  10.741
 4632W        W76947  27.925  18.023   4.255
 4633W        W76948  24.918  21.973  10.670
 4634W        W76949  44.675  35.611  12.008
 4635W        W76950  30.865   8.932   0.234
 4636W        W76951  30.629   0.812  10.806
 4637W        W76952  39.523  27.624  14.385
 4638W        W76953  35.956  14.111  12.956
 4639W        W76954  28.263   8.749   4.600
 4640W        W76955  31.904  29.943   1.310
 4641W        W76956  39.034  19.050   2.258
 4642W        W76957  29.732  11.365  12.385
 4643W        W76958  32.130   7.895   4.489
 4644W        W76959  15.104  26.225  10.357
 4645W        W76960  34.143  32.301  10.756
 4646W        W76961  37.421  44.879  12.550
 4647W        W76962  14.314  22.250   3.968
 4648W        W76963  12.322  25.444   1.655
 4649W        W76964   2.717  31.568   1.267
 4650W        W76965  31.479  31.153  11.492
 4651W        W76966   4.904   0.942  10.709
 4652W        W76967  40.208  27.608   3.364
 4653W        W76968  10.908  28.651   1.446
 4654W        W76969   8.686  18.456   0.746
 4655W        W76970   6.338  29.442  14.994
 4656W        W76971  41.192  23.068   2.393
 4657W        W76972  16.613  39.189  10.009
 4658W        W76973  18.142  31.262  10.163
 4659W        W76974  32.836  18.548   3.171
 4660W        W76975  31.429  30.161   3.680
 4661W        W76976  39.832  33.038   3.610
 4662W        W76977  25.529  27.165   2.851
 4663W        W76978  26.614  20.728   0.909
 4664W        W76979  23.057  32.051  13.474
 4665W        W76980  16.678  27.151  10.828
 4666W        W76981  21.587  37.881  10.447
 4667W        W76982  14.118  35.205  13.132
 4668W        W76983  20.676  43.785  14.224
 4669W        W76984  24.271  40.441   3.978
 4670W        W76985   8.373  30.838  11.129
 4671W        W76986  11.728   7.258  13.610
 4672W        W76987  39.564  22.688  12.151
 4673W        W76988   5.196  17.146  12.021
 4674W        W76989   9.236   9.938   2.729
 4675W        W76990  44.849   5.713   1.210
 4676W        W76991  23.677  23.836   1.412
 4677W        W76992  26.345  23.747   2.844
 4678W        W76993  10.702  37.798  13.498
 4679W        W76994  31.939  36.424   1.880
 4680W        W76995  29.146   9.957  12.916
 4681W        W76996  17.568   4.379  11.104
 4682W        W76997  36.598  38.469   3.910
 4683W        W76998  37.784  37.926   1.276
 4684W        W76999  22.508  37.127  14.204
 4685W        W77000   9.923  28.951  11.084
 4686W        W77001   3.417  34.078   2.856
 4687W        W77002   1.882  38.002   0.556
 4688W        W77003  23.947   8.840  12.468
 4689W        W77004  24.334  32.053  10.638
 4690W        W77005  41.098   3.974   4.319
 4691W        W77006  13.702  28.612  12.167
 4692W        W77007   0.256  44.948  13.148
 4693W        W77008   4.005  36.839   4.579
 4694W        W77009  29.260   3.471  14.379
 4695W        W77010  43.201  35.004   4.830
 4696W        W77011  22.575  32.309  12.465
 4697W        W77012  43.218  41.015  12.609
 4698W        W77013   7.586  43.346   0.637
 4699W        W77014  26.598  28.575   0.525
 4700W        W77015  26.386  20.984   0.507
 4701W        W77016  36.855  36.547   0.757
 4702W        W77017  31.844  32.860  12.550
 4703W        W77018   7.743  10.748  10.906
 4704W        W77019  40.312   1.476  11.089
 4705W        W77020  42.881  11.832   3.153
 4706W        W77021  10.842  20.892   3.863
 4707W        W77022  41.036   1.339   2.833
 4708W        W77023  38.886  37.793   1.368
 4709W        W77024  27.719   7.912  14.056
 4710W        W77025   1.883   0.191  13.353
 4711W        W77026  21.321  15.163  11.620
 4712W        W77027  20.957  37.718   2.329
 4713W        W77028   9.639   1.375   4.794
 4714W        W77029  30.824  22.056   2.275
 4715W        W77030  11.271   9.737  13.768
 4716W        W77031  13.267  19.164   4.389
 4717W        W77032   5.069   7.070   3.986
 4718W        W77033  25.774  43.579   3.058
 4719W        W77034  24.736   7.299   4.527
 4720W        W77035  16.778  31.227   0.229
 4721W        W77036  22.610   6.357  12.969
 4722W        W77037   2.271  21.351   0.619
 4723W        W77038  40.163  21.537   1.693
 4724W        W77039  40.141  43.630   4.197
 4725W        W77040   5.069  27.728  13.032
 4726W        W77041  41.905  44.403  11.166
 4727W        W77042  23.547  16.122  13.460
 4728W        W77043  11.788  40.145   0.920
 4729W        W77044   5.301  44.606   1.777
 4730W        W77045   4.961  13.772   3.262
 4731W        W77046  19.039   4.706  12.334
 4732W        W77047  15.510  37.776  11.573
 4733W        W77048  30.110  22.252   0.397
 4734W        W77049  30.233  11.873  10.760
 4735W        W77050   7.424  43.834   0.834
 4736W        W77051   2.463  10.441  12.500
 4737W        W77052  11.559  30.468  11.466
 4738W        W77053  33.031   3.455   2.708
 4739W        W77054  21.151  26.860   2.284
 4740W        W77055   4.910  33.069  10.850
 4741W        W77056  34.660  20.668   4.872
 4742W        W77057  24.531  17.492   3.051
 4743W        W77058   5.682  44.926  13.276
 4744W        W77059  27.461  18.749   0.821
 4745W        W77060  31.822  30.207   4.946
 4746W        W77061  16.727   0.250   3.807
 4747W        W77062  12.696  30.077   1.038
 4748W        W77063  16.248  24.128  14.633
 4749W        W77064  11.650  30.285  13.564
 4750W        W77065   8.328   7.667  11.526
 4751W        W77066  39.513  35.065  10.370
 4752W        W77067  36.281  38.748   0.886
 4753W        W77068  37.508  23.042  14.119
 4754W        W77069  22.632   4.457   2.679
 4755W        W77070   1.666   8.472   2.354
 4756W        W77071  29.528   1.296   4.470
 4757W        W77072  21.082  22.623   3.463
 4758W        W77073   3.910  18.810   2.685
 4759W        W77074  44.413  20.441  12.052
 4760W        W77075  28.925  38.485  14.020
 4761W        W77076  41.721   4.582  11.640
 4762W        W77077  20.234  31.543   3.674
 4763W        W77078  44.220   1.798   3.617
 4764W        W77079   8.462  32.970   3.700
 4765W        W77080  14.179  28.912   2.258
 4766W        W77081   2.913  39.448  14.257
 4767W        W77082  19.567  23.280  13.514
 4768W        W77083   1.259  18.356   0.383
 4769W        W77084  41.082  34.037   2.784
 4770W        W77085  34.650  38.907   4.656
 4771W        W77086  30.428  33.509  10.729
 4772W        W77087  37.512  33.670  14.016
 4773W        W77088   1.846  12.292  10.502
 4774W        W77089  32.705  21.530   0.993
 4775W        W77090  24.501  14.123   5.101
 4776W        W77091  44.961  36.309  14.727
 4777W        W77092  38.982  25.804   4.946
 4778W        W77093  15.423  35.963  14.478
 4779W        W77094  38.619  18.807   3.406
 4780W        W77095  16.703   7.137  11.666
 4781W        W77096  14.059  33.996   1.066
 4782W        W77097   0.192  29.413  13.486
 4783W        W77098  39.396  39.039  11.541
 4784W        W77099  25.010  43.451  14.324
 4785W        W77100  22.489  39.289  11.452
 4786W        W77101  35.681   4.601  12.430
 4787W        W77102  18.833  36.807  14.463
 4788W        W77103  20.310  30.783  14.396
 4789W        W77104  42.082  28.505  13.984
 4790W        W77105   7.559  30.595   2.025
 4791W        W77106  12.030  42.272  11.658
 4792W        W77107  22.210  44.983   1.886
 4793W        W77108  28.940  26.561   0.760
 4794W        W77109  12.824  24.649  14.347
 4795W        W77110  26.530  37.322  13.483
 4796W        W77111  33.415  21.231  13.296
 4797W        W77112  30.237   3.216   0.321
 4798W        W77113   6.733  18.526   1.465
 4799W        W77114  22.499  18.236  10.566
 4800W        W77115  29.954  17.072  12.067
 4801W        W77116  44.930  32.436   4.608
 4802W        W77117  13.410  10.818   0.423
 4803W        W77118   5.437  30.438  11.129
 4804W        W77119  28.157  29.477   3.958
 4805W        W77120   9.202  10.225   1.485
 4806W        W77121  11.644   8.362  13.038
 4807W        W77122  41.803  44.817   0.941
 4808W        W77123  24.565   0.718   4.080
 4809W        W77124   9.401  42.059   3.619
 4810W        W77125  44.187  28.918  14.447
 4811W        W77126  19.138  11.834  11.919
 4812W        W77127   4.474   8.352   2.679
 4813W        W77128  25.368  15.812  14.808
 4814W        W77129  20.848  32.598  10.727
 4815W        W77130  24.134  27.730  12.516
 4816W        W77131   0.507   1.697   3.576
 4817W        W77132  42.404  15.212  11.243
 4818W        W77133  16.421  23.242  12.319
 4819W        W77134  34.011   4.648  14.046
 4820W        W77135  41.579  44.923  13.555
 4821W        W77136  24.764  35.613  13.367
 4822W        W77137   4.471  29.132   1.200
 4823W        W77138  10.468  29.985   2.774
 4824W        W77139  28.468  41.549   2.371
 4825W        W77140  26.390  20.811   3.725
 4826W        W77141  43.806  40.342   0.817
 4827W        W77142  26.434  22.651  11.458
 4828W        W77143   1.895  41.285  14.417
 4829W        W77144   6.850  41.968   0.667
 4830W        W77145  20.012  23.545  11.859
 4831W        W77146  26.933  18.578  11.666
 4832W        W77147  42.087  31.497   0.469
 4833W        W77148  21.837   2.730  14.413
 4834W        W77149  38.483  31.174  10.708
 4835W        W77150   0.016   9.188   5.455
 4836W        W77151  17.253  27.090   0.776
 4837W        W77152  36.034  12.516  14.139
 4838W        W77153   8.937  37.437   4.094
 4839W        W77154   3.915   6.976   0.341
 4840W        W77155  38.524  22.233  10.556
 4841W        W77156  12.717  26.034   2.675
 4842W        W77157  19.009  28.560  13.040
 4843W        W77158  37.851  31.590   0.420
 4844W        W77159  28.053  35.521   2.251
 4845W        W77160  36.856   3.196  12.644
 4846W        W77161   4.446  34.385  14.355
 4847W        W77162  17.506  31.775  10.021
 4848W        W77163   5.941  19.556   0.779
 4849W        W77164   8.124  16.849  11.027
 4850W        W77165   1.733  15.352  12.392
 4851W        W77166  13.904  11.277  11.982
 4852W        W77167  37.340  43.194   3.023
 4853W        W77168  21.322   5.447  13.453
 4854W        W77169  23.529  18.238   1.302
 4855W        W77170  20.644  37.382  14.341
 4856W        W77171  24.174  33.459  10.824
 4857W        W77172  22.165  24.973  10.415
 4858W        W77173   6.898  18.947  11.466
 4859W        W77174   3.995  19.322  14.495
 4860W        W77175  22.948  21.674   1.162
 4861W        W77176  19.350  18.161  11.560
 4862W        W77177  33.989  37.409  14.094
 4863W        W77178  35.701  22.731  11.454
 4864W        W77179  21.321   0.368  14.890
 4865W        W77180   5.164  28.957   0.225
 4866W        W77181  43.252   1.190   5.005
 4867W        W77182  27.040  25.079  13.816
 4868W        W77183  40.856  42.209   0.180
 4869W        W77184  17.730  13.312   3.671
 4870W        W77185  17.579  26.122   1.645
 4871W        W77186   9.999  35.692  10.914
 4872W        W77187  20.991  34.113   4.232
 4873W        W77188  15.547  17.053   1.758
 4874W        W77189   8.404  31.003   3.860
 4875W        W77190  18.337  32.334   2.349
 4876W        W77191  18.184  31.381   0.448
 4877W        W77192  10.838  33.625   3.802
 4878W        W77193  20.494  13.078   4.643
 4879W        W77194  40.774   0.302   3.093
 4880W        W77195   1.150  25.610  13.326
 4881W        W77196  42.968  23.559   3.766
 4882W        W77197   0.867  34.892  11.496
 4883W        W77198   8.483  23.557  11.036
 4884W        W77199  21.253  11.599  13.007
 4885W        W77200  27.426   7.586   4.717
 4886W        W77201  36.334  35.163   0.839
 4887W        W77202  35.341  44.263  11.149
 4888W        W77203   8.209  19.512  10.392
 4889W        W77204  41.326  18.777   4.155
 4890W        W77205  32.905   6.502  11.750
 4891W        W77206  41.898  34.303  14.405
 4892W        W77207   2.746  18.262   2.682
 4893W        W77208  17.691  22.771  13.844
 4894W        W77209  12.150   4.729   1.491
 4895W        W77210  16.940  30.681   5.723
 4896W        W77211  41.260   2.154   2.827
 4897W        W77212  28.331  31.753  12.465
 4898W        W77213   3.194  43.553   0.363
 4899W        W77214   0.408  29.954   2.588
 4900W        W77215  30.490  11.662   4.533
 4901W        W77216  28.729  40.931   0.327
 4902W        W77217  10.081  13.247  14.924
 4903W        W77218  39.710  27.119   1.345
 4904W        W77219   9.365  21.538  11.472
 4905W        W77220  23.203   0.096  13.506
 4906W        W77221  16.227  30.964   0.886
 4907W        W77222  10.905  28.172  13.870
 4908W        W77223  42.495   2.013   3.179
 4909W        W77224  24.663  41.550   0.335
 4910W        W77225  34.466   4.532  12.810
 4911W        W77226  20.704   7.065  11.202
 4912W        W77227  26.324   5.953   1.210
 4913W        W77228  38.045  18.080   3.549
 4914W        W77229  26.696  40.097   3.199
 4915W        W77230  23.769   0.011   1.994
 4916W        W77231  34.934  29.156  13.143
 4917W        W77232   5.622   5.263  11.908
 4918W        W77233   0.322  39.882   3.879
 4919W        W77234  11.708  24.620   0.531
 4920W        W77235  12.637   2.996  14.952
 4921W        W77236  21.126  11.585  11.873
 4922W        W77237   6.815   4.206  12.918
 4923W        W77238  29.836  22.710   4.471
 4924W        W77239  41.941   3.361   2.897
 4925W        W77240  39.405  12.119   0.838
 4926W        W77241  15.258  28.727   2.152
 4927W        W77242  40.122   5.307   3.265
 4928W        W77243  15.741  13.604   1.203
 4929W        W77244  38.420  32.529   0.484
 4930W        W77245   2.997   2.615  11.012
 4931W        W77246  44.380   9.797   4.078
 4932W        W77247  35.424  13.536   1.678
 4933W        W77248  34.469  39.245   3.639
 4934W        W77249  11.172  43.279   2.182
 4935W        W77250  30.521  30.057   3.343
 4936W        W77251  29.095  13.904  13.186
 4937W        W77252   0.934  44.745  10.972
 4938W        W77253  16.848  30.900   1.722
 4939W        W77254  32.949  23.653  10.667
 4940W        W77255  34.117  16.051  14.451
 4941W        W77256  18.674  44.232  12.926
 4942W        W77257  33.011  11.903  12.979
 4943W        W77258  40.849  10.270   1.621
 4944W        W77259   6.247  11.049  14.441
 4945W        W77260  31.621  11.258   0.349
 4946W        W77261  20.123  26.593  12.884
 4947W        W77262  35.341  35.896  10.768
 4948W        W77263  22.773   0.520  10.726
 4949W        W77264   1.991  30.128   3.774
 4950W        W77265  23.622  39.487   1.937
 4951W        W77266  22.686  24.071   4.133
 4952W        W77267  43.517  28.556  11.075
 4953W        W77268   6.301   4.729  10.642
 4954W        W77269  34.590   4.876   4.155
 4955W        W77270  11.786  37.964   1.941
 4956W        W77271  19.970  20.017  13.069
 4957W        W77272  33.018  41.492   0.290
 4958W        W77273  38.610  14.596   0.270
 4959W        W77274  30.549  21.214  12.493
 4960W        W77275  43.865  26.651  12.934
 4961W        W77276   4.113  38.904  14.252
 4962W        W77277   1.915  36.285   1.299
 4963W        W77278  22.888  10.366  11.821
 4964W        W77279  42.672  34.047   0.353
 4965W        W77280  34.242  13.699  14.296
 4966W        W77281  38.996  24.226  11.660
 4967W        W77282  42.572  28.554   2.269
 4968W        W77283  37.557  26.964  13.858
 4969W        W77284   5.829   3.109   2.651
 4970W        W77285  28.733  20.131  11.024
 4971W        W77286   6.583  28.638  11.123
 4972W        W77287   1.283  44.006  10.993
 4973W        W77288  15.039  24.018  11.128
 4974W        W77289  30.824  31.028  10.675
 4975W        W77290   3.976  22.186   4.541
 4976W        W77291  38.552  39.806   2.722
 4977W        W77292  37.177  38.527  14.931
 4978W        W77293  43.875  36.508  10.504
 4979W        W77294  24.547  31.647  13.267
 4980W        W77295   1.799   8.139   4.083
 4981W        W77296  28.458   6.775   0.819
 4982W        W77297   9.935  33.001   0.701
 4983W        W77298  41.402   2.306   3.305
 4984W        W77299  14.156   2.235  11.434
 4985W        W77300  42.794  30.457  13.855
 4986W        W77301   7.825  23.469  11.481
 4987W        W77302  25.111   2.710  11.627
 4988W        W77303  39.972   9.937   3.212
 4989W        W77304   2.494  36.242  11.170
 4990W        W77305  26.552  28.869  11.955
 4991W        W77306  14.241  19.246   4.094
 4992W        W77307  41.911  15.101   3.643
 4993W        W77308  32.312  21.580   0.658
 4994W        W77309  10.012   5.711  12.509
 4995W        W77310   3.713  37.069   4.063
 4996W        W77311  32.511  25.742  13.739
 4997W        W77312  40.100  36.828  10.414
 4998W        W77313  36.406  23.504   3.356
 4999W        W77314   0.723  34.477   3.665
 5000W        W77315  31.139   7.092   1.743
 5001W        W77316  25.974  29.956   0.300
 5002W        W77317  20.446  12.800  14.220
 5003W        W77318  15.142  21.609   1.173
 5004W        W77319  25.513  32.924   0.988
 5005W        W77320  10.252  32.912   3.703
 5006W        W77321   9.159   7.823   2.775
 5007W        W77322  14.437  30.063   0.509
 5008W        W77323  39.126   5.499   2.266
 5009W        W77324   9.979  37.776   1.397
 5010W        W77325  32.350  21.237  11.635
 5011W        W77326   9.827  25.939   4.617
 5012W        W77327  44.055   7.600   4.122
 5013W        W77328  42.318   2.228  14.833
 5014W        W77329   6.737  36.826   0.751
 5015W        W77330  39.266  41.352  13.511
 5016W        W77331  33.612   0.820   1.728
 5017W        W77332  16.191   7.719  13.515
 5018W        W77333  20.484   7.690  12.885
 5019W        W77334   2.933   8.881  11.684
 5020W        W77335  38.379  10.897  14.826
 5021W        W77336  13.088  30.445  10.656
 5022W        W77337   3.361   0.274   4.377
 5023W        W77338  44.371  24.225  12.801
 5024W        W77339  11.803  21.995  14.949
 5025W        W77340  27.419  33.320   4.095
 5026W        W77341  38.879  21.250   1.925
 5027W        W77342  17.113  16.519   0.505
 5028W        W77343  15.601  44.983   1.807
 5029W        W77344  41.239  39.726  12.423
 5030W        W77345  31.152  14.558  14.005
 5031W        W77346  35.231  44.793  14.724
 5032W        W77347  29.646  10.468   1.245
 5033W        W77348  34.384  20.675  13.386
 5034W        W77349  14.439  22.166  11.551
 5035W        W77350  21.223  44.957  13.027
 5036W        W77351  23.744   6.173  12.516
 5037W        W77352  24.193   6.683  10.531
 5038W        W77353  34.404  10.866   4.182
 5039W        W77354  14.244  12.337   2.613
 5040W        W77355   5.553   3.786  14.450
 5041W        W77356  22.520  27.203  13.105
 5042W        W77357  41.918   0.319  13.538
 5043W        W77358  42.891   4.154   3.859
 5044W        W77359  18.974  43.694  13.903
 5045W        W77360  35.358  43.671   4.253
 5046W        W77361  15.729  18.258  10.748
 5047W        W77362  28.146  40.938  13.097
 5048W        W77363   3.823  31.514   3.186
 5049W        W77364  40.895  41.334   3.800
 5050W        W77365  12.637  18.598   3.989
 5051W        W77366  16.943  17.225  13.884
 5052W        W77367  37.139  16.785   1.277
 5053W        W77368  28.791  19.470   2.237
 5054W        W77369  29.290   7.323  11.809
 5055W        W77370  23.522  24.584   2.250
 5056W        W77371  32.572  28.529  10.358
 5057W        W77372   3.722  27.065   3.624
 5058W        W77373   1.272   5.171  12.591
 5059W        W77374  34.664  35.858  12.519
 5060W        W77375  16.674   6.097   3.768
 5061W        W77376  25.674  25.418  11.356
 5062W        W77377  18.946  19.092  10.735
 5063W        W77378  26.109   1.625   4.325
 5064W        W77379  12.335  11.295  10.442
 5065W        W77380   1.997  37.150   0.477
 5066W        W77381  24.233  14.183   3.093
 5067W        W77382  10.290  37.870  12.937
 5068W        W77383   8.377  17.743   3.977
 5069W        W77384  23.226   4.486  14.138
 5070W        W77385  24.541   6.718  12.434
 5071W        W77386  10.451   8.413   3.600
 5072W        W77387  42.135  35.517   1.390
 5073W        W77388  43.390  15.792   0.348
 5074W        W77389  44.941  26.597   1.233
 5075W        W77390  35.046   4.931   4.410
 5076W        W77391   4.319  22.846   1.613
 5077W        W77392  14.638  10.070   2.752
 5078W        W77393  13.179  42.071   3.915
 5079W        W77394  20.473  12.204  10.399
 5080W        W77395  12.121  43.005   0.438
 5081W        W77396  33.809  43.338   0.026
 5082W        W77397  43.622  35.911   0.165
 5083W        W77398  14.433  39.568   2.270
 5084W        W77399  14.388  34.986  11.136
 5085W        W77400  43.210  37.377  14.376
 5086W        W77401  19.220  12.425   2.366
 5087W        W77402  38.352  30.675  11.057
 5088W        W77403  17.276  37.583   2.840
 5089W        W77404  10.341  21.267  12.336
 5090W        W77405  12.353  17.618   3.759
 5091W        W77406  30.963  11.934  14.018
 5092W        W77407   6.351  27.191   1.215
 5093W        W77408  20.736  12.594   1.223
 5094W        W77409  37.599  33.078  11.900
 5095W        W77410   1.779   1.255   4.785
 5096W        W77411  30.065  37.958  11.572
 5097W        W77412  30.224  42.314   2.468
 5098W        W77413  44.706  26.110   2.837
 5099W        W77414  10.087  24.621   3.849
 5100W        W77415  10.236   9.652  12.564
 5101W        W77416   8.799  11.118  11.596
 5102W        W77417   5.455  32.641   0.832
 5103W        W77418   4.481  26.976   3.817
 5104W        W77419  23.472  24.661   1.364
 5105W        W77420  40.109  39.178  13.944
 5106W        W77421  21.773  25.980  14.348
 5107W        W77422  12.558  22.663  11.663
 5108W        W77423  33.421  20.823   0.974
 5109W        W77424  12.854   9.411   3.648
 5110W        W77425  41.627  35.597   1.359
 5111W        W77426  40.040  10.162   2.743
 5112W        W77427  17.216  43.681   1.257
 5113W        W77428  33.975  38.128  13.489
 5114W        W77429  26.971  19.536  14.735
 5115W        W77430  32.011   6.845   1.364
 5116W        W77431  19.539  43.883  14.413
 5117W        W77432  16.293  43.503   2.591
 5118W        W77433  22.996  15.789   1.788
 5119W        W77434  14.978   4.254   0.473
 5120W        W77435  16.266  15.984  10.430
 5121W        W77436  33.587  26.231   1.608
 5122W        W77437  21.066  11.146  13.146
 5123W        W77438  24.590  38.276   0.005
 5124W        W77439  42.000  10.735  11.930
 5125W        W77440  10.266  30.556   5.046
 5126W        W77441  18.642  42.909  11.913
 5127W        W77442  12.524  19.690   3.361
 5128W        W77443  27.406  43.658  14.373
 5129W        W77444   0.825  34.433   2.642
 5130W        W77445  19.264  10.869   2.740
 5131W        W77446   9.161   4.766   1.957
 5132W        W77447  38.524  18.573  14.165
 5133W        W77448   6.923  43.282  12.776
 5134W        W77449  35.252  31.632   2.748
 5135W        W77450  21.940  25.105  14.284
 5136W        W77451  43.029  15.565   4.628
 5137W        W77452  40.081  14.204  11.507
 5138W        W77453  14.193   2.810  12.833
 5139W        W77454   4.566  12.862   5.079
 5140W        W77455  32.850  29.207  10.731
 5141W        W77456  12.016  40.001   0.301
 5142W        W77457  23.977  21.201  10.730
 5143W        W77458  11.155  29.633   1.061
 5144W        W77459  14.595  36.919   4.667
 5145W        W77460  35.442  34.922  10.637
 5146W        W77461  40.367  43.066   3.748
 5147W        W77462  33.937  13.334   4.656
 5148W        W77463  40.028   5.425   4.706
 5149W        W77464   0.463  33.494   1.916
 5150W        W77465  35.294  11.337   2.263
 5151W        W77466  21.994  22.469   3.724
 5152W        W77467  21.230  31.654  11.053
 5153W        W77468  24.176   6.926  10.007
 5154W        W77469   3.131  22.280  13.802
 5155W        W77470  32.525  12.356   4.914
 5156W        W77471  11.876  20.167   3.738
 5157W        W77472  41.403  39.528  12.875
 5158W        W77473   1.936  13.235   2.811
 5159W        W77474   1.522  11.588   2.233
 5160W        W77475  13.238  32.045  10.917
 5161W        W77476  11.874  20.290   4.614
 5162W        W77477  39.990   6.768  12.344
 5163W        W77478  32.804   7.715  11.325
 5164W        W77479  15.170  17.686   2.227
 5165W        W77480   3.757  33.587   9.739
 5166W        W77481  37.038   9.929   4.111
 5167W        W77482  26.751  33.079  13.996
 5168W        W77483   5.724  19.291   2.697
 5169W        W77484  44.297  39.687   2.872
 5170W        W77485  38.896   0.496   3.855
 5171W        W77486  25.091  37.590  11.924
 5172W        W77487  28.081  26.705   0.879
 5173W        W77488  34.913  39.908   3.176
 5174W        W77489  16.222  28.958  14.785
 5175W        W77490  29.518  35.339   2.368
 5176W        W77491   7.434   8.335   1.735
 5177W        W77492  21.163  16.242  12.550
 5178W        W77493   6.759  25.968  10.936
 5179W        W77494   9.231  28.004  13.005
 5180W        W77495  36.371  17.329   1.247
 5181W        W77496  31.398  36.435  14.491
 5182W        W77497  30.603  29.683  12.626
 5183W        W77498   1.307  20.472  11.043
 5184W        W77499   5.953  23.050  13.002
 5185W        W77500  10.418  18.579   5.058
 5186W        W77501  33.561  13.852   0.792
 5187W        W77502  30.401  20.107   4.565
 5188W        W77503  28.031  42.180  13.543
 5189W        W77504  14.046  13.844   3.449
 5190W        W77505  12.686   6.800   1.255
 5191W        W77506   4.285  41.820   4.242
 5192W        W77507  38.885  21.182   2.445
 5193W        W77508  31.599   5.415  10.886
 5194W        W77509  30.873  35.915  13.479
 5195W        W77510  13.757   7.769  10.698
 5196W        W77511  37.433  13.125  11.264
 5197W        W77512  30.466   2.234   2.160
 5198W        W77513   5.467  19.762   1.393
 5199W        W77514  31.000  35.063   0.997
 5200W        W77515  19.261  17.752  13.710
 5201W        W77516  37.509  41.568   0.049
 5202W        W77517  29.869  18.811  13.431
 5203W        W77518  44.943  38.482   3.253
 5204W        W77519   2.860  10.806   3.851
 5205W        W77520  38.852  12.026   0.697
 5206W        W77521  38.545  43.259  11.483
 5207W        W77522  23.252  24.145   1.366
 5208W        W77523  33.871  35.718   4.264
 5209W        W77524  13.645  15.616  11.063
 5210W        W77525  17.132  33.744   4.336
 5211W        W77526  34.062  34.111   4.397
 5212W        W77527  36.073  23.633  13.801
 5213W        W77528  10.358  11.029   0.683
 5214W        W77529  27.005   5.973  10.198
 5215W        W77530  26.212  11.129   0.804
 5216W        W77531  38.883  17.699  11.865
 5217W        W77532   0.975  31.515  11.067
 5218W        W77533   1.229  36.440  12.037
 5219W        W77534  11.090  36.593   3.145
 5220W        W77535  17.377  17.290  10.199
 5221W        W77536  18.189   2.838  14.949
 5222W        W77537  20.450  34.102  12.163
 5223W        W77538  24.437  41.513   0.792
 5224W        W77539  39.637   0.220   0.490
 5225W        W77540  20.637  35.063  14.998
 5226W        W77541  39.028  23.235  12.617
 5227W        W77542  34.025   0.964  12.052
 5228W        W77543  23.664  31.113   3.348
 5229W        W77544   2.962  15.330   1.378
 5230W        W77545  24.044  40.438  11.141
 5231W        W77546  14.262  27.004  10.832
 5232W        W77547  37.379  38.440   3.231
 5233W        W77548   8.095  40.601   3.183
 5234W        W77549  32.105   5.232  12.436
 5235W        W77550  22.265  17.155   0.288
 5236W        W77551  30.613  13.786  12.973
 5237W        W77552  29.802   8.251  12.450
 5238W        W77553  15.332  29.908  11.622
 5239W        W77554   1.651   1.197   3.727
 5240W        W77555  24.545  22.520   3.662
 5241W        W77556   0.856  26.641   3.868
 5242W        W77557  10.449  19.766  14.789
 5243W        W77558  38.268  19.948   0.211
 5244W        W77559  31.919  21.344   0.242
 5245W        W77560  10.637  31.903  13.879
 5246W        W77561  29.027  19.093   3.704
 5247W        W77562  15.012  13.897  13.424
 5248W        W77563  15.856  15.654  10.437
 5249W        W77564  12.504  33.402  12.527
 5250W        W77565   2.321  22.174   0.019
 5251W        W77566  30.456  13.147  14.752
 5252W        W77567  40.446  26.093  11.357
 5253W        W77568  28.390   4.958   2.312
 5254W        W77569   8.208   2.998  11.061
 5255W        W77570  25.548  19.498   4.325
 5256W        W77571  23.958  36.535  13.869
 5257W        W77572  27.448   9.233   0.389
 5258W        W77573  26.709  11.651   2.617
 5259W        W77574  44.373  44.279   1.695
 5260W        W77575  39.554  11.870  11.164
 5261W        W77576  13.655  21.307  11.955
 5262W        W77577  25.465   6.790  12.046
 5263W        W77578  14.316   0.358   3.855
 5264W        W77579  36.551  24.680  13.140
 5265W        W77580   2.529  42.521   4.629
 5266W        W77581  34.487  13.954   4.110
 5267W        W77582  34.994  29.722   2.695
 5268W        W77583  38.358  24.852   2.376
 5269W        W77584   8.457  28.836  11.344
 5270W        W77585  34.107  12.401  13.102
 5271W        W77586  23.497  33.328  12.507
 5272W        W77587  41.784  11.023   1.775
 5273W        W77588  27.778  15.914   2.249
 5274W        W77589  34.340  11.408   4.200
 5275W        W77590  27.043  29.227   1.947
 5276W        W77591  12.155  35.593   4.522
 5277W        W77592  40.553  18.859   1.479
 5278W        W77593   2.999  19.131  12.566
 5279W        W77594   1.484  25.411  11.159
 5280W        W77595  31.973   1.496  11.597
 5281W        W77596  27.334  30.564  14.549
 5282W        W77597   4.708  10.241  14.469
 5283W        W77598  23.067  26.036  10.380
 5284W        W77599  28.441  35.079   1.211
 5285W        W77600  42.991  43.494   3.313
 5286W        W77601  16.781   0.533  12.277
 5287W        W77602  14.102  44.978   4.676
 5288W        W77603  11.863  12.829   0.294
 5289W        W77604  20.665  20.759   4.351
 5290W        W77605  30.116  38.118   0.869
 5291W        W77606   4.352  22.980   4.184
 5292W        W77607  40.034  34.399   3.190
 5293W        W77608  38.824  33.606  13.603
 5294W        W77609   2.728  42.883  10.695
 5295W        W77610   1.263  41.020   1.050
 5296W        W77611   9.279  37.884   2.687
 5297W        W77612   2.461  34.566   1.434
 5298W        W77613   7.515  10.828   1.929
 5299W        W77614   9.211  41.231   0.057
 5300W        W77615   9.572  10.270  13.392
 5301W        W77616  35.946  20.763   2.802
 5302W        W77617   3.978   0.669   4.836
 5303W        W77618  27.891  13.710   1.875
 5304W        W77619  44.719   3.873  13.313
 5305W        W77620   7.287  17.429  13.108
 5306W        W77621  28.843  13.236  12.426
 5307W        W77622  42.596  26.919   0.429
 5308W        W77623  31.104  13.157  11.185
 5309W        W77624  11.219  37.360   2.823
 5310W        W77625  42.416  12.665   3.129
 5311W        W77626  24.399  20.341  13.966
 5312W        W77627  39.418  16.415  11.228
 5313W        W77628   8.781  18.473   2.694
 5314W        W77629  38.857  31.571   0.717
 5315W        W77630  37.053   5.297   2.444
 5316W        W77631  14.824  23.997  10.597
 5317W        W77632   1.727  31.407  11.605
 5318W        W77633  27.534   3.248  10.664
 5319W        W77634  27.555  34.705  12.954
 5320W        W77635  34.119  35.402   3.927
 5321W        W77636   1.508  24.000  12.027
 5322W        W77637  27.572  38.840   4.560
 5323W        W77638  26.073  39.824  12.978
 5324W        W77639  18.223  41.576   9.636
 5325W        W77640  28.504   9.637  11.035
 5326W        W77641  21.028   5.966  12.593
 5327W        W77642  16.206  28.618   4.303
 5328W        W77643  14.655   7.644   0.766
 5329W        W77644  18.316  37.436   3.448
 5330W        W77645  18.893  11.394   0.862
 5331W        W77646  35.806  37.546  11.499
 5332W        W77647  22.170   1.821  13.780
 5333W        W77648  41.815  19.466  11.980
 5334W        W77649   8.631  12.853   3.784
 5335W        W77650  42.521   4.367  12.091
 5336W        W77651  27.029  32.914  14.838
 5337W        W77652  31.637  27.792  12.036
 5338W        W77653  25.158   4.554  10.499
 5339W        W77654  40.313  23.442  14.989
 5340W        W77655  21.270   7.157   3.259
 5341W        W77656  16.280  28.101   3.534
 5342W        W77657  12.902  41.345  14.949
 5343W        W77658  25.647  21.445   1.928
 5344W        W77659  25.414   9.473  10.648
 5345W        W77660   0.688  37.471   2.242
 5346W        W77661  15.819  23.579  13.364
 5347W        W77662   2.504  14.481   4.209
 5348W        W77663  22.379   2.918  13.605
 5349W        W77664  25.099  26.776   0.318
 5350W        W77665   0.051  27.149   4.129
 5351W        W77666  23.000  12.716   4.539
 5352W        W77667  31.276  25.134  10.809
 5353W        W77668  19.025  26.075  13.095
 5354W        W77669  41.846  41.898   1.298
 5355W        W77670  22.459  36.405  11.632
 5356W        W77671  23.500  37.734   3.364
 5357W        W77672  11.895  18.725  10.110
 5358W        W77673  36.918  38.338  12.622
 5359W        W77674   5.244   1.908   3.309
 5360W        W77675  39.912  35.088   0.812
 5361W        W77676  27.585  13.299  11.800
 5362W        W77677  16.664   3.140  14.939
 5363W        W77678  24.227   0.243   0.338
 5364W        W77679   5.092  15.114   1.869
 5365W        W77680  38.443  29.202   0.393
 5366W        W77681  44.316  29.371  13.743
 5367W        W77682  37.803  29.065  12.517
 5368W        W77683  18.137   5.012  12.859
 5369W        W77684  22.519  12.168  14.777
 5370W        W77685   0.582   9.684  11.510
 5371W        W77686  17.769  36.365   2.302
 5372W        W77687  30.085   0.446   0.435
 5373W        W77688  27.921  28.461   3.697
 5374W        W77689  26.131   5.844  10.182
 5375W        W77690  33.164  42.834  14.048
 5376W        W77691  27.651  38.845  13.495
 5377W        W77692  21.691   2.459   4.389
 5378W        W77693   1.806  37.431   4.913
 5379W        W77694  20.994  18.726   0.763
 5380W        W77695  38.556   7.901   0.910
 5381W        W77696  41.943  38.078   0.708
 5382W        W77697   4.695   1.928  11.655
 5383W        W77698   7.366  23.960   3.707
 5384W        W77699   2.655  10.349  12.009
 5385W        W77700  38.732  34.931   2.253
 5386W        W77701  25.630  26.948  12.498
 5387W        W77702  32.960   4.265  10.835
 5388W        W77703   2.371  34.074  10.523
 5389W        W77704  32.488   0.195  10.323
 5390W        W77705   4.465  30.088   4.642
 5391W        W77706   9.211   7.914  10.994
 5392W        W77707   1.737  33.454   2.945
 5393W        W77708  29.897  37.114  13.824
 5394W        W77709  21.270   6.383  12.427
 5395W        W77710  28.434  44.423   0.731
 5396W        W77711  35.113  36.417   3.507
 5397W        W77712  43.892  38.964  10.643
 5398W        W77713   1.550  33.598   4.106
 5399W        W77714  14.122  40.575   4.118
 5400W        W77715  44.295  29.954  14.287
 5401W        W77716  38.845  30.881   1.006
 5402W        W77717  36.418  17.946  13.895
 5403W        W77718  21.652  32.424  11.133
 5404W        W77719  25.485  44.990   1.348
 5405W        W77720   4.533  16.206  12.362
 5406W        W77721   8.035  39.057   1.317
 5407W        W77722  35.582  25.310   0.385
 5408W        W77723  30.849  22.667  10.884
 5409W        W77724  29.116   5.920   2.328
 5410W        W77725  36.213  15.127  11.591
 5411W        W77726  17.766  41.395   4.767
 5412W        W77727   7.318  27.964  10.905
 5413W        W77728  15.662  21.034   0.308
 5414W        W77729  16.790  36.802   3.796
 5415W        W77730  30.635  21.067  10.702
 5416W        W77731  38.310  40.696   3.160
 5417W        W77732  20.819  20.550   1.715
 5418W        W77733  21.672  35.347  13.909
 5419W        W77734  40.302  33.327   0.493
 5420W        W77735  20.296  10.393  11.413
 5421W        W77736  30.094  36.370  12.629
 5422W        W77737  16.151   5.334   2.775
 5423W        W77738  14.256  42.904  13.263
 5424W        W77739   6.104  22.674  14.857
 5425W        W77740   3.705  25.522  10.581
 5426W        W77741  28.933  18.759   4.099
 5427W        W77742   7.482   8.276   2.653
 5428W        W77743  38.070   7.203  11.535
 5429W        W77744   5.805  19.080  13.538
 5430W        W77745   7.293  44.239  14.815
 5431W        W77746  27.405   1.496  11.862
 5432W        W77747  37.065   1.739   1.386
 5433W        W77748  42.906  35.817   3.807
 5434W        W77749  24.240   3.842   0.793
 5435W        W77750  13.769  27.665  12.854
 5436W        W77751   3.825   5.348   4.376
 5437W        W77752  27.597  26.881   0.981
 5438W        W77753  31.060   8.476   0.356
 5439W        W77754  18.852  24.056  12.315
 5440W        W77755   6.012   6.720   4.205
 5441W        W77756  41.033  29.021   4.486
 5442W        W77757  28.047  37.426   3.679
 5443W        W77758  16.027   3.256  12.086
 5444W        W77759  18.131  35.659  13.435
 5445W        W77760  44.056   5.981  14.396
 5446W        W77761  12.338  40.641  14.510
 5447W        W77762  28.489   5.826   5.580
 5448W        W77763  14.292  28.965  13.968
 5449W        W77764  28.410  27.583  11.077
 5450W        W77765  34.938  42.706   1.302
 5451W        W77766  35.807  12.843   2.950
 5452W        W77767  38.983  44.797  14.829
 5453W        W77768  16.539  38.762   4.257
 5454W        W77769  25.058  33.762   4.716
 5455W        W77770  40.733  27.183  11.640
 5456W        W77771  17.890   3.975  14.154
 5457W        W77772   8.869  11.917  14.558
 5458W        W77773   0.468  34.556  14.396
 5459W        W77774  37.024  24.550   4.100
 5460W        W77775   0.825  10.894  10.633
 5461W        W77776  30.102  28.994  12.514
 5462W        W77777   1.012  32.867   2.923
 5463W        W77778  44.634  14.587   2.382
 5464W        W77779   9.392  14.688  12.507
 5465W        W77780  35.282  39.336   3.730
 5466W        W77781  16.573  18.384  11.078
 5467W        W77782   1.737  41.412  10.540
 5468W        W77783  21.225  19.615   3.378
 5469W        W77784  36.477  24.567  11.444
 5470W        W77785  39.433  44.374  13.944
 5471W        W77786  17.714  34.631  14.745
 5472W        W77787   9.903  32.617  13.523
 5473W        W77788  43.685  36.885   2.426
 5474W        W77789  14.304  16.721  12.223
 5475W        W77790  11.819  42.568  13.391
 5476W        W77791   5.218  24.397  10.678
 5477W        W77792  31.596  22.749  14.832
 5478W        W77793  31.580   1.765   0.759
 5479W        W77794  34.907  28.648   1.832
 5480W        W77795   1.861   5.947  13.391
 5481W        W77796  14.179  37.030   4.290
 5482W        W77797   4.211  27.428   3.765
 5483W        W77798  23.138  22.244   0.883
 5484W        W77799  22.715   9.765   3.281
 5485W        W77800   1.707   1.976   1.992
 5486W        W77801   3.352   6.436  13.990
 5487W        W77802  29.530  15.728   1.674
 5488W        W77803  42.978   0.434  13.959
 5489W        W77804  40.404  13.269  11.534
 5490W        W77805  36.799  17.547   2.217
 5491W        W77806  35.996  35.576   0.762
 5492W        W77807   9.602  13.898  10.450
 5493W        W77808   8.081   6.271  13.261
 5494W        W77809  10.690  42.536   4.398
 5495W        W77810  41.724  28.139  13.952
 5496W        W77811  39.055  18.497   5.268
 5497W        W77812   8.667  39.053   2.233
 5498W        W77813  30.927  23.646  12.495
 5499W        W77814  33.519  23.793   3.124
 5500W        W77815  41.791  42.741   3.726
 5501W        W77816  29.613  44.211   3.118
 5502W        W77817  28.643   6.902  14.281
 5503W        W77818  29.653  30.419   1.472
 5504W        W77819   1.414  26.708   4.122
 5505W        W77820  16.023  21.203  14.294
 5506W        W77821  41.579   9.408  14.863
 5507W        W77822  11.305   3.123   0.424
 5508W        W77823  37.471   1.285  12.822
 5509W        W77824  35.154  19.303   3.206
 5510W        W77825  42.293  42.703  11.366
 5511W        W77826  22.014   3.912  10.403
 5512W        W77827  25.717   1.169  11.150
 5513W        W77828  26.637  30.441  12.911
 5514W        W77829  40.014  24.281  10.226
 5515W        W77830  24.914   7.399   2.695
 5516W        W77831  34.280  13.162   4.324
 5517W        W77832  25.192  38.400  14.448
 5518W        W77833  20.682   9.674   0.990
 5519W        W77834  35.375  13.906  13.024
 5520W        W77835  38.507  15.244  10.682
 5521W        W77836   1.392   9.105  10.496
 5522W        W77837  25.074  30.638   0.776
 5523W        W77838  44.034   3.622   3.436
 5524W        W77839  14.036  29.418  13.968
 5525W        W77840   4.824   3.534  13.762
 5526W        W77841  33.345  13.732  10.563
 5527W        W77842  11.572  36.814   2.109
 5528W        W77843   9.865  40.415  12.632
 5529W        W77844  22.003  40.272   0.196
 5530W        W77845  44.095  13.280  12.125
 5531W        W77846  24.462  23.003  11.953
 5532W        W77847  14.029  35.377  10.695
 5533W        W77848  21.768  33.792   3.405
 5534W        W77849   5.187  35.553  13.390
 5535W        W77850  34.388  39.824   3.741
 5536W        W77851  29.226  20.877  14.357
 5537W        W77852  17.045   2.192  14.932
 5538W        W77853   2.626  21.878   0.412
 5539W        W77854  22.310   7.104  12.211
 5540W        W77855  39.697  44.233   0.416
 5541W        W77856  15.566  44.358   3.779
 5542W        W77857  13.935  22.173  11.686
 5543W        W77858  26.564  33.918   1.340
 5544W        W77859  42.488  38.330  10.853
 5545W        W77860  19.249   7.450  11.018
 5546W        W77861  39.767   6.586   2.881
 5547W        W77862  41.838  44.948  12.394
 5548W        W77863   8.130  35.071  13.762
 5549W        W77864  15.829  23.808   0.390
 5550W        W77865  19.563  44.266  11.077
 5551W        W77866  17.188  19.482  10.294
 5552W        W77867   1.147  10.762   0.842
 5553W        W77868  39.999  17.083  11.502
 5554W        W77869  18.088   7.908   3.576
 5555W        W77870  36.998  39.335   0.914
 5556W        W77871  42.948  20.131  11.660
 5557W        W77872  38.250  22.960   2.333
 5558W        W77873   6.693  35.093   2.217
 5559W        W77874  21.210  31.905   0.856
 5560W        W77875  15.349  20.148   0.222
 5561W        W77876  39.074   2.704  10.731
 5562W        W77877  10.135  38.457  14.019
 5563W        W77878  23.595  42.111   3.579
 5564W        W77879   0.487  30.439  14.373
 5565W        W77880  26.900  42.440  13.032
 5566W        W77881  43.892  19.558   3.815
 5567W        W77882  27.106  13.391  13.955
 5568W        W77883  16.323  36.415  12.953
 5569W        W77884  15.662  39.711   2.240
 5570W        W77885   6.324  32.883  12.904
 5571W        W77886  33.875  20.675  13.472
 5572W        W77887  37.026  13.826  12.822
 5573W        W77888   8.273   8.820   2.562
 5574W        W77889   5.121  23.493   3.737
 5575W        W77890  25.060  37.419  10.926
 5576W        W77891  34.400  22.096   4.372
 5577W        W77892   9.732  33.041  12.855
 5578W        W77893  39.839  35.381  10.778
 5579W        W77894  22.015   8.720   0.709
 5580W        W77895   3.405  33.395  14.405
 5581W        W77896  21.729  41.042  14.824
 5582W        W77897  28.578  32.553   2.861
 5583W        W77898  29.990   8.375   0.043
 5584W        W77899  21.039  16.765  13.344
 5585W        W77900  15.069  11.289  11.161
 5586W        W77901  37.837  41.040   3.098
 5587W        W77902   9.825  34.216  11.055
 5588W        W77903   3.948  10.291  14.886
 5589W        W77904  38.353   4.933   4.541
 5590W        W77905  35.936   8.983   2.680
 5591W        W77906  31.619  42.329   2.968
 5592W        W77907  13.586  40.390   4.088
 5593W        W77908   7.259  17.827  11.126
 5594W        W77909  23.615  10.271  14.838
 5595W        W77910  10.530  16.744  14.267
 5596W        W77911  22.469  22.027  12.017
 5597W        W77912  12.927   5.063  10.100
 5598W        W77913  12.381  17.009   5.392
 5599W        W77914  32.917  38.652   0.252
 5600W        W77915   8.918  32.669   4.538
 5601W        W77916   1.964   1.073  14.847
 5602W        W77917  40.042  25.974  11.653
 5603W        W77918  42.625   6.947   3.787
 5604W        W77919  39.481  14.509   2.102
 5605W        W77920  43.021  34.663  13.345
 5606W        W77921   7.074  10.195  14.999
 5607W        W77922  21.484   3.987  12.098
 5608W        W77923  13.047  18.614  14.990
 5609W        W77924   6.176  19.158   1.104
 5610W        W77925  16.209  12.646  13.993
 5611W        W77926  11.604  10.852  14.613
 5612W        W77927  34.746  40.671   4.121
 5613W        W77928   4.462  27.037   4.674
 5614W        W77929   7.345   3.258  13.702
 5615W        W77930  32.917  14.677   4.368
 5616W        W77931  44.265  30.523   1.461
 5617W        W77932  24.009  20.792   2.034
 5618W        W77933  21.389  26.657   4.706
 5619W        W77934  36.431  43.859   0.541
 5620W        W77935  42.972  21.265   1.269
 5621W        W77936   4.136  14.663   2.752
 5622W        W77937  14.348  33.374   4.604
 5623W        W77938  18.257  40.966  14.811
 5624W        W77939  37.323  20.209   2.148
 5625W        W77940   0.225   3.662  13.303
 5626W        W77941  19.266  26.558   1.873
 5627W        W77942  41.711   3.971  14.025
 5628W        W77943  29.709  17.834  14.326
 5629W        W77944  23.457  12.601  14.297
 5630W        W77945   8.059  39.715  11.090
 5631W        W77946  18.101  38.137  14.356
 5632W        W77947  16.174   4.524  13.514
 5633W        W77948  24.537  25.625  14.572
 5634W        W77949  29.438   2.976   3.572
 5635W        W77950  41.927  25.806  10.642
 5636W        W77951  35.506  26.879   3.774
 5637W        W77952   2.711  37.118  11.181
 5638W        W77953  21.146  38.963   3.202
 5639W        W77954  31.035  36.553  12.690
 5640W        W77955   7.754  14.704   1.196
 5641W        W77956   0.307   0.239  10.955
 5642W        W77957  26.108  39.678  12.467
 5643W        W77958   0.940  44.766  11.502
 5644W        W77959  25.975  14.021  11.588
 5645W        W77960   0.031  39.505  12.959
 5646W        W77961  32.482  26.594   4.393
 5647W        W77962  41.887  37.131  13.197
 5648W        W77963  16.721  20.195  12.698
 5649W        W77964  39.279  19.007   2.719
 5650W        W77965  19.679  29.903  13.846
 5651W        W77966  36.024  35.355   1.422
 5652W        W77967   0.862  26.210   0.035
 5653W        W77968   1.092   7.916  12.009
 5654W        W77969  40.955  42.046  12.437
 5655W        W77970  38.804  29.029   4.885
 5656W        W77971  13.371  31.499   1.274
 5657W        W77972  31.418  39.084   3.304
 5658W        W77973  27.689  37.887  12.477
 5659W        W77974  35.978  43.851   1.737
 5660W        W77975  32.589  25.047   3.130
 5661W        W77976  40.984  44.798   4.489
 5662W        W77977   9.944  40.347  13.929
 5663W        W77978  21.320  29.628   1.479
 5664W        W77979  29.680  37.878   0.309
 5665W        W77980  17.197   8.459  11.987
 5666W        W77981  31.976  31.482  14.480
 5667W        W77982  26.491  42.469  14.857
 5668W        W77983  23.162  32.078  14.507
 5669W        W77984  41.542  39.272   3.749
 5670W        W77985   2.531  35.018   3.729
 5671W        W77986   0.901  11.074  13.282
 5672W        W77987  39.170  18.781   0.923
 5673W        W77988  14.684  44.528  13.642
 5674W        W77989   2.768  16.863   2.330
 5675W        W77990   1.771  32.075   2.830
 5676W        W77991  33.617   4.617  10.047
 5677W        W77992   6.295  17.522  10.983
 5678W        W77993  15.050  18.698   1.281
 5679W        W77994  29.534  39.813   0.843
 5680W        W77995   5.720  44.375  10.539
 5681W        W77996   8.657  33.449  14.197
 5682W        W77997  31.249  41.090   1.513
 5683W        W77998  32.205  32.510  14.915
 5684W        W77999  19.737  17.371   3.713
 5685W        W78000  41.777  19.121  14.534
 5686W        W78001  27.270   3.417   1.387
 5687W        W78002   2.996  22.244   0.476
 5688W        W78003  14.505  33.361  11.636
 5689W        W78004   4.383  10.439  11.577
 5690W        W78005  43.828  40.125   2.763
 5691W        W78006  12.247  20.106  12.467
 5692W        W78007  39.023  21.145  11.649
 5693W        W78008  29.093  43.774  13.369
 5694W        W78009  34.814  27.557   3.199
 5695W        W78010   1.342  29.457   0.512
 5696W        W78011  40.568  34.470   1.302
 5697W        W78012  18.642  21.061  13.571
 5698W        W78013  43.227  36.592  11.185
 5699W        W78014   2.223  26.145   0.740
 5700W        W78015  16.119  14.711  14.988
 5701W        W78016  31.911  43.938  13.464
 5702W        W78017  15.349   0.531   4.584
 5703W        W78018  33.098  14.830   3.481
 5704W        W78019  28.855  20.778  12.054
 5705W        W78020   6.764  43.100  14.308
 5706W        W78021  31.595  34.341  14.802
 5707W        W78022  16.324  16.517   1.866
 5708W        W78023   1.464   9.781  14.893
 5709W        W78024  18.442  22.920   0.865
 5710W        W78025  32.059  27.429   4.748
 5711W        W78026   0.655   6.818   1.437
 5712W        W78027   5.472  31.192  11.533
 5713W        W78028  32.000  44.019  10.696
 5714W        W78029  39.891  10.764  11.386
 5715W        W78030  18.555  11.752  10.785
 5716W        W78031  23.172  18.738   3.651
 5717W        W78032  36.453  44.988  10.458
 5718W        W78033  11.699  38.014  12.587
 5719W        W78034  29.021  14.539  14.512
 5720W        W78035  22.147   6.637   3.229
 5721W        W78036   3.207   7.252  13.145
 5722W        W78037   4.205  34.293  14.796
 5723W        W78038  16.377   9.202   4.256
 5724W        W78039   3.354   6.835   2.603
 5725W        W78040  14.378  33.857  13.544
 5726W        W78041   1.843   2.435  10.624
 5727W        W78042  23.967  42.002   1.224
 5728W        W78043  36.290  36.434  13.804
 5729W        W78044   7.527  31.568  13.369
 5730W        W78045   2.715  18.188   1.279
 5731W        W78046  27.657  18.634  13.039
 5732W        W78047  13.231  22.445  11.072
 5733W        W78048   8.390  44.242   4.054
 5734W        W78049  42.324  38.932   4.860
 5735W        W78050  16.391  33.946   4.731
 5736W        W78051  19.343   8.740  14.789
 5737W        W78052  42.313  41.888  12.940
 5738W        W78053  29.526  26.750  11.040
 5739W        W78054  22.730  19.694   5.039
 5740W        W78055  13.145   1.475  10.748
 5741W        W78056   1.604  28.975   4.034
 5742W        W78057  34.479  43.974   2.342
 5743W        W78058  14.218  29.699   0.231
 5744W        W78059  32.165  19.941   1.392
 5745W        W78060   1.236  34.586  10.090
 5746W        W78061  43.804  11.607   0.416
 5747W        W78062  16.835  21.752   0.275
 5748W        W78063  13.270  40.491  14.422
 5749W        W78064  33.907  34.027  14.062
 5750W        W78065  34.132   6.388   0.307
 5751W        W78066  17.073  22.252  13.332
 5752W        W78067   7.351  16.581   0.262
 5753W        W78068  16.060  29.199  12.895
 5754W        W78069  13.733  44.949   3.702
 5755W        W78070  22.028  23.277   4.104
 5756W        W78071   6.896  11.165  12.293
 5757W        W78072  28.598  36.826   0.235
 5758W        W78073  12.983  16.446   9.557
 5759W        W78074  33.115  15.469   0.676
 5760W        W78075  19.317  38.395   9.587
 5761W        W78076   3.778  14.097  12.462
 5762W        W78077  16.647   1.277  11.850
 5763W        W78078  44.755  18.022   1.325
 5764W        W78079  26.003  20.647   0.480
 5765W        W78080  27.283   8.227   3.636
 5766W        W78081  44.177  18.668   3.179
 5767W        W78082  11.690  33.620   2.752
 5768W        W78083  22.805  36.183   4.039
 5769W        W78084  20.572   6.843   2.239
 5770W        W78085  23.759  13.093   2.234
 5771W        W78086  27.702  28.457  12.453
 5772W        W78087   0.700  29.782  10.229
 5773W        W78088  27.863  19.809   2.091
 5774W        W78089  20.493  43.372  11.963
 5775W        W78090  38.578  38.928   1.167
 5776W        W78091  18.195  19.586  10.626
 5777W        W78092  19.561   4.559  11.577
 5778W        W78093  12.227   4.982   4.128
 5779W        W78094  43.767  29.530  14.253
 5780W        W78095   7.377  32.180   0.458
 5781W        W78096  33.336   2.767   0.358
 5782W        W78097  32.653  13.760  13.873
 5783W        W78098  13.689  41.570   4.865
 5784W        W78099   2.779   8.963   3.564
 5785W        W78100  34.295   9.742   0.724
 5786W        W78101  14.718  20.008   3.673
 5787W        W78102  36.109  34.606  13.517
 5788W        W78103  19.471   0.524  14.896
 5789W        W78104  26.543  14.260   2.162
 5790W        W78105  34.561   4.687   4.731
 5791W        W78106  31.718   8.396  12.328
 5792W        W78107  35.242  13.003  14.878
 5793W        W78108  27.351   2.350  10.599
 5794W        W78109  16.730  12.826  11.614
 5795W        W78110  17.680  28.075   5.032
 5796W        W78111   0.231  11.131   0.272
 5797W        W78112  39.611  12.873  11.999
 5798W        W78113  28.116   5.203  14.417
 5799W        W78114   5.169  26.816  11.478
 5800W        W78115  26.705   1.208  11.099
 5801W        W78116  30.029   5.755  14.457
 5802W        W78117   4.975  32.789   0.949
 5803W        W78118  31.483   7.874   3.662
 5804W        W78119  26.982  32.833   3.177
 5805W        W78120   8.321  36.065  12.399
 5806W        W78121   5.333  32.367  13.051
 5807W        W78122  17.036  25.258   1.732
 5808W        W78123  15.695   3.657   1.714
 5809W        W78124  22.064   3.746   4.528
 5810W        W78125  30.873  37.519  11.454
 5811W        W78126  44.809  19.316   3.726
 5812W        W78127  35.365  27.079   1.842
 5813W        W78128   4.185  32.228   0.949
 5814W        W78129   8.730  27.673  11.098
 5815W        W78130  16.226  18.431   4.196
 5816W        W78131  33.084   7.404  13.728
 5817W        W78132  44.699   7.516  10.683
 5818W        W78133  42.868  31.789  10.459
 5819W        W78134   9.231  19.519  10.549
 5820W        W78135   0.842   0.346   2.943
 5821W        W78136  14.384   5.789   3.688
 5822W        W78137  40.205   4.570   1.229
 5823W        W78138   6.460  32.499  12.076
 5824W        W78139  28.624   9.188  13.030
 5825W        W78140  27.542  13.119   4.172
 5826W        W78141   6.455   4.867  12.982
 5827W        W78142   6.324  17.734   1.334
 5828W        W78143  39.356  27.423  12.470
 5829W        W78144   7.275   4.638   2.293
 5830W        W78145   4.844  27.070   1.007
 5831W        W78146  31.919  27.910   4.541
 5832W        W78147   0.476   6.861   0.530
 5833W        W78148  24.121  34.494   4.629
 5834W        W78149  16.356   0.443   1.234
 5835W        W78150  15.234  15.622   1.848
 5836W        W78151  33.840  31.302  11.780
 5837W        W78152  30.336   0.789   0.906
 5838W        W78153  30.996  25.652  13.157
 5839W        W78154  41.748  15.676  12.551
 5840W        W78155  28.731  26.044   3.656
 5841W        W78156  31.185   3.227   4.235
 5842W        W78157   9.394  34.836   1.759
 5843W        W78158  28.599  24.483  13.410
 5844W        W78159  38.861  29.132  13.361
 5845W        W78160  36.381  24.943   4.057
 5846W        W78161  10.235  31.193  11.552
 5847W        W78162   8.238  27.432  11.171
 5848W        W78163  17.497   7.651  12.006
 5849W        W78164  23.242  31.973   4.652
 5850W        W78165  11.679  26.897   4.655
 5851W        W78166  12.665   7.214   2.861
 5852W        W78167   0.750  26.091  13.934
 5853W        W78168  37.896  13.518   4.126
 5854W        W78169  11.490  32.845  14.208
 5855W        W78170  35.561  23.268   4.256
 5856W        W78171  38.575  13.346  12.682
 5857W        W78172  33.832  33.874  11.221
 5858W        W78173  38.647  19.008  13.906
 5859W        W78174   5.287  27.973   2.110
 5860W        W78175  38.899  12.862  11.518
 5861W        W78176  19.060  18.547   0.798
 5862W        W78177   0.831  16.062   3.300
 5863W        W78178  10.903  35.559   1.220
 5864W        W78179   0.944   1.312  11.184
 5865W        W78180  11.293   3.025  11.151
 5866W        W78181   3.202  32.584  14.166
 5867W        W78182  28.936  33.684  10.998
 5868W        W78183  37.331  37.099  13.009
 5869W        W78184  29.086   0.485  11.084
 5870W        W78185  41.468  27.034   1.660
 5871W        W78186  44.384  21.005  10.234
 5872W        W78187  37.598  10.596  10.726
 5873W        W78188  37.994  38.848   3.801
 5874W        W78189  28.473  34.346  10.864
 5875W        W78190  32.101  25.678  13.453
 5876W        W78191  19.033  35.965  14.430
 5877W        W78192  10.282  32.388   3.756
 5878W        W78193  10.295  42.987   1.862
 5879W        W78194  43.311   4.508   2.143
 5880W        W78195  41.027  20.459  11.163
 5881W        W78196  23.990  31.624   1.745
 5882W        W78197  40.928  23.182  12.879
 5883W        W78198   9.874  31.619   1.919
 5884W        W78199  26.670  43.554   0.868
 5885W        W78200  33.189  44.800  10.285
 5886W        W78201  30.683  15.726  11.120
 5887W        W78202  29.063  32.106  11.581
 5888W        W78203  28.442  42.276  10.577
 5889W        W78204  32.428   5.629  11.938
 5890W        W78205   8.018   6.834  14.386
 5891W        W78206  25.993   8.389   3.442
 5892W        W78207   2.256  34.617  13.851
 5893W        W78208  26.994  17.696   0.324
 5894W        W78209  34.473  25.045  11.599
 5895W        W78210   1.382  26.595  11.596
 5896W        W78211  34.886  34.414  11.652
 5897W        W78212  15.948  26.973   1.379
 5898W        W78213   9.241  35.929  14.582
 5899W        W78214  14.893  31.442   1.172
 5900W        W78215  40.525  40.930   3.744
 5901W        W78216   9.499  40.254  14.796
 5902W        W78217  35.821   4.491   3.392
 5903W        W78218  24.288   6.376   4.462
 5904W        W78219  19.098  38.543  11.945
 5905W        W78220   6.285  30.612  12.612
 5906W        W78221  27.698   5.732  13.031
 5907W        W78222  11.349  34.345  12.588
 5908W        W78223  15.414  14.306  14.506
 5909W        W78224   7.428   3.295  11.639
 5910W        W78225   9.238  25.634   1.089
 5911W        W78226  37.034  39.283  11.011
 5912W        W78227  27.630   6.913  12.074
 5913W        W78228  17.092  36.065   4.745
 5914W        W78229  39.592  25.025  13.742
 5915W        W78230  28.935   7.212  13.968
 5916W        W78231  12.384  43.363   3.693
 5917W        W78232   4.832  16.067  11.364
 5918W        W78233  31.170  40.480   3.746
 5919W        W78234  14.092   3.866  13.797
 5920W        W78235  10.392  17.504  10.525
 5921W        W78236  10.349  15.235  12.817
 5922W        W78237  22.095   3.689   0.364
 5923W        W78238  33.540  19.559   4.719
 5924W        W78239  31.832  24.718   2.094
 5925W        W78240   9.260  11.366  11.397
 5926W        W78241   9.772  16.052  12.099
 5927W        W78242   5.957  26.135  13.031
 5928W        W78243  23.692   9.611   2.806
 5929W        W78244   4.618  40.894   0.131
 5930W        W78245  16.710  27.604   5.507
 5931W        W78246  38.117  22.142   1.499
 5932W        W78247  12.248  11.760  11.142
 5933W        W78248  40.527  16.137  10.472
 5934W        W78249  19.316  32.283  12.959
 5935W        W78250  26.008  32.319  14.786
 5936W        W78251  24.245  43.266   4.367
 5937W        W78252  10.421  39.494   4.357
 5938W        W78253  33.058  11.842   2.512
 5939W        W78254  18.349  35.080   1.348
 5940W        W78255  39.625   7.739  11.115
 5941W        W78256   5.982  18.112   1.213
 5942W        W78257  37.883   4.396  13.044
 5943W        W78258  20.348  17.833  14.917
 5944W        W78259  12.689  33.406  10.742
 5945W        W78260   0.093  10.073  12.566
 5946W        W78261  41.189  43.790  14.790
 5947W        W78262  42.340  17.970   1.210
 5948W        W78263   4.642  41.519  13.045
 5949W        W78264   4.387  34.482   4.406
 5950W        W78265  13.552  19.779   3.281
 5951W        W78266   3.961   4.158  12.008
 5952W        W78267  10.217  10.545   2.869
 5953W        W78268  27.455  25.044  12.470
 5954W        W78269  15.042  12.181  13.071
 5955W        W78270  20.693  30.734   1.865
 5956W        W78271   1.854  30.901   0.369
 5957W        W78272   1.172  35.027   1.903
 5958W        W78273  42.057  34.388  10.765
 5959W        W78274  30.927  44.862  11.834
 5960W        W78275  40.396   5.191  11.063
 5961W        W78276   3.242   9.294  13.320
 5962W        W78277   3.060  30.303   0.913
 5963W        W78278   3.996  23.805   4.098
 5964W        W78279  41.551  31.465   3.265
 5965W        W78280  36.028  10.147  12.902
 5966W        W78281  40.615  18.083   2.843
 5967W        W78282  22.773  24.216   2.231
 5968W        W78283   9.664  40.264   3.767
 5969W        W78284  44.335   2.219   3.369
 5970W        W78285  22.646  42.831  10.773
 5971W        W78286   4.813  35.475   0.252
 5972W        W78287  18.589  30.075   3.308
 5973W        W78288   9.792  17.254  14.815
 5974W        W78289   8.371  42.311   0.333
 5975W        W78290  12.261   1.462   0.806
 5976W        W78291  22.212  22.722  11.134
 5977W        W78292  10.444  31.140   0.297
 5978W        W78293  15.486  26.353  14.223
 5979W        W78294   5.661  26.020   4.188
 5980W        W78295  26.613  29.301   2.864
 5981W        W78296  24.498  27.016   4.524
 5982W        W78297  43.382  31.821  13.990
 5983W        W78298  34.406  26.264  13.182
 5984W        W78299  25.286  29.479  10.735
 5985W        W78300   6.817   7.709   0.288
 5986W        W78301  22.771  31.595  13.013
 5987W        W78302  25.160   0.276   4.415
 5988W        W78303   6.257  41.435   4.578
 5989W        W78304  44.331  13.747   0.718
 5990W        W78305  42.377   2.442   0.334
 5991W        W78306  14.610  19.024  11.132
 5992W        W78307  44.468  40.759  12.943
 5993W        W78308  42.840   3.807  13.063
 5994W        W78309  27.110   4.670   2.728
 5995W        W78310   0.152   7.239   0.821
 5996W        W78311  44.738  30.682  12.424
 5997W        W78312  34.377  10.129   3.705
 5998W        W78313  15.611  10.186   1.792
 5999W        W78314  38.738   7.222  13.369
 6000W        W78315  23.622  12.324  14.742
 6001W        W78316   2.040  28.638  14.728
 6002W        W78317   9.736  28.084   4.658
 6003W        W78318  30.518  16.757   1.658
 6004W        W78319   4.628  40.828   0.690
 6005W        W78320  31.203  35.939   1.946
 6006W        W78321  31.175  34.992  11.211
 6007W        W78322  21.828  15.201   1.303
 6008W        W78323  28.627  15.806   2.385
 6009W        W78324  21.270  10.335   1.524
 6010W        W78325  38.797   7.796  10.759
 6011W        W78326  43.088  19.021  14.710
 6012W        W78327   5.134  10.384  11.071
 6013W        W78328   3.460  22.509   0.423
 6014W        W78329   6.208   6.392   2.749
 6015W        W78330  21.055  20.013  11.958
 6016W        W78331  33.194  10.602   4.832
 6017W        W78332  12.295   6.370  12.308
 6018W        W78333  37.140  25.261  13.823
 6019W        W78334  44.082  35.973  14.263
 6020W        W78335   3.011  34.004   4.172
 6021W        W78336  29.681  10.135  11.987
 6022W        W78337  15.638  33.482  11.469
 6023W        W78338  10.706  31.684  11.020
 6024W        W78339  19.710  26.658   0.609
 6025W        W78340  37.918  28.470   3.595
 6026W        W78341  36.071   6.906  12.603
 6027W        W78342   6.425  33.446  13.812
 6028W        W78343  28.027  31.349   1.699
 6029W        W78344  23.636  10.733  13.303
 6030W        W78345  31.042  41.611  10.661
 6031W        W78346  33.983  31.838  10.994
 6032W        W78347  23.077  42.582  10.646
 6033W        W78348  41.160  19.208   0.952
 6034W        W78349   3.918  27.018  12.654
 6035W        W78350  42.280  42.225   0.756
 6036W        W78351  32.852  24.271  13.237
 6037W        W78352   8.383   0.101   2.205
 6038W        W78353  34.525  21.661  13.787
 6039W        W78354   3.375  17.625  10.575
 6040W        W78355  29.000   8.624   2.690
 6041W        W78356   4.359  24.408   4.478
 6042W        W78357   0.492  31.745   1.811
 6043W        W78358   0.828  21.070  14.221
 6044W        W78359  22.269  27.627   3.636
 6045W        W78360  32.186  12.644  14.534
 6046W        W78361  20.068   4.208  14.423
 6047W        W78362   0.620  41.091  11.823
 6048W        W78363  19.376  21.560   0.887
 6049W        W78364  30.433  13.587   1.551
 6050W        W78365  42.623  43.351  13.085
 6051W        W78366  10.341  20.063   4.848
 6052W        W78367   8.604  28.501  14.263
 6053W        W78368  39.015  35.802   4.956
 6054W        W78369  39.344  36.052  10.552
 6055W        W78370  44.000  27.274  13.849
 6056W        W78371  18.132  14.124  12.960
 6057W        W78372  19.331   3.338  12.615
 6058W        W78373  34.290  15.721  14.816
 6059W        W78374  30.598  38.985  14.292
 6060W        W78375  29.650  12.219   2.401
 6061W        W78376  30.546  26.065   4.126
 6062W        W78377   0.431   7.371   0.417
 6063W        W78378  28.374  24.727  13.815
 6064W        W78379  32.450  35.638   2.302
 6065W        W78380   9.728  31.467  10.531
 6066W        W78381  23.432  10.774  14.812
 6067W        W78382   5.964   5.605  13.075
 6068W        W78383  40.994  21.160  12.430
 6069W        W78384  44.758  41.413   0.711
 6070W        W78385  14.410  14.740  10.431
 6071W        W78386  29.837  26.850  14.567
 6072W        W78387  34.927  15.029  12.440
 6073W        W78388   0.424  22.138   2.656
 6074W        W78389  40.453   5.427  12.869
 6075W        W78390  38.065  35.839   5.145
 6076W        W78391  35.184   3.114   4.116
 6077W        W78392  26.153  20.078  13.095
 6078W        W78393  42.767  24.159   3.133
 6079W        W78394  30.888  41.620  12.976
 6080W        W78395   0.121  12.201   1.726
 6081W        W78396  18.583  31.782   9.947
 6082W        W78397   8.833  20.743   0.236
 6083W        W78398  21.345  44.423   5.042
 6084W        W78399  22.629  21.516   0.730
 6085W        W78400  14.250  17.558  12.769
 6086W        W78401  14.743   6.719   0.943
 6087W        W78402  22.249  31.899   4.795
 6088W        W78403   0.350  11.763   5.509
 6089W        W78404  38.908  30.631   0.421
 6090W        W78405  26.975  37.127   0.164
 6091W        W78406  34.590  28.859   0.360
 6092W        W78407  18.562  24.009   3.243
 6093W        W78408  23.452  35.926  13.536
 6094W        W78409  18.009   8.597   0.923
 6095W        W78410  37.201  10.863  13.464
 6096W        W78411  13.354  20.056   4.454
 6097W        W78412   9.626  32.595  11.985
 6098W        W78413  12.398  14.070   5.084
 6099W        W78414  31.004  29.458   0.849
 6100W        W78415  39.450  43.247  10.689
 6101W        W78416  20.106  31.117   3.956
 6102W        W78417  12.771  11.895  13.007
 6103W        W78418   4.176   5.824   0.512
 6104W        W78419  15.833  36.407  12.766
 6105W        W78420  38.021  34.364   2.370
 6106W        W78421  19.746  28.873  10.805
 6107W        W78422  38.533   4.867   2.229
 6108W        W78423  12.050  24.771  10.772
 6109W        W78424  16.722  12.613  14.055
 6110W        W78425   9.178  18.226   2.444
 6111W        W78426  29.088  19.592  13.970
 6112W        W78427   6.366   6.752   3.817
 6113W        W78428  27.404  28.733   2.714
 6114W        W78429  10.362  10.728   1.084
 6115W        W78430   6.237   6.147  10.481
 6116W        W78431  15.684  22.658  12.138
 6117W        W78432  20.905  42.311   4.183
 6118W        W78433   9.851  41.611  12.982
 6119W        W78434  34.480  15.568   0.293
 6120W        W78435   3.488  30.689   0.872
 6121W        W78436  15.598  16.130  14.380
 6122W        W78437  30.929   8.462  11.169
 6123W        W78438   9.778   3.179  12.615
 6124W        W78439  13.552  10.295  12.069
 6125W        W78440   1.316  20.728   4.703
 6126W        W78441  15.751  13.181   4.106
 6127W        W78442  28.333  35.954  12.058
 6128W        W78443  27.539  31.112   2.740
 6129W        W78444  18.128  39.882   3.131
 6130W        W78445  35.406   4.487  11.684
 6131W        W78446  10.769  29.206   4.177
 6132W        W78447  17.199   8.143  12.392
 6133W        W78448   4.325  39.451  14.560
 6134W        W78449  16.826  33.022   0.189
 6135W        W78450  38.441   5.751   2.795
 6136W        W78451  18.620   5.199   2.791
 6137W        W78452  19.189  21.228  12.385
 6138W        W78453  24.041   9.717   0.777
 6139W        W78454  21.879  18.070  12.661
 6140W        W78455  34.370   3.452  12.720
 6141W        W78456  42.746  35.926   1.180
 6142W        W78457  14.129   5.175   2.313
 6143W        W78458   7.306  28.456  14.757
 6144W        W78459   8.229  36.549   2.798
 6145W        W78460  42.399  41.536   3.270
 6146W        W78461  38.757  24.174  14.051
 6147W        W78462  15.405  22.737   4.154
 6148W        W78463  44.322  11.331   1.296
 6149W        W78464  27.030  23.477  12.901
 6150W        W78465  31.963  31.137  11.123
 6151W        W78466  17.057   4.310   1.274
 6152W        W78467   1.969  27.101   0.858
 6153W        W78468  20.321  43.967   1.638
 6154W        W78469  44.981  14.781  12.618
 6155W        W78470  25.719  37.023   1.341
 6156W        W78471  18.847  16.541   4.136
 6157W        W78472   8.910   8.670  11.328
 6158W        W78473  18.073  37.559  13.024
 6159W        W78474  41.992  11.382  13.496
 6160W        W78475  12.552  10.668  14.410
 6161W        W78476  39.850   3.258  14.897
 6162W        W78477  21.384   1.969  14.486
 6163W        W78478  44.964   5.307  10.968
 6164W        W78479  15.811  36.427   0.879
 6165W        W78480  29.083  42.682  11.086
 6166W        W78481   9.142  35.458  10.381
 6167W        W78482  10.630  31.861  12.006
 6168W        W78483  30.688   9.436   4.587
 6169W        W78484  12.294   4.571  14.859
 6170W        W78485  10.865  27.648  14.053
 6171W        W78486  32.426   4.404  11.531
 6172W        W78487  38.443  37.522  11.975
 6173W        W78488  27.882  12.821  13.666
 6174W        W78489   1.851  14.352   0.204
 6175W        W78490  16.357   7.960   3.715
 6176W        W78491  28.937  42.848   4.174
 6177W        W78492  23.312  41.944  10.875
 6178W        W78493  11.234  35.665  12.105
 6179W        W78494  15.329  20.559   2.427
 6180W        W78495  12.446  38.148  14.032
 6181W        W78496  10.451   3.054  13.052
 6182W        W78497  20.465  33.578  10.677
 6183W        W78498   7.786  18.308  10.625
 6184W        W78499  28.088  36.442  11.183
 6185W        W78500  26.138  12.525   3.604
 6186W        W78501   7.149  15.136  10.545
 6187W        W78502  35.108   0.354  14.048
 6188W        W78503   5.004  24.155   2.821
 6189W        W78504  10.326  16.607   4.571
 6190W        W78505  24.174  23.696  10.665
 6191W        W78506  41.480  38.996   2.256
 6192W        W78507  17.859  19.797   1.688
 6193W        W78508  14.055  16.797   3.088
 6194W        W78509  26.508  30.274   2.794
 6195W        W78510  42.990   2.689   2.833
 6196W        W78511  39.872  14.312   0.530
 6197W        W78512  38.113  11.718  13.008
 6198W        W78513   6.611   9.105   1.059
 6199W        W78514  38.767  11.290   3.877
 6200W        W78515  17.987   0.843   3.685
 6201W        W78516  15.735   8.601   2.830
 6202W        W78517  24.279   8.979   3.518
 6203W        W78518  32.655  36.456  11.682
 6204W        W78519  42.281  16.006   0.137
 6205W        W78520  11.177  18.029  11.516
 6206W        W78521  18.852  38.070  11.942
 6207W        W78522  19.813  21.256   4.580
 6208W        W78523   7.832  13.245  14.236
 6209W        W78524  44.981  33.053  13.525
 6210W        W78525  40.104  28.946   1.645
 6211W        W78526  13.736   2.241   0.331
 6212W        W78527  16.540  24.827  12.594
 6213W        W78528  42.213   8.163   0.857
 6214W        W78529  41.274  14.248  12.664
 6215W        W78530   2.781  24.173  12.319
 6216W        W78531  11.383   1.971  10.451
 6217W        W78532  38.347  17.471   0.174
 6218W        W78533  37.951  29.174  13.424
 6219W        W78534   8.202  14.262   1.812
 6220W        W78535  13.192  44.351   2.413
 6221W        W78536  39.028  24.969  12.919
 6222W        W78537  38.000  11.128   4.830
 6223W        W78538   0.023  36.973   2.731
 6224W        W78539  43.504  44.690  14.707
 6225W        W78540  33.418   5.802   3.296
 6226W        W78541  35.114   5.374  14.367
 6227W        W78542  25.530  11.686  14.247
 6228W        W78543   4.713  16.063  10.836
 6229W        W78544  13.770   5.262  14.797
 6230W        W78545  15.212   4.288   3.186
 6231W        W78546  40.968  41.457   2.352
 6232W        W78547  16.800  32.342  11.502
 6233W        W78548  21.345  40.452  13.406
 6234W        W78549  30.568  39.978   4.287
 6235W        W78550  27.769  19.198   0.976
 6236W        W78551  18.788  29.272  14.929
 6237W        W78552  27.291  29.336  12.073
 6238W        W78553  23.106  23.645  13.265
 6239W        W78554   6.894  30.574  12.058
 6240W        W78555  14.844  11.792   4.697
 6241W        W78556  29.540  39.676  11.259
 6242W        W78557  18.094   7.471  11.563
 6243W        W78558  21.633  40.602  13.857
 6244W        W78559  20.377  28.466  14.868
 6245W        W78560   8.426  31.114  11.570
 6246W        W78561  12.315  26.436   4.277
 6247W        W78562  37.489  37.277  12.544
 6248W        W78563   0.029  24.014  13.281
 6249W        W78564  10.600   8.857   0.988
 6250W        W78565   8.352  33.830  14.991
 6251W        W78566  25.187  38.933  12.108
 6252W        W78567   2.693  26.705  10.714
 6253W        W78568  42.017  14.189  10.520
 6254W        W78569   9.859  20.930  14.089
 6255W        W78570  14.686  18.522  11.140
 6256W        W78571  36.087  19.239   3.074
 6257W        W78572   5.401   8.149  10.618
 6258W        W78573  11.615  34.629  11.067
 6259W        W78574  30.696  13.667  11.971
 6260W        W78575  12.646  14.471  10.346
 6261W        W78576  26.725  22.589  14.911
 6262W        W78577  20.937  10.425   2.494
 6263W        W78578  12.191  43.280   4.156
 6264W        W78579  17.841  29.444   3.446
 6265W        W78580   1.826   4.836   1.300
 6266W        W78581  15.695   4.206  13.476
 6267W        W78582   0.351  15.070  13.019
 6268W        W78583  14.309  15.576  12.344
 6269W        W78584  26.253  37.750  14.355
 6270W        W78585  43.088  26.455  10.424
 6271W        W78586  14.289   2.433   3.069
 6272W        W78587  29.132  41.460  14.029
 6273W        W78588  28.842  22.998   4.509
 6274W        W78589   4.506  42.779   4.177
 6275W        W78590  43.164   6.859   2.225
 6276W        W78591  24.246   5.150  12.021
 6277W        W78592  14.101   2.228   3.516
 6278W        W78593  18.508  18.179   4.879
 6279W        W78594  14.617  41.587  14.484
 6280W        W78595  19.108  34.444   3.254
 6281W        W78596  37.438  12.624   0.084
 6282W        W78597   6.870  27.833  11.153
 6283W        W78598  36.486  24.401  14.562
 6284W        W78599  19.340  22.437  13.964
 6285W        W78600  18.478  24.087  11.524
 6286W        W78601  30.907   1.290  14.592
 6287W        W78602  36.134  24.677  14.317
 6288W        W78603  33.009  33.144   1.822
 6289W        W78604  21.243  14.792  10.997
 6290W        W78605  14.241  27.939  11.893
 6291W        W78606   5.942  41.315  12.075
 6292W        W78607  43.012  20.980   4.169
 6293W        W78608   3.701  42.673   2.739
 6294W        W78609  19.818  34.418   2.817
 6295W        W78610   4.130  35.410  13.418
 6296W        W78611  42.854   7.690   3.951
 6297W        W78612  21.317  11.208   2.299
 6298W        W78613  26.127  30.672  11.938
 6299W        W78614  16.722   6.798  10.881
 6300W        W78615  14.927  43.395   4.780
 6301W        W78616  40.321  20.222  14.251
 6302W        W78617  44.369   4.776   9.926
 6303W        W78618  30.570  34.408   1.381
 6304W        W78619   4.216   6.315   1.902
 6305W        W78620  37.031  34.375   3.776
 6306W        W78621  28.527  31.928   5.371
 6307W        W78622   0.731  35.038   0.656
 6308W        W78623  24.119  28.938  10.691
 6309W        W78624  31.147  16.664  12.797
 6310W        W78625  34.336  31.744   5.148
 6311W        W78626  38.602   5.857  13.501
 6312W        W78627  23.321   6.242   3.334
 6313W        W78628  33.557  25.160  11.562
 6314W        W78629  37.998  19.657   0.874
 6315W        W78630  44.882  27.622   1.193
 6316W        W78631  27.030  31.401   4.757
 6317W        W78632  43.539  30.207   3.281
 6318W        W78633  17.889  29.472  11.715
 6319W        W78634  15.551  20.351   4.092
 6320W        W78635   6.509  31.028  13.801
 6321W        W78636  23.538  17.325   4.342
 6322W        W78637  15.431  19.593   3.667
 6323W        W78638  44.813  42.268   2.909
 6324W        W78639  24.238  32.301   0.317
 6325W        W78640  28.236  39.577  14.397
 6326W        W78641  31.145  17.642   4.410
 6327W        W78642  33.574  33.720   2.775
 6328W        W78643   0.756   5.855   1.231
 6329W        W78644  13.300  31.597  11.178
 6330W        W78645  24.790   1.371   4.681
 6331W        W78646  38.385  30.035   3.154
 6332W        W78647   7.072  34.057  14.646
 6333W        W78648   0.298   9.755   0.466
 6334W        W78649  15.676  12.547  13.955
 6335W        W78650  41.684  26.084  13.200
 6336W        W78651  10.894  12.646  10.637
 6337W        W78652  22.146  19.646  10.771
 6338W        W78653  16.098   7.753  11.243
 6339W        W78654  36.512  21.761   2.683
 6340W        W78655   3.485  43.824  12.523
 6341W        W78656   2.365  39.240   1.832
 6342W        W78657  28.211   2.812  10.252
 6343W        W78658  31.528   4.833   0.523
 6344W        W78659  32.294   7.772   1.199
 6345W        W78660  23.041  13.239  12.938
 6346W        W78661  29.413  34.437  13.838
 6347W        W78662   9.749  42.258  11.822
 6348W        W78663  16.345  15.566   2.732
 6349W        W78664  27.006  41.802  14.577
 6350W        W78665  18.632  14.659  13.561
 6351W        W78666  16.812  24.246  11.212
 6352W        W78667   0.664  27.147  14.703
 6353W        W78668  41.819  13.936   1.392
 6354W        W78669  18.628  38.527  13.227
 6355W        W78670   7.532  34.969   0.413
 6356W        W78671  41.885  23.763  12.966
 6357W        W78672  25.275  16.766   0.871
 6358W        W78673  17.911  23.697  11.124
 6359W        W78674  26.966  39.967   2.340
 6360W        W78675  30.191  18.954   1.853
 6361W        W78676  13.910  27.191   3.785
 6362W        W78677   9.268  21.030   4.502
 6363W        W78678  29.443  31.847   4.765
 6364W        W78679   6.732  39.932   0.870
 6365W        W78680  20.451  31.657   4.143
 6366W        W78681  30.676  15.169  10.634
 6367W        W78682  37.305  43.022   0.286
 6368W        W78683  27.248  42.495   0.463
 6369W        W78684  37.882  22.790  14.419
 6370W        W78685  35.138  35.664  14.257
 6371W        W78686  41.032   7.464   2.070
 6372W        W78687  39.820  42.877  10.768
 6373W        W78688  19.513  11.437   9.628
 6374W        W78689  16.371  17.725  14.450
 6375W        W78690  14.740  28.021   2.299
 6376W        W78691  31.631   8.154   0.624
 6377W        W78692  24.825  19.756  12.005
 6378W        W78693   8.776  12.829   2.578
 6379W        W78694   2.322  40.578  12.054
 6380W        W78695   7.355  13.866  10.759
 6381W        W78696   1.953  24.716   1.139
 6382W        W78697  14.085  12.977  14.344
 6383W        W78698  40.736  33.077   0.325
 6384W        W78699  34.757   4.356  12.414
 6385W        W78700   3.722   9.134  10.664
 6386W        W78701  22.283  22.754   1.055
 6387W        W78702  17.172  13.217  10.755
 6388W        W78703  32.494   5.399  13.577
 6389W        W78704  28.086   2.812   2.329
 6390W        W78705  34.130  18.247   4.616
 6391W        W78706  37.812   8.910   1.020
 6392W        W78707   4.028  13.227  12.043
 6393W        W78708   5.766  25.261   0.293
 6394W        W78709  20.954   9.802   1.834
 6395W        W78710  23.944   9.429  14.468
 6396W        W78711  44.589  20.485   0.280
 6397W        W78712  33.616  11.907   2.329
 6398W        W78713  10.647   0.756  10.694
 6399W        W78714   3.423  22.156   3.700
 6400W        W78715  34.922   4.204   2.673
 6401W        W78716  15.425  27.599   0.465
 6402W        W78717  38.027   3.273  12.210
 6403W        W78718  29.674  22.580  10.273
 6404W        W78719  14.718  35.214  13.447
 6405W        W78720  25.893   3.868   3.603
 6406W        W78721   6.738  42.510   1.462
 6407W        W78722  14.986  23.533   3.072
 6408W        W78723  36.001   4.924  10.635
 6409W        W78724   5.750  40.974  11.214
 6410W        W78725  25.565  38.872   2.429
 6411W        W78726  31.443  43.207   4.707
 6412W        W78727   2.008  38.998   3.239
 6413W        W78728   4.898  32.642  13.076
 6414W        W78729   2.918  28.579   0.299
 6415W        W78730  44.412  10.051  11.162
 6416W        W78731  22.954  34.383   0.199
 6417W        W78732  21.521  20.155  11.798
 6418W        W78733  23.242  37.381   4.073
 6419W        W78734  35.509  30.152  11.901
 6420W        W78735   1.957  17.696  13.777
 6421W        W78736  24.937  29.442   1.180
 6422W        W78737   9.438  29.199  12.518
 6423W        W78738  16.646  15.785  12.400
 6424W        W78739  26.896  15.585  10.611
 6425W        W78740   4.771   4.250  11.156
 6426W        W78741   5.325  43.846   1.348
 6427W        W78742  43.978  33.891  13.045
 6428W        W78743  36.824   6.306  13.578
 6429W        W78744  13.782  32.099   0.321
 6430W        W78745  12.125  21.944  11.086
 6431W        W78746  36.492  39.302  14.803
 6432W        W78747   1.969   2.225  13.606
 6433W        W78748   0.824  22.197  10.997
 6434W        W78749  14.150  34.502  14.381
 6435W        W78750  29.680  36.376  13.917
 6436W        W78751  11.719  37.092   1.690
 6437W        W78752  44.517  44.804   0.389
 6438W        W78753  12.094  12.880   4.960
 6439W        W78754  14.352  27.416  13.981
 6440W        W78755   3.819  32.582  13.506
 6441W        W78756  37.394  42.525  10.610
 6442W        W78757  27.422  30.116  10.664
 6443W        W78758   5.407   2.281  10.787
 6444W        W78759  43.759   3.355   2.194
 6445W        W78760  38.003   5.358   3.168
 6446W        W78761   5.294   4.978   1.869
 6447W        W78762  35.243  28.033  12.381
 6448W        W78763  19.775   6.354   3.391
 6449W        W78764  27.555  25.316  14.885
 6450W        W78765  35.080   8.364   3.768
 6451W        W78766  39.415   7.959   1.950
 6452W        W78767  15.636  11.802   4.994
 6453W        W78768  20.554   2.435  11.060
 6454W        W78769  18.232  40.704   0.897
 6455W        W78770  25.607  24.504   0.275
 6456W        W78771  41.124  26.537  10.493
 6457W        W78772  14.608  44.953  10.621
 6458W        W78773  22.257  21.793  10.148
 6459W        W78774  19.133  23.590  13.340
 6460W        W78775   5.127   9.600   1.308
 6461W        W78776  32.889  29.308   1.971
 6462W        W78777   1.267  37.335   3.111
 6463W        W78778  43.245  30.464   1.769
 6464W        W78779  16.339  17.852  13.006
 6465W        W78780   9.601  26.152   0.326
 6466W        W78781  42.967  38.527  10.741
 6467W        W78782  42.032  29.496  12.948
 6468W        W78783  21.164  18.248   0.673
 6469W        W78784  24.995   9.850  12.373
 6470W        W78785  11.385  18.215  11.076
 6471W        W78786   9.830   6.011  12.958
 6472W        W78787  19.651   1.860   0.312
 6473W        W78788  11.158  26.019   4.285
 6474W        W78789  36.567   8.125   0.304
 6475W        W78790  10.399  27.948   4.185
 6476W        W78791  21.754   5.244   4.873
 6477W        W78792  12.644   3.149  10.845
 6478W        W78793  12.767  23.280  13.303
 6479W        W78794  31.851  34.596   3.278
 6480W        W78795  23.131   2.973  14.902
 6481W        W78796  16.288  42.359  10.705
 6482W        W78797   6.435  39.568   2.336
 6483W        W78798  32.853  27.956   2.286
 6484W        W78799  30.997  16.885  14.911
 6485W        W78800  38.841  17.592  10.560
 6486W        W78801  12.329  26.233   4.745
 6487W        W78802  38.032  29.866   3.943
 6488W        W78803  39.436  39.678   2.114
 6489W        W78804   9.381  33.928  14.411
 6490W        W78805  17.334  27.927  10.994
 6491W        W78806  41.780  18.487   4.307
 6492W        W78807  25.207  10.694  14.098
 6493W        W78808  27.735  15.671   4.154
 6494W        W78809   0.945  17.075  14.915
 6495W        W78810   4.363  20.692  10.936
 6496W        W78811  16.297  28.061  12.056
 6497W        W78812  40.512  33.009  14.858
 6498W        W78813  31.613  26.040  14.688
 6499W        W78814   7.997  20.936   4.889
 6500W        W78815  31.910  23.719  11.631
 6501W        W78816  27.887  29.144   1.244
 6502W        W78817  25.045  31.573   1.124
 6503W        W78818  29.940  29.957   1.706
 6504W        W78819   6.452  40.504   0.626
 6505W        W78820  23.721  35.992   4.111
 6506W        W78821  36.902   3.897   1.639
 6507W        W78822  31.029  36.966   4.632
 6508W        W78823  11.715  21.602   1.771
 6509W        W78824  28.042  32.545  14.347
 6510W        W78825   9.248  18.061   3.426
 6511W        W78826  40.478  18.929   3.160
 6512W        W78827  15.667  17.699  12.502
 6513W        W78828   8.645   0.841  12.270
 6514W        W78829  28.596   6.118   4.092
 6515W        W78830  30.338  36.449   1.973
 6516W        W78831  29.038   6.478   2.389
 6517W        W78832  31.836  40.004  12.054
 6518W        W78833  40.976   7.143  10.700
 6519W        W78834   9.191  10.483  13.104
 6520W        W78835   1.898   8.683   0.087
 6521W        W78836  20.048  29.147   3.677
 6522W        W78837  29.345   7.466   3.384
 6523W        W78838  15.131  22.158  14.048
 6524W        W78839  26.060   4.131   1.803
 6525W        W78840   1.563   9.312   1.509
 6526W        W78841   5.452   9.345  13.777
 6527W        W78842  33.412  37.831   2.331
 6528W        W78843   7.532  21.259   4.874
 6529W        W78844  36.049   7.382  12.456
 6530W        W78845  25.452  20.466  13.010
 6531W        W78846  12.312  22.987  13.436
 6532W        W78847  37.013  18.627   2.255
 6533W        W78848  27.543  11.365   1.789
 6534W        W78849  40.336  18.826  11.224
 6535W        W78850  19.392  26.940  10.351
 6536W        W78851  15.693  41.611  10.299
 6537W        W78852   0.909  18.767  12.293
 6538W        W78853  26.565  28.036   0.327
 6539W        W78854  29.629  35.921  10.714
 6540W        W78855  14.434  25.895   4.241
 6541W        W78856  36.862  40.428   2.598
 6542W        W78857  27.172  37.876  12.569
 6543W        W78858  32.440  37.970   1.866
 6544W        W78859  24.731  10.735   4.118
 6545W        W78860  40.238   9.281  13.924
 6546W        W78861  44.535  38.368   4.186
 6547W        W78862  32.446  37.538  11.611
 6548W        W78863  25.948  11.371   2.390
 6549W        W78864  26.891  14.776   1.781
 6550W        W78865   9.329  14.862   2.143
 6551W        W78866  44.917  21.134  14.693
 6552W        W78867  29.400  35.073  10.778
 6553W        W78868  15.582   2.172  13.415
 6554W        W78869  17.355   7.357   4.507
 6555W        W78870  40.784  35.604   0.855
 6556W        W78871  39.962   1.506   4.362
 6557W        W78872   9.944   2.354   3.697
 6558W        W78873  40.495  23.433   3.384
 6559W        W78874  21.509  23.049   2.171
 6560W        W78875  30.662   9.075   4.178
 6561W        W78876  24.265  28.118   3.941
 6562W        W78877  32.123   8.205   0.818
 6563W        W78878  20.670  35.103  11.644
 6564W        W78879   7.772  14.327   2.074
 6565W        W78880  11.168   4.709   2.390
 6566W        W78881  21.851  36.334   1.364
 6567W        W78882  22.371  32.348   2.307
 6568W        W78883  24.242  10.723   4.309
 6569W        W78884   4.379  37.112  10.452
 6570W        W78885  28.466   5.250   0.373
 6571W        W78886  19.085  29.627  11.064
 6572W        W78887  34.484  44.888   2.129
 6573W        W78888  11.082  29.632   4.102
 6574W        W78889  10.251  11.315   3.388
 6575W        W78890  38.604  15.003   2.145
 6576W        W78891  22.217  40.077  10.806
 6577W        W78892   0.428  15.566   2.972
 6578W        W78893  22.707  15.554   1.190
 6579W        W78894   1.429  15.397   1.837
 6580W        W78895  43.329  14.340   1.295
 6581W        W78896   7.823   3.757   2.155
 6582W        W78897  29.539  43.728  12.890
 6583W        W78898  16.013  18.267  13.049
 6584W        W78899  16.888  44.907   1.465
 6585W        W78900  27.573   9.961   3.201
 6586W        W78901  31.907  33.386   3.682
 6587W        W78902  18.377  16.916  14.754
 6588W        W78903  37.799  38.015  13.094
 6589W        W78904  32.072  32.476   2.732
 6590W        W78905  11.253  29.232   1.960
 6591W        W78906   5.427   0.000   0.682
 6592W        W78907  16.387  40.625   1.373
 6593W        W78908  18.095   7.250  14.860
 6594W        W78909  14.842  18.208  13.892
 6595W        W78910  42.833   8.981   2.727
 6596W        W78911  16.876  18.451   0.314
 6597W        W78912  13.661  41.840  14.454
 6598W        W78913  16.702  19.002   3.787
 6599W        W78914   0.039   9.472  14.093
 6600W        W78915  40.945  38.084  13.887
 6601W        W78916  19.742   9.506  12.908
 6602W        W78917  30.092  13.154  12.469
 6603W        W78918  43.273  32.656   0.455
 6604W        W78919  17.548  23.703  11.673
 6605W        W78920   5.918  36.386   3.600
 6606W        W78921  33.886  32.325   0.876
 6607W        W78922  43.742   2.023  12.978
 6608W        W78923  17.276  24.428  10.541
 6609W        W78924  35.757   7.779  12.366
 6610W        W78925  34.122  44.308  14.933
 6611W        W78926   5.235  30.272   3.320
 6612W        W78927  18.358  30.394   0.080
 6613W        W78928   4.670  17.284  14.291
 6614W        W78929  34.436  35.399   1.402
 6615W        W78930  37.334  42.552  13.588
 6616W        W78931  33.084   2.306  14.622
 6617W        W78932  14.732  14.290   1.805
 6618W        W78933  21.498   7.854  12.880
 6619W        W78934  33.945  31.130   4.154
 6620W        W78935  18.672  19.726   2.547
 6621W        W78936  29.189  30.222  12.931
 6622W        W78937  14.332   5.467  12.177
 6623W        W78938  11.151  30.587   3.240
 6624W        W78939   5.248  19.746  11.224
 6625W        W78940  20.724  16.737   2.409
 6626W        W78941  38.128  15.132  12.644
 6627W        W78942  11.110   2.842   4.119
 6628W        W78943  17.842  35.364  13.826
 6629W        W78944  14.637  18.349  14.376
 6630W        W78945  23.861  30.357  11.013
 6631W        W78946  13.365  13.935   1.513
 6632W        W78947  26.061  23.237  14.514
 6633W        W78948  34.072   9.756   4.770
 6634W        W78949  15.785  39.369  14.101
 6635W        W78950   2.677  37.388   2.233
 6636W        W78951   0.907  31.536   1.160
 6637W        W78952  24.986  21.109  12.513
 6638W        W78953   8.390  37.616   2.227
 6639W        W78954  24.499  33.065   4.246
 6640W        W78955  20.827  22.685   4.397
 6641W        W78956  24.087  11.729  13.565
 6642W        W78957  33.215   2.628  13.040
 6643W        W78958  10.221  34.112  14.825
 6644W        W78959  28.070  16.764  14.431
 6645W        W78960   7.702   1.835  13.452
 6646W        W78961  41.742  33.405   0.973
 6647W        W78962  19.082  18.162  12.074
 6648W        W78963   1.895  21.174  14.799
 6649W        W78964  34.269  31.856   4.166
 6650W        W78965   7.890  42.880   0.423
 6651W        W78966  19.497   3.405  14.848
 6652W        W78967  44.250  37.126  13.064
 6653W        W78968  40.471  30.049  11.641
 6654W        W78969  24.957  23.974   3.636
 6655W        W78970  34.760  30.322   5.217
 6656W        W78971  31.889  35.488  14.434
 6657W        W78972  32.427   7.817   1.702
 6658W        W78973  37.088  40.499  12.906
 6659W        W78974  32.105  43.260  14.922
 6660W        W78975  36.030  37.193   5.140
 6661W        W78976  14.330   8.379   1.321
 6662W        W78977  17.613  17.081   1.541
 6663W        W78978   8.091  44.346   1.837
 6664W        W78979   1.988   0.089  12.119
 6665W        W78980  34.620  19.388   0.931
 6666W        W78981  37.815  42.929  14.976
 6667W        W78982  10.421   6.445   4.428
 6668W        W78983  23.490  44.857   0.362
 6669W        W78984  39.445  19.662  14.310
 6670W        W78985   6.490  40.604  11.041
 6671W        W78986  27.852  25.230  13.449
 6672W        W78987  36.163  41.720   5.114
 6673W        W78988  25.151  43.333  10.856
 6674W        W78989  21.192   4.281  11.759
 6675W        W78990  19.274  15.559  13.092
 6676W        W78991  10.298  32.528  14.316
 6677W        W78992  14.149  21.125   3.573
 6678W        W78993   7.405  19.180   1.156
 6679W        W78994  21.367  17.165  13.511
 6680W        W78995   4.289  33.490   4.748
 6681W        W78996  17.262  36.523  12.904
 6682W        W78997  27.372   1.662   2.578
 6683W        W78998  38.212  19.484   0.443
 6684W        W78999   3.268   4.165   4.601
 6685W        W79000  43.461   4.481  12.027
 6686W        W79001   3.030  19.241  14.032
 6687W        W79002  14.286  15.797   2.709
 6688W        W79003  22.173  24.485  11.673
 6689W        W79004  26.860   6.371  11.943
 6690W        W79005  16.649  13.829   4.525
 6691W        W79006  20.641   1.498   0.861
 6692W        W79007  29.089  31.023   0.442
 6693W        W79008  17.804   9.981   2.757
 6694W        W79009  19.046  13.800  13.858
 6695W        W79010  26.144  16.826  12.792
 6696W        W79011  20.920  33.661   3.743
 6697W        W79012  21.817  12.751  12.953
 6698W        W79013  22.672  15.330   3.189
 6699W        W79014  36.227  39.904   0.380
 6700W        W79015   0.310  14.541  14.937
 6701W        W79016  17.036  15.528  13.164
 6702W        W79017  41.936   3.325   0.827
 6703W        W79018  34.873  40.244  14.543
 6704W        W79019  41.335  28.444  14.968
 6705W        W79020  11.800   5.220   9.874
 6706W        W79021  42.730  37.966  14.986
 6707W        W79022   4.325  13.774   1.569
 6708W        W79023  36.146  18.538  11.967
 6709W        W79024  38.539  25.439  14.059
 6710W        W79025  35.225   1.802  12.987
 6711W        W79026  28.520  20.536   4.323
 6712W        W79027  43.188  41.779  11.032
 6713W        W79028  21.838  41.034   4.238
 6714W        W79029  25.526   2.877  11.969
 6715W        W79030  34.830  24.560  13.997
 6716W        W79031  19.751  33.426   4.623
 6717W        W79032  23.331  20.371  14.850
 6718W        W79033  27.606  31.218  12.445
 6719W        W79034   4.861  39.204  12.804
 6720W        W79035  20.921  36.441  14.331
 6721W        W79036  13.265   1.052   3.816
 6722W        W79037  44.341  20.731   1.867
 6723W        W79038  27.199  33.962  13.341
 6724W        W79039  34.881  38.527  11.343
 6725W        W79040   3.918  25.228   3.106
 6726W        W79041  13.189   1.855  14.106
 6727W        W79042  11.378   3.288   3.240
 6728W        W79043   4.215  39.548   3.707
 6729W        W79044  35.526  10.124  14.470
 6730W        W79045  15.837   6.721  13.507
 6731W        W79046  40.099  24.256  12.618
 6732W        W79047   7.797  26.688  11.240
 6733W        W79048  12.581  29.584   4.091
 6734W        W79049  25.173  23.291  14.395
 6735W        W79050  14.674  35.350  12.517
 6736W        W79051   6.844  23.666  11.451
 6737W        W79052  16.691   6.330  13.401
 6738W        W79053  16.911  17.650   0.938
 6739W        W79054  44.037  10.872   3.287
 6740W        W79055  28.353  32.347   1.821
 6741W        W79056  26.893   4.979   2.369
 6742W        W79057  44.451  41.932   4.062
 6743W        W79058  11.860   6.423   4.295
 6744W        W79059  10.171  34.446   1.421
 6745W        W79060   5.424   0.279  13.513
 6746W        W79061  37.977  18.617   2.331
 6747W        W79062  17.743  23.227   1.324
 6748W        W79063   1.418  24.439   0.767
 6749W        W79064   8.339  31.610   3.333
 6750W        W79065  36.699  44.352  11.482
 6751W        W79066   3.327  32.087  13.904
 6752W        W79067   6.433  24.032   4.592
 6753W        W79068  30.383  12.970   4.113
 6754W        W79069  16.902  41.964   3.375
 6755W        W79070  13.094  25.578  10.616
 6756W        W79071   9.678  15.588   1.187
 6757W        W79072  24.475  40.397  14.038
 6758W        W79073  31.436  12.067  12.536
 6759W        W79074  21.503  31.197  12.010
 6760W        W79075   3.641  28.901  13.472
 6761W        W79076  37.340  35.997  11.585
 6762W        W79077  14.854   2.509   3.795
 6763W        W79078  32.530   4.726  10.179
 6764W        W79079   9.561  43.467   1.275
 6765W        W79080   1.509  34.108  11.671
 6766W        W79081   5.706  17.253   4.782
 6767W        W79082  37.358  43.722   4.139
 6768W        W79083  17.686   2.755   1.780
 6769W        W79084  15.805  11.285   3.216
 6770W        W79085  20.321  30.399  14.783
 6771W        W79086  15.756  23.467   2.800
 6772W        W79087   9.151  32.537   4.089
 6773W        W79088   8.384   1.973  10.949
 6774W        W79089  30.701  27.624   1.742
 6775W        W79090  34.661  11.645   1.481
 6776W        W79091  36.859  31.889  11.489
 6777W        W79092  31.970  27.157  12.674
 6778W        W79093   9.844  22.449  13.732
 6779W        W79094  38.017  25.433   1.957
 6780W        W79095  39.539  37.072   4.322
 6781W        W79096  32.899  25.184  14.311
 6782W        W79097  18.213  43.602   0.009
 6783W        W79098  18.326   3.431   2.625
 6784W        W79099  27.031  27.590   0.932
 6785W        W79100  36.925  17.258  13.644
 6786W        W79101  16.725   1.517   3.295
 6787W        W79102   0.401   3.128  11.598
 6788W        W79103  29.470  19.652   2.815
 6789W        W79104  24.436  14.221   1.236
 6790W        W79105  42.626  33.909   2.891
 6791W        W79106  25.509  33.784  12.142
 6792W        W79107  27.548  18.017   4.666
 6793W        W79108  15.089  40.586  13.887
 6794W        W79109  29.909   3.547   0.801
 6795W        W79110  32.162  42.449   0.682
 6796W        W79111  44.735  25.980   1.918
 6797W        W79112  37.260  39.972  13.883
 6798W        W79113   1.472   2.839   3.873
 6799W        W79114  35.913  35.065  10.438
 6800W        W79115   6.633  28.103  13.057
 6801W        W79116  24.248   0.770  12.994
 6802W        W79117   9.337  44.376   9.831
 6803W        W79118  11.218  17.603   2.754
 6804W        W79119  24.006   3.384  14.879
 6805W        W79120  31.112   2.395   1.847
 6806W        W79121   6.950  17.585   0.715
 6807W        W79122   9.650  27.078   4.307
 6808W        W79123   0.218   2.037   0.974
 6809W        W79124   4.346  34.919   1.759
 6810W        W79125   1.272  37.921   1.959
 6811W        W79126  38.140   6.695   0.457
 6812W        W79127  15.320   1.511  13.962
 6813W        W79128  25.286  37.906  10.933
 6814W        W79129  40.889  44.806  12.878
 6815W        W79130   9.328   1.499   1.510
 6816W        W79131  26.616  11.498  11.399
 6817W        W79132  43.301   3.162  12.438
 6818W        W79133  22.545   6.698  10.909
 6819W        W79134  38.517  42.537   4.132
 6820W        W79135  24.261  33.716  13.364
 6821W        W79136  35.031  26.553   4.501
 6822W        W79137  29.040  33.606  13.312
 6823W        W79138  13.319  37.592  10.657
 6824W        W79139  31.983  29.080   2.104
 6825W        W79140  11.679  13.620   2.908
 6826W        W79141  38.982  42.966  12.368
 6827W        W79142   6.229  43.220   1.628
 6828W        W79143  11.412  33.025  12.184
 6829W        W79144   5.933  15.103   0.940
 6830W        W79145  25.562  10.565   2.467
 6831W        W79146  39.321  14.316   4.776
 6832W        W79147  12.516  25.144  14.555
 6833W        W79148  41.308  25.975   4.664
 6834W        W79149  20.235   4.789   0.919
 6835W        W79150  28.688  31.714  11.589
 6836W        W79151  21.591  19.529   1.223
 6837W        W79152   3.934  29.600  13.021
 6838W        W79153  43.046  39.404   4.927
 6839W        W79154  22.829  18.507  14.996
 6840W        W79155  31.644  30.653  14.316
 6841W        W79156  11.771   8.318  12.550
 6842W        W79157  20.095  37.459  13.047
 6843W        W79158   0.043  26.247  11.603
 6844W        W79159  29.680  22.700  13.842
 6845W        W79160   0.395  23.673   2.355
 6846W        W79161  35.621  14.981  11.144
 6847W        W79162  36.730  25.206   5.058
 6848W        W79163  37.878  15.139   1.170
 6849W        W79164  20.529   6.862  11.650
 6850W        W79165   0.704  14.171   3.597
 6851W        W79166  35.479  20.507  12.388
 6852W        W79167   7.298   0.857  11.589
 6853W        W79168   5.238  26.663  11.964
 6854W        W79169  11.716   5.248   0.855
 6855W        W79170  24.214   7.882   2.433
 6856W        W79171   0.262  42.881  13.389
 6857W        W79172  27.612  10.511   1.450
 6858W        W79173   7.389   8.880  13.922
 6859W        W79174  42.861  44.887   3.130
 6860W        W79175  21.810   0.387  14.051
 6861W        W79176  33.993  41.080   2.299
 6862W        W79177  12.198  41.820   2.688
 6863W        W79178  20.054   5.444   2.190
 6864W        W79179  24.158   2.828   2.585
 6865W        W79180   4.837  16.540  11.154
 6866W        W79181  40.845  34.417  13.231
 6867W        W79182  18.606  40.090  11.103
 6868W        W79183  34.626  11.183   1.758
 6869W        W79184  28.071  27.535  14.300
 6870W        W79185  43.243  17.289   3.092
 6871W        W79186  29.703  40.129  11.476
 6872W        W79187  33.879   4.752  13.134
 6873W        W79188  41.807  31.520   1.814
 6874W        W79189  35.755  23.028   4.701
 6875W        W79190  33.630  35.897  12.452
 6876W        W79191  11.664  26.484  11.081
 6877W        W79192   7.740  34.389  13.392
 6878W        W79193   4.872  34.489   2.740
 6879W        W79194  28.505   8.789  14.821
 6880W        W79195   4.382  32.565   3.879
 6881W        W79196  38.309  31.459  12.190
 6882W        W79197  40.172  44.865  11.481
 6883W        W79198  20.328  10.766  14.293
 6884W        W79199  16.770   2.033   3.302
 6885W        W79200  37.930  33.497   4.464
 6886W        W79201  19.635  13.500  11.085
 6887W        W79202  26.153  44.386   0.316
 6888W        W79203  21.139  41.935  12.427
 6889W        W79204  25.223  15.180   3.322
 6890W        W79205  27.075  30.684   4.916
 6891W        W79206  24.227  42.435   4.675
 6892W        W79207   0.450  16.216  14.705
 6893W        W79208  35.019   4.169  11.491
 6894W        W79209   7.779  21.330   2.610
 6895W        W79210  21.500  42.309  14.518
 6896W        W79211  16.849  39.612  10.237
 6897W        W79212  34.830  27.150   0.897
 6898W        W79213  27.987   8.502  12.583
 6899W        W79214  15.786   0.290   4.795
 6900W        W79215   0.541  17.960   4.962
 6901W        W79216  41.347  30.991  13.203
 6902W        W79217  44.546  11.352  12.896
 6903W        W79218  13.042  23.046   1.035
 6904W        W79219  20.485   2.891   2.203
 6905W        W79220  35.994  39.601  13.029
 6906W        W79221   6.673  43.333   3.410
 6907W        W79222  39.042  29.648   4.170
 6908W        W79223  24.923   1.686   4.291
 6909W        W79224  17.105  36.898  10.722
 6910W        W79225  11.507  24.681  11.601
 6911W        W79226  39.454  27.502   2.687
 6912W        W79227   8.874  19.250   4.350
 6913W        W79228  26.092  38.257  14.325
 6914W        W79229  40.256  15.402  14.456
 6915W        W79230  18.452  35.656   1.236
 6916W        W79231  38.836  40.331  12.572
 6917W        W79232  12.301  16.614   2.726
 6918W        W79233  30.468  32.581   2.915
 6919W        W79234   5.547  33.558  14.642
 6920W        W79235  40.881   8.873  11.670
 6921W        W79236  11.774  12.400  11.526
 6922W        W79237  18.196  38.006  11.134
 6923W        W79238  17.067  28.736   1.310
 6924W        W79239  28.274  34.527   4.977
 6925W        W79240  33.928   7.613  14.997
 6926W        W79241  33.092  10.204  11.018
 6927W        W79242  34.213   8.712   4.028
 6928W        W79243   5.466  39.350   2.299
 6929W        W79244   1.801  22.674   4.191
 6930W        W79245   2.803   9.007  11.191
 6931W        W79246  21.181  40.596  12.133
 6932W        W79247  18.660  33.649   2.146
 6933W        W79248  10.884  39.500   2.517
 6934W        W79249  16.820   2.052  11.578
 6935W        W79250   2.355  36.020   3.601
 6936W        W79251   0.304  34.368   4.674
 6937W        W79252   3.310  44.378   1.887
 6938W        W79253   9.149   3.223  13.775
 6939W        W79254  24.284  25.665   1.790
 6940W        W79255  33.635  21.032  10.891
 6941W        W79256   4.273  30.033  10.850
 6942W        W79257  28.448  38.348   2.784
 6943W        W79258   7.743  23.609   1.337
 6944W        W79259  40.947  29.952  12.363
 6945W        W79260  25.571  26.700   3.656
 6946W        W79261   5.127  23.131  13.518
 6947W        W79262   6.119  16.229   0.815
 6948W        W79263  12.881  15.632  12.608
 6949W        W79264  29.226  26.516   4.688
 6950W        W79265  39.890  21.246   3.155
 6951W        W79266  42.636   1.738   0.752
 6952W        W79267   4.224  10.101   3.908
 6953W        W79268   2.858  23.698   0.653
 6954W        W79269  39.325  18.825  12.583
 6955W        W79270  32.334   5.870  11.470
 6956W        W79271  10.878  14.206   1.854
 6957W        W79272  23.457   4.317   0.031
 6958W        W79273  43.713  30.464  12.578
 6959W        W79274  17.485  16.343  12.925
 6960W        W79275  22.278  18.546   4.102
 6961W        W79276  41.394  13.389  11.560
 6962W        W79277  19.350  19.773   0.778
 6963W        W79278  39.587  13.824  14.860
 6964W        W79279  42.836  13.959  12.403
 6965W        W79280  29.941  43.500  10.661
 6966W        W79281   8.290   3.342   3.844
 6967W        W79282  39.675  42.910   0.252
 6968W        W79283  22.039   4.299  11.186
 6969W        W79284  25.423   7.195  11.467
 6970W        W79285   0.250  20.506   3.513
 6971W        W79286  39.469  44.862  11.116
 6972W        W79287  41.404  18.056  13.983
 6973W        W79288  10.803  39.030   4.174
 6974W        W79289  44.974  35.036   4.772
 6975W        W79290   2.422  22.260  10.692
 6976W        W79291  18.694  23.913   0.824
 6977W        W79292  39.491  21.701  12.150
 6978W        W79293  44.966  38.499  13.901
 6979W        W79294  15.333   1.845  11.518
 6980W        W79295  21.833   7.833  14.783
 6981W        W79296  30.594  30.545  11.911
 6982W        W79297   6.149  25.124   1.079
 6983W        W79298  15.352  34.886   1.854
 6984W        W79299  24.459  17.623  13.369
 6985W        W79300  14.441  38.077   3.170
 6986W        W79301  14.588  34.957  12.195
 6987W        W79302  19.076  11.297   0.275
 6988W        W79303  43.971  33.470   1.534
 6989W        W79304  44.808  29.237  13.829
 6990W        W79305  29.044  30.558   0.170
 6991W        W79306  29.620  37.797   1.666
 6992W        W79307  29.360  31.498  13.516
 6993W        W79308  43.307  16.098  13.463
 6994W        W79309  33.392  23.522   2.277
 6995W        W79310  43.744  17.677   3.785
 6996W        W79311   8.419   1.692   0.003
 6997W        W79312  38.989  26.614  13.115
 6998W        W79313   2.910   5.979  13.443
 6999W        W79314  25.756   4.359   9.791
 7000W        W79315  17.400  39.110   3.967
 7001W        W79316  33.779  44.336   3.681
 7002W        W79317  14.674  20.859   0.965
 7003W        W79318  14.197  35.394   2.279
 7004W        W79319  39.938  13.304  11.140
 7005W        W79320  39.899  33.945  12.611
 7006W        W79321   5.397  36.448  13.800
 7007W        W79322  27.176   1.929  12.778
 7008W        W79323   3.221   8.596  14.837
 7009W        W79324   2.313  37.715   3.685
 7010W        W79325  29.745  35.751  13.644
 7011W        W79326   2.326   9.102  13.905
 7012W        W79327   4.242   3.853  13.165
 7013W        W79328   8.178  28.536  10.994
 7014W        W79329  20.383  36.394  14.065
 7015W        W79330  38.752   9.235  13.844
 7016W        W79331  13.814  21.807  12.011
 7017W        W79332  25.102  22.761  14.395
 7018W        W79333  28.197  34.992   1.979
 7019W        W79334  44.966  13.129   2.871
 7020W        W79335   7.174  32.866  12.149
 7021W        W79336   8.441  30.193   2.646
 7022W        W79337  35.453  40.334  10.737
 7023W        W79338  28.169   4.855  11.931
 7024W        W79339   7.131  29.243  13.619
 7025W        W79340  10.367  19.344   5.410
 7026W        W79341  14.763  41.725  11.136
 7027W        W79342  36.955   7.828   4.473
 7028W        W79343   8.973   2.240   3.585
 7029W        W79344  20.744   4.413   3.883
 7030W        W79345   0.863  22.676   0.318
 7031W        W79346  35.585  18.533  14.857
 7032W        W79347   1.989  22.105   0.433
 7033W        W79348  12.819  16.975  12.448
 7034W        W79349   6.135  41.871   3.533
 7035W        W79350  38.840  43.726   2.388
 7036W        W79351  23.958  40.776  13.003
 7037W        W79352  35.283  30.131  13.427
 7038W        W79353  40.782  24.962  10.226
 7039W        W79354  30.488  37.693   4.293
 7040W        W79355  31.225  23.270  12.292
 7041W        W79356  26.761  35.568  11.522
 7042W        W79357  29.772  31.908  14.949
 7043W        W79358  44.814   5.203   1.330
 7044W        W79359   5.472  18.809   2.787
 7045W        W79360  29.640  15.530  11.078
 7046W        W79361  33.392   6.279  12.449
 7047W        W79362   3.076  26.972   1.894
 7048W        W79363  10.257  13.850  12.066
 7049W        W79364  43.579  34.657  12.691
 7050W        W79365   9.265  41.914   0.709
 7051W        W79366  41.742  38.512   0.954
 7052W        W79367  25.798  14.484  14.432
 7053W        W79368  18.225   2.019  13.803
 7054W        W79369   1.835   1.076  11.991
 7055W        W79370  27.093  16.822   3.157
 7056W        W79371  30.918  22.675  12.513
 7057W        W79372  44.904  28.654  11.507
 7058W        W79373  18.191   3.516  12.872
 7059W        W79374  31.571   3.860   0.137
 7060W        W79375  24.149  36.302   4.112
 7061W        W79376  36.067  42.675   1.649
 7062W        W79377  42.516  16.708  10.693
 7063W        W79378  17.834   8.927  12.656
 7064W        W79379  29.101   0.507   1.926
 7065W        W79380  29.931  26.901  14.043
 7066W        W79381   9.349  28.200   1.275
 7067W        W79382   0.921  35.716   4.222
 7068W        W79383  32.513   5.225   1.643
 7069W        W79384  39.120  35.316   0.415
 7070W        W79385   6.026  13.815  14.761
 7071W        W79386  20.315   0.817  11.087
 7072W        W79387  33.807  14.580   4.130
 7073W        W79388  36.091  39.498   4.526
 7074W        W79389  42.592  43.739  12.423
 7075W        W79390   0.721  29.605   4.592
 7076W        W79391  22.542  32.065  10.069
 7077W        W79392  37.495  23.518   4.799
 7078W        W79393  39.402  21.593  11.286
 7079W        W79394  43.970  21.180  11.991
 7080W        W79395  15.573  31.416   1.507
 7081W        W79396  43.467  24.513   2.612
 7082W        W79397  43.531  20.486   4.669
 7083W        W79398   6.776   7.278   3.524
 7084W        W79399  39.036  16.163  10.369
 7085W        W79400  21.257  13.865  11.074
 7086W        W79401  17.255  33.500   3.907
 7087W        W79402  35.248  41.219   0.876
 7088W        W79403   3.377  17.867  12.044
 7089W        W79404   5.570  17.894  13.901
 7090W        W79405  34.105  40.181   4.497
 7091W        W79406  22.611  26.202  12.215
 7092W        W79407  19.815  38.566  13.501
 7093W        W79408  15.695  39.653   4.177
 7094W        W79409  18.757  24.469   2.276
 7095W        W79410  44.017   3.034  11.458
 7096W        W79411  39.182  43.440   2.128
 7097W        W79412  21.940  34.659   3.847
 7098W        W79413  43.968  27.884   0.758
 7099W        W79414  23.115  38.898   0.868
 7100W        W79415  36.091   0.993  12.479
 7101W        W79416  11.314  16.098  14.693
 7102W        W79417  24.013   0.240   2.418
 7103W        W79418  10.106   3.862  13.567
 7104W        W79419  31.639  36.576  10.779
 7105W        W79420  43.801  17.027  10.644
 7106W        W79421  14.724  23.962   2.873
 7107W        W79422   5.140  25.281   3.242
 7108W        W79423  34.024  32.973  13.900
 7109W        W79424  40.761   9.239  13.882
 7110W        W79425  29.710  23.333  10.646
 7111W        W79426   9.700   8.287   2.250
 7112W        W79427  44.821  12.288   1.316
 7113W        W79428   2.941  26.518   2.213
 7114W        W79429   6.793   4.660  13.349
 7115W        W79430   2.412  28.957  13.839
 7116W        W79431  37.274   0.341   1.128
 7117W        W79432   5.821  43.872   1.200
 7118W        W79433   4.056  16.703  11.454
 7119W        W79434  38.127  39.056  10.229
 7120W        W79435   3.843  32.147  14.058
 7121W        W79436  16.733  39.015   1.916
 7122W        W79437  10.621  44.857  14.813
 7123W        W79438  13.155  14.352   1.284
 7124W        W79439  39.881  16.856   1.791
 7125W        W79440  38.579   9.724  11.083
 7126W        W79441  15.693   2.015   4.133
 7127W        W79442  18.310  16.410  14.815
 7128W        W79443  41.545  19.254   2.401
 7129W        W79444  39.952  17.350  11.936
 7130W        W79445  19.055  42.823   0.259
 7131W        W79446   2.404  14.501   4.754
 7132W        W79447   2.956  42.192  11.558
 7133W        W79448  24.010  16.727  12.132
 7134W        W79449  22.148  24.989  10.942
 7135W        W79450  29.425  24.958   1.876
 7136W        W79451  20.038  26.027  10.793
 7137W        W79452   3.915  26.661   0.083
 7138W        W79453  11.869   7.713  12.526
 7139W        W79454  31.127  17.927  14.870
 7140W        W79455   7.926  43.866   2.776
 7141W        W79456  26.434  36.000   4.158
 7142W        W79457  24.226  40.843   3.645
 7143W        W79458  35.063   5.878  14.553
 7144W        W79459  16.642  29.480   4.095
 7145W        W79460  18.644  11.841   9.775
 7146W        W79461   3.747  20.258  11.965
 7147W        W79462  31.354  26.143  11.642
 7148W        W79463  36.931  15.811   1.772
 7149W        W79464  40.998   0.534   1.799
 7150W        W79465  13.582  10.908   2.595
 7151W        W79466  31.648  39.835  11.537
 7152W        W79467  43.404  38.316  14.335
 7153W        W79468  44.263  35.983   0.057
 7154W        W79469  38.855   2.807  12.053
 7155W        W79470  40.803  20.953  13.853
 7156W        W79471  44.275  21.482  13.059
 7157W        W79472  14.591   8.876   3.323
 7158W        W79473  32.680  15.883  11.152
 7159W        W79474  27.065  11.618   1.807
 7160W        W79475  36.795   7.740  14.476
 7161W        W79476  11.234  10.335   1.454
 7162W        W79477  10.869  37.597  12.551
 7163W        W79478  25.131  44.741  12.876
 7164W        W79479   5.405  18.533   4.335
 7165W        W79480  44.382  31.906  11.746
 7166W        W79481  14.862  32.429  13.993
 7167W        W79482  38.412  32.404   2.774
 7168W        W79483   8.834  34.497  14.897
 7169W        W79484  17.343  21.520   1.512
 7170W        W79485  34.068  28.689  13.131
 7171W        W79486   6.331  19.076  12.906
 7172W        W79487  10.403  29.958  11.057
 7173W        W79488  16.593  12.153   0.396
 7174W        W79489  19.253  20.777  14.444
 7175W        W79490   9.110  44.920   4.019
 7176W        W79491  39.108  12.769  11.972
 7177W        W79492  34.249  36.786   0.899
 7178W        W79493  23.596  16.550  12.403
 7179W        W79494  14.628   5.375  13.387
 7180W        W79495   1.078  19.065  13.690
 7181W        W79496  34.030  26.040  12.862
 7182W        W79497  41.338  36.021   4.920
 7183W        W79498  18.501  41.756   0.254
 7184W        W79499  43.274   8.219   2.622
 7185W        W79500  38.398  44.747  10.615
 7186W        W79501   1.861  29.218  12.142
 7187W        W79502   2.839   6.845   3.350
 7188W        W79503   8.715  26.150   1.826
 7189W        W79504  32.772  39.569  13.150
 7190W        W79505  17.711  31.492   3.262
 7191W        W79506  32.012  29.631  14.402
 7192W        W79507  39.869  38.342   2.439
 7193W        W79508  21.794  10.206   3.381
 7194W        W79509  24.923   0.270   3.240
 7195W        W79510  23.584  37.368   0.918
 7196W        W79511  36.040   5.686  12.522
 7197W        W79512   1.462  39.583   2.680
 7198W        W79513  35.491   7.118  11.730
 7199W        W79514  42.096  24.929   3.739
 7200W        W79515  24.961  16.165   4.471
 7201W        W79516   4.764  28.230  14.330
 7202W        W79517  36.073   0.489  12.536
 7203W        W79518   0.687  25.941  12.323
 7204W        W79519  44.564   6.872  14.308
 7205W        W79520  27.825  10.692   0.091
 7206W        W79521   8.859  15.162   3.325
 7207W        W79522  11.135   0.642   0.459
 7208W        W79523  17.361   4.839  14.376
 7209W        W79524  33.885   4.484  14.911
 7210W        W79525  25.169  16.787  13.403
 7211W        W79526  25.070  40.841   2.368
 7212W        W79527  23.507  16.728   2.719
 7213W        W79528  27.134  17.520  11.624
 7214W        W79529  34.050  25.181  14.867
 7215W        W79530  29.920   2.259   2.195
 7216W        W79531  20.006  10.121  13.068
 7217W        W79532   5.351   4.840  12.785
 7218W        W79533   6.908   9.662   3.686
 7219W        W79534  34.663  26.689  12.414
 7220W        W79535  35.618   7.727   0.994
 7221W        W79536  37.415  31.658  14.916
 7222W        W79537  42.231   7.656  13.668
 7223W        W79538  28.989  25.626   3.797
 7224W        W79539  31.910   5.893  14.249
 7225W        W79540  28.752  11.645   2.433
 7226W        W79541  18.205  32.490   4.753
 7227W        W79542  33.592   6.267   2.212
 7228W        W79543  13.731  15.762   1.391
 7229W        W79544   9.644  11.611  13.883
 7230W        W79545   9.769  11.793   0.939
 7231W        W79546  28.703  30.141   0.090
 7232W        W79547  22.577  10.114  13.463
 7233W        W79548  23.807  43.917  12.426
 7234W        W79549  42.866  43.489  10.598
 7235W        W79550  25.933  42.490  10.686
 7236W        W79551  16.312  38.314  13.377
 7237W        W79552   2.579  36.347  10.097
 7238W        W79553  30.940  31.189   0.442
 7239W        W79554  36.781  37.398   4.697
 7240W        W79555  19.243  10.868   4.601
 7241W        W79556  25.839  23.014   2.438
 7242W        W79557  28.696  18.347  11.335
 7243W        W79558  32.808   9.225   0.373
 7244W        W79559  22.961  20.816  14.004
 7245W        W79560  38.085  34.836  12.831
 7246W        W79561  35.410   6.675   2.134
 7247W        W79562   5.648  35.179   1.893
 7248W        W79563  35.161  10.583  11.563
 7249W        W79564  39.236  42.375   4.829
 7250W        W79565  16.611  43.344   1.304
 7251W        W79566  14.396  27.402   0.334
 7252W        W79567  40.854   2.392   2.585
 7253W        W79568   9.050   3.833   1.745
 7254W        W79569  11.789  32.520  14.497
 7255W        W79570  20.060  20.033   4.371
 7256W        W79571   3.652  37.231   4.568
 7257W        W79572  27.168  31.177   2.229
 7258W        W79573  34.192   3.650   0.789
 7259W        W79574  28.448   4.462   2.238
 7260W        W79575   5.201  21.467  13.442
 7261W        W79576  23.074  20.751  11.623
 7262W        W79577   8.716   9.319   3.182
 7263W        W79578  21.159  13.239   2.799
 7264W        W79579  21.536   9.320   3.640
 7265W        W79580  22.523  29.732   2.262
 7266W        W79581  42.892   6.666   4.148
 7267W        W79582  20.766  36.427  11.871
 7268W        W79583   2.412  19.699   3.744
 7269W        W79584  34.081  44.626  13.283
 7270W        W79585  20.014  30.337   5.002
 7271W        W79586  30.460  33.943  14.803
 7272W        W79587  22.081   0.724  12.408
 7273W        W79588  23.482  26.130   1.891
 7274W        W79589   0.184  24.496  11.941
 7275W        W79590  38.827   1.098   2.142
 7276W        W79591   9.683  25.321  14.211
 7277W        W79592  28.942  17.572  11.635
 7278W        W79593  32.440  29.173   2.395
 7279W        W79594  18.655  44.421  12.039
 7280W        W79595  26.700  42.400  14.376
 7281W        W79596  19.045  37.347  10.637
 7282W        W79597  28.196  28.474   2.363
 7283W        W79598  13.236  36.353   4.512
 7284W        W79599  22.815  13.733  13.091
 7285W        W79600  18.197  13.050   3.716
 7286W        W79601  28.330  37.444   9.881
 7287W        W79602   5.153  44.443   4.092
 7288W        W79603  10.701  35.372  13.469
 7289W        W79604   5.655  40.789   2.312
 7290W        W79605  31.205  16.572   4.863
 7291W        W79606  41.255   5.160  12.557
 7292W        W79607  16.418   9.370   1.405
 7293W        W79608   0.399  37.631   3.772
 7294W        W79609  29.671  21.771  13.326
 7295W        W79610   0.572  25.007   0.456
 7296W        W79611  19.196  29.496   1.348
 7297W        W79612   9.012  19.709   4.581
 7298W        W79613   8.356   3.527   0.258
 7299W        W79614  26.067  30.609  14.436
 7300W        W79615  26.745  16.805  11.105
 7301W        W79616  38.577  20.136  12.627
 7302W        W79617  44.856  18.839  11.482
 7303W        W79618   4.719  13.147  12.974
 7304W        W79619  29.797  37.078  13.326
 7305W        W79620  39.085   1.960  14.585
 7306W        W79621   8.279  22.328   3.454
 7307W        W79622  41.026  31.991   1.763
 7308W        W79623  33.697  35.819  10.355
 7309W        W79624  15.155  41.822  13.338
 7310W        W79625  17.108  10.812   5.694
 7311W        W79626   9.070   8.581  13.221
 7312W        W79627  28.499  12.559  14.945
 7313W        W79628   5.313  15.122  13.420
 7314W        W79629  23.995  20.808   3.010
 7315W        W79630  29.875  12.346  11.485
 7316W        W79631  28.045   6.189  14.443
 7317W        W79632  42.553  11.243   2.908
 7318W        W79633   6.873  14.504  12.078
 7319W        W79634  36.104  12.822  14.543
 7320W        W79635  43.152  15.562   2.888
 7321W        W79636  33.406  23.174  12.899
 7322W        W79637   3.257  36.406   1.441
 7323W        W79638  10.592  36.317  13.468
 7324W        W79639  44.118  15.354  14.393
 7325W        W79640  21.173  18.248  14.250
 7326W        W79641  31.072  21.582   2.116
 7327W        W79642  22.817  12.258   1.391
 7328W        W79643  18.388  14.099  11.603
 7329W        W79644  33.070  33.441  13.878
 7330W        W79645   8.908  10.924  12.077
 7331W        W79646  39.972  38.433   1.406
 7332W        W79647  32.191  33.043  10.224
 7333W        W79648  10.089  16.461  14.664
 7334W        W79649  27.971  30.840   2.631
 7335W        W79650  19.095  18.026   3.577
 7336W        W79651  13.787  35.401  12.076
 7337W        W79652  10.375  14.150   2.783
 7338W        W79653  21.679  14.637  14.396
 7339W        W79654  10.430  42.368  10.665
 7340W        W79655  11.571  17.584   0.374
 7341W        W79656  22.818  17.252   0.983
 7342W        W79657  37.138  32.181   2.583
 7343W        W79658  42.534  26.975  11.962
 7344W        W79659   9.308  37.474  10.255
 7345W        W79660  40.864  17.825  13.608
 7346W        W79661  37.003  11.491  11.940
 7347W        W79662  15.377  34.821   9.910
 7348W        W79663  18.528  30.851   5.524
 7349W        W79664  44.915  15.490   1.188
 7350W        W79665   1.258  12.129   5.423
 7351W        W79666  26.112  20.598  10.676
 7352W        W79667  26.696  13.601   3.736
 7353W        W79668  43.313   3.832  12.842
 7354W        W79669  40.731   0.984   1.716
 7355W        W79670  23.492   2.865   1.950
 7356W        W79671  36.676  41.816   3.798
 7357W        W79672  33.667  40.412  13.195
 7358W        W79673  37.446  31.355   2.775
 7359W        W79674  15.899  27.355  11.573
 7360W        W79675  22.735  16.198  13.097
 7361W        W79676   8.792  26.053  14.494
 7362W        W79677  25.747  28.555  11.388
 7363W        W79678  30.557   8.390  14.384
 7364W        W79679  36.564  33.175   0.321
 7365W        W79680   5.484   4.325   3.067
 7366W        W79681  13.350  12.799  11.727
 7367W        W79682   7.341  24.247  12.974
 7368W        W79683  30.735  35.612   1.782
 7369W        W79684  10.679  15.084  14.052
 7370W        W79685  38.972  17.294  13.017
 7371W        W79686   5.974  30.945   2.798
 7372W        W79687  28.903  44.945  12.563
 7373W        W79688  24.581  23.188   3.089
 7374W        W79689  22.225  23.590  14.260
 7375W        W79690   5.274  16.595  12.049
 7376W        W79691  15.074  15.215  11.377
 7377W        W79692   7.743  33.385   0.821
 7378W        W79693  40.086   3.448   3.631
 7379W        W79694  12.318  28.273   1.555
 7380W        W79695   1.283   1.031   4.066
 7381W        W79696  31.518  19.781  12.538
 7382W        W79697  43.228  41.210   0.970
 7383W        W79698  10.217  13.834  11.138
 7384W        W79699  10.452   3.271  14.305
 7385W        W79700   7.642  43.317   4.765
 7386W        W79701  39.047  33.016   3.195
 7387W        W79702  43.066   3.375  12.850
 7388W        W79703   4.072   5.663  11.086
 7389W        W79704  19.756  19.782  13.999
 7390W        W79705  26.038   9.266   2.371
 7391W        W79706  31.066  17.536  12.591
 7392W        W79707   9.800  30.019   0.814
 7393W        W79708  25.994  36.519   2.378
 7394W        W79709  43.556  34.152   2.813
 7395W        W79710   2.774  42.513   2.883
 7396W        W79711   9.373   1.397   0.064
 7397W        W79712   0.579  26.467  13.616
 7398W        W79713  43.577  39.861   3.133
 7399W        W79714   6.853   0.425  14.229
 7400W        W79715   0.268  43.748  12.044
 7401W        W79716  23.273  22.978   3.305
 7402W        W79717  14.336  24.578   0.315
 7403W        W79718  39.051  32.488   4.082
 7404W        W79719  27.911  42.338  13.061
 7405W        W79720  21.839  19.672   3.557
 7406W        W79721  25.968  17.845  14.279
 7407W        W79722  25.597  18.271   1.368
 7408W        W79723  26.964  19.740  13.833
 7409W        W79724   5.974  41.958   1.446
 7410W        W79725   6.174  31.166   3.244
 7411W        W79726  43.984  35.504  13.504
 7412W        W79727   4.146  29.040   0.237
 7413W        W79728  15.673   7.621  10.956
 7414W        W79729  18.673  32.080   3.902
 7415W        W79730   6.223   3.423   2.777
 7416W        W79731  14.671  24.091   3.993
 7417W        W79732   3.346  30.280  11.193
 7418W        W79733  20.092  22.044  14.485
 7419W        W79734  20.828  25.768  11.039
 7420W        W79735  34.420   7.913   1.275
 7421W        W79736  32.120  38.739   2.141
 7422W        W79737  21.148   7.505   3.643
 7423W        W79738  31.822  14.728  11.130
 7424W        W79739  41.263   9.204   3.906
 7425W        W79740  32.194   9.105  13.778
 7426W        W79741   1.868  24.021  10.738
 7427W        W79742   0.454  34.339  13.405
 7428W        W79743  24.144   5.386  12.471
 7429W        W79744   9.005  20.234  12.090
 7430W        W79745  28.909  10.413   1.325
 7431W        W79746  12.904  39.990   0.147
 7432W        W79747  42.771  14.738   2.812
 7433W        W79748  33.903  40.322   4.030
 7434W        W79749   8.980   0.508   0.449
 7435W        W79750  13.405  32.952   1.336
 7436W        W79751  16.251  29.448  11.007
 7437W        W79752  30.477  15.755   3.258
 7438W        W79753  35.904  25.629  13.588
 7439W        W79754  44.742  14.657   1.510
 7440W        W79755  36.840  20.385  14.568
 7441W        W79756  41.050  26.643  12.990
 7442W        W79757  18.591  36.595   3.761
 7443W        W79758   8.352   9.639  14.440
 7444W        W79759  19.605  32.820  11.589
 7445W        W79760   5.727  27.771   1.180
 7446W        W79761   7.222  38.050   4.601
 7447W        W79762  27.824   7.280  11.066
 7448W        W79763  13.195  13.519  14.470
 7449W        W79764  41.493  15.306   1.767
 7450W        W79765   8.699  39.034   3.386
 7451W        W79766  20.129  43.500  13.087
 7452W        W79767  38.847  43.151  13.307
 7453W        W79768  20.067  18.250   0.910
 7454W        W79769  19.120  26.939   4.185
 7455W        W79770  35.638  14.241   4.609
 7456W        W79771  30.986   1.001   4.299
 7457W        W79772  39.571   8.150   3.246
 7458W        W79773  24.829   5.135  13.554
 7459W        W79774  11.489  23.849   2.832
 7460W        W79775  38.951  22.669   4.558
 7461W        W79776   6.690  36.617   3.301
 7462W        W79777   2.376  20.547  14.793
 7463W        W79778   7.329  40.684   4.138
 7464W        W79779  13.645  17.880  14.888
 7465W        W79780  41.783   6.717  13.596
 7466W        W79781  15.593   5.254  14.409
 7467W        W79782  30.417  24.356   4.680
 7468W        W79783  40.772  40.901   0.243
 7469W        W79784  38.395  40.021  12.493
 7470W        W79785  42.790  32.533  14.053
 7471W        W79786  11.288  29.101  10.870
 7472W        W79787  20.201  22.809  11.419
 7473W        W79788  30.570  16.347  11.308
 7474W        W79789  32.836  13.896  14.497
 7475W        W79790  12.696  28.183  10.782
 7476W        W79791   8.446  15.221   2.355
 7477W        W79792   8.816   3.199  11.119
 7478W        W79793  21.705  30.668  14.282
 7479W        W79794  31.078   8.758   4.213
 7480W        W79795   7.307  11.947  11.029
 7481W        W79796  37.039   3.985  11.627
 7482W        W79797  15.182   3.720  12.399
 7483W        W79798  37.045  37.410  13.383
 7484W        W79799  22.185   7.426   0.361
 7485W        W79800  37.400   8.454   5.115
 7486W        W79801  35.527  27.304  12.913
 7487W        W79802  25.489  32.535  10.295
 7488W        W79803  14.765   8.658  13.317
 7489W        W79804   9.083   8.387   0.017
 7490W        W79805   7.900  19.526  13.390
 7491W        W79806  23.593  18.626  12.637
 7492W        W79807  26.597  31.709   0.275
 7493W        W79808  37.119  31.209  14.848
 7494W        W79809  42.797  16.648   0.619
 7495W        W79810  16.804  21.215   1.229
 7496W        W79811   9.406  29.908  14.837
 7497W        W79812  43.303  41.199   0.106
 7498W        W79813  29.643  26.702   2.774
 7499W        W79814   2.432  21.069  14.053
 7500W        W79815   3.368  18.173  13.371
 7501W        W79816   5.000  39.327  12.265
 7502W        W79817  21.844   3.446  12.991
 7503W        W79818   2.339   2.014  11.117
 7504W        W79819  10.635   6.802   2.767
 7505W        W79820  17.400  26.403   4.136
 7506W        W79821  35.635  43.992  12.386
 7507W        W79822  32.677  21.264   1.651
 7508W        W79823  29.431  26.945   4.533
 7509W        W79824   5.466  10.670  12.881
 7510W        W79825  28.326  16.778   2.709
 7511W        W79826  14.016  44.017   2.254
 7512W        W79827   4.375  41.926  11.542
 7513W        W79828   7.202  28.914  11.644
 7514W        W79829  21.267  36.804   4.524
 7515W        W79830  21.605  39.254   2.597
 7516W        W79831  29.806  28.109   2.034
 7517W        W79832  33.931   2.492   4.323
 7518W        W79833  38.478  43.090  12.319
 7519W        W79834  11.336  33.428   3.846
 7520W        W79835  22.528  44.949  12.484
 7521W        W79836   4.628  42.922  11.719
 7522W        W79837   6.743  29.461   4.895
 7523W        W79838  35.472  34.393  10.699
 7524W        W79839  20.597  15.819  13.804
 7525W        W79840  23.998  28.337  14.092
 7526W        W79841  26.045  37.881   0.165
 7527W        W79842   3.183   1.245   4.208
 7528W        W79843   9.187  41.560   2.157
 7529W        W79844  38.632  26.592  10.306
 7530W        W79845  39.343  15.491   2.021
 7531W        W79846  22.705  24.934   1.777
 7532W        W79847   1.406  40.938  14.039
 7533W        W79848  12.155  44.572  10.293
 7534W        W79849  17.479  24.325  13.086
 7535W        W79850  31.734   7.707   4.189
 7536W        W79851   4.962  33.136  13.217
 7537W        W79852  38.968   0.424   4.887
 7538W        W79853  13.640   8.872   2.361
 7539W        W79854  26.880   8.489  14.336
 7540W        W79855  21.087   9.073  10.316
 7541W        W79856  31.705  40.828   4.199
 7542W        W79857  26.103  22.589   4.421
 7543W        W79858  20.813  17.242  14.402
 7544W        W79859  41.320  44.478  12.846
 7545W        W79860   7.702   5.374  10.760
 7546W        W79861  15.069  41.775   3.720
 7547W        W79862  33.233  31.328  13.949
 7548W        W79863  25.617  16.840   3.275
 7549W        W79864  25.557  16.096   4.815
 7550W        W79865   1.924  18.896  12.477
 7551W        W79866   1.067   0.828   2.837
 7552W        W79867  10.720   0.038   4.913
 7553W        W79868  25.621  12.502   2.801
 7554W        W79869  17.188  16.311  13.400
 7555W        W79870  14.393   4.922   3.472
 7556W        W79871  10.226  18.837  12.105
 7557W        W79872  19.499  11.838   4.552
 7558W        W79873  39.046  20.098   3.443
 7559W        W79874  40.099  23.541   2.519
 7560W        W79875  19.727  13.300   4.969
 7561W        W79876   9.280   3.694   4.899
 7562W        W79877  15.341  24.171   4.043
 7563W        W79878  24.678   6.922   1.807
 7564W        W79879  41.710  20.987  13.899
 7565W        W79880  41.617  21.767  10.741
 7566W        W79881  27.697  33.893  11.204
 7567W        W79882  37.285   5.614   4.406
 7568W        W79883  40.166  29.368  12.015
 7569W        W79884  44.694   5.614   0.702
 7570W        W79885  23.220  17.591   0.809
 7571W        W79886  11.731  23.488  14.033
 7572W        W79887  39.173   6.750  11.974
 7573W        W79888  41.073   1.988   2.355
 7574W        W79889  18.553  19.694  12.915
 7575W        W79890  32.420   6.684  13.839
 7576W        W79891  18.595  17.486  10.759
 7577W        W79892  33.042  16.781   0.465
 7578W        W79893  43.483  37.374   4.098
 7579W        W79894  38.825   8.839   4.553
 7580W        W79895  13.499  29.521   4.302
 7581W        W79896  21.174  35.026  13.015
 7582W        W79897  40.898  36.287   3.134
 7583W        W79898  28.128  25.110   0.734
 7584W        W79899  31.449  32.590   4.132
 7585W        W79900  33.549  26.690   4.468
 7586W        W79901   6.241   4.890   0.460
 7587W        W79902  31.797   5.329   4.190
 7588W        W79903  14.104  25.695  11.867
 7589W        W79904   5.266  15.657   4.627
 7590W        W79905   9.725  12.677  10.981
 7591W        W79906   3.257  39.838   1.844
 7592W        W79907  21.737  27.210  13.766
 7593W        W79908   7.940  15.748   2.370
 7594W        W79909   9.324  39.418   0.016
 7595W        W79910  19.954   6.818  14.414
 7596W        W79911   3.044  12.301  12.029
 7597W        W79912  21.993  24.002  11.565
 7598W        W79913  44.367   7.878  11.625
 7599W        W79914  42.372  21.482  13.502
 7600W        W79915  36.938   8.348  11.128
 7601W        W79916  33.972  44.529   0.388
 7602W        W79917  25.545  31.579   4.526
 7603W        W79918  30.993   7.939   1.636
 7604W        W79919   0.651  42.818  14.346
 7605W        W79920  20.859  25.416   3.535
 7606W        W79921  20.034  16.231  12.906
 7607W        W79922  21.315  40.871   4.208
 7608W        W79923  25.531   8.184  12.973
 7609W        W79924   8.665  31.462   3.726
 7610W        W79925   7.609  40.523  14.507
 7611W        W79926   5.822  16.572   3.235
 7612W        W79927   3.084  27.769   3.499
 7613W        W79928  12.131  18.033  13.503
 7614W        W79929   4.952   3.482  10.731
 7615W        W79930  20.167  38.081  12.133
 7616W        W79931  17.216  15.272   2.937
 7617W        W79932   2.813  42.353  13.945
 7618W        W79933   4.153  10.408  12.416
 7619W        W79934  24.111   4.626  10.684
 7620W        W79935  12.533  42.787   1.377
 7621W        W79936  36.452  32.794  10.618
 7622W        W79937   2.451  28.005  11.053
 7623W        W79938  17.652   9.722   4.588
 7624W        W79939  16.714  13.784  13.595
 7625W        W79940   5.305  21.986  12.374
 7626W        W79941   8.909  24.762  13.009
 7627W        W79942  44.324  32.537   2.037
 7628W        W79943  25.909  28.466  10.891
 7629W        W79944  42.399   0.719  14.037
 7630W        W79945   9.525  35.023  14.186
 7631W        W79946   9.230  27.101  12.314
 7632W        W79947   5.704   3.109  12.966
 7633W        W79948  11.257  37.810  12.847
 7634W        W79949  41.344  33.028   2.267
 7635W        W79950   7.224  19.111  13.970
 7636W        W79951  16.171  39.872   2.235
 7637W        W79952   7.701  13.860   4.389
 7638W        W79953   0.568   8.199   3.720
 7639W        W79954   2.060  14.737  12.946
 7640W        W79955  44.000  19.701   3.342
 7641W        W79956  39.232  35.954   0.002
 7642W        W79957  36.135  41.495  14.938
 7643W        W79958  43.048   8.820  12.918
 7644W        W79959  20.998  13.942   4.379
 7645W        W79960   8.851  38.918   0.391
 7646W        W79961   4.406  10.180   4.407
 7647W        W79962  20.490  25.426  12.867
 7648W        W79963  37.496  35.050  12.185
 7649W        W79964  20.329  19.715   3.433
 7650W        W79965  36.551  20.142  12.713
 7651W        W79966  43.764  31.751  13.438
 7652W        W79967  20.031  17.764   3.910
 7653W        W79968  28.843   7.220  11.042
 7654W        W79969   8.965  37.265  11.330
 7655W        W79970  29.480  28.242  14.541
 7656W        W79971  23.125  16.317   2.242
 7657W        W79972  44.838  40.379   4.287
 7658W        W79973  33.391  35.444  12.530
 7659W        W79974   2.977   5.444   0.847
 7660W        W79975  10.310  41.578   1.373
 7661W        W79976   7.843  17.359  11.641
 7662W        W79977  11.610  29.575   3.150
 7663W        W79978  25.302   4.732   0.941
 7664W        W79979  26.504   9.642   2.607
 7665W        W79980  14.354  42.850   1.289
 7666W        W79981   8.316   8.205  10.662
 7667W        W79982  21.785  12.286   3.292
 7668W        W79983  34.223  13.309   1.343
 7669W        W79984   5.345  10.037  10.723
 7670W        W79985   8.304   5.698   4.654
 7671W        W79986  24.017  24.815   4.411
 7672W        W79987  20.671  15.360  14.008
 7673W        W79988  19.970  11.569  11.106
 7674W        W79989  14.612  22.042  12.414
 7675W        W79990  26.999  40.672  12.911
 7676W        W79991  28.599  41.879  10.141
 7677W        W79992  19.566  31.167   4.653
 7678W        W79993  16.260  22.698  12.896
 7679W        W79994  26.047  20.547   2.947
 7680W        W79995  26.615  20.632  10.677
 7681W        W79996  10.284  29.408   0.418
 7682W        W79997  41.787  26.140  13.693
 7683W        W79998  16.470   9.693   4.090
 7684W        W79999   5.987  20.088   4.440
 7685W        W80000   2.417  11.346   1.349
 7686W        W80001  21.689   3.330   0.390
 7687W        W80002  26.576  26.505   5.008
 7688W        W80003  40.438  39.323   4.627
 7689W        W80004  14.353  39.984   0.095
 7690W        W80005  23.778   4.464  14.378
 7691W        W80006   5.546   9.750   4.779
 7692W        W80007  20.434  39.131   3.817
 7693W        W80008  42.573  16.732   3.275
 7694W        W80009   5.944  16.268  14.530
 7695W        W80010  15.553  34.102   1.388
 7696W        W80011  17.468  13.103  11.651
 7697W        W80012  22.167   3.177   1.745
 7698W        W80013  38.451  34.349   3.137
 7699W        W80014  29.362   0.731   1.513
 7700W        W80015  28.140  25.542  12.531
 7701W        W80016  43.570  25.719   0.499
 7702W        W80017   6.223  13.699   2.978
 7703W        W80018  21.091  28.734   1.308
 7704W        W80019  39.781  20.690   4.239
 7705W        W80020  13.454  39.397   1.984
 7706W        W80021   4.795  35.108   4.330
 7707W        W80022  14.531   1.325   0.917
 7708W        W80023  20.637  32.491  11.937
 7709W        W80024  42.736  37.940   4.310
 7710W        W80025  16.011  30.137   4.423
 7711W        W80026   8.446  11.862   3.599
 7712W        W80027  13.074   8.393  10.457
 7713W        W80028  42.389  26.426   0.180
 7714W        W80029  28.559  14.021   1.681
 7715W        W80030  43.225  44.023   3.698
 7716W        W80031   9.283  37.874   3.195
 7717W        W80032   1.469  33.793   5.061
 7718W        W80033  25.053  41.375  14.462
 7719W        W80034   4.449  26.624  13.490
 7720W        W80035   4.137  19.838  14.506
 7721W        W80036  24.643  21.713  14.041
 7722W        W80037  28.196  43.469   2.205
 7723W        W80038   9.678  33.137  10.761
 7724W        W80039  26.245  27.928  13.481
 7725W        W80040  26.239  31.686   2.667
 7726W        W80041  23.115  19.588   4.162
 7727W        W80042   1.941  13.298  10.887
 7728W        W80043  42.910  25.495   4.517
 7729W        W80044  39.262  18.316  10.747
 7730W        W80045  31.501  10.903   4.108
 7731W        W80046   0.411   3.070  14.539
 7732W        W80047   0.294  30.338  13.422
 7733W        W80048   7.867   9.774   1.336
 7734W        W80049   9.900   8.290  13.826
 7735W        W80050   4.862   5.696   2.908
 7736W        W80051  41.893   2.019   1.275
 7737W        W80052  38.410   3.145  10.976
 7738W        W80053  25.298  14.692  14.450
 7739W        W80054  29.828  20.151  13.931
 7740W        W80055  21.108  10.058  14.037
 7741W        W80056  11.223  26.447   2.554
 7742W        W80057   3.876  36.054  11.956
 7743W        W80058  16.445  38.866  14.718
 7744W        W80059  21.106  27.405   3.295
 7745W        W80060   8.148  33.379  11.111
 7746W        W80061  44.090  44.677  11.443
 7747W        W80062  26.389  43.230  14.461
 7748W        W80063  29.679  21.559  12.442
 7749W        W80064   3.262  23.578  12.899
 7750W        W80065   3.845  26.390   2.424
 7751W        W80066  17.663  27.369   0.388
 7752W        W80067  28.466  22.798   1.977
 7753W        W80068  23.228  14.895  13.879
 7754W        W80069  36.203   5.080   1.944
 7755W        W80070  28.666   2.748  10.522
 7756W        W80071  43.771  22.636  12.758
 7757W        W80072  27.660  31.166   4.176
 7758W        W80073   3.484  26.542  13.603
 7759W        W80074  33.566  21.553  13.766
 7760W        W80075  17.069  21.916  10.602
 7761W        W80076   6.389  29.337   1.854
 7762W        W80077  23.454  31.590  14.522
 7763W        W80078  28.413  39.328   1.722
 7764W        W80079  10.124  18.992   1.299
 7765W        W80080  16.756  26.369   2.269
 7766W        W80081  32.139   5.997   4.634
 7767W        W80082  28.687  33.730   0.688
 7768W        W80083  16.865   4.264  14.798
 7769W        W80084  12.846  42.198   4.898
 7770W        W80085  21.445  39.914  13.420
 7771W        W80086  26.114  33.445   4.573
 7772W        W80087   6.028  26.206  14.315
 7773W        W80088  24.126  35.613   0.889
 7774W        W80089   1.217  42.254   2.224
 7775W        W80090   7.428   9.644   4.908
 7776W        W80091  32.944  41.624   3.717
 7777W        W80092  40.947  29.984  11.448
 7778W        W80093  14.809   6.321  10.342
 7779W        W80094  14.554   8.199  10.702
 7780W        W80095  14.631  27.647   1.920
 7781W        W80096  17.631  21.417   0.648
 7782W        W80097  37.801  12.273   0.321
 7783W        W80098  38.329  25.289   3.622
 7784W        W80099   7.231  12.142   3.165
 7785W        W80100  33.973   6.358  11.108
 7786W        W80101   4.229  13.825  12.496
 7787W        W80102  19.544  17.203  12.997
 7788W        W80103  36.905   1.150   0.064
 7789W        W80104   6.642  15.755  12.500
 7790W        W80105  32.434   8.326   4.506
 7791W        W80106   2.804  35.616   2.368
 7792W        W80107   1.313   0.132   0.605
 7793W        W80108   1.429   4.625   1.607
 7794W        W80109   1.743  28.692  12.014
 7795W        W80110  23.507  12.101   3.683
 7796W        W80111  23.760  36.348   3.745
 7797W        W80112   1.299  34.056   3.252
 7798W        W80113  11.775  23.673  11.547
 7799W        W80114  42.300   2.927   3.469
 7800W        W80115  31.005  14.750  12.525
 7801W        W80116  13.094  13.629   2.701
 7802W        W80117  18.824  42.958   4.619
 7803W        W80118  32.521   1.828   2.242
 7804W        W80119  43.808   1.328  12.334
 7805W        W80120  10.899  36.531  13.051
 7806W        W80121  39.336   7.403  14.531
 7807W        W80122  34.387  27.576  13.896
 7808W        W80123   6.432  16.295   4.134
 7809W        W80124  11.279  29.081   4.205
 7810W        W80125   3.351  39.912  10.500
 7811W        W80126  37.262  35.588  13.769
 7812W        W80127  21.745   0.905   1.911
 7813W        W80128  21.064  32.503  10.272
 7814W        W80129  31.961  16.156   3.998
 7815W        W80130  41.860  15.821  11.683
 7816W        W80131  16.111  10.202   0.038
 7817W        W80132  15.088  38.386   3.970
 7818W        W80133  42.206   0.876  11.362
 7819W        W80134   5.211  28.618  14.749
 7820W        W80135  23.192  25.156   4.469
 7821W        W80136  44.485  21.773   1.843
 7822W        W80137  13.706  30.906  13.601
 7823W        W80138  37.594   8.909   2.817
 7824W        W80139  31.449  39.574  12.543
 7825W        W80140   8.255  19.124   4.791
 7826W        W80141   3.265   7.858  13.826
 7827W        W80142   7.805  42.047   2.380
 7828W        W80143  35.188  29.530   4.584
 7829W        W80144  38.294  15.803  10.630
 7830W        W80145  22.925  12.836   3.694
 7831W        W80146  28.873  28.189  11.668
 7832W        W80147   9.404  14.161  11.192
 7833W        W80148  21.154   1.944  10.677
 7834W        W80149  27.274  38.901  11.551
 7835W        W80150  31.611  34.610   2.314
 7836W        W80151  31.948  16.189   3.493
 7837W        W80152  32.469  32.039  14.837
 7838W        W80153   8.274   3.006   0.022
 7839W        W80154  32.406  10.422  14.753
 7840W        W80155   5.384   6.150   3.179
 7841W        W80156   3.889  15.414   4.863
 7842W        W80157  43.573  19.986   4.874
 7843W        W80158  17.688  40.457   2.137
 7844W        W80159  20.620  18.607  13.454
 7845W        W80160  17.502  42.405   1.871
 7846W        W80161   2.708  14.642   2.902
 7847W        W80162  39.938  37.895  13.602
 7848W        W80163   8.771  10.239   2.649
 7849W        W80164  44.380  31.678   2.985
 7850W        W80165  30.440  35.051  13.046
 7851W        W80166   0.261  12.829  11.494
 7852W        W80167  33.422  32.911  14.357
 7853W        W80168  25.152  20.033   2.240
 7854W        W80169  25.199  39.468   2.906
 7855W        W80170  42.095   7.902   5.026
 7856W        W80171   0.403  15.189  11.472
 7857W        W80172  11.747  39.957  14.860
 7858W        W80173  43.240  14.818   1.491
 7859W        W80174  12.773  23.168   4.368
 7860W        W80175  13.091  44.312   1.214
 7861W        W80176  29.668   9.237   2.806
 7862W        W80177  15.696  38.439  11.667
 7863W        W80178  24.085  40.096  10.715
 7864W        W80179   2.096  12.381   0.750
 7865W        W80180  13.312  18.242   1.879
 7866W        W80181  32.134  34.264  13.356
 7867W        W80182  41.843  18.333  13.833
 7868W        W80183  32.366  26.743  11.550
 7869W        W80184   4.465  38.310   1.750
 7870W        W80185  39.743  18.216  11.449
 7871W        W80186  31.504  31.022   3.911
 7872W        W80187  14.317  21.807  14.895
 7873W        W80188   4.233  18.651  14.092
 7874W        W80189  11.514  22.267  14.545
 7875W        W80190  33.982   7.841   3.170
 7876W        W80191  22.558  12.908   1.638
 7877W        W80192  36.918  41.575   3.337
 7878W        W80193  33.135  26.180   1.899
 7879W        W80194  19.139   9.427   3.943
 7880W        W80195  13.754   8.141  13.530
 7881W        W80196   3.451   3.275  11.811
 7882W        W80197  36.350  24.459  13.561
 7883W        W80198  15.437  32.605   2.329
 7884W        W80199  29.081  12.067   3.240
 7885W        W80200   4.834   8.220  11.989
 7886W        W80201  15.232  10.594   4.527
 7887W        W80202  28.554   0.064   3.784
 7888W        W80203  44.044  17.701   2.859
 7889W        W80204  44.891  17.042  10.540
 7890W        W80205  36.516  32.628  11.106
 7891W        W80206  27.614  22.947  14.780
 7892W        W80207  36.303  41.895  13.485
 7893W        W80208  22.116  38.933   4.782
 7894W        W80209  15.996  15.334  11.423
 7895W        W80210  22.275  34.550   3.442
 7896W        W80211  25.946  17.670   2.476
 7897W        W80212  16.837  17.543   2.732
 7898W        W80213  14.211  38.805  14.759
 7899W        W80214  43.832  13.809  12.331
 7900W        W80215  39.323  29.657  14.394
 7901W        W80216  26.500   3.270   0.966
 7902W        W80217  36.611   2.660  10.667
 7903W        W80218  36.536  31.462  11.394
 7904W        W80219  38.899  27.235  10.731
 7905W        W80220  17.203   7.119   9.953
 7906W        W80221  26.340  34.598   1.772
 7907W        W80222  22.085  23.680   0.646
 7908W        W80223  23.700   4.737   0.776
 7909W        W80224  32.912  39.630   1.385
 7910W        W80225  31.385  11.075  13.247
 7911W        W80226  22.198  21.542   9.701
 7912W        W80227  20.310  31.906   0.731
 7913W        W80228  22.676  40.457   0.764
 7914W        W80229  38.629  26.669   3.294
 7915W        W80230  41.870   5.689   2.184
 7916W        W80231  43.284   2.169   1.435
 7917W        W80232  21.545  13.108   1.154
 7918W        W80233  14.895  19.098   1.892
 7919W        W80234   1.201  30.425   4.238
 7920W        W80235  18.708   7.989  11.520
 7921W        W80236  18.449  33.757   1.276
 7922W        W80237  15.549   4.910   3.168
 7923W        W80238   6.018  22.444   1.696
 7924W        W80239  10.017   0.202  11.807
 7925W        W80240  22.079   2.197   2.723
 7926W        W80241   0.690  34.887  11.004
 7927W        W80242  20.514  25.997  10.594
 7928W        W80243  19.512  37.637  11.174
 7929W        W80244  20.271  15.400  14.906
 7930W        W80245  13.566  39.551   4.725
 7931W        W80246  12.803  22.751  11.035
 7932W        W80247  22.724   3.847  13.455
 7933W        W80248  39.054   0.062  13.078
 7934W        W80249  12.598  40.943   1.767
 7935W        W80250  25.664  36.003   0.855
 7936W        W80251  34.271  44.415  10.115
 7937W        W80252   2.293  26.902   1.780
 7938W        W80253  44.113  20.690  14.356
 7939W        W80254  42.976  14.314   4.076
 7940W        W80255  30.143  26.515  12.135
 7941W        W80256   6.992  41.954   2.870
 7942W        W80257  19.793  18.646  12.013
 7943W        W80258   2.372  21.063   1.461
 7944W        W80259  18.424  32.102   1.881
 7945W        W80260  10.664  37.510  13.045
 7946W        W80261  26.637  29.474  12.637
 7947W        W80262   6.365  16.042   5.017
 7948W        W80263  39.847  16.184  14.734
 7949W        W80264  35.099  13.286   1.367
 7950W        W80265  24.699  31.380  11.081
 7951W        W80266  36.255  27.150   4.458
 7952W        W80267  42.359  34.386  14.996
 7953W        W80268   6.562  21.127  12.529
 7954W        W80269  32.942  35.441   4.436
 7955W        W80270  26.333  10.357   5.371
 7956W        W80271  30.147   2.151   2.920
 7957W        W80272  25.539  19.235   1.339
 7958W        W80273  16.054  17.590   3.698
 7959W        W80274   9.817   1.786  11.901
 7960W        W80275  11.606  41.364  14.548
 7961W        W80276  41.898  22.621  10.459
 7962W        W80277  38.470  15.340   1.781
 7963W        W80278   2.258  17.353  14.859
 7964W        W80279   6.748  43.483   2.402
 7965W        W80280  19.152  18.088   4.104
 7966W        W80281  27.140  28.106   4.482
 7967W        W80282  42.050  18.229  14.960
 7968W        W80283  25.484  39.904   2.819
 7969W        W80284   3.413  36.872   2.777
 7970W        W80285  13.732   0.229  11.912
 7971W        W80286   1.967   7.873   3.640
 7972W        W80287  43.453  41.988  12.512
 7973W        W80288  32.171  21.077  10.827
 7974W        W80289  26.036  12.824  14.208
 7975W        W80290  36.882  18.235   4.505
 7976W        W80291  40.942   5.695  12.924
 7977W        W80292  19.813   1.509  11.945
 7978W        W80293  25.741  30.589  14.035
 7979W        W80294  22.552  42.879  14.246
 7980W        W80295  27.596  41.289  14.823
 7981W        W80296  39.545  24.533   1.841
 7982W        W80297  38.082  15.031   1.634
 7983W        W80298  16.716   9.235  11.824
 7984W        W80299  15.631  43.831  14.409
 7985W        W80300  38.538  17.958   0.267
 7986W        W80301   3.702  33.947   3.266
 7987W        W80302  20.969  12.650  10.739
 7988W        W80303  29.621   1.347   3.613
 7989W        W80304  37.969  26.761   2.808
 7990W        W80305  18.283  20.548  12.960
 7991W        W80306   4.366  32.101  14.136
 7992W        W80307  18.626  23.150   2.646
 7993W        W80308  32.468  40.512   1.026
 7994W        W80309  10.205  12.876  13.546
 7995W        W80310  14.143  41.286   4.950
 7996W        W80311  14.797  36.917   2.690
 7997W        W80312  32.597  39.490  13.642
 7998W        W80313  26.557  10.091  11.947
 7999W        W80314  38.903   3.981   2.343
 8000W        W80315  23.749  29.976   0.845
 8001W        W80316  29.339  13.286  12.566
 8002W        W80317  42.478  27.446  10.804
 8003W        W80318  40.057  13.862   0.724
 8004W        W80319  17.641  23.079   4.059
 8005W        W80320  21.519  22.793  11.689
 8006W        W80321  42.631   6.084  11.597
 8007W        W80322  42.736  11.678   2.674
 8008W        W80323  24.777  40.777  14.182
 8009W        W80324  26.189  37.658   3.874
 8010W        W80325  44.918  44.476  12.452
 8011W        W80326  16.903  43.466  12.945
 8012W        W80327  11.209  26.436  14.936
 8013W        W80328   5.263  31.420  11.115
 8014W        W80329  23.195  15.325   1.975
 8015W        W80330   3.993  30.569   3.638
 8016W        W80331  33.416  31.059  13.075
 8017W        W80332   6.690   9.078   4.651
 8018W        W80333  43.388  32.834  14.097
 8019W        W80334   7.719  19.985   1.985
 8020W        W80335  23.200  23.245  10.020
 8021W        W80336  30.474  28.166  12.565
 8022W        W80337  34.085  23.264  10.727
 8023W        W80338  44.472   5.252   2.683
 8024W        W80339  21.295  41.874   1.775
 8025W        W80340  43.800   5.863   4.195
 8026W        W80341   5.435  14.005  13.924
 8027W        W80342  43.037  36.488   1.869
 8028W        W80343   2.805   6.185  14.860
 8029W        W80344   5.432  11.966   0.801
 8030W        W80345  27.701   2.255   0.386
 8031W        W80346   2.281  14.658   0.286
 8032W        W80347  33.158   0.079  13.546
 8033W        W80348  20.601  21.638  12.990
 8034W        W80349   6.683  32.958   3.603
 8035W        W80350  37.942   9.197  12.309
 8036W        W80351   3.205  24.090   3.356
 8037W        W80352  15.543  36.929  13.858
 8038W        W80353  39.369  19.880  11.497
 8039W        W80354  19.500  14.951   0.601
 8040W        W80355  44.266  23.587  13.049
 8041W        W80356  11.124  11.344   1.438
 8042W        W80357  42.439  10.361   2.634
 8043W        W80358  10.138   2.354   2.242
 8044W        W80359  43.490  20.418  12.162
 8045W        W80360  41.576  41.797   3.306
 8046W        W80361  10.897  10.368  11.339
 8047W        W80362  18.062  33.422   1.363
 8048W        W80363  29.995   9.433  11.635
 8049W        W80364   6.447   8.920  14.985
 8050W        W80365  42.272  18.642  13.853
 8051W        W80366  33.722  40.896  13.338
 8052W        W80367  12.773  40.374   4.439
 8053W        W80368  26.076  42.155  11.951
 8054W        W80369  17.287  23.968   3.717
 8055W        W80370   1.282  35.916  11.962
 8056W        W80371  35.627   6.216  12.872
 8057W        W80372  24.133  25.788   1.320
 8058W        W80373  28.812   6.005   9.823
 8059W        W80374   4.475  24.146   2.819
 8060W        W80375  28.666  38.283   3.662
 8061W        W80376  33.504  13.711  13.306
 8062W        W80377   4.405  11.352  14.238
 8063W        W80378  20.210   4.265  12.156
 8064W        W80379  39.047  25.045   1.394
 8065W        W80380  11.247  40.075   1.091
 8066W        W80381   8.223  38.303   3.417
 8067W        W80382  25.222  41.933  14.860
 8068W        W80383  36.386  35.238  14.090
 8069W        W80384  22.775  16.268   1.827
 8070W        W80385  20.464  31.084  13.988
 8071W        W80386  14.615  27.989  14.483
 8072W        W80387  21.605  34.926  11.612
 8073W        W80388  14.159  12.699   3.900
 8074W        W80389  24.162  16.283  13.017
 8075W        W80390  30.715  27.360   0.372
 8076W        W80391   2.488   0.490   1.886
 8077W        W80392  38.545  28.529   2.987
 8078W        W80393  20.522  14.624  12.710
 8079W        W80394  15.068  33.507   2.564
 8080W        W80395  36.147  27.115   1.356
 8081W        W80396  17.938   5.957   2.836
 8082W        W80397  31.380  33.563   3.155
 8083W        W80398  27.072  36.164   5.006
 8084W        W80399  13.712  42.073   4.724
 8085W        W80400  19.948   0.574   1.817
 8086W        W80401  38.905  28.442   3.366
 8087W        W80402  33.312  21.925  12.867
 8088W        W80403  28.067  26.655   3.328
 8089W        W80404  10.677  10.781  10.604
 8090W        W80405   3.827  40.970   1.968
 8091W        W80406  15.699  30.305  14.842
 8092W        W80407  17.733   4.442   3.451
 8093W        W80408  17.195  12.620  12.788
 8094W        W80409  44.455   2.803   4.024
 8095W        W80410   7.075   2.637   1.352
 8096W        W80411   1.392  37.832   3.894
 8097W        W80412  10.182  40.224   3.763
 8098W        W80413   3.299  38.596   0.370
 8099W        W80414  26.324  26.000   4.857
 8100W        W80415  29.461  44.743   3.730
 8101W        W80416   0.854  14.313  12.535
 8102W        W80417  12.864   0.447   3.422
 8103W        W80418  44.018  13.672  11.796
 8104W        W80419   5.552  39.994   4.174
 8105W        W80420   9.771   7.826   4.136
 8106W        W80421  10.599  43.138  13.883
 8107W        W80422  30.825  35.950  12.968
 8108W        W80423  30.509  24.796  14.630
 8109W        W80424  20.364  37.037   2.176
 8110W        W80425  43.285   4.240  11.613
 8111W        W80426  37.365  32.511   4.805
 8112W        W80427   6.259  33.140   4.602
 8113W        W80428  10.955  34.721   1.721
 8114W        W80429  14.820  38.061  14.199
 8115W        W80430  27.660  24.771  12.017
 8116W        W80431  28.093  42.751   1.193
 8117W        W80432  28.504   5.455   5.233
 8118W        W80433   7.246  33.626  14.417
 8119W        W80434  25.938  28.587   3.853
 8120W        W80435  44.348   8.145   0.021
 8121W        W80436   5.295  19.215  11.576
 8122W        W80437   5.941  11.834   0.927
 8123W        W80438  20.355  40.907  11.119
 8124W        W80439  34.839  31.168   2.204
 8125W        W80440  42.545  15.809   4.520
 8126W        W80441  17.613   1.773  11.221
 8127W        W80442  14.933   6.640  12.082
 8128W        W80443  11.429  10.417  12.440
 8129W        W80444  13.186  25.988   2.906
 8130W        W80445  39.784  14.597  10.653
 8131W        W80446  38.587  17.097   2.786
 8132W        W80447  17.889  10.641  14.615
 8133W        W80448   8.386   5.949  12.966
 8134W        W80449  15.584   7.581  12.381
 8135W        W80450   0.950  10.936  11.611
 8136W        W80451  12.100  40.325  14.882
 8137W        W80452  18.468  34.348   0.427
 8138W        W80453  43.782  33.739  14.890
 8139W        W80454   4.259  30.437  11.186
 8140W        W80455  43.361  43.004   0.357
 8141W        W80456  27.020  43.183  13.852
 8142W        W80457  23.487  32.810   2.338
 8143W        W80458   6.885  41.919   2.344
 8144W        W80459  18.659  34.591  11.096
 8145W        W80460  25.108  21.745   0.900
 8146W        W80461  44.292  10.314  12.760
 8147W        W80462  19.746  27.970   3.376
 8148W        W80463   5.238   4.853  13.740
 8149W        W80464  29.177   4.632  12.899
 8150W        W80465  17.673  31.063   2.890
 8151W        W80466   6.857  20.318  11.866
 8152W        W80467  39.591  25.473  13.428
 8153W        W80468  40.505  22.683  14.560
 8154W        W80469  41.799  17.976   4.233
 8155W        W80470   3.264  23.976   1.436
 8156W        W80471  40.939  14.772  13.292
 8157W        W80472  22.708  38.801  11.499
 8158W        W80473   5.940  22.859  13.969
 8159W        W80474  35.607  38.133  11.359
 8160W        W80475  27.501  30.560   3.302
 8161W        W80476  42.585  31.939   1.060
 8162W        W80477  13.726  19.514   0.846
 8163W        W80478  33.494  26.072  12.653
 8164W        W80479  30.530  31.963  11.899
 8165W        W80480  31.518  25.686  11.481
 8166W        W80481  19.004   3.481   0.033
 8167W        W80482  16.114  17.745   0.403
 8168W        W80483  31.081  19.977  13.314
 8169W        W80484  37.029   5.332  10.937
 8170W        W80485  34.845  31.054  11.995
 8171W        W80486  40.275  24.031  12.055
 8172W        W80487  15.570  35.351  10.672
 8173W        W80488  11.099   7.300  12.027
 8174W        W80489  40.178   9.946   2.060
 8175W        W80490  44.739   8.640   0.519
 8176W        W80491  18.700   5.956  12.007
 8177W        W80492  32.115  10.645  13.212
 8178W        W80493  34.934  36.125  11.449
 8179W        W80494  17.164   7.221  14.440
 8180W        W80495  33.078   8.008   0.953
 8181W        W80496  13.779  35.821  12.362
 8182W        W80497  30.572  41.196   0.489
 8183W        W80498  24.510   0.943   4.578
 8184W        W80499  31.686  24.044  14.442
 8185W        W80500  31.921  44.039  10.168
 8186W        W80501  18.168   2.512  12.923
 8187W        W80502  20.976  30.868  13.060
 8188W        W80503  44.441  12.162  14.090
 8189W        W80504   2.484  21.191   4.497
 8190W        W80505  19.017  42.458   3.653
 8191W        W80506  21.481  44.993   2.256
 8192W        W80507   2.668   9.340  11.710
 8193W        W80508  41.839   0.736   2.801
 8194W        W80509  39.437  31.205  13.498
 8195W        W80510   4.644  29.999  12.355
 8196W        W80511  17.059  12.127   4.430
 8197W        W80512  11.941  30.925  12.869
 8198W        W80513   7.132  40.769  11.571
 8199W        W80514   3.723   0.466  11.859
 8200W        W80515  21.743  27.146  12.205
 8201W        W80516   6.325  24.699  12.105
 8202W        W80517  30.321  18.791   4.221
 8203W        W80518   4.456  20.539   4.331
 8204W        W80519  28.518  18.826  13.529
 8205W        W80520   0.460   7.208  13.929
 8206W        W80521  42.489  28.646   0.757
 8207W        W80522   2.607  22.861   2.622
 8208W        W80523  41.496  16.292   0.732
 8209W        W80524   8.821  39.240  11.598
 8210W        W80525  15.870  14.163  11.543
 8211W        W80526  34.022   4.687   0.360
 8212W        W80527  10.353  41.435  12.279
 8213W        W80528   9.653  24.221  14.954
 8214W        W80529  15.748   4.471   3.384
 8215W        W80530  33.113  20.766   1.774
 8216W        W80531  21.660  10.824   0.212
 8217W        W80532   6.355  38.626  14.502
 8218W        W80533  36.411  14.628   1.181
 8219W        W80534  27.506  34.608  11.092
 8220W        W80535  15.886   7.708   2.618
 8221W        W80536  10.348  12.779   3.918
 8222W        W80537  39.153  33.983   4.272
 8223W        W80538   7.397  17.587  11.569
 8224W        W80539  18.753  21.999  11.971
 8225W        W80540   7.963  16.164  12.408
 8226W        W80541   8.238  39.433   2.800
 8227W        W80542   2.578  33.091  14.559
 8228W        W80543  24.994  20.561   1.265
 8229W        W80544  29.485  35.567   1.904
 8230W        W80545   9.121  18.305   3.844
 8231W        W80546  32.469  22.873  13.528
 8232W        W80547  42.517  41.454  10.453
 8233W        W80548  31.683  29.932   2.349
 8234W        W80549  19.496  12.717   4.350
 8235W        W80550   8.401  42.321   2.373
 8236W        W80551   9.096  38.153  12.428
 8237W        W80552  30.098   7.082  11.204
 8238W        W80553  41.373  16.652   0.360
 8239W        W80554  27.541  17.404  14.384
 8240W        W80555   2.470   9.931  12.459
 8241W        W80556   1.619   3.322  12.598
 8242W        W80557   1.476  17.684  12.916
 8243W        W80558  24.349  15.498   4.542
 8244W        W80559  22.031  44.945   0.502
 8245W        W80560   6.383   8.326   0.919
 8246W        W80561  39.487  26.932  11.481
 8247W        W80562   8.871   5.675   1.739
 8248W        W80563  28.912  15.182  13.878
 8249W        W80564  12.730  35.768  14.327
 8250W        W80565  19.722  38.155  10.432
 8251W        W80566  37.236  44.241   4.175
 8252W        W80567  28.539  22.061  10.645
 8253W        W80568  28.865  10.096   9.879
 8254W        W80569  26.972  12.761  14.286
 8255W        W80570  22.506  35.028  10.649
 8256W        W80571  30.468   4.747  12.031
 8257W        W80572   8.899   6.799   0.167
 8258W        W80573  15.079  40.034  12.528
 8259W        W80574  30.354  12.439   4.111
 8260W        W80575  27.565  40.111   3.630
 8261W        W80576  34.976  44.338  12.164
 8262W        W80577   9.864  15.988   0.911
 8263W        W80578  43.046  14.616   2.422
 8264W        W80579  42.024  30.131  12.047
 8265W        W80580  21.753  21.513  12.300
 8266W        W80581  30.288  11.865   2.216
 8267W        W80582   0.245  41.489  13.270
 8268W        W80583  37.091  15.089  10.679
 8269W        W80584  34.815   0.322   3.682
 8270W        W80585  44.037  42.280  14.895
 8271W        W80586  18.044  10.679   1.306
 8272W        W80587  35.897  23.055   3.741
 8273W        W80588  17.865  24.730   1.342
 8274W        W80589  24.642  11.292  13.070
 8275W        W80590   7.333   3.929  11.138
 8276W        W80591  36.525  35.112  11.989
 8277W        W80592   8.761  26.235  10.687
 8278W        W80593  17.790  44.896  10.642
 8279W        W80594  34.839  19.521  10.927
 8280W        W80595  31.148   5.519  12.084
 8281W        W80596  16.135  28.900  13.865
 8282W        W80597  28.255  15.133   0.984
 8283W        W80598  42.934  30.249   4.006
 8284W        W80599  24.092  43.319  14.831
 8285W        W80600  39.915  32.459   0.201
 8286W        W80601  38.282   2.499  13.393
 8287W        W80602  23.608  10.129  11.021
 8288W        W80603   6.965  12.854   2.643
 8289W        W80604  30.095  20.153  11.431
 8290W        W80605  35.982  16.751   4.622
 8291W        W80606  41.990  22.688  14.634
 8292W        W80607  40.775  40.376   0.807
 8293W        W80608  11.618   9.079   4.078
 8294W        W80609  41.969  11.323  14.409
 8295W        W80610  37.278   3.527   3.671
 8296W        W80611  16.132   6.306  13.376
 8297W        W80612  15.586  39.433   4.654
 8298W        W80613  36.368  38.573   0.406
 8299W        W80614  27.151  30.326  12.060
 8300W        W80615  28.520   8.152  11.881
 8301W        W80616  38.407  25.224   0.729
 8302W        W80617  33.039  36.590   0.262
 8303W        W80618  28.073  38.830   3.246
 8304W        W80619  31.972   3.917  12.891
 8305W        W80620  22.591  33.149   0.834
 8306W        W80621  44.288  41.856  12.092
 8307W        W80622  13.266  11.195  10.631
 8308W        W80623   0.190   7.360  11.608
 8309W        W80624  16.170  40.295   0.399
 8310W        W80625  25.607   3.402   0.043
 8311W        W80626  28.409  12.219  13.273
 8312W        W80627  35.703  26.468  11.393
 8313W        W80628  34.975   4.789   3.386
 8314W        W80629  25.467  24.232  14.788
 8315W        W80630  37.100  15.865   1.230
 8316W        W80631  14.306  18.280  12.343
 8317W        W80632  27.199  22.432  11.141
 8318W        W80633  33.926  39.562   0.402
 8319W        W80634  35.410  41.714  12.047
 8320W        W80635   0.536  42.224   3.183
 8321W        W80636  38.247  34.848   1.212
 8322W        W80637  28.688  13.375  11.447
 8323W        W80638  37.540  23.711   4.314
 8324W        W80639  38.659  44.357  12.416
 8325W        W80640  38.982   9.951  13.479
 8326W        W80641   1.881  12.832   3.616
 8327W        W80642  33.075   1.093  13.503
 8328W        W80643  29.446  22.310   4.529
 8329W        W80644  25.148  18.371  11.670
 8330W        W80645  27.115  24.598  13.469
 8331W        W80646  39.607  42.301   1.797
 8332W        W80647  35.644  29.926  10.961
 8333W        W80648  37.978  29.682  13.387
 8334W        W80649  42.253  41.128  12.353
 8335W        W80650  12.819   3.628  14.243
 8336W        W80651  12.272  29.534  14.450
 8337W        W80652  37.901  30.350   0.679
 8338W        W80653  33.615  36.335  11.767
 8339W        W80654  41.760   5.529   2.723
 8340W        W80655  35.658  11.758  10.774
 8341W        W80656  23.569  42.546   0.588
 8342W        W80657   3.460   2.336  14.023
 8343W        W80658  35.350  22.535   3.311
 8344W        W80659   2.340   2.043   3.646
 8345W        W80660  20.300  15.262   2.749
 8346W        W80661  15.170  13.536  10.793
 8347W        W80662   7.179  19.169   2.651
 8348W        W80663  23.961  20.310  12.822
 8349W        W80664  25.597  19.604   0.973
 8350W        W80665  35.641  18.555   1.332
 8351W        W80666   9.658  32.098   1.737
 8352W        W80667   0.995   5.955  14.363
 8353W        W80668   4.719  18.772   1.962
 8354W        W80669   8.513  23.258   0.953
 8355W        W80670  11.039  42.502  11.664
 8356W        W80671   6.959   0.220   3.044
 8357W        W80672   7.067   7.822  13.369
 8358W        W80673  32.496  13.806   3.169
 8359W        W80674  41.060  35.664  13.820
 8360W        W80675  28.621  20.519  10.641
 8361W        W80676  42.895  15.618   0.461
 8362W        W80677  14.500  37.454  12.527
 8363W        W80678  15.815   0.933  11.703
 8364W        W80679  13.061  43.769  10.341
 8365W        W80680   2.979  35.485  10.909
 8366W        W80681  15.060  36.828   3.972
 8367W        W80682  29.964   4.659  12.356
 8368W        W80683  10.187  25.291  12.440
 8369W        W80684  38.905   1.853  12.030
 8370W        W80685  25.682  29.020   1.971
 8371W        W80686  22.054   4.987  13.884
 8372W        W80687  16.152  24.368  13.817
 8373W        W80688  14.096  39.340  11.986
 8374W        W80689  10.338  16.977  11.675
 8375W        W80690  31.080  39.632   1.125
 8376W        W80691  35.637  29.841   4.945
 8377W        W80692  18.743  20.693   0.716
 8378W        W80693  38.542  18.058   2.661
 8379W        W80694   0.267  32.016   2.613
 8380W        W80695   6.355  31.222  11.212
 8381W        W80696  35.354   0.258   4.126
 8382W        W80697  22.969  36.863   0.852
 8383W        W80698   0.196  12.104   0.370
 8384W        W80699  44.710  13.998   0.969
 8385W        W80700  39.730  35.388  12.134
 8386W        W80701  41.160  30.235  14.532
 8387W        W80702   6.381  31.528  13.863
 8388W        W80703   5.553   2.039  14.372
 8389W        W80704  25.330  17.325  11.061
 8390W        W80705  33.458  30.235  11.053
 8391W        W80706  32.384  39.842   1.420
 8392W        W80707  11.876   1.732   0.552
 8393W        W80708  27.763  42.860   2.166
 8394W        W80709  19.621   2.915  14.261
 8395W        W80710  19.327  20.462  14.866
 8396W        W80711  23.941   5.179   0.958
 8397W        W80712  38.105   9.059   1.406
 8398W        W80713  44.956  25.059  12.792
 8399W        W80714  39.024  16.802   2.493
 8400W        W80715   2.485  27.234  11.724
 8401W        W80716   3.841  16.037   3.088
 8402W        W80717  14.591   1.286   2.829
 8403W        W80718   4.484  37.422   5.061
 8404W        W80719  23.553  27.108   1.907
 8405W        W80720  23.332   1.932   1.438
 8406W        W80721  29.105  16.597   2.091
 8407W        W80722  10.667  23.612   3.206
 8408W        W80723  34.556  41.421  13.383
 8409W        W80724  38.009  29.914  11.591
 8410W        W80725  44.773   8.630   3.384
 8411W        W80726  30.150   2.075  13.272
 8412W        W80727  14.827  29.051  10.507
 8413W        W80728   6.382  10.558  14.343
 8414W        W80729  32.403  37.419   1.830
 8415W        W80730  10.946  31.814  11.588
 8416W        W80731   0.216  12.716   3.801
 8417W        W80732   7.310  28.289  13.824
 8418W        W80733  21.728  15.510   0.899
 8419W        W80734  17.952  14.111   0.206
 8420W        W80735  32.114  13.026   1.898
 8421W        W80736   0.508   7.876  13.417
 8422W        W80737   9.229  29.279   3.669
 8423W        W80738  22.705  22.672  10.983
 8424W        W80739   2.866  13.858  13.825
 8425W        W80740  32.284  32.990  11.595
 8426W        W80741   2.512  25.058  11.602
 8427W        W80742  18.120  24.008   1.353
 8428W        W80743  22.272   1.999  12.772
 8429W        W80744  43.373  22.163  14.502
 8430W        W80745  17.761  25.564  14.879
 8431W        W80746  40.993   9.465   3.147
 8432W        W80747  20.599  43.372   4.531
 8433W        W80748  11.195  43.985   3.706
 8434W        W80749  29.185  38.376  13.529
 8435W        W80750  25.266  26.503   0.741
 8436W        W80751  14.623  44.838  11.126
 8437W        W80752  34.655   4.771   0.027
 8438W        W80753  29.686  10.075  10.242
 8439W        W80754  30.592  43.852   1.717
 8440W        W80755   8.273  25.344   1.791
 8441W        W80756  33.913  12.267  12.186
 8442W        W80757  26.058  36.551   4.937
 8443W        W80758  39.304  24.782  11.181
 8444W        W80759  40.112  28.995   2.168
 8445W        W80760  30.593  42.275   4.685
 8446W        W80761  12.166   0.656   0.505
 8447W        W80762  41.217  28.653  12.540
 8448W        W80763  42.357  36.269  11.590
 8449W        W80764   3.465   7.290  10.304
 8450W        W80765   6.285  11.285  13.950
 8451W        W80766  15.027   1.826  12.026
 8452W        W80767  37.903  10.544   1.142
 8453W        W80768  41.330  32.971  11.943
 8454W        W80769  10.154  37.372  10.549
 8455W        W80770   7.595  37.422   2.717
 8456W        W80771  42.915  36.174  11.126
 8457W        W80772  23.465  33.590  11.276
 8458W        W80773  39.081  34.697  13.261
 8459W        W80774  14.596  38.487   4.514
 8460W        W80775  38.602  20.826  11.589
 8461W        W80776  18.030  40.075  14.274
 8462W        W80777  22.191  13.374  13.431
 8463W        W80778   8.934   6.774   0.684
 8464W        W80779  13.121  11.195  14.079
 8465W        W80780   2.424  19.349  13.021
 8466W        W80781  14.378  26.586  11.573
 8467W        W80782  44.402  22.281   4.736
 8468W        W80783  37.325  17.018  11.123
 8469W        W80784   7.785  14.667   4.931
 8470W        W80785  14.146  22.011   0.337
 8471W        W80786  17.708   8.482  12.931
 8472W        W80787  25.726  20.510   2.126
 8473W        W80788  30.610  37.122   3.181
 8474W        W80789   6.469  17.600  11.925
 8475W        W80790  20.410   8.539   5.433
 8476W        W80791  38.852  16.707   4.345
 8477W        W80792   5.703  28.713   0.410
 8478W        W80793  40.319  30.751   0.318
 8479W        W80794  26.929  40.330  13.315
 8480W        W80795  29.653  16.316  11.849
 8481W        W80796  17.674   6.755  11.857
 8482W        W80797   4.826  16.724  14.025
 8483W        W80798  10.605  28.155  12.990
 8484W        W80799   5.357  44.048  13.971
 8485W        W80800   4.321  39.831  13.317
 8486W        W80801  19.070  23.522  12.412
 8487W        W80802  21.377  14.509   3.250
 8488W        W80803  32.012   5.342   2.461
 8489W        W80804  16.741   3.080  11.905
 8490W        W80805  21.520  15.620   1.376
 8491W        W80806  44.223  38.364  14.480
 8492W        W80807  24.307  30.913  12.673
 8493W        W80808  35.998  41.529   2.751
 8494W        W80809  29.438   6.763  10.361
 8495W        W80810  32.778   6.934   0.863
 8496W        W80811   3.808  37.600   2.741
 8497W        W80812  10.800  12.595   4.615
 8498W        W80813  35.144  14.395   2.074
 8499W        W80814   6.316  36.987   1.021
 8500W        W80815  16.372  42.860  10.862
 8501W        W80816  18.564   1.932   0.996
 8502W        W80817   6.018  24.088   2.464
 8503W        W80818  14.037   7.821  14.328
 8504W        W80819   0.172   6.710   3.665
 8505W        W80820   0.728  10.451  14.755
 8506W        W80821  26.969  21.064  10.746
 8507W        W80822  31.831  39.823   1.793
 8508W        W80823   1.038  19.707  11.518
 8509W        W80824  12.691  12.572   2.187
 8510W        W80825  40.862  25.172   5.050
 8511W        W80826  26.656   6.563   5.062
 8512W        W80827  18.629  13.312   0.835
 8513W        W80828  20.533  19.825  12.035
 8514W        W80829  27.149  18.187   2.406
 8515W        W80830  13.188   8.361  14.222
 8516W        W80831  35.511  14.654   4.270
 8517W        W80832  38.679   4.394  10.646
 8518W        W80833  44.502  10.639   4.190
 8519W        W80834  15.471  10.167  10.696
 8520W        W80835   8.934  15.033   2.437
 8521W        W80836  41.289  41.498  14.725
 8522W        W80837  43.747  31.221  11.569
 8523W        W80838  22.865  40.784   4.345
 8524W        W80839   9.829  37.002  11.039
 8525W        W80840  24.337  11.111   3.197
 8526W        W80841  37.990  27.412   2.178
 8527W        W80842  20.607  14.342  14.031
 8528W        W80843  37.831  44.093  10.999
 8529W        W80844  25.201  18.345  10.726
 8530W        W80845   9.827  43.351   0.804
 8531W        W80846  20.221  19.781   2.941
 8532W        W80847   5.335  24.097  14.674
 8533W        W80848  15.916   7.714   1.713
 8534W        W80849   8.117  39.314   0.309
 8535W        W80850  37.285  36.335  13.329
 8536W        W80851  15.215   1.369   2.413
 8537W        W80852  25.514  42.081   0.502
 8538W        W80853  31.450  40.607  12.514
 8539W        W80854   3.812  42.918  14.863
 8540W        W80855  19.681  17.257   2.641
 8541W        W80856   3.985  34.276   0.259
 8542W        W80857  31.749   8.379  11.658
 8543W        W80858   2.708  15.632  11.509
 8544W        W80859  12.500   2.804   2.683
 8545W        W80860  10.188  34.088  12.947
 8546W        W80861   5.137  11.266   1.810
 8547W        W80862  34.445  32.288  14.189
 8548W        W80863  24.923   3.658  11.344
 8549W        W80864  32.135   2.715   3.894
 8550W        W80865  19.758  37.169  11.115
 8551W        W80866  14.122  17.239  12.154
 8552W        W80867   7.778  44.788   2.602
 8553W        W80868  43.691  33.040   3.301
 8554W        W80869  14.353   1.337   3.332
 8555W        W80870   6.814  23.444  13.949
 8556W        W80871  36.187  36.527   1.284
 8557W        W80872  41.371   5.617   2.384
 8558W        W80873  39.495  16.771  13.566
 8559W        W80874   7.916  44.882  11.148
 8560W        W80875  38.265   0.986  14.818
 8561W        W80876  27.694  20.183   4.739
 8562W        W80877  16.023   2.903  11.577
 8563W        W80878   4.964  38.979   2.878
 8564W        W80879  37.563  16.521  12.450
 8565W        W80880   1.197  37.596   0.846
 8566W        W80881  37.390  28.980   2.827
 8567W        W80882  39.358  37.334  13.405
 8568W        W80883  19.071   1.410   2.660
 8569W        W80884   8.659  36.862  12.198
 8570W        W80885   7.639  11.156  13.235
 8571W        W80886  21.794  17.291   4.562
 8572W        W80887   4.735  17.137   4.458
 8573W        W80888  29.696  30.883   4.918
 8574W        W80889  25.468  27.166   0.239
 8575W        W80890   8.257  34.576   1.929
 8576W        W80891  43.561  14.790   3.334
 8577W        W80892  40.482   1.265  12.431
 8578W        W80893  41.765   3.359   2.403
 8579W        W80894  11.345  17.564  10.329
 8580W        W80895  23.135  24.125  13.013
 8581W        W80896  13.045  33.465  11.627
 8582W        W80897  11.993   6.620  14.326
 8583W        W80898  14.564  16.789  13.761
 8584W        W80899  19.090  17.565   3.907
 8585W        W80900   7.782  34.297   1.343
 8586W        W80901  10.827  30.908  14.926
 8587W        W80902  32.162  37.507   0.483
 8588W        W80903  18.657  14.603   4.142
 8589W        W80904  21.956   5.732  12.204
 8590W        W80905   4.493  44.443  11.183
 8591W        W80906  22.561  42.061   1.950
 8592W        W80907  36.466  33.232   4.461
 8593W        W80908   8.363  10.655   0.182
 8594W        W80909  41.269  22.743   2.824
 8595W        W80910   6.611  43.398   4.883
 8596W        W80911  44.558  25.123  10.241
 8597W        W80912   5.894  36.858   3.857
 8598W        W80913  23.485  32.492   4.632
 8599W        W80914  28.164  33.891  11.880
 8600W        W80915  18.179  32.935   1.493
 8601W        W80916  22.261   7.321  13.848
 8602W        W80917  28.472  43.955   2.340
 8603W        W80918  37.060  31.482   4.673
 8604W        W80919  23.278  18.491  10.172
 8605W        W80920   7.812   8.832   1.470
 8606W        W80921  40.791  44.142  14.843
 8607W        W80922  21.388  18.071   3.641
 8608W        W80923  13.820   0.490  14.845
 8609W        W80924   2.439   4.777   1.730
 8610W        W80925  37.143  43.401  11.263
 8611W        W80926  32.456  36.446   1.811
 8612W        W80927  33.931   0.779  13.487
 8613W        W80928   6.928   6.263  13.949
 8614W        W80929  39.447  43.608   1.272
 8615W        W80930   3.233   8.449   3.164
 8616W        W80931  12.764  12.164  14.588
 8617W        W80932  24.425  10.457   0.201
 8618W        W80933  40.352  41.391   3.630
 8619W        W80934  13.565  11.315  13.280
 8620W        W80935  41.315  26.891  14.826
 8621W        W80936   6.479  13.148  12.094
 8622W        W80937   0.634  12.240   1.729
 8623W        W80938  19.317  12.761   3.867
 8624W        W80939   4.918  12.828   2.474
 8625W        W80940  31.931  17.321  14.943
 8626W        W80941  13.565  40.301  14.803
 8627W        W80942   3.115  17.648   4.663
 8628W        W80943   8.969  18.622  10.255
 8629W        W80944  24.010   3.414   3.149
 8630W        W80945  42.686   6.211   2.877
 8631W        W80946  21.581  41.404  11.192
 8632W        W80947  11.224   1.680  12.991
 8633W        W80948  14.326  36.375  14.024
 8634W        W80949  16.321  30.010   1.890
 8635W        W80950  13.297  27.567   3.280
 8636W        W80951  34.388  37.850  13.629
 8637W        W80952  39.955  16.983   2.341
 8638W        W80953  29.072  43.420  12.963
 8639W        W80954  30.896  44.417   4.586
 8640W        W80955   9.216  37.279   1.911
 8641W        W80956  35.540  34.335   0.294
 8642W        W80957  26.169  21.376  10.861
 8643W        W80958  23.613  25.194   3.689
 8644W        W80959  13.389  30.064   2.682
 8645W        W80960  14.196   2.708   2.150
 8646W        W80961  38.515  27.661  14.011
 8647W        W80962  19.713  40.841  13.108
 8648W        W80963  35.481   3.707   3.199
 8649W        W80964  39.500  28.393  14.899
 8650W        W80965  40.385  31.187  13.435
 8651W        W80966  35.641  20.193   1.471
 8652W        W80967  44.401  15.558   2.857
 8653W        W80968   7.816  24.747  12.568
 8654W        W80969  24.784  22.265   4.087
 8655W        W80970  25.562   6.199   2.405
 8656W        W80971  20.263   0.987   1.849
 8657W        W80972  12.567   2.384  12.477
 8658W        W80973  21.614  32.219   0.770
 8659W        W80974  41.072  35.540   1.284
 8660W        W80975  34.851  32.568  13.436
 8661W        W80976  25.944  43.244   3.406
 8662W        W80977   8.047  25.243   0.887
 8663W        W80978  33.089  40.410  12.693
 8664W        W80979   2.430  41.958   0.370
 8665W        W80980   1.276  13.905   2.839
 8666W        W80981  26.653  31.378   1.257
 8667W        W80982   2.754  27.912   3.944
 8668W        W80983   2.201  40.949   0.903
 8669W        W80984  36.964   4.962  11.741
 8670W        W80985  39.897  24.037   3.239
 8671W        W80986  23.283  40.051   0.190
 8672W        W80987  21.023  35.827  12.535
 8673W        W80988  44.677  10.654  14.003
 8674W        W80989  26.175  36.172  12.074
 8675W        W80990  31.201  25.720  14.611
 8676W        W80991  21.032   9.893   1.328
 8677W        W80992   5.484  14.990  13.880
 8678W        W80993   5.766  11.076  14.697
 8679W        W80994  12.364  36.490  12.470
 8680W        W80995  28.822  39.012   4.061
 8681W        W80996  16.340  44.923   3.715
 8682W        W80997  11.830  23.216   2.234
 8683W        W80998  44.838  16.275   1.876
 8684W        W80999   0.242   9.987   2.218
 8685W        W81000   1.435  39.946  12.030
 8686W        W81001   6.195  30.431   4.713
 8687W        W81002  14.872  39.461   2.910
 8688W        W81003  44.359  29.463  11.515
 8689W        W81004   7.394  21.239   4.361
 8690W        W81005  28.567  38.906  12.009
 8691W        W81006  20.828  39.397   2.380
 8692W        W81007  23.280   8.090   4.635
 8693W        W81008   9.259   6.884   3.822
 8694W        W81009  12.802  30.159   0.037
 8695W        W81010  27.159  34.521   3.611
 8696W        W81011  34.161  39.101   0.354
 8697W        W81012  40.974  11.482  12.195
 8698W        W81013  16.122   4.280  14.366
 8699W        W81014   0.380  16.120   1.246
 8700W        W81015  39.769   3.756  11.154
 8701W        W81016  38.653  20.512  11.170
 8702W        W81017  41.257  35.254  11.305
 8703W        W81018   3.825  15.066  13.002
 8704W        W81019  40.372  37.985   4.384
 8705W        W81020  15.170  37.826   1.735
 8706W        W81021  43.759  31.362  10.735
 8707W        W81022  43.791  37.991  13.897
 8708W        W81023  18.082  12.608  12.905
 8709W        W81024  44.422  43.136   2.354
 8710W        W81025   9.509  35.066   2.233
 8711W        W81026   7.269   7.821  13.955
 8712W        W81027  13.538  12.796   4.912
 8713W        W81028   0.869  37.411  10.173
 8714W        W81029  39.029  18.102   4.401
 8715W        W81030  10.265  25.254   1.812
 8716W        W81031  17.741  22.662  12.393
 8717W        W81032   9.886  27.576  13.892
 8718W        W81033  26.671  13.375   2.074
 8719W        W81034  29.906  40.793  14.837
 8720W        W81035  21.355  43.767  10.657
 8721W        W81036  24.196   0.765  11.598
 8722W        W81037  30.833  38.502  14.329
 8723W        W81038  35.074   7.298   2.060
 8724W        W81039  18.519  43.101   3.791
 8725W        W81040  12.916  15.528  11.742
 8726W        W81041  12.685  10.294  13.112
 8727W        W81042  17.523  24.546  13.857
 8728W        W81043   9.441  12.161   4.190
 8729W        W81044  12.802  28.610   0.275
 8730W        W81045  12.894   0.887   2.721
 8731W        W81046  36.453  18.130  13.309
 8732W        W81047  29.097  12.933   1.314
 8733W        W81048  36.618  25.678   1.925
 8734W        W81049   0.613  18.491   3.216
 8735W        W81050   3.021   8.150   1.894
 8736W        W81051  13.891  10.710   0.291
 8737W        W81052  37.848  37.487  10.997
 8738W        W81053  42.531  42.502  14.725
 8739W        W81054  37.061  19.605   2.669
 8740W        W81055  41.064  43.434   3.975
 8741W        W81056  13.670  39.428  14.764
 8742W        W81057   3.789   0.292   1.262
 8743W        W81058  42.954  24.568   3.425
 8744W        W81059  33.136  44.938   1.472
 8745W        W81060  25.943  26.006   4.508
 8746W        W81061  39.345  31.618  10.706
 8747W        W81062  15.029  17.222  11.646
 8748W        W81063  12.725   4.094   0.378
 8749W        W81064  34.295  28.667  13.567
 8750W        W81065  41.462  25.668  13.002
 8751W        W81066  20.537  10.727   1.045
 8752W        W81067  10.733  28.848   3.578
 8753W        W81068  23.775   9.289   4.658
 8754W        W81069  23.551  16.133  11.627
 8755W        W81070  25.322  18.387  14.464
 8756W        W81071   9.367  16.091  14.077
 8757W        W81072  38.894   9.903  10.234
 8758W        W81073   2.930  42.037   2.727
 8759W        W81074  27.131  13.638  14.502
 8760W        W81075   2.342  40.680  12.577
 8761W        W81076  44.695  37.970   3.922
 8762W        W81077  22.721  33.393   3.234
 8763W        W81078  17.188  25.428  13.008
 8764W        W81079  41.176  44.244   0.442
 8765W        W81080  29.941   4.703   0.586
 8766W        W81081  18.116  44.659   1.392
 8767W        W81082  25.245   2.181  13.305
 8768W        W81083   4.396  26.427  11.981
 8769W        W81084  34.367  12.216   3.206
 8770W        W81085  37.440  17.516   4.119
 8771W        W81086  25.027  19.382  10.683
 8772W        W81087  14.096   3.648  11.081
 8773W        W81088  28.184   4.921   1.837
 8774W        W81089   6.796  35.413  11.559
 8775W        W81090  12.367  43.443   2.198
 8776W        W81091  43.981  31.989   4.464
 8777W        W81092  15.764  43.973   1.035
 8778W        W81093  22.569  10.188  12.533
 8779W        W81094  12.053   2.456  13.850
 8780W        W81095   0.642  15.712   2.232
 8781W        W81096  18.147  16.069  12.010
 8782W        W81097  26.008   7.059   3.296
 8783W        W81098  36.304  33.380  14.458
 8784W        W81099  14.528   2.711   0.859
 8785W        W81100   9.633   3.208  10.641
 8786W        W81101  40.252  27.909  12.939
 8787W        W81102  23.716   4.705   0.243
 8788W        W81103   0.113  15.705  12.430
 8789W        W81104  35.884  41.942  14.766
 8790W        W81105   0.264   4.513   0.913
 8791W        W81106  44.337  29.452   5.219
 8792W        W81107   9.448  22.292   0.428
 8793W        W81108  13.779  35.007  10.439
 8794W        W81109  42.280  22.307  13.878
 8795W        W81110  44.701   2.507   3.663
 8796W        W81111  38.940  44.013  11.564
 8797W        W81112   6.132  31.964  13.755
 8798W        W81113  16.329   0.051  14.876
 8799W        W81114  28.050  43.412   4.489
 8800W        W81115  35.519  29.819  14.841
 8801W        W81116  13.870  36.404  14.932
 8802W        W81117  41.398  32.771  11.450
 8803W        W81118  44.840  32.984   1.259
 8804W        W81119  23.246  12.539  12.515
 8805W        W81120  11.161  25.058  11.466
 8806W        W81121  24.201  18.328   4.311
 8807W        W81122  41.495   9.276  13.275
 8808W        W81123  23.189  21.545   3.320
 8809W        W81124  36.507  14.329  11.914
 8810W        W81125  31.691  27.997  11.090
 8811W        W81126   8.147  38.607   1.793
 8812W        W81127   0.404  18.400   4.123
 8813W        W81128  31.197  15.640   0.824
 8814W        W81129  38.568   3.954   4.312
 8815W        W81130  42.898  25.229  11.937
 8816W        W81131   6.702  39.234  12.944
 8817W        W81132   0.414  21.988  14.945
 8818W        W81133  29.933   3.017   0.676
 8819W        W81134  37.341   5.894   0.813
 8820W        W81135   7.134  29.531  12.331
 8821W        W81136  41.956  30.241   1.437
 8822W        W81137   9.845   1.172   0.059
 8823W        W81138   6.276   3.144   2.350
 8824W        W81139  12.690  30.319  12.356
 8825W        W81140  27.905  12.389   4.093
 8826W        W81141  30.573  33.440  11.560
 8827W        W81142  28.135  31.104  14.479
 8828W        W81143  26.473   7.071   1.702
 8829W        W81144  19.012  20.981   2.015
 8830W        W81145  12.983  12.556  12.033
 8831W        W81146  13.028  10.309   2.290
 8832W        W81147  41.818  33.229   2.203
 8833W        W81148  40.781  24.694   3.793
 8834W        W81149  26.264  10.938   0.306
 8835W        W81150  22.081   4.350  11.676
 8836W        W81151  36.923  41.260   2.249
 8837W        W81152  24.611   3.181  10.467
 8838W        W81153  15.148  42.913  14.270
 8839W        W81154  27.558   9.889  11.135
 8840W        W81155  24.558  21.581   5.530
 8841W        W81156  10.291  40.647  11.887
 8842W        W81157  16.572  35.087  14.634
 8843W        W81158  19.245  31.817  12.784
 8844W        W81159  15.676  44.936  10.594
 8845W        W81160  34.922  32.667  11.139
 8846W        W81161  16.778  27.671  12.027
 8847W        W81162   6.341   4.466   2.927
 8848W        W81163  15.585  34.631   1.341
 8849W        W81164  36.910  26.906   3.615
 8850W        W81165  14.303  18.578   3.374
 8851W        W81166  28.006  22.302   1.413
 8852W        W81167  27.340  34.391  11.561
 8853W        W81168  41.396  24.853  13.514
 8854W        W81169  28.119   6.130   1.258
 8855W        W81170   1.463  26.030   3.326
 8856W        W81171  18.201  23.462  12.455
 8857W        W81172   8.386  18.010   0.432
 8858W        W81173  33.074  39.879  11.933
 8859W        W81174  42.789  19.471  14.623
 8860W        W81175  40.266  36.488   1.840
 8861W        W81176  11.903  32.532   1.522
 8862W        W81177  39.505  12.443  14.608
 8863W        W81178   6.852  15.789   2.229
 8864W        W81179  31.655  22.596   4.498
 8865W        W81180   6.742  43.095  11.074
 8866W        W81181  25.226  40.507  10.658
 8867W        W81182  28.470  38.908   4.443
 8868W        W81183  34.075  38.781   3.050
 8869W        W81184   1.496  21.122  10.669
 8870W        W81185   0.226  14.017  13.007
 8871W        W81186  36.394  35.286   1.805
 8872W        W81187  30.084  32.857  12.829
 8873W        W81188  40.052  38.072  12.019
 8874W        W81189  10.894  31.842  12.504
 8875W        W81190  32.219   3.314   5.053
 8876W        W81191  18.860  37.533   5.132
 8877W        W81192   9.587  19.282   5.042
 8878W        W81193   4.882  37.313  14.848
 8879W        W81194  35.082  42.531  11.073
 8880W        W81195  28.498  34.467  14.478
 8881W        W81196  34.568  41.900   2.385
 8882W        W81197  27.231  28.517  13.711
 8883W        W81198  32.188  43.440   4.203
 8884W        W81199  14.628   4.983   0.822
 8885W        W81200  36.355  37.210   3.659
 8886W        W81201  24.398  23.591   3.556
 8887W        W81202  26.077   8.919   1.811
 8888W        W81203  33.093  39.582  10.766
 8889W        W81204  19.726  29.918   4.089
 8890W        W81205  39.043  11.834   2.142
 8891W        W81206  15.338  24.085  10.709
 8892W        W81207  34.949  15.696  12.995
 8893W        W81208  32.715  32.523  14.937
 8894W        W81209  21.958  37.475  13.763
 8895W        W81210   6.278   7.629   0.391
 8896W        W81211  18.706  18.769   3.743
 8897W        W81212  36.863  39.518  10.555
 8898W        W81213  18.188   4.007  12.932
 8899W        W81214  40.120   8.186   2.359
 8900W        W81215  18.894  28.259  13.943
 8901W        W81216  12.365   4.002  11.025
 8902W        W81217  17.114  25.059   0.323
 8903W        W81218  35.119  41.243   1.779
 8904W        W81219  24.489  41.577  12.297
 8905W        W81220   3.260  34.542  10.724
 8906W        W81221  39.401  25.187   2.645
 8907W        W81222  19.508  30.266   4.930
 8908W        W81223  38.005  43.976  12.947
 8909W        W81224   0.080   8.401  10.287
 8910W        W81225  24.236  18.997   2.580
 8911W        W81226  41.897  38.698   5.065
 8912W        W81227  23.481  27.120   0.406
 8913W        W81228   3.686  21.996   4.149
 8914W        W81229  40.091   6.862   3.212
 8915W        W81230   8.802  37.111  13.137
 8916W        W81231   3.882  10.258  13.014
 8917W        W81232  25.635  41.911  12.668
 8918W        W81233  44.973  40.987  12.934
 8919W        W81234   9.956  11.570   2.283
 8920W        W81235  42.937  41.398  11.382
 8921W        W81236  37.807   4.775   2.315
 8922W        W81237   2.764   1.755  12.956
 8923W        W81238  38.632  20.762  10.665
 8924W        W81239   0.873  42.842   2.846
 8925W        W81240   7.187  21.866  13.469
 8926W        W81241  17.692  37.950  11.223
 8927W        W81242  16.305   2.837  12.009
 8928W        W81243   3.254  34.703   4.713
 8929W        W81244  25.178  19.266   4.597
 8930W        W81245   6.403   2.941  13.451
 8931W        W81246  15.887  26.901   2.301
 8932W        W81247  35.884   2.398  10.874
 8933W        W81248  23.000  20.903  12.459
 8934W        W81249   5.909  16.179   1.997
 8935W        W81250  35.479  26.467  13.583
 8936W        W81251  44.531  26.200  11.762
 8937W        W81252  26.090   2.752  14.172
 8938W        W81253  39.467   0.076   3.310
 8939W        W81254  30.456  40.348   2.680
 8940W        W81255   9.407  15.864  13.597
 8941W        W81256   7.107  39.826  13.520
 8942W        W81257  37.938  14.847  14.776
 8943W        W81258  38.092  39.237   2.249
 8944W        W81259  35.016  26.619   5.028
 8945W        W81260  36.439  29.722  13.002
 8946W        W81261  16.597   8.256   4.935
 8947W        W81262  31.418  28.905  11.179
 8948W        W81263   5.935  11.187   2.212
 8949W        W81264  24.437   5.246   1.790
 8950W        W81265  15.365  40.510   2.371
 8951W        W81266  40.013  40.949   2.815
 8952W        W81267  28.016  22.357   0.292
 8953W        W81268  24.244   6.595   0.625
 8954W        W81269   6.717  16.583  14.076
 8955W        W81270  43.962  16.114  11.367
 8956W        W81271   3.406   2.203   0.773
 8957W        W81272  15.290  38.214  14.690
 8958W        W81273  17.258  16.603   2.935
 8959W        W81274  26.588  25.560  10.277
 8960W        W81275  36.059  24.553  11.148
 8961W        W81276   2.642  39.894   4.585
 8962W        W81277  29.878  34.929  10.905
 8963W        W81278  16.535  24.560   2.706
 8964W        W81279  37.587  35.123   3.314
 8965W        W81280  43.770  26.064   4.614
 8966W        W81281  23.258  11.865  13.563
 8967W        W81282  21.692  30.877  10.748
 8968W        W81283   6.865   0.909  14.014
 8969W        W81284  36.795  23.653   1.341
 8970W        W81285  42.509   8.643  13.793
 8971W        W81286   1.514  34.109   0.936
 8972W        W81287   1.693  44.381  14.105
 8973W        W81288   9.011  26.184   1.362
 8974W        W81289  43.715  11.979  10.606
 8975W        W81290  33.602   5.327   2.446
 8976W        W81291  24.432  32.299   1.415
 8977W        W81292   2.802  44.734   2.222
 8978W        W81293   1.392  14.565   0.363
 8979W        W81294  43.188  36.839   2.732
 8980W        W81295  31.087  18.605   4.525
 8981W        W81296  14.277  39.847   3.700
 8982W        W81297  30.374  44.957   1.253
 8983W        W81298  32.039   3.434  13.089
 8984W        W81299  22.742  41.506   3.709
 8985W        W81300  27.759  34.405   4.947
 8986W        W81301  40.088  20.635  14.819
 8987W        W81302  37.075  41.265   4.334
 8988W        W81303  41.450  32.446  12.841
 8989W        W81304  18.732  29.622   0.796
 8990W        W81305  30.890  23.701   0.297
 8991W        W81306   6.379  29.410  10.703
 8992W        W81307   4.473   3.391  11.471
 8993W        W81308  29.485   2.687  14.287
 8994W        W81309   2.541   9.941  11.124
 8995W        W81310  27.016  16.506   1.317
 8996W        W81311   3.603   0.431  13.902
 8997W        W81312  22.130  41.951   2.190
 8998W        W81313   8.414  42.480   2.879
 8999W        W81314  22.680   1.229   2.662
 9000W        W81315   5.345  37.015  12.554
 9001W        W81316   7.124  22.053  14.277
 9002W        W81317   7.769   1.616   4.232
 9003W        W81318  34.104  35.737   0.887
 9004W        W81319  12.926  14.635   1.693
 9005W        W81320  15.780  13.553  13.845
 9006W        W81321  16.717  26.384   3.361
 9007W        W81322  17.089   1.933  13.072
 9008W        W81323  18.342  15.242  14.949
 9009W        W81324  29.405  36.004   1.457
 9010W        W81325  16.531  31.193   3.067
 9011W        W81326  29.722  28.988   1.642
 9012W        W81327   2.289  27.094  14.454
 9013W        W81328  37.014   0.210  10.386
 9014W        W81329  42.108   0.395  13.068
 9015W        W81330   5.098  23.444   3.230
 9016W        W81331  17.736   1.809   4.059
 9017W        W81332  44.251   5.622   4.235
 9018W        W81333  42.096  27.263  12.850
 9019W        W81334  39.548  17.079  14.839
 9020W        W81335  19.431  20.275  14.392
 9021W        W81336  38.427  15.027  11.873
 9022W        W81337   0.766   9.746  14.133
 9023W        W81338  18.526  42.310  13.002
 9024W        W81339   7.085  40.288   2.310
 9025W        W81340  20.201  38.304  10.268
 9026W        W81341  29.062  44.016   4.807
 9027W        W81342  22.057  24.697  12.666
 9028W        W81343  44.856  27.891  12.040
 9029W        W81344   7.332  24.274  11.258
 9030W        W81345  19.918  20.527   0.387
 9031W        W81346  34.603  37.430  13.403
 9032W        W81347  43.237   3.638  13.791
 9033W        W81348  23.758  38.084   4.240
 9034W        W81349  14.718  29.923  14.578
 9035W        W81350  39.162  26.019   4.513
 9036W        W81351  34.588   2.923   2.337
 9037W        W81352  31.520  19.694  13.476
 9038W        W81353  39.134  27.145  12.090
 9039W        W81354  17.337  23.535  12.520
 9040W        W81355  37.310  16.161  13.843
 9041W        W81356  18.784  12.163  10.592
 9042W        W81357  32.586  25.910   0.771
 9043W        W81358  39.433  36.363  13.610
 9044W        W81359   8.423  15.945  12.601
 9045W        W81360  31.392   5.004  11.102
 9046W        W81361  11.317   0.686  11.021
 9047W        W81362  43.437  38.898   0.631
 9048W        W81363  18.744  44.209  11.023
 9049W        W81364  14.865   3.216  11.210
 9050W        W81365  16.829   9.269   9.879
 9051W        W81366  33.117   0.726   3.363
 9052W        W81367  15.705  11.798   0.450
 9053W        W81368  42.063   4.221   0.864
 9054W        W81369   0.868   1.406  13.369
 9055W        W81370   1.884  27.117  14.078
 9056W        W81371   7.247  31.444   0.226
 9057W        W81372  44.031  25.415   0.432
 9058W        W81373  19.173   0.975   1.379
 9059W        W81374  19.013  11.786  11.048
 9060W        W81375  21.092  11.294   3.854
 9061W        W81376  27.640  13.149   2.612
 9062W        W81377  14.804  29.574  12.465
 9063W        W81378  22.991   6.676  12.591
 9064W        W81379  11.092  34.471   0.335
 9065W        W81380  17.621  31.220  10.770
 9066W        W81381  27.966  27.910  10.704
 9067W        W81382  28.502  37.265  11.065
 9068W        W81383  39.492  23.718  11.977
 9069W        W81384  37.997  29.368  12.930
 9070W        W81385  31.787  30.999  11.995
 9071W        W81386  19.668  31.024   2.182
 9072W        W81387  13.253  11.968   0.549
 9073W        W81388  15.297  19.164  13.279
 9074W        W81389  16.113  10.695   4.361
 9075W        W81390   2.279  36.981   4.019
 9076W        W81391  21.717  36.325  14.984
 9077W        W81392  44.541   2.618   3.150
 9078W        W81393  34.232  43.738  14.454
 9079W        W81394  44.457  35.663  10.652
 9080W        W81395  25.436  30.049  14.891
 9081W        W81396  14.851  19.568  14.866
 9082W        W81397  16.283  19.289   1.783
 9083W        W81398  11.054   2.349  12.547
 9084W        W81399  20.852  35.534  11.454
 9085W        W81400   1.413  25.106  10.771
 9086W        W81401  17.804  13.133   2.415
 9087W        W81402  21.210  22.694  13.870
 9088W        W81403   5.485  15.371   2.999
 9089W        W81404  31.956  39.045   1.188
 9090W        W81405  44.806   8.279  11.212
 9091W        W81406   1.696  43.102   3.225
 9092W        W81407   2.911   1.581  14.871
 9093W        W81408  27.494   6.010  14.526
 9094W        W81409  14.103  28.238   0.346
 9095W        W81410  29.590  30.518  10.722
 9096W        W81411  38.796  24.499   4.878
 9097W        W81412  44.967  42.938   3.520
 9098W        W81413  37.673  26.390   1.836
 9099W        W81414  15.189  11.850   3.745
 9100W        W81415  19.599  40.833  10.009
 9101W        W81416  19.138  43.475  11.225
 9102W        W81417  18.809  39.653   4.645
 9103W        W81418  44.050  35.176   2.167
 9104W        W81419  25.139  11.264   1.813
 9105W        W81420  38.287  43.646   3.186
 9106W        W81421   8.558   3.846   0.822
 9107W        W81422   8.563  21.196   1.948
 9108W        W81423   3.361  31.385  13.835
 9109W        W81424  38.246   9.731  11.474
 9110W        W81425  11.617  20.070  14.724
 9111W        W81426  44.781   4.323   0.721
 9112W        W81427  24.776   8.162  10.976
 9113W        W81428  35.613   6.875   1.297
 9114W        W81429   5.304  41.000   3.252
 9115W        W81430  21.484  11.643   2.609
 9116W        W81431   6.008  28.034  14.005
 9117W        W81432  44.139  12.409  14.429
 9118W        W81433  12.620  32.224  13.145
 9119W        W81434  20.294  35.461   1.737
 9120W        W81435  39.573   2.748  14.465
 9121W        W81436  27.079  13.323  14.951
 9122W        W81437  31.043  40.932   4.738
 9123W        W81438  42.343   7.438  11.295
 9124W        W81439  22.512  13.912   2.902
 9125W        W81440   6.383  28.984   4.875
 9126W        W81441   4.310  34.827  14.112
 9127W        W81442  14.075   4.971   3.069
 9128W        W81443  17.817  27.883  12.962
 9129W        W81444  17.045  25.773   1.041
 9130W        W81445  39.839   7.175  12.047
 9131W        W81446   9.153  18.205   1.915
 9132W        W81447  13.273  23.342  12.075
 9133W        W81448   8.067  34.595  10.636
 9134W        W81449  35.877   8.275   1.432
 9135W        W81450  21.011  41.976  11.512
 9136W        W81451   4.214  44.479   0.822
 9137W        W81452   4.687  39.018   5.138
 9138W        W81453  37.042   1.154   4.401
 9139W        W81454   1.186  16.556  11.545
 9140W        W81455   2.828  40.104   1.771
 9141W        W81456   7.265  23.932   2.900
 9142W        W81457  13.547  15.531   3.085
 9143W        W81458  29.980  34.295  11.654
 9144W        W81459  43.527   2.987   4.157
 9145W        W81460  12.865  38.865   1.267
 9146W        W81461  28.175   2.801   3.265
 9147W        W81462  14.492   2.331  12.640
 9148W        W81463   5.735  25.007  13.459
 9149W        W81464   4.770  24.996  11.974
 9150W        W81465   5.667  19.604  14.503
 9151W        W81466  28.678  26.394   4.077
 9152W        W81467  32.636  17.573   2.424
 9153W        W81468  37.434  24.381  11.599
 9154W        W81469  42.039  43.250   1.968
 9155W        W81470  28.417  29.421   1.879
 9156W        W81471   2.162   5.315  13.531
 9157W        W81472  41.610  34.559   3.160
 9158W        W81473  24.606   6.012   4.236
 9159W        W81474  44.905  12.386  12.831
 9160W        W81475  37.624  10.223  12.981
 9161W        W81476  17.467   2.913   1.348
 9162W        W81477  27.210  16.046   0.355
 9163W        W81478  31.584  14.695   4.798
 9164W        W81479  25.026  27.044   1.478
 9165W        W81480  40.276  10.340   3.783
 9166W        W81481  43.294  33.463  14.895
 9167W        W81482  41.269  24.869   2.213
 9168W        W81483  39.293  10.781   4.672
 9169W        W81484  39.393   8.781   4.543
 9170W        W81485  42.509  39.516   0.354
 9171W        W81486  22.175  29.577   0.367
 9172W        W81487  29.022   3.354   0.889
 9173W        W81488  27.026  15.866   3.028
 9174W        W81489   9.381  11.703   3.160
 9175W        W81490  18.694  33.550   4.659
 9176W        W81491  44.237  37.722   3.769
 9177W        W81492  32.996  20.085   3.369
 9178W        W81493   7.471  40.832  11.193
 9179W        W81494   0.996   7.857  14.801
 9180W        W81495  20.962  18.730   2.764
 9181W        W81496   1.882   7.362  11.672
 9182W        W81497  13.272   7.187   1.319
 9183W        W81498  36.303  30.131  13.385
 9184W        W81499  41.313  42.436   3.348
 9185W        W81500   6.118  43.826  11.443
 9186W        W81501  19.582  16.212   1.291
 9187W        W81502   4.686  34.919  14.469
 9188W        W81503  23.094  32.968  14.966
 9189W        W81504  29.376  35.078  12.108
 9190W        W81505  14.011  23.260   3.026
 9191W        W81506  12.100  44.123   0.946
 9192W        W81507   7.737  23.649  13.477
 9193W        W81508  12.244  42.861  13.417
 9194W        W81509  23.167  39.385   2.852
 9195W        W81510   2.410  43.552   3.786
 9196W        W81511  28.970  17.886   1.694
 9197W        W81512  39.305  21.851  13.583
 9198W        W81513  10.700  26.367  13.962
 9199W        W81514  32.406  16.571  12.424
 9200W        W81515  24.969  26.266   0.306
 9201W        W81516  13.841   9.425  11.510
 9202W        W81517  10.809  36.986   4.266
 9203W        W81518   0.915  19.842  14.379
 9204W        W81519  16.614   3.466   1.803
 9205W        W81520   6.931  19.087   3.343
 9206W        W81521  17.966   1.297   0.960
 9207W        W81522  20.134   0.787   0.926
 9208W        W81523  43.503   1.720  14.217
 9209W        W81524  23.538  37.000  11.537
 9210W        W81525  24.791  39.745   3.096
 9211W        W81526   3.837  42.224   2.945
 9212W        W81527  18.645  40.760   3.109
 9213W        W81528  37.346  11.148   2.281
 9214W        W81529  38.984  20.376  10.509
 9215W        W81530  10.406  14.339  11.080
 9216W        W81531  34.516  41.260   4.847
 9217W        W81532  12.110  25.193   2.390
 9218W        W81533   0.985  44.096   2.387
 9219W        W81534  19.543   1.914   3.291
 9220W        W81535  29.190  28.509  14.866
 9221W        W81536  36.125  43.056  13.798
 9222W        W81537   4.965  22.021   2.318
 9223W        W81538  43.535  23.087   1.659
 9224W        W81539  33.493  27.751   3.066
 9225W        W81540  25.317  12.086   3.389
 9226W        W81541  41.377  21.669  14.062
 9227W        W81542  24.098  44.079  10.983
 9228W        W81543   9.631  17.299   3.855
 9229W        W81544  34.080  38.336   3.315
 9230W        W81545  30.917  36.664  11.792
 9231W        W81546  14.839  18.028   1.881
 9232W        W81547  29.416   8.939  12.654
 9233W        W81548  42.231  28.538   1.238
 9234W        W81549  32.949  31.174  14.406
 9235W        W81550  17.881  40.480  11.520
 9236W        W81551  26.991  11.816   3.448
 9237W        W81552  15.427  32.729   0.281
 9238W        W81553  37.876  26.574   2.329
 9239W        W81554  24.172  30.820  14.957
 9240W        W81555  26.142  43.985  14.169
 9241W        W81556  39.107  40.857  10.554
 9242W        W81557  19.270  29.199   4.138
 9243W        W81558  39.798  22.478   3.785
 9244W        W81559   1.811  28.577   0.676
 9245W        W81560  14.419  12.531   4.923
 9246W        W81561  16.193  29.199   0.238
 9247W        W81562   8.985   3.250   5.087
 9248W        W81563  20.821  37.273  13.035
 9249W        W81564  44.153  34.532   4.663
 9250W        W81565  35.187  14.568   2.947
 9251W        W81566  35.473  44.155   4.111
 9252W        W81567   3.002  24.590   2.420
 9253W        W81568  43.713  25.751   2.254
 9254W        W81569   8.851  40.471  12.595
 9255W        W81570  22.504  15.289  10.948
 9256W        W81571  16.427  27.215  13.468
 9257W        W81572  12.493  27.608   2.329
 9258W        W81573  43.889  20.534  14.827
 9259W        W81574  31.387  15.836   2.017
 9260W        W81575  43.986   3.912  13.936
 9261W        W81576  33.021  44.278   2.628
 9262W        W81577   1.794  41.715   3.726
 9263W        W81578   4.881  36.785  12.585
 9264W        W81579   7.372   9.611   4.193
 9265W        W81580  22.499  26.594  11.329
 9266W        W81581  32.500  14.318  12.966
 9267W        W81582  19.027   2.846   1.439
 9268W        W81583  41.014  31.563  11.630
 9269W        W81584  24.028   9.950  11.483
 9270W        W81585  25.287  26.104   1.212
 9271W        W81586  31.374   8.875   1.846
 9272W        W81587   6.210   2.345  11.144
 9273W        W81588  27.124  13.755  13.514
 9274W        W81589  32.640   3.349  13.290
 9275W        W81590  25.389  33.445   0.259
 9276W        W81591  42.304  31.013   2.885
 9277W        W81592  23.921  23.806   4.596
 9278W        W81593  16.233  24.139   1.697
 9279W        W81594  15.492  38.750  12.927
 9280W        W81595  28.702   0.591   2.698
 9281W        W81596  31.201   7.662  13.416
 9282W        W81597   8.126  42.290   4.890
 9283W        W81598  19.951  31.941   2.725
 9284W        W81599  29.523  22.540   4.988
 9285W        W81600  25.210  39.924   0.390
 9286W        W81601  23.914  32.774  13.977
 9287W        W81602   6.114  24.734   3.281
 9288W        W81603   5.802  35.048  10.645
 9289W        W81604   6.954  20.462   2.382
 9290W        W81605   3.580  36.394   0.666
 9291W        W81606  32.019  18.633   1.891
 9292W        W81607  29.420  29.592   0.887
 9293W        W81608   1.466  13.727  14.946
 9294W        W81609  16.278  14.351  14.660
 9295W        W81610  26.226  29.115   2.604
 9296W        W81611   4.326  17.857  12.161
 9297W        W81612  43.994  13.151   2.800
 9298W        W81613  25.289  26.917  10.558
 9299W        W81614  29.596  18.697   3.648
 9300W        W81615  17.831   7.796  13.406
 9301W        W81616   6.703   8.810   3.604
 9302W        W81617  13.317  32.759   4.296
 9303W        W81618  13.142  12.563   1.903
 9304W        W81619  24.891  12.223   0.395
 9305W        W81620   3.444   2.906  11.060
 9306W        W81621  20.025   2.346   4.891
 9307W        W81622  40.695   9.426   1.566
 9308W        W81623   7.133  34.719  11.681
 9309W        W81624   5.625   0.283  13.991
 9310W        W81625  36.639   1.766  12.484
 9311W        W81626  29.635  17.868   1.327
 9312W        W81627  24.695  20.866   0.460
 9313W        W81628  32.518  37.933   4.616
 9314W        W81629   9.217   4.467  12.548
 9315W        W81630  30.749  28.617  11.666
 9316W        W81631   1.461  31.966   4.718
 9317W        W81632  14.572   9.793  10.458
 9318W        W81633  43.533  29.220   5.372
 9319W        W81634  15.229  26.175  11.442
 9320W        W81635  38.104  38.531   1.888
 9321W        W81636  27.112  22.628   4.846
 9322W        W81637  28.787   4.787  11.119
 9323W        W81638  39.323  43.411   0.810
 9324W        W81639  18.604   4.682  11.549
 9325W        W81640  24.789  37.589   2.979
 9326W        W81641   5.182  11.738  12.016
 9327W        W81642  13.443  33.248   4.207
 9328W        W81643   7.153  21.210   2.350
 9329W        W81644   0.504  10.105   2.684
 9330W        W81645  42.082  35.844   2.781
 9331W        W81646  27.078  23.773  11.588
 9332W        W81647   2.078  18.262   3.278
 9333W        W81648   9.662   8.758  13.924
 9334W        W81649  40.041  43.231  13.412
 9335W        W81650  25.499  17.744  13.037
 9336W        W81651  29.020   8.770   4.144
 9337W        W81652  22.586  44.072   4.668
 9338W        W81653  16.962  34.827  13.622
 9339W        W81654  26.925  21.670   1.361
 9340W        W81655  13.039  19.698   3.315
 9341W        W81656   8.474   1.623  13.310
 9342W        W81657  23.491   0.720   1.281
 9343W        W81658  12.876  22.197   2.758
 9344W        W81659  25.995   7.011   0.557
 9345W        W81660  41.884   1.284   0.787
 9346W        W81661   0.032  19.298  11.336
 9347W        W81662  36.603  19.621  14.836
 9348W        W81663   1.220  22.578  11.104
 9349W        W81664  25.620   4.405  10.265
 9350W        W81665  29.625   6.842  11.186
 9351W        W81666   3.317   6.763  13.528
 9352W        W81667  14.080   6.635  11.473
 9353W        W81668   8.941  25.641  11.358
 9354W        W81669  32.230  18.600  14.511
 9355W        W81670  33.123  17.018   4.074
 9356W        W81671  31.347  44.715  10.594
 9357W        W81672  26.641  31.175   0.367
 9358W        W81673  36.113  18.073  12.910
 9359W        W81674  20.790  31.499  12.303
 9360W        W81675   6.633  16.964  13.435
 9361W        W81676   9.600  42.837   3.912
 9362W        W81677  28.177  28.920  11.157
 9363W        W81678  16.792  37.562  13.316
 9364W        W81679  28.250   3.249   2.547
 9365W        W81680   3.254  32.695   0.751
 9366W        W81681  22.678  41.072   1.834
 9367W        W81682   9.801  23.544   1.408
 9368W        W81683  29.174  20.929   1.327
 9369W        W81684  10.435  15.328   3.357
 9370W        W81685  31.596  42.578   1.438
 9371W        W81686  20.284   8.776   1.406
 9372W        W81687  24.871   8.420   1.921
 9373W        W81688  44.125   5.829   3.763
 9374W        W81689  12.035  37.918  10.688
 9375W        W81690  16.873  16.866   3.173
 9376W        W81691  16.099  24.582  10.727
 9377W        W81692  30.882  30.244   9.846
 9378W        W81693  30.425  27.101   1.703
 9379W        W81694  25.709  42.766   2.640
 9380W        W81695  32.918  35.464   0.774
 9381W        W81696  30.912  32.463   3.184
 9382W        W81697  10.122  27.091  11.436
 9383W        W81698  33.736  26.422  12.356
 9384W        W81699  40.477  32.795  14.369
 9385W        W81700   1.241  17.185  14.096
 9386W        W81701  43.202  13.907  13.293
 9387W        W81702  16.586   4.335   1.466
 9388W        W81703  33.264  33.675   4.081
 9389W        W81704  16.811   6.193  11.535
 9390W        W81705  39.158   0.311  13.942
 9391W        W81706  10.414  10.254  12.140
 9392W        W81707  11.676  31.516  10.663
 9393W        W81708  16.173  33.849  10.459
 9394W        W81709   0.746  22.703  10.267
 9395W        W81710  27.001  39.533  14.748
 9396W        W81711   6.673  12.067   3.828
 9397W        W81712  32.381  19.804   3.163
 9398W        W81713   9.851  11.199  14.145
 9399W        W81714  21.862  42.451   4.465
 9400W        W81715  44.619  38.400   2.065
 9401W        W81716  20.042  26.140   4.805
 9402W        W81717  28.580  17.376  12.428
 9403W        W81718  10.635  24.617   0.524
 9404W        W81719  18.214  20.660   0.787
 9405W        W81720  22.118  32.957  13.482
 9406W        W81721  36.828  28.281   4.168
 9407W        W81722  41.250   5.737   3.843
 9408W        W81723  18.750  41.458  11.305
 9409W        W81724  39.863  15.039  14.257
 9410W        W81725  37.572   4.986  14.834
 9411W        W81726  34.385  39.514  12.700
 9412W        W81727  19.387   7.673   0.279
 9413W        W81728   8.104  24.387  14.630
 9414W        W81729  29.638  40.457   3.635
 9415W        W81730  26.502  23.159   3.815
 9416W        W81731  28.507  15.159   3.614
 9417W        W81732  17.767  43.566  12.449
 9418W        W81733  25.270   0.006   0.826
 9419W        W81734   1.782  35.555   2.411
 9420W        W81735  39.049   7.132  12.387
 9421W        W81736  39.605   9.849   3.753
 9422W        W81737  14.982  41.473  14.130
 9423W        W81738  30.017  20.615   1.877
 9424W        W81739  37.940  14.084   3.760
 9425W        W81740   9.502   6.587  11.936
 9426W        W81741   1.418  43.514  12.119
 9427W        W81742  17.006  38.906   4.990
 9428W        W81743   9.149   3.253  14.321
 9429W        W81744  37.041  35.923  14.084
 9430W        W81745  24.605   6.934  12.926
 9431W        W81746   2.825  42.944   1.408
 9432W        W81747  18.568  33.644  12.942
 9433W        W81748  25.963  44.809  13.967
 9434W        W81749   4.682   9.427   4.531
 9435W        W81750  36.455  43.996  11.916
 9436W        W81751  18.049   7.272   0.890
 9437W        W81752  40.826  39.281   2.230
 9438W        W81753  26.511  24.912  11.552
 9439W        W81754   8.411  12.535   1.294
 9440W        W81755  21.545  36.331   0.948
 9441W        W81756   9.349  39.740   1.804
 9442W        W81757  16.273  30.012   0.643
 9443W        W81758   9.265  30.074   2.965
 9444W        W81759  18.751  43.941   4.653
 9445W        W81760   3.690  40.335  10.658
 9446W        W81761   5.827  33.865   3.410
 9447W        W81762  27.530  12.058   0.145
 9448W        W81763  12.785   5.756  13.805
 9449W        W81764  24.528  27.504  12.926
 9450W        W81765  36.918  39.100  13.975
 9451W        W81766  35.268  33.355  14.396
 9452W        W81767  40.007   5.729   3.558
 9453W        W81768  14.243   9.924   1.907
 9454W        W81769   6.644  44.716  13.095
 9455W        W81770  23.706  18.962   4.947
 9456W        W81771  31.364  22.010   3.335
 9457W        W81772  12.574  30.916  12.349
 9458W        W81773   7.906  40.562  14.959
 9459W        W81774   6.619  27.908   1.374
 9460W        W81775  17.137   9.836   4.703
 9461W        W81776  40.417   5.874  11.527
 9462W        W81777  40.842   5.738   4.145
 9463W        W81778  36.560  17.422   1.774
 9464W        W81779   1.736  13.708   0.850
 9465W        W81780  34.570  12.298  11.103
 9466W        W81781  42.427  23.308  13.292
 9467W        W81782  27.144  33.612   3.734
 9468W        W81783  30.256  20.626  11.587
 9469W        W81784  22.161  18.115   0.272
 9470W        W81785  32.191  20.670   3.107
 9471W        W81786   6.227  42.721   2.907
 9472W        W81787  14.568   9.718   3.845
 9473W        W81788   5.645  10.912   0.369
 9474W        W81789  11.669  16.350   4.686
 9475W        W81790  10.340  17.883   0.397
 9476W        W81791  19.970   9.807  10.174
 9477W        W81792   4.272  31.455  12.046
 9478W        W81793  14.355  44.452  10.670
 9479W        W81794  25.713   5.304  10.053
 9480W        W81795  25.667  30.662   2.773
 9481W        W81796  33.875  34.777  11.957
 9482W        W81797   8.243  29.988   3.107
 9483W        W81798  42.515  34.157  10.670
 9484W        W81799  13.416   4.015   1.808
 9485W        W81800  29.526  11.315   0.294
 9486W        W81801  33.788  15.675   1.747
 9487W        W81802   0.061   0.938  11.425
 9488W        W81803   8.802  22.540  12.417
 9489W        W81804   3.388  21.618  12.848
 9490W        W81805  22.120  20.950  13.617
 9491W        W81806   7.740  29.708  14.180
 9492W        W81807  21.280  20.038   4.188
 9493W        W81808  29.524  21.418   3.776
 9494W        W81809  22.010  44.024  11.248
 9495W        W81810  31.916  44.622  11.425
 9496W        W81811  34.854  36.831   1.816
 9497W        W81812   5.851  18.560  13.383
 9498W        W81813  25.113  23.183   0.335
 9499W        W81814  44.868  13.698  14.278
 9500W        W81815  26.977  44.862  10.467
 9501W        W81816  19.035  15.127  14.400
 9502W        W81817   9.869  44.035  13.444
 9503W        W81818  32.008  35.903   2.289
 9504W        W81819  10.953   2.377   4.512
 9505W        W81820  44.086  35.644   1.311
 9506W        W81821  11.776   3.451   1.309
 9507W        W81822  39.906  37.756   3.634
 9508W        W81823  12.287  37.645  12.385
 9509W        W81824  19.782   2.559  11.970
 9510W        W81825  15.136  13.642  12.876
 9511W        W81826  21.754  11.223   4.445
 9512W        W81827  34.922  11.781  10.256
 9513W        W81828  26.081   8.443  13.793
 9514W        W81829  27.493  35.443   4.584
 9515W        W81830  10.366  21.684   1.473
 9516W        W81831  22.962   0.918  12.358
 9517W        W81832  37.386   9.344   0.107
 9518W        W81833  29.279  19.654  11.665
 9519W        W81834   6.910  43.794   4.742
 9520W        W81835  41.909  41.786   4.119
 9521W        W81836  40.730  33.404  12.004
 9522W        W81837  30.981   7.743  10.553
 9523W        W81838  21.970  37.907  12.420
 9524W        W81839  14.832  25.671  11.119
 9525W        W81840  10.097   7.265  11.896
 9526W        W81841  32.805  30.741  10.064
 9527W        W81842  41.077  41.547  13.439
 9528W        W81843  30.150   0.569   4.581
 9529W        W81844  31.628   9.602  12.026
 9530W        W81845   3.008  14.878   0.430
 9531W        W81846   0.190   4.835   1.320
 9532W        W81847  38.830  27.549  11.967
 9533W        W81848  24.320  40.879  13.356
 9534W        W81849  29.160  33.989  13.871
 9535W        W81850  30.433  16.240  12.303
 9536W        W81851  19.554  37.397  10.704
 9537W        W81852   5.467  23.920  11.543
 9538W        W81853  16.696  11.283  13.283
 9539W        W81854  25.458  15.081   2.817
 9540W        W81855   5.211  29.036  13.377
 9541W        W81856   7.842  28.598   2.507
 9542W        W81857  32.705  11.246  13.818
 9543W        W81858  29.994  33.025  14.235
 9544W        W81859  25.771  37.369   3.685
 9545W        W81860   9.778  26.234  11.480
 9546W        W81861  11.580  31.565  14.838
 9547W        W81862  22.650  21.759   9.548
 9548W        W81863  42.413  21.066  10.029
 9549W        W81864  41.792   6.316  12.878
 9550W        W81865  15.610  41.413  14.561
 9551W        W81866   8.242  36.596  12.395
 9552W        W81867  27.610   3.190  11.548
 9553W        W81868  12.318   6.796   2.469
 9554W        W81869  11.715   5.063   4.217
 9555W        W81870  18.281   4.353   4.114
 9556W        W81871   4.184  34.356  13.869
 9557W        W81872  38.815  21.265   2.954
 9558W        W81873  40.400  21.669  12.959
 9559W        W81874  41.915  24.511   1.520
 9560W        W81875  43.890  19.777  10.347
 9561W        W81876  34.622  30.419   4.680
 9562W        W81877  26.995  24.094  11.191
 9563W        W81878   0.105  36.696  11.494
 9564W        W81879   3.788  40.927   4.254
 9565W        W81880  26.736  23.582  13.433
 9566W        W81881  41.295   8.826   0.528
 9567W        W81882  21.918   3.015  12.048
 9568W        W81883  27.097   5.476   4.164
 9569W        W81884  20.649  14.154  14.514
 9570W        W81885  18.775  22.535  14.777
 9571W        W81886  18.289   1.932  11.706
 9572W        W81887  28.932  13.600  14.103
 9573W        W81888  19.390  31.201  14.600
 9574W        W81889  40.107  30.220   3.391
 9575W        W81890  11.333  11.417  14.446
 9576W        W81891  12.294  27.456   4.240
 9577W        W81892  37.006  21.307  13.819
 9578W        W81893  39.385  16.580  10.742
 9579W        W81894   0.389   0.493   3.169
 9580W        W81895  18.774  16.788  11.943
 9581W        W81896  18.710  20.227   4.522
 9582W        W81897  41.352  17.159  11.122
 9583W        W81898  19.324  20.721  12.185
 9584W        W81899   3.905   0.407  12.860
 9585W        W81900  15.356  33.063  14.901
 9586W        W81901  12.119  29.788  12.008
 9587W        W81902  26.378  42.916   3.188
 9588W        W81903  39.914  14.795   0.156
 9589W        W81904  40.512  24.378  13.334
 9590W        W81905  41.614  27.610   3.871
 9591W        W81906  26.244  29.192   3.611
 9592W        W81907  44.204  40.044  13.306
 9593W        W81908  18.690   9.098   3.872
 9594W        W81909  19.466  23.721  14.398
 9595W        W81910  10.199  27.937   1.389
 9596W        W81911   9.838  38.955   4.329
 9597W        W81912  31.370  38.923  11.015
 9598W        W81913  23.592  17.311   3.302
 9599W        W81914  10.160  37.968   0.425
 9600W        W81915  25.579  12.834  12.016
 9601W        W81916  38.994  37.176  13.970
 9602W        W81917  36.806   9.856   0.873
 9603W        W81918  41.286  18.278  10.564
 9604W        W81919   4.374  27.688   0.010
 9605W        W81920  10.293  31.865   3.689
 9606W        W81921  21.569   3.787  14.502
 9607W        W81922  21.562  22.406   1.137
 9608W        W81923  11.679  43.702  10.623
 9609W        W81924  16.733  34.505  12.803
 9610W        W81925  29.632  17.719   2.166
 9611W        W81926  15.055  42.943  12.343
 9612W        W81927  11.205  30.064   1.800
 9613W        W81928  32.004   4.203  11.123
 9614W        W81929  11.646  22.781  14.513
 9615W        W81930  24.252   0.272  12.333
 9616W        W81931  17.455   9.297   0.264
 9617W        W81932   3.684   2.945   2.968
 9618W        W81933  44.045  42.941   3.755
 9619W        W81934  15.717  23.733   2.365
 9620W        W81935  21.566  36.771   0.688
 9621W        W81936   8.456  33.342   1.411
 9622W        W81937  32.704  16.587   4.537
 9623W        W81938  11.638  20.033   0.262
 9624W        W81939  17.672   1.221   1.777
 9625W        W81940  33.650   2.776   2.634
 9626W        W81941   5.429  26.938  14.282
 9627W        W81942  11.377  26.425   4.521
 9628W        W81943   4.432  15.731   0.048
 9629W        W81944  29.634  33.430   3.142
 9630W        W81945  35.565   5.967   1.467
 9631W        W81946   2.898  37.624   3.569
 9632W        W81947  32.178   0.393   2.237
 9633W        W81948   8.315  43.884  12.690
 9634W        W81949  11.946  18.647   1.904
 9635W        W81950  37.083  39.662   0.464
 9636W        W81951  29.865  36.602   2.294
 9637W        W81952  36.033  32.950   2.991
 9638W        W81953  17.261  14.113   3.751
 9639W        W81954  43.493  29.630  10.738
 9640W        W81955  31.879  27.125   3.414
 9641W        W81956   4.230  30.899  12.006
 9642W        W81957  34.036  33.989  12.997
 9643W        W81958  43.564  11.472   5.023
 9644W        W81959   0.957   6.468  14.436
 9645W        W81960  14.304  44.276  14.554
 9646W        W81961   1.311  25.104   2.749
 9647W        W81962   5.484  16.834   4.551
 9648W        W81963  21.460  32.306  10.000
 9649W        W81964  38.344   4.246   3.227
 9650W        W81965  25.585  24.542   3.291
 9651W        W81966  41.003  16.023  11.643
 9652W        W81967  42.034  27.180   2.322
 9653W        W81968  44.297  14.785   1.878
 9654W        W81969  19.078   0.511  10.676
 9655W        W81970  30.127  16.637   3.061
 9656W        W81971  28.013  19.704   3.537
 9657W        W81972  29.478  13.007  13.120
 9658W        W81973   7.734  24.104  14.411
 9659W        W81974   3.427  11.255   0.337
 9660W        W81975  33.453  17.219  10.191
 9661W        W81976  26.475  43.552   4.705
 9662W        W81977  18.565  33.533  14.759
 9663W        W81978  15.099  36.091  11.705
 9664W        W81979  37.949  11.296   0.550
 9665W        W81980  17.351  17.548   1.641
 9666W        W81981   7.946  10.975  14.470
 9667W        W81982  33.397  38.693   3.901
 9668W        W81983  38.555  32.850  11.994
 9669W        W81984   8.779  29.706  13.807
 9670W        W81985  20.016   7.166   3.682
 9671W        W81986  41.106   7.430   3.749
 9672W        W81987  11.351  13.613  13.026
 9673W        W81988  37.586  29.300   4.207
 9674W        W81989  24.819  39.002  10.278
 9675W        W81990  24.437   2.243  10.643
 9676W        W81991  43.553  38.511  13.869
 9677W        W81992  42.536  30.723  10.733
 9678W        W81993  28.584  44.428   3.313
 9679W        W81994  33.036   2.820   4.513
 9680W        W81995   5.937  12.841  11.621
 9681W        W81996  44.316  24.978   5.060
 9682W        W81997   9.641  38.086  14.538
 9683W        W81998   9.313  39.828  12.995
 9684W        W81999  27.923  39.934   2.725
 9685W        W82000   1.233   6.367  11.574
 9686W        W82001  10.741  38.481  12.383
 9687W        W82002  41.227  24.211   0.956
 9688W        W82003   7.635  12.919  14.606
 9689W        W82004   8.444  37.952   3.743
 9690W        W82005   8.838  25.516   0.793
 9691W        W82006  26.985   4.471   4.101
 9692W        W82007  22.935  20.402   3.861
 9693W        W82008   2.851  30.503   0.271
 9694W        W82009  20.172  30.173   0.227
 9695W        W82010   5.222  22.089  14.930
 9696W        W82011   8.158  28.052  13.677
 9697W        W82012  28.298  27.594   0.442
 9698W        W82013  26.602  18.207   4.627
 9699W        W82014   4.333  39.872   0.917
 9700W        W82015  18.397  13.700   4.151
 9701W        W82016  29.869  19.640  11.204
 9702W        W82017  40.516   6.566  12.016
 9703W        W82018   3.751  23.983  10.568
 9704W        W82019  19.108  22.211  14.461
 9705W        W82020  25.143  13.111  11.037
 9706W        W82021   9.984  40.702   2.391
 9707W        W82022  16.279  16.298  14.980
 9708W        W82023   8.182  19.255  12.522
 9709W        W82024  38.973  44.301   3.184
 9710W        W82025  40.761  23.702  14.935
 9711W        W82026  10.561   4.523   3.367
 9712W        W82027  43.352  21.206   0.933
 9713W        W82028  19.126   2.227   3.131
 9714W        W82029  15.924  27.357   0.549
 9715W        W82030  39.095  41.821  11.427
 9716W        W82031  35.111  16.789  12.009
 9717W        W82032  35.472  27.461   3.011
 9718W        W82033  32.953  31.202   1.737
 9719W        W82034  10.239  19.237   0.469
 9720W        W82035  17.597  32.539  14.432
 9721W        W82036  24.494  21.871   0.438
 9722W        W82037   4.766   3.139  14.808
 9723W        W82038  28.476  18.730   0.703
 9724W        W82039  39.418  30.373   4.927
 9725W        W82040  23.030   2.350   1.350
 9726W        W82041   7.644  42.346  11.210
 9727W        W82042  34.498  19.300  13.565
 9728W        W82043  27.671  21.417   2.774
 9729W        W82044  40.390  30.364  12.999
 9730W        W82045  23.140  32.118  13.991
 9731W        W82046   9.235  35.838   2.004
 9732W        W82047   0.324  32.924  11.610
 9733W        W82048  33.166  19.699   2.477
 9734W        W82049   9.264   3.686  12.858
 9735W        W82050  31.962  43.023  12.372
 9736W        W82051  16.084  35.348  10.756
 9737W        W82052  36.105   1.440  14.089
 9738W        W82053  26.681  20.534  12.463
 9739W        W82054  36.370  23.743   2.026
 9740W        W82055  38.460  18.526  11.221
 9741W        W82056  32.605  41.388  13.449
 9742W        W82057  38.934  30.571   3.135
 9743W        W82058   8.714  35.390  10.662
 9744W        W82059  25.958  27.149   2.333
 9745W        W82060  20.363   9.272   1.014
 9746W        W82061  21.214  39.489   4.385
 9747W        W82062  15.081  30.573   0.301
 9748W        W82063  18.496   2.470  13.850
 9749W        W82064  20.231  19.605  10.823
 9750W        W82065  19.250  20.803  12.692
 9751W        W82066  18.231  27.573   3.371
 9752W        W82067   7.326  30.999  14.530
 9753W        W82068  17.334  41.965   3.719
 9754W        W82069  41.397   7.447   4.156
 9755W        W82070  28.933   2.110   1.308
 9756W        W82071  33.352  11.215  14.140
 9757W        W82072  34.191  15.766   3.229
 9758W        W82073   1.782  10.794   5.425
 9759W        W82074  29.612  11.856  12.506
 9760W        W82075  33.188  29.891   3.287
 9761W        W82076  12.304  44.830  14.292
 9762W        W82077  25.185  37.877   3.246
 9763W        W82078   3.947   7.896  11.007
 9764W        W82079  15.515  16.032  11.118
 9765W        W82080  42.271   8.191  11.958
 9766W        W82081   5.929  21.657  11.918
 9767W        W82082   3.283   0.654  12.457
 9768W        W82083  37.940  12.890   4.261
 9769W        W82084  29.681  34.850   0.822
 9770W        W82085   2.011   1.857   2.402
 9771W        W82086  28.036   6.834   4.297
 9772W        W82087   6.415   9.149   0.521
 9773W        W82088  18.619  15.604  11.889
 9774W        W82089  17.204  28.492   0.433
 9775W        W82090  20.548  35.955  13.476
 9776W        W82091  30.416  17.725   1.627
 9777W        W82092  39.354  34.577  11.652
 9778W        W82093  42.819  13.361  13.188
 9779W        W82094  11.274  19.813  10.944
 9780W        W82095  13.267   1.427  12.041
 9781W        W82096  39.533   6.273   4.455
 9782W        W82097  32.481   8.641   2.766
 9783W        W82098   0.297  37.188  11.555
 9784W        W82099  39.906  17.801  13.215
 9785W        W82100  12.102  18.485   0.492
 9786W        W82101  43.385   4.152   0.229
 9787W        W82102  32.314   2.128  11.204
 9788W        W82103  27.541  14.107  13.809
 9789W        W82104   6.584  34.917  13.816
 9790W        W82105  31.156  41.393  13.391
 9791W        W82106   7.520  36.808  14.435
 9792W        W82107  32.331  17.268   0.623
 9793W        W82108  17.095  29.007  13.905
 9794W        W82109   4.613  42.152  11.968
 9795W        W82110  42.380  12.372  13.060
 9796W        W82111  20.605  21.683   1.398
 9797W        W82112  43.979  22.028  11.461
 9798W        W82113  32.101  18.468  10.734
 9799W        W82114  15.802  20.999   2.774
 9800W        W82115   3.831  38.471   3.871
 9801W        W82116  27.964   3.887  12.853
 9802W        W82117   5.791  16.639   0.822
 9803W        W82118  13.195  31.572   3.897
 9804W        W82119  39.720   4.855   2.785
 9805W        W82120  12.647  39.844   4.316
 9806W        W82121  35.275   5.240  12.914
 9807W        W82122  41.865  25.081  14.942
 9808W        W82123  22.130  40.978   2.331
 9809W        W82124  43.778  25.894   0.029
 9810W        W82125  24.196  22.197   0.716
 9811W        W82126  17.556  21.555  14.772
 9812W        W82127  43.804  26.238  14.066
 9813W        W82128  43.450   5.874  14.459
 9814W        W82129   3.425  36.991   2.066
 9815W        W82130  16.633   9.791  13.495
 9816W        W82131  37.437   8.460   2.504
 9817W        W82132   1.235   3.392   4.580
 9818W        W82133  24.178   7.383   1.330
 9819W        W82134   9.072  30.414  13.461
 9820W        W82135  27.562  43.869  11.138
 9821W        W82136  10.071  38.124  12.514
 9822W        W82137  36.925  26.578  14.804
 9823W        W82138  36.069   9.519   2.670
 9824W        W82139  34.029  22.603   3.690
 9825W        W82140  32.607   3.831  11.698
 9826W        W82141  41.316  41.801  10.658
 9827W        W82142  34.519  44.780   3.610
 9828W        W82143  23.968   6.200   4.072
 9829W        W82144   0.921   7.271   4.456
 9830W        W82145  20.547   2.545   0.756
 9831W        W82146  28.511  10.843  11.340
 9832W        W82147  28.792   5.773  14.405
 9833W        W82148   9.692  30.107  12.453
 9834W        W82149  19.609  33.945   2.705
 9835W        W82150  31.411  40.512   0.146
 9836W        W82151  11.365  29.637   2.714
 9837W        W82152  25.895   7.665   1.664
 9838W        W82153  32.041  44.750  13.934
 9839W        W82154  39.601  28.922   2.212
 9840W        W82155   2.298   1.179   3.181
 9841W        W82156  13.092  25.008   1.800
 9842W        W82157   6.867   1.181   3.419
 9843W        W82158  43.050   2.834  11.175
 9844W        W82159  37.006  37.614  11.894
 9845W        W82160  40.525   4.270   4.277
 9846W        W82161   7.758  10.844   1.285
 9847W        W82162   9.852  20.481   0.318
 9848W        W82163  16.334  18.051   3.706
 9849W        W82164  14.818  30.552   4.996
 9850W        W82165  23.341  37.495   4.981
 9851W        W82166  19.984   0.557   0.102
 9852W        W82167  39.605  13.567   1.760
 9853W        W82168  29.056  11.050   0.268
 9854W        W82169  41.818  26.046   4.683
 9855W        W82170  23.145  34.862   0.275
 9856W        W82171   7.392   3.742   0.426
 9857W        W82172  13.575  30.237  11.362
 9858W        W82173  27.596  31.009  14.420
 9859W        W82174  25.762  12.545  10.761
 9860W        W82175  40.044  32.980   0.802
 9861W        W82176  12.708  22.648   0.674
 9862W        W82177  33.602   5.324   2.954
 9863W        W82178  25.106  21.867  11.967
 9864W        W82179   8.893  33.912  14.225
 9865W        W82180  21.061   5.255   4.209
 9866W        W82181  42.168  23.875   0.914
 9867W        W82182  37.553   7.296  11.590
 9868W        W82183  17.003   7.727  10.726
 9869W        W82184  42.303  19.708  14.181
 9870W        W82185  22.226  29.912  13.566
 9871W        W82186   6.350  19.084   3.278
 9872W        W82187  42.878  15.020  13.928
 9873W        W82188  43.220  39.558  13.411
 9874W        W82189  26.876  27.211   1.284
 9875W        W82190  12.401  27.568  11.444
 9876W        W82191   4.015  13.748  11.056
 9877W        W82192  19.225   9.531   2.970
 9878W        W82193  44.819  18.340  11.561
 9879W        W82194  12.349  21.766  13.104
 9880W        W82195   4.360  38.824   1.703
 9881W        W82196  33.024  27.723   1.862
 9882W        W82197  40.846  17.863   0.385
 9883W        W82198  40.002  11.873   4.919
 9884W        W82199  23.719  25.180  12.101
 9885W        W82200  41.500  27.144   3.281
 9886W        W82201  26.104  10.805   4.138
 9887W        W82202  44.898   7.680   4.484
 9888W        W82203  17.374  44.720   1.498
 9889W        W82204  28.260  31.011   3.333
 9890W        W82205  15.849  19.273   0.402
 9891W        W82206  28.467   8.306  10.859
 9892W        W82207  19.804   3.775  10.710
 9893W        W82208   8.750  18.377   2.189
 9894W        W82209  38.937  14.259  12.966
 9895W        W82210  23.351  25.703  14.797
 9896W        W82211  11.417  42.511  10.561
 9897W        W82212  29.444  30.898  11.507
 9898W        W82213  16.048   5.282   2.155
 9899W        W82214  11.880  41.446   2.427
 9900W        W82215  42.986  28.729  11.471
 9901W        W82216  24.657   1.699  11.488
 9902W        W82217  28.135  11.420  14.292
 9903W        W82218  13.751  32.128   2.852
 9904W        W82219  22.981  27.526   1.180
 9905W        W82220  28.262   1.254   0.672
 9906W        W82221  11.809  30.370   1.485
 9907W        W82222  27.352  33.452  11.174
 9908W        W82223  27.720  14.371  14.214
 9909W        W82224   6.219  14.819   2.929
 9910W        W82225  43.445   4.971   0.869
 9911W        W82226  21.499  39.567  13.867
 9912W        W82227  27.789  18.557  14.309
 9913W        W82228   5.229   6.340   1.643
 9914W        W82229  34.037  43.405   4.251
 9915W        W82230  25.255   0.752  10.624
 9916W        W82231  37.562  43.523   3.698
 9917W        W82232   4.818  44.084  14.736
 9918W        W82233  34.901  39.010  12.145
 9919W        W82234  10.068  20.160   1.845
 9920W        W82235  14.807  16.757  10.759
 9921W        W82236   8.721  40.389   1.370
 9922W        W82237  29.616  20.887   3.004
 9923W        W82238  35.580  20.647  13.377
 9924W        W82239  13.358  13.212  13.995
 9925W        W82240  38.090  22.499   4.076
 9926W        W82241  42.738  16.048  13.862
 9927W        W82242  27.027  17.280  10.251
 9928W        W82243  18.129  20.070  12.858
 9929W        W82244   6.877   3.194   0.886
 9930W        W82245  26.743   0.334   1.875
 9931W        W82246  44.015  44.677   0.457
 9932W        W82247  41.640  34.096  13.375
 9933W        W82248  25.999   6.864   1.546
 9934W        W82249  19.613   1.463  12.445
 9935W        W82250   6.409  12.184  11.880
 9936W        W82251   1.357   8.141   0.422
 9937W        W82252  19.230  39.344   3.695
 9938W        W82253  29.228  41.035   3.107
 9939W        W82254  42.751  32.675   3.240
 9940W        W82255  22.517  40.837   0.434
 9941W        W82256  16.074  36.873   4.129
 9942W        W82257  42.342  15.765   3.537
 9943W        W82258  18.145  11.121  12.398
 9944W        W82259  27.369  35.110   2.390
 9945W        W82260  25.623  15.307  13.290
 9946W        W82261  30.500  12.383   0.270
 9947W        W82262  41.708   8.226   1.752
 9948W        W82263  18.755  37.340  11.508
 9949W        W82264  13.638  16.668   2.135
 9950W        W82265  14.390   0.434  10.660
 9951W        W82266  17.203   1.384   3.620
 9952W        W82267   2.884  20.584   0.627
 9953W        W82268   7.979  21.828   1.765
 9954W        W82269  15.105  15.848  13.497
 9955W        W82270  35.350  31.077   4.535
 9956W        W82271  21.197  13.586   0.832
 9957W        W82272  20.069  43.231  14.793
 9958W        W82273  11.403  28.667  11.137
 9959W        W82274   9.777   9.963  14.357
 9960W        W82275  27.335  37.607  13.846
 9961W        W82276  34.585  17.299  13.752
 9962W        W82277  39.526  36.868  12.016
 9963W        W82278   3.747   2.919  10.650
 9964W        W82279   5.779  30.901   1.493
 9965W        W82280   7.335  42.100   0.923
 9966W        W82281  29.478  12.577  14.709
 9967W        W82282   5.655  43.587   4.420
 9968W        W82283  14.645  36.220   1.350
 9969W        W82284  16.979  20.742   0.264
 9970W        W82285  33.762  30.338   0.812
 9971W        W82286  36.568  11.642   3.276
 9972W        W82287  28.111  25.144   4.562
 9973W        W82288   1.961  25.007  14.472
 9974W        W82289  44.312  42.759   1.330
 9975W        W82290  41.858  31.722   3.825
 9976W        W82291   5.178  11.453  12.520
 9977W        W82292  35.436  26.194   4.535
 9978W        W82293  27.873  13.021   4.592
 9979W        W82294  29.865   5.885   4.389
 9980W        W82295  25.693  42.903  12.326
 9981W        W82296  34.787  19.492   4.059
 9982W        W82297   6.224  42.107   0.466
 9983W        W82298   4.463  18.009   0.828
 9984W        W82299  42.964  21.571   3.600
 9985W        W82300   6.718  34.464   3.652
 9986W        W82301  44.928   3.056  14.783
 9987W        W82302  11.647   8.364   0.367
 9988W        W82303  40.963  14.468   2.154
 9989W        W82304  42.476  27.253  11.479
 9990W        W82305  11.050  41.243   0.513
 9991W        W82306  29.550  14.195  13.777
 9992W        W82307  38.952  42.742  11.044
 9993W        W82308  15.594   5.945   0.772
 9994W        W82309  22.664  36.404  12.150
 9995W        W82310  18.487  39.740   2.224
 9996W        W82311   4.397  16.371   2.917
 9997W        W82312  19.191  38.046  11.167
 9998W        W82313  20.824  40.900   0.889
 9999W        W82314  23.572  19.554   1.763
10000W        W82315  22.117  14.266   1.388
10001W        W82316  33.891   2.953  13.379
10002W        W82317  24.670  32.591   3.596
10003W        W82318  22.678  20.591  11.350
10004W        W82319  20.938  16.654   0.399
10005W        W82320  12.856  12.875  10.660
10006W        W82321  38.811  28.262   5.259
10007W        W82322  34.668  21.636   4.261
10008W        W82323  19.620   0.455   2.988
10009W        W82324  40.842   1.837   2.778
10010W        W82325  32.392  41.534  13.916
10011W        W82326   6.607  44.265   5.000
10012W        W82327  20.619  16.125  11.125
10013W        W82328  25.035  40.927   1.011
10014W        W82329  20.039  20.006  13.587
10015W        W82330  17.279  41.957  13.528
10016W        W82331   3.741  44.860   0.005
10017W        W82332  44.208  20.064  11.159
10018W        W82333  23.720   5.019  14.251
10019W        W82334  26.275  39.872   4.196
10020W        W82335  17.599   7.423   1.076
10021W        W82336  19.845  18.093   1.383
10022W        W82337  28.010  11.487   5.050
10023W        W82338  15.620  26.262  13.354
10024W        W82339   6.616  18.545  11.194
10025W        W82340   8.915  12.740   0.686
10026W        W82341  41.902  18.362  11.598
10027W        W82342  43.620  31.654  11.145
10028W        W82343  32.540   9.709   0.934
10029W        W82344  22.000  15.415   2.704
10030W        W82345  27.923   7.054  13.059
10031W        W82346  39.208   1.264   4.796
10032W        W82347  27.703   4.477   4.846
10033W        W82348   1.530  36.553   4.280
10034W        W82349  31.466  28.483  13.359
10035W        W82350  24.680   6.265  10.285
10036W        W82351   5.900  23.948   0.837
10037W        W82352   6.646   1.454  12.941
10038W        W82353  11.819  23.749   4.099
10039W        W82354  40.472  43.307  14.805
10040W        W82355   4.765  39.098  13.293
10041W        W82356  35.830  36.558  14.034
10042W        W82357  38.445  10.582   4.264
10043W        W82358  11.705  26.438   2.234
10044W        W82359  44.833  14.351  12.891
10045W        W82360  20.637  42.822  14.303
10046W        W82361   7.919  18.635   0.861
10047W        W82362   3.303  33.411  12.840
10048W        W82363  34.930  37.519  11.973
10049W        W82364  29.082  11.828  13.506
10050W        W82365  40.211  22.783  11.591
10051W        W82366  11.311  28.146  10.474
10052W        W82367  23.639  25.170   1.459
10053W        W82368  31.723  21.249   2.835
10054W        W82369  27.694   9.891  12.964
10055W        W82370  11.201  18.389   5.287
10056W        W82371  14.055  19.281   2.117
10057W        W82372  10.499  20.847  11.447
10058W        W82373   4.462   6.378   2.348
10059W        W82374  24.738   3.953  14.906
10060W        W82375   8.996  43.929   1.727
10061W        W82376   4.422  29.538  14.522
10062W        W82377   9.634  21.996   1.225
10063W        W82378  10.560  23.852  12.449
10064W        W82379  20.750  42.024   2.985
10065W        W82380  24.214  17.984   2.299
10066W        W82381  11.050   5.983  12.465
10067W        W82382  34.381  41.055   0.862
10068W        W82383  27.489  22.443  12.485
10069W        W82384  42.323  25.165   1.847
10070W        W82385  29.844  13.714   3.077
10071W        W82386  42.176  21.196  13.004
10072W        W82387  18.226  11.372  14.886
10073W        W82388  34.673  37.927   3.750
10074W        W82389  36.064  28.471   1.220
10075W        W82390   6.295  13.200   0.286
10076W        W82391  36.367  23.068  13.310
10077W        W82392   2.461   5.422   0.901
10078W        W82393  12.576  24.312  12.964
10079W        W82394   1.969  36.008  13.538
10080W        W82395  23.971  22.526  13.259
10081W        W82396   7.696  24.415  14.947
10082W        W82397   0.851  35.368   0.019
10083W        W82398   1.767  32.758  12.522
10084W        W82399  28.129   0.513  11.051
10085W        W82400  24.913  24.210  11.044
10086W        W82401  17.832   1.899  14.309
10087W        W82402   6.390  39.126   0.935
10088W        W82403  37.747  38.552   2.711
10089W        W82404  35.080  20.779  12.196
10090W        W82405  19.754  19.569   5.113
10091W        W82406  33.143  28.882  14.122
10092W        W82407   5.682  12.832   0.825
10093W        W82408  44.977  34.813   0.093
10094W        W82409   8.389  23.570  12.347
10095W        W82410   9.795  31.907   4.618
10096W        W82411  22.446  21.704   4.656
10097W        W82412   6.061  15.219   1.891
10098W        W82413  12.282  41.897  13.018
10099W        W82414  29.668  38.819   0.498
10100W        W82415  18.352   8.235   0.809
10101W        W82416   2.725  15.829  10.646
10102W        W82417  35.130  18.263  11.321
10103W        W82418  37.467   7.214  13.950
10104W        W82419  13.768   5.036   0.674
10105W        W82420  14.252  34.819  10.655
10106W        W82421  26.038   7.977  12.879
10107W        W82422  12.598   8.613   3.215
10108W        W82423  17.308  41.112   9.855
10109W        W82424   2.835   9.672   1.171
10110W        W82425  17.710   5.401   4.040
10111W        W82426  26.011  22.017   1.304
10112W        W82427   1.623  17.242   4.088
10113W        W82428   4.663  42.581   3.287
10114W        W82429  43.425  13.183   4.412
10115W        W82430   4.317   3.315   2.242
10116W        W82431  44.852  38.765   1.453
10117W        W82432  35.344   9.359  14.010
10118W        W82433   9.407  42.791   4.817
10119W        W82434  15.746  27.502   0.079
10120W        W82435  16.638  23.690   4.170
10121W        W82436   1.620  39.596  10.974
10122W        W82437  19.956  42.119  11.811
10123W        W82438   2.854  34.129   0.788
10124W        W82439  24.264  38.862   9.993
10125W        W82440  26.874  31.946  12.536
10126W        W82441  38.764  44.348  10.591
10127W        W82442  12.128  28.180  13.874
10128W        W82443  24.523  21.480  13.602
10129W        W82444   6.338  36.674  13.538
10130W        W82445  10.277  20.595  14.765
10131W        W82446  40.465  11.593  13.939
10132W        W82447  44.906  31.011  11.106
10133W        W82448   0.809  21.684  11.181
10134W        W82449  23.689  25.947   3.012
10135W        W82450  37.949   6.228  11.392
10136W        W82451   8.916   3.449   0.863
10137W        W82452   2.021   7.935  13.029
10138W        W82453  41.059  15.847   2.777
10139W        W82454   9.138  35.525  10.903
10140W        W82455   7.306  12.121   1.588
10141W        W82456  37.012   3.255  13.137
10142W        W82457  37.021  16.743   2.809
10143W        W82458  14.241  11.629   4.662
10144W        W82459  35.347  30.987  14.434
10145W        W82460  39.831  25.529   1.536
10146W        W82461   7.133   4.382   4.326
10147W        W82462  37.003  28.618  13.427
10148W        W82463  33.196  20.597   2.260
10149W        W82464  40.391  30.739   4.195
10150W        W82465  15.441  17.558  11.578
10151W        W82466  18.586  23.670  12.115
10152W        W82467  11.576  33.861   3.231
10153W        W82468  31.046  20.812   3.758
10154W        W82469  14.411  22.503  11.149
10155W        W82470   3.260   2.422  13.530
10156W        W82471  42.248  22.553  12.620
10157W        W82472  41.035   9.824   2.421
10158W        W82473  31.005  15.730   1.351
10159W        W82474   6.921  30.032  12.025
10160W        W82475   4.940  34.454   0.441
10161W        W82476  36.468  20.238  14.034
10162W        W82477  30.983  19.100   0.559
10163W        W82478  26.560  14.676   0.730
10164W        W82479   1.053   6.251   4.159
10165W        W82480  26.754   2.422   0.354
10166W        W82481  42.792  14.189   2.208
10167W        W82482  31.187  31.384   0.861
10168W        W82483  33.960  31.636  13.415
10169W        W82484  37.785  36.347  12.631
10170W        W82485  20.134  17.096   3.433
10171W        W82486  28.065   1.886  12.578
10172W        W82487   4.221   0.430  11.954
10173W        W82488  18.117  38.623   1.794
10174W        W82489   5.219  26.269   4.144
10175W        W82490  40.792  40.870   4.177
10176W        W82491  26.755  35.672  14.677
10177W        W82492  38.370  41.913  14.947
10178W        W82493  39.640   8.378  12.995
10179W        W82494  35.117  30.930   3.659
10180W        W82495  15.504  21.623   1.549
10181W        W82496  16.291  28.133   1.125
10182W        W82497  19.237   6.456  12.428
10183W        W82498  34.547  10.344  13.445
10184W        W82499  25.034  24.236  13.589
10185W        W82500   2.851  13.660  14.910
10186W        W82501  42.531  37.487  12.645
10187W        W82502  26.997  11.400  14.531
10188W        W82503  39.934  26.284  10.760
10189W        W82504   5.635   2.888  11.489
10190W        W82505  33.524   9.535   1.191
10191W        W82506  12.211   3.734   1.190
10192W        W82507  19.861  44.039   0.782
10193W        W82508  30.122  32.034   1.426
10194W        W82509  42.262  13.803   3.716
10195W        W82510   8.213  21.041   2.747
10196W        W82511   2.487  10.932  12.356
10197W        W82512  16.711  22.836   4.723
10198W        W82513   2.772  42.356   0.406
10199W        W82514  17.644  10.774  10.999
10200W        W82515  36.419  11.643   9.998
10201W        W82516  36.327  19.660   4.351
10202W        W82517  22.503  34.454   2.410
10203W        W82518  18.484   2.181  12.119
10204W        W82519  24.953  25.331  14.432
10205W        W82520  31.052  26.961  12.731
10206W        W82521  12.340  15.732  13.113
10207W        W82522  41.237   6.542   3.671
10208W        W82523  22.111  25.725   3.672
10209W        W82524  28.553  29.476  12.127
10210W        W82525  12.126  26.546  10.738
10211W        W82526  31.483   6.328   5.359
10212W        W82527  14.086  43.690   0.817
10213W        W82528  30.030  34.968   1.869
10214W        W82529  15.279  37.387  11.234
10215W        W82530  24.680  25.451  10.652
10216W        W82531   7.375  12.352  10.665
10217W        W82532  35.033  33.527  10.643
10218W        W82533  31.207  25.016  12.172
10219W        W82534  24.914  42.594  13.322
10220W        W82535  20.677   3.326  13.778
10221W        W82536   2.702   4.840  12.097
10222W        W82537  18.349  11.454   0.869
10223W        W82538  22.889  15.077   2.303
10224W        W82539  25.041  20.275   4.301
10225W        W82540   7.749   2.843   4.629
10226W        W82541  22.608   9.158  12.510
10227W        W82542  20.622   7.870  11.566
10228W        W82543  11.207  41.966   2.390
10229W        W82544  30.131  13.332   2.745
10230W        W82545  37.457  18.664  10.490
10231W        W82546  15.679  13.651   4.931
10232W        W82547  44.736  30.695   1.085
10233W        W82548  40.802  18.635  13.877
10234W        W82549  20.591   0.033   3.208
10235W        W82550  34.044  16.991  11.374
10236W        W82551  24.362  35.164  12.547
10237W        W82552  25.950  10.655  14.910
10238W        W82553  35.631  40.326   2.874
10239W        W82554  41.382  18.655   3.670
10240W        W82555  41.957  34.377   0.845
10241W        W82556  34.574  21.650  14.803
10242W        W82557  35.148   2.248  14.087
10243W        W82558   6.413  42.122   2.225
10244W        W82559  22.709  18.273   4.859
10245W        W82560  12.857   4.809   4.909
10246W        W82561   2.303  42.216  13.976
10247W        W82562   4.228   6.660   3.632
10248W        W82563  12.078   1.021   2.227
10249W        W82564   9.589   3.437  14.509
10250W        W82565  24.721  43.573   2.274
10251W        W82566   7.348  22.666   0.512
10252W        W82567  10.295  23.146  10.860
10253W        W82568  19.027   0.468  13.479
10254W        W82569   5.483  14.277   3.821
10255W        W82570  21.585   2.790  10.767
10256W        W82571  31.404   0.879   2.210
10257W        W82572  27.641  26.022   1.444
10258W        W82573   0.454   2.249  12.008
10259W        W82574  23.733   9.373  13.340
10260W        W82575  17.149  42.641   1.369
10261W        W82576  41.965  42.614   4.405
10262W        W82577  25.039  30.591  14.271
10263W        W82578  26.522   5.171   3.094
10264W        W82579  35.813  37.386   2.203
10265W        W82580   4.881  31.936  12.396
10266W        W82581   7.819  30.139  12.865
10267W        W82582  14.422  40.449   4.564
10268W        W82583  12.327  34.375  13.538
10269W        W82584  39.875   2.044  11.574
10270W        W82585  13.814  36.512  13.584
10271W        W82586  40.932   2.464   3.081
10272W        W82587  35.932  38.563   1.666
10273W        W82588  33.067   9.255   3.461
10274W        W82589  39.069  20.856   1.292
10275W        W82590  34.903   0.457   0.962
10276W        W82591  11.908  43.122  14.987
10277W        W82592  15.836   7.486  11.946
10278W        W82593  38.439  43.895   1.624
10279W        W82594  23.767  24.734  10.826
10280W        W82595   2.022  19.167  10.593
10281W        W82596  41.666  40.389  11.199
10282W        W82597  44.011   0.507   0.471
10283W        W82598   3.053  25.989  14.486
10284W        W82599   6.688  11.133   3.115
10285W        W82600  40.482  35.702  14.934
10286W        W82601  17.531  17.134  14.953
10287W        W82602  31.402  40.810   1.075
10288W        W82603  11.813  24.959   4.684
10289W        W82604  15.091  14.213   4.518
10290W        W82605  35.875  44.919  11.645
10291W        W82606   2.529  26.522   3.858
10292W        W82607   4.288  15.704   3.700
10293W        W82608  10.904  34.088  12.712
10294W        W82609  10.399   1.384  13.910
10295W        W82610  39.346  20.553   4.657
10296W        W82611  40.549  44.937   4.191
10297W        W82612  34.592  39.026  12.836
10298W        W82613  36.519  23.169   4.383
10299W        W82614  36.830  41.090   0.511
10300W        W82615   8.145  44.000   1.404
10301W        W82616  42.029  25.125  13.949
10302W        W82617   8.902  44.941  11.916
10303W        W82618   5.793  22.871   4.355
10304W        W82619   1.414  29.942   4.121
10305W        W82620  34.998  13.343   3.876
10306W        W82621  36.973  41.776  14.742
10307W        W82622  14.732  37.210   2.293
10308W        W82623  14.204   2.956  12.029
10309W        W82624  36.999  11.920   1.727
10310W        W82625  19.349  18.737  14.773
10311W        W82626  28.027   3.887   1.792
10312W        W82627  21.128  21.261   3.685
10313W        W82628  38.531  28.407  14.350
10314W        W82629  22.007  39.540  12.065
10315W        W82630  40.393  35.004  11.872
10316W        W82631  12.629  12.773  12.978
10317W        W82632  42.784  12.078  13.180
10318W        W82633   5.465   4.439  13.072
10319W        W82634  14.682  34.400   4.355
10320W        W82635   8.032  12.169   3.777
10321W        W82636  22.078  19.355   1.555
10322W        W82637  20.657   6.759   0.285
10323W        W82638  41.524   9.373   2.938
10324W        W82639  43.778  32.421  10.643
10325W        W82640  40.592   1.078  11.946
10326W        W82641  16.342  12.899  12.201
10327W        W82642  28.839  13.306   4.492
10328W        W82643  40.870  32.631   3.359
10329W        W82644  29.201  11.574  11.663
10330W        W82645  14.133  43.718  13.133
10331W        W82646  36.358  30.528   4.038
10332W        W82647  35.198  30.006   0.820
10333W        W82648  42.748  23.720  13.488
10334W        W82649  28.916  28.505   1.703
10335W        W82650   2.987   4.361   2.241
10336W        W82651  40.381  23.932   3.342
10337W        W82652  44.186  26.205  14.904
10338W        W82653  34.551  31.299   0.483
10339W        W82654  41.552  11.666  14.398
10340W        W82655  35.399  18.186   1.024
10341W        W82656  41.799  39.454   2.374
10342W        W82657   2.344  29.983   0.761
10343W        W82658  11.362   1.345   0.882
10344W        W82659  28.212  19.269  10.751
10345W        W82660  33.103  14.448  12.491
10346W        W82661  33.976   8.950   3.146
10347W        W82662   5.477   0.965  13.835
10348W        W82663  41.051  22.905   0.835
10349W        W82664  23.232   9.094   0.086
10350W        W82665  12.325   8.163   1.343
10351W        W82666   8.419  15.086  11.085
10352W        W82667  19.595  35.042   0.808
10353W        W82668  22.151  10.837  14.982
10354W        W82669  30.904  32.865  14.777
10355W        W82670   8.738  35.824  10.353
10356W        W82671  14.705  41.350   3.677
10357W        W82672  16.304  11.721  13.911
10358W        W82673  41.799  15.303  13.407
10359W        W82674  23.787  11.307   3.124
10360W        W82675  25.698  30.351  11.928
10361W        W82676  29.945  44.516  13.033
10362W        W82677   3.918  29.467   0.427
10363W        W82678   6.889  15.561   4.105
10364W        W82679  20.736  44.739  14.442
10365W        W82680  12.695   1.672  10.604
10366W        W82681  27.460  32.130   0.618
10367W        W82682   7.028   4.812  11.211
10368W        W82683  14.615  41.266  14.882
10369W        W82684  11.901  18.034   1.255
10370W        W82685  43.949  42.068   4.035
10371W        W82686  26.694   1.999  10.651
10372W        W82687  16.826  19.979  13.139
10373W        W82688  44.428  18.601   4.724
10374W        W82689  20.175   5.151   2.603
10375W        W82690  43.474  37.652  13.665
10376W        W82691  19.458  40.801  12.226
10377W        W82692  44.452  31.118  12.411
10378W        W82693  12.882  37.336  13.582
10379W        W82694  41.931   0.510   2.332
10380W        W82695  11.650  39.183  10.269
10381W        W82696  22.138  23.481   3.627
10382W        W82697  34.414  27.251   2.017
10383W        W82698  27.511   5.122  12.593
10384W        W82699  13.311  32.624  11.674
10385W        W82700  13.308  17.917  14.475
10386W        W82701  35.162   3.993   0.789
10387W        W82702  24.005  35.391   4.900
10388W        W82703  39.452  38.508   4.103
10389W        W82704  24.445  14.817  11.979
10390W        W82705  33.317  12.189   1.564
10391W        W82706  34.397  19.746   4.276
10392W        W82707  27.682  34.160   1.723
10393W        W82708  37.085  14.809  11.487
10394W        W82709  24.141  37.197   2.743
10395W        W82710  15.020   2.793  11.560
10396W        W82711  31.075   1.636  12.542
10397W        W82712  10.767  25.828  10.874
10398W        W82713  30.198   2.892  11.538
10399W        W82714   8.819   9.618   1.736
10400W        W82715  37.340  13.732   1.629
10401W        W82716   4.722   1.219   2.887
10402W        W82717   5.712   4.618  13.829
10403W        W82718  40.100  14.567   1.415
10404W        W82719   2.236  27.720  13.626
10405W        W82720   6.736  12.925  13.050
10406W        W82721  15.136  41.003  13.599
10407W        W82722  25.545   5.677   4.320
10408W        W82723  10.286  32.795   4.613
10409W        W82724  13.644   3.746   0.442
10410W        W82725  40.969  33.769  13.923
10411W        W82726  20.611   8.606   4.577
10412W        W82727  28.799  20.246  14.718
10413W        W82728  10.768  38.925   2.246
10414W        W82729   6.908  31.054   3.695
10415W        W82730  40.436  10.416  11.911
10416W        W82731   3.123   2.456  13.014
10417W        W82732   0.857  24.048  10.603
10418W        W82733  24.166  32.866  13.549
10419W        W82734  32.459   1.806  12.386
10420W        W82735  34.972  34.478  10.577
10421W        W82736   4.295  31.611   3.443
10422W        W82737   6.364  42.396  11.649
10423W        W82738  13.185  31.922   2.585
10424W        W82739  40.826  17.201  11.135
10425W        W82740  32.994  16.746  12.860
10426W        W82741  20.527  28.397  10.454
10427W        W82742  37.805  40.471  10.741
10428W        W82743  20.609  33.102  13.557
10429W        W82744  36.488  27.925   2.712
10430W        W82745  19.561  26.978   3.286
10431W        W82746  15.805  10.957   1.548
10432W        W82747  13.898  18.667  14.122
10433W        W82748  34.779  22.858   1.729
10434W        W82749  43.752  44.841   2.217
10435W        W82750  22.667   7.908   1.767
10436W        W82751  23.123   9.292  12.494
10437W        W82752   8.952  39.463   3.147
10438W        W82753  15.060   8.105  10.761
10439W        W82754  27.475   7.336   2.661
10440W        W82755   3.757   9.237   4.137
10441W        W82756  42.304  26.008  14.420
10442W        W82757   3.227  22.456  10.899
10443W        W82758   6.901  28.345  13.465
10444W        W82759  21.692  26.797  14.778
10445W        W82760   2.014  16.024   4.472
10446W        W82761  27.340  27.971  14.889
10447W        W82762  25.054  11.640  10.400
10448W        W82763   4.748   5.497  14.806
10449W        W82764  17.296  28.138   3.690
10450W        W82765  12.644  28.164   4.032
10451W        W82766  40.536  13.648  11.178
10452W        W82767  20.634  17.814   3.221
10453W        W82768  33.972  38.606   4.609
10454W        W82769  15.245  21.514  14.800
10455W        W82770   4.907   7.084   3.112
10456W        W82771  14.801  33.585  12.050
10457W        W82772  38.578  16.342  11.534
10458W        W82773   8.879  15.498   2.136
10459W        W82774  10.389  31.606   0.544
10460W        W82775  43.463  10.199   2.905
10461W        W82776  14.251  12.671  13.355
10462W        W82777  22.217  13.237   4.727
10463W        W82778  13.177  20.774   0.753
10464W        W82779   5.365  35.821   1.115
10465W        W82780  43.575  14.638   2.425
10466W        W82781  40.576  43.678   4.460
10467W        W82782  24.083   4.868  12.443
10468W        W82783  16.207  27.989  12.958
10469W        W82784  29.649  20.740  11.935
10470W        W82785  31.016   1.039   2.830
10471W        W82786  20.091  43.784   1.190
10472W        W82787  28.505  21.457  12.494
10473W        W82788  26.101   3.362   4.594
10474W        W82789  40.807  40.609   2.671
10475W        W82790  12.581   4.464   3.198
10476W        W82791  15.547  38.719   5.115
10477W        W82792   4.967  26.967  14.038
10478W        W82793  41.081  28.684  13.878
10479W        W82794  40.740  20.687  12.046
10480W        W82795   5.378   4.937  14.229
10481W        W82796  40.480  41.823   0.532
10482W        W82797  19.861  18.599   1.372
10483W        W82798   4.802   4.826   2.905
10484W        W82799   7.767  32.396  13.388
10485W        W82800  12.682  13.031   4.206
10486W        W82801  30.466   1.419   3.259
10487W        W82802   3.701  25.091  12.000
10488W        W82803  44.866  31.697  13.965
10489W        W82804  40.840  10.050  10.775
10490W        W82805  23.184  44.836   1.338
10491W        W82806  13.088  11.734  14.828
10492W        W82807  29.931  10.813   0.927
10493W        W82808   8.793  24.229   2.171
10494W        W82809  42.002  27.739  13.030
10495W        W82810  16.177  10.780   1.259
10496W        W82811  17.155  41.081   4.264
10497W        W82812  34.634  23.060   0.376
10498W        W82813   3.703  29.007  12.118
10499W        W82814  32.064   0.713  12.122
10500W        W82815   5.691  14.247  14.487
10501W        W82816  11.203   6.254  14.428
10502W        W82817   0.174  38.896   4.267
10503W        W82818   2.942   8.717  13.482
10504W        W82819  32.052   6.111   0.743
10505W        W82820  27.189   4.767  12.059
10506W        W82821  24.915  10.537   0.053
10507W        W82822  26.679  28.709  11.446
10508W        W82823   3.508  14.094  12.020
10509W        W82824  44.826  20.984   2.279
10510W        W82825  41.218   4.425  12.945
10511W        W82826  20.812  39.960  14.861
10512W        W82827  18.211  28.908   0.992
10513W        W82828  27.647  21.726  11.168
10514W        W82829  19.635  31.615   1.377
10515W        W82830  23.470  10.415   1.810
10516W        W82831   8.102  31.422   3.740
10517W        W82832  31.507  27.001  12.455
10518W        W82833   3.380  25.648   3.218
10519W        W82834  30.544  37.588   1.483
10520W        W82835  40.859  41.231   1.014
10521W        W82836   1.937   1.842   4.894
10522W        W82837  21.275  15.835   2.178
10523W        W82838  12.289  32.179   3.765
10524W        W82839   6.764   3.483   1.458
10525W        W82840  25.254  42.844  12.016
10526W        W82841   1.524  15.790  12.114
10527W        W82842  34.401  28.541   4.705
10528W        W82843  21.913  35.811   1.331
10529W        W82844  32.580  18.111  13.499
10530W        W82845   5.802  33.342   0.439
10531W        W82846   6.510  29.225   1.356
10532W        W82847   9.732   5.746  12.066
10533W        W82848  19.582  32.879   1.644
10534W        W82849  11.228   1.015  14.512
10535W        W82850  14.616  24.976   4.064
10536W        W82851  32.088  37.253  10.375
10537W        W82852  27.049  25.553   3.121
10538W        W82853   9.666  26.534   3.604
10539W        W82854  13.581  27.593   3.834
10540W        W82855   5.663  38.896   2.163
10541W        W82856  39.806   0.956   2.924
10542W        W82857  35.898   3.728   3.820
10543W        W82858  40.112  12.629   2.681
10544W        W82859   6.915  36.614   1.186
10545W        W82860   2.171  22.057   2.382
10546W        W82861  33.458  29.295  13.496
10547W        W82862  33.177  23.280  13.450
10548W        W82863  35.961  40.138  13.109
10549W        W82864  35.211   0.721   4.302
10550W        W82865  31.839   4.921   2.198
10551W        W82866  13.777  32.658  14.348
10552W        W82867  22.664  39.054   3.094
10553W        W82868  17.398  40.444   0.767
10554W        W82869   3.665  22.240   1.977
10555W        W82870  18.652  44.936  12.167
10556W        W82871  37.980  16.313   2.827
10557W        W82872  44.538  19.195   4.147
10558W        W82873  11.216  22.017  11.464
10559W        W82874  28.463  24.816   4.786
10560W        W82875  37.117  39.934  11.900
10561W        W82876  39.252  25.321  12.527
10562W        W82877  15.068  44.082  10.333
10563W        W82878  33.411   0.974  11.563
10564W        W82879  41.241   2.458   4.639
10565W        W82880   5.933   9.276  12.089
10566W        W82881  37.647  26.043  11.577
10567W        W82882   5.927  22.073   4.582
10568W        W82883  37.849  27.254   2.679
10569W        W82884  24.433  42.865   4.091
10570W        W82885  22.595   2.274   2.678
10571W        W82886  32.174  20.325  12.796
10572W        W82887  39.325  37.545  10.643
10573W        W82888  41.024   7.956   2.244
10574W        W82889  24.223  24.624  12.553
10575W        W82890  17.867   5.882   4.228
10576W        W82891  44.976  18.667  13.870
10577W        W82892  17.355  22.525   0.118
10578W        W82893  30.260  33.956  12.588
10579W        W82894  10.973  38.431   2.142
10580W        W82895  24.695   6.755  10.494
10581W        W82896  24.691   3.646   2.298
10582W        W82897  40.399  30.659   2.380
10583W        W82898  19.279  30.023  11.743
10584W        W82899  23.954  35.963   1.254
10585W        W82900  24.734  27.000   3.143
10586W        W82901  27.939  28.525   1.390
10587W        W82902  11.843  40.168  13.906
10588W        W82903   4.340  11.859  14.092
10589W        W82904   0.226   3.846   1.320
10590W        W82905  37.418  14.676   3.125
10591W        W82906  36.634   2.285   4.211
10592W        W82907   2.334  35.831   0.895
10593W        W82908  25.685  13.772  14.928
10594W        W82909  22.739  25.028   5.102
10595W        W82910  22.514  38.305  11.541
10596W        W82911  23.990  10.328   1.770
10597W        W82912  27.036  33.690   4.572
10598W        W82913  25.067   9.812   2.677
10599W        W82914  24.947  23.945  12.302
10600W        W82915  34.402   8.467  12.641
10601W        W82916   4.420   7.751  11.147
10602W        W82917  39.396   6.490  11.568
10603W        W82918  42.971  26.498  13.488
10604W        W82919   4.928  42.049   3.715
10605W        W82920   8.268  30.864  12.008
10606W        W82921  30.547  15.853   0.303
10607W        W82922  29.488  16.101  14.786
10608W        W82923  21.786  43.524  11.138
10609W        W82924  44.967  21.224   0.243
10610W        W82925  12.635  39.298  11.971
10611W        W82926  25.972  19.131  13.397
10612W        W82927  35.570  16.252   1.727
10613W        W82928  32.114  43.922  12.993
10614W        W82929  32.167  28.653   0.302
10615W        W82930  25.079  30.895  14.702
10616W        W82931  34.830   5.432  13.808
10617W        W82932  30.724  32.154  14.776
10618W        W82933  15.735  11.430   2.328
10619W        W82934  19.607  27.535   4.667
10620W        W82935   9.372   9.757   1.255
10621W        W82936   2.437  10.679  14.862
10622W        W82937  21.240   2.461   3.895
10623W        W82938  16.102  15.608   0.793
10624W        W82939  11.597  13.812  12.611
10625W        W82940  15.830  26.021   2.888
10626W        W82941  18.615  44.549   2.851
10627W        W82942   1.751  26.544   1.752
10628W        W82943  10.119  35.345   0.796
10629W        W82944  31.965   3.474  12.576
10630W        W82945  42.172  19.739   5.224
10631W        W82946   0.972  39.005  10.356
10632W        W82947  17.786  10.358  11.459
10633W        W82948  35.606   7.083  12.462
10634W        W82949  38.277  26.192   3.150
10635W        W82950  33.576   6.746  13.511
10636W        W82951  25.081   9.959   0.689
10637W        W82952  33.073  34.523   1.821
10638W        W82953   6.868  18.335  14.365
10639W        W82954  41.271   6.784   2.681
10640W        W82955  26.895  13.212  10.692
10641W        W82956  18.258  18.546  13.895
10642W        W82957  26.000  25.322   2.814
10643W        W82958  44.799  22.027  11.505
10644W        W82959   2.849  16.817  14.316
10645W        W82960  31.952   0.872  10.327
10646W        W82961  33.105  41.310  11.259
10647W        W82962  35.132  18.294   2.232
10648W        W82963  30.636  17.571   0.567
10649W        W82964   7.880  19.825  10.668
10650W        W82965  15.013   6.805   1.361
10651W        W82966  15.760   6.746  10.875
10652W        W82967   8.853   2.408   1.409
10653W        W82968  22.021  16.206  14.941
10654W        W82969  21.791   8.385  11.533
10655W        W82970  37.372   1.180  14.775
10656W        W82971  25.661  32.390   2.725
10657W        W82972  36.662   8.265  14.363
10658W        W82973  30.855  34.208  14.530
10659W        W82974  43.388  25.502   1.299
10660W        W82975   0.634  12.237  11.638
10661W        W82976   7.446  43.952  10.549
10662W        W82977  40.550  32.537   2.779
10663W        W82978   1.843  33.359   3.739
10664W        W82979  25.134  32.649  12.164
10665W        W82980   5.514  12.926   4.982
10666W        W82981  42.470   4.649   0.935
10667W        W82982  16.716  31.618   9.600
10668W        W82983  21.319  32.860   9.999
10669W        W82984  30.702  41.025   0.020
10670W        W82985  21.922  21.713   5.530
10671W        W82986   9.649  28.589  14.773
10672W        W82987  14.045  23.708  11.948
10673W        W82988  27.066   9.085   3.631
10674W        W82989  40.897  22.484  12.420
10675W        W82990  19.944  30.605  11.243
10676W        W82991   4.809  15.196   0.460
10677W        W82992   7.184   8.843   0.508
10678W        W82993  12.259  20.930   1.749
10679W        W82994   2.218   6.267  14.022
10680W        W82995  24.536  35.572   0.194
10681W        W82996  18.561  31.727  13.357
10682W        W82997  27.757   2.801  14.807
10683W        W82998  44.513  12.517  11.798
10684W        W82999  25.575  37.468  12.960
10685W        W83000  21.588  20.180  13.339
10686W        W83001  21.262  37.218  12.067
10687W        W83002  32.894  42.360   4.856
10688W        W83003   2.066  10.372  10.323
10689W        W83004  34.465  42.902   4.827
10690W        W83005  22.156  10.131   0.183
10691W        W83006  28.089   3.924  13.353
10692W        W83007  26.480  22.951  14.642
10693W        W83008  25.112  13.471   4.019
10694W        W83009  38.861  13.383   4.339
10695W        W83010   8.249  10.813  10.788
10696W        W83011  12.678  41.104  11.045
10697W        W83012  36.024  16.360   3.019
10698W        W83013   8.407  25.499  10.697
10699W        W83014  10.578  44.476  13.943
10700W        W83015  30.823  16.381   3.580
10701W        W83016  15.152  24.813  14.817
10702W        W83017   2.816  11.220  14.338
10703W        W83018  10.750   1.665  11.646
10704W        W83019   9.466  27.045   0.811
10705W        W83020  39.289   7.706  10.720
10706W        W83021  12.757  31.472   1.960
10707W        W83022  25.471  21.929   2.195
10708W        W83023  39.594  10.631  13.014
10709W        W83024  32.498  44.812  12.082
10710W        W83025  41.754  30.726   3.638
10711W        W83026  11.264  39.279  11.924
10712W        W83027  34.573  36.810   1.323
10713W        W83028  41.647  27.186  13.532
10714W        W83029  42.348   4.305  12.592
10715W        W83030  12.232  26.738   4.751
10716W        W83031  22.045  41.344   3.024
10717W        W83032  22.529   4.967  10.702
10718W        W83033  11.121   3.974   0.091
10719W        W83034  40.482  10.614  14.126
10720W        W83035  42.224   3.785   3.354
10721W        W83036  24.209  41.998  11.121
10722W        W83037  36.896  10.137  11.057
10723W        W83038   5.927  12.216  11.671
10724W        W83039  12.141   6.844   4.440
10725W        W83040  20.843  23.246   3.244
10726W        W83041  28.205   8.868  11.671
10727W        W83042  16.948  33.633  10.639
10728W        W83043  35.533  16.703  10.724
10729W        W83044  22.217  40.382   3.111
10730W        W83045  19.793  37.704  12.020
10731W        W83046  21.558  36.647  10.820
10732W        W83047  42.499  32.142  10.633
10733W        W83048  28.284  36.445   1.854
10734W        W83049  13.360  44.804   0.029
10735W        W83050   7.636  29.665   1.737
10736W        W83051   3.944   7.177  12.374
10737W        W83052  43.313   4.469   2.657
10738W        W83053   0.318   9.603   5.503
10739W        W83054  33.011  19.602   0.953
10740W        W83055  40.337   2.322   4.801
10741W        W83056   7.090   1.305   0.676
10742W        W83057   9.765  37.503  13.950
10743W        W83058  17.255  10.500  12.092
10744W        W83059   8.393  14.113   4.400
10745W        W83060  27.198  42.887  12.985
10746W        W83061  29.549  20.184  12.488
10747W        W83062  23.637  25.069   4.184
10748W        W83063  12.219  32.908   4.705
10749W        W83064  34.018  25.057  12.847
10750W        W83065  23.687  18.803   1.254
10751W        W83066   6.000  16.141  13.453
10752W        W83067  26.702   9.179  12.445
10753W        W83068  12.407   8.801  11.590
10754W        W83069  35.987  36.328  14.478
10755W        W83070  41.206  29.687   1.383
10756W        W83071  10.138  37.019   0.298
10757W        W83072  42.082  10.034   3.361
10758W        W83073  44.217  31.116  12.864
10759W        W83074  24.115  43.021  14.416
10760W        W83075   6.812   4.535  11.577
10761W        W83076  22.157   0.828  13.319
10762W        W83077  23.191  24.698  11.537
10763W        W83078  11.780  33.405   2.260
10764W        W83079  20.029  41.022   1.215
10765W        W83080  13.292  39.524  12.460
10766W        W83081  32.270  31.696  13.949
10767W        W83082  35.139   6.385   3.656
10768W        W83083   5.870  29.762  12.702
10769W        W83084  42.787  44.084  10.676
10770W        W83085  29.624  34.598  12.948
10771W        W83086  37.793  17.308   0.729
10772W        W83087  18.565   5.663  12.544
10773W        W83088  36.640  13.158  11.691
10774W        W83089   1.271  44.387  13.821
10775W        W83090  30.680  20.148  12.009
10776W        W83091  22.742   2.871   4.890
10777W        W83092  14.315  32.492   0.261
10778W        W83093  33.412  42.046  11.550
10779W        W83094   1.389  21.130  11.564
10780W        W83095  23.151  44.267  11.505
10781W        W83096   3.746  28.697   2.324
10782W        W83097  40.351  39.312  11.572
10783W        W83098  38.812  16.215  14.963
10784W        W83099  19.255   5.923   1.149
10785W        W83100  26.248  20.280   3.835
10786W        W83101  42.235  21.913  14.445
10787W        W83102  32.716   3.774  12.208
10788W        W83103   9.601  42.892  12.970
10789W        W83104  25.020  15.111  11.553
10790W        W83105   6.275  29.550   2.843
10791W        W83106  28.686  30.460  12.083
10792W        W83107  11.729   8.303  14.450
10793W        W83108   7.149  35.481  11.211
10794W        W83109  38.011  44.936   0.873
10795W        W83110  41.479  11.412  10.544
10796W        W83111   9.287  11.084   3.776
10797W        W83112  34.849  27.055   1.809
10798W        W83113   0.302   7.877  12.353
10799W        W83114   6.433  22.563   5.073
10800W        W83115  34.373  43.381   1.288
10801W        W83116   2.955  28.020   0.706
10802W        W83117  34.004  17.388  14.175
10803W        W83118  16.113  39.902   0.761
10804W        W83119  40.316  39.557  13.425
10805W        W83120  27.225  27.223   4.155
10806W        W83121   9.092  16.740  14.688
10807W        W83122  20.777  28.137   3.494
10808W        W83123  23.021  14.079  11.076
10809W        W83124   2.304  32.655   3.222
10810W        W83125  31.908   9.780  10.541
10811W        W83126   3.354   2.198   2.146
10812W        W83127  18.893   2.797   0.515
10813W        W83128  24.189  38.344   4.049
10814W        W83129   5.998  24.634   2.399
10815W        W83130  35.833   6.014   1.891
10816W        W83131  21.320  19.095  11.112
10817W        W83132  23.432  11.735  14.847
10818W        W83133  17.625  38.068   3.289
10819W        W83134  12.369  10.699   0.404
10820W        W83135  39.072   7.362   4.641
10821W        W83136  23.308  44.065  12.512
10822W        W83137  16.551   7.864  12.358
10823W        W83138  11.099  24.048  11.577
10824W        W83139  44.104   5.342  10.617
10825W        W83140  15.708   7.259  14.004
10826W        W83141  40.105   6.766  13.230
10827W        W83142  28.943  20.736  12.571
10828W        W83143  21.268  20.531  13.142
10829W        W83144  29.660  13.376  14.328
10830W        W83145  37.409  22.325  11.140
10831W        W83146  27.445  15.264  12.992
10832W        W83147   4.957  10.237  12.961
10833W        W83148  36.403  21.647  14.887
10834W        W83149  15.251  10.131   2.295
10835W        W83150  22.826  18.206  12.290
10836W        W83151  34.600  31.622   0.891
10837W        W83152  26.041   7.443   2.936
10838W        W83153  44.429  33.027   1.941
10839W        W83154  18.492  39.920   4.974
10840W        W83155  11.275  18.697  13.002
10841W        W83156  22.719  28.901   1.865
10842W        W83157   8.215  24.852   1.705
10843W        W83158  20.727  27.742   1.916
10844W        W83159   4.741  43.821   0.166
10845W        W83160  42.624  12.648   3.614
10846W        W83161  13.874  38.862   1.020
10847W        W83162  37.776  32.598  12.139
10848W        W83163  31.733  24.703  11.167
10849W        W83164  14.133   9.556   4.750
10850W        W83165  39.002  43.638  13.466
10851W        W83166  31.162  32.421  14.934
10852W        W83167  36.621  29.359  11.607
10853W        W83168  33.869  13.836   1.820
10854W        W83169  28.062  11.191  13.816
10855W        W83170  23.191   9.973  14.924
10856W        W83171  17.788  20.073   2.805
10857W        W83172  30.594  21.005   3.913
10858W        W83173  42.426   3.004  14.448
10859W        W83174  15.319  25.413  13.543
10860W        W83175  21.294   2.036   0.380
10861W        W83176   6.773  16.327  10.655
10862W        W83177  15.309  22.387  11.538
10863W        W83178  18.088  25.795   1.836
10864W        W83179  33.590  16.834  11.559
10865W        W83180  38.376   1.752  11.187
10866W        W83181  30.685  43.314  10.568
10867W        W83182  39.248  31.970  14.235
10868W        W83183  35.571   6.752  14.471
10869W        W83184  25.253  35.366  13.344
10870W        W83185  44.258  36.045   0.981
10871W        W83186   3.236  37.783  11.641
10872W        W83187  21.004  23.164   2.218
10873W        W83188  16.152  40.460   3.743
10874W        W83189   6.881  29.257   1.724
10875W        W83190   1.598  25.640   1.938
10876W        W83191  29.529  16.714  13.966
10877W        W83192  11.697  34.635  12.833
10878W        W83193  22.463  43.310  14.521
10879W        W83194  31.143  37.329  12.302
10880W        W83195   7.869  13.332   1.706
10881W        W83196  32.925  10.534  14.793
10882W        W83197   4.182  12.158   1.396
10883W        W83198  14.643  36.611   4.203
10884W        W83199   3.783  16.034   0.616
10885W        W83200  37.044  16.814  12.297
10886W        W83201  20.452  31.527  13.243
10887W        W83202  17.020  32.752   4.084
10888W        W83203  32.683  20.664  12.065
10889W        W83204  36.806  18.256   0.948
10890W        W83205  44.808  15.001   1.134
10891W        W83206  19.745  11.882   1.811
10892W        W83207  24.548  42.257   2.489
10893W        W83208   8.879  14.950   1.461
10894W        W83209  18.090   3.825  12.434
10895W        W83210  17.690   3.456   3.209
10896W        W83211   7.590  15.191  11.440
10897W        W83212  17.366  23.023  12.247
10898W        W83213   7.268  38.069   0.814
10899W        W83214  31.892  30.904  12.984
10900W        W83215  41.500  24.651   2.795
10901W        W83216  24.622  29.437   4.532
10902W        W83217  17.677  10.798   3.298
10903W        W83218  27.497   7.195   1.638
10904W        W83219  41.043  16.610   4.179
10905W        W83220  37.155  34.504   1.490
10906W        W83221  14.209  11.704  14.795
10907W        W83222  23.096  19.023  11.982
10908W        W83223  25.933  40.457  13.627
10909W        W83224  10.219  24.027   4.636
10910W        W83225  39.898  21.662  11.084
10911W        W83226  42.337   5.669  10.851
10912W        W83227  33.373  38.630  14.128
10913W        W83228  33.218  23.653  11.111
10914W        W83229   3.240   5.891  13.908
10915W        W83230  12.151  15.837   1.004
10916W        W83231  12.795  31.799   3.276
10917W        W83232  12.388  19.747   0.923
10918W        W83233  18.266  35.604  14.017
10919W        W83234   3.711  14.321  13.358
10920W        W83235  37.970  16.268  14.227
10921W        W83236  21.114  42.817  13.376
10922W        W83237  44.227   3.916  13.451
10923W        W83238  37.951   8.356   2.321
10924W        W83239   6.215  17.774  13.579
10925W        W83240  22.968  35.937  14.441
10926W        W83241   8.984  38.016   1.182
10927W        W83242  14.339   0.494  14.915
10928W        W83243  42.722  12.097  10.292
10929W        W83244  13.725  10.789  11.987
10930W        W83245  44.493  25.092   0.427
10931W        W83246  35.290  17.744  11.402
10932W        W83247  13.219  34.000  14.765
10933W        W83248   9.193  17.104   1.209
10934W        W83249  11.181  10.839   1.326
10935W        W83250   4.435  43.971  14.083
10936W        W83251   7.711  11.756  13.860
10937W        W83252  10.851   8.398   1.302
10938W        W83253  29.584  34.531  10.728
10939W        W83254  28.195   5.883   3.865
10940W        W83255  36.998   9.710   0.061
10941W        W83256  15.033  28.515  10.510
10942W        W83257  20.820  22.551  14.969
10943W        W83258  19.082  36.555  12.293
10944W        W83259  33.404  22.465  14.521
10945W        W83260   6.766  33.887   4.609
10946W        W83261  39.947   5.935  10.737
10947W        W83262   2.210  32.088  11.196
10948W        W83263  12.713  38.977  14.508
10949W        W83264   8.831  26.671   1.923
10950W        W83265  27.123   1.380   2.950
10951W        W83266   5.526  32.984   3.216
10952W        W83267  41.851  30.558   4.125
10953W        W83268  23.073  43.075   4.080
10954W        W83269  10.106   5.304   2.839
10955W        W83270   5.147  35.100  14.307
10956W        W83271  29.665  19.558   0.433
10957W        W83272  44.852  13.127   3.797
10958W        W83273   8.448  40.664  11.018
10959W        W83274   1.448   5.373   2.367
10960W        W83275  37.894  21.187   0.973
10961W        W83276   0.833  38.176  13.823
10962W        W83277  31.658  13.731   4.517
10963W        W83278   1.994  24.978   3.285
10964W        W83279  42.323  14.295   3.177
10965W        W83280  38.752  31.148  10.244
10966W        W83281  42.192  12.328  14.384
10967W        W83282  15.733  41.407   4.636
10968W        W83283   4.764   2.686  11.200
10969W        W83284   3.349  10.552   0.875
10970W        W83285  20.509  44.159  14.542
10971W        W83286   4.139  10.725   4.553
10972W        W83287  11.881   9.632   3.642
10973W        W83288  23.996  17.796  12.954
10974W        W83289  28.361  43.286  12.469
10975W        W83290  34.129  23.422   4.086
10976W        W83291  19.611  41.082   5.335
10977W        W83292  17.246  44.410  11.024
10978W        W83293  33.330  12.709   2.697
10979W        W83294   3.314  15.921   0.825
10980W        W83295  37.449  41.233  10.326
10981W        W83296  28.976   2.947   0.559
10982W        W83297   5.336  43.758   3.302
10983W        W83298  32.069  17.526  12.493
10984W        W83299  35.887  36.628   4.220
10985W        W83300  37.378  15.549  13.797
10986W        W83301  29.103  37.859  10.586
10987W        W83302  37.597  37.560  12.959
10988W        W83303  11.589  32.893  11.149
10989W        W83304  22.507  21.131   5.147
10990W        W83305  13.232  23.512  13.019
10991W        W83306  10.402  30.801   3.740
10992W        W83307  18.495  39.504   1.738
10993W        W83308  21.738  43.722   3.209
10994W        W83309  25.951  30.042   4.630
10995W        W83310  11.205  19.443   9.800
10996W        W83311  15.776  28.338   4.712
10997W        W83312   2.648   3.330  10.675
10998W        W83313  21.182  43.302  13.172
10999W        W83314  20.505  33.486   0.552
11000W        W83315  42.055  32.972  12.188
11001W        W83316  21.471  35.540  12.816
11002W        W83317   5.825  24.961  11.851
11003W        W83318  42.577  23.937   4.051
11004W        W83319  36.597   4.647  11.945
11005W        W83320  41.550  12.827   3.129
11006W        W83321  15.170  36.021   0.462
11007W        W83322  20.670  13.128   1.110
11008W        W83323  23.082   2.848  13.858
11009W        W83324  13.289  29.309  14.362
11010W        W83325  31.481  12.592   2.389
11011W        W83326  16.760  20.543  14.507
11012W        W83327  43.405  27.113   1.949
11013W        W83328  30.486  42.027   4.219
11014W        W83329  16.114  43.713  11.628
11015W        W83330  44.215  15.543   1.748
11016W        W83331   6.890  40.597   0.216
11017W        W83332  41.405  39.214   4.462
11018W        W83333  40.643  34.948  10.586
11019W        W83334  25.133  21.650   0.361
11020W        W83335  22.643  37.850   2.866
11021W        W83336  34.548   4.491   1.291
11022W        W83337  25.910  32.625  11.835
11023W        W83338  14.799  30.956   1.869
11024W        W83339   9.145  10.403   2.965
11025W        W83340  12.062   7.603  11.072
11026W        W83341   1.924  16.842  14.044
11027W        W83342  12.151  13.730   2.708
11028W        W83343   5.025  32.600  14.465
11029W        W83344  35.617   5.836  11.510
11030W        W83345  13.832  37.800  12.930
11031W        W83346  34.920  38.392   3.641
11032W        W83347  44.439  25.229  12.946
11033W        W83348  19.057  43.468   4.819
11034W        W83349  28.127  31.956  13.485
11035W        W83350   6.500  35.498  14.825
11036W        W83351   7.622  21.227   1.435
11037W        W83352  28.589  13.878  11.935
11038W        W83353  21.295  27.582  13.353
11039W        W83354  23.605  19.467  10.145
11040W        W83355  18.271  13.288   1.714
11041W        W83356  43.238  35.321  11.964
11042W        W83357  27.621  15.018   4.539
11043W        W83358  44.019   0.904   2.598
11044W        W83359  24.690  11.581  11.578
11045W        W83360   4.354  42.206  11.109
11046W        W83361  19.557   1.302   3.909
11047W        W83362  29.979   4.729   2.567
11048W        W83363  15.762  35.472  13.796
11049W        W83364  30.976  39.259   3.563
11050W        W83365   8.865  12.261   0.909
11051W        W83366  17.535  30.555  10.004
11052W        W83367  32.014  29.004   0.701
11053W        W83368   7.568  41.587  11.632
11054W        W83369  39.384   6.032  12.870
11055W        W83370  33.330  21.938   5.056
11056W        W83371  28.456   9.132   0.456
11057W        W83372  14.738  13.705   1.275
11058W        W83373  36.409  24.626   0.840
11059W        W83374  37.618  44.478  11.278
11060W        W83375  24.064   3.743  12.585
11061W        W83376  12.818  29.960   1.799
11062W        W83377  25.743  26.654  14.599
11063W        W83378  15.548  37.462  10.742
11064W        W83379  14.716  27.562   3.359
11065W        W83380  15.167  38.923   2.633
11066W        W83381  14.447   8.637   0.856
11067W        W83382  20.258  25.139   0.458
11068W        W83383  12.613   1.043   4.221
11069W        W83384  10.644  41.464  13.488
11070W        W83385  12.199   6.666   1.499
11071W        W83386   6.427  41.302   0.008
11072W        W83387  44.253  17.623   3.871
11073W        W83388  24.995  34.006  12.806
11074W        W83389  20.832  13.119  11.559
11075W        W83390  11.252  11.645   2.270
11076W        W83391  26.073   1.997   3.970
11077W        W83392  28.086  20.215  12.553
11078W        W83393   7.477   6.559   1.250
11079W        W83394  13.347  18.332   0.322
11080W        W83395  27.585  20.546   3.284
11081W        W83396  17.620  30.826   0.268
11082W        W83397  43.153  42.276  13.321
11083W        W83398  30.166  25.015   1.426
11084W        W83399  21.133  14.847   2.285
11085W        W83400  41.450  30.510  12.991
11086W        W83401  40.408   3.684  12.514
11087W        W83402   7.764  14.748  14.783
11088W        W83403  23.196  35.921  13.095
11089W        W83404  38.797  41.446  11.633
11090W        W83405   6.300   0.526  13.044
11091W        W83406   3.306  20.334  14.905
11092W        W83407  30.436   2.056  11.253
11093W        W83408   5.713   9.381  10.505
11094W        W83409  18.266   6.415  14.004
11095W        W83410  20.713  13.561   4.621
11096W        W83411  12.450  31.925  13.878
11097W        W83412  24.223   0.957   1.853
11098W        W83413  28.514  37.959   1.497
11099W        W83414  28.857   4.890   5.525
11100W        W83415   2.009  31.632   2.669
11101W        W83416  11.139  20.166   4.133
11102W        W83417  30.024  11.408  10.634
11103W        W83418  28.143   4.383  13.605
11104W        W83419  43.965  11.905  14.390
11105W        W83420  13.160  33.523  14.534
11106W        W83421  35.841  33.996  12.860
11107W        W83422  30.527  43.906   0.220
11108W        W83423  19.650  30.008   0.297
11109W        W83424  19.891  11.327   5.616
11110W        W83425  33.425  21.165  11.525
11111W        W83426  14.217   5.905  13.421
11112W        W83427  32.311   3.728  13.550
11113W        W83428  13.553  33.484  13.875
11114W        W83429  16.950  15.104  11.783
11115W        W83430  36.056  35.010   2.651
11116W        W83431  19.348  14.224   1.169
11117W        W83432  12.119  39.943   1.249
11118W        W83433  33.455  29.494  11.428
11119W        W83434   4.866  31.624  11.414
11120W        W83435   2.688   3.186   1.245
11121W        W83436  14.680  27.882   1.295
11122W        W83437  26.073  23.946   1.476
11123W        W83438  35.135   5.861  11.263
11124W        W83439  32.097  11.776  14.822
11125W        W83440  13.203  32.813   2.585
11126W        W83441  34.464  36.078  13.917
11127W        W83442   5.474  41.837  10.761
11128W        W83443  10.657  34.567   2.789
11129W        W83444  25.550  10.169   4.276
11130W        W83445  38.401  29.179   4.595
11131W        W83446  32.708  22.075  11.872
11132W        W83447   6.702  11.075  14.213
11133W        W83448  27.948  21.551  12.762
11134W        W83449  28.941   0.702  11.532
11135W        W83450  23.512  29.877  11.621
11136W        W83451  16.805  37.827   0.942
11137W        W83452  34.754   4.317   0.799
11138W        W83453  21.730  34.637  12.964
11139W        W83454  23.807  25.388  13.923
11140W        W83455   0.270  30.518   3.733
11141W        W83456  36.609  10.172  12.932
11142W        W83457   9.696  27.290  13.048
11143W        W83458  23.233   2.949   0.809
11144W        W83459  12.293  42.835   0.907
11145W        W83460  18.143  44.392   1.841
11146W        W83461  18.845  36.300   5.094
11147W        W83462  24.818  12.890   3.733
11148W        W83463   3.466   8.923   2.253
11149W        W83464  22.174  37.739   2.674
11150W        W83465  33.910   4.944   0.794
11151W        W83466   9.618  16.217   2.892
11152W        W83467  35.963  28.494   2.235
11153W        W83468  21.755  34.920  14.558
11154W        W83469  41.413  13.994  14.517
11155W        W83470  11.862   5.031   3.715
11156W        W83471  20.088  33.759  13.872
11157W        W83472  25.524  16.694  12.075
11158W        W83473  20.199  30.414  11.635
11159W        W83474   5.376  20.237  13.042
11160W        W83475  28.188  17.784   4.637
11161W        W83476   2.260   7.382   1.949
11162W        W83477  34.721  14.523  14.533
11163W        W83478   1.989  43.423   4.852
11164W        W83479  20.183  39.446   4.132
11165W        W83480  11.517  32.020   2.512
11166W        W83481  41.519   0.427   1.785
11167W        W83482  42.977  22.089   3.819
11168W        W83483  36.025  34.926   1.721
11169W        W83484  19.046  35.046  11.511
11170W        W83485  13.210  25.593   2.492
11171W        W83486  31.107  11.476  13.104
11172W        W83487  13.796  31.087   0.387
11173W        W83488  19.103  24.651  11.761
11174W        W83489  36.488  21.435   1.581
11175W        W83490  32.126  11.601  12.793
11176W        W83491  37.287  12.316   0.506
11177W        W83492   0.791  43.325   1.928
11178W        W83493  16.705  37.817  12.881
11179W        W83494   9.332   8.116   3.168
11180W        W83495  16.739  11.316  14.757
11181W        W83496   9.456  43.219   0.450
11182W        W83497   5.568  23.773   0.474
11183W        W83498   6.930  43.427  13.275
11184W        W83499   1.432  41.394   3.951
11185W        W83500   2.149  37.553  12.958
11186W        W83501  11.240   1.218   4.030
11187W        W83502   1.341  32.470   4.896
11188W        W83503  36.573  23.339   2.774
11189W        W83504  43.326  18.515   5.022
11190W        W83505  28.532  23.424   4.515
11191W        W83506   4.794  13.951   4.195
11192W        W83507  33.400  39.824   4.864
11193W        W83508  37.994  42.055  12.149
11194W        W83509   8.531   9.177   1.345
11195W        W83510  23.768   5.034  14.839
11196W        W83511  15.746  12.464  10.028
11197W        W83512  29.345   7.605   2.707
11198W        W83513  12.233  43.837  14.514
11199W        W83514  36.411  31.438   1.439
11200W        W83515  22.887  25.434   1.789
11201W        W83516  12.489  23.473  12.103
11202W        W83517   5.751  44.895  10.667
11203W        W83518  42.613  25.114   0.430
11204W        W83519  31.026   6.610   1.620
11205W        W83520   0.541   2.279  14.863
11206W        W83521  28.664  41.521  10.524
11207W        W83522  44.978  37.129  13.716
11208W        W83523  13.655  10.301  11.229
11209W        W83524   5.417  19.231   0.345
11210W        W83525  44.093  17.344   4.620
11211W        W83526  30.514  12.719  13.953
11212W        W83527  31.341  44.066  14.943
11213W        W83528  28.049   8.109  10.615
11214W        W83529  33.480  15.726   0.991
11215W        W83530  20.611  30.539  11.321
11216W        W83531  19.970  24.500   4.917
11217W        W83532  27.031   9.428  11.085
11218W        W83533   9.117  41.865  11.200
11219W        W83534  14.548  11.453   1.746
11220W        W83535   8.725  19.795  12.018
11221W        W83536  22.723  30.773  14.397
11222W        W83537  13.734   7.272  13.006
11223W        W83538  17.620   2.921  13.480
11224W        W83539  24.988  27.701  11.520
11225W        W83540   5.580   1.623  13.281
11226W        W83541  40.795   5.701   1.629
11227W        W83542  17.786  43.957   0.286
11228W        W83543  10.376  38.776   3.941
11229W        W83544  42.294  27.846   4.188
11230W        W83545  33.950  30.974  10.585
11231W        W83546  19.755  30.638   1.841
11232W        W83547   7.055  27.859  14.841
11233W        W83548  42.496  38.874  12.790
11234W        W83549  37.512  25.820   3.245
11235W        W83550  20.064  23.709   2.923
11236W        W83551  36.059  18.274   2.131
11237W        W83552  33.158  40.315   1.769
11238W        W83553  42.768   8.206  11.921
11239W        W83554  39.264  15.500   2.657
11240W        W83555  27.423  13.134  13.440
11241W        W83556  24.574   2.188  12.513
11242W        W83557  29.964   2.193  12.378
11243W        W83558  21.412  24.630  10.475
11244W        W83559  42.595   1.806  14.868
11245W        W83560  17.313  14.890   3.284
11246W        W83561  12.612  28.251  11.293
11247W        W83562  23.473  24.426  13.851
11248W        W83563  34.846  39.376  11.439
11249W        W83564   3.353  42.466   4.557
11250W        W83565  34.703   9.718   2.833
11251W        W83566   8.078  40.533  13.584
11252W        W83567  40.048  34.082  12.135
11253W        W83568  28.270  33.031   3.579
11254W        W83569  12.158   2.708   5.048
11255W        W83570  32.107   3.820   0.790
11256W        W83571   3.808   7.249   3.302
11257W        W83572  35.333  32.145  12.844
11258W        W83573  32.540  35.359   4.721
11259W        W83574   0.258  24.645   0.236
11260W        W83575  43.387  22.739   3.937
11261W        W83576   3.342  42.061   4.200
11262W        W83577   7.876  43.125  13.908
11263W        W83578   9.823  44.392  11.589
11264W        W83579  22.711  35.366   1.867
11265W        W83580  44.823   6.396  14.260
11266W        W83581  28.469  24.386   2.187
11267W        W83582  25.302   9.802  11.397
11268W        W83583  23.244  11.459   2.342
11269W        W83584  24.741  14.294  12.472
11270W        W83585  43.283  15.621   0.832
11271W        W83586  20.027   5.743  13.785
11272W        W83587   5.494  39.769   1.658
11273W        W83588  15.298   5.832  12.120
11274W        W83589   9.656  30.913  13.048
11275W        W83590  26.473  36.335  13.407
11276W        W83591  41.508  14.231  14.966
11277W        W83592  26.523  39.861  14.890
11278W        W83593   6.838  10.633  12.934
11279W        W83594  35.868  12.187   3.272
11280W        W83595  41.328  42.326  10.636
11281W        W83596  40.736   0.533   0.004
11282W        W83597   8.782  35.168   2.928
11283W        W83598  28.645  10.358  11.625
11284W        W83599  30.407  43.225   4.618
11285W        W83600  25.595  28.979  11.658
11286W        W83601  24.900  37.122   2.712
11287W        W83602   9.627  29.401  14.194
11288W        W83603  13.872  43.775   1.290
11289W        W83604   6.917  32.342  11.395
11290W        W83605  15.230  21.136   1.451
11291W        W83606  42.810  28.187  11.510
11292W        W83607  16.271  12.166   2.291
11293W        W83608  18.689  23.034  14.600
11294W        W83609  12.676  17.847   4.409
11295W        W83610  18.622   3.943   0.853
11296W        W83611  40.129  24.489  11.032
11297W        W83612   3.757  25.094   3.607
11298W        W83613  23.322  13.283  11.482
11299W        W83614  14.828  29.153  11.071
11300W        W83615  43.582  15.197   0.754
11301W        W83616  24.769  31.891  14.356
11302W        W83617   7.352  30.333  12.925
11303W        W83618  23.525  38.431  13.866
11304W        W83619  15.428  26.113   2.325
11305W        W83620   9.070  34.365  14.435
11306W        W83621  34.599  39.962  11.828
11307W        W83622  36.383   6.440   1.208
11308W        W83623   2.917  24.479   3.631
11309W        W83624   1.391  33.210  11.052
11310W        W83625  19.674   5.418   2.872
11311W        W83626  41.379  34.049   3.881
11312W        W83627   0.023  29.725  12.178
11313W        W83628  33.450  41.383  10.309
11314W        W83629  25.886  11.172  14.944
11315W        W83630  28.472  23.141  14.957
11316W        W83631  37.031  10.652  12.322
11317W        W83632  23.713  26.996  10.910
11318W        W83633  13.954  28.612  13.054
11319W        W83634  35.340  34.117   4.208
11320W        W83635  21.725  25.415   1.356
11321W        W83636  40.857   2.891   2.740
11322W        W83637  19.841  44.812   4.285
11323W        W83638  29.731  41.833   4.647
11324W        W83639   9.337  33.390  11.083
11325W        W83640  32.424  26.998  13.438
11326W        W83641  41.430  10.910   2.664
11327W        W83642  15.594   1.843   1.937
11328W        W83643  32.861  16.103   3.218
11329W        W83644  12.611  19.216  14.430
11330W        W83645  14.819  14.440   3.534
11331W        W83646  37.881  11.053   1.026
11332W        W83647  26.159   4.427   2.734
11333W        W83648  25.763   4.739  11.125
11334W        W83649  38.769   7.761  13.396
11335W        W83650  35.553  32.906   0.203
11336W        W83651  21.711  38.338  12.650
11337W        W83652  19.772   4.686   1.117
11338W        W83653  15.048  43.033  11.552
11339W        W83654  15.813  42.325  11.558
11340W        W83655   1.372  32.626   2.302
11341W        W83656  39.542  40.621   3.748
11342W        W83657  29.993  36.460  11.555
11343W        W83658  10.343  29.261  11.691
11344W        W83659  29.562  18.060  11.309
11345W        W83660  12.663   3.433   2.764
11346W        W83661  18.247  22.498   2.244
11347W        W83662  28.761   1.213   0.457
11348W        W83663   8.214  18.512   1.399
11349W        W83664  36.525  41.654  14.371
11350W        W83665  20.108  12.816   3.504
11351W        W83666  38.084  13.810  13.362
11352W        W83667  10.423  24.519  14.183
11353W        W83668  41.381   8.131   3.252
11354W        W83669  12.740  16.339   2.704
11355W        W83670   4.382  33.898  11.541
11356W        W83671   1.453  31.829  14.453
11357W        W83672  39.239  23.254   2.296
11358W        W83673  32.364  42.913   0.800
11359W        W83674   7.702  35.887  14.233
11360W        W83675  13.847   9.363  14.642
11361W        W83676  14.319  24.178  14.937
11362W        W83677   1.290  41.400  14.247
11363W        W83678  30.876  34.397   0.417
11364W        W83679   8.379   7.969   3.280
11365W        W83680  31.331  19.724  14.893
11366W        W83681  18.735   8.047   3.752
11367W        W83682  22.928  27.983   3.964
11368W        W83683   4.342  20.679  11.469
11369W        W83684  25.962  22.206  14.367
11370W        W83685  27.161  17.287   1.366
11371W        W83686  24.432  10.801  11.905
11372W        W83687  30.397  35.845  13.290
11373W        W83688  31.865  31.671  10.675
11374W        W83689  22.536  44.719   3.398
11375W        W83690  37.472  35.385   2.346
11376W        W83691  18.540   0.182   1.786
11377W        W83692  17.262   3.163  10.704
11378W        W83693  32.043  18.636   1.382
11379W        W83694  21.575  31.785  10.127
11380W        W83695  38.022  25.654  11.367
11381W        W83696   1.693   4.282  13.451
11382W        W83697  23.073  31.533  12.467
11383W        W83698  25.900   0.756  13.883
11384W        W83699  35.671  13.776  13.934
11385W        W83700  13.086   3.406  13.433
11386W        W83701  43.459  37.314  10.712
11387W        W83702  43.255   1.294  14.024
11388W        W83703   7.220  24.642  14.818
11389W        W83704  23.611  12.812   0.708
11390W        W83705  40.603  31.979   0.815
11391W        W83706  35.040  12.619  12.143
11392W        W83707  17.764  24.726  11.939
11393W        W83708  25.536  37.997   0.139
11394W        W83709  19.041  43.015   4.068
11395W        W83710  22.863  14.104  14.186
11396W        W83711  30.083  31.042   4.633
11397W        W83712  21.994  30.623   4.132
11398W        W83713  23.942  36.066  12.577
11399W        W83714  31.407  34.831  13.018
11400W        W83715  15.133  35.564  12.382
11401W        W83716  22.779   8.332   4.678
11402W        W83717  31.456   1.672  11.463
11403W        W83718  40.794  35.333  13.527
11404W        W83719  13.082  32.445  13.275
11405W        W83720  11.275  26.138  12.155
11406W        W83721  23.958  15.720   3.195
11407W        W83722  34.282  25.507  13.483
11408W        W83723  19.632   7.228  13.310
11409W        W83724  29.830  23.256  11.137
11410W        W83725  30.653  23.028   3.533
11411W        W83726   3.695  13.228   2.438
11412W        W83727  30.581  19.958  11.551
11413W        W83728  37.191  30.819   3.622
11414W        W83729  28.385  33.168  11.567
11415W        W83730  28.384  22.673   1.486
11416W        W83731  40.800  18.118  12.386
11417W        W83732  18.158  44.646  14.945
11418W        W83733  27.551  44.599  13.458
11419W        W83734   3.747  28.187  14.259
11420W        W83735  14.149  31.189  13.572
11421W        W83736  41.060  39.030  13.712
11422W        W83737  30.666   2.566  14.995
11423W        W83738   9.724   9.364   0.435
11424W        W83739   8.655   3.255  14.444
11425W        W83740  11.900  11.641   1.612
11426W        W83741  30.533   6.274  11.212
11427W        W83742  20.349  20.256   2.722
11428W        W83743   9.694  38.999   2.282
11429W        W83744  32.590  19.358   4.607
11430W        W83745   5.229  33.003   4.566
11431W        W83746  10.254  25.397   2.304
11432W        W83747  22.653  34.818  14.552
11433W        W83748  34.592  14.250  13.501
11434W        W83749  10.347   8.207  12.165
11435W        W83750  18.275  13.841  13.374
11436W        W83751  31.385  17.682   3.587
11437W        W83752  27.513  20.030  10.648
11438W        W83753  27.893   0.783  11.629
11439W        W83754  32.028  12.541   1.653
11440W        W83755  34.155  41.307  12.551
11441W        W83756  15.289  17.571  10.559
11442W        W83757  28.247   7.263   1.017
11443W        W83758  24.230  33.531   4.111
11444W        W83759  37.842  38.990   1.865
11445W        W83760  18.185  44.370   0.938
11446W        W83761   1.357   0.448  11.854
11447W        W83762  31.175  19.260  14.539
11448W        W83763  43.757  19.572  11.379
11449W        W83764  12.139  22.148  12.812
11450W        W83765  13.353  30.610   3.837
11451W        W83766  18.119  24.573  10.821
11452W        W83767  17.580  25.139  10.097
11453W        W83768   5.207  34.898   1.777
11454W        W83769   8.378  37.822  13.071
11455W        W83770  10.773  35.977  10.605
11456W        W83771  25.117  30.510  12.805
11457W        W83772  21.798  27.567  13.404
11458W        W83773  32.367  44.903   2.166
11459W        W83774  17.288  35.538  10.893
11460W        W83775  28.954  11.850   1.761
11461W        W83776   6.751   6.927   2.309
11462W        W83777   1.006   1.954  14.296
11463W        W83778  21.329  14.659  10.490
11464W        W83779  12.150   9.983   2.240
11465W        W83780  44.139  24.910  11.153
11466W        W83781   7.509  26.266  12.961
11467W        W83782  32.474  19.700  14.044
11468W        W83783  41.129  38.141   2.896
11469W        W83784  19.184  34.685  11.157
11470W        W83785  33.509  36.266  12.777
11471W        W83786   7.311  36.971  10.996
11472W        W83787   0.573  18.443  11.285
11473W        W83788   0.242  18.200  12.566
11474W        W83789  19.999  12.194   0.366
11475W        W83790  30.192  31.076  13.514
11476W        W83791  26.324  30.010  14.874
11477W        W83792  44.713  11.904  12.093
11478W        W83793  13.166  39.469  13.503
11479W        W83794  43.984  34.608   1.421
11480W        W83795  15.051  34.888  13.061
11481W        W83796  13.458  17.604   2.704
11482W        W83797   2.234   8.410  12.936
11483W        W83798   9.425  11.924  14.571
11484W        W83799  40.594  31.461   2.591
11485W        W83800   6.836  20.287  11.195
11486W        W83801  15.662   3.222  12.566
11487W        W83802  39.507   4.403  11.056
11488W        W83803  44.910  35.608   5.061
11489W        W83804  16.072   7.923  12.130
11490W        W83805  21.226  25.085   4.571
11491W        W83806   8.347  28.238   3.839
11492W        W83807  35.396   5.411   3.885
11493W        W83808   4.202  23.149   3.734
11494W        W83809   4.786  37.607  13.010
11495W        W83810  40.799  42.816  12.038
11496W        W83811  27.543  19.565   3.659
11497W        W83812  23.020  29.833   2.386
11498W        W83813  21.013   6.571   4.654
11499W        W83814   4.429  18.700  12.563
11500W        W83815  33.584  33.439  10.987
11501W        W83816   1.503  23.745   2.963
11502W        W83817  26.933  23.805   4.217
11503W        W83818  20.613   9.133   4.541
11504W        W83819  24.792  37.869  11.107
11505W        W83820  22.145  26.907  11.537
11506W        W83821  13.865   2.740  14.522
11507W        W83822   7.217  37.027   0.893
11508W        W83823  19.868  24.394  12.073
11509W        W83824  14.171   8.189   3.680
11510W        W83825   9.887  34.427   0.842
11511W        W83826  13.120  41.026   3.202
11512W        W83827  29.511  19.314  12.090
11513W        W83828  38.485  19.432   0.925
11514W        W83829  15.211  27.954  14.098
11515W        W83830  10.131  17.142  10.788
11516W        W83831  40.503  14.406  14.401
11517W        W83832  18.661   4.604  14.336
11518W        W83833  33.967   0.445  12.054
11519W        W83834  33.469   0.867  13.279
11520W        W83835   4.447  13.956   2.042
11521W        W83836  33.056  15.950  11.503
11522W        W83837  23.582  37.421   1.974
11523W        W83838  42.918  10.663   4.002
11524W        W83839  24.752  20.034  13.031
11525W        W83840   8.067  30.598   1.900
11526W        W83841  15.710   3.792   4.648
11527W        W83842  22.646  19.983   1.145
11528W        W83843  10.160  23.580  12.658
11529W        W83844  14.658  17.117   2.884
11530W        W83845  31.990  43.492  10.566
11531W        W83846  38.563   1.883   1.878
11532W        W83847  44.852  21.823  11.035
11533W        W83848  36.546  13.586   4.244
11534W        W83849   5.966  23.750   4.542
11535W        W83850  37.410   9.742  14.753
11536W        W83851  22.660   3.918   2.732
11537W        W83852  21.795  22.491  10.625
11538W        W83853  17.911  12.425  14.420
11539W        W83854   6.235   0.356  12.160
11540W        W83855  26.379  36.304   3.719
11541W        W83856   8.986   6.731  13.193
11542W        W83857   8.592  30.796  12.435
11543W        W83858  32.664  37.956  10.530
11544W        W83859  25.584  26.436  12.633
11545W        W83860  42.120  33.608   1.282
11546W        W83861  12.275  15.660   0.450
11547W        W83862   6.057   7.414  11.471
11548W        W83863  20.123  27.525   0.840
11549W        W83864  30.730  13.115   1.864
11550W        W83865   4.598  23.502   0.408
11551W        W83866  35.799  19.513   3.401
11552W        W83867  21.900   1.306   3.630
11553W        W83868  29.934   3.231   1.235
11554W        W83869  17.585  34.816  10.798
11555W        W83870  18.152  27.204   0.523
11556W        W83871  14.356  28.107   4.698
11557W        W83872  18.755  28.598   0.702
11558W        W83873  30.453  39.357   0.886
11559W        W83874  32.925  28.945   2.331
11560W        W83875   6.774  43.321   2.898
11561W        W83876  25.729  34.930  12.956
11562W        W83877  44.873  34.273   4.945
11563W        W83878  26.426  34.141   0.819
11564W        W83879  19.073   8.130   4.162
11565W        W83880  38.673  42.541   2.823
11566W        W83881  29.014   4.503  13.838
11567W        W83882  29.417  22.976  11.216
11568W        W83883  44.274  28.018   3.314
11569W        W83884   1.440  18.772   2.379
11570W        W83885  20.807   2.432   4.556
11571W        W83886  16.170  26.392  13.004
11572W        W83887  29.491  23.593  12.374
11573W        W83888  25.266   5.425   1.253
11574W        W83889   3.229  26.094  11.055
11575W        W83890  41.245  18.197  12.638
11576W        W83891  10.384  28.924  11.325
11577W        W83892   8.703  32.080  13.000
11578W        W83893  36.603  25.518  14.484
11579W        W83894  15.244  19.965  12.460
11580W        W83895  13.238  24.325  14.250
11581W        W83896  16.256  15.246  11.896
11582W        W83897  35.087   0.087   0.147
11583W        W83898  28.154  42.393  14.387
11584W        W83899  17.235  39.790  12.247
11585W        W83900  14.827  14.642   4.695
11586W        W83901  36.319  15.143   3.763
11587W        W83902  16.348  33.380  14.453
11588W        W83903  28.047  43.748   1.778
11589W        W83904   7.782  44.720  14.367
11590W        W83905  39.769  17.689   3.487
11591W        W83906  21.159  19.043   4.517
11592W        W83907  35.929  44.431  11.515
11593W        W83908  22.952  38.105   3.664
11594W        W83909  21.496  43.288   3.398
11595W        W83910   1.460  14.070   0.436
11596W        W83911  10.376  41.837   1.824
11597W        W83912   3.361  23.171  14.969
11598W        W83913  38.305  14.599   2.068
11599W        W83914  12.244  30.846  14.816
11600W        W83915   1.412  27.490   2.912
11601W        W83916  13.667  31.346  14.870
11602W        W83917  31.676  42.471  11.112
11603W        W83918  26.250  21.115  11.479
11604W        W83919   0.569  35.568   3.880
11605W        W83920  17.711  38.055  13.497
11606W        W83921  31.477   3.267  12.057
11607W        W83922  23.656  42.294   2.185
11608W        W83923  12.435  27.107   2.061
11609W        W83924  42.909  31.190  13.363
11610W        W83925  15.413  10.123   4.428
11611W        W83926   1.367   2.459   4.272
11612W        W83927  24.052  44.758  14.387
11613W        W83928  25.521  21.598  11.523
11614W        W83929  43.895  24.016  11.130
11615W        W83930   2.060  13.821   1.488
11616W        W83931  25.096  35.362   2.848
11617W        W83932  37.958  30.465   0.171
11618W        W83933  18.092  38.562   4.235
11619W        W83934  16.782  22.947  14.022
11620W        W83935  31.885  42.292  13.979
11621W        W83936  23.639  38.617   0.201
11622W        W83937  17.080  13.701  10.946
11623W        W83938  18.705  33.688   2.694
11624W        W83939  17.817   8.953  11.553
11625W        W83940  36.934   0.316   4.627
11626W        W83941   7.712  28.230  13.503
11627W        W83942   5.204   0.268   2.324
11628W        W83943   5.710  26.526   4.233
11629W        W83944  25.134  34.320   1.291
11630W        W83945  27.997  17.554  14.061
11631W        W83946  42.250  21.121   2.492
11632W        W83947  35.012   6.381  14.424
11633W        W83948  30.626  15.272  14.281
11634W        W83949  27.005  14.552  12.149
11635W        W83950   0.891   6.715   4.342
11636W        W83951   9.746  38.592  14.539
11637W        W83952   1.904   8.962   3.700
11638W        W83953  40.479  39.547  13.912
11639W        W83954   7.359   4.242  12.901
11640W        W83955  43.667  36.814  11.541
11641W        W83956  14.814  42.534  11.460
11642W        W83957  36.626   2.514   1.296
11643W        W83958  36.506  24.802  11.915
11644W        W83959  27.119  32.369  11.860
11645W        W83960  10.591  43.309  12.860
11646W        W83961  16.096   9.374   0.471
11647W        W83962  12.713  40.314  13.348
11648W        W83963   7.225  22.435   3.010
11649W        W83964   9.436   5.274  13.389
11650W        W83965  31.566  18.813  10.581
11651W        W83966  21.652  29.326  10.761
11652W        W83967   0.243  21.881   3.656
11653W        W83968  21.569   2.224  10.798
11654W        W83969  32.422  16.836   4.152
11655W        W83970  26.392  36.871  14.384
11656W        W83971  14.536  32.547  13.583
11657W        W83972  43.972  11.791   5.006
11658W        W83973  26.059  34.696  13.258
11659W        W83974  13.119  14.780   3.676
11660W        W83975  16.301  37.766  14.194
11661W        W83976  12.117  38.283   3.814
11662W        W83977   5.281  40.442   2.443
11663W        W83978   1.828  25.193   3.723
11664W        W83979  38.955  12.387   3.175
11665W        W83980  26.023  40.135   3.827
11666W        W83981  33.700  35.397   1.956
11667W        W83982  12.580  40.862  10.616
11668W        W83983   2.966   0.281   1.845
11669W        W83984   2.080   6.015  11.877
11670W        W83985  31.056  10.848  12.242
11671W        W83986   1.365  32.654   0.874
11672W        W83987  43.995  44.228   0.973
11673W        W83988  36.169  39.437   1.139
11674W        W83989   3.653  37.503  10.700
11675W        W83990  39.870  32.136   3.605
11676W        W83991  29.838  39.386  14.796
11677W        W83992  18.140  35.947   2.401
11678W        W83993   1.665  31.440   3.031
11679W        W83994   8.177  39.039   3.145
11680W        W83995  12.859  34.990   0.300
11681W        W83996  36.062  28.001  12.149
11682W        W83997  15.687  36.979  10.586
11683W        W83998  24.058  10.844  12.982
11684W        W83999  27.215  12.806   0.268
11685W        W84000  40.494  24.619  14.900
11686W        W84001  37.567  24.154  14.795
11687W        W84002  32.431  12.838  11.085
11688W        W84003  20.658  28.004  14.931
11689W        W84004   4.097   6.677  14.941
11690W        W84005   5.708  11.369  12.683
11691W        W84006  22.223  18.517   1.384
11692W        W84007   3.167  14.971  12.098
11693W        W84008  29.462   3.181  11.184
11694W        W84009   3.699  29.576   2.268
11695W        W84010  37.128  24.186   1.835
11696W        W84011  30.939  25.638  10.703
11697W        W84012  15.782  14.787  13.933
11698W        W84013  35.128  43.068  12.111
11699W        W84014  32.014  23.266   2.227
11700W        W84015   3.373   5.477   3.152
11701W        W84016  44.532   3.772   4.353
11702W        W84017  18.096  27.436  13.734
11703W        W84018  17.774   2.953   3.311
11704W        W84019  34.212   0.127  11.164
11705W        W84020  18.359  10.733   5.002
11706W        W84021  32.448  35.923  13.973
11707W        W84022  37.602  11.718  14.365
11708W        W84023   3.329  13.844  12.465
11709W        W84024  16.744  40.881  13.839
11710W        W84025  33.538   8.775  10.728
11711W        W84026  40.964  13.316  11.188
11712W        W84027  38.510  12.136   3.286
11713W        W84028  36.950  11.121   0.380
11714W        W84029   4.007   3.275   2.719
11715W        W84030  33.115   2.863  12.511
11716W        W84031  34.834  37.124  10.701
11717W        W84032  10.278   5.807   3.852
11718W        W84033  27.897  34.893   5.068
11719W        W84034  34.757  33.130   3.703
11720W        W84035  44.743  33.585  10.693
11721W        W84036  33.331  12.318   3.200
11722W        W84037  13.367  15.685  10.614
11723W        W84038  28.754   6.440   1.317
11724W        W84039   7.211  40.528   1.405
11725W        W84040  23.175  34.127   3.546
11726W        W84041  11.373   4.472  14.936
11727W        W84042  15.143  16.039  12.528
11728W        W84043  11.106  17.240   0.865
11729W        W84044  28.515  10.864  10.837
11730W        W84045  25.205  42.324   3.674
11731W        W84046   4.294   9.448  14.469
11732W        W84047  18.207  28.198   2.816
11733W        W84048  34.973  31.875   1.892
11734W        W84049  13.070  26.280  11.715
11735W        W84050  40.527   3.665  10.775
11736W        W84051  27.786  44.795  14.313
11737W        W84052   4.665   9.764  14.711
11738W        W84053  43.953  18.706   4.307
11739W        W84054  11.280  10.143  12.025
11740W        W84055   7.364   7.927  14.916
11741W        W84056   6.692  35.072   3.242
11742W        W84057   7.228  32.360  14.814
11743W        W84058   0.952   7.601   4.063
11744W        W84059  39.994  10.789  14.214
11745W        W84060  18.361  20.751  12.504
11746W        W84061  11.752   0.937  11.198
11747W        W84062  42.299  40.376   0.010
11748W        W84063  19.012  19.909  11.186
11749W        W84064  15.483  35.664   1.146
11750W        W84065  11.572  10.336  14.447
11751W        W84066  24.289   5.372  11.106
11752W        W84067  28.159   1.002  11.232
11753W        W84068  25.687   9.855  10.868
11754W        W84069  12.761  27.509  12.549
11755W        W84070  19.065  20.932  13.906
11756W        W84071   1.485  10.287  12.906
11757W        W84072  35.303   1.968  11.580
11758W        W84073  26.778   3.963   4.007
11759W        W84074  27.654  35.385  11.635
11760W        W84075  17.819   4.420   4.385
11761W        W84076  24.168  10.846   0.468
11762W        W84077   7.693  40.780  12.112
11763W        W84078  21.326  34.889  13.842
11764W        W84079  13.200  21.520  10.647
11765W        W84080   0.469  35.250  11.579
11766W        W84081  44.272  40.725   5.107
11767W        W84082  36.669  13.724   0.158
11768W        W84083  39.687  35.854  14.733
11769W        W84084   2.186  17.198  10.764
11770W        W84085   2.216   7.848   0.374
11771W        W84086  33.591  43.874  11.558
11772W        W84087  20.217  40.236   0.875
11773W        W84088  20.362  11.262   0.429
11774W        W84089  26.525  32.648   1.729
11775W        W84090  17.621  22.507  14.304
11776W        W84091   4.756  44.206   4.399
11777W        W84092  17.565  37.047   0.946
11778W        W84093  12.779  32.974  13.684
11779W        W84094  18.083  21.122   4.390
11780W        W84095   2.938  29.080   4.525
11781W        W84096   0.332  14.819  14.030
11782W        W84097  16.688  22.082  11.870
11783W        W84098  44.935  16.662  10.869
11784W        W84099  32.813  11.785   3.576
11785W        W84100  19.110  27.244  11.991
11786W        W84101   1.474  19.387   1.728
11787W        W84102   6.650  39.602  11.094
11788W        W84103   5.791   7.363   4.083
11789W        W84104  22.379   0.305  14.816
11790W        W84105   4.957  16.667  11.658
11791W        W84106  30.488  21.585  13.950
11792W        W84107  41.956   7.535   9.975
11793W        W84108   8.259  12.110   2.210
11794W        W84109  36.595  21.594  12.399
11795W        W84110   1.881  15.194  10.574
11796W        W84111  36.807   0.360   2.838
11797W        W84112  12.437  13.263   5.089
11798W        W84113  37.031  43.298  10.783
11799W        W84114  37.502   2.931   2.239
11800W        W84115  16.120   4.813  14.994
11801W        W84116  29.968  23.558  12.785
11802W        W84117  37.463   5.231  14.374
11803W        W84118  42.768  19.183   0.471
11804W        W84119   8.635  38.509   4.171
11805W        W84120   7.802   8.965  14.338
11806W        W84121   1.455  24.191   2.642
11807W        W84122  15.670   2.296   4.581
11808W        W84123  43.280  31.923  13.328
11809W        W84124   2.442   3.125  14.105
11810W        W84125  22.653   7.272   0.192
11811W        W84126  27.229  11.668  12.799
11812W        W84127   0.440  35.723  11.411
11813W        W84128  15.848   4.426   4.281
11814W        W84129   9.732  42.025  14.482
11815W        W84130  28.649  42.003   3.256
11816W        W84131  38.023  21.544  11.459
11817W        W84132  39.454  18.677   5.003
11818W        W84133   0.214  33.923  14.761
11819W        W84134   1.820  41.283   0.373
11820W        W84135   9.964  17.794  10.691
11821W        W84136   3.559  13.368   3.244
11822W        W84137  30.838  30.040  13.479
11823W        W84138  32.925   7.625   4.792
11824W        W84139  38.345  15.558  11.090
11825W        W84140  44.188  26.609  10.585
11826W        W84141  38.478  19.961  13.948
11827W        W84142   2.922  36.078  13.117
11828W        W84143  10.322  19.524   4.895
11829W        W84144  29.729  21.256  12.037
11830W        W84145  35.396  24.245  13.274
11831W        W84146  37.445  30.087   4.657
11832W        W84147  18.045  29.505   0.481
11833W        W84148  40.290  30.068   4.298
11834W        W84149  29.121  11.542   3.279
11835W        W84150  15.344  22.908  11.210
11836W        W84151  18.472  29.076  11.192
11837W        W84152  14.832  44.314   3.284
11838W        W84153   5.500  22.592   4.679
11839W        W84154  40.892  18.090  14.059
11840W        W84155  10.605  44.413  12.954
11841W        W84156  38.624  29.948   0.816
11842W        W84157  44.585  12.208   2.875
11843W        W84158  39.781  24.261   0.484
11844W        W84159  10.598   7.338   1.843
11845W        W84160   7.809  27.164  11.049
11846W        W84161  33.487  23.711  12.467
11847W        W84162   4.483  43.776   4.266
11848W        W84163  41.891   7.276  11.436
11849W        W84164  19.136  15.093   1.317
11850W        W84165   2.884  34.048  10.904
11851W        W84166  36.171   4.280   2.688
11852W        W84167  41.748   1.459  13.014
11853W        W84168  25.660  23.696   4.899
11854W        W84169  29.088  33.943   5.012
11855W        W84170   6.420  19.013  11.228
11856W        W84171  40.915  30.479   0.678
11857W        W84172   3.480   7.405  13.591
11858W        W84173  25.212  26.597  14.747
11859W        W84174  33.851   7.138  14.792
11860W        W84175  34.674  18.088   2.903
11861W        W84176  13.986  22.285  12.257
11862W        W84177  39.364  24.974   2.194
11863W        W84178  25.506  34.877  10.659
11864W        W84179  37.036  10.172  12.609
11865W        W84180  13.785  26.355   1.245
11866W        W84181  33.326  15.850   1.894
11867W        W84182  30.853   5.673  14.074
11868W        W84183  31.457  24.511  14.476
11869W        W84184   6.601  10.122   0.135
11870W        W84185  42.182  44.067  12.554
11871W        W84186   4.278  31.580   2.456
11872W        W84187  15.308  35.125  12.654
11873W        W84188  34.064  44.704  10.899
11874W        W84189  27.301  24.597   2.741
11875W        W84190  12.556   7.871  12.979
11876W        W84191  41.782  12.196   0.648
11877W        W84192  26.678  20.169  11.023
11878W        W84193  27.086   9.047  13.124
11879W        W84194  39.106   2.008   4.102
11880W        W84195  37.276  30.823   2.688
11881W        W84196  38.564  17.663  13.907
11882W        W84197  43.874  41.549   4.086
11883W        W84198  30.611  26.566   3.807
11884W        W84199  23.600   0.066   2.804
11885W        W84200  19.978  13.709   3.302
11886W        W84201  30.017   5.626   0.328
11887W        W84202   7.341  18.981  12.205
11888W        W84203   5.402  34.144  14.438
11889W        W84204  29.906  20.090   4.669
11890W        W84205  14.074   3.318  10.683
11891W        W84206  24.702  35.555  12.504
11892W        W84207   1.888  43.345  13.550
11893W        W84208   2.953   6.205   1.871
11894W        W84209  11.155   6.788  14.840
11895W        W84210  31.204  25.758   3.067
11896W        W84211   7.185  16.322  13.961
11897W        W84212  22.565  26.237  14.778
11898W        W84213  29.955  35.959  14.076
11899W        W84214  39.235  25.614   2.342
11900W        W84215  32.130  43.882   0.236
11901W        W84216  14.588   1.195  14.370
11902W        W84217   3.401  41.362  12.596
11903W        W84218  22.679  15.048  11.896
11904W        W84219  17.541   1.017  12.602
11905W        W84220   3.865   7.813  13.920
11906W        W84221  29.528  41.743  14.337
11907W        W84222  25.777   7.618   0.928
11908W        W84223   8.558  25.204  12.065
11909W        W84224  33.644  40.289  14.899
11910W        W84225  13.312  17.751  10.394
11911W        W84226  11.775  30.126  12.227
11912W        W84227   5.889   2.064  10.826
11913W        W84228  26.750  42.261  11.187
11914W        W84229  38.274   7.328  14.778
11915W        W84230  38.573   2.774  10.654
11916W        W84231  17.274  24.937   4.178
11917W        W84232  23.295  24.729  14.740
11918W        W84233   7.746  25.915  11.925
11919W        W84234  40.483   0.275   2.664
11920W        W84235   9.851   3.854   1.909
11921W        W84236  20.451  24.016   1.084
11922W        W84237  41.897   0.813  14.303
11923W        W84238  30.689  20.317  12.553
11924W        W84239  43.639  23.401   0.806
11925W        W84240  13.068  10.149  14.352
11926W        W84241  18.996  16.609   3.042
11927W        W84242  12.557  22.172   1.895
11928W        W84243  38.406  43.058   0.820
11929W        W84244  11.428  10.249  13.949
11930W        W84245  25.619  24.441  12.595
11931W        W84246  41.858  32.404   3.785
11932W        W84247   7.830  18.268   4.613
11933W        W84248  15.532  30.563   4.004
11934W        W84249   0.496   6.220  11.273
11935W        W84250  29.332   2.286  14.831
11936W        W84251   8.079  30.851  13.325
11937W        W84252  14.571   9.242  10.534
11938W        W84253  21.789  11.094   3.234
11939W        W84254  12.354   5.728  14.133
11940W        W84255   5.284  34.822   2.780
11941W        W84256  10.551   1.294  11.332
11942W        W84257  35.359  40.402  11.662
11943W        W84258  28.106  27.542   1.869
11944W        W84259  18.777   0.890  10.875
11945W        W84260  26.525   2.363   4.698
11946W        W84261  21.983  16.330  12.809
11947W        W84262  12.399  27.926  14.782
11948W        W84263   5.905  30.048  11.962
11949W        W84264  24.145  23.176   3.402
11950W        W84265  19.381   0.005   2.858
11951W        W84266  21.334   6.998  11.788
11952W        W84267   3.831  28.639   4.110
11953W        W84268  16.830  38.453  14.785
11954W        W84269  37.538  23.771  12.047
11955W        W84270  37.910  42.912   0.879
11956W        W84271  35.883  28.672   3.229
11957W        W84272  40.292  19.724  11.132
11958W        W84273  30.746  31.460   2.173
11959W        W84274  13.478  12.277   1.415
11960W        W84275  38.401  19.127   4.681
11961W        W84276  24.803  27.140  10.493
11962W        W84277  17.054  43.794   2.503
11963W        W84278  28.616  41.212   2.761
11964W        W84279  20.178  12.952   5.022
11965W        W84280  17.145   5.545  13.693
11966W        W84281  26.010  40.554  12.684
11967W        W84282  22.921  23.550  14.668
11968W        W84283  32.339   4.233  13.369
11969W        W84284  44.405  14.566   0.334
11970W        W84285  43.448   9.265  12.417
11971W        W84286  32.108  39.275   2.793
11972W        W84287  12.636   6.791  12.356
11973W        W84288   3.846  31.046  14.543
11974W        W84289  20.257  20.589  10.469
11975W        W84290  11.225  13.205  14.496
11976W        W84291  28.934  32.655   4.191
11977W        W84292  11.619  30.976  11.501
11978W        W84293  27.400  18.576  11.457
11979W        W84294  34.126   2.726  10.750
11980W        W84295   3.449  28.803   1.897
11981W        W84296   9.782  17.974  11.158
11982W        W84297  11.890  13.678   0.774
11983W        W84298  24.416   0.813  12.470
11984W        W84299  24.111  39.508   0.916
11985W        W84300  25.580  38.019   4.501
11986W        W84301   5.837  36.742   2.818
11987W        W84302  32.060   9.906  11.912
11988W        W84303   7.616  30.468   3.975
11989W        W84304  21.411  39.897   4.107
11990W        W84305  35.965  37.885   4.219
11991W        W84306  28.114   9.329  11.858
11992W        W84307  19.361   5.451   1.388
11993W        W84308  18.252  39.028  11.997
11994W        W84309   0.409   6.807  13.575
11995W        W84310   1.737  20.165  11.976
11996W        W84311  18.978  31.507  14.769
11997W        W84312  12.877   4.394  11.624
11998W        W84313  16.329  17.021  12.476
11999W        W84314  43.375   2.090  10.582
12000W        W84315   7.468  13.083  11.900
12001W        W84316   0.894  23.831  14.819
12002W        W84317  28.567  16.657  13.800
12003W        W84318  37.914  27.976  14.020
12004W        W84319   0.372  20.488  14.781
12005W        W84320  39.967  44.302  11.827
12006W        W84321   7.619   3.784  11.547
12007W        W84322   1.399  25.514  14.242
12008W        W84323   4.355  31.428   1.966
12009W        W84324  23.526  22.046   1.690
12010W        W84325   9.942   7.652   0.298
12011W        W84326  34.192  39.005  10.621
12012W        W84327  41.871  34.311  12.125
12013W        W84328   7.298  42.986  14.285
12014W        W84329  42.973  39.604   0.555
12015W        W84330   7.207  35.166   2.220
12016W        W84331   6.702  31.260  10.774
12017W        W84332  14.726  24.839   3.253
12018W        W84333  17.119   6.903   0.412
12019W        W84334  29.665  17.287  14.463
12020W        W84335   0.218   2.632   4.372
12021W        W84336   8.041  29.330   2.409
12022W        W84337  24.762  26.864  14.930
12023W        W84338   1.273  27.634  14.106
12024W        W84339  41.802  20.445  11.930
12025W        W84340  34.839  40.310  12.166
12026W        W84341  31.528  26.290   2.342
12027W        W84342  43.972  41.012   4.112
12028W        W84343  16.217  19.182   3.681
12029W        W84344  17.108  39.758   2.241
12030W        W84345  11.313  13.513   0.415
12031W        W84346  28.647  11.809  11.574
12032W        W84347  26.907  19.227   0.351
12033W        W84348  14.934  15.379  10.397
12034W        W84349  10.540  24.473   4.133
12035W        W84350  30.053  24.718  12.943
12036W        W84351  27.665  20.532  10.668
12037W        W84352  43.751  15.261  10.851
12038W        W84353  12.297   1.497   2.173
12039W        W84354  26.159  34.316   3.897
12040W        W84355  38.054  37.535  13.227
12041W        W84356   7.309   1.509  10.810
12042W        W84357  36.282  17.833  10.672
12043W        W84358   8.756  35.828  14.397
12044W        W84359  23.705  40.905   1.663
12045W        W84360   0.876   6.757   0.891
12046W        W84361  17.566  12.162   1.844
12047W        W84362  41.175  15.394   1.316
12048W        W84363  40.851  15.577   0.906
12049W        W84364   9.313  40.349  13.053
12050W        W84365  16.637  34.952   3.837
12051W        W84366  33.420  33.529   4.571
12052W        W84367  12.511  16.767   4.936
12053W        W84368  11.684  31.624   0.807
12054W        W84369  38.902  19.086   0.432
12055W        W84370  25.229  14.478  12.401
12056W        W84371  11.138   1.520  14.480
12057W        W84372  12.085  19.836  13.064
12058W        W84373  34.510  15.056   0.435
12059W        W84374  11.055   5.134   0.435
12060W        W84375  23.963  17.270   1.871
12061W        W84376  32.876  33.965   1.211
12062W        W84377  37.150  34.968  12.885
12063W        W84378   9.574  14.228   1.002
12064W        W84379  18.576   1.217   1.804
12065W        W84380  26.125  40.895   0.523
12066W        W84381  26.193   3.436   4.089
12067W        W84382  21.638  19.190   4.357
12068W        W84383  15.714  40.701   4.061
12069W        W84384  14.801  34.899   1.809
12070W        W84385   4.277  12.808  11.846
12071W        W84386  11.878   1.551   1.849
12072W        W84387  28.587  43.514  13.415
12073W        W84388  32.970   2.501  13.489
12074W        W84389   2.115  19.533  11.654
12075W        W84390  18.662  37.090  13.881
12076W        W84391  30.591   1.692   2.253
12077W        W84392  38.789  15.755  10.576
12078W        W84393   2.888  20.084   4.573
12079W        W84394  23.272  27.757   0.256
12080W        W84395  26.411  20.229   0.738
12081W        W84396  19.196  23.209   4.033
12082W        W84397  20.259  34.911  11.879
12083W        W84398   0.811  10.162  12.294
12084W        W84399  24.638  18.685  12.517
12085W        W84400  35.976  17.275   4.773
12086W        W84401   8.396  29.808  11.200
12087W        W84402  23.700  41.581   2.907
12088W        W84403  30.711  10.701   2.610
12089W        W84404  24.525  41.500   4.852
12090W        W84405  44.421  34.393   3.692
12091W        W84406   3.956   0.254  13.353
12092W        W84407   5.774  11.360  13.212
12093W        W84408  29.579  31.198   0.420
12094W        W84409  41.863  35.531   0.312
12095W        W84410  41.563  26.712  14.417
12096W        W84411   1.162  26.571  10.701
12097W        W84412  16.382  24.169   3.570
12098W        W84413   9.595   6.403   0.022
12099W        W84414   3.950   0.112   3.639
12100W        W84415   7.279  43.350   2.296
12101W        W84416  17.661   6.328  13.409
12102W        W84417  23.662  14.285  11.989
12103W        W84418  11.433  20.038   4.535
12104W        W84419  42.392  21.148  10.620
12105W        W84420   8.163  22.012  12.122
12106W        W84421  34.853  40.337   0.917
12107W        W84422  34.904  42.762  14.339
12108W        W84423  22.851  30.826   1.873
12109W        W84424   9.733  40.532   1.469
12110W        W84425  27.003  28.054  12.805
12111W        W84426  21.246  12.535   0.504
12112W        W84427  41.570  41.413   0.161
12113W        W84428  36.064   3.382  10.603
12114W        W84429  26.630  11.645   3.117
12115W        W84430   4.257  22.597  14.997
12116W        W84431  13.899  44.217   0.841
12117W        W84432  35.535  18.312  13.549
12118W        W84433  25.606  21.151  14.875
12119W        W84434  12.596  39.377  11.182
12120W        W84435  16.595  34.453   0.218
12121W        W84436  39.483  26.872   3.382
12122W        W84437  35.459   6.502   1.657
12123W        W84438  39.884   2.519  12.583
12124W        W84439  29.547  33.399  12.419
12125W        W84440  38.909  16.651   3.832
12126W        W84441  12.434  32.504  10.705
12127W        W84442  22.078  24.534  12.181
12128W        W84443   9.132   8.246   3.665
12129W        W84444  13.541  10.241   2.327
12130W        W84445   0.232  29.053   2.826
12131W        W84446   9.854  36.748  14.439
12132W        W84447  35.311   4.727   0.962
12133W        W84448  23.285   0.277   4.262
12134W        W84449  35.292  38.520  10.554
12135W        W84450  16.894  20.504  10.536
12136W        W84451  36.730  15.882  10.421
12137W        W84452  43.911  17.842   4.241
12138W        W84453  33.709  22.191   3.701
12139W        W84454  20.559  10.120   4.796
12140W        W84455   9.342   3.177  11.852
12141W        W84456  34.154  18.510   3.694
12142W        W84457  31.946  31.242  13.834
12143W        W84458  22.684  37.477  11.241
12144W        W84459  29.289   0.749  12.809
12145W        W84460  28.155  36.311   5.152
12146W        W84461  14.837  25.567  13.278
12147W        W84462  18.699  20.107   5.036
12148W        W84463  30.396  29.907   0.913
12149W        W84464  11.430  25.073   0.498
12150W        W84465  20.252  40.457  12.034
12151W        W84466   8.720  42.819   3.182
12152W        W84467   5.621  27.961  14.848
12153W        W84468   1.509  18.241   3.256
12154W        W84469   7.728  32.992   4.248
12155W        W84470  13.665  43.210   2.022
12156W        W84471  20.075  30.840   1.459
12157W        W84472  17.453  22.201  12.461
12158W        W84473   1.365  28.739   0.901
12159W        W84474   0.370  29.211  10.733
12160W        W84475   3.338  13.713   0.438
12161W        W84476  33.723  12.483  12.635
12162W        W84477   0.852   0.708   1.290
12163W        W84478  21.238  10.270  11.120
12164W        W84479   2.997   6.325  14.401
12165W        W84480  23.414  24.692   2.734
12166W        W84481   4.192  42.964   2.852
12167W        W84482  43.536  35.845  11.738
12168W        W84483  31.709  22.550  13.850
12169W        W84484   6.846   4.776   0.210
12170W        W84485  44.917  42.869   4.322
12171W        W84486   9.611  18.181   3.807
12172W        W84487  20.063  11.395  11.578
12173W        W84488  31.812   7.830   0.997
12174W        W84489  23.908   1.490  13.763
12175W        W84490  16.668  11.898  12.906
12176W        W84491  31.298  10.235   4.784
12177W        W84492  33.493   7.699  12.054
12178W        W84493  40.073  25.697   5.085
12179W        W84494  23.697  16.884   4.093
12180W        W84495  17.057  16.867   4.465
12181W        W84496  23.734  36.074   1.723
12182W        W84497   9.413  38.550   2.263
12183W        W84498  34.583  40.353   4.557
12184W        W84499  28.864  27.495   2.813
12185W        W84500  31.948   7.927  11.864
12186W        W84501  44.471  43.370  14.465
12187W        W84502   1.767   7.610   4.047
12188W        W84503  28.220  32.456   0.391
12189W        W84504  11.810  22.683   4.068
12190W        W84505  32.196   2.865   1.109
12191W        W84506  14.456  36.091   2.667
12192W        W84507  16.863  16.108   0.700
12193W        W84508  40.287  16.715  12.517
12194W        W84509  12.284  21.137  11.532
12195W        W84510  44.020  34.198   0.688
12196W        W84511   6.886  10.063  11.618
12197W        W84512  36.873  39.265  13.457
12198W        W84513   0.101   8.877   3.749
12199W        W84514  30.006  19.494  11.997
12200W        W84515  39.320  33.039   3.659
12201W        W84516  20.161  40.631  12.939
12202W        W84517  22.772  25.129   4.103
12203W        W84518  41.971  16.645   4.275
12204W        W84519  38.359  22.119   1.963
12205W        W84520   1.700  29.489  13.382
12206W        W84521  43.389  38.791  12.955
12207W        W84522  38.490  30.967   3.109
12208W        W84523  23.208  19.532  11.797
12209W        W84524  12.016  29.014   0.102
12210W        W84525  20.197  26.620   4.855
12211W        W84526   3.376  41.267   0.808
12212W        W84527  33.737   8.635   2.227
12213W        W84528  12.125   9.399   1.782
12214W        W84529  26.748  19.557  13.420
12215W        W84530  30.620  15.730   5.217
12216W        W84531  10.258  11.022   1.974
12217W        W84532  42.808  24.106   4.558
12218W        W84533  22.342  14.424  12.541
12219W        W84534   8.759  10.436   1.315
12220W        W84535  23.644  25.610  11.542
12221W        W84536  29.420  31.124  11.043
12222W        W84537  19.601   4.364   4.939
12223W        W84538  39.946  29.055  12.401
12224W        W84539  34.007   5.619   3.179
12225W        W84540  25.706  29.522   1.753
12226W        W84541  24.249  42.252  13.874
12227W        W84542  31.313  37.511   2.584
12228W        W84543  16.545   7.876  10.500
12229W        W84544  39.753  35.378   2.831
12230W        W84545  10.324  21.267   1.897
12231W        W84546  15.227  20.658  11.369
12232W        W84547  34.892  20.003   1.844
12233W        W84548   2.192  36.469  13.383
12234W        W84549  27.902  40.476  11.950
12235W        W84550  14.831   3.940  13.337
12236W        W84551  22.293  32.908   4.053
12237W        W84552  40.909  43.721   3.468
12238W        W84553   0.322  16.235  10.443
12239W        W84554   1.967  41.684   4.572
12240W        W84555  40.853  16.427  10.758
12241W        W84556  20.077  19.102  13.753
12242W        W84557  34.345  13.831  11.103
12243W        W84558  36.486   9.824  11.616
12244W        W84559  14.889  34.766   3.222
12245W        W84560   1.514  44.839  12.135
12246W        W84561  25.266  33.828   1.693
12247W        W84562  35.823  19.411   4.314
12248W        W84563  27.218  35.114  13.568
12249W        W84564   8.989   2.740   3.447
12250W        W84565   2.299  16.926   4.530
12251W        W84566  44.312  16.571   1.848
12252W        W84567   3.263  42.811   0.923
12253W        W84568  27.863  20.679  11.941
12254W        W84569  32.719  18.092  12.982
12255W        W84570  40.257  20.062   0.203
12256W        W84571  16.107  35.674  12.592
12257W        W84572  20.717  35.198   1.546
12258W        W84573   4.347   8.882  12.464
12259W        W84574  36.586   4.003  13.306
12260W        W84575  19.804   8.748   4.220
12261W        W84576   7.415  39.275  11.610
12262W        W84577  15.369  44.752   1.275
12263W        W84578  28.582  26.086  14.353
12264W        W84579  36.463   1.327   0.424
12265W        W84580   2.440  29.905  12.058
12266W        W84581  12.027  18.627   1.382
12267W        W84582  24.094  25.913   3.631
12268W        W84583  12.683  27.107  14.318
12269W        W84584  35.775  17.221   1.850
12270W        W84585  25.943  36.072  14.859
12271W        W84586  26.282   6.308   2.870
12272W        W84587   0.852  17.618  12.985
12273W        W84588  42.871  40.386  12.210
12274W        W84589  38.090   9.623  10.951
12275W        W84590  22.888   9.653   1.496
12276W        W84591  26.083  19.004  14.829
12277W        W84592  31.133  20.350   4.180
12278W        W84593  28.656  39.552  10.620
12279W        W84594  27.418   8.684  13.404
12280W        W84595  10.704  30.435   2.988
12281W        W84596  39.273  27.922   4.312
12282W        W84597  37.938   7.282   3.195
12283W        W84598  21.609  10.147   2.909
12284W        W84599  15.079   7.620  11.607
12285W        W84600  38.876  42.016   1.799
12286W        W84601  23.460  13.009  13.447
12287W        W84602   5.511  37.090   3.027
12288W        W84603  30.150   3.291  11.855
12289W        W84604  32.707   1.050   3.283
12290W        W84605  20.612  25.580  14.230
12291W        W84606  30.599   9.234  12.074
12292W        W84607  17.535  24.959  14.450
12293W        W84608  23.530  18.389  14.554
12294W        W84609   0.967  37.064   0.203
12295W        W84610   7.307  34.387  12.921
12296W        W84611  33.747  15.136  12.861
12297W        W84612  18.020  16.753  13.510
12298W        W84613  29.257  38.796  14.331
12299W        W84614  11.227   8.752  13.843
12300W        W84615  28.079  40.987   3.595
12301W        W84616  43.801  43.785   1.913
12302W        W84617  16.753  18.665  13.009
12303W        W84618  29.414  23.666   3.224
12304W        W84619  38.718   9.925   2.606
12305W        W84620   5.616  36.476   0.478
12306W        W84621  42.035  27.985  14.418
12307W        W84622  15.546  32.676   1.828
12308W        W84623  31.181  16.573   2.901
12309W        W84624  10.157   8.573   1.005
12310W        W84625  32.155  27.662   1.670
12311W        W84626  44.894  31.413   3.680
12312W        W84627   3.785  26.732   2.800
12313W        W84628   4.254  36.722   1.166
12314W        W84629  34.835   3.963  14.389
12315W        W84630  25.271   2.924   0.751
12316W        W84631   9.417  36.442   1.281
12317W        W84632  21.129  38.075   1.398
12318W        W84633  17.174  33.163  10.625
12319W        W84634   7.323   2.867   1.747
12320W        W84635  37.571  34.539   1.051
12321W        W84636  36.574  16.931  13.919
12322W        W84637  38.638  16.566  13.448
12323W        W84638   8.181  33.111   1.872
12324W        W84639   2.215  24.064   4.285
12325W        W84640   4.224  17.055   0.702
12326W        W84641  16.627  10.954   5.486
12327W        W84642  33.663   1.344  13.337
12328W        W84643  26.586  30.135   1.820
12329W        W84644   3.268  12.104   0.376
12330W        W84645   5.050  19.198   1.994
12331W        W84646  32.462  36.877  14.938
12332W        W84647  30.755   5.982  14.895
12333W        W84648  15.753  35.017  11.031
12334W        W84649   8.198  20.651  11.023
12335W        W84650  32.146  29.655  11.998
12336W        W84651   8.401  38.563   4.954
12337W        W84652  16.838  20.134   0.458
12338W        W84653  32.137  25.988  12.057
12339W        W84654   0.986  42.480   4.662
12340W        W84655  31.152  33.131   1.674
12341W        W84656  12.611  24.222   1.452
12342W        W84657   9.392  19.318  14.939
12343W        W84658  32.480   7.875   2.214
12344W        W84659  34.106  43.298   1.801
12345W        W84660  22.542  41.852  13.043
12346W        W84661   6.878   4.984  14.312
12347W        W84662   6.732  12.214  13.154
12348W        W84663  15.673   0.472   2.483
12349W        W84664   9.214  39.239   3.850
12350W        W84665  20.602  10.213  13.854
12351W        W84666  39.597  23.924   3.629
12352W        W84667  40.101  17.592   3.863
12353W        W84668  18.166  28.179   4.163
12354W        W84669  31.785   3.288  10.810
12355W        W84670   5.421  37.913  10.658
12356W        W84671  19.666   8.246  11.416
12357W        W84672   9.491  43.358   3.088
12358W        W84673  34.599   9.700   3.332
12359W        W84674   5.805   7.092   3.235
12360W        W84675  19.309  42.906   0.719
12361W        W84676   3.769  30.952  10.741
12362W        W84677  28.071  14.757   4.680
12363W        W84678  34.900  44.904  10.686
12364W        W84679  23.992   9.296   3.216
12365W        W84680   6.668  40.924   0.848
12366W        W84681  30.355  32.927  11.552
12367W        W84682  24.503  27.529  14.987
12368W        W84683  27.627  19.147  12.326
12369W        W84684  32.010  33.931  13.925
12370W        W84685  14.649  27.394   1.475
12371W        W84686  39.666  33.948  14.547
12372W        W84687  10.539  37.283   4.961
12373W        W84688   4.565  14.660  13.051
12374W        W84689   2.972   7.685  12.901
12375W        W84690  16.537  19.165  13.866
12376W        W84691  25.712  25.290  12.852
12377W        W84692  15.700  10.911   1.008
12378W        W84693  24.996  32.466  12.633
12379W        W84694  32.987  35.616  13.330
12380W        W84695  27.500  39.588  13.891
12381W        W84696   1.969   3.180   2.716
12382W        W84697  17.650  39.006  10.466
12383W        W84698  24.012  20.115  13.701
12384W        W84699  24.970  35.843   1.422
12385W        W84700  15.032  19.948   2.914
12386W        W84701   1.530  31.145   0.719
12387W        W84702   1.027  11.591   3.273
12388W        W84703  27.591  39.638   3.390
12389W        W84704  27.451   8.840  12.785
12390W        W84705  39.810  21.349   1.284
12391W        W84706  21.392   6.805   2.472
12392W        W84707   2.428  17.118   1.858
12393W        W84708  27.650   1.522  11.039
12394W        W84709  28.938   5.743   5.321
12395W        W84710  18.058  13.997  13.825
12396W        W84711   5.716   5.702   3.129
12397W        W84712  28.054   2.913  12.448
12398W        W84713   7.736  10.768  14.908
12399W        W84714   2.334   6.604  11.053
12400W        W84715  16.044  31.222   2.944
12401W        W84716  22.606  33.618  10.614
12402W        W84717   1.879  15.144   4.654
12403W        W84718  42.709  13.820  11.577
12404W        W84719   2.852  20.016   3.710
12405W        W84720  23.011  19.071   2.171
12406W        W84721  13.090  13.665   3.639
12407W        W84722   4.155  13.415   3.342
12408W        W84723  24.349  34.982   4.769
12409W        W84724  23.398  32.607   0.362
12410W        W84725  19.933  23.980   1.157
12411W        W84726  17.337  33.039   3.176
12412W        W84727   0.398  25.998   4.159
12413W        W84728  12.576   9.076   4.046
12414W        W84729  24.570  12.881  14.771
12415W        W84730  27.644   0.433  14.908
12416W        W84731  18.324  32.843  12.834
12417W        W84732   3.868  39.300  10.894
12418W        W84733  39.311  29.003  11.023
12419W        W84734  35.473  35.100   3.392
12420W        W84735  33.021  30.654  14.407
12421W        W84736   0.155  26.560   3.067
12422W        W84737   3.018  10.185  13.319
12423W        W84738  36.778  36.330  13.946
12424W        W84739   1.405  23.499   0.018
12425W        W84740  36.428  18.792  12.352
12426W        W84741  16.030   6.279   2.728
12427W        W84742  19.168  35.317  13.163
12428W        W84743   4.968  26.573   0.928
12429W        W84744  31.984   4.571   0.393
12430W        W84745  21.837  25.660  14.851
12431W        W84746  11.637  35.185   0.810
12432W        W84747   8.956  40.377  14.882
12433W        W84748  30.035   6.249   2.012
12434W        W84749  30.883  17.115  12.924
12435W        W84750  43.922  13.868   3.271
12436W        W84751  21.534  42.880   3.707
12437W        W84752  16.318  21.340  10.358
12438W        W84753  35.620  27.130   1.380
12439W        W84754  14.765  23.853   4.870
12440W        W84755  43.299  11.297   1.175
12441W        W84756   2.307  36.360   0.914
12442W        W84757  14.694  27.709  12.001
12443W        W84758  26.780   6.260   1.226
12444W        W84759  14.446   2.189   0.721
12445W        W84760  27.004  13.132   0.985
12446W        W84761  33.212   4.704  13.199
12447W        W84762  37.770  26.376   4.583
12448W        W84763  13.152  22.856   3.588
12449W        W84764   0.494   1.291   0.957
12450W        W84765  27.508  14.322  10.286
12451W        W84766  25.407  44.610   2.310
12452W        W84767  39.946   5.217  14.220
12453W        W84768  22.098  16.774  14.376
12454W        W84769   2.410  17.229   1.316
12455W        W84770  44.788  41.740   2.830
12456W        W84771  14.271  35.909   4.900
12457W        W84772  18.666  36.324  14.488
12458W        W84773   3.432  41.306   1.787
12459W        W84774  12.355  30.455  13.376
12460W        W84775  41.502   9.774  13.515
12461W        W84776   9.838  34.607   2.299
12462W        W84777  24.650  10.185   1.127
12463W        W84778  40.813  39.426  13.497
12464W        W84779  26.063  17.877   3.823
12465W        W84780  27.036  32.420  14.741
12466W        W84781  15.095  38.005  13.321
12467W        W84782  11.359  21.592  11.673
12468W        W84783  16.704  15.527  11.947
12469W        W84784   2.843  25.972  12.392
12470W        W84785  11.711  35.094  11.271
12471W        W84786  26.736  36.620  13.060
12472W        W84787  19.507  11.749   4.024
12473W        W84788   7.993  31.004   0.178
12474W        W84789  28.734  20.125   3.765
12475W        W84790  27.925   4.292  11.046
12476W        W84791  17.230  11.652   3.780
12477W        W84792  38.147  10.233   2.114
12478W        W84793  20.764   2.967   4.567
12479W        W84794  26.930   7.145  10.847
12480W        W84795   4.036  14.690  13.949
12481W        W84796  29.408  36.440  14.356
12482W        W84797  41.382   9.754   2.021
12483W        W84798   4.700  19.774  12.915
12484W        W84799  41.033  40.484  13.554
12485W        W84800  37.804   4.905   3.413
12486W        W84801   0.146  29.229  12.175
12487W        W84802  11.226   5.830   0.748
12488W        W84803  25.478  30.379  10.639
12489W        W84804   5.614  21.117  13.401
12490W        W84805  32.689  33.825   3.615
12491W        W84806   3.642  40.266  12.386
12492W        W84807   0.072  38.502   0.974
12493W        W84808  23.285  12.063   1.361
12494W        W84809  34.586  23.266   1.962
12495W        W84810  26.994  41.260   2.956
12496W        W84811  12.832  27.299  11.074
12497W        W84812  39.263  24.309   3.693
12498W        W84813   1.229  28.952   3.093
12499W        W84814  37.506  31.591   4.176
12500W        W84815  19.205   8.783   2.180
12501W        W84816  27.119  41.939  13.049
12502W        W84817  28.651   1.311  13.810
12503W        W84818  30.624  36.177  11.493
12504W        W84819  33.106  25.976   1.403
12505W        W84820  12.161  44.883   3.772
12506W        W84821   2.038   5.824  10.769
12507W        W84822  10.715  24.188   4.572
12508W        W84823  25.080   4.180   1.830
12509W        W84824  28.638  15.004  13.459
12510W        W84825  20.315   8.670   4.104
12511W        W84826  11.112  24.538  13.374
12512W        W84827  32.021   0.968  11.673
12513W        W84828  34.959  17.698   4.235
12514W        W84829   2.415  34.280  10.986
12515W        W84830  18.655  21.743   1.264
12516W        W84831  28.033  42.714   1.714
12517W        W84832  14.533   0.827   0.796
12518W        W84833  20.996  43.292   3.235
12519W        W84834   5.770  43.029  14.307
12520W        W84835  19.769  37.988  11.471
12521W        W84836   3.285  35.832  11.165
12522W        W84837  42.198  18.893   3.139
12523W        W84838   5.913  14.731  13.726
12524W        W84839  23.334  10.615  12.443
12525W        W84840  23.926  19.278   2.111
12526W        W84841  13.730   1.061   1.006
12527W        W84842  30.388   3.014  11.070
12528W        W84843   0.267  42.005   4.460
12529W        W84844  23.322  28.094  12.697
12530W        W84845  11.877  24.487  12.857
12531W        W84846  13.268  38.955  14.349
12532W        W84847  23.674  23.597   4.996
12533W        W84848  15.778  32.998   3.212
12534W        W84849  32.984   1.272  11.612
12535W        W84850  33.113  19.947  13.406
12536W        W84851  18.093  43.799   3.660
12537W        W84852  20.100   2.907  14.046
12538W        W84853   9.280  13.007  11.719
12539W        W84854  44.715  25.051   0.935
12540W        W84855  41.042  31.482  12.636
12541W        W84856  12.384  39.856   2.064
12542W        W84857  25.906  33.400   0.415
12543W        W84858   8.888   2.298   4.441
12544W        W84859  11.974  20.016  10.026
12545W        W84860  20.303  29.419  10.329
12546W        W84861  13.932  28.019  14.917
12547W        W84862   2.902   0.897  12.688
12548W        W84863  14.776  28.215  14.047
12549W        W84864  44.279   7.653  13.807
12550W        W84865   4.455  19.090  13.310
12551W        W84866  29.245  11.301  13.521
12552W        W84867  23.328  18.455  11.850
12553W        W84868  31.725  11.318   3.303
12554W        W84869  37.026  26.807   4.124
12555W        W84870  35.036  16.693  14.302
12556W        W84871  16.581   4.661  11.465
12557W        W84872  27.775  36.968   3.836
12558W        W84873  36.241   0.499   3.866
12559W        W84874  11.760  26.849  13.354
12560W        W84875   9.381   9.922  11.164
12561W        W84876  35.647   5.293  14.257
12562W        W84877  17.765  29.164  10.461
12563W        W84878  15.201  35.484   2.322
12564W        W84879  34.530  17.284  14.262
12565W        W84880  10.351  15.706   2.339
12566W        W84881  16.641  39.929   0.831
12567W        W84882  43.467  42.883   2.050
12568W        W84883  35.214   3.276  11.941
12569W        W84884  38.853  24.469   0.474
12570W        W84885  35.518  13.553   3.237
12571W        W84886   6.135  15.768  12.522
12572W        W84887  36.986  26.693  10.280
12573W        W84888  30.987  40.575  11.547
12574W        W84889  14.070   2.856   4.661
12575W        W84890  14.428   8.416   4.133
12576W        W84891   3.199  29.103   0.714
12577W        W84892  18.028  36.009  13.801
12578W        W84893  34.516  38.779  13.828
12579W        W84894  10.353  16.174   2.633
12580W        W84895  31.970  25.043   2.802
12581W        W84896  16.515  13.762   0.940
12582W        W84897  35.525  42.817   2.520
12583W        W84898  26.852  12.867   5.187
12584W        W84899  23.115  40.370  11.216
12585W        W84900   8.708  37.563  13.916
12586W        W84901   8.005  30.083  13.946
12587W        W84902   5.552  28.034  12.215
12588W        W84903  10.796  34.959  13.810
12589W        W84904  44.252  34.478  11.435
12590W        W84905  22.746  12.585   4.118
12591W        W84906   6.212   3.837  12.641
12592W        W84907  13.594  13.120  11.130
12593W        W84908   2.194  35.148  13.890
12594W        W84909  21.285  39.606   2.417
12595W        W84910   6.218  31.607  12.479
12596W        W84911  28.166  40.831   1.178
12597W        W84912  11.735  39.161  11.104
12598W        W84913  42.060  41.602   0.044
12599W        W84914  16.954  21.132   2.431
12600W        W84915  24.611  33.397   0.844
12601W        W84916  17.624  20.367  14.939
12602W        W84917  15.802  33.587   4.109
12603W        W84918  24.724  36.848  12.922
12604W        W84919   5.043  16.647   1.469
12605W        W84920  15.120   9.837   2.700
12606W        W84921  26.863   3.252   2.297
12607W        W84922   3.930  36.317   2.327
12608W        W84923   2.197  33.975  14.426
12609W        W84924  16.104  18.007  12.546
12610W        W84925  13.720   4.698   4.877
12611W        W84926  22.994  29.906  12.447
12612W        W84927  15.289  19.079   0.488
12613W        W84928   5.243  43.310   1.364
12614W        W84929  13.372  29.179   2.759
12615W        W84930  26.538  31.063  11.469
12616W        W84931   0.830  25.711   4.152
12617W        W84932   6.333  30.339  13.434
12618W        W84933  23.288   5.897  13.065
12619W        W84934   6.307  27.386   0.619
12620W        W84935  31.563  17.904   0.177
12621W        W84936  22.389  36.532   0.557
12622W        W84937  27.370  17.653  12.808
12623W        W84938   0.838  24.191   3.262
12624W        W84939  10.883  15.301  13.620
12625W        W84940  19.281  39.105   3.243
12626W        W84941   9.959  25.778  11.188
12627W        W84942  13.362  42.546   2.317
12628W        W84943  10.650  23.505  12.058
12629W        W84944   2.174  40.667  11.135
12630W        W84945  38.829   2.730  13.087
12631W        W84946  22.299  16.537   4.047
12632W        W84947  39.643  24.140   4.957
12633W        W84948  43.331   9.755  11.094
12634W        W84949  18.787  40.937  13.050
12635W        W84950  28.294   6.921  12.351
12636W        W84951  44.559  43.437  10.778
12637W        W84952  21.070  44.004   1.373
12638W        W84953  29.688   8.288   3.813
12639W        W84954   7.658  28.736  13.631
12640W        W84955  37.896   7.721  10.492
12641W        W84956  15.604  39.991  14.350
12642W        W84957  16.335  35.394   4.431
12643W        W84958  10.912  17.665   1.069
12644W        W84959  14.354  30.646  11.107
12645W        W84960  40.667  15.751  14.472
12646W        W84961  34.202  33.026   3.645
12647W        W84962   6.663  21.897  14.791
12648W        W84963  10.860  27.346  13.631
12649W        W84964  22.282   3.300   1.221
12650W        W84965  43.427  37.193  14.830
12651W        W84966  17.171   0.968   0.263
12652W        W84967  25.121  13.774  11.644
12653W        W84968  35.873  37.056   3.848
12654W        W84969  11.325  29.482  13.098
12655W        W84970  15.643  40.845   0.777
12656W        W84971  21.213  30.561   2.004
12657W        W84972  20.556   8.559  10.220
12658W        W84973  41.152  10.634   2.329
12659W        W84974  40.240  17.917   3.232
12660W        W84975  42.443   6.813  14.197
12661W        W84976  28.532  16.561  12.002
12662W        W84977  36.796   4.814  10.154
12663W        W84978  38.333  27.780  12.592
12664W        W84979  13.646  28.437   0.043
12665W        W84980  32.356   6.292  14.943
12666W        W84981  18.268  44.668  11.475
12667W        W84982  13.415   2.254   1.400
12668W        W84983  32.483  30.893   2.671
12669W        W84984  13.366  39.870   1.810
12670W        W84985   2.957   2.275  11.395
12671W        W84986  16.829   1.276   1.718
12672W        W84987  16.214  39.072   9.683
12673W        W84988  25.937  29.104  13.941
12674W        W84989  35.148  14.167  11.468
12675W        W84990   4.001  42.535  12.414
12676W        W84991   7.952  18.028  12.435
12677W        W84992  24.782  36.969   1.815
12678W        W84993  18.623  41.974  10.090
12679W        W84994  22.007   9.823   2.901
12680W        W84995   6.208  30.079   0.265
12681W        W84996   1.956   4.870  13.928
12682W        W84997  10.172  10.036   2.938
12683W        W84998  35.454  12.273   1.984
12684W        W84999  25.560  11.153   2.106
12685W        W85000  34.984  25.249  13.894
12686W        W85001   6.855   1.927   4.163
12687W        W85002  37.629  23.503  13.882
12688W        W85003  24.851  39.704   1.407
12689W        W85004  40.819   6.219  11.631
12690W        W85005  26.773  44.440  13.956
12691W        W85006  22.575   2.946   1.514
12692W        W85007   2.254   7.074  13.586
12693W        W85008  19.018  27.538   1.698
12694W        W85009  25.971  17.979   1.138
12695W        W85010  17.572  30.433   1.748
12696W        W85011  25.343  33.431   1.245
12697W        W85012   7.215  16.736   0.754
12698W        W85013  28.402  33.442   4.194
12699W        W85014  14.125  30.079   4.719
12700W        W85015  10.784  20.512  12.234
12701W        W85016  43.849   5.599   2.207
12702W        W85017   7.811   5.035   4.934
12703W        W85018   8.045  36.419  11.586
12704W        W85019   9.363  14.887   1.617
12705W        W85020  35.299  15.533   0.522
12706W        W85021   2.254  16.657   0.375
12707W        W85022   8.113  13.775  12.998
12708W        W85023  36.608  13.113  12.509
12709W        W85024  10.597  31.366   3.284
12710W        W85025  37.994  41.852   1.229
12711W        W85026  42.957  22.754   0.193
12712W        W85027  30.096  26.684  13.561
12713W        W85028  20.603   6.328  14.970
12714W        W85029  11.364  13.099  13.077
12715W        W85030   6.778  19.500  12.482
12716W        W85031   8.292   9.298   0.885
12717W        W85032  39.428  25.966  13.300
12718W        W85033  11.889  17.211  10.027
12719W        W85034   8.320  44.787  12.414
12720W        W85035   0.065  12.222   2.623
12721W        W85036  42.849  41.004   4.844
12722W        W85037  39.048  25.802  13.630
12723W        W85038  37.673   6.544   1.138
12724W        W85039  16.486  24.602   0.393
12725W        W85040  16.713  34.465   2.662
12726W        W85041  17.658   1.243   3.812
12727W        W85042  27.410  38.796  10.967
12728W        W85043  22.669   7.382   0.700
12729W        W85044  27.907  17.119   1.792
12730W        W85045  30.658   2.835   2.207
12731W        W85046  31.872  30.329  11.506
12732W        W85047   8.605  15.734   4.615
12733W        W85048  28.911  34.360   4.248
12734W        W85049  37.629  35.589  11.503
12735W        W85050  37.003  44.569  12.262
12736W        W85051  22.714   8.434   1.699
12737W        W85052   7.029   9.140   3.842
12738W        W85053  24.439  28.171  13.852
12739W        W85054  14.869  14.760   1.964
12740W        W85055  42.056  23.215  13.824
12741W        W85056  33.675   4.843   3.702
12742W        W85057  22.915  34.141   2.211
12743W        W85058  20.246  18.054   2.959
12744W        W85059  17.726  12.272  14.938
12745W        W85060  25.733  32.877   4.942
12746W        W85061   3.187  36.952   0.056
12747W        W85062  25.234  15.530   0.286
12748W        W85063   1.012   6.499   5.022
12749W        W85064   0.814   7.312   3.127
12750W        W85065   1.846  39.824  12.376
12751W        W85066  19.294  14.207  14.059
12752W        W85067  40.285   4.151   0.331
12753W        W85068  17.723  31.356   0.215
12754W        W85069   7.967  41.722  12.044
12755W        W85070  11.874   4.732  13.253
12756W        W85071  36.878  11.078  13.097
12757W        W85072  22.970  28.653  11.214
12758W        W85073   7.428  14.866   0.812
12759W        W85074  30.484  44.489  13.395
12760W        W85075   9.946  36.045  11.601
12761W        W85076  30.669  20.540   4.675
12762W        W85077  20.475  36.315  13.043
12763W        W85078  37.786   3.913   1.887
12764W        W85079   2.504  39.661  11.224
12765W        W85080  44.374   8.886   3.181
12766W        W85081   0.257  25.434  13.559
12767W        W85082  36.348   5.814  14.873
12768W        W85083  22.178  37.400   3.661
12769W        W85084  26.740   0.238  11.241
12770W        W85085  22.116  33.113  12.532
12771W        W85086   0.331  16.611   1.388
12772W        W85087  22.281   8.868  11.496
12773W        W85088   9.579  17.255   4.809
12774W        W85089  44.749  21.185  12.397
12775W        W85090   4.501   8.321   1.210
12776W        W85091  16.152  19.623   4.891
12777W        W85092  25.523  16.260  13.068
12778W        W85093  31.707  20.562  12.901
12779W        W85094  14.241   7.162   3.698
12780W        W85095  36.957  14.174   2.217
12781W        W85096  38.463  23.743   4.559
12782W        W85097  43.676   1.774  11.197
12783W        W85098  15.252  27.619   2.241
12784W        W85099  35.838  16.612  13.870
12785W        W85100   1.722   5.725  11.154
12786W        W85101   8.606  25.849   0.429
12787W        W85102  28.268  12.324  14.402
12788W        W85103  44.811   3.572  14.925
12789W        W85104   6.477  29.646   1.028
12790W        W85105  26.052  34.077  13.419
12791W        W85106   7.595   2.448  10.545
12792W        W85107  16.810  24.609   4.147
12793W        W85108  37.845  42.054   4.705
12794W        W85109  17.971  10.322   1.681
12795W        W85110  41.474  37.372  13.989
12796W        W85111  14.713   5.832  13.592
12797W        W85112  11.197   1.681  11.353
12798W        W85113  42.191  27.439  14.365
12799W        W85114  25.592   2.574  14.466
12800W        W85115  42.370  12.190  13.560
12801W        W85116  37.917   4.880   4.817
12802W        W85117   4.321  17.604   3.756
12803W        W85118  28.596  25.739  11.078
12804W        W85119  37.895  31.009   4.648
12805W        W85120  29.939  43.558  14.503
12806W        W85121   4.695  43.117   2.766
12807W        W85122  35.859  40.865   3.577
12808W        W85123  17.132  10.806  11.113
12809W        W85124  28.650   9.447  12.189
12810W        W85125  36.924  20.510  12.837
12811W        W85126  44.942   4.325  10.971
12812W        W85127  40.826  14.056   4.760
12813W        W85128  10.884   4.142   4.156
12814W        W85129  32.516  32.126   4.858
12815W        W85130  43.570  10.814   2.266
12816W        W85131  22.398  37.422  10.511
12817W        W85132  42.811  15.903   0.045
12818W        W85133  12.649  12.723   4.637
12819W        W85134  18.797   9.075  10.465
12820W        W85135  39.266  27.383  11.646
12821W        W85136  44.694  16.238  10.716
12822W        W85137  42.537  33.068  12.030
12823W        W85138  36.508   5.665   0.381
12824W        W85139  31.910  21.561   3.789
12825W        W85140  28.889  41.012   4.095
12826W        W85141  28.446   5.742  12.346
12827W        W85142  19.521  25.636  11.558
12828W        W85143  22.005   3.851  11.440
12829W        W85144  24.191  28.161   4.457
12830W        W85145  14.956  13.925  12.197
12831W        W85146  27.480   3.738  13.021
12832W        W85147   1.698  38.500  13.107
12833W        W85148  24.479   4.272  12.656
12834W        W85149  10.810  21.448   0.328
12835W        W85150  37.312  21.142   4.172
12836W        W85151  29.530  39.061   2.304
12837W        W85152   8.411  32.917  11.088
12838W        W85153  25.188  20.198  11.416
12839W        W85154  26.276  27.609   0.473
12840W        W85155  21.762   5.109  11.109
12841W        W85156  12.965  25.670  14.860
12842W        W85157  43.146   9.014  14.382
12843W        W85158  35.875  27.156   0.922
12844W        W85159   2.868  26.743   3.250
12845W        W85160  29.646  43.621  12.397
12846W        W85161  23.456  24.985  11.164
12847W        W85162  35.420  42.997   3.024
12848W        W85163  12.551  40.352   2.478
12849W        W85164  24.172  43.336   3.361
12850W        W85165  22.063  39.450   2.408
12851W        W85166  36.448   3.643   1.700
12852W        W85167  43.243  40.314  10.583
12853W        W85168  19.069  14.108   4.738
12854W        W85169   7.360  25.795  14.931
12855W        W85170  11.769  33.937  12.609
12856W        W85171  21.973   3.718   1.375
12857W        W85172  42.949  44.873   2.099
12858W        W85173  28.010   2.133   4.589
12859W        W85174  28.546  38.604  14.488
12860W        W85175  17.522  10.348  10.027
12861W        W85176  44.681  36.880   1.398
12862W        W85177  11.374  43.328  11.666
12863W        W85178  10.446   7.371  11.013
12864W        W85179  22.505  25.365  12.292
12865W        W85180  23.715   9.628  11.010
12866W        W85181  41.827  16.760   1.860
12867W        W85182  25.362  13.696   0.329
12868W        W85183  36.509  18.477   2.297
12869W        W85184  36.369  11.177   4.063
12870W        W85185  41.303  11.765  12.451
12871W        W85186   0.854  41.562  14.563
12872W        W85187  39.701  32.208  11.302
12873W        W85188  12.106  10.979  11.698
12874W        W85189   8.812  39.493  14.803
12875W        W85190  11.274   1.625  13.950
12876W        W85191   7.542  26.996   0.284
12877W        W85192  15.241  26.716   3.360
12878W        W85193  31.476  32.350  10.966
12879W        W85194   8.386  11.225  14.400
12880W        W85195  14.703  26.608   3.350
12881W        W85196  12.845  10.813   2.295
12882W        W85197  21.061  44.855   0.462
12883W        W85198   2.349   9.351   4.717
12884W        W85199  30.545  24.924   0.116
12885W        W85200  16.656  23.384  12.818
12886W        W85201   2.548  17.829   0.832
12887W        W85202   8.943  12.659  14.015
12888W        W85203  17.102  44.263   9.996
12889W        W85204   9.189  31.460   3.893
12890W        W85205   7.196   6.780   0.831
12891W        W85206  22.009  14.111  12.845
12892W        W85207  16.674  11.221  14.250
12893W        W85208  41.286  32.389  13.333
12894W        W85209  30.707   8.177  11.553
12895W        W85210  40.354  43.091  12.017
12896W        W85211  29.033   0.900  12.379
12897W        W85212  12.067  15.189  12.645
12898W        W85213  14.395  14.217  14.700
12899W        W85214  22.911  31.500   1.707
12900W        W85215  44.805  31.914   2.800
12901W        W85216   7.523  18.225   1.115
12902W        W85217  44.492  10.554  11.010
12903W        W85218  34.104  41.663  13.395
12904W        W85219  27.976  25.287  10.446
12905W        W85220  43.039  21.699   4.673
12906W        W85221  35.006  10.626  14.275
12907W        W85222  41.888  17.681   1.041
12908W        W85223   0.266  29.005   0.722
12909W        W85224  26.241   3.018   2.657
12910W        W85225  31.459  42.174   1.134
12911W        W85226  34.045  26.202   2.816
12912W        W85227  13.303  44.488  13.396
12913W        W85228   0.804  44.847   3.245
12914W        W85229  43.524  28.458   2.760
12915W        W85230   2.400  36.093   1.344
12916W        W85231  42.892  21.781   1.156
12917W        W85232  31.942  36.409  12.023
12918W        W85233  23.193  27.075   1.379
12919W        W85234  44.956  41.077   3.582
12920W        W85235  21.520  41.442   0.937
12921W        W85236   1.845  14.718  11.183
12922W        W85237  23.788   9.899   0.351
12923W        W85238  37.022  29.196   1.842
12924W        W85239  15.665  23.515   1.902
12925W        W85240  35.599  37.507  13.264
12926W        W85241  31.100  36.131  11.707
12927W        W85242  38.781  20.631  13.822
12928W        W85243   7.895  38.115  14.876
12929W        W85244  19.208  39.360   5.032
12930W        W85245  17.136  22.434  10.567
12931W        W85246  20.312   6.764  14.887
12932W        W85247  10.422  13.622   0.817
12933W        W85248  11.737  15.312  11.268
12934W        W85249  20.931  22.286  13.056
12935W        W85250   1.241  28.006  14.520
12936W        W85251  14.524  42.978  11.498
12937W        W85252  44.513  28.362  13.896
12938W        W85253  40.713   0.242  11.996
12939W        W85254  43.295   2.513   2.433
12940W        W85255  24.989  10.209  13.567
12941W        W85256  29.016   3.649  10.567
12942W        W85257  28.507  27.889   4.589
12943W        W85258  19.350  26.981   2.793
12944W        W85259  28.597  35.339  11.684
12945W        W85260   9.163  12.437  12.009
12946W        W85261   7.445  44.971   3.250
12947W        W85262   7.444  36.877  10.513
12948W        W85263  28.676  36.234   3.860
12949W        W85264  33.129  34.245   5.075
12950W        W85265   8.094  21.315  13.347
12951W        W85266  30.570   1.260  14.191
12952W        W85267   5.723  14.792  12.413
12953W        W85268  32.435   8.955  13.357
12954W        W85269   0.133   8.382   3.121
12955W        W85270  19.464   6.434  11.058
12956W        W85271  29.966  26.289   3.634
12957W        W85272  34.123  42.918   0.752
12958W        W85273  24.558  29.040   1.427
12959W        W85274  30.926  16.074  12.120
12960W        W85275   0.035  35.998  11.586
12961W        W85276  25.205  27.533   3.369
12962W        W85277  22.482  13.845   0.334
12963W        W85278  17.273  32.091   1.290
12964W        W85279   7.580  15.142   2.692
12965W        W85280  33.448  21.766  10.678
12966W        W85281  36.980  19.176  11.769
12967W        W85282  38.972  19.871   1.855
12968W        W85283  35.838  36.511   2.244
12969W        W85284  32.104   1.512   2.274
12970W        W85285   8.362  15.131  13.234
12971W        W85286  41.459  17.308   4.674
12972W        W85287   4.541  30.476  10.772
12973W        W85288  31.798  27.158  10.441
12974W        W85289  11.912  26.450   1.367
12975W        W85290   3.840  18.618   3.171
12976W        W85291  38.290  40.737  12.042
12977W        W85292  22.559  25.204  11.199
12978W        W85293  28.936  32.011   0.934
12979W        W85294  31.657  33.062   3.328
12980W        W85295  42.811  15.812   0.950
12981W        W85296  10.176   1.654  14.498
12982W        W85297   7.175  44.239  10.071
12983W        W85298  34.393  42.719   4.216
12984W        W85299  26.478   1.654  11.596
12985W        W85300  30.805  44.831   4.909
12986W        W85301   0.952   5.189   3.206
12987W        W85302  12.664  34.905  11.652
12988W        W85303  14.538   8.133   0.853
12989W        W85304   5.869   8.398  13.991
12990W        W85305   6.980   1.725   2.819
12991W        W85306  19.013  26.585   2.706
12992W        W85307  22.674   3.147  13.975
12993W        W85308   5.000  13.060  12.177
12994W        W85309  37.477  30.095   3.240
12995W        W85310   1.010  18.162   4.845
12996W        W85311   2.645  13.118   3.211
12997W        W85312  12.350  12.221  12.884
12998W        W85313  26.936   4.738  12.494
12999W        W85314  41.739  26.543  12.178
13000W        W85315  26.999  44.453   0.697
13001W        W85316  28.095  30.882  10.545
13002W        W85317  37.925  18.548  12.407
13003W        W85318  27.506  26.497  12.419
13004W        W85319  14.667  20.048  13.906
13005W        W85320  41.357  25.967  11.315
13006W        W85321  26.671  24.275  12.923
13007W        W85322  12.176   7.548  12.880
13008W        W85323  16.260  21.265  12.428
13009W        W85324  25.405  21.685   9.722
13010W        W85325  21.619  21.267   3.534
13011W        W85326  21.220   3.432  14.364
13012W        W85327  32.022  28.570  12.988
13013W        W85328  34.681  18.735  12.981
13014W        W85329   5.414  14.046   4.268
13015W        W85330  33.130   3.331   1.883
13016W        W85331  32.965  43.405  14.374
13017W        W85332   0.435  32.447  13.431
13018W        W85333  32.625  39.519  11.071
13019W        W85334   3.230   1.403   0.267
13020W        W85335  35.494  29.598   3.598
13021W        W85336  12.493   8.341  13.166
13022W        W85337   6.380  33.422  10.715
13023W        W85338  14.647  17.650   4.243
13024W        W85339  14.332  28.406   2.406
13025W        W85340   3.767  23.077   3.375
13026W        W85341   8.572   6.523  13.465
13027W        W85342  20.608  30.489   0.241
13028W        W85343  39.634  36.534   0.376
13029W        W85344  28.115  25.708   1.398
13030W        W85345   1.752  13.487   2.400
13031W        W85346   8.717  16.293  12.828
13032W        W85347  12.998  36.603   3.219
13033W        W85348  27.522  16.273  11.689
13034W        W85349  16.597  23.409  14.163
13035W        W85350  11.958  18.535  13.501
13036W        W85351   9.713  34.536   4.758
13037W        W85352  23.137  14.792  12.494
13038W        W85353  27.641  41.794   0.871
13039W        W85354  24.136  32.634   1.944
13040W        W85355  33.986  14.768   2.190
13041W        W85356  20.711  19.863  11.534
13042W        W85357  11.040   0.265   2.567
13043W        W85358  22.610  40.262   2.489
13044W        W85359   5.793   9.294   4.620
13045W        W85360  29.048  25.028   2.263
13046W        W85361  11.808  31.197  13.533
13047W        W85362  18.753  20.635  10.980
13048W        W85363  14.317  13.603  11.588
13049W        W85364  30.081   8.396  12.867
13050W        W85365  13.306  43.951  12.086
13051W        W85366  13.054   3.594  12.972
13052W        W85367  32.928  31.410   3.169
13053W        W85368  12.863  39.800  13.022
13054W        W85369  19.116   7.274  11.854
13055W        W85370   4.521  44.366   1.264
13056W        W85371   4.322   9.932  12.424
13057W        W85372  29.444   1.284   1.506
13058W        W85373  28.505  27.068   1.419
13059W        W85374   5.377  12.277   0.367
13060W        W85375   7.087   3.746   3.599
13061W        W85376  33.895   3.284   3.735
13062W        W85377  21.107   0.713  12.477
13063W        W85378  44.970  14.836  13.644
13064W        W85379  17.148  27.323  10.128
13065W        W85380  26.731  35.062   4.246
13066W        W85381  26.863  18.604   1.637
13067W        W85382  39.593   5.269   2.303
13068W        W85383  36.182  39.102   5.205
13069W        W85384  19.211  38.814   3.738
13070W        W85385   5.428  39.377  11.863
13071W        W85386  21.096   5.750  12.121
13072W        W85387  30.519  11.872  11.557
13073W        W85388  43.487   1.386   3.725
13074W        W85389  29.947  20.395   1.399
13075W        W85390  26.211  21.668  10.429
13076W        W85391  22.195  18.153   3.617
13077W        W85392  44.847   4.172   4.514
13078W        W85393   4.283   6.964  10.992
13079W        W85394   5.253  19.158   0.829
13080W        W85395  44.822  33.802  14.457
13081W        W85396  17.783  27.517  13.329
13082W        W85397   4.020  10.147  13.491
13083W        W85398   7.980  30.096  14.851
13084W        W85399  35.530  24.801   0.312
13085W        W85400  26.569   3.811   9.890
13086W        W85401  21.500  44.441  12.448
13087W        W85402  27.414  23.942  14.905
13088W        W85403  16.127  33.948  12.334
13089W        W85404  17.396   9.205   9.913
13090W        W85405  36.900  31.712  14.791
13091W        W85406   6.132   1.888   3.649
13092W        W85407  43.879  23.657   1.208
13093W        W85408  27.962  15.813   0.851
13094W        W85409  35.902   6.733  12.057
13095W        W85410  34.141  34.944   2.013
13096W        W85411  27.998  41.904  14.413
13097W        W85412  24.193  25.005  10.087
13098W        W85413  25.117  37.270  14.737
13099W        W85414  24.548  43.475   0.008
13100W        W85415  25.492  38.954   3.957
13101W        W85416   7.032   3.463  14.553
13102W        W85417   1.843  37.996  13.105
13103W        W85418  12.692  32.700   4.633
13104W        W85419  12.837  44.920  14.148
13105W        W85420  10.171   4.915   2.030
13106W        W85421  26.128  28.040   1.377
13107W        W85422   8.201  14.495   1.341
13108W        W85423   8.231   8.597  13.412
13109W        W85424  26.030  16.334   2.756
13110W        W85425  28.909  18.805  12.165
13111W        W85426  36.904  11.592   3.694
13112W        W85427  21.265  26.070   1.681
13113W        W85428  43.828  43.923  12.065
13114W        W85429   2.851  32.592   1.523
13115W        W85430  17.256   5.884  12.246
13116W        W85431   2.361  11.656   3.117
13117W        W85432  43.738  17.232  11.111
13118W        W85433   5.915  16.581  14.955
13119W        W85434  34.043   8.454   1.742
13120W        W85435   4.355  37.861  13.135
13121W        W85436  10.927  22.950  14.004
13122W        W85437   3.363  40.236  13.434
13123W        W85438   7.775  26.210  13.430
13124W        W85439  43.248  13.490   0.224
13125W        W85440  33.584  41.389   2.476
13126W        W85441  26.520   9.664  14.018
13127W        W85442  30.196  40.439  12.055
13128W        W85443  33.938  34.999  13.768
13129W        W85444  36.411  43.737   3.638
13130W        W85445  11.651  44.958   3.678
13131W        W85446   9.364  32.656  10.591
13132W        W85447  40.469  19.040   4.054
13133W        W85448  17.779  31.978  11.123
13134W        W85449  21.786   5.156  14.346
13135W        W85450  29.682  11.745   1.209
13136W        W85451  25.170  34.131  11.792
13137W        W85452  20.461  10.775   3.334
13138W        W85453   9.291  14.327  10.341
13139W        W85454   3.190  14.111   2.242
13140W        W85455  44.775  40.227  11.529
13141W        W85456  43.654  41.698  11.680
13142W        W85457  10.652   3.495   0.904
13143W        W85458  11.857  35.179   3.536
13144W        W85459  43.037  26.991   5.047
13145W        W85460  33.947   5.188  12.873
13146W        W85461  21.095   3.360   4.639
13147W        W85462  13.529  36.781  14.916
13148W        W85463  10.449  44.003  10.807
13149W        W85464   7.004  34.460  11.216
13150W        W85465  12.273  21.323   1.390
13151W        W85466  44.558  41.548  12.476
13152W        W85467  23.441  17.234   3.806
13153W        W85468  30.138  23.126   3.280
13154W        W85469   5.737   9.560   1.218
13155W        W85470  39.360  41.659  14.102
13156W        W85471   1.361   8.485  14.066
13157W        W85472  44.793  10.566   0.860
13158W        W85473  26.276  38.606  10.683
13159W        W85474  18.674  37.584   2.615
13160W        W85475  32.084  27.707  11.233
13161W        W85476  24.269  16.801  11.146
13162W        W85477   1.434   3.696   1.727
13163W        W85478  29.336  13.060  14.597
13164W        W85479  24.598   8.295  12.561
13165W        W85480   8.085  33.250   3.969
13166W        W85481  37.073  25.008  12.455
13167W        W85482  21.258   8.500   4.492
13168W        W85483   0.232  37.004  12.593
13169W        W85484   8.401   6.854  11.104
13170W        W85485   9.396   7.679  13.308
13171W        W85486   0.938  40.983   1.895
13172W        W85487  13.030  28.994   4.113
13173W        W85488   8.183  42.000   3.768
13174W        W85489  44.771  17.812  11.485
13175W        W85490   4.699   8.729   0.939
13176W        W85491   7.123   0.788  12.451
13177W        W85492  35.544  15.044   3.209
13178W        W85493  28.189  34.443  11.834
13179W        W85494  16.255   4.726   3.365
13180W        W85495  13.810  24.558   2.131
13181W        W85496  11.747  13.698   2.385
13182W        W85497  13.135  43.334   2.829
13183W        W85498  27.655  16.708  12.903
13184W        W85499  22.734  12.230  12.036
13185W        W85500  12.115  25.010   1.910
13186W        W85501  41.851  16.322   3.655
13187W        W85502  40.457  22.294  10.705
13188W        W85503  36.036   1.754   4.643
13189W        W85504   1.802  18.355  13.384
13190W        W85505  33.662  18.151  13.528
13191W        W85506  32.532  29.081  12.506
13192W        W85507  43.885  18.713   0.766
13193W        W85508  19.152  29.372  13.905
13194W        W85509  42.860  35.795   0.664
13195W        W85510  42.439  13.973  10.275
13196W        W85511   9.173  27.116   2.216
13197W        W85512  42.355  19.042   4.557
13198W        W85513  33.932  35.003   0.191
13199W        W85514  11.656  28.646   3.230
13200W        W85515  18.312  27.174   4.470
13201W        W85516  23.755  15.648   3.714
13202W        W85517  31.710  16.125  11.745
13203W        W85518  36.850  11.776  13.342
13204W        W85519  38.747  13.419   3.408
13205W        W85520  42.926   1.661   1.217
13206W        W85521  11.262  39.553  14.261
13207W        W85522   5.168  28.428  11.142
13208W        W85523  14.689  26.107  13.959
13209W        W85524  39.859  34.898   3.113
13210W        W85525   4.836  32.209  10.763
13211W        W85526  32.162   0.583  14.406
13212W        W85527  40.404   5.064  11.956
13213W        W85528  10.473  32.940   4.161
13214W        W85529  28.995   0.465  10.332
13215W        W85530  20.209  40.912  14.492
13216W        W85531  41.301  12.276   4.680
13217W        W85532   5.355  32.106  14.469
13218W        W85533  37.031  20.725   5.025
13219W        W85534   8.452  43.857   0.967
13220W        W85535  26.840  15.915   2.556
13221W        W85536  18.537  19.357   2.928
13222W        W85537   5.327   8.034  12.019
13223W        W85538   2.337  29.482   2.792
13224W        W85539  25.005  13.395   0.897
13225W        W85540  20.046  23.836   2.405
13226W        W85541  26.904  41.517  13.278
13227W        W85542  18.380  33.305   2.428
13228W        W85543  20.127  18.542  10.322
13229W        W85544  18.177  11.449   2.129
13230W        W85545   0.601  13.423  12.341
13231W        W85546  20.033  29.711   3.675
13232W        W85547  32.081  23.698  13.365
13233W        W85548   9.147  18.837  14.008
13234W        W85549  24.664  18.833  14.872
13235W        W85550  20.965  14.088   4.897
13236W        W85551  13.864   7.352   4.983
13237W        W85552  33.115  14.569  13.018
13238W        W85553  12.052   8.744  11.103
13239W        W85554  29.386   0.357  10.686
13240W        W85555  17.268  35.521  10.381
13241W        W85556  15.077  42.740   2.724
13242W        W85557   9.322  20.828  14.381
13243W        W85558  28.489  10.384  14.871
13244W        W85559  43.776  28.983   0.895
13245W        W85560  36.004  25.001   3.307
13246W        W85561  33.166  31.869   3.155
13247W        W85562  29.447  12.363  11.764
13248W        W85563   3.993   3.483   0.278
13249W        W85564  19.160  29.251  11.965
13250W        W85565  25.229   1.231   4.150
13251W        W85566  31.315  26.122  14.269
13252W        W85567  20.687  34.017  12.609
13253W        W85568   2.186  37.305  10.613
13254W        W85569  26.976   6.229  10.629
13255W        W85570   2.055  33.100   4.133
13256W        W85571  13.966  24.146   4.594
13257W        W85572  25.498   6.723   0.518
13258W        W85573   7.439  42.731  12.469
13259W        W85574  24.029   6.931  11.002
13260W        W85575   9.999  25.812  12.859
13261W        W85576   9.104   9.935   0.814
13262W        W85577  19.733   2.378  12.446
13263W        W85578  34.826   0.974  10.743
13264W        W85579  12.845  22.805  13.521
13265W        W85580  31.439  27.131   2.619
13266W        W85581  30.011   8.920  11.609
13267W        W85582  24.331  19.926  11.931
13268W        W85583  43.018  28.070   0.317
13269W        W85584  10.359  39.096  13.317
13270W        W85585  39.309  10.625  11.999
13271W        W85586  31.269   1.368  11.072
13272W        W85587  35.580  28.722  14.964
13273W        W85588  30.610   1.725  14.444
13274W        W85589  43.847  28.898  12.550
13275W        W85590  44.229  42.967   0.813
13276W        W85591  32.919  33.182  13.454
13277W        W85592  30.124  43.415  11.596
13278W        W85593  35.206  29.429   1.643
13279W        W85594  24.575  26.106   3.604
13280W        W85595  31.042  12.840  13.103
13281W        W85596  34.794  43.580  14.735
13282W        W85597  32.826  22.050  12.871
13283W        W85598  44.673  25.928   1.023
13284W        W85599  22.030  20.554  12.096
13285W        W85600  25.145  25.163   1.839
13286W        W85601  24.232  13.563  12.520
13287W        W85602   2.755  24.269  11.372
13288W        W85603  18.746  13.292   2.358
13289W        W85604  25.696   6.301  13.452
13290W        W85605  38.476  35.817   0.827
13291W        W85606  24.043  22.904   4.342
13292W        W85607  31.697  19.026   1.270
13293W        W85608  32.273  31.026   2.224
13294W        W85609  13.719  40.797  14.686
13295W        W85610  44.580  10.896   2.219
13296W        W85611   9.261  13.866   2.201
13297W        W85612  37.287  35.835   1.422
13298W        W85613  19.385  13.533   4.158
13299W        W85614  14.681  23.603   0.990
13300W        W85615   2.765  33.130   3.676
13301W        W85616  16.685  29.045   1.457
13302W        W85617  19.225  21.809   3.654
13303W        W85618  23.416  38.252   3.404
13304W        W85619  19.224  22.819   0.466
13305W        W85620   5.675  19.049  14.928
13306W        W85621  36.705  12.594   4.237
13307W        W85622  44.968  38.581   2.404
13308W        W85623  32.789  11.683  12.159
13309W        W85624   3.901  10.306   1.125
13310W        W85625  10.735  30.021   4.265
13311W        W85626  12.362  21.733  14.363
13312W        W85627  21.294   8.593   5.017
13313W        W85628   5.349  41.305   1.492
13314W        W85629  11.716  38.543   0.890
13315W        W85630  34.447  14.667   1.974
13316W        W85631  37.595  43.026   3.784
13317W        W85632  16.198  32.923  12.043
13318W        W85633   7.848  26.001   3.402
13319W        W85634  22.564  19.652   4.556
13320W        W85635  39.237  39.261  11.972
13321W        W85636  30.848  14.349  10.592
13322W        W85637  28.209   9.355  11.368
13323W        W85638   7.717  37.375   4.876
13324W        W85639  44.807  27.606   4.835
13325W        W85640  39.413  32.388   0.294
13326W        W85641   2.622  40.889  11.036
13327W        W85642  18.118  19.209  14.804
13328W        W85643  28.765  28.482  13.768
13329W        W85644  10.680  21.950  13.885
13330W        W85645  17.612  43.066   3.806
13331W        W85646  40.354  42.818  14.957
13332W        W85647   0.954   1.717   1.580
13333W        W85648  40.866   5.479  13.402
13334W        W85649  32.634  39.952  14.338
13335W        W85650  11.421   0.437   3.716
13336W        W85651   3.910  42.069   1.640
13337W        W85652  41.079  20.993  11.115
13338W        W85653  42.498   7.851   3.184
13339W        W85654  25.258  31.407  11.112
13340W        W85655  10.100  36.661  13.837
13341W        W85656   4.493  24.101  13.469
13342W        W85657  34.154  20.729  12.130
13343W        W85658  17.574  31.288   5.602
13344W        W85659   4.382  37.028  14.821
13345W        W85660  37.971  43.751   1.378
13346W        W85661   8.940  25.519   0.230
13347W        W85662  36.896  28.376   3.655
13348W        W85663  17.661  33.538   4.319
13349W        W85664  14.302  21.293  14.915
13350W        W85665  18.469  30.435   4.177
13351W        W85666  30.036  19.884  12.407
13352W        W85667  26.670  29.469  10.734
13353W        W85668  24.643  38.158   4.244
13354W        W85669  36.646   7.230   2.779
13355W        W85670  24.775  41.945  12.064
13356W        W85671  18.144   4.899   0.158
13357W        W85672  28.154  33.807  10.955
13358W        W85673  26.113  20.559  13.540
13359W        W85674   8.807   5.877   4.715
13360W        W85675  17.749  17.659  13.838
13361W        W85676  18.292   7.393   3.363
13362W        W85677   7.421  37.867   3.326
13363W        W85678  19.252  43.501  10.730
13364W        W85679  27.725  21.567  10.700
13365W        W85680   0.470   5.441   3.248
13366W        W85681  39.546  25.167   0.256
13367W        W85682  12.789   0.782  14.791
13368W        W85683  19.827  20.764  14.349
13369W        W85684   9.467  40.979   1.453
13370W        W85685   0.584  28.244  10.133
13371W        W85686  12.801  33.545  12.940
13372W        W85687   6.516  19.596  14.967
13373W        W85688  17.708  37.536  13.457
13374W        W85689   2.194  16.978  11.533
13375W        W85690   0.707   6.932  12.486
13376W        W85691   7.852  16.687   0.330
13377W        W85692  40.959  21.015   1.833
13378W        W85693  28.537  18.817  14.780
13379W        W85694   3.702   6.516   0.289
13380W        W85695  35.112  16.312   2.654
13381W        W85696  24.739  40.845  14.696
13382W        W85697  23.475  13.613  13.753
13383W        W85698  31.753   0.956   3.629
13384W        W85699  17.741  23.413  14.255
13385W        W85700  41.731   3.451   0.266
13386W        W85701   0.075   0.214  13.577
13387W        W85702  23.854  19.113  12.413
13388W        W85703   1.369  36.148  11.521
13389W        W85704  36.325  22.712   1.356
13390W        W85705  31.078  13.103   0.455
13391W        W85706  22.363   8.131   4.445
13392W        W85707   1.788  30.479   4.875
13393W        W85708  34.608  39.595  14.473
13394W        W85709   3.924   9.195   1.836
13395W        W85710  16.356   1.778  10.680
13396W        W85711  30.885  33.547   1.491
13397W        W85712   0.201  42.899  10.841
13398W        W85713   3.381   3.297   4.127
13399W        W85714  15.461   3.312  10.303
13400W        W85715  18.402   7.206   1.270
13401W        W85716  28.048  11.182   0.455
13402W        W85717   9.383  10.797   3.219
13403W        W85718  35.520  28.715   2.367
13404W        W85719  33.492  10.698   2.512
13405W        W85720   7.908  14.655  12.558
13406W        W85721  23.807  19.950  10.279
13407W        W85722  12.550  29.587   3.578
13408W        W85723  16.864   3.134   4.943
13409W        W85724  34.984  15.102   3.686
13410W        W85725   5.405  21.059  11.627
13411W        W85726  33.416  20.365   3.169
13412W        W85727  18.027   6.345  12.996
13413W        W85728   1.451  18.122  14.440
13414W        W85729   7.237  38.390  12.593
13415W        W85730  39.044  28.491  10.712
13416W        W85731  37.499   3.656   1.436
13417W        W85732  29.984  40.637   1.933
13418W        W85733   4.843  42.992  10.775
13419W        W85734  31.938  23.739   3.240
13420W        W85735   2.805   3.827  10.775
13421W        W85736   5.499  33.893   4.087
13422W        W85737  33.359  38.014   4.043
13423W        W85738  42.779  16.245  12.977
13424W        W85739  30.203  25.715  14.805
13425W        W85740  29.548  31.704   0.392
13426W        W85741   4.682   7.434  11.523
13427W        W85742  42.996  21.050  11.432
13428W        W85743   6.431   4.468   5.025
13429W        W85744  32.846  43.310   1.287
13430W        W85745  20.259  36.152  10.643
13431W        W85746  30.615  38.303   1.708
13432W        W85747  18.299  40.108  14.740
13433W        W85748   6.532   6.757   4.328
13434W        W85749  21.066  43.396  12.667
13435W        W85750   7.692  36.443  10.610
13436W        W85751  40.008  20.262  13.836
13437W        W85752  18.322  28.211   1.911
13438W        W85753  35.001  27.557  11.182
13439W        W85754  35.480  41.893  13.971
13440W        W85755  17.341   9.810   2.867
13441W        W85756  32.608   7.146  13.970
13442W        W85757  10.882   0.532   0.891
13443W        W85758  17.832  17.619  12.866
13444W        W85759  33.631  19.633   2.210
13445W        W85760  37.428  30.092   0.366
13446W        W85761  18.843  26.262  12.101
13447W        W85762  15.717   5.792  13.533
13448W        W85763  12.788   2.711   0.362
13449W        W85764  26.877  20.763  12.867
13450W        W85765  19.207   8.108   9.808
13451W        W85766   3.407  36.073  10.720
13452W        W85767  42.532  29.069   3.745
13453W        W85768  44.349   2.963   1.498
13454W        W85769  20.253  24.153  12.891
13455W        W85770  26.799  17.224   0.476
13456W        W85771  25.963  32.609   2.114
13457W        W85772  20.955  40.283   4.072
13458W        W85773  25.452  36.679   2.400
13459W        W85774  28.394  33.936   3.603
13460W        W85775  33.636   9.638   2.431
13461W        W85776  21.939  16.313   1.219
13462W        W85777   9.801  25.765  14.432
13463W        W85778  31.766  31.058   4.714
13464W        W85779  21.528   5.080  10.252
13465W        W85780  10.816  23.528   4.063
13466W        W85781  27.510  27.978  11.985
13467W        W85782   1.792  29.623  13.884
13468W        W85783  24.785  29.602  10.767
13469W        W85784   3.166   7.229   4.466
13470W        W85785  10.741   6.361   1.406
13471W        W85786   7.736   9.813   4.534
13472W        W85787  29.560  16.205   4.700
13473W        W85788  22.455   2.722   2.476
13474W        W85789  24.445  36.331  13.878
13475W        W85790  34.594  31.519   1.855
13476W        W85791  44.288  38.369  11.703
13477W        W85792  13.129  28.905  12.386
13478W        W85793  38.397   4.705   2.727
13479W        W85794  13.074  42.862  11.276
13480W        W85795  25.128   9.624   0.296
13481W        W85796  41.361  41.901   1.076
13482W        W85797  21.504  37.010  11.629
13483W        W85798   7.391  15.117   1.319
13484W        W85799  19.058  25.696  12.773
13485W        W85800  38.465  38.071   4.162
13486W        W85801  20.538  28.966   3.701
13487W        W85802  29.647  26.512  11.827
13488W        W85803  23.328  29.691   4.278
13489W        W85804  30.762  12.773   3.811
13490W        W85805  35.413   0.845  13.035
13491W        W85806  41.232  19.134   3.552
13492W        W85807  35.597  24.697  10.921
13493W        W85808   4.427  26.817   0.235
13494W        W85809   6.263   6.814   2.436
13495W        W85810   2.640  26.259   1.353
13496W        W85811  20.281   4.817   4.481
13497W        W85812  33.682  26.608  14.799
13498W        W85813  29.518  40.101  14.162
13499W        W85814  34.003  21.720   2.042
13500W        W85815  18.068  38.534  11.921
13501W        W85816  13.073  39.346  11.032
13502W        W85817  30.425   2.904  12.415
13503W        W85818  30.531  37.151  13.141
13504W        W85819  26.649   0.314   3.341
13505W        W85820  18.166  19.427   4.634
13506W        W85821  36.939   3.700  13.931
13507W        W85822  10.765  35.972   4.508
13508W        W85823  10.476   2.312   3.721
13509W        W85824  37.398  35.606   2.813
13510W        W85825  36.862  16.712  11.816
13511W        W85826  14.287  44.543   1.644
13512W        W85827  38.774  11.769  14.863
13513W        W85828  43.905  27.687  13.166
13514W        W85829  36.708   6.413  12.211
13515W        W85830  43.358   4.992  12.018
13516W        W85831  16.611  23.756  13.786
13517W        W85832  11.767  19.543  10.938
13518W        W85833  12.612  40.913  11.514
13519W        W85834  39.809  36.511   0.876
13520W        W85835   1.159  11.302  10.689
13521W        W85836  39.279  23.895   1.709
13522W        W85837  13.788  43.901   1.784
13523W        W85838   5.718  26.790  12.497
13524W        W85839  44.222   9.366  13.063
13525W        W85840  14.822  13.184   1.897
13526W        W85841  34.302  34.001   1.272
13527W        W85842   0.801  29.603   3.170
13528W        W85843   1.877  15.003   3.216
13529W        W85844  28.571   7.725   0.636
13530W        W85845  44.744  39.886   1.532
13531W        W85846  24.437  23.664   0.789
13532W        W85847  13.121  36.905  13.422
13533W        W85848  40.348   0.297  10.590
13534W        W85849  44.718  19.558   4.482
13535W        W85850  37.243  20.608  14.346
13536W        W85851  43.748  19.525   1.885
13537W        W85852  12.998  18.195   3.268
13538W        W85853  20.583  39.860   2.314
13539W        W85854  25.026  25.464   4.536
13540W        W85855  35.514   1.839   2.871
13541W        W85856  39.073  12.195  14.802
13542W        W85857  36.367  16.294  12.359
13543W        W85858  25.518  19.837  10.150
13544W        W85859  19.172  44.721   0.798
13545W        W85860  40.622  12.826  11.305
13546W        W85861   7.733  10.303   4.714
13547W        W85862  30.517   4.389  13.374
13548W        W85863   8.253  20.783   2.157
13549W        W85864  22.203  44.983  12.931
13550W        W85865  15.738  39.536   3.203
13551W        W85866  20.483  21.675   3.151
13552W        W85867  44.454  28.725  14.880
13553W        W85868   5.183  13.136  13.652
13554W        W85869  11.840   1.053   1.750
13555W        W85870  14.307   1.294  11.601
13556W        W85871  13.556  10.854  12.979
13557W        W85872  25.935  29.254  14.832
13558W        W85873  13.588   6.149   4.748
13559W        W85874  26.155  30.014  11.134
13560W        W85875  30.144  12.094   3.713
13561W        W85876  27.251  23.284   3.888
13562W        W85877   3.000  11.740  14.497
13563W        W85878  28.148  26.240   0.633
13564W        W85879  34.497  27.541   0.868
13565W        W85880   0.535  38.531   4.162
13566W        W85881  28.203   6.082  13.457
13567W        W85882  44.779  30.429  14.456
13568W        W85883   2.414  35.500   5.058
13569W        W85884  25.524  35.629  11.997
13570W        W85885   2.797  36.589   0.161
13571W        W85886  17.017  27.053   4.224
13572W        W85887  40.018   8.910   3.231
13573W        W85888  33.408  12.174  12.348
13574W        W85889  44.697  27.869   3.047
13575W        W85890  35.863  41.096   1.335
13576W        W85891  38.811  13.075  13.965
13577W        W85892  42.208   5.210   0.814
13578W        W85893  28.437  24.318   4.937
13579W        W85894  33.932   5.939   0.481
13580W        W85895  40.140  27.585   0.478
13581W        W85896  39.374  19.571  12.389
13582W        W85897  35.867   0.841  14.371
13583W        W85898  38.587  32.629  11.537
13584W        W85899  22.805  10.886  13.071
13585W        W85900   3.279  43.295   2.812
13586W        W85901   5.232  13.822  14.392
13587W        W85902   8.257  12.857  10.638
13588W        W85903  13.325   1.909   2.950
13589W        W85904   1.748   5.817   3.554
13590W        W85905  36.987  28.718   2.655
13591W        W85906  13.045  25.279  14.497
13592W        W85907  33.409   7.321   1.467
13593W        W85908  27.856   5.839  10.203
13594W        W85909   3.301  29.664   4.676
13595W        W85910  26.717  20.275  14.869
13596W        W85911  26.695  18.791  10.410
13597W        W85912   4.936  26.211   4.588
13598W        W85913  41.792  14.508   0.306
13599W        W85914  24.144  40.200  13.689
13600W        W85915   7.211  38.882  11.291
13601W        W85916   8.055  41.073   1.052
13602W        W85917  11.827   3.858  14.306
13603W        W85918  43.826  32.075  13.879
13604W        W85919   5.781  13.670  10.701
13605W        W85920  38.928  34.136   1.954
13606W        W85921  28.659  18.422  14.467
13607W        W85922  19.360  30.922  12.986
13608W        W85923  19.298   7.362  12.396
13609W        W85924   4.738  29.544  13.932
13610W        W85925  29.261  31.661   1.175
13611W        W85926  27.070   7.895  12.059
13612W        W85927  21.331  39.444   3.898
13613W        W85928   2.324  14.022   4.052
13614W        W85929   9.190  12.234  11.129
13615W        W85930  11.887  44.518   3.536
13616W        W85931  43.749  35.967   1.014
13617W        W85932  38.590   4.859  12.628
13618W        W85933  17.210   6.613  13.497
13619W        W85934   5.906  11.818  14.331
13620W        W85935   3.207  14.989   2.554
13621W        W85936   1.615   2.938  11.887
13622W        W85937  32.802  36.787   0.681
13623W        W85938   1.504  33.203  11.562
13624W        W85939  21.653  33.864  10.686
13625W        W85940  29.460  25.298  11.598
13626W        W85941  10.881   0.358   4.051
13627W        W85942  30.832  17.649   1.950
13628W        W85943  33.666   6.321   4.576
13629W        W85944  28.806  40.324   2.806
13630W        W85945  27.903  33.392   4.204
13631W        W85946  29.732  25.558   2.570
13632W        W85947   6.162  28.997  12.339
13633W        W85948  14.739  27.733  14.945
13634W        W85949  10.118   8.766   3.323
13635W        W85950  43.748   7.324   4.878
13636W        W85951  35.669  22.061   1.424
13637W        W85952  27.235  27.429   2.248
13638W        W85953  10.471  39.592  12.483
13639W        W85954  31.404  27.519  13.446
13640W        W85955  20.743  27.187  11.886
13641W        W85956  22.940  20.907   3.676
13642W        W85957  24.075  29.273  12.910
13643W        W85958  23.771  25.691   1.766
13644W        W85959  12.217   3.282  12.461
13645W        W85960  10.071  33.966  10.662
13646W        W85961  12.024  17.296  12.248
13647W        W85962  14.045  25.516   3.559
13648W        W85963  42.744   3.449  10.599
13649W        W85964  31.537   5.958   3.709
13650W        W85965   4.954  20.815  12.108
13651W        W85966  23.273  33.390  12.024
13652W        W85967  14.012  20.104  12.971
13653W        W85968   7.354  16.579  11.649
13654W        W85969  32.635  25.987  12.963
13655W        W85970  26.581  27.864  10.348
13656W        W85971  11.770  21.104  10.910
13657W        W85972  43.393  29.191  12.392
13658W        W85973  21.097  19.226  14.991
13659W        W85974  30.939  39.974   3.563
13660W        W85975   3.464  29.132   2.281
13661W        W85976  25.216  35.965   2.871
13662W        W85977   0.854  10.379   4.525
13663W        W85978  12.794  30.594   0.876
13664W        W85979  11.554  24.752  10.645
13665W        W85980  16.191  34.350  10.613
13666W        W85981   2.779   9.049   0.834
13667W        W85982  44.933  13.718   2.677
13668W        W85983  34.556  26.394   2.738
13669W        W85984  11.184  22.506  11.391
13670W        W85985  33.604  44.365   5.291
13671W        W85986  11.728  20.992   2.437
13672W        W85987  15.174  19.164  13.790
13673W        W85988   2.804   2.252  10.680
13674W        W85989  28.477   5.805   4.485
13675W        W85990  26.478  25.169   2.625
13676W        W85991  23.142  43.842   2.782
13677W        W85992   1.525  18.717  11.497
13678W        W85993  36.069  30.322   3.670
13679W        W85994  35.961   6.404   4.186
13680W        W85995  21.505  23.751  11.456
13681W        W85996  18.165  15.785  13.931
13682W        W85997  32.302  34.654   1.495
13683W        W85998  38.708  30.358  14.992
13684W        W85999  36.381  31.487  12.588
13685W        W86000   0.509  27.870   2.710
13686W        W86001   3.902  17.545   3.250
13687W        W86002   1.788  31.474   1.277
13688W        W86003  33.631  14.212  13.370
13689W        W86004  26.259   5.630  13.145
13690W        W86005  33.860   2.993  11.108
13691W        W86006   5.601  16.645  12.593
13692W        W86007  40.595  27.794  13.870
13693W        W86008  11.207  32.919   3.819
13694W        W86009  37.241  31.914   4.467
13695W        W86010  44.497   3.383  10.134
13696W        W86011   1.344  15.392  13.983
13697W        W86012  17.653  29.054  11.936
13698W        W86013  19.854  35.357   2.697
13699W        W86014   7.413  10.711   0.341
13700W        W86015  15.655   9.611   2.641
13701W        W86016  31.081   8.356  10.674
13702W        W86017  27.301   8.935   0.923
13703W        W86018   0.070  35.914  10.193
13704W        W86019   4.867   3.903  12.842
13705W        W86020  14.135  16.844   0.481
13706W        W86021  22.041  29.373  11.132
13707W        W86022  36.655  25.095   1.654
13708W        W86023  31.661  25.528  14.789
13709W        W86024   0.410  38.413   0.297
13710W        W86025  24.168  12.084   3.192
13711W        W86026  33.805  43.534  12.028
13712W        W86027   2.871  28.858  13.358
13713W        W86028  41.418  33.430   1.926
13714W        W86029  19.192  44.586   3.669
13715W        W86030  44.562  12.227  12.486
13716W        W86031  28.122   0.096  14.026
13717W        W86032  26.004  19.632   0.338
13718W        W86033   8.759   1.244   1.660
13719W        W86034  23.943  30.667  12.933
13720W        W86035  24.205  10.396  11.687
13721W        W86036   1.497  21.441  14.281
13722W        W86037  15.641  33.587   0.748
13723W        W86038  40.466  29.918   1.860
13724W        W86039  35.808  27.130   2.797
13725W        W86040  13.865  31.624  14.357
13726W        W86041  35.163  21.859   3.829
13727W        W86042   3.001   6.653   1.448
13728W        W86043   1.171   3.762  14.257
13729W        W86044  30.216  40.941   0.213
13730W        W86045  42.452  14.528  13.627
13731W        W86046  24.107  13.346   4.139
13732W        W86047   2.302  16.856   3.315
13733W        W86048   8.248  36.905   1.226
13734W        W86049  37.553   5.557  12.959
13735W        W86050  13.305  39.520  11.492
13736W        W86051  12.404  37.127  12.490
13737W        W86052  23.696  24.411   3.155
13738W        W86053  30.965  12.890   5.151
13739W        W86054  10.749  34.586  12.839
13740W        W86055  18.146  36.534   4.052
13741W        W86056  22.168   2.945   0.837
13742W        W86057  28.477  14.236   0.251
13743W        W86058  34.741  27.589  14.561
13744W        W86059  12.394  31.137   2.883
13745W        W86060   0.880  14.589  10.427
13746W        W86061  30.495  24.589  12.109
13747W        W86062  38.993  40.870   1.860
13748W        W86063  41.606  14.712  11.159
13749W        W86064  39.489  33.193  11.599
13750W        W86065   8.200   4.976  10.903
13751W        W86066  15.152  39.147  14.808
13752W        W86067   6.121   8.130   0.323
13753W        W86068  36.896  13.078   4.908
13754W        W86069  38.731  20.647   9.690
13755W        W86070   1.525   9.521   4.972
13756W        W86071   2.612  26.160  14.256
13757W        W86072   1.461  16.716  14.203
13758W        W86073  27.255  34.596  10.250
13759W        W86074  42.395   8.693   1.821
13760W        W86075  42.402   6.197  12.051
13761W        W86076  13.753  15.859   2.716
13762W        W86077  29.576   6.129   0.326
13763W        W86078  27.614   5.797   5.081
13764W        W86079  35.860  35.851   3.809
13765W        W86080   9.696  30.086   4.664
13766W        W86081  25.058  32.113   3.784
13767W        W86082  11.831   8.111  11.598
13768W        W86083  30.013  30.605   4.067
13769W        W86084   2.196  17.714   1.792
13770W        W86085   4.715  11.153  10.505
13771W        W86086  12.308  41.284   2.703
13772W        W86087  13.851  14.785  12.170
13773W        W86088   7.595  17.799  12.975
13774W        W86089  21.949  27.420   2.279
13775W        W86090  41.222  32.030   2.234
13776W        W86091   6.256  21.412   2.172
13777W        W86092  20.771   5.912  11.722
13778W        W86093  32.786  41.668  11.081
13779W        W86094   1.998  27.946  12.460
13780W        W86095  14.500  22.909  11.540
13781W        W86096  37.112  28.722   4.170
13782W        W86097  31.959  14.219  13.093
13783W        W86098  23.480  34.659  14.904
13784W        W86099  39.683  22.568  11.668
13785W        W86100   8.644  44.721   4.095
13786W        W86101  20.792  44.884  11.983
13787W        W86102  35.155  18.869  12.821
13788W        W86103   9.889  17.785   4.029
13789W        W86104  43.888  27.137  11.905
13790W        W86105   6.951  41.153  10.619
13791W        W86106   8.910  32.626   1.773
13792W        W86107  30.146  42.843   1.254
13793W        W86108  34.547  22.115  12.979
13794W        W86109  23.603  44.301  10.253
13795W        W86110  23.281  43.358  11.809
13796W        W86111  22.152   7.253  11.711
13797W        W86112  16.880  39.955  11.083
13798W        W86113  11.311  42.980   1.348
13799W        W86114  42.650  25.351   2.762
13800W        W86115  29.478  27.574   4.115
13801W        W86116   9.790   6.421  13.601
13802W        W86117  19.121  32.131   3.643
13803W        W86118  43.456  27.069  11.603
13804W        W86119  36.132  36.570  11.972
13805W        W86120  20.759   6.214   0.460
13806W        W86121  16.138  22.607   3.389
13807W        W86122  12.414  26.586  12.544
13808W        W86123  27.596  10.174   4.129
13809W        W86124  26.722  26.823   1.724
13810W        W86125  12.264  14.302   1.222
13811W        W86126  31.686   5.880  13.657
13812W        W86127  11.183  23.066   2.823
13813W        W86128   8.181  20.850   0.749
13814W        W86129  44.491  26.058   2.378
13815W        W86130  25.745  34.448   0.391
13816W        W86131  39.555  42.141  11.399
13817W        W86132  33.674  18.554  12.972
13818W        W86133  12.413  24.948  13.318
13819W        W86134   7.391   4.710  11.569
13820W        W86135  30.852  37.009   3.623
13821W        W86136  11.212  32.459  13.834
13822W        W86137  24.802  31.228   4.120
13823W        W86138  31.876  15.140   4.842
13824W        W86139  31.147  16.343  11.725
13825W        W86140  22.576  25.388   0.040
13826W        W86141  44.716   9.125  12.346
13827W        W86142  35.451   8.138  12.589
13828W        W86143   7.519  19.376  14.811
13829W        W86144   7.623  13.732  12.921
13830W        W86145  14.152  30.125   4.208
13831W        W86146   5.055  17.037   2.224
13832W        W86147  21.603  15.628  10.819
13833W        W86148   9.882  13.167   4.193
13834W        W86149  36.603  32.613   3.819
13835W        W86150   0.342  12.282   2.173
13836W        W86151  12.652  17.481   2.833
13837W        W86152  20.624  26.077   2.297
13838W        W86153  22.208  41.094  12.072
13839W        W86154  28.407  24.596  10.605
13840W        W86155  34.466  15.217  12.548
13841W        W86156  29.734  23.353   3.645
13842W        W86157  30.584  20.816  11.166
13843W        W86158  13.114  23.491  13.929
13844W        W86159   8.127  40.082  14.937
13845W        W86160  18.154  28.505   2.339
13846W        W86161  35.802  42.462  12.446
13847W        W86162  36.485  35.887  13.303
13848W        W86163  36.041  28.454   1.728
13849W        W86164  33.118  23.626   2.690
13850W        W86165  31.949  25.498  11.301
13851W        W86166   0.333  29.879   4.364
13852W        W86167  12.531  11.357  12.425
13853W        W86168  23.190   7.859   2.417
13854W        W86169  38.834  20.791   1.745
13855W        W86170  13.219  10.588   0.858
13856W        W86171  18.999  38.842   5.203
13857W        W86172   6.133  13.525  13.416
13858W        W86173  25.908  32.030  12.334
13859W        W86174  19.259  10.077   2.818
13860W        W86175  43.057  39.974  11.979
13861W        W86176  32.952  37.350   1.837
13862W        W86177  36.334  43.151   2.344
13863W        W86178  11.653  27.666   1.793
13864W        W86179  14.274  44.591  14.963
13865W        W86180  31.182  37.700   0.293
13866W        W86181  39.579  11.142   0.794
13867W        W86182  15.314  29.512  12.029
13868W        W86183  23.229  20.008   3.364
13869W        W86184  38.952  16.318  14.466
13870W        W86185  12.244  40.796  11.024
13871W        W86186  16.867   6.172  12.453
13872W        W86187  40.428  13.886  14.372
13873W        W86188  29.225   3.761  11.073
13874W        W86189  23.680  27.630   2.050
13875W        W86190   6.854   4.439   3.715
13876W        W86191   4.821   8.362   0.007
13877W        W86192  20.135   1.874   3.111
13878W        W86193  12.264  19.377   5.045
13879W        W86194  40.448  38.410   3.630
13880W        W86195  42.085  35.548   2.251
13881W        W86196  42.839   6.381  10.790
13882W        W86197  12.120  42.748  11.500
13883W        W86198  40.888   6.066   2.019
13884W        W86199  22.156  40.296   0.707
13885W        W86200  38.064   4.414  10.823
13886W        W86201   1.772  24.640  12.869
13887W        W86202  35.762  27.153   4.188
13888W        W86203  23.219  18.627   1.175
13889W        W86204   4.109  33.461  11.073
13890W        W86205  16.177   1.449   0.353
13891W        W86206  22.091  12.909   1.420
13892W        W86207  39.441   6.962  14.269
13893W        W86208  40.283  10.195   0.949
13894W        W86209  21.531  34.843  10.617
13895W        W86210  21.993  25.804   4.596
13896W        W86211  41.881  32.898   3.667
13897W        W86212   4.697  24.248  11.493
13898W        W86213   2.742   3.653  11.906
13899W        W86214   3.252   6.191   1.439
13900W        W86215  31.388  17.148  12.898
13901W        W86216  16.500  38.361   0.307
13902W        W86217  36.019  28.416  11.840
13903W        W86218  28.894  18.120   4.653
13904W        W86219  12.044  37.589  11.922
13905W        W86220  31.372   8.569  11.976
13906W        W86221  16.782   9.695   5.038
13907W        W86222  31.136  25.589   4.587
13908W        W86223  13.485  19.976   4.972
13909W        W86224  32.964  12.898  10.323
13910W        W86225   5.978  34.905   0.898
13911W        W86226   2.723  42.805   3.393
13912W        W86227  29.515  42.278  12.080
13913W        W86228  14.294   2.430  14.501
13914W        W86229  37.106  35.882   3.824
13915W        W86230  31.807   6.929  13.033
13916W        W86231   8.955   7.351  14.972
13917W        W86232  24.055  23.509  12.385
13918W        W86233   2.757  25.466  11.801
13919W        W86234   5.610  21.121  14.564
13920W        W86235  21.140  36.957  13.333
13921W        W86236   8.147  21.760  10.892
13922W        W86237   8.446   1.158  13.598
13923W        W86238  25.189  12.356   4.041
13924W        W86239  37.137  32.285  11.664
13925W        W86240  20.883  36.490  14.915
13926W        W86241  32.290  26.881   0.907
13927W        W86242  44.712  35.719  12.905
13928W        W86243   3.452  17.262  11.136
13929W        W86244  20.118  34.798   0.717
13930W        W86245   0.041   8.864  11.018
13931W        W86246  20.723  43.767  12.420
13932W        W86247   2.296  31.035   2.351
13933W        W86248  37.839  10.288   3.605
13934W        W86249  21.798  21.297  13.430
13935W        W86250   7.309  12.965   1.187
13936W        W86251  25.916   8.725   5.091
13937W        W86252  30.906  40.281  13.871
13938W        W86253  20.707   8.212  12.855
13939W        W86254  39.372  31.957   3.816
13940W        W86255  37.385  21.265   2.656
13941W        W86256  22.996  39.377   2.362
13942W        W86257   9.800  33.039   4.560
13943W        W86258   2.965   4.294  13.921
13944W        W86259   4.937  20.095  11.510
13945W        W86260   0.787  12.695   1.906
13946W        W86261  12.241  18.391   0.005
13947W        W86262  37.961  23.684   4.629
13948W        W86263  10.695  18.628   9.849
13949W        W86264  24.400  37.004  14.438
13950W        W86265  16.508   5.711   4.604
13951W        W86266  36.853  28.412  12.959
13952W        W86267  43.499  21.538   4.915
13953W        W86268   3.205   3.302   3.659
13954W        W86269  21.287  25.682   1.318
13955W        W86270  16.682   7.453  14.594
13956W        W86271   7.740  42.997  13.426
13957W        W86272   7.429  27.441  12.109
13958W        W86273  14.845  44.789   1.255
13959W        W86274  29.617  19.050  14.732
13960W        W86275  42.007  26.964  11.943
13961W        W86276  16.295  15.552  10.704
13962W        W86277  24.753   2.923   0.696
13963W        W86278   4.430  10.412   2.396
13964W        W86279  28.824   0.563   4.476
13965W        W86280  16.242   6.107  10.359
13966W        W86281  13.037  42.044   1.841
13967W        W86282  38.079  43.937   0.724
13968W        W86283   6.188   3.322  10.846
13969W        W86284  24.018   4.924   4.699
13970W        W86285  33.971   8.204  12.468
13971W        W86286  38.361  30.201   0.400
13972W        W86287  17.647  41.932   9.779
13973W        W86288  17.595   8.303  11.584
13974W        W86289  44.819   1.192   3.220
13975W        W86290  18.880  24.897  12.530
13976W        W86291  13.157  16.396   1.366
13977W        W86292  10.760  17.042  13.820
13978W        W86293  16.238  16.211  11.892
13979W        W86294  14.829  41.414   0.329
13980W        W86295  23.219   6.288   4.611
13981W        W86296  33.666  42.788   2.027
13982W        W86297  20.175  23.416  14.129
13983W        W86298  16.357  10.910  12.045
13984W        W86299  37.748   7.469  14.935
13985W        W86300   9.832  41.192   2.351
13986W        W86301  21.582  17.130  11.001
13987W        W86302   4.707   0.396  12.110
13988W        W86303  13.656  19.226  14.942
13989W        W86304   0.978  19.506  13.005
13990W        W86305   7.887  21.187  13.826
13991W        W86306  15.285  13.218   2.805
13992W        W86307  25.618   2.080  12.085
13993W        W86308  42.905  20.856  14.797
13994W        W86309  17.529  33.948   4.607
13995W        W86310  34.088  32.278  11.572
13996W        W86311  37.007  28.400   2.243
13997W        W86312  23.660  12.852  12.600
13998W        W86313  23.695  20.014   3.639
13999W        W86314  11.389   0.062  14.365
14000W        W86315  34.656  27.118  13.777
14001W        W86316  43.934   2.202   0.875
14002W        W86317   5.778  40.520   1.380
14003W        W86318  38.071  16.309   5.005
14004W        W86319  22.285  33.976   1.111
14005W        W86320   4.704  10.834   1.199
14006W        W86321  17.697   2.778  12.973
14007W        W86322   8.935  28.543   0.305
14008W        W86323   3.721  36.129   1.893
14009W        W86324  11.647  40.556  10.814
14010W        W86325  38.850  30.472  12.123
14011W        W86326  37.530  37.800  14.791
14012W        W86327  22.265  10.598  12.488
14013W        W86328  17.897   5.790   1.413
14014W        W86329  32.233   4.877  14.512
14015W        W86330  10.543   0.110   2.676
14016W        W86331  22.829   7.794   4.660
14017W        W86332  41.930   9.418   4.575
14018W        W86333  17.343  13.299  13.305
14019W        W86334  34.452  13.171   2.209
14020W        W86335  15.949  37.566   2.739
14021W        W86336   9.925  30.242  14.041
14022W        W86337   2.367  23.689   0.407
14023W        W86338  26.969  33.914   0.003
14024W        W86339  31.193   3.857   4.411
14025W        W86340  39.762  16.593   0.868
14026W        W86341  11.255  31.376  11.587
14027W        W86342  24.699  40.040  10.559
14028W        W86343  21.321  27.621   0.309
14029W        W86344  25.230  17.534   4.838
14030W        W86345  23.213  23.301   0.868
14031W        W86346  24.960  37.431   1.649
14032W        W86347  35.418  13.600  13.509
14033W        W86348   2.920  35.767   3.090
14034W        W86349  10.926  18.722  12.557
14035W        W86350  32.856  23.342  13.066
14036W        W86351  15.830  36.653   1.727
14037W        W86352  44.241  32.868  13.885
14038W        W86353   9.786  26.709  11.229
14039W        W86354  19.900  38.470   2.166
14040W        W86355   8.087   0.902   1.318
14041W        W86356  19.614   7.963  13.965
14042W        W86357  32.033   6.971  13.998
14043W        W86358  12.075  25.053  14.274
14044W        W86359  17.523   9.184  10.406
14045W        W86360   2.529  22.153   1.700
14046W        W86361  24.658  44.822  13.084
14047W        W86362  41.590   1.309   1.768
14048W        W86363  41.995  26.617  13.874
14049W        W86364  11.896  28.158   1.866
14050W        W86365   7.823  40.132   0.362
14051W        W86366  42.770   5.503  11.107
14052W        W86367  41.966  40.739   4.204
14053W        W86368   3.038   5.191   2.251
14054W        W86369  24.706  25.423  12.274
14055W        W86370  35.667  20.531   2.161
14056W        W86371  43.298   3.181   3.706
14057W        W86372   9.195  31.027   3.149
14058W        W86373  38.952  24.977  14.524
14059W        W86374  26.834  36.906  13.481
14060W        W86375  38.533   0.493  11.903
14061W        W86376   1.790   2.695   4.634
14062W        W86377  31.682   4.262   2.851
14063W        W86378  10.794  44.549   4.684
14064W        W86379  42.416  41.455  11.373
14065W        W86380  35.997  23.633   4.275
14066W        W86381  18.266   7.378  12.064
14067W        W86382   6.426  43.961  10.423
14068W        W86383  15.821   6.853   2.781
14069W        W86384  22.074  20.867   4.988
14070W        W86385  42.476  23.921  11.797
14071W        W86386  37.349  28.260   3.328
14072W        W86387  41.948  42.693  14.092
14073W        W86388  36.405  38.773  11.675
14074W        W86389  27.457  27.889   3.623
14075W        W86390  38.105  10.063   2.652
14076W        W86391  29.640  19.643  14.008
14077W        W86392   5.655   3.427  13.372
14078W        W86393  38.846  21.464   0.367
14079W        W86394  33.991  38.952   0.830
14080W        W86395   0.731  26.611   5.408
14081W        W86396   8.220  26.648  14.921
14082W        W86397  36.369  43.624   1.416
14083W        W86398  37.921  15.704  11.896
14084W        W86399  42.974  12.516   4.073
14085W        W86400  12.043   6.346  12.823
14086W        W86401  12.299  31.892   4.582
14087W        W86402  24.737  42.828  12.043
14088W        W86403  26.394  31.295  12.299
14089W        W86404  13.406  12.239   4.598
14090W        W86405  15.652  21.894   2.771
14091W        W86406   6.253   3.862  11.622
14092W        W86407  16.331   5.443  14.945
14093W        W86408  15.906  42.522   5.108
14094W        W86409  15.578  17.870  12.027
14095W        W86410  26.955  20.044  10.612
14096W        W86411  10.070  44.597  13.850
14097W        W86412  28.590  21.552  10.453
14098W        W86413   0.978  20.152   1.182
14099W        W86414   1.379  43.292  14.752
14100W        W86415  31.353  15.796  11.946
14101W        W86416   3.370   6.282   4.605
14102W        W86417  25.484  28.724   1.155
14103W        W86418   7.284  15.220   2.259
14104W        W86419  43.442  24.138  11.332
14105W        W86420  17.234  19.630   0.800
14106W        W86421  18.288  39.930   4.105
14107W        W86422  10.513  13.936  14.510
14108W        W86423  11.456  31.691  12.479
14109W        W86424  16.095  40.888  11.628
14110W        W86425   5.110   9.474  11.472
14111W        W86426   6.268  28.523   4.615
14112W        W86427  25.650  13.383   4.674
14113W        W86428   8.667   3.305   1.307
14114W        W86429  43.335  13.707   4.487
14115W        W86430   6.673  40.297  14.836
14116W        W86431  43.881  32.797   3.738
14117W        W86432  27.581  38.639   3.305
14118W        W86433  10.305  24.052  12.866
14119W        W86434  37.963  19.396   2.844
14120W        W86435  14.557  42.480   0.773
14121W        W86436  42.889   9.672  14.013
14122W        W86437  37.739  32.130   3.103
14123W        W86438   5.338  28.274   1.706
14124W        W86439   8.714   3.272  10.618
14125W        W86440  29.258   7.583  13.753
14126W        W86441  44.462  17.152   2.202
14127W        W86442  41.855   8.750  10.722
14128W        W86443  44.010  16.575   3.344
14129W        W86444   3.705  21.083   0.905
14130W        W86445   9.028  29.246   9.907
14131W        W86446  18.836  25.759   1.410
14132W        W86447  33.520  19.799   0.802
14133W        W86448  15.113  39.246   1.141
14134W        W86449  22.688  32.025   1.840
14135W        W86450  36.884  32.792  11.734
14136W        W86451  19.317   1.202   0.535
14137W        W86452  27.489  39.251   1.431
14138W        W86453   0.814  12.203  11.122
14139W        W86454  35.596   0.801  12.539
14140W        W86455  17.739  11.810   3.839
14141W        W86456  25.549  36.804  13.122
14142W        W86457  15.222  15.109   1.853
14143W        W86458  18.831  39.416   1.352
14144W        W86459  30.476  32.901  14.451
14145W        W86460  15.098  39.318   4.552
14146W        W86461  40.114  13.753  14.806
14147W        W86462  25.440  36.048   1.346
14148W        W86463   9.617   0.815  14.422
14149W        W86464  28.446  21.880  14.045
14150W        W86465  42.308  20.009  11.068
14151W        W86466   8.411  15.663   0.389
14152W        W86467  28.946  41.857  11.626
14153W        W86468   7.179  43.473   3.452
14154W        W86469   2.264  25.318  11.964
14155W        W86470   6.912   0.816   0.844
14156W        W86471  26.061  12.314  14.079
14157W        W86472   1.841  18.086  12.026
14158W        W86473  22.008  10.617   0.972
14159W        W86474  23.571   7.316   3.246
14160W        W86475  33.982  31.983  13.029
14161W        W86476  13.109   0.918   3.350
14162W        W86477   0.394  18.098   2.805
14163W        W86478  39.371  29.696   2.903
14164W        W86479  11.270  33.057  12.681
14165W        W86480  12.275  31.543  10.668
14166W        W86481  41.858  28.681  13.555
14167W        W86482  39.815  30.554  13.883
14168W        W86483  39.027   1.532  14.285
14169W        W86484   3.050   8.868   4.481
14170W        W86485  11.065   0.421  13.405
14171W        W86486   6.677  34.734   4.083
14172W        W86487  42.304  32.625   4.427
14173W        W86488  40.299  27.519  12.607
14174W        W86489  12.972  15.072  12.924
14175W        W86490  26.988  29.130  14.092
14176W        W86491  12.319   0.444   0.962
14177W        W86492  20.283  32.595   2.323
14178W        W86493  37.159  31.088  13.002
14179W        W86494   5.693  24.311   3.295
14180W        W86495  40.359  21.726  11.596
14181W        W86496   0.949  11.722  14.338
14182W        W86497   2.848   5.357   1.328
14183W        W86498  23.939   0.472  11.976
14184W        W86499  40.093  31.914  13.981
14185W        W86500  22.666  38.465   4.641
14186W        W86501  44.083  23.493   1.671
14187W        W86502   5.494  41.276   3.917
14188W        W86503  33.878  26.673   4.075
14189W        W86504  37.934  18.621   0.558
14190W        W86505  23.104  21.881  13.404
14191W        W86506  34.372   5.133   0.968
14192W        W86507  27.777  19.585   0.363
14193W        W86508  15.347  28.971   3.568
14194W        W86509   5.375  26.507   4.620
14195W        W86510  34.177  39.776  13.083
14196W        W86511   2.856  24.903   4.441
14197W        W86512   9.413  37.588  13.536
14198W        W86513  28.298  23.967   1.922
14199W        W86514  12.404  26.622   1.328
14200W        W86515  33.091  25.060  14.764
14201W        W86516  41.773  10.257  12.632
14202W        W86517   5.869   2.876  14.520
14203W        W86518  32.881  37.834  11.475
14204W        W86519  38.508   0.562  14.574
14205W        W86520   9.211  11.719  13.604
14206W        W86521  38.447   1.442   2.101
14207W        W86522  32.158   0.204  12.125
14208W        W86523  35.923  36.537  10.715
14209W        W86524  19.045  13.983   1.549
14210W        W86525  33.755  12.811   3.636
14211W        W86526  14.172  12.735   3.362
14212W        W86527   3.513  44.400   3.347
14213W        W86528  44.586  34.907  10.304
14214W        W86529   4.883   8.221   0.855
14215W        W86530   6.272   8.669   1.910
14216W        W86531  19.146   2.765  14.352
14217W        W86532  42.991   4.206  11.165
14218W        W86533  38.032  31.596   4.121
14219W        W86534  39.750  21.647  13.784
14220W        W86535   3.918  12.378  11.520
14221W        W86536  21.452  22.167  13.096
14222W        W86537   3.756   4.385   3.591
14223W        W86538  20.682  19.074  12.465
14224W        W86539  29.692  21.793   1.285
14225W        W86540  42.570  18.455  12.878
14226W        W86541  15.918  22.268   3.027
14227W        W86542  17.063  39.924   4.980
14228W        W86543  11.785  28.121   2.845
14229W        W86544  13.365  18.797   1.882
14230W        W86545  36.051  29.898   1.836
14231W        W86546  41.446  25.780   2.539
14232W        W86547  26.013  25.455  12.037
14233W        W86548   5.508   7.834  14.794
14234W        W86549  22.158  36.969  10.552
14235W        W86550   0.444  14.593  13.564
14236W        W86551  19.889   7.778   0.370
14237W        W86552  23.453   7.897  10.708
14238W        W86553   1.402  40.299   3.134
14239W        W86554  36.597   1.211  13.377
14240W        W86555  28.157  29.009   1.667
14241W        W86556  42.896  26.985   1.297
14242W        W86557  35.053  12.750  11.298
14243W        W86558   6.014  36.007  13.334
14244W        W86559  44.759   9.143   3.386
14245W        W86560   0.697   0.916  13.459
14246W        W86561  31.542  40.283  10.293
14247W        W86562  16.052  17.289   3.254
14248W        W86563  21.884   6.177   1.167
14249W        W86564  42.404  25.627   2.164
14250W        W86565   8.422  12.828   0.845
14251W        W86566  30.899  31.566   2.681
14252W        W86567   8.209   7.798  12.010
14253W        W86568  39.882   1.984  12.597
14254W        W86569  25.148  30.104   1.883
14255W        W86570  27.672  12.187   3.658
14256W        W86571  18.590  28.473   4.052
14257W        W86572  30.953  44.743   2.414
14258W        W86573  33.787  32.580   3.170
14259W        W86574  25.486  30.062   4.848
14260W        W86575  11.893  40.539  13.065
14261W        W86576  21.043  26.500   3.313
14262W        W86577   7.401  27.632   1.476
14263W        W86578  22.085  20.574  12.602
14264W        W86579  22.779  18.720   4.048
14265W        W86580  32.340  44.556  10.939
14266W        W86581  29.847  19.965  10.408
14267W        W86582  14.316   6.214  14.328
14268W        W86583  30.630  37.579   3.402
14269W        W86584   1.535  16.394  13.205
14270W        W86585   6.831  33.989  11.178
14271W        W86586  37.308   7.926   2.741
14272W        W86587   8.670  24.996  10.751
14273W        W86588   1.412   6.992  13.741
14274W        W86589  15.187   4.166  13.622
14275W        W86590  21.244   7.394  11.308
14276W        W86591  23.049  27.984   0.939
14277W        W86592  32.026   8.104  11.324
14278W        W86593  10.812   1.931   3.080
14279W        W86594   1.629  38.012  14.093
14280W        W86595  35.413  36.427  10.627
14281W        W86596  39.319   3.128   4.121
14282W        W86597  11.080   7.870  12.840
14283W        W86598   3.812  18.088   3.206
14284W        W86599   6.149  27.937  14.842
14285W        W86600  16.302  20.769   3.929
14286W        W86601  21.631  33.502  11.040
14287W        W86602   3.197   7.745  14.498
14288W        W86603  35.161  26.834  12.365
14289W        W86604  30.876  21.590   0.837
14290W        W86605   6.985  12.318  13.589
14291W        W86606  20.917  15.661   2.799
14292W        W86607  13.635  26.198  13.074
14293W        W86608  43.438  39.322   4.588
14294W        W86609  31.667  33.026   4.418
14295W        W86610   6.417   6.378  14.906
14296W        W86611  13.187   5.417  14.388
14297W        W86612   9.086  35.890  13.588
14298W        W86613   0.188   6.338  11.649
14299W        W86614   6.672  12.173   4.853
14300W        W86615  23.453  22.055  12.930
14301W        W86616  25.905   7.942   3.849
14302W        W86617  32.175  27.780  12.178
14303W        W86618  33.456   0.901   2.441
14304W        W86619  39.893  12.458  13.345
14305W        W86620  21.692  36.156  10.911
14306W        W86621  32.392  32.130  10.657
14307W        W86622  44.719  32.688  13.873
14308W        W86623  19.081  31.543  10.955
14309W        W86624  40.019   2.820  13.001
14310W        W86625   1.772  16.067  13.599
14311W        W86626  39.261  33.408  12.874
14312W        W86627   8.085  23.748  14.216
14313W        W86628   2.714  10.430  11.069
14314W        W86629  36.553  16.684  13.463
14315W        W86630  14.104  12.998  12.478
14316W        W86631  14.325  26.332   0.918
14317W        W86632  28.681   0.990   0.906
14318W        W86633  35.364   7.637   4.585
14319W        W86634  22.153  12.376   2.897
14320W        W86635  15.601  40.378  11.059
14321W        W86636  28.673  21.553   2.302
14322W        W86637  23.094  33.665  12.454
14323W        W86638   0.238  10.396   1.074
14324W        W86639  10.633  20.951   1.653
14325W        W86640   9.335  34.777   0.608
14326W        W86641  41.689   8.151   4.130
14327W        W86642  28.394  40.259   3.716
14328W        W86643   9.719  26.149  13.692
14329W        W86644   4.913  27.909   4.612
14330W        W86645  11.084  31.115  13.002
14331W        W86646   1.449  36.909   2.826
14332W        W86647  42.335  35.863  13.007
14333W        W86648  19.234  11.804  10.220
14334W        W86649  26.690  21.378  11.458
14335W        W86650   6.645  30.465   4.430
14336W        W86651  40.400  44.413  13.402
14337W        W86652  17.524   2.064   2.204
14338W        W86653  42.962  38.749   1.886
14339W        W86654   4.444   5.364   1.215
14340W        W86655  28.135  25.000  10.860
14341W        W86656  38.815  29.580  13.614
14342W        W86657  34.272   2.870   0.103
14343W        W86658  24.281  10.225   3.012
14344W        W86659  12.106   2.808   4.500
14345W        W86660  43.353  28.090   4.911
14346W        W86661  20.215  12.627   4.610
14347W        W86662  18.185   6.786   1.061
14348W        W86663  12.422  12.858  11.577
14349W        W86664  22.845  26.642  14.929
14350W        W86665   1.722  29.477   0.178
14351W        W86666  35.453   7.342  13.740
14352W        W86667   1.275  11.243  13.609
14353W        W86668  21.549  34.963  12.606
14354W        W86669   9.868  33.847   0.309
14355W        W86670   9.716  34.909  11.878
14356W        W86671  27.601   8.392  14.992
14357W        W86672  29.010  35.498   0.746
14358W        W86673  20.944  28.601   3.671
14359W        W86674  22.463  40.074   4.099
14360W        W86675  41.994  13.680  10.384
14361W        W86676  17.674  12.698  12.578
14362W        W86677  15.651  33.637  10.388
14363W        W86678  18.424  20.093   3.656
14364W        W86679  36.873  18.652   3.210
14365W        W86680  22.032  31.603   4.229
14366W        W86681   0.792  28.693  12.517
14367W        W86682  14.322  15.302   3.208
14368W        W86683  40.845  33.390  14.853
14369W        W86684  27.512   1.756   0.307
14370W        W86685  17.368  35.500   3.533
14371W        W86686  32.055   7.447   0.703
14372W        W86687  21.974  22.952  10.733
14373W        W86688  23.143  26.201   4.473
14374W        W86689  19.081  22.923  14.947
14375W        W86690  42.064  17.090  14.888
14376W        W86691  42.506  39.592   1.816
14377W        W86692  10.697  25.194  10.752
14378W        W86693   6.276  19.702  11.582
14379W        W86694   6.850   1.898  13.748
14380W        W86695  41.276  40.849   0.248
14381W        W86696  18.030  26.325   1.842
14382W        W86697  29.699  30.385   5.066
14383W        W86698  23.043  40.131   0.987
14384W        W86699   5.926   6.960  10.780
14385W        W86700  23.441  20.820   4.662
14386W        W86701  26.038  16.551   1.584
14387W        W86702   2.349  24.381   4.855
14388W        W86703   2.736   7.752  10.773
14389W        W86704  42.385  28.481   3.711
14390W        W86705  40.919  18.388  11.796
14391W        W86706  27.721   9.899  12.047
14392W        W86707  16.857  42.186   0.468
14393W        W86708   0.735  16.021   4.803
14394W        W86709  33.500  12.102  14.561
14395W        W86710  12.061  18.435   3.292
14396W        W86711  10.877  12.776   3.760
14397W        W86712  19.777  11.636  12.875
14398W        W86713  31.725  36.695  11.270
14399W        W86714  10.287  42.238   4.556
14400W        W86715   4.965  37.674   4.172
14401W        W86716  35.484  30.493  14.299
14402W        W86717   8.559  41.626   0.585
14403W        W86718  33.404  26.266   0.569
14404W        W86719  20.687  29.875  13.053
14405W        W86720  12.367  20.133   3.580
14406W        W86721  25.954  18.717   4.247
14407W        W86722  24.053   2.477   0.532
14408W        W86723  33.136  19.071   1.714
14409W        W86724   8.885  36.986  12.647
14410W        W86725  17.207  35.630   3.057
14411W        W86726  34.647   5.686  11.357
14412W        W86727  40.605   2.200  11.531
14413W        W86728  19.973  41.488   1.881
14414W        W86729  33.598  25.067  11.054
14415W        W86730  12.110  15.884   0.000
14416W        W86731  44.979  43.798  11.197
14417W        W86732  35.239   6.755   4.035
14418W        W86733   8.189  18.758   3.647
14419W        W86734   2.368  32.898   2.746
14420W        W86735   3.401  42.810  12.030
14421W        W86736  32.793  15.620   2.971
14422W        W86737  18.830   9.703  14.279
14423W        W86738   8.642   5.390   3.644
14424W        W86739  10.781  42.981   4.636
14425W        W86740  36.036  15.588   1.861
14426W        W86741  39.402  14.867  13.593
14427W        W86742  44.849  40.123   3.815
14428W        W86743  38.854  44.752  12.710
14429W        W86744  16.692  12.399  12.849
14430W        W86745   2.419  32.495  11.416
14431W        W86746  15.987   9.714   3.945
14432W        W86747   8.781  35.406   3.950
14433W        W86748  18.072  40.563   3.202
14434W        W86749  42.342  42.805   0.974
14435W        W86750  22.639  20.874   1.285
14436W        W86751  17.579  28.664  10.564
14437W        W86752  22.263  27.033   2.182
14438W        W86753  38.759  17.212  11.096
14439W        W86754  35.861  19.258   0.252
14440W        W86755   2.927  40.485   3.270
14441W        W86756  12.098  44.467   1.320
14442W        W86757  40.684  17.593  12.464
14443W        W86758  37.126  39.848   0.944
14444W        W86759   5.328   4.435  14.938
14445W        W86760  22.218   3.883   0.932
14446W        W86761  41.387  36.122  10.709
14447W        W86762  21.626  40.110   0.688
14448W        W86763  37.454  26.578  14.194
14449W        W86764  36.564  37.891   2.507
14450W        W86765  28.962  12.272  13.181
14451W        W86766  43.567   4.276   1.743
14452W        W86767   9.872   8.763  13.470
14453W        W86768   4.829  41.510   1.767
14454W        W86769   1.476  16.929  13.715
14455W        W86770  13.062   2.518   1.767
14456W        W86771  30.928  23.308  11.873
14457W        W86772   3.851  28.546   0.920
14458W        W86773  27.529  42.577   1.211
14459W        W86774  31.682  43.479   4.225
14460W        W86775  44.456  30.914  11.906
14461W        W86776  24.458  12.075  11.131
14462W        W86777  43.743   0.786   2.139
14463W        W86778  24.113  43.943  14.214
14464W        W86779   4.242  40.564  14.967
14465W        W86780  20.966  41.433  12.266
14466W        W86781  17.514  12.193   4.856
14467W        W86782  14.336  31.502  10.972
14468W        W86783  17.357  10.358   1.991
14469W        W86784  10.030  19.649  11.569
14470W        W86785  20.608   4.183  10.658
14471W        W86786  14.741  11.445  14.905
14472W        W86787  25.165  33.408   3.647
14473W        W86788   4.265  37.371   0.348
14474W        W86789  30.544  35.425  12.336
14475W        W86790  20.109   9.168   4.134
14476W        W86791  30.264  31.932  14.859
14477W        W86792  34.202  25.590   0.240
14478W        W86793   1.731  10.923  11.950
14479W        W86794  30.096  11.750   3.256
14480W        W86795  16.359  17.784   2.755
14481W        W86796  33.893  14.722   4.634
14482W        W86797   4.966  19.045  13.373
14483W        W86798   1.649  18.124  13.871
14484W        W86799  32.115   0.367   1.346
14485W        W86800   3.947   8.440  11.736
14486W        W86801  36.959  21.529  12.031
14487W        W86802  30.818  39.778  11.892
14488W        W86803  25.293  43.805  12.650
14489W        W86804  10.680  18.628   1.455
14490W        W86805   0.138  10.702  11.799
14491W        W86806  38.594   9.822  14.045
14492W        W86807  12.196  39.625   1.646
14493W        W86808  44.174   7.083   5.020
14494W        W86809  32.963  38.335  13.941
14495W        W86810  41.941  17.791   3.738
14496W        W86811  29.383  31.923   2.224
14497W        W86812  19.073  11.238  12.820
14498W        W86813   4.378  34.052   4.694
14499W        W86814  37.812  43.734   0.308
14500W        W86815  10.135  10.057  14.003
14501W        W86816  19.633  12.254   4.143
14502W        W86817  29.562   8.435  14.674
14503W        W86818  10.985  28.720  12.565
14504W        W86819  12.791  33.877  14.521
14505W        W86820  41.920  20.780  11.454
14506W        W86821  34.889  34.373   4.203
14507W        W86822   0.342  27.916   3.767
14508W        W86823  21.878  37.056  10.976
14509W        W86824   9.760   5.712   0.281
14510W        W86825   9.852  31.593   2.792
14511W        W86826  24.086   3.398  14.376
14512W        W86827  43.506  32.403   0.031
14513W        W86828  31.951  40.383  10.658
14514W        W86829  11.768  29.114  10.066
14515W        W86830  16.208  34.375   4.953
14516W        W86831  27.845   3.965   4.781
14517W        W86832  17.054  12.115   3.559
14518W        W86833  23.528  21.585  13.465
14519W        W86834  20.357  21.786  11.660
14520W        W86835  37.062  42.799   5.253
14521W        W86836  12.827  35.436  13.933
14522W        W86837  21.705  17.555  13.417
14523W        W86838  36.339  13.845  14.802
14524W        W86839  10.412  18.258  13.924
14525W        W86840  22.600  15.163  13.712
14526W        W86841  37.251  12.061   3.654
14527W        W86842   7.515  14.097   2.752
14528W        W86843  16.385  35.012   3.281
14529W        W86844  35.041  29.900   1.810
14530W        W86845   0.744   3.819   2.267
14531W        W86846  22.549  38.064  12.591
14532W        W86847  23.706  14.600  10.651
14533W        W86848   0.882  19.841  12.367
14534W        W86849  43.721  34.061   0.276
14535W        W86850   0.519  35.978   2.181
14536W        W86851  37.932   8.271   4.776
14537W        W86852  39.401  32.180  13.401
14538W        W86853  13.305  37.040  14.492
14539W        W86854  23.002  23.699  12.369
14540W        W86855  10.276  25.795   0.704
14541W        W86856  40.828  42.845  11.151
14542W        W86857  21.112  31.361   2.278
14543W        W86858  13.319  14.775   4.603
14544W        W86859  32.603  14.293  12.408
14545W        W86860  25.937  31.516  12.478
14546W        W86861  36.903  23.180  13.400
14547W        W86862  31.971   4.061   0.377
14548W        W86863  17.289  19.291   0.317
14549W        W86864  22.064  43.894  14.051
14550W        W86865   3.317  28.073  12.849
14551W        W86866  11.257  42.513  14.778
14552W        W86867   0.983  43.015   3.379
14553W        W86868  15.728   4.430   1.349
14554W        W86869  29.095  13.218  10.661
14555W        W86870  39.964   8.004  11.951
14556W        W86871  29.518  12.652   1.700
14557W        W86872  30.408  41.219  13.535
14558W        W86873  28.257   5.620  13.669
14559W        W86874  29.489  18.823   3.163
14560W        W86875  28.568  21.247   9.990
14561W        W86876  14.138  41.480  11.322
14562W        W86877  20.705  41.051   0.399
14563W        W86878  15.339   9.123  14.925
14564W        W86879  42.966  30.571  11.969
14565W        W86880   0.571   5.196   3.700
14566W        W86881   5.178  20.284  11.931
14567W        W86882  27.466  36.051   0.242
14568W        W86883  10.154  30.167  10.653
14569W        W86884  27.504  13.026  14.866
14570W        W86885  44.377   7.498  13.295
14571W        W86886   4.138  42.535  14.917
14572W        W86887  16.142  35.132  13.606
14573W        W86888   4.221  21.065   0.882
14574W        W86889  10.245   7.821   4.411
14575W        W86890  18.803   5.283   3.736
14576W        W86891  16.770   2.775  12.723
14577W        W86892  42.256  32.036   2.388
14578W        W86893  23.702  14.733   0.874
14579W        W86894  15.978  26.786   4.328
14580W        W86895  28.239  20.299  11.964
14581W        W86896  27.972  36.448  12.506
14582W        W86897  20.437  21.236  13.289
14583W        W86898  16.339  18.619   4.709
14584W        W86899  10.102  27.604   1.785
14585W        W86900  12.583  38.032  11.544
14586W        W86901   4.245  24.942   3.569
14587W        W86902  18.137  21.190   3.845
14588W        W86903   4.788   0.693   1.207
14589W        W86904  11.108  34.546  14.459
14590W        W86905  13.729  13.513  12.364
14591W        W86906  38.077  22.755  12.547
14592W        W86907  34.505  23.893   1.428
14593W        W86908   5.595   8.933   4.998
14594W        W86909   7.279  12.649   4.853
14595W        W86910  39.956  28.141  11.560
14596W        W86911  42.995  34.826   2.868
14597W        W86912   7.427  32.106   0.977
14598W        W86913  24.002  43.003   1.198
14599W        W86914   2.758  19.585  14.919
14600W        W86915  21.295  44.016   4.366
14601W        W86916  10.995  32.629   1.394
14602W        W86917   7.368   7.687  14.448
14603W        W86918  16.208   7.167  14.411
14604W        W86919  40.354   8.874  12.798
14605W        W86920  31.607   0.876   0.632
14606W        W86921  27.153  19.336  12.978
14607W        W86922   6.850  28.188  14.027
14608W        W86923  39.294  17.205   1.311
14609W        W86924  30.662  10.371  14.429
14610W        W86925  18.388  33.562  11.547
14611W        W86926  11.337   5.479  11.142
14612W        W86927  34.158   4.277   4.744
14613W        W86928  10.748  32.149   3.688
14614W        W86929  17.170   5.229   4.133
14615W        W86930  33.102  32.659   2.932
14616W        W86931  15.085  11.557   3.336
14617W        W86932  13.677  32.734   0.924
14618W        W86933  16.081   6.664   1.413
14619W        W86934   0.600  41.366   3.729
14620W        W86935  35.105  11.807  12.609
14621W        W86936  43.295   2.175  14.414
14622W        W86937   3.860   9.247  11.146
14623W        W86938  25.131  32.134  12.119
14624W        W86939   1.354  39.253   3.090
14625W        W86940  41.487  29.766  14.531
14626W        W86941  39.386  14.651  10.966
14627W        W86942  44.561   8.027   1.355
14628W        W86943   9.113  34.431   1.956
14629W        W86944  37.330  13.770  10.616
14630W        W86945  21.048   8.822  13.961
14631W        W86946  10.526  27.205  14.073
14632W        W86947  36.351   7.344   1.475
14633W        W86948   1.787   0.774   3.993
14634W        W86949  12.740  18.709  10.717
14635W        W86950  40.889  41.146  14.403
14636W        W86951  14.841  17.493   1.881
14637W        W86952  21.349  31.469  14.869
14638W        W86953   5.180  28.479   3.726
14639W        W86954  22.683  35.581   4.694
14640W        W86955  17.318   8.688   3.155
14641W        W86956  36.784  13.479   0.583
14642W        W86957  39.852   4.805  14.989
14643W        W86958   6.193  43.502   2.308
14644W        W86959  19.546  29.871   3.589
14645W        W86960  30.502   0.242   2.815
14646W        W86961   5.600  39.264  13.000
14647W        W86962  39.298  29.321  13.131
14648W        W86963   0.716  23.535  14.418
14649W        W86964  10.671  30.134   0.420
14650W        W86965  30.367   6.032  12.704
14651W        W86966  16.183  29.470   5.043
14652W        W86967   2.874   7.898   0.059
14653W        W86968  39.420  32.852  11.985
14654W        W86969  23.229  13.892  14.980
14655W        W86970  13.316  21.184  13.933
14656W        W86971  41.220  43.419  10.873
14657W        W86972   7.608   3.765   3.620
14658W        W86973   1.135  25.915   3.782
14659W        W86974  40.325  17.656   2.175
14660W        W86975  20.249  35.899  13.950
14661W        W86976  40.542  26.591  12.896
14662W        W86977  12.786  14.177  14.937
14663W        W86978  21.664   4.438  11.935
14664W        W86979  37.759  10.347  14.383
14665W        W86980   2.884  10.390  12.844
14666W        W86981   5.913  36.980  10.736
14667W        W86982   7.316  26.575  11.557
14668W        W86983  24.201  14.335  12.027
14669W        W86984   0.415  39.605  11.189
14670W        W86985  24.216  20.040  12.435
14671W        W86986  13.879   7.496  11.148
14672W        W86987  28.516  27.042  13.344
14673W        W86988  27.609  24.206  11.119
14674W        W86989  33.522  27.459   2.636
14675W        W86990  13.177  32.069   4.068
14676W        W86991  17.352  36.042  10.196
14677W        W86992   0.519  15.690  12.113
14678W        W86993  15.603  33.881   4.939
14679W        W86994   2.589   4.995  10.228
14680W        W86995  14.853  20.535  12.933
14681W        W86996   2.799  26.995  14.488
14682W        W86997  42.063  13.842   0.933
14683W        W86998   6.420  33.186   2.346
14684W        W86999  11.208  22.336   1.759
14685W        W87000  26.055   6.935  12.865
14686W        W87001   5.759  27.196   0.249
14687W        W87002  41.509   9.427   1.312
14688W        W87003  25.514  22.454  12.400
14689W        W87004  33.358  12.588  10.149
14690W        W87005   3.972  42.236   0.273
14691W        W87006  36.488   7.329   2.304
14692W        W87007  33.925   3.255  11.574
14693W        W87008   4.815  33.663   4.095
14694W        W87009  19.494  18.204  13.956
14695W        W87010  33.676  43.370  13.178
14696W        W87011  37.513  17.300   3.647
14697W        W87012   0.567  19.001   3.356
14698W        W87013  15.821  35.714  14.257
14699W        W87014  35.349  21.367  11.677
14700W        W87015   3.785  29.538  12.092
14701W        W87016  25.601  25.417   2.282
14702W        W87017  34.551   2.821   1.779
14703W        W87018  33.778   4.717  10.722
14704W        W87019  36.818  27.232   4.440
14705W        W87020  23.921  44.744  13.876
14706W        W87021  25.989  14.618   3.204
14707W        W87022  26.444  19.853   2.895
14708W        W87023  35.489   1.021   2.453
14709W        W87024  25.450  42.374   0.931
14710W        W87025  43.359   3.551  14.981
14711W        W87026  18.815  14.070  14.332
14712W        W87027  19.536  16.815   4.521
14713W        W87028  21.240  36.278   4.601
14714W        W87029  33.399   2.740   4.911
14715W        W87030   3.393  15.318   3.427
14716W        W87031  20.706  38.873  10.583
14717W        W87032   9.807  24.732   0.394
14718W        W87033  16.572   6.679   4.613
14719W        W87034  27.619  27.535  14.946
14720W        W87035  13.438  29.515   4.843
14721W        W87036  40.399  18.364   1.465
14722W        W87037  33.601   4.785   2.758
14723W        W87038  12.134  40.289   2.188
14724W        W87039  36.554  30.392  11.386
14725W        W87040   2.222  13.927  11.108
14726W        W87041  38.899  22.938   0.373
14727W        W87042  43.148  40.353   5.531
14728W        W87043  44.956  33.578   0.871
14729W        W87044   9.323  32.878  11.071
14730W        W87045  31.639  38.871   2.865
14731W        W87046   0.056  19.189   1.929
14732W        W87047  33.343  24.708  12.487
14733W        W87048  14.035  33.820   3.142
14734W        W87049  36.523  11.578   1.421
14735W        W87050  10.511  41.297   5.101
14736W        W87051  11.261   9.606   1.257
14737W        W87052   6.244  30.130  11.144
14738W        W87053  40.252  38.795   2.770
14739W        W87054  29.418   0.872  14.529
14740W        W87055  36.087  36.830   3.442
14741W        W87056   8.565  31.543  14.191
14742W        W87057  30.638  29.570   1.233
14743W        W87058  42.094   5.469  13.838
14744W        W87059  29.505  42.026   4.210
14745W        W87060  12.804  38.319   2.851
14746W        W87061   0.406  39.494  10.658
14747W        W87062   1.942  29.276  12.681
14748W        W87063  30.575  34.070  12.183
14749W        W87064  39.254  36.427   1.739
14750W        W87065  40.353  16.686   1.733
14751W        W87066  30.516  14.115   2.714
14752W        W87067  13.386   2.669  10.911
14753W        W87068  16.631  25.515  12.002
14754W        W87069  44.277  10.984  14.002
14755W        W87070   3.892  12.143  14.877
14756W        W87071  31.902   4.463   2.435
14757W        W87072  21.160  21.571   4.143
14758W        W87073  23.254  35.386  13.318
14759W        W87074  41.008  43.359   0.328
14760W        W87075  28.254   1.630  13.914
14761W        W87076   4.894  23.761  10.592
14762W        W87077  29.733   0.931   1.823
14763W        W87078  39.006  39.328  11.106
14764W        W87079   6.576  31.387   4.357
14765W        W87080  22.175   4.974   2.405
14766W        W87081  20.430  37.123  10.922
14767W        W87082  14.270  32.467  10.822
14768W        W87083   3.325  35.552   2.233
14769W        W87084   6.659  31.110   1.650
14770W        W87085  32.726  24.952  10.456
14771W        W87086  26.495  19.201   4.231
14772W        W87087   0.029  37.240  14.980
14773W        W87088   7.819   3.481   4.008
14774W        W87089  30.041  34.478   3.218
14775W        W87090  18.788  41.988   1.643
14776W        W87091  30.713  18.377   4.240
14777W        W87092  39.213  39.560  11.536
14778W        W87093  26.684   0.335  13.970
14779W        W87094  23.831  39.403  11.132
14780W        W87095   5.917  35.858  11.712
14781W        W87096  18.046   4.888   1.361
14782W        W87097  15.201  20.004   3.888
14783W        W87098   1.360  35.381  14.841
14784W        W87099  33.525  26.864   2.722
14785W        W87100   3.658  23.776  11.048
14786W        W87101  39.544  38.017  13.938
14787W        W87102  31.868   0.347   1.808
14788W        W87103  10.870  32.750  13.550
14789W        W87104  32.257  24.810  10.277
14790W        W87105   9.075  40.007  12.586
14791W        W87106  18.684  32.602   4.057
14792W        W87107  41.499  43.359  10.442
14793W        W87108  41.277  39.475   2.399
14794W        W87109  44.207  11.822  10.660
14795W        W87110   1.032   2.830   3.143
14796W        W87111  25.809  16.248  12.146
14797W        W87112  11.004   1.224  11.550
14798W        W87113  26.252  26.727   3.281
14799W        W87114  10.424  12.600  11.534
14800W        W87115  24.765  17.164  11.936
14801W        W87116  24.634  18.059   3.722
14802W        W87117   3.695  44.366  11.345
14803W        W87118  37.543  19.132   3.618
14804W        W87119  22.776  32.086   0.495
14805W        W87120  38.524  23.949  11.102
14806W        W87121  37.350  27.702   4.327
14807W        W87122  39.520  41.006   2.935
14808W        W87123  41.989   9.662  10.934
14809W        W87124  22.421  24.579  10.736
14810W        W87125  35.776  34.040   1.506
14811W        W87126   7.549  27.232  14.799
14812W        W87127  13.131   4.337   1.446
14813W        W87128  17.979  34.299   3.829
14814W        W87129  33.861  14.933  12.398
14815W        W87130  44.815  12.287   2.169
14816W        W87131   5.202  12.366   2.398
14817W        W87132   8.428  34.992   0.395
14818W        W87133  44.677  38.692  11.577
14819W        W87134   2.306  23.219   2.901
14820W        W87135   1.559  43.938  13.858
14821W        W87136  10.286   1.900  11.686
14822W        W87137  43.019  32.418   3.628
14823W        W87138  28.854  12.849  13.448
14824W        W87139   4.035  36.633   0.717
14825W        W87140  17.715  19.524  12.617
14826W        W87141   8.518   6.776  14.486
14827W        W87142  38.401  26.666  13.800
14828W        W87143  42.024   8.171  14.178
14829W        W87144  29.086  32.985   0.370
14830W        W87145   6.916   7.851  11.539
14831W        W87146  14.311  31.492   3.729
14832W        W87147  22.444  42.039  13.514
14833W        W87148  42.270   2.931  11.626
14834W        W87149  27.219  22.975   0.205
14835W        W87150  33.886   0.196  11.594
14836W        W87151  14.023  13.292   2.292
14837W        W87152   7.420  26.081   3.705
14838W        W87153  20.255  26.408   3.489
14839W        W87154   2.984  31.891   4.549
14840W        W87155  32.256   1.763  14.389
14841W        W87156   6.317  16.305  13.840
14842W        W87157   5.618  15.180  10.657
14843W        W87158  34.047  32.509   3.647
14844W        W87159  30.374  11.170  13.529
14845W        W87160  16.218   4.342   1.837
14846W        W87161  43.564  18.732  14.786
14847W        W87162  37.693  31.557   2.301
14848W        W87163  15.376  23.235   1.406
14849W        W87164  36.984  22.050  11.977
14850W        W87165  31.938  43.192   4.573
14851W        W87166   5.424  33.018   1.213
14852W        W87167  33.856   0.488  12.914
14853W        W87168  11.269  44.799   1.866
14854W        W87169  11.099  36.174   3.439
14855W        W87170   8.916  42.951   4.661
14856W        W87171  42.808  37.755   0.954
14857W        W87172  41.360  30.326   1.430
14858W        W87173  24.080   3.479   4.574
14859W        W87174   9.357  43.919   3.935
14860W        W87175  37.032  10.583   3.720
14861W        W87176  37.619  29.584  10.729
14862W        W87177  38.882  16.258   4.687
14863W        W87178  17.213  25.651   3.595
14864W        W87179  15.636  33.642  10.949
14865W        W87180  27.388  23.472  12.492
14866W        W87181  37.952  17.039   3.538
14867W        W87182  31.319  18.642   1.133
14868W        W87183   6.967  26.487  13.484
14869W        W87184  43.649  34.744   4.825
14870W        W87185  19.088  36.374   2.523
14871W        W87186  31.881  11.730   0.330
14872W        W87187  44.512  13.240   1.358
14873W        W87188   0.811  16.810   1.274
14874W        W87189  39.603   9.026   2.153
14875W        W87190   9.368   5.442   0.703
14876W        W87191  26.646   6.306  14.244
14877W        W87192  29.384  17.358   3.837
14878W        W87193   7.530  28.723   3.485
14879W        W87194   6.885  21.317   1.918
14880W        W87195   4.230  16.182  13.771
14881W        W87196  16.282  43.950   2.874
14882W        W87197  32.501  15.234   2.184
14883W        W87198  29.940   1.482   0.430
14884W        W87199  42.063  30.949  10.650
14885W        W87200   6.506  20.295  10.791
14886W        W87201  27.610   6.273   5.291
14887W        W87202  34.444  31.171  14.562
14888W        W87203  29.459  13.224   3.551
14889W        W87204   3.638   1.987   4.084
14890W        W87205  26.597   8.946   1.432
14891W        W87206  13.182  34.100   0.310
14892W        W87207  33.456  28.024   1.880
14893W        W87208  33.424  28.802   3.265
14894W        W87209  21.302   5.453   1.376
14895W        W87210  13.372  35.098  12.706
14896W        W87211  43.411  20.080  14.835
14897W        W87212  43.026  42.585   3.738
14898W        W87213  26.107  12.232  13.579
14899W        W87214  25.741  12.073   0.856
14900W        W87215  17.285  42.291  10.702
14901W        W87216  28.197  11.695  13.861
14902W        W87217  12.819   8.905   3.611
14903W        W87218   5.448  30.848  14.853
14904W        W87219  22.641  33.433  14.412
14905W        W87220  23.218  34.198  12.437
14906W        W87221  18.791  32.460   0.555
14907W        W87222  30.160   2.762  12.011
14908W        W87223  42.040  17.985  13.357
14909W        W87224  21.379  35.655  11.549
14910W        W87225  19.272  33.132   0.890
14911W        W87226  29.516  18.695   0.991
14912W        W87227   5.679  13.733  12.512
14913W        W87228  21.476  36.403  12.974
14914W        W87229  36.548  43.031  10.778
14915W        W87230  31.317  35.079   3.096
14916W        W87231   7.931  22.119  13.916
14917W        W87232  21.460  22.547   4.985
14918W        W87233  17.110  32.269   2.917
14919W        W87234  16.654  30.096   3.833
14920W        W87235   8.794  26.100  12.444
14921W        W87236  19.266  41.645   4.771
14922W        W87237  17.773  13.358   1.933
14923W        W87238   4.462   2.736  14.740
14924W        W87239  37.320  38.003  12.852
14925W        W87240   3.372  38.354   4.679
14926W        W87241  30.373  17.078  12.940
14927W        W87242  16.673   1.508   2.363
14928W        W87243   8.692  13.832   3.973
14929W        W87244   7.307  28.626  12.772
14930W        W87245   2.914  37.071   0.477
14931W        W87246  19.562  16.003  14.589
14932W        W87247  31.147  27.314  11.207
14933W        W87248   5.362   0.451   0.425
14934W        W87249  34.126  39.041   2.120
14935W        W87250   8.122  10.335   0.761
14936W        W87251   2.082  44.723  14.073
14937W        W87252   8.214   2.200   1.599
14938W        W87253  19.663  15.828  11.544
14939W        W87254  31.091  20.594  12.396
14940W        W87255  33.595  30.260  12.571
14941W        W87256  38.043  20.173   0.920
14942W        W87257  15.584  41.915  10.691
14943W        W87258  13.654  22.751   3.715
14944W        W87259   2.511  30.975   0.784
14945W        W87260  23.686  44.772   0.848
14946W        W87261   7.939   6.805   4.248
14947W        W87262  22.396   0.451   1.669
14948W        W87263  27.625  44.339  11.411
14949W        W87264  43.035  28.594  13.103
14950W        W87265  15.639  27.585  13.525
14951W        W87266  23.448  31.376  11.710
14952W        W87267   4.679   5.224  11.958
14953W        W87268  41.479  33.864   0.965
14954W        W87269  11.774  16.298  14.982
14955W        W87270  42.819  39.039  10.877
14956W        W87271  13.825  36.293  14.054
14957W        W87272  33.629  26.048   3.862
14958W        W87273  32.322  43.332   1.274
14959W        W87274   7.380  34.454   2.201
14960W        W87275  37.895   4.889  11.663
14961W        W87276  43.911  38.598  11.436
14962W        W87277   5.715  36.843  12.852
14963W        W87278  35.970  30.540  11.055
14964W        W87279  43.459  27.219   4.357
14965W        W87280  13.350   8.394   3.260
14966W        W87281  32.422  15.331  13.924
14967W        W87282  12.220  32.029  12.863
14968W        W87283  12.352   1.920  12.346
14969W        W87284   9.109  32.892   0.329
14970W        W87285  43.827  26.669   2.294
14971W        W87286  22.232  44.281  13.742
14972W        W87287  12.099  42.398  13.825
14973W        W87288  41.821  27.379   4.297
14974W        W87289  30.490  15.536  11.547
14975W        W87290  11.764  20.521  10.008
14976W        W87291  25.959   8.377   2.416
14977W        W87292  14.376   7.166  14.305
14978W        W87293  22.834  32.154  11.560
14979W        W87294  18.239  30.868  11.959
14980W        W87295  24.153  18.212   9.969
14981W        W87296  19.180   8.095  13.438
14982W        W87297  39.758  10.388   3.822
14983W        W87298   2.661   7.123  14.819
14984W        W87299  27.058   0.306  14.868
14985W        W87300  30.494  10.197  13.946
14986W        W87301  31.087  37.379   1.269
14987W        W87302  39.361  24.158   2.146
14988W        W87303  17.648  24.071   4.888
14989W        W87304   9.046  26.703   1.362
14990W        W87305  16.367   9.834   0.464
14991W        W87306  17.062  25.147  14.374
14992W        W87307  40.120   8.120  14.440
14993W        W87308   5.696   7.909  12.335
14994W        W87309  26.071  14.830   2.711
14995W        W87310  27.486   9.874   0.076
14996W        W87311  42.517  36.581  13.540
14997W        W87312  16.212  13.706   1.376
14998W        W87313  32.937  19.268  14.851
14999W        W87314   3.771  15.045   2.775
15000W        W87315   2.345   8.691   3.641
15001W        W87316   2.309   1.271  11.601
15002W        W87317  32.568  33.966   0.789
15003W        W87318  34.063   1.148   3.637
15004W        W87319  13.460  37.232  11.034
15005W        W87320  39.307  36.787  13.365
15006W        W87321  30.954   6.165   2.128
15007W        W87322   0.086  27.998  13.430
15008W        W87323  16.810  22.107   4.153
15009W        W87324  27.133  36.291  11.100
15010W        W87325  18.057  40.271   2.758
15011W        W87326  17.338  29.980   1.933
15012W        W87327  41.996  21.216   1.239
15013W        W87328   5.263  35.340   4.185
15014W        W87329   0.873  24.505   0.730
15015W        W87330  40.380  11.400   1.886
15016W        W87331  23.999  37.585   3.625
15017W        W87332  11.228   1.953  14.846
15018W        W87333  16.633  26.593  10.136
15019W        W87334   1.307  38.266   3.181
15020W        W87335  22.994  12.837  11.573
15021W        W87336  19.481  14.262   5.021
15022W        W87337  14.504  22.182   0.729
15023W        W87338   8.827  28.640  12.926
15024W        W87339  39.318  26.642   3.824
15025W        W87340  14.896  16.646   2.829
15026W        W87341  12.333  41.525   3.754
15027W        W87342  32.034  38.812  13.832
15028W        W87343   7.957  39.051  12.765
15029W        W87344  33.629  42.175   0.743
15030W        W87345  17.611   8.630   5.505
15031W        W87346  31.893  21.763   0.994
15032W        W87347  30.525  38.575   4.573
15033W        W87348  15.595  13.417  11.086
15034W        W87349   4.447   0.965  10.937
15035W        W87350  40.724  28.081   0.816
15036W        W87351  31.402  14.308  12.855
15037W        W87352  42.851  40.909   3.122
15038W        W87353   3.732  43.020   3.110
15039W        W87354  28.961  19.973   2.173
15040W        W87355  18.750   0.091  10.529
15041W        W87356  27.027  24.038  13.864
15042W        W87357  20.240  15.275   1.837
15043W        W87358   9.431  39.227  10.146
15044W        W87359   4.421  42.046   2.425
15045W        W87360  41.457  23.318  10.728
15046W        W87361  43.422  18.611  12.934
15047W        W87362   9.442  18.801  11.105
15048W        W87363   1.417   4.664  10.231
15049W        W87364   0.436  11.732  12.667
15050W        W87365  42.804   6.888   1.278
15051W        W87366  30.101  37.516   1.745
15052W        W87367  25.819  26.541  13.408
15053W        W87368  22.109  27.585  13.980
15054W        W87369  13.339  43.613   1.846
15055W        W87370  36.879  38.106  11.824
15056W        W87371   8.646  42.753  13.137
15057W        W87372  38.439  42.763   3.678
15058W        W87373  10.870   9.879  11.181
15059W        W87374  12.793  33.304   1.994
15060W        W87375  35.824  33.616  12.061
15061W        W87376  26.004   0.948  14.480
15062W        W87377  17.195  38.672   3.716
15063W        W87378  32.564   8.847  10.306
15064W        W87379  23.728  18.110   1.760
15065W        W87380  18.039  10.472   0.817
15066W        W87381   9.842  15.622   2.221
15067W        W87382  29.682  15.214   1.772
15068W        W87383  27.464  24.760  13.808
15069W        W87384  40.847  14.072   3.593
15070W        W87385  44.442  34.213   2.802
15071W        W87386  13.677  40.212  10.975
15072W        W87387   8.376  12.879  11.509
15073W        W87388  31.361  11.769  12.112
15074W        W87389  41.880  44.484   3.581
15075W        W87390  26.603  44.368  10.217
15076W        W87391  43.418   4.924  10.676
15077W        W87392  24.211  29.975  14.342
15078W        W87393  15.852  44.985  14.033
15079W        W87394  34.948  38.124  10.530
15080W        W87395  18.544  24.622  14.400
15081W        W87396  43.872  38.005  12.855
15082W        W87397  31.586  12.793   4.413
15083W        W87398  20.201  15.834  11.065
15084W        W87399   0.874  18.400  11.915
15085W        W87400  37.794  30.960   2.718
15086W        W87401  22.324  29.739  14.372
15087W        W87402  30.630  11.472   1.303
15088W        W87403   9.343   2.514   1.236
15089W        W87404  27.596  44.372   0.034
15090W        W87405  12.193   7.383   1.827
15091W        W87406  33.984  30.410  13.445
15092W        W87407  31.438  42.029  13.884
15093W        W87408  16.209   0.843   4.225
15094W        W87409  35.626   5.115   1.850
15095W        W87410  31.979  15.031  12.618
15096W        W87411  31.141  30.878   3.280
15097W        W87412  42.786  14.734  14.386
15098W        W87413   6.926  15.974  13.652
15099W        W87414   4.814  17.883   3.859
15100W        W87415   0.412  35.845  11.909
15101W        W87416  19.208   4.426  14.989
15102W        W87417  24.126  12.350   1.846
15103W        W87418  29.729  28.501  11.593
15104W        W87419  19.404  42.073   2.459
15105W        W87420  34.378  10.796  13.012
15106W        W87421  41.563   9.889   1.549
15107W        W87422  10.330  25.637  13.778
15108W        W87423  11.778  38.064   0.033
15109W        W87424  32.721  23.411  12.081
15110W        W87425  18.088  20.979   1.241
15111W        W87426  40.060  11.911   0.687
15112W        W87427  15.893  20.123  14.161
15113W        W87428  36.115  42.562  13.926
15114W        W87429  14.428  42.971   3.103
15115W        W87430  15.355  32.032  12.501
15116W        W87431  43.335   4.189  12.469
15117W        W87432  14.237  17.185   0.875
15118W        W87433  16.202   9.411  11.858
15119W        W87434  42.032  44.666   2.660
15120W        W87435  36.844  24.625  14.893
15121W        W87436  42.482  32.976  13.996
15122W        W87437  16.801  11.753  12.427
15123W        W87438  40.255  43.565  11.153
15124W        W87439   6.861  10.245   4.771
15125W        W87440  32.940  28.427   4.154
15126W        W87441   3.916  39.384   3.331
15127W        W87442  23.242  13.146  10.742
15128W        W87443  36.391  29.285   2.235
15129W        W87444  20.048  24.648   0.382
15130W        W87445  44.679  10.919  11.616
15131W        W87446  12.112  29.501   4.361
15132W        W87447  44.900   0.960   3.689
15133W        W87448   7.020  37.118  12.568
15134W        W87449  29.922   6.776   0.187
15135W        W87450  14.051  41.534   3.212
15136W        W87451  25.125  42.513  13.794
15137W        W87452  37.047  23.691   5.533
15138W        W87453  23.745  18.393   2.197
15139W        W87454   1.642  39.549   4.540
15140W        W87455  34.323  31.758   2.859
15141W        W87456  44.725  41.756   2.333
15142W        W87457  18.115   9.487   2.357
15143W        W87458  37.566  10.326   2.826
15144W        W87459  21.541  26.045   2.537
15145W        W87460   3.238  42.383   3.080
15146W        W87461  39.864  21.716   2.130
15147W        W87462  21.315  16.656   4.133
15148W        W87463  15.134  12.697  10.927
15149W        W87464   9.051  36.447  11.616
15150W        W87465   2.684  40.638  13.363
15151W        W87466  41.836  41.539   0.892
15152W        W87467  38.960  30.031  11.561
15153W        W87468   3.273  10.418  14.357
15154W        W87469  22.701  25.086   0.441
15155W        W87470  10.216  10.571  14.856
15156W        W87471   4.870  25.495  12.056
15157W        W87472   5.243  17.636   3.710
15158W        W87473  40.038  32.494  11.578
15159W        W87474  28.700  42.244   1.793
15160W        W87475  21.503  14.156  14.521
15161W        W87476   6.633   3.249  11.111
15162W        W87477  40.428  39.016  11.111
15163W        W87478  30.655  34.187   2.764
15164W        W87479  19.631   9.218  13.330
15165W        W87480   9.645  24.931  13.879
15166W        W87481  38.411  44.367  13.873
15167W        W87482  40.239   5.893   0.305
15168W        W87483  36.127  19.674  10.565
15169W        W87484  15.548  28.085   3.891
15170W        W87485  15.748   2.791  12.002
15171W        W87486  10.962  32.429   1.941
15172W        W87487  31.673  31.430  14.898
15173W        W87488  14.659   2.250  12.162
15174W        W87489  42.037  40.938  14.851
15175W        W87490  30.053  22.768   0.377
15176W        W87491   3.805  29.059  11.241
15177W        W87492  16.367   6.917   3.757
15178W        W87493   5.759  20.562   1.749
15179W        W87494  43.303   8.466   4.154
15180W        W87495  19.314  12.760   0.962
15181W        W87496  21.685   3.285   4.962
15182W        W87497  34.505   9.850  14.199
15183W        W87498  12.305  10.580  14.896
15184W        W87499  21.224   3.637  12.347
15185W        W87500  41.430  43.293   4.907
15186W        W87501  32.526  16.818   3.201
15187W        W87502   4.844  38.600  14.274
15188W        W87503  44.396  13.049   3.569
15189W        W87504   8.969   6.796  14.211
15190W        W87505  43.681  12.800  14.879
15191W        W87506  21.307  43.377  11.446
15192W        W87507  23.015  24.689   2.147
15193W        W87508  17.959   3.912  11.943
15194W        W87509  35.884  33.548  13.527
15195W        W87510  26.688  36.508  11.229
15196W        W87511   1.730   4.867  11.001
15197W        W87512  38.296  27.891   4.311
15198W        W87513  11.535  27.484   0.008
15199W        W87514   6.679  41.790  14.709
15200W        W87515  30.054  23.064  14.050
15201W        W87516  14.744  31.618  11.998
15202W        W87517  20.623  41.902  14.378
15203W        W87518  20.273   8.186   3.829
15204W        W87519   5.477  34.463   1.320
15205W        W87520   0.266  32.566   1.909
15206W        W87521   0.810  25.301  11.648
15207W        W87522  41.961  23.786   0.341
15208W        W87523  42.040  25.153  12.003
15209W        W87524   1.790  32.093   0.213
15210W        W87525   2.455  41.424   4.658
15211W        W87526  26.069   4.421   0.662
15212W        W87527  28.375  36.491  10.725
15213W        W87528  26.402  33.875   3.641
15214W        W87529  38.176  23.899  11.950
15215W        W87530  29.463  19.561   1.476
15216W        W87531  26.381  44.787  10.995
15217W        W87532  38.923  37.511  13.146
15218W        W87533  14.223  38.664  13.039
15219W        W87534   8.763  19.035   3.382
15220W        W87535  14.126  35.866  14.112
15221W        W87536  25.630  21.894  13.561
15222W        W87537  38.053  21.766  13.428
15223W        W87538  19.227  21.632   4.142
15224W        W87539  35.047  33.336  13.931
15225W        W87540  35.006   5.989   0.421
15226W        W87541  21.454  21.542   2.259
15227W        W87542  10.886  16.741   0.915
15228W        W87543  22.731  26.087   3.644
15229W        W87544   2.867  13.351  10.624
15230W        W87545   7.964  13.098   0.740
15231W        W87546  16.106  22.293  12.589
15232W        W87547   0.173  26.535  10.688
15233W        W87548   9.882  43.517  14.684
15234W        W87549  43.304  19.758  11.534
15235W        W87550   4.211  23.888  11.121
15236W        W87551  26.978   1.704   2.169
15237W        W87552  13.186  10.760  13.805
15238W        W87553  42.847   9.075  13.814
15239W        W87554  16.163  32.903  13.866
15240W        W87555  18.620  29.219   4.633
15241W        W87556  37.954   0.698   0.249
15242W        W87557  13.311  13.574  11.098
15243W        W87558   8.632  37.396  11.817
15244W        W87559  27.697  35.701   1.036
15245W        W87560  33.880  10.760   2.834
15246W        W87561   3.298  40.348   1.897
15247W        W87562  12.773  24.720   4.569
15248W        W87563  10.790  21.447   1.685
15249W        W87564  28.428  12.402   4.154
15250W        W87565  41.382  14.984   2.843
15251W        W87566  38.516  19.082   1.680
15252W        W87567  15.527  36.824   3.145
15253W        W87568   1.477  36.436   3.783
15254W        W87569  27.667  29.480   4.187
15255W        W87570  40.258  38.115  14.403
15256W        W87571   5.957  44.467   4.224
15257W        W87572  11.848   7.898   1.342
15258W        W87573  18.660  27.978  13.541
15259W        W87574  20.814  38.459  12.589
15260W        W87575  35.500  35.642   2.261
15261W        W87576  13.291  22.103   2.435
15262W        W87577  19.678  30.805  12.611
15263W        W87578  14.321   5.403   0.783
15264W        W87579  28.395  44.965  13.082
15265W        W87580  24.989  26.545  12.015
15266W        W87581  10.592  17.120   0.762
15267W        W87582   2.747  10.668  13.261
15268W        W87583  35.436  23.451  10.321
15269W        W87584  18.046  42.040  14.360
15270W        W87585  33.827  36.360   3.766
15271W        W87586  24.955  34.149   0.820
15272W        W87587  16.673  27.156  13.929
15273W        W87588  14.790  31.369   3.369
15274W        W87589  38.328  34.683  11.697
15275W        W87590  29.929   1.304   1.325
15276W        W87591  31.686  23.275  12.506
15277W        W87592  27.648   3.799   2.232
15278W        W87593   9.364   5.220   1.763
15279W        W87594  17.355  18.496   1.314
15280W        W87595  24.386  11.673   0.897
15281W        W87596   9.848   8.214  12.791
15282W        W87597   7.151  27.389   2.340
15283W        W87598  10.243  36.842   1.880
15284W        W87599  11.358   3.675   2.279
15285W        W87600  30.072  39.825  11.265
15286W        W87601   0.317   3.139   3.187
15287W        W87602  26.970  33.660  10.592
15288W        W87603  41.398   4.678  13.412
15289W        W87604  44.934  33.309   2.733
15290W        W87605  15.621   9.575  10.632
15291W        W87606  18.702  19.610  13.397
15292W        W87607  30.464  42.992   3.202
15293W        W87608  31.070  18.842   2.881
15294W        W87609  17.212  11.504   9.918
15295W        W87610   7.159  15.151   0.336
15296W        W87611  23.219   2.446   2.316
15297W        W87612   5.132  29.958  13.272
15298W        W87613  44.666  10.136  10.725
15299W        W87614  29.584  43.188  14.264
15300W        W87615   2.805  32.338  14.931
15301W        W87616  13.167   4.305   0.941
15302W        W87617  16.394  44.292   1.984
15303W        W87618  12.380  17.567  13.559
15304W        W87619  29.952   3.373   4.775
15305W        W87620   0.099  23.020  11.563
15306W        W87621  42.573  39.082   1.891
15307W        W87622  20.491   8.254   2.239
15308W        W87623   6.681  24.985  12.933
15309W        W87624   1.534  20.638  11.882
15310W        W87625  42.370  17.948   0.678
15311W        W87626  35.833  40.868   4.734
15312W        W87627  41.986  27.673   2.137
15313W        W87628  15.536  37.107   4.210
15314W        W87629  41.114  22.454   3.263
15315W        W87630   2.915  36.994  10.715
15316W        W87631  23.153  30.338  13.116
15317W        W87632   5.946  30.432   2.757
15318W        W87633  20.784  24.494  11.590
15319W        W87634   3.596  34.999  12.142
15320W        W87635  21.545  37.124  12.507
15321W        W87636  26.956   0.820  14.829
15322W        W87637   6.164  29.284  12.758
15323W        W87638  26.457   7.234  11.013
15324W        W87639  31.219  22.654  13.899
15325W        W87640  33.374  37.351   3.645
15326W        W87641   6.805  37.548  10.870
15327W        W87642  31.120  24.694   0.390
15328W        W87643  11.339  31.958  13.562
15329W        W87644  28.474   4.520   3.821
15330W        W87645  12.643   8.326  12.656
15331W        W87646  16.295  30.778   1.358
15332W        W87647  37.372  39.312  13.308
15333W        W87648  37.824   6.771   3.855
15334W        W87649  41.601  31.478  11.141
15335W        W87650  31.217  16.290   2.362
15336W        W87651  38.280  37.753   0.451
15337W        W87652  12.430  25.085   0.333
15338W        W87653  11.326  28.991   1.495
15339W        W87654  40.453  14.752   4.794
15340W        W87655  38.440  28.072   2.670
15341W        W87656  16.534  26.402   1.804
15342W        W87657  21.521   8.347  10.671
15343W        W87658   2.215  31.754  14.524
15344W        W87659  35.145   3.931  14.871
15345W        W87660   7.900  44.478   1.360
15346W        W87661  33.586  37.777  12.505
15347W        W87662  10.434  37.556   1.447
15348W        W87663  16.218  34.291   4.361
15349W        W87664  40.602  44.206   4.565
15350W        W87665  39.465  44.776  14.608
15351W        W87666   6.130  26.204  12.071
15352W        W87667  29.646  20.982   0.526
15353W        W87668  32.019  16.122   4.504
15354W        W87669  34.853  18.196  12.208
15355W        W87670  39.964  33.499   3.347
15356W        W87671  44.705  13.122   5.835
15357W        W87672   5.796   6.300   1.773
15358W        W87673  16.962   9.772   0.681
15359W        W87674  18.337   4.271  12.484
15360W        W87675   8.238  21.358   3.221
15361W        W87676   9.374  38.638  10.932
15362W        W87677   9.543  22.421   3.123
15363W        W87678  12.323  40.280  14.037
15364W        W87679  36.357  16.219  13.427
15365W        W87680  37.269  22.671  13.858
15366W        W87681  43.944  36.457  13.659
15367W        W87682  44.369  28.580  10.464
15368W        W87683   2.386  41.683  11.271
15369W        W87684   7.394  42.466  10.772
15370W        W87685  21.095  27.028   3.656
15371W        W87686  36.480  29.052   3.677
15372W        W87687  11.433  22.803  13.843
15373W        W87688   0.322  41.314   3.282
15374W        W87689  17.160  28.759  14.357
15375W        W87690  16.911  40.287  10.702
15376W        W87691  33.599  42.532   3.754
15377W        W87692  30.149  42.959   2.726
15378W        W87693   1.947  24.740  13.798
15379W        W87694  37.757  33.917  12.542
15380W        W87695   9.709  26.122   1.845
15381W        W87696   6.214  15.913   1.675
15382W        W87697   7.801  42.881  12.073
15383W        W87698  25.436  42.397  12.542
15384W        W87699  31.712   1.370   3.956
15385W        W87700  38.531  35.053  11.423
15386W        W87701   0.793   1.105   2.434
15387W        W87702  38.836  16.114  13.053
15388W        W87703  43.400  31.541   3.790
15389W        W87704  32.612  25.962   2.212
15390W        W87705   4.632  36.170  14.019
15391W        W87706  23.171   1.991  10.690
15392W        W87707   3.693  22.409  11.599
15393W        W87708  33.000  26.481   3.235
15394W        W87709  10.106  35.148  11.577
15395W        W87710  24.544   7.228  12.515
15396W        W87711  12.172  33.445  14.585
15397W        W87712  41.440   8.867   1.034
15398W        W87713  32.073  31.533   2.242
15399W        W87714  39.363  32.102   1.197
15400W        W87715  33.958  36.299   1.752
15401W        W87716  35.362  39.601   3.292
15402W        W87717   1.457  20.976   1.496
15403W        W87718  36.748  33.007   2.201
15404W        W87719  42.717  22.002  13.869
15405W        W87720  25.466  25.095  14.433
15406W        W87721  25.987   0.301   2.415
15407W        W87722  18.360  30.386  12.281
15408W        W87723   0.495   4.527   4.295
15409W        W87724   9.611  13.663   4.292
15410W        W87725  36.939  36.320  14.459
15411W        W87726  40.777  36.035   4.723
15412W        W87727  27.654  35.513   2.680
15413W        W87728  38.882  26.681  12.157
15414W        W87729  23.934  38.255   1.760
15415W        W87730  34.279  25.146   2.029
15416W        W87731   7.118  29.570   4.037
15417W        W87732  43.373  21.192   1.954
15418W        W87733  20.535  31.080   2.809
15419W        W87734   3.874  41.886   1.168
15420W        W87735   5.711   4.367   4.538
15421W        W87736   4.964  29.434   0.377
15422W        W87737  11.934  17.324   4.681
15423W        W87738  20.108  33.241   0.808
15424W        W87739  11.828  30.926  10.622
15425W        W87740  11.405  18.189  12.876
15426W        W87741   5.673   5.090   4.181
15427W        W87742  20.778  40.203  12.456
15428W        W87743  31.003  43.787   2.380
15429W        W87744   2.150  42.274   1.355
15430W        W87745  32.410  33.377   3.725
15431W        W87746  22.014  40.285  12.948
15432W        W87747  11.719   5.741   9.854
15433W        W87748  44.118  15.636   3.275
15434W        W87749  30.430  30.147   1.924
15435W        W87750  34.368  26.552   0.448
15436W        W87751  16.675   1.010   3.317
15437W        W87752  35.930  40.745   1.711
15438W        W87753  15.750  36.338  11.377
15439W        W87754   7.291  19.641   2.401
15440W        W87755  42.158  41.818  10.429
15441W        W87756  22.701   5.690   4.201
15442W        W87757  19.210  22.516   0.940
15443W        W87758   0.471  21.057   0.946
15444W        W87759   7.427   7.741  10.878
15445W        W87760  43.684   0.844  12.148
15446W        W87761  26.924  24.130  13.363
15447W        W87762  32.742  25.116   4.902
15448W        W87763  29.590   4.183   3.219
15449W        W87764   1.450  10.168  11.618
15450W        W87765  36.535  23.555  13.518
15451W        W87766  34.525   8.316   3.761
15452W        W87767  28.537  38.352  11.998
15453W        W87768  43.785   3.983  12.615
15454W        W87769   1.748   4.976  10.496
15455W        W87770  40.845  25.413  14.553
15456W        W87771   4.665  18.994  11.156
15457W        W87772   2.088  27.153  14.933
15458W        W87773  25.590   9.744   3.493
15459W        W87774  22.536  31.687   0.772
15460W        W87775   8.189  12.116   4.717
15461W        W87776  32.145  15.186   0.559
15462W        W87777  25.694  32.156   1.381
15463W        W87778  26.332  14.457   4.567
15464W        W87779  12.098  27.075  10.671
15465W        W87780  14.373  35.372   4.163
15466W        W87781  27.618  32.333  12.004
15467W        W87782  36.176   8.749   4.980
15468W        W87783  22.831  38.927  13.053
15469W        W87784  43.533  33.646  14.432
15470W        W87785  11.262  26.474   4.016
15471W        W87786   2.170  36.437   3.278
15472W        W87787  10.964  18.594   2.787
15473W        W87788  37.671  42.915  13.749
15474W        W87789  11.549  36.670  14.983
15475W        W87790   9.876  38.785  11.492
15476W        W87791  42.805  37.278   1.867
15477W        W87792  32.020  41.532   3.920
15478W        W87793  10.705   8.643  13.831
15479W        W87794  19.234  40.383   5.047
15480W        W87795  25.706  25.926   4.050
15481W        W87796  22.541  31.337  11.678
15482W        W87797  26.620   7.198  14.249
15483W        W87798  30.329  12.561  13.514
15484W        W87799  19.703  32.313  13.974
15485W        W87800   3.401  22.284   2.740
15486W        W87801  33.528   2.266  13.262
15487W        W87802   2.919  16.639  14.896
15488W        W87803   4.502  14.133  12.924
15489W        W87804  37.395   8.963  14.761
15490W        W87805  10.154  38.506   0.362
15491W        W87806  31.718   3.351  11.324
15492W        W87807  14.931  12.736  12.822
15493W        W87808  14.047  23.144   1.641
15494W        W87809  37.815  33.692   3.590
15495W        W87810  44.792  13.764  10.692
15496W        W87811  24.106  44.206   3.364
15497W        W87812  20.472  12.580   1.697
15498W        W87813  12.815  22.606  12.580
15499W        W87814  39.848  34.897  12.884
15500W        W87815  23.735  11.594  11.527
15501W        W87816   0.778  34.717   1.674
15502W        W87817  24.118   6.962  12.684
15503W        W87818  44.197  10.692   1.936
15504W        W87819  38.059  13.148   3.801
15505W        W87820  37.924  34.500  14.160
15506W        W87821  44.920  30.706   2.350
15507W        W87822  36.121   6.871   1.346
15508W        W87823  32.662  22.140   2.846
15509W        W87824  34.145  41.602  10.893
15510W        W87825  25.920  40.432   0.758
15511W        W87826  43.993  38.591   2.856
15512W        W87827  41.054  34.685  11.432
15513W        W87828  21.879  17.324   2.718
15514W        W87829  19.223  38.251   2.742
15515W        W87830  19.050  43.775   0.319
15516W        W87831  43.321  38.518  11.159
15517W        W87832  44.259   3.838   1.302
15518W        W87833  31.334  25.486   1.716
15519W        W87834  37.435   1.541   4.431
15520W        W87835  24.282  35.822   4.958
15521W        W87836  22.770  17.721  14.028
15522W        W87837  19.174  12.299   3.353
15523W        W87838   4.958  37.776  14.604
15524W        W87839  28.595  11.869   4.112
15525W        W87840  26.100   0.896   1.963
15526W        W87841   9.369  44.132  13.338
15527W        W87842  26.013  23.475   2.294
15528W        W87843  35.494  42.503  10.757
15529W        W87844  30.720  11.392  14.417
15530W        W87845  12.044  36.839   1.355
15531W        W87846  43.214  13.702  14.738
15532W        W87847   8.800  41.036  11.075
15533W        W87848   5.798  27.710   0.285
15534W        W87849  13.331  42.274  11.549
15535W        W87850  29.618  10.089   2.674
15536W        W87851  16.052  25.519   1.879
15537W        W87852  40.429   7.203  13.964
15538W        W87853   3.636  37.012  13.890
15539W        W87854  25.498  42.038   3.365
15540W        W87855  22.177  31.438   2.396
15541W        W87856  14.843   1.984  11.557
15542W        W87857   7.832  28.360  14.560
15543W        W87858  16.841   4.459   3.171
15544W        W87859  19.389  39.792   9.693
15545W        W87860  16.723  19.652  12.050
15546W        W87861   1.496  24.683  12.434
15547W        W87862  37.504  40.910  10.727
15548W        W87863  21.600  34.497   2.784
15549W        W87864  32.096  18.048   4.550
15550W        W87865  34.774  37.897  13.259
15551W        W87866  15.098  37.886   4.185
15552W        W87867   9.307  15.789  11.884
15553W        W87868   4.725  24.580   2.691
15554W        W87869  43.812  41.438   2.810
15555W        W87870  42.574  29.967   4.990
15556W        W87871   1.378   5.465   3.388
15557W        W87872  20.620  39.539   1.911
15558W        W87873   0.204   9.167  12.696
15559W        W87874   9.810  43.011  14.191
15560W        W87875  23.029  43.289  11.355
15561W        W87876  34.686  15.209  14.973
15562W        W87877  28.029  26.394  14.455
15563W        W87878   8.659  11.876   2.845
15564W        W87879  14.057  24.524  12.442
15565W        W87880  37.543  44.373   1.968
15566W        W87881  28.152   0.309  11.537
15567W        W87882   5.386  24.774   3.353
15568W        W87883  14.067  33.703  12.507
15569W        W87884   0.646   7.651  12.043
15570W        W87885  27.304  26.210  14.001
15571W        W87886  39.896  14.335   3.302
15572W        W87887  32.267   7.021   0.927
15573W        W87888  19.632  38.306  12.835
15574W        W87889  26.744  21.806   2.007
15575W        W87890   1.355  25.903  11.130
15576W        W87891  41.503  13.678  14.934
15577W        W87892   8.718  18.084  11.899
15578W        W87893  25.617  23.003  14.329
15579W        W87894  27.207  42.090  11.572
15580W        W87895  23.801  35.944   2.673
15581W        W87896  31.470   6.330   3.339
15582W        W87897  10.117  44.348  11.140
15583W        W87898   4.593  16.861   2.943
15584W        W87899  20.715  44.314   5.004
15585W        W87900  20.684   8.735  12.837
15586W        W87901  35.374  29.972  14.344
15587W        W87902  26.557   4.806   4.085
15588W        W87903  42.992  20.041  14.556
15589W        W87904  24.299  26.493  13.502
15590W        W87905  18.492  12.767  11.197
15591W        W87906  31.130  35.759  12.147
15592W        W87907   3.231   8.710   2.691
15593W        W87908  31.246   3.303  14.534
15594W        W87909   7.706  17.561  11.157
15595W        W87910  11.232  14.017   0.490
15596W        W87911   5.481   4.834   3.755
15597W        W87912  15.093  25.098   4.961
15598W        W87913  41.266  40.472   0.921
15599W        W87914  40.474   9.816   0.664
15600W        W87915  19.234   6.864  13.161
15601W        W87916   1.475   5.014   3.170
15602W        W87917   4.517   5.636  10.572
15603W        W87918  35.848  22.216  10.758
15604W        W87919   3.026  23.962   4.895
15605W        W87920  37.398  44.963   1.460
15606W        W87921  22.790  28.319  10.694
15607W        W87922  24.569  22.546  11.011
15608W        W87923  35.950  13.623  12.165
15609W        W87924   1.751  21.652   0.522
15610W        W87925   7.739  22.855   0.860
15611W        W87926  16.655  40.277  12.521
15612W        W87927  42.981  14.718  11.221
15613W        W87928   0.745  24.187   1.476
15614W        W87929  39.274   7.360  11.132
15615W        W87930  36.873  25.457   0.932
15616W        W87931  16.728   7.060  14.193
15617W        W87932  18.210  19.657   4.172
15618W        W87933  34.140  10.477   4.525
15619W        W87934   9.364  41.268  12.625
15620W        W87935  15.614  30.959   3.672
15621W        W87936  34.881  11.290  10.795
15622W        W87937  10.664  32.045  10.663
15623W        W87938  23.903  30.419   4.128
15624W        W87939   4.283  26.073   0.017
15625W        W87940  31.539  36.073  10.685
15626W        W87941  44.923   9.931   3.691
15627W        W87942   5.727  21.974   4.126
15628W        W87943   5.157  13.359   1.322
15629W        W87944  38.529  40.759   0.965
15630W        W87945  29.442   0.855   3.620
15631W        W87946  17.261  31.483   3.562
15632W        W87947   0.300  11.290  14.080
15633W        W87948  23.030  11.660   4.708
15634W        W87949  13.612   6.750  10.757
15635W        W87950  16.046  24.696   2.910
15636W        W87951  22.611  26.040  10.640
15637W        W87952   3.385  10.378  12.317
15638W        W87953  42.350  11.397   1.906
15639W        W87954  33.599  35.139  13.402
15640W        W87955  27.080  18.704   3.168
15641W        W87956  24.454  35.503  10.676
15642W        W87957  28.211   9.177  14.995
15643W        W87958  34.456  42.451   1.720
15644W        W87959  42.448  20.652   3.855
15645W        W87960  15.178  25.417  10.836
15646W        W87961  34.640  24.447  11.120
15647W        W87962  34.471  14.473   4.150
15648W        W87963  11.489  35.323  12.598
15649W        W87964  10.215  40.340  10.376
15650W        W87965  34.709  44.961  14.837
15651W        W87966   1.997  23.214  12.981
15652W        W87967  15.584  28.219   2.852
15653W        W87968   1.760  37.007   2.399
15654W        W87969  21.830   6.916  11.924
15655W        W87970  19.178  29.758   0.468
15656W        W87971  29.093   1.422  14.509
15657W        W87972  29.233  23.470   3.668
15658W        W87973   7.460  10.766  11.611
15659W        W87974  16.749  14.273   2.264
15660W        W87975   1.257  10.721  13.466
15661W        W87976  13.682  33.545  10.655
15662W        W87977  44.441  12.644  10.224
15663W        W87978  10.735   8.469  11.975
15664W        W87979  42.662   8.868  14.241
15665W        W87980  31.887  20.530  14.635
15666W        W87981  30.898   3.201   3.812
15667W        W87982  20.246  31.841   4.616
15668W        W87983   5.751  43.234  13.831
15669W        W87984   0.983  34.943   4.607
15670W        W87985   1.535  25.234  13.002
15671W        W87986   0.515  34.129  12.908
15672W        W87987  23.360  20.278  12.007
15673W        W87988   9.775  39.282   3.914
15674W        W87989   9.198   3.375   2.861
15675W        W87990  15.720  19.328  13.533
15676W        W87991  20.097  36.289  12.400
15677W        W87992  25.086  20.690   0.780
15678W        W87993  44.841  25.291  13.257
15679W        W87994  14.174   4.355  14.871
15680W        W87995  36.411  13.079   5.116
15681W        W87996  37.491  34.570  13.860
15682W        W87997  33.505  26.838   0.309
15683W        W87998  35.042   5.360   2.570
15684W        W87999  23.431  22.355   2.641
15685W        W88000  34.808  41.137  11.525
15686W        W88001  17.628  21.677   3.969
15687W        W88002  41.891  12.628  12.470
15688W        W88003  24.085  43.442   0.858
15689W        W88004  13.493  21.147  12.444
15690W        W88005  14.495  22.550  13.104
15691W        W88006  43.799  41.253  13.422
15692W        W88007   3.055  24.087  13.278
15693W        W88008   2.761   3.453   1.694
15694W        W88009  23.954  27.468  10.658
15695W        W88010  16.583  31.093   5.776
15696W        W88011   5.828   4.486  10.682
15697W        W88012   2.683   6.267   1.410
15698W        W88013  18.692  17.272   2.279
15699W        W88014  20.719  35.082  12.142
15700W        W88015  29.727  29.027   2.140
15701W        W88016  37.352  20.722   0.261
15702W        W88017  22.299  21.562  10.588
15703W        W88018  18.012  42.748   3.673
15704W        W88019  34.785  30.781   2.781
15705W        W88020  42.412   6.660   0.196
15706W        W88021  38.037  30.691  13.234
15707W        W88022   5.798  11.641   1.998
15708W        W88023  28.976  15.720  11.618
15709W        W88024  27.908   8.730   3.639
15710W        W88025   5.540  13.279   3.887
15711W        W88026  15.568  13.682   1.684
15712W        W88027  19.101  34.405   3.759
15713W        W88028  35.978  26.275   1.031
15714W        W88029  16.277   1.463   3.583
15715W        W88030  21.012   8.472   2.700
15716W        W88031  38.595  41.180   1.751
15717W        W88032  26.722  21.016   4.085
15718W        W88033  26.308  24.631   0.894
15719W        W88034  25.641  28.220   4.624
15720W        W88035   4.906  35.003   3.817
15721W        W88036  26.871  44.849   3.238
15722W        W88037  20.302  13.244  11.602
15723W        W88038  38.123  33.021  13.871
15724W        W88039  14.382  37.707   3.523
15725W        W88040  33.947  24.503  10.453
15726W        W88041  21.312  28.566   1.767
15727W        W88042   0.143   0.305   4.468
15728W        W88043  38.800  39.306  10.608
15729W        W88044  14.362   4.329  13.966
15730W        W88045  43.552  39.345   1.832
15731W        W88046   2.656   9.759   4.842
15732W        W88047   3.382  33.639   4.642
15733W        W88048   7.312   7.793  11.875
15734W        W88049  12.622  18.366   4.456
15735W        W88050   5.181  24.236  12.901
15736W        W88051  18.066  11.686   3.031
15737W        W88052  23.241  35.909   1.790
15738W        W88053  35.382  36.649  13.383
15739W        W88054  42.505  24.565   4.664
15740W        W88055   3.976   3.771   1.311
15741W        W88056  42.020  41.527   2.286
15742W        W88057  26.775  20.792  14.938
15743W        W88058   1.370  20.104  10.689
15744W        W88059  10.065  44.756   2.803
15745W        W88060   8.919   4.417  10.476
15746W        W88061  31.195  42.997  12.985
15747W        W88062  30.379   6.359  14.748
15748W        W88063  30.106   6.401   1.511
15749W        W88064  29.074  31.662  10.261
15750W        W88065  43.830  19.067   2.276
15751W        W88066   7.338   9.949   3.805
15752W        W88067  21.509  43.010   2.172
15753W        W88068  32.938  12.400   2.540
15754W        W88069  26.667  15.173  11.491
15755W        W88070  38.226  18.692   1.861
15756W        W88071   1.254  15.545   1.221
15757W        W88072  17.746  14.766   4.111
15758W        W88073  29.271  35.933  12.073
15759W        W88074  20.549   8.690   2.752
15760W        W88075  33.957   0.303  10.725
15761W        W88076  42.468  22.008   1.388
15762W        W88077  20.600  38.148  14.893
15763W        W88078  41.305   4.767   4.846
15764W        W88079  16.364  39.840  12.008
15765W        W88080  39.547  14.278  14.445
15766W        W88081  39.132   2.524   4.219
15767W        W88082  31.478  23.440   3.263
15768W        W88083  42.430  25.580  13.358
15769W        W88084  22.156  26.270   4.362
15770W        W88085  28.704  28.662  10.763
15771W        W88086   3.767  16.762  14.315
15772W        W88087  12.388  34.332   4.374
15773W        W88088  10.479  11.783  12.050
15774W        W88089  17.526  44.675  10.258
15775W        W88090   6.416  19.652   0.988
15776W        W88091  37.320  31.469  11.910
15777W        W88092   9.711   7.179   0.346
15778W        W88093  41.325   5.711   4.348
15779W        W88094  31.522  24.766   3.754
15780W        W88095  29.070  24.055  11.017
15781W        W88096   0.965   9.432   3.733
15782W        W88097   0.930  39.828   0.813
15783W        W88098  40.897  36.351   4.336
15784W        W88099  29.699  16.223  13.927
15785W        W88100  17.809   4.850   1.853
15786W        W88101  44.417  22.552  12.156
15787W        W88102  37.854   7.439  11.984
15788W        W88103  28.452   3.171  13.568
15789W        W88104  22.970   7.447  11.513
15790W        W88105  39.983  22.796  12.458
15791W        W88106  31.099  37.734  12.970
15792W        W88107   4.763  28.981  12.547
15793W        W88108  32.429  23.735  12.513
15794W        W88109  18.806  28.004   1.850
15795W        W88110   6.840  37.953   1.382
15796W        W88111  38.391  16.719   1.243
15797W        W88112  26.851  25.965   2.889
15798W        W88113  35.461  13.310  13.946
15799W        W88114   1.721  24.008   2.183
15800W        W88115  18.524  25.119   4.785
15801W        W88116  18.776  37.691  10.170
15802W        W88117  21.583  13.256   4.857
15803W        W88118  12.362   9.487   2.241
15804W        W88119  40.554  34.931   0.327
15805W        W88120   3.925  23.206  13.363
15806W        W88121  18.755   1.336  10.572
15807W        W88122  15.760  16.829   1.241
15808W        W88123  10.744  14.500   4.387
15809W        W88124  25.080  11.841  13.296
15810W        W88125   8.180  22.710   2.469
15811W        W88126  10.168  18.292  10.693
15812W        W88127   0.680  29.589  12.410
15813W        W88128  20.773  22.012  12.443
15814W        W88129  41.516   5.582  11.492
15815W        W88130  33.564  30.965   0.952
15816W        W88131   5.153  29.617   1.324
15817W        W88132   6.348  21.525  14.358
15818W        W88133  31.856  44.990   2.192
15819W        W88134  14.243   9.291   3.718
15820W        W88135  16.297  38.867  11.074
15821W        W88136  42.455  23.492  12.307
15822W        W88137   8.151  11.030  13.981
15823W        W88138   5.439  12.845   2.437
15824W        W88139   3.991  42.361  11.511
15825W        W88140  40.040   2.188  10.694
15826W        W88141   4.278  13.347   4.486
15827W        W88142  22.617  16.133  11.229
15828W        W88143  37.327  13.686   3.292
15829W        W88144  43.521   6.143  12.537
15830W        W88145  15.200  25.578  12.025
15831W        W88146   4.076  33.129  12.796
15832W        W88147   3.918  14.605   1.861
15833W        W88148   1.680  40.052  10.726
15834W        W88149  12.133  16.551   5.301
15835W        W88150  24.496   6.710  10.977
15836W        W88151  12.186  34.895  14.126
15837W        W88152  32.296  12.571  12.373
15838W        W88153   6.957  32.309   0.796
15839W        W88154  27.230  18.566  12.488
15840W        W88155  39.955  25.019  13.065
15841W        W88156  20.623  39.765   1.442
15842W        W88157  27.524  25.473  10.678
15843W        W88158  19.076  25.094   4.757
15844W        W88159   7.170   6.906   2.595
15845W        W88160  18.083  29.038   2.209
15846W        W88161  44.553  30.099  11.239
15847W        W88162  28.694  41.996   0.426
15848W        W88163  29.579  25.955  11.091
15849W        W88164  17.734  36.399  11.522
15850W        W88165  38.034   2.441  12.542
15851W        W88166  43.077  21.995  14.895
15852W        W88167  33.055  25.031   3.343
15853W        W88168  16.229  10.356  10.345
15854W        W88169  38.383   5.980  14.566
15855W        W88170   8.414  25.092   1.273
15856W        W88171  16.145  29.409   1.135
15857W        W88172  20.152  41.460   2.389
15858W        W88173   1.704  20.204   4.667
15859W        W88174   2.872   5.335  11.970
15860W        W88175  18.239  20.969  13.898
15861W        W88176  41.043   0.730  10.612
15862W        W88177  23.247   1.699  14.451
15863W        W88178  39.072   4.508   3.689
15864W        W88179  37.785  35.856   0.522
15865W        W88180   9.947  43.015  13.325
15866W        W88181   2.456   3.349   4.222
15867W        W88182  23.031   8.158  13.405
15868W        W88183  29.451  32.015   0.823
15869W        W88184  19.589  12.779  12.864
15870W        W88185  30.122  39.877  10.733
15871W        W88186  43.324  15.866   9.857
15872W        W88187   9.918  42.288  10.736
15873W        W88188  44.434   1.018   1.162
15874W        W88189   9.266  19.262  13.444
15875W        W88190   1.339   7.021  11.946
15876W        W88191  38.344   6.335   3.437
15877W        W88192  22.605   6.862   9.978
15878W        W88193   2.724   5.790   0.578
15879W        W88194  11.437   5.449   0.453
15880W        W88195  35.479  30.940  12.750
15881W        W88196   9.145  37.001   4.328
15882W        W88197  35.657  29.665  11.952
15883W        W88198  23.227  32.491  14.807
15884W        W88199  30.423  38.375   3.719
15885W        W88200   7.916  32.217  14.333
15886W        W88201  31.904  18.291  13.382
15887W        W88202  34.596  24.112   0.962
15888W        W88203  37.935   9.620  14.765
15889W        W88204  21.036   9.427   2.722
15890W        W88205   8.101  38.544  11.312
15891W        W88206  26.919  23.139   3.470
15892W        W88207  11.278   6.927   3.342
15893W        W88208  42.899   6.930  11.888
15894W        W88209   0.431  20.571  13.396
15895W        W88210  21.360   0.387  11.878
15896W        W88211  23.046  41.323   4.565
15897W        W88212  42.757   0.505  11.137
15898W        W88213  35.919  38.303   3.327
15899W        W88214  26.482   4.837   1.260
15900W        W88215  25.623  10.601   3.988
15901W        W88216  15.075   7.348   0.843
15902W        W88217  12.817  22.708   2.742
15903W        W88218  33.113  29.379   1.497
15904W        W88219   8.080   9.629  13.568
15905W        W88220   8.664  29.436   4.334
15906W        W88221  33.142  22.144  13.355
15907W        W88222  24.919  17.621  13.575
15908W        W88223  32.454   5.909   3.803
15909W        W88224  44.366  12.946   1.770
15910W        W88225   9.807  26.790  14.482
15911W        W88226   0.737  19.689   1.252
15912W        W88227  33.214  40.408  11.074
15913W        W88228  16.144  42.503   3.258
15914W        W88229  44.487  11.743  10.252
15915W        W88230   3.811  30.988   3.346
15916W        W88231  37.996  25.692  14.028
15917W        W88232  38.148  44.397  12.479
15918W        W88233  20.604   9.699   2.775
15919W        W88234  17.728  10.152  14.761
15920W        W88235  25.011  29.444  13.858
15921W        W88236   9.846  10.089   1.657
15922W        W88237  34.701  12.591   3.331
15923W        W88238  21.731  41.040   3.288
15924W        W88239  25.449  10.883  11.935
15925W        W88240  27.964   3.223   3.450
15926W        W88241   9.379   5.460   4.095
15927W        W88242  21.226  25.045   2.494
15928W        W88243  34.502   1.699  11.161
15929W        W88244  12.389  44.528  14.978
15930W        W88245  43.778  41.246  11.867
15931W        W88246  34.988   1.405  10.958
15932W        W88247  33.478  21.509  14.285
15933W        W88248  11.861  22.436   5.071
15934W        W88249  17.988   2.463  10.505
15935W        W88250  44.940  27.071   1.774
15936W        W88251  15.309  43.886   0.783
15937W        W88252  17.793   3.883   1.262
15938W        W88253  24.706  42.832  13.733
15939W        W88254  31.168  38.881  10.543
15940W        W88255  35.510  12.865  12.091
15941W        W88256  25.470  19.231   3.694
15942W        W88257  24.154  37.562  14.261
15943W        W88258   4.832  33.038  11.356
15944W        W88259  29.571   5.940   3.602
15945W        W88260  36.976  17.775  14.816
15946W        W88261  43.460  22.117   1.796
15947W        W88262  43.372  19.929  12.015
15948W        W88263  15.925  25.991   4.815
15949W        W88264  39.551   8.161  13.512
15950W        W88265  41.120  35.088  12.544
15951W        W88266  34.567  14.342  12.989
15952W        W88267  12.838   2.725   2.251
15953W        W88268  25.384  34.782   2.203
15954W        W88269   0.676  24.454  14.351
15955W        W88270  30.541   0.993   4.058
15956W        W88271  21.555   1.384   1.929
15957W        W88272  41.223   3.219  12.642
15958W        W88273   0.419  15.166   0.329
15959W        W88274  42.116  12.244   4.248
15960W        W88275  14.558  19.533  11.146
15961W        W88276  41.483  37.640  10.591
15962W        W88277   4.814  24.333  14.916
15963W        W88278   1.278   3.002   2.713
15964W        W88279   0.965  14.259   0.291
15965W        W88280  18.061   7.600  13.840
15966W        W88281  14.491  26.511  13.285
15967W        W88282  12.531  12.422  11.814
15968W        W88283  35.191  30.922   1.601
15969W        W88284  36.403   8.369   1.265
15970W        W88285  14.601   3.507   3.797
15971W        W88286  25.641  14.463   1.887
15972W        W88287  16.563  15.922   3.069
15973W        W88288   1.205  44.207   4.161
15974W        W88289  33.109   7.330  11.548
15975W        W88290  35.482  20.140  12.023
15976W        W88291  43.790  11.004  11.569
15977W        W88292  33.917  41.555   0.889
15978W        W88293  17.573  24.526  10.972
15979W        W88294  40.120  28.644  13.596
15980W        W88295  29.997  11.899   2.653
15981W        W88296  40.561  36.517  12.167
15982W        W88297  12.644   3.593   0.310
15983W        W88298  29.688  37.798  14.336
15984W        W88299  25.219  22.234   0.700
15985W        W88300  31.395  17.045   4.686
15986W        W88301  37.219  43.498  13.364
15987W        W88302  24.702  17.626   1.123
15988W        W88303  31.181  14.572  14.638
15989W        W88304  32.195   3.252   4.183
15990W        W88305  26.648  38.638   3.299
15991W        W88306  27.501  30.603   2.784
15992W        W88307  17.803   3.469   2.546
15993W        W88308  44.840  10.431  12.260
15994W        W88309  14.347  24.702  11.468
15995W        W88310  22.136  35.197  10.972
15996W        W88311  33.335  12.912  11.603
15997W        W88312  25.167   6.349   0.266
15998W        W88313  20.247  10.934   5.643
15999W        W88314   7.196   7.302  10.710
16000W        W88315  34.452  26.011  13.678
16001W        W88316  39.097  14.687  14.002
16002W        W88317   7.612  32.025  14.733
16003W        W88318  34.945  19.220   4.832
16004W        W88319  19.173   4.294  10.773
16005W        W88320   6.170   6.740   4.704
16006W        W88321  25.916  25.259  13.308
16007W        W88322   1.782  12.268   0.346
16008W        W88323  33.425   1.585   2.334
16009W        W88324  16.820  22.712   1.753
16010W        W88325  33.158  43.766   0.375
16011W        W88326  10.368  16.033  10.164
16012W        W88327  26.149   0.526  10.587
16013W        W88328  39.650   2.165  13.472
16014W        W88329  37.018  16.726  13.767
16015W        W88330  15.708  42.510   2.247
16016W        W88331   6.257   1.894  12.893
16017W        W88332   0.883  14.773  12.299
16018W        W88333  12.238  30.795  11.979
16019W        W88334  18.512   2.909   2.954
16020W        W88335  33.929  34.061   2.838
16021W        W88336   1.025   8.261  11.436
16022W        W88337  33.461  34.689   4.086
16023W        W88338   6.860   0.569   2.663
16024W        W88339   6.564  13.068   0.712
16025W        W88340  26.927  23.574  11.130
16026W        W88341  43.275  39.592   2.205
16027W        W88342   0.668  30.104   3.410
16028W        W88343   2.800  23.264  11.196
16029W        W88344   8.794   7.198  10.285
16030W        W88345  32.994  30.684   1.784
16031W        W88346  23.039  27.862  13.045
16032W        W88347  25.798  23.385  10.116
16033W        W88348  14.316  29.254  12.515
16034W        W88349   7.432  12.589   1.881
16035W        W88350   3.184  21.339   3.363
16036W        W88351   3.856  32.462  10.565
16037W        W88352   1.994   2.306   0.117
16038W        W88353  34.099  22.187   0.769
16039W        W88354   1.455  10.194   0.228
16040W        W88355  32.513  22.476  14.498
16041W        W88356  29.034  29.026  11.716
16042W        W88357   6.798   4.946   3.694
16043W        W88358  14.673   6.267  13.864
16044W        W88359  39.873  44.316   3.117
16045W        W88360  44.259  18.757  14.031
16046W        W88361  32.594  20.754   1.682
16047W        W88362  31.851  44.571  10.859
16048W        W88363  43.504   7.898  14.946
16049W        W88364   5.877  12.742   0.362
16050W        W88365   9.238  38.386   3.270
16051W        W88366  38.267  25.482  12.865
16052W        W88367   6.182  27.912  12.839
16053W        W88368  28.022  37.361   3.176
16054W        W88369  26.273  40.653  11.071
16055W        W88370  29.728   6.952   2.550
16056W        W88371  25.104  31.846   2.051
16057W        W88372  19.702  34.103  10.732
16058W        W88373  43.343  13.540   2.730
16059W        W88374  28.988  36.930  13.936
16060W        W88375   8.403  12.212   1.710
16061W        W88376  28.165   9.637   0.962
16062W        W88377  21.985  23.193  12.543
16063W        W88378  39.309  30.180   3.596
16064W        W88379  24.422  41.968   4.638
16065W        W88380  43.327  25.015   4.507
16066W        W88381  39.067  14.274  12.076
16067W        W88382  35.329   6.108  12.433
16068W        W88383   6.094  13.038  13.569
16069W        W88384  26.194  26.110   2.116
16070W        W88385  10.056  39.711   3.795
16071W        W88386  13.621  23.004  10.721
16072W        W88387  36.440  34.600  14.967
16073W        W88388  30.631   3.209  13.198
16074W        W88389  14.308  38.499  10.574
16075W        W88390  22.524  10.339   0.484
16076W        W88391   1.323  37.528  10.581
16077W        W88392   9.620  12.611   2.246
16078W        W88393  24.286   9.254   4.575
16079W        W88394  25.271   9.258  14.959
16080W        W88395  44.426  30.224  14.779
16081W        W88396  27.091  33.953   4.125
16082W        W88397  10.261  25.958  10.757
16083W        W88398  33.385  22.528  11.219
16084W        W88399  30.826  18.041   0.666
16085W        W88400  44.832  29.127   1.728
16086W        W88401   0.488  43.868  11.259
16087W        W88402   5.739  17.038  13.939
16088W        W88403  12.108   6.136   1.449
16089W        W88404  23.086  22.785   0.920
16090W        W88405  23.021   3.826   1.379
16091W        W88406   8.233  39.945  11.526
16092W        W88407  11.749  33.711  13.286
16093W        W88408  38.343   2.735  12.912
16094W        W88409  20.573  37.434   0.909
16095W        W88410  40.322  11.934   3.267
16096W        W88411  31.843  10.684  12.742
16097W        W88412  12.157  39.065  14.514
16098W        W88413  40.830  44.344  10.845
16099W        W88414  31.459  28.174   4.557
16100W        W88415  27.054   8.324   4.080
16101W        W88416  37.539  43.571  10.639
16102W        W88417   2.510  30.122   3.746
16103W        W88418   9.211  12.913  12.207
16104W        W88419  38.935  26.067  13.154
16105W        W88420  39.794  19.233  13.156
16106W        W88421  24.101  32.060   3.680
16107W        W88422   2.318  34.582  10.560
16108W        W88423   0.555  32.138  13.845
16109W        W88424  44.487  23.266   4.556
16110W        W88425  40.535  42.519  12.878
16111W        W88426  26.681  40.716   4.901
16112W        W88427  13.250  41.741   0.397
16113W        W88428  25.097  30.874  12.426
16114W        W88429  41.812   9.321  13.944
16115W        W88430   1.915   2.020   1.490
16116W        W88431  37.030  16.806  14.282
16117W        W88432  17.821  40.510  14.445
16118W        W88433  30.677  30.573  10.901
16119W        W88434  15.109  38.880   4.169
16120W        W88435   0.809  25.033   0.906
16121W        W88436   5.295  32.392  10.348
16122W        W88437  25.934  17.764  13.580
16123W        W88438  28.564   0.845  13.594
16124W        W88439  39.984  27.952  14.333
16125W        W88440   4.913   7.770  14.533
16126W        W88441   9.039  23.465  14.586
16127W        W88442  42.091  15.277  12.517
16128W        W88443  32.205  13.410   4.090
16129W        W88444  10.758  29.318  14.788
16130W        W88445  15.839  19.735  13.821
16131W        W88446   5.826  26.776   4.665
16132W        W88447  35.441  35.395  11.492
16133W        W88448  32.899  22.986  14.778
16134W        W88449  37.963  18.614  11.905
16135W        W88450  41.000  39.016   9.980
16136W        W88451   2.451  28.457  14.488
16137W        W88452  42.386  40.896   3.936
16138W        W88453  23.936   8.637   2.749
16139W        W88454  13.787  16.734  12.989
16140W        W88455  32.363  34.089  12.924
16141W        W88456   8.248  15.522   5.183
16142W        W88457  30.981  20.522  12.926
16143W        W88458  24.104  28.958   0.858
16144W        W88459  19.469  32.134   2.669
16145W        W88460  31.729  40.955   2.769
16146W        W88461   1.515  32.994   2.888
16147W        W88462  17.000   7.775  13.030
16148W        W88463  38.883  24.643   4.311
16149W        W88464  18.780  15.341   1.781
16150W        W88465   9.482  25.111  14.818
16151W        W88466   1.890  17.328  12.543
16152W        W88467  18.147  10.219   0.385
16153W        W88468  15.621  31.882  10.362
16154W        W88469  18.452  30.398  10.227
16155W        W88470  23.119   8.367  11.411
16156W        W88471  23.395  36.919   1.166
16157W        W88472  21.201   8.269   0.440
16158W        W88473  37.798  13.418   3.240
16159W        W88474  43.586  19.125   0.913
16160W        W88475  31.455  18.353  14.903
16161W        W88476  35.038  13.142  10.943
16162W        W88477  36.667  19.110  14.927
16163W        W88478  26.243  31.858  14.881
16164W        W88479  40.949  28.848  13.371
16165W        W88480   7.755  12.993  12.307
16166W        W88481  34.329  41.641  12.924
16167W        W88482  14.466  25.184  11.608
16168W        W88483   0.230  18.121  10.842
16169W        W88484  38.580  28.684  10.917
16170W        W88485   1.748  35.058  11.156
16171W        W88486  15.133   4.979  12.962
16172W        W88487  40.912  15.276  13.387
16173W        W88488  44.498  18.998  11.820
16174W        W88489   5.001  20.152  10.610
16175W        W88490  23.624  15.206   0.663
16176W        W88491   7.349  14.534   3.693
16177W        W88492  42.487   0.326  14.399
16178W        W88493  10.425  32.551   1.358
16179W        W88494  18.819  41.533  10.312
16180W        W88495  27.430   5.256   3.826
16181W        W88496  10.813  42.853   5.107
16182W        W88497  32.675  26.495   4.869
16183W        W88498   6.428  17.739  11.437
16184W        W88499  14.526  16.230   4.097
16185W        W88500  28.954  24.948  11.257
16186W        W88501   3.377  37.845   0.353
16187W        W88502  15.366  20.564  10.387
16188W        W88503   5.204  11.444  13.377
16189W        W88504   7.924  18.576  13.546
16190W        W88505   8.735   0.224   4.189
16191W        W88506  31.042  19.218  13.951
16192W        W88507  12.823  20.051   0.886
16193W        W88508  30.388  24.722   3.699
16194W        W88509  13.825  38.531  10.361
16195W        W88510   7.236   9.712  13.384
16196W        W88511  38.975  23.306  13.508
16197W        W88512   0.849  23.404   4.755
16198W        W88513  19.587  44.247   4.225
16199W        W88514  30.018   5.110   0.879
16200W        W88515  29.979  12.597  14.516
16201W        W88516   1.186  30.796   3.865
16202W        W88517  40.847  42.511  14.269
16203W        W88518   7.721   7.468  11.993
16204W        W88519  11.432   5.196   1.301
16205W        W88520  40.474   7.870   2.167
16206W        W88521  36.348  18.584  11.508
16207W        W88522  42.996  39.542   4.398
16208W        W88523   0.569  42.977  14.845
16209W        W88524  31.522  44.234  10.671
16210W        W88525  11.837  27.014  11.128
16211W        W88526   0.831  32.034   0.253
16212W        W88527  13.323  39.108   5.060
16213W        W88528  26.731  18.450  12.626
16214W        W88529  25.812  43.753  14.914
16215W        W88530  15.343  21.888   2.340
16216W        W88531  40.975  33.726   3.818
16217W        W88532  22.120  27.102  14.809
16218W        W88533  33.457  34.910   1.231
16219W        W88534  40.709  15.277  11.219
16220W        W88535  17.687  32.889   0.257
16221W        W88536  30.148  11.238   4.472
16222W        W88537  31.496  17.725   0.688
16223W        W88538  13.310  24.528   1.959
16224W        W88539  38.371   2.689   1.211
16225W        W88540  28.896  44.854  13.075
16226W        W88541  14.335  29.173  11.179
16227W        W88542  17.046   8.307  11.510
16228W        W88543   6.715   9.643   2.719
16229W        W88544  39.105   3.279  13.753
16230W        W88545  17.154  22.761   2.186
16231W        W88546  40.343  26.443  14.277
16232W        W88547  15.118  30.818   3.862
16233W        W88548  12.911  35.097   3.380
16234W        W88549  24.238  44.347   0.442
16235W        W88550  41.811  37.263  14.338
16236W        W88551  44.668  26.392  14.894
16237W        W88552   1.360   8.558  10.591
16238W        W88553  11.884  36.059   4.634
16239W        W88554  41.559  31.983   1.826
16240W        W88555  37.426  41.983   1.988
16241W        W88556  13.715  15.149  10.853
16242W        W88557   4.780  39.624  13.084
16243W        W88558  24.685  34.645   4.990
16244W        W88559  41.179  37.935  12.280
16245W        W88560  17.122  36.653   2.926
16246W        W88561  43.814  19.096  10.694
16247W        W88562   9.665  17.647  14.459
16248W        W88563  30.860  12.187  11.281
16249W        W88564  30.852  44.812  12.339
16250W        W88565  24.178   7.535   0.404
16251W        W88566  18.028  42.390   0.654
16252W        W88567  16.283  18.551   1.009
16253W        W88568  16.048  12.912   3.736
16254W        W88569   0.043  38.408   4.105
16255W        W88570  25.166  14.318  14.782
16256W        W88571  35.061  24.923   2.177
16257W        W88572  36.410   3.130  10.261
16258W        W88573  37.854  18.216   0.979
16259W        W88574  28.454  18.137   4.912
16260W        W88575  32.243  37.993  10.831
16261W        W88576  35.652  34.852  13.484
16262W        W88577  22.531  29.651  11.199
16263W        W88578  21.944  35.878  12.432
16264W        W88579  13.272  26.525   2.893
16265W        W88580  34.542  16.843  13.493
16266W        W88581  13.096  44.437   0.328
16267W        W88582  39.367  42.999  13.339
16268W        W88583  34.905   1.526   1.715
16269W        W88584  15.829   4.437  14.804
16270W        W88585   3.869   4.377  10.730
16271W        W88586  38.436  10.856   4.711
16272W        W88587  14.805  43.907   2.054
16273W        W88588  31.015  43.034  14.381
16274W        W88589  36.072  17.002   0.955
16275W        W88590  26.541   0.778  14.512
16276W        W88591  11.864  40.879  13.455
16277W        W88592  26.058  42.720   5.003
16278W        W88593  26.587   4.532  14.487
16279W        W88594   3.917  11.801  14.425
16280W        W88595  13.346   4.432   2.640
16281W        W88596   6.457  11.879  12.356
16282W        W88597   1.392  25.932  12.033
16283W        W88598  30.065   5.218   1.719
16284W        W88599  31.682  23.559  14.235
16285W        W88600   9.750  33.403  12.479
16286W        W88601  20.485  34.184  14.501
16287W        W88602   9.899  40.009  13.530
16288W        W88603  33.373   3.796  10.655
16289W        W88604  28.904  26.104   1.477
16290W        W88605   5.011  16.711   0.955
16291W        W88606   3.166  15.165   4.430
16292W        W88607   6.215   4.960   2.865
16293W        W88608  43.721  35.568   2.174
16294W        W88609  29.376  41.486  11.558
16295W        W88610  13.390  25.905   4.305
16296W        W88611   2.273   1.869  14.982
16297W        W88612  36.946  30.998   3.186
16298W        W88613  21.602  44.215   3.823
16299W        W88614   2.391   5.112   1.331
16300W        W88615  35.824  37.718   1.772
16301W        W88616   4.693   4.435   4.569
16302W        W88617   6.648  44.428  14.320
16303W        W88618  43.175  12.292  11.561
16304W        W88619  19.780  33.031   1.171
16305W        W88620  19.326  22.664  11.586
16306W        W88621  30.891  38.644   4.186
16307W        W88622   3.302  36.906   1.566
16308W        W88623  10.043  42.578  11.579
16309W        W88624  38.575  30.513   1.847
16310W        W88625  44.829  16.204   4.369
16311W        W88626   5.919  39.474  11.540
16312W        W88627  37.337  33.442   1.878
16313W        W88628   9.773   4.178  10.719
16314W        W88629  11.857   2.353  11.686
16315W        W88630  31.321  14.526   3.845
16316W        W88631   9.694  35.259   0.458
16317W        W88632  11.588  42.904  10.257
16318W        W88633  23.547  26.971   4.852
16319W        W88634  25.453  33.907   0.498
16320W        W88635  14.185   1.969  12.304
16321W        W88636  17.794  22.652  10.999
16322W        W88637   3.905  24.166   1.935
16323W        W88638  10.710  32.582   2.368
16324W        W88639  32.193  16.634  10.622
16325W        W88640  30.137  25.705   4.501
16326W        W88641  29.461   2.446   3.613
16327W        W88642  26.076   6.899  10.979
16328W        W88643  23.108  18.683  11.439
16329W        W88644  27.452  36.009   2.804
16330W        W88645   6.438  35.493   2.407
16331W        W88646  33.141  33.096   3.287
16332W        W88647  16.265  32.657  14.725
16333W        W88648  14.191  21.235  10.676
16334W        W88649  36.819   7.447  12.039
16335W        W88650  43.561  17.215  12.957
16336W        W88651  40.896  10.866  11.449
16337W        W88652  34.564  27.666  11.450
16338W        W88653   6.756  38.519  11.199
16339W        W88654   7.812  39.488   1.498
16340W        W88655  39.929  28.993   3.768
16341W        W88656  22.201  44.113  14.499
16342W        W88657  17.089  30.266   3.169
16343W        W88658  40.234  34.791  12.573
16344W        W88659  23.061  25.271  14.766
16345W        W88660  12.272  17.602  14.449
16346W        W88661  17.363  27.206  13.373
16347W        W88662  37.764  14.608  14.345
16348W        W88663  36.261  12.391   1.128
16349W        W88664  24.998  32.359   2.244
16350W        W88665  44.294  21.559   0.768
16351W        W88666  38.928  10.493  13.574
16352W        W88667  25.956  38.767   2.789
16353W        W88668  27.504  20.139  13.400
16354W        W88669   5.979  20.110  11.603
16355W        W88670  41.904   1.821  10.935
16356W        W88671  26.649  44.223   0.270
16357W        W88672  26.900   0.818  12.649
16358W        W88673  19.000  43.935  13.402
16359W        W88674  17.738  35.062  13.047
16360W        W88675  23.086  19.463  11.052
16361W        W88676  36.883  24.000  12.346
16362W        W88677   7.369  44.509   1.397
16363W        W88678   0.718  33.913  13.510
16364W        W88679   8.367  20.777  14.500
16365W        W88680   0.558  32.761   0.697
16366W        W88681   7.141  21.641   2.667
16367W        W88682  13.785  22.273   3.657
16368W        W88683  33.577  19.141  14.503
16369W        W88684  32.748   5.980   4.594
16370W        W88685  41.173  11.223   1.265
16371W        W88686  24.707  17.371  13.976
16372W        W88687  18.289  24.492   1.474
16373W        W88688  29.750  34.555  12.044
16374W        W88689   4.938  43.956   3.049
16375W        W88690  30.178  44.587  14.385
16376W        W88691  38.640  16.547  11.074
16377W        W88692  18.658  29.071  12.027
16378W        W88693  40.626  26.687   0.748
16379W        W88694  25.945   9.947   3.797
16380W        W88695  28.533   2.059   0.365
16381W        W88696  12.748   9.122  11.990
16382W        W88697  16.811  12.128   3.099
16383W        W88698   7.890   9.226  12.943
16384W        W88699  26.199   6.661   3.771
16385W        W88700  15.266  16.434   4.922
16386W        W88701  12.129  39.422   4.664
16387W        W88702  11.435   1.295  12.125
16388W        W88703  22.222   7.619   3.253
16389W        W88704  12.384  27.927   3.179
16390W        W88705  21.190   0.294   3.658
16391W        W88706  32.121  23.233  11.638
16392W        W88707  23.663  26.782   2.659
16393W        W88708  42.540  10.932  13.053
16394W        W88709   6.936   1.418  13.934
16395W        W88710  12.935   8.179   4.278
16396W        W88711  30.679  29.098   1.028
16397W        W88712  38.583   1.039  14.392
16398W        W88713   0.843  44.969   0.698
16399W        W88714  41.365  14.417   3.821
16400W        W88715  10.642  14.084   3.777
16401W        W88716  22.593  32.940   2.288
16402W        W88717   4.276  37.500   2.917
16403W        W88718   1.910  31.232  13.083
16404W        W88719  44.208  40.387  13.949
16405W        W88720   7.905  15.544   1.837
16406W        W88721   7.283  38.334   0.354
16407W        W88722  29.522  24.049   0.425
16408W        W88723  40.868  42.079   1.158
16409W        W88724  19.982  30.034  13.437
16410W        W88725  43.017  15.436  12.378
16411W        W88726   9.964   5.456  14.842
16412W        W88727  15.280  18.088   3.670
16413W        W88728  16.164   8.163   3.177
16414W        W88729   6.264  43.338   4.512
16415W        W88730  41.326  10.858   3.165
16416W        W88731  22.478  27.865  11.449
16417W        W88732  35.431  19.486  12.578
16418W        W88733  33.378   1.440  13.780
16419W        W88734  40.819  32.453   0.705
16420W        W88735  36.655   3.912   4.530
16421W        W88736  42.537  12.771   2.237
16422W        W88737   9.267   7.896  11.969
16423W        W88738  33.691  19.660   0.286
16424W        W88739  44.472   0.842   1.651
16425W        W88740  26.069  16.119   2.270
16426W        W88741  25.692  22.833  10.972
16427W        W88742  13.126  18.455   5.465
16428W        W88743  25.979  17.937   2.920
16429W        W88744   0.822  15.603   4.478
16430W        W88745  39.085   6.999   5.038
16431W        W88746  27.721  32.362   3.266
16432W        W88747  16.287  32.474   0.244
16433W        W88748  32.921   0.925  12.874
16434W        W88749  36.064   9.781  10.551
16435W        W88750   4.648  17.592   4.705
16436W        W88751  35.011  18.975  14.293
16437W        W88752   7.208  10.404  12.341
16438W        W88753  33.896  26.872  13.520
16439W        W88754   0.835   5.344  13.381
16440W        W88755   1.988  11.719  14.250
16441W        W88756  21.264   3.323   2.782
16442W        W88757  42.500  10.169   2.144
16443W        W88758  44.014   9.824  13.462
16444W        W88759  29.568  28.124   1.371
16445W        W88760  40.843  33.062   4.207
16446W        W88761  36.690  33.991   3.296
16447W        W88762  44.020  16.882  12.073
16448W        W88763   3.921   0.339  10.933
16449W        W88764  44.492   4.324   3.170
16450W        W88765  18.661  30.490   3.676
16451W        W88766  16.361   5.135  12.702
16452W        W88767  14.117   5.035  12.015
16453W        W88768  31.090  11.736  11.298
16454W        W88769   2.971  27.892  11.084
16455W        W88770  19.775  43.796   3.189
16456W        W88771  28.459   7.307   2.659
16457W        W88772   4.259  16.366  12.770
16458W        W88773  20.737  12.206  14.509
16459W        W88774  10.346  27.998   2.732
16460W        W88775  22.672   3.921  12.510
16461W        W88776  18.742  25.039   3.173
16462W        W88777   2.508  40.258  14.049
16463W        W88778   0.594  38.521   1.749
16464W        W88779  32.123  18.981  11.585
16465W        W88780  40.261  14.537  14.862
16466W        W88781  41.398  11.238  12.441
16467W        W88782  28.631  39.334  11.083
16468W        W88783   7.011  33.103   1.284
16469W        W88784   0.242  20.061  11.100
16470W        W88785  23.510  22.191  10.766
16471W        W88786   6.633  21.685   2.879
16472W        W88787  43.441  24.646   3.618
16473W        W88788  18.356  28.635  11.863
16474W        W88789  17.328  36.775  13.429
16475W        W88790  18.912  18.537   3.322
16476W        W88791  16.167  39.825   3.197
16477W        W88792   2.038  42.598   4.552
16478W        W88793  14.197  35.783  11.600
16479W        W88794  21.208   2.031  12.946
16480W        W88795  10.308  14.698  14.799
16481W        W88796  19.693  27.613  14.225
16482W        W88797  21.176   4.716   0.953
16483W        W88798  19.652   1.487  10.458
16484W        W88799  23.535  29.067   2.281
16485W        W88800  42.848  35.652   3.312
16486W        W88801  19.187  27.145  12.962
16487W        W88802  40.360   3.246  14.739
16488W        W88803  25.141  29.711  11.186
16489W        W88804  19.939  32.720  13.730
16490W        W88805  21.427   0.689  10.593
16491W        W88806  33.086   4.775  12.478
16492W        W88807  15.259  29.639  11.162
16493W        W88808   9.820  23.729  14.811
16494W        W88809  23.119  39.557  14.513
16495W        W88810   7.158  31.116  12.469
16496W        W88811  18.609   5.290   0.694
16497W        W88812  13.479   1.851   4.719
16498W        W88813   7.019  43.401   0.506
16499W        W88814  14.337  16.638   0.920
16500W        W88815  39.129  25.304   5.069
16501W        W88816   4.915  14.888   4.157
16502W        W88817  41.402  26.630   3.456
16503W        W88818  14.291   0.843  13.022
16504W        W88819   6.709  34.336   2.675
16505W        W88820  44.826   0.715  11.019
16506W        W88821  27.437   8.592   1.813
16507W        W88822  24.759  44.023  13.475
16508W        W88823  19.832   0.955  13.382
16509W        W88824  27.652  41.153  10.587
16510W        W88825  23.603   7.581  11.106
16511W        W88826  33.693   7.850  11.094
16512W        W88827  12.313  24.988   4.553
16513W        W88828  22.411   1.401   3.599
16514W        W88829   7.179   7.443  13.030
16515W        W88830  33.857  34.901   0.694
16516W        W88831   9.674  43.063   3.464
16517W        W88832   8.275  41.666   4.191
16518W        W88833  23.230  25.031  12.966
16519W        W88834  20.835  40.911  14.751
16520W        W88835  42.310  12.286  12.010
16521W        W88836   7.304  31.842  13.002
16522W        W88837  12.752  10.835   0.001
16523W        W88838  38.616  10.382   1.961
16524W        W88839  35.123  25.643   0.422
16525W        W88840  43.270   7.776   0.429
16526W        W88841   9.796  11.265   1.860
16527W        W88842  34.016  34.034   2.294
16528W        W88843  33.148  30.504  10.656
16529W        W88844   8.187  23.298   3.814
16530W        W88845   8.961  39.505   2.273
16531W        W88846  31.146  22.788   3.595
16532W        W88847  32.847  27.546  12.957
16533W        W88848  35.315  15.683  10.716
16534W        W88849  11.023  44.408   1.456
16535W        W88850  37.429  27.957   5.111
16536W        W88851  23.638  16.134  12.120
16537W        W88852  34.573  36.572   0.537
16538W        W88853   2.902  42.524  11.135
16539W        W88854   6.742  15.067   4.132
16540W        W88855   7.930  24.530  12.090
16541W        W88856   9.814  28.405  11.954
16542W        W88857  13.597   3.745  13.805
16543W        W88858  19.267  36.394  11.418
16544W        W88859  30.623  43.402  11.411
16545W        W88860  14.201  34.115  12.180
16546W        W88861   9.755  39.281  11.624
16547W        W88862  43.802  13.860   1.821
16548W        W88863  32.111  30.097  11.089
16549W        W88864  27.068  30.531   4.408
16550W        W88865  17.553  28.342   0.052
16551W        W88866  16.533  18.785  12.540
16552W        W88867  30.516  36.400  11.954
16553W        W88868  35.052  24.670   3.328
16554W        W88869   5.223  18.792   3.301
16555W        W88870  12.397  42.167   3.136
16556W        W88871  27.082  18.585  14.765
16557W        W88872   6.421   8.412  14.912
16558W        W88873   6.938  20.172   1.307
16559W        W88874  44.071  31.679  12.083
16560W        W88875  28.212  35.769  11.020
16561W        W88876  39.994  14.121  10.673
16562W        W88877  26.984  29.998   4.554
16563W        W88878  11.903  38.485  11.831
16564W        W88879  24.685   9.407  13.521
16565W        W88880  26.692  24.092   2.662
16566W        W88881  40.258  35.380   4.252
16567W        W88882  14.622   3.434   1.391
16568W        W88883  21.657  23.656   4.112
16569W        W88884   7.475  12.118  13.535
16570W        W88885  21.540   1.052   0.499
16571W        W88886  36.497  41.860  14.992
16572W        W88887   5.735  20.810  14.978
16573W        W88888  28.545  11.263   0.258
16574W        W88889  27.504  36.099   2.294
16575W        W88890  38.958  29.011  14.368
16576W        W88891  28.170   0.925  10.735
16577W        W88892  31.492  18.452   4.249
16578W        W88893  22.811   4.023   3.601
16579W        W88894  35.363   7.011   1.720
16580W        W88895  38.858  43.326  14.393
16581W        W88896  42.365  16.617  13.493
16582W        W88897   6.539  36.126   0.446
16583W        W88898  23.925  14.342  13.433
16584W        W88899   2.829   3.961   3.334
16585W        W88900  31.364   9.874   0.308
16586W        W88901  42.013  38.541   0.441
16587W        W88902  16.545  35.110  10.769
16588W        W88903  39.346  28.255  11.993
16589W        W88904  15.673  10.835   4.609
16590W        W88905  41.534   0.809   3.392
16591W        W88906  33.061  34.459  14.697
16592W        W88907  25.790  24.549   0.798
16593W        W88908  25.643  43.006  10.841
16594W        W88909  11.640  20.624  13.544
16595W        W88910  38.988  25.990  11.473
16596W        W88911  26.450  42.415  12.440
16597W        W88912  29.765  41.872  12.915
16598W        W88913  11.059  16.591  12.999
16599W        W88914   9.441   0.825   2.828
16600W        W88915   7.395   0.677   4.137
16601W        W88916  44.698  15.535   3.789
16602W        W88917   6.442  22.247  13.001
16603W        W88918   6.162  30.721  14.885
16604W        W88919  31.368  30.984  12.937
16605W        W88920  14.720  23.106  14.886
16606W        W88921   2.324  33.605   4.652
16607W        W88922  20.092  33.005  11.626
16608W        W88923  12.133  32.464  12.363
16609W        W88924   0.850  33.862   2.686
16610W        W88925  44.801   1.705   4.168
16611W        W88926  35.897   2.470  10.373
16612W        W88927  36.534  14.743  12.826
16613W        W88928  13.930  39.443   2.191
16614W        W88929  15.145  31.068  11.199
16615W        W88930  42.247  17.667   4.433
16616W        W88931  37.529  18.777  12.136
16617W        W88932  21.563  23.312  14.976
16618W        W88933   1.081  15.073   1.580
16619W        W88934  14.806  30.672  12.050
16620W        W88935  42.059   7.294  12.379
16621W        W88936   1.004  35.868  10.225
16622W        W88937  40.842   0.284  10.791
16623W        W88938  37.137  37.100  11.915
16624W        W88939  33.561  32.142   2.456
16625W        W88940  30.254  36.933   2.402
16626W        W88941  25.885  35.981  11.270
16627W        W88942  21.579  28.948   0.340
16628W        W88943  22.654  44.384   2.472
16629W        W88944   8.882   8.237   2.664
16630W        W88945  31.812  22.974   2.825
16631W        W88946  36.814  24.029  14.416
16632W        W88947  20.135   2.199  12.703
16633W        W88948  39.928   8.839   4.646
16634W        W88949  21.207  18.994   2.029
16635W        W88950  19.202  13.386  13.587
16636W        W88951   6.828  14.060   4.253
16637W        W88952  27.996  21.829   4.288
16638W        W88953  32.297  12.653  11.538
16639W        W88954  15.241  24.055   4.926
16640W        W88955   2.250  15.725   2.187
16641W        W88956  42.285  37.170   2.161
16642W        W88957  16.653   6.436  14.239
16643W        W88958  35.483  30.601   1.874
16644W        W88959  11.242  36.014   1.341
16645W        W88960  28.618  26.402  11.985
16646W        W88961   1.029  15.770   9.948
16647W        W88962  31.654   3.364   2.676
16648W        W88963  20.956  35.447  12.864
16649W        W88964  32.156  31.983  14.357
16650W        W88965  22.316  43.218   0.384
16651W        W88966  13.854  27.537   2.293
16652W        W88967  40.895  16.843   0.473
16653W        W88968   8.877  37.188   2.823
16654W        W88969   5.486  23.121   3.413
16655W        W88970  37.352  12.156  13.093
16656W        W88971  17.095  10.938  13.396
16657W        W88972  33.893  17.137  11.860
16658W        W88973  21.628  38.292   4.837
16659W        W88974   8.557  41.274  11.477
16660W        W88975  17.822  17.552   1.382
16661W        W88976  30.655  31.947   2.257
16662W        W88977  29.363  27.640   2.813
16663W        W88978  34.261  20.547   3.750
16664W        W88979  22.849   1.570   2.217
16665W        W88980  33.532  24.067  10.086
16666W        W88981   5.177  10.708  13.796
16667W        W88982   9.532  20.594   4.568
16668W        W88983  15.523  40.529  14.851
16669W        W88984  24.469  39.863   2.358
16670W        W88985  26.222  10.550   4.577
16671W        W88986  34.220   7.434   2.577
16672W        W88987  32.838   6.747   3.169
16673W        W88988  39.945   8.593   0.160
16674W        W88989  30.342  40.447   5.045
16675W        W88990  27.019   6.710   0.960
16676W        W88991  21.767   0.415  12.845
16677W        W88992  30.567  42.789  14.429
16678W        W88993  20.106  13.763  12.534
16679W        W88994  25.583  30.718  12.649
16680W        W88995  14.808   8.337   2.167
16681W        W88996  20.859  10.147  10.795
16682W        W88997  37.981   5.223  12.058
16683W        W88998  23.973  27.839  13.869
16684W        W88999   9.208  41.333  13.533
16685W        W89000  27.216  14.739   3.981
16686W        W89001  36.036  22.618   3.127
16687W        W89002  12.133   0.482  13.857
16688W        W89003  25.694  44.744  14.739
16689W        W89004   7.180  15.964   1.874
16690W        W89005   7.348   1.738  13.880
16691W        W89006  23.817  12.784  11.095
16692W        W89007  37.584  10.563   4.225
16693W        W89008  38.013  40.969  10.730
16694W        W89009  26.943  20.158   0.420
16695W        W89010  32.344  27.067   2.226
16696W        W89011  18.718  24.725   1.281
16697W        W89012   0.074  43.456   3.588
16698W        W89013  15.128  27.816   4.067
16699W        W89014   0.278  23.700   0.899
16700W        W89015  42.548   4.250  14.092
16701W        W89016   6.736  32.453   3.655
16702W        W89017  37.929   6.006  14.813
16703W        W89018  15.213  34.556   4.552
16704W        W89019  43.299  31.751  12.401
16705W        W89020   3.033  32.029   2.299
16706W        W89021  20.766   1.750  12.947
16707W        W89022  14.328  40.609  11.485
16708W        W89023  37.690  19.535   3.265
16709W        W89024  20.815  32.906  14.931
16710W        W89025  36.465  28.613   3.413
16711W        W89026  21.740  26.730  13.569
16712W        W89027  38.047  39.317  11.105
16713W        W89028  38.839  43.374   4.247
16714W        W89029  24.005   9.404   4.165
16715W        W89030  19.513  13.473   0.233
16716W        W89031  13.102   3.223  14.435
16717W        W89032   4.492  34.076   3.627
16718W        W89033  12.576  43.808  10.573
16719W        W89034   2.857  13.814  13.323
16720W        W89035  27.025  38.836   4.287
16721W        W89036  25.552  14.779  12.110
16722W        W89037  10.112   5.612   2.396
16723W        W89038  33.397  11.301  14.941
16724W        W89039  36.009  21.110   4.334
16725W        W89040  29.461   9.766   3.038
16726W        W89041  17.791   4.945   4.290
16727W        W89042   2.932  41.391   3.187
16728W        W89043   4.639  42.549  14.865
16729W        W89044  12.990  31.922   2.122
16730W        W89045  17.648  21.969  11.587
16731W        W89046  35.014  13.257   0.291
16732W        W89047  10.158  10.052  14.798
16733W        W89048  32.874  22.924  12.258
16734W        W89049   8.264  35.164   4.263
16735W        W89050  12.144   7.796  10.581
16736W        W89051   1.014  36.007  13.786
16737W        W89052  14.914  30.718  14.496
16738W        W89053  36.763  13.760  10.719
16739W        W89054  43.813  16.103  12.918
16740W        W89055   1.033   0.675  14.836
16741W        W89056  38.436  33.556  13.022
16742W        W89057  23.730   6.429   0.463
16743W        W89058   2.910   9.913  13.795
16744W        W89059  44.981   7.850   0.696
16745W        W89060   3.019   9.791   3.033
16746W        W89061  22.082  16.971   3.805
16747W        W89062   1.771   2.955  12.962
16748W        W89063  41.562  12.866   1.700
16749W        W89064  30.083  41.475  12.733
16750W        W89065  10.388  36.423   2.159
16751W        W89066   3.734  34.678   0.884
16752W        W89067  17.149  43.022  12.777
16753W        W89068  12.588  30.578  11.475
16754W        W89069  14.851   0.959  11.519
16755W        W89070  12.190  10.133  13.026
16756W        W89071  42.088   6.354  12.451
16757W        W89072  35.868  41.427   2.227
16758W        W89073   8.907  28.931  13.933
16759W        W89074  42.695   4.920   3.615
16760W        W89075  27.707  37.563  12.070
16761W        W89076  19.365  38.898  11.039
16762W        W89077  44.895  11.288   2.896
16763W        W89078   0.875  37.844   3.771
16764W        W89079  25.715  15.741   0.224
16765W        W89080   7.932   0.015  13.092
16766W        W89081  38.334  33.543   1.842
16767W        W89082  27.072  26.652  14.929
16768W        W89083  43.094   0.452   3.206
16769W        W89084  34.684  44.420   3.220
16770W        W89085  34.603  40.255  13.289
16771W        W89086  31.624  26.759   2.925
16772W        W89087  33.481  17.369   4.383
16773W        W89088  17.808  40.915  13.810
16774W        W89089  40.706  28.967   4.102
16775W        W89090   4.960  19.012  14.402
16776W        W89091  12.118  29.998   4.771
16777W        W89092  26.478  16.659  12.391
16778W        W89093  28.624  38.846   4.949
16779W        W89094   9.928  27.587  13.384
16780W        W89095  17.753  42.364   0.220
16781W        W89096   1.541   1.807  12.414
16782W        W89097  17.323  44.369  12.512
16783W        W89098  43.746  26.083  14.560
16784W        W89099  25.218   8.467   2.335
16785W        W89100   0.532  38.469  14.784
16786W        W89101  43.929   5.664  10.978
16787W        W89102  39.247   4.668  12.699
16788W        W89103  17.582  18.267   3.306
16789W        W89104  22.523  14.211  11.768
16790W        W89105   3.890  39.830  14.063
16791W        W89106  40.948  42.553  12.465
16792W        W89107  37.875  27.640  12.343
16793W        W89108  26.706  26.625   1.232
16794W        W89109  38.775  32.552  12.376
16795W        W89110   1.858  26.233  11.997
16796W        W89111  23.019  36.391   4.897
16797W        W89112  15.434   7.726   0.757
16798W        W89113  28.077   2.407   2.877
16799W        W89114  25.574  36.017  13.783
16800W        W89115  14.588  14.221   1.311
16801W        W89116  42.522   4.836   2.252
16802W        W89117  42.444  20.176   4.095
16803W        W89118   1.022  32.856   0.482
16804W        W89119   6.305  27.662   3.649
16805W        W89120  19.034   6.802   2.217
16806W        W89121  42.391  13.574  10.682
16807W        W89122  31.235  30.146   2.197
16808W        W89123   9.207  12.194   3.197
16809W        W89124  35.026  10.092   3.081
16810W        W89125  40.890  29.204   3.676
16811W        W89126   9.138  25.377   1.949
16812W        W89127   1.069  22.484  11.574
16813W        W89128  31.705  12.610   0.742
16814W        W89129  12.773  42.233   3.529
16815W        W89130   8.372  31.149  14.773
16816W        W89131  20.167  17.801   1.727
16817W        W89132  18.811   5.708   2.731
16818W        W89133  34.197  32.095  12.055
16819W        W89134  22.565  41.543  14.976
16820W        W89135  23.498  15.160   2.857
16821W        W89136  44.078  14.868  13.330
16822W        W89137  19.060  18.538   4.588
16823W        W89138   5.901  41.825   4.488
16824W        W89139   6.239  44.434  10.157
16825W        W89140  33.554  11.761  13.862
16826W        W89141   5.855  42.521  14.345
16827W        W89142  20.739  40.970   1.790
16828W        W89143   9.857  28.005  10.440
16829W        W89144   4.772  20.269  13.814
16830W        W89145   5.459  21.187   3.694
16831W        W89146  27.023   5.920  13.718
16832W        W89147  25.789  44.712  13.472
16833W        W89148  17.152  32.170  13.786
16834W        W89149  34.511  28.983   4.438
16835W        W89150   1.932  13.567  11.711
16836W        W89151  22.595  41.327  14.494
16837W        W89152   7.664  16.729   2.187
16838W        W89153  25.135  25.711  12.360
16839W        W89154   1.820   9.473  10.634
16840W        W89155  32.407  22.020  14.060
16841W        W89156   2.041   7.362  12.164
16842W        W89157  32.315   6.239   2.590
16843W        W89158  29.222  44.325   4.026
16844W        W89159  24.166  43.310  13.988
16845W        W89160   6.784  32.586  12.971
16846W        W89161  19.646   1.886  14.778
16847W        W89162  19.825  17.170  13.447
16848W        W89163  10.484  23.017  14.875
16849W        W89164   6.479   0.840  12.176
16850W        W89165  20.119  22.334   0.356
16851W        W89166  15.634  40.956   3.174
16852W        W89167  15.397  10.840   1.848
16853W        W89168   6.331  41.824  14.315
16854W        W89169  44.805  17.801   1.792
16855W        W89170  43.007   5.458  14.772
16856W        W89171  25.081  26.275   2.870
16857W        W89172   6.468  25.090  11.188
16858W        W89173   5.445   1.549   3.676
16859W        W89174   9.849  28.509   1.294
16860W        W89175  36.909  17.051  10.622
16861W        W89176   7.876  41.957   3.228
16862W        W89177  14.315  26.998   1.731
16863W        W89178  19.048  17.124   4.661
16864W        W89179  27.133  14.227   0.934
16865W        W89180   1.370   9.699   2.380
16866W        W89181  22.690  33.140   4.312
16867W        W89182   2.522  19.023  14.107
16868W        W89183  34.516  30.080   2.700
16869W        W89184  44.272   4.231  14.800
16870W        W89185   8.124   1.901   3.600
16871W        W89186  21.481   4.772  14.547
16872W        W89187  38.791  37.091  14.456
16873W        W89188   4.399   1.940   3.090
16874W        W89189  21.508  22.434   1.659
16875W        W89190   7.259  37.818   0.364
16876W        W89191  34.272  25.535  12.576
16877W        W89192  42.961   7.239  13.919
16878W        W89193  35.698  20.521  11.201
16879W        W89194  28.531   8.962   4.211
16880W        W89195  36.916   2.680   0.026
16881W        W89196  17.918  21.491  14.418
16882W        W89197  28.441  31.446   9.639
16883W        W89198  17.494  22.324  13.010
16884W        W89199   9.109  13.684   4.245
16885W        W89200  22.724  43.593   2.628
16886W        W89201   2.688  37.071   0.010
16887W        W89202  13.547  42.756   1.610
16888W        W89203  25.528  43.056  10.347
16889W        W89204  34.891  18.756  14.906
16890W        W89205   7.369  44.383  13.486
16891W        W89206  34.846  24.076  12.408
16892W        W89207   2.551  10.771  13.771
16893W        W89208  20.131  25.731   0.088
16894W        W89209  29.655   3.430  11.787
16895W        W89210  34.817   7.930   3.597
16896W        W89211  41.084  36.301   0.249
16897W        W89212  43.329  10.914   1.798
16898W        W89213  26.647  25.049  14.547
16899W        W89214  28.504   0.757   0.460
16900W        W89215   6.271  22.722   2.722
16901W        W89216  41.978   4.092   4.117
16902W        W89217   4.929  19.662   2.826
16903W        W89218  36.660  23.575  14.995
16904W        W89219  31.991   4.764   5.006
16905W        W89220  13.499   8.517  10.165
16906W        W89221  39.563   4.437   3.266
16907W        W89222  38.593   7.161  11.546
16908W        W89223  42.818   1.762   2.861
16909W        W89224  14.901  30.097  12.333
16910W        W89225  32.426  15.756   1.979
16911W        W89226  15.774  44.965   2.749
16912W        W89227  29.890  13.633   0.305
16913W        W89228  18.814  11.854  13.904
16914W        W89229  40.004  10.725  11.881
16915W        W89230   7.682   3.926   0.024
16916W        W89231   9.945  33.179   4.079
16917W        W89232  37.402   5.631  11.154
16918W        W89233   9.979  26.607  13.583
16919W        W89234  24.508  27.807  11.651
16920W        W89235   4.736  17.634  11.922
16921W        W89236  33.670  20.182   4.098
16922W        W89237  39.289  32.905  12.944
16923W        W89238  23.674  35.838   3.614
16924W        W89239  33.860  42.600   2.486
16925W        W89240   5.728  32.855   4.579
16926W        W89241  34.518   9.153  12.900
16927W        W89242  44.036   5.218   2.988
16928W        W89243  39.761   5.307   3.659
16929W        W89244  36.853  41.584  13.921
16930W        W89245  36.422  23.075  10.702
16931W        W89246  21.981  20.221  10.961
16932W        W89247   7.416   7.859  11.365
16933W        W89248   2.624   2.906  11.955
16934W        W89249  33.402  18.586  13.395
16935W        W89250  19.689  22.206  11.089
16936W        W89251  41.642  26.722   0.793
16937W        W89252   4.899   1.927  10.739
16938W        W89253  36.014  42.004   0.278
16939W        W89254   8.940  30.072   2.566
16940W        W89255  27.051  20.241   4.470
16941W        W89256  27.113  31.421   2.796
16942W        W89257   7.881  25.136   9.975
16943W        W89258  41.933  34.516   0.302
16944W        W89259  26.210  32.440   3.564
16945W        W89260  17.717  11.714   2.224
16946W        W89261  35.413   9.042  11.384
16947W        W89262  37.928  44.873  14.932
16948W        W89263  21.416  21.796   5.530
16949W        W89264  18.168  35.453  10.682
16950W        W89265  41.885  39.512   1.414
16951W        W89266  35.359  40.019   1.264
16952W        W89267  38.915   9.745  14.902
16953W        W89268  41.529   4.518   3.615
16954W        W89269   3.623  18.092  13.911
16955W        W89270  18.728  13.189   1.376
16956W        W89271  23.759  22.495   1.817
16957W        W89272  41.493   7.010  13.965
16958W        W89273  13.778  16.676   4.538
16959W        W89274   2.754  32.046   4.100
16960W        W89275  38.805  33.543   2.761
16961W        W89276  17.639  16.252  14.363
16962W        W89277  39.042  32.873   1.608
16963W        W89278   1.255  42.909   4.659
16964W        W89279  24.972   2.217  10.654
16965W        W89280   8.885  25.083   2.478
16966W        W89281  32.353  12.315  11.156
16967W        W89282  17.128  19.762  14.390
16968W        W89283  43.459  14.741   4.735
16969W        W89284  18.272  10.251  11.584
16970W        W89285  28.179   1.939  10.823
16971W        W89286  22.001   2.428   0.830
16972W        W89287   2.405  42.184   2.707
16973W        W89288  19.699  39.442   4.376
16974W        W89289   4.299  29.175  12.433
16975W        W89290  34.461   1.269   1.866
16976W        W89291  22.096   1.535  11.954
16977W        W89292  24.396  18.204   5.203
16978W        W89293  36.507  30.305  14.700
16979W        W89294   7.208  40.034   0.700
16980W        W89295  41.291  13.881  11.597
16981W        W89296  26.716  22.376   3.908
16982W        W89297  27.171  26.562   2.420
16983W        W89298  31.700  19.219   3.382
16984W        W89299  42.068  21.289  14.782
16985W        W89300  13.148  13.860  13.502
16986W        W89301  17.748   7.763   1.851
16987W        W89302  20.202   6.475   2.211
16988W        W89303  32.011   6.891   3.670
16989W        W89304  14.631  10.178   4.093
16990W        W89305  20.483   0.537   3.142
16991W        W89306  27.583  17.640   0.701
16992W        W89307  16.482  29.526  12.899
16993W        W89308  32.610   2.353   3.381
16994W        W89309  41.228  18.201  14.468
16995W        W89310  38.146  16.658   2.016
16996W        W89311   8.258  13.743  11.057
16997W        W89312  34.343  27.927  14.635
16998W        W89313   6.625  42.903  10.504
16999W        W89314  39.401  29.228   4.520
17000W        W89315   3.869   6.874   2.727
17001W        W89316  44.813   9.735  11.032
17002W        W89317  21.944   6.705   1.180
17003W        W89318  31.833  19.139   0.779
17004W        W89319  21.499  30.944   4.648
17005W        W89320  42.081  10.389   4.217
17006W        W89321  22.002  18.846   4.420
17007W        W89322  33.153  13.770  14.093
17008W        W89323  30.899  19.009   3.721
17009W        W89324  32.060  14.163   0.502
17010W        W89325  43.933  24.159  10.642
17011W        W89326  33.951  28.039  11.162
17012W        W89327  26.044  30.057   2.751
17013W        W89328   2.873  13.882   3.427
17014W        W89329   2.175   1.051   3.697
17015W        W89330  17.798  12.320  10.686
17016W        W89331  36.529  24.278  11.865
17017W        W89332   7.264  23.055   0.833
17018W        W89333  29.437   4.272   2.206
17019W        W89334  33.667  27.603  11.193
17020W        W89335  24.089  20.293   3.406
17021W        W89336  28.927  10.254  12.562
17022W        W89337   9.635   3.274  11.146
17023W        W89338  20.587  41.053   3.791
17024W        W89339  26.511  20.033   4.211
17025W        W89340   5.440  13.291  10.773
17026W        W89341  13.360  29.922   1.762
17027W        W89342  44.285  44.364  14.067
17028W        W89343  35.418   1.914   0.019
17029W        W89344  36.875  13.983   3.255
17030W        W89345  15.883  41.880   3.369
17031W        W89346  12.829   3.157   1.773
17032W        W89347  36.231  12.356   1.671
17033W        W89348  43.755  30.712   1.620
17034W        W89349  10.922  41.017   0.051
17035W        W89350   2.045   6.688  10.629
17036W        W89351  35.528   8.747   3.807
17037W        W89352  30.501  26.238  11.525
17038W        W89353  29.803  35.319   0.179
17039W        W89354  35.906  27.669   4.809
17040W        W89355  39.568   1.273  12.506
17041W        W89356   2.176  28.039   4.544
17042W        W89357  14.126   7.892   1.481
17043W        W89358  33.580  31.480   0.193
17044W        W89359  20.623  44.280   2.942
17045W        W89360  39.918  11.450   0.504
17046W        W89361  32.651  43.846  14.378
17047W        W89362  11.822  34.172  13.051
17048W        W89363  13.565  41.387   4.360
17049W        W89364  19.236   3.157   0.347
17050W        W89365  30.570  33.392   2.317
17051W        W89366   0.306  44.347  11.189
17052W        W89367  38.796   6.702   4.117
17053W        W89368  25.166  17.177   2.325
17054W        W89369   2.425  10.732  10.604
17055W        W89370  10.257  42.071  11.056
17056W        W89371  18.747  27.612   1.211
17057W        W89372   9.839   0.421  10.771
17058W        W89373  34.110  18.824   1.510
17059W        W89374  35.279  31.045  13.257
17060W        W89375   9.422  16.243   0.779
17061W        W89376  26.299  17.996  13.886
17062W        W89377  23.536   1.690  12.010
17063W        W89378   5.275  29.200   1.690
17064W        W89379  31.722  41.498   2.180
17065W        W89380  35.808  21.171  10.705
17066W        W89381  12.436  43.314   0.683
17067W        W89382  44.516  41.261  12.909
17068W        W89383   2.925  33.409   0.455
17069W        W89384  15.436  15.667  10.749
17070W        W89385  35.969  27.629   2.709
17071W        W89386  37.533  18.594  14.824
17072W        W89387  20.976  31.626   4.189
17073W        W89388  33.715  43.174   0.530
17074W        W89389  31.405  36.397   1.822
17075W        W89390  31.569  23.121   3.659
17076W        W89391  32.472   6.235  13.604
17077W        W89392  14.280   5.647   2.289
17078W        W89393  17.887  43.943   2.827
17079W        W89394   1.527  18.142  14.962
17080W        W89395   1.694  32.576   0.479
17081W        W89396  30.178   0.137  14.395
17082W        W89397   1.979  15.109  11.533
17083W        W89398  37.428  31.423  12.410
17084W        W89399  17.309  21.170  11.708
17085W        W89400  28.605   3.939  10.658
17086W        W89401  12.123  38.575   1.715
17087W        W89402  36.585  12.705  11.075
17088W        W89403  16.151  14.529  13.642
17089W        W89404  20.757  29.934  10.676
17090W        W89405  26.960  26.007  13.079
17091W        W89406  41.122  30.603   4.695
17092W        W89407  31.159   1.298   0.041
17093W        W89408   6.353  36.784   2.761
17094W        W89409  28.599  31.520  12.873
17095W        W89410  31.736  10.132   4.528
17096W        W89411  27.084  27.164   3.290
17097W        W89412  34.841  38.532  10.828
17098W        W89413  29.242  26.034   3.560
17099W        W89414  28.701  12.308   1.730
17100W        W89415  14.094  16.085  13.578
17101W        W89416   4.304  33.355   1.346
17102W        W89417   7.410  17.520  10.728
17103W        W89418  26.754   5.399   2.683
17104W        W89419  30.120  44.370   3.186
17105W        W89420  44.333  24.968   1.313
17106W        W89421  14.516   1.808  11.914
17107W        W89422  37.872  31.913   1.409
17108W        W89423   7.671  39.393   4.582
17109W        W89424  16.639   0.839  10.992
17110W        W89425  36.445  40.610   2.835
17111W        W89426  33.389   6.798   2.347
17112W        W89427  38.338  42.371  13.579
17113W        W89428  35.187  12.308   1.508
17114W        W89429  35.316  36.653   2.168
17115W        W89430  12.191  34.976  10.513
17116W        W89431   5.236   6.884  13.877
17117W        W89432  10.084  18.253  11.494
17118W        W89433  40.790  25.565  12.524
17119W        W89434  28.618  42.495   2.254
17120W        W89435  13.042  31.337   0.201
17121W        W89436  44.373  32.248  11.080
17122W        W89437   2.020   7.175  14.045
17123W        W89438  22.480  43.282   1.706
17124W        W89439  10.896  28.511  11.699
17125W        W89440  19.096  30.171  14.535
17126W        W89441  13.642   3.234   0.392
17127W        W89442  28.398  22.965   4.796
17128W        W89443  16.847  44.435  13.767
17129W        W89444  43.643  11.292   5.496
17130W        W89445  26.158  44.182   4.601
17131W        W89446   7.915   7.398   2.672
17132W        W89447  39.447  34.146  12.425
17133W        W89448  44.345  33.579   2.342
17134W        W89449  15.157  37.977   2.709
17135W        W89450  27.120   3.214   4.633
17136W        W89451  25.055  30.475   2.276
17137W        W89452   5.133  39.519  13.942
17138W        W89453  35.632   6.522   2.778
17139W        W89454  23.644   6.427  13.922
17140W        W89455  34.967   9.935   3.592
17141W        W89456  20.277  18.679  14.977
17142W        W89457  27.072   6.858  12.011
17143W        W89458  43.363   9.433   3.998
17144W        W89459  15.781  13.104   2.780
17145W        W89460   7.776  37.075  14.792
17146W        W89461  24.195  25.533  10.875
17147W        W89462  12.090  33.526  11.445
17148W        W89463  28.076  44.424  10.665
17149W        W89464   3.135   4.330  12.428
17150W        W89465   1.895  19.221  14.283
17151W        W89466  44.825  14.778   2.828
17152W        W89467  28.320  20.996  11.101
17153W        W89468  31.475   1.264   2.904
17154W        W89469  42.303  33.678   4.218
17155W        W89470   0.870  43.856   2.831
17156W        W89471  43.149  18.113  14.044
17157W        W89472  36.926  35.388   3.644
17158W        W89473  36.156   6.957  10.734
17159W        W89474  37.217  42.838  11.009
17160W        W89475  26.272  29.121  13.069
17161W        W89476  10.775  41.814   1.354
17162W        W89477  21.011  20.336   0.674
17163W        W89478  42.075  31.565   1.356
17164W        W89479   3.942  26.619  11.924
17165W        W89480  35.315  36.020  11.786
17166W        W89481  14.667  17.795   2.324
17167W        W89482  16.979   0.670   4.948
17168W        W89483   8.008  40.361  11.975
17169W        W89484  14.106   6.235   3.618
17170W        W89485  13.533  14.769   2.493
17171W        W89486   2.337  22.174   4.707
17172W        W89487  20.481  19.925  13.190
17173W        W89488  23.271  21.175   1.866
17174W        W89489  26.201  35.088   4.228
17175W        W89490  39.326  27.881   2.334
17176W        W89491  35.966  43.186  13.084
17177W        W89492   1.285  40.409  10.783
17178W        W89493  26.392  10.441  12.893
17179W        W89494   0.620   5.478  12.334
17180W        W89495  23.946   8.313   2.303
17181W        W89496   2.313  29.766  10.357
17182W        W89497  25.680  41.298  13.915
17183W        W89498  36.272  36.388  13.289
17184W        W89499  19.625   6.829   3.616
17185W        W89500  41.320  16.499   2.692
17186W        W89501  28.005  23.167   0.722
17187W        W89502   4.266   9.804   0.479
17188W        W89503  34.911   6.822   4.828
17189W        W89504   6.161  29.612  11.123
17190W        W89505  28.363  22.101   3.103
17191W        W89506  35.468  32.633  12.864
17192W        W89507  10.385  44.403  14.736
17193W        W89508  15.814   4.888  11.466
17194W        W89509  16.077  15.044   2.122
17195W        W89510   2.875  41.913  12.774
17196W        W89511  32.425  19.826  12.374
17197W        W89512  15.265  29.326  13.393
17198W        W89513  39.062  23.569  13.040
17199W        W89514  12.085   3.761  10.641
17200W        W89515   0.811   9.638  11.055
17201W        W89516  33.471  34.891  12.950
17202W        W89517   1.638  25.586  12.473
17203W        W89518  10.633   1.431  12.498
17204W        W89519   6.254  24.228   3.246
17205W        W89520  31.355  40.518   4.695
17206W        W89521  27.278  10.219  12.058
17207W        W89522  28.048  21.546  14.033
17208W        W89523  12.633   2.690  10.627
17209W        W89524  14.982  10.370  11.553
17210W        W89525   2.187   9.915   4.342
17211W        W89526  31.091  43.977   1.020
17212W        W89527  24.723  34.311   2.698
17213W        W89528   4.340  39.304  11.126
17214W        W89529  22.838  29.935  13.003
17215W        W89530  16.279  25.574   1.311
17216W        W89531  44.397  35.468   1.697
17217W        W89532  21.048  12.068   1.234
17218W        W89533   0.778  42.548   2.288
17219W        W89534  22.003  14.803  11.683
17220W        W89535  28.482  18.198  12.655
17221W        W89536   5.727  40.933   3.581
17222W        W89537  11.128   6.646  12.815
17223W        W89538  40.355  16.861  13.542
17224W        W89539  43.811  30.871   2.891
17225W        W89540   1.127  42.491  12.475
17226W        W89541  20.737  16.610  11.175
17227W        W89542  35.259  43.311   4.629
17228W        W89543  39.763  26.214   2.285
17229W        W89544  11.425  41.744  12.572
17230W        W89545  18.507  16.176   1.387
17231W        W89546  27.513  23.431   2.245
17232W        W89547  28.072  24.385   3.689
17233W        W89548  11.177  40.415   3.555
17234W        W89549  29.652  41.602  13.873
17235W        W89550  21.562  24.006   4.477
17236W        W89551  11.664  19.520   0.401
17237W        W89552  43.368   9.458  13.440
17238W        W89553  17.053   8.387   1.953
17239W        W89554  12.162  23.178  12.449
17240W        W89555  31.741  38.382  13.378
17241W        W89556  30.924  27.529   3.239
17242W        W89557   2.236  20.533   4.271
17243W        W89558   9.025  43.599   1.286
17244W        W89559  13.657  13.760   4.466
17245W        W89560   8.313  24.177   4.385
17246W        W89561  15.607  32.749  14.571
17247W        W89562  42.347  36.551   0.423
17248W        W89563  34.295  41.947  14.119
17249W        W89564   3.865  31.641   1.772
17250W        W89565   9.160  18.104  14.293
17251W        W89566   1.285  21.622   0.292
17252W        W89567  44.421   7.757   1.912
17253W        W89568   2.753   9.401   3.291
17254W        W89569  19.541   4.099   4.035
17255W        W89570  36.497  43.983  12.861
17256W        W89571  27.996  10.394  14.200
17257W        W89572  39.853  14.853  12.390
17258W        W89573  34.932   9.683  13.930
17259W        W89574  38.521  43.173   3.253
17260W        W89575  42.816   7.414  13.102
17261W        W89576  14.550   6.357   2.670
17262W        W89577  39.191  35.645   0.906
17263W        W89578  26.116   1.941  14.275
17264W        W89579  36.657  27.992  13.514
17265W        W89580  25.109  42.102  13.341
17266W        W89581  16.298   4.866   1.943
17267W        W89582  16.660  29.074  11.171
17268W        W89583  14.779  22.819  10.262
17269W        W89584  20.053  15.717   4.841
17270W        W89585   1.510  24.600   1.721
17271W        W89586  25.744   4.734   3.222
17272W        W89587  43.529  17.523  14.228
17273W        W89588  16.242  43.530  12.349
17274W        W89589  27.081  16.569   4.494
17275W        W89590  24.682  36.547  14.382
17276W        W89591  29.574  34.769   3.105
17277W        W89592   3.375  32.376  10.376
17278W        W89593   7.924  42.406   3.585
17279W        W89594  44.314  25.135  14.928
17280W        W89595  13.841  35.373   1.814
17281W        W89596  26.697  42.009  13.682
17282W        W89597  25.336   3.852  11.116
17283W        W89598  30.082  22.998  10.740
17284W        W89599   0.687   9.936  14.619
17285W        W89600   0.406  20.073   2.963
17286W        W89601  36.173   4.305   2.147
17287W        W89602  41.076  20.674  13.503
17288W        W89603  35.437  25.010   0.811
17289W        W89604   8.402   8.404  12.661
17290W        W89605  36.077  36.387   0.352
17291W        W89606  37.713  18.837  14.406
17292W        W89607  41.784  10.181  13.134
17293W        W89608  29.522  40.877   2.711
17294W        W89609  36.374  20.623   1.202
17295W        W89610  25.252   8.672   3.299
17296W        W89611   8.290  12.228  10.703
17297W        W89612  36.592  33.093  13.081
17298W        W89613  27.149  11.352   0.018
17299W        W89614  27.568  36.105  10.890
17300W        W89615  15.785   0.491   4.300
17301W        W89616  25.648  39.147  12.014
17302W        W89617  19.165  10.759   5.392
17303W        W89618  23.591  38.995  11.331
17304W        W89619  38.393  13.403  13.931
17305W        W89620   3.201  29.576  13.854
17306W        W89621  33.811  30.859   4.609
17307W        W89622  42.990   5.322   3.101
17308W        W89623   4.848  25.608   3.592
17309W        W89624  11.641  39.912   4.059
17310W        W89625  20.155   7.687   4.395
17311W        W89626  17.582  16.664   2.521
17312W        W89627  11.239   7.767   1.887
17313W        W89628  12.539   7.908   2.234
17314W        W89629  18.673  23.248   4.137
17315W        W89630  41.229  25.366  13.832
17316W        W89631  11.895  21.479   2.287
17317W        W89632  10.336  31.816   1.376
17318W        W89633  41.932  13.158   4.640
17319W        W89634  20.539  33.480  13.888
17320W        W89635  19.143  14.375   2.532
17321W        W89636   8.217  11.514  13.845
17322W        W89637  16.299  14.147  12.869
17323W        W89638   8.363  15.566   2.772
17324W        W89639  29.544  35.472  12.398
17325W        W89640   3.798   7.000  13.473
17326W        W89641  11.391  38.520   4.737
17327W        W89642   0.377  15.255  10.553
17328W        W89643  32.395  30.449  12.332
17329W        W89644  17.785   9.445  12.561
17330W        W89645  10.464  23.213  13.881
17331W        W89646   5.818   3.530  10.540
17332W        W89647  42.628   0.370  13.021
17333W        W89648  41.435  36.955   1.429
17334W        W89649  38.892  18.614  12.365
17335W        W89650   9.391  41.056  11.907
17336W        W89651  15.786  23.215   0.423
17337W        W89652  42.064   0.281  11.586
17338W        W89653  44.451  22.576   3.351
17339W        W89654  41.331  10.419  12.838
17340W        W89655  35.522  22.179   3.651
17341W        W89656  15.596  42.556  14.981
17342W        W89657  41.988  10.170   1.421
17343W        W89658  42.187   9.104   3.678
17344W        W89659  36.115  19.726  11.076
17345W        W89660   8.377  21.190   5.130
17346W        W89661  15.270   9.385  13.607
17347W        W89662   3.385   1.086  11.092
17348W        W89663  44.446  12.752   0.290
17349W        W89664  13.193  25.661   1.254
17350W        W89665  39.769   5.670  14.416
17351W        W89666  27.514   2.039  10.987
17352W        W89667   8.259  26.056  12.463
17353W        W89668   4.380  19.238   2.096
17354W        W89669  14.423  23.658  12.308
17355W        W89670  38.922  13.352  11.391
17356W        W89671  41.784  44.022   3.828
17357W        W89672  33.801  15.140   2.935
17358W        W89673  23.263  41.050   4.138
17359W        W89674  29.608  35.555   1.386
17360W        W89675  16.787   4.247  10.704
17361W        W89676  44.246  17.198   5.124
17362W        W89677  33.688   2.305  11.924
17363W        W89678   3.439  42.071   1.369
17364W        W89679  31.709  29.971   3.212
17365W        W89680  29.000  44.889  12.052
17366W        W89681  43.325   6.992   4.976
17367W        W89682  37.986  25.643   1.452
17368W        W89683   4.981   9.315  10.441
17369W        W89684  18.478  31.555   0.834
17370W        W89685  36.588  16.370   2.807
17371W        W89686  22.490  21.693   3.786
17372W        W89687  18.263  29.054  10.401
17373W        W89688   5.314  36.448  11.377
17374W        W89689  13.626  28.636  13.456
17375W        W89690   5.474  26.651   1.038
17376W        W89691  37.972  17.751  11.234
17377W        W89692  11.295  23.763   4.047
17378W        W89693  24.141   8.388  12.359
17379W        W89694  32.114   2.080  12.683
17380W        W89695  43.816   4.840  13.713
17381W        W89696  36.831  29.562  13.938
17382W        W89697  38.081  20.196  12.539
17383W        W89698  25.461  10.743   0.802
17384W        W89699  23.950  29.740   1.288
17385W        W89700  17.788  12.801   0.803
17386W        W89701  42.128  43.709   3.599
17387W        W89702  39.375  37.001  12.904
17388W        W89703  42.510  31.808   3.491
17389W        W89704  22.533  44.517  13.380
17390W        W89705  32.079  20.580   1.738
17391W        W89706  15.627  14.811   1.933
17392W        W89707  41.523   3.794   4.605
17393W        W89708  42.844  25.900   1.944
17394W        W89709  23.204  13.454  13.361
17395W        W89710  11.793  13.563  12.031
17396W        W89711  36.069   0.434   3.376
17397W        W89712  12.167   3.526   1.694
17398W        W89713  40.013   9.694   4.687
17399W        W89714  25.625  24.033   1.194
17400W        W89715   4.722  19.838   4.433
17401W        W89716  11.209  33.850   2.791
17402W        W89717  11.861  41.021   2.706
17403W        W89718  36.604   2.367  13.849
17404W        W89719  23.601  42.290  14.528
17405W        W89720  31.472  35.324  12.896
17406W        W89721  12.828  39.856  13.593
17407W        W89722  28.003  17.406   0.925
17408W        W89723   6.889  38.225   4.052
17409W        W89724  26.628  32.537  13.398
17410W        W89725  15.089  19.591   1.301
17411W        W89726  12.369  18.182   1.393
17412W        W89727   3.876  20.687   0.577
17413W        W89728  28.349   5.410   3.690
17414W        W89729  43.398   1.939   4.254
17415W        W89730  18.357  12.243  10.310
17416W        W89731  27.158  31.294  13.087
17417W        W89732  40.267   2.363  11.150
17418W        W89733   0.774  25.086   1.833
17419W        W89734  44.793   2.536   2.120
17420W        W89735  15.017   4.943  11.155
17421W        W89736  39.267  43.487  14.103
17422W        W89737   4.133   4.938   4.208
17423W        W89738   2.762  31.087  11.550
17424W        W89739   0.338  37.537  14.472
17425W        W89740  31.941   2.759   2.906
17426W        W89741   7.495  34.881   0.941
17427W        W89742   9.977   4.687   3.304
17428W        W89743  42.876  29.514   1.703
17429W        W89744  25.273   6.240  12.998
17430W        W89745  26.809  44.462   5.122
17431W        W89746  43.962   2.572   3.162
17432W        W89747  34.868  27.983  12.036
17433W        W89748   1.769  35.161   4.209
17434W        W89749  13.266   5.249  11.892
17435W        W89750  29.051  15.089   2.284
17436W        W89751  20.601   7.148  12.979
17437W        W89752  29.658  34.102   4.158
17438W        W89753   9.337  31.114  11.684
17439W        W89754  26.210  30.164  12.018
17440W        W89755  21.686  23.943   1.358
17441W        W89756   2.816  29.357   1.931
17442W        W89757  43.228  23.721   0.902
17443W        W89758  10.281  38.461  10.025
17444W        W89759   7.487  43.870   2.366
17445W        W89760  34.857  41.272   1.325
17446W        W89761   3.279  19.349  11.039
17447W        W89762   3.271  34.352  13.828
17448W        W89763  25.129  44.227  11.477
17449W        W89764  33.547   0.407   3.188
17450W        W89765   9.409   7.381   2.748
17451W        W89766  44.173  39.788   2.388
17452W        W89767  25.524  31.188  12.447
17453W        W89768  41.777  22.537   5.045
17454W        W89769  41.866  21.124  10.550
17455W        W89770  29.811  33.677  12.910
17456W        W89771  27.577  10.259  13.880
17457W        W89772  35.114  14.136  10.955
17458W        W89773  11.375  44.472  14.496
17459W        W89774  10.738   4.510  13.858
17460W        W89775  10.692   2.794   2.902
17461W        W89776  13.862  21.500  14.779
17462W        W89777  16.059  38.461  12.009
17463W        W89778  44.451  41.959  13.452
17464W        W89779  14.331  27.987   1.680
17465W        W89780  33.526  11.339  10.152
17466W        W89781  38.533  15.241   3.753
17467W        W89782  44.188   1.785  11.201
17468W        W89783  17.934  19.335  11.695
17469W        W89784  10.611  40.271  10.042
17470W        W89785  40.299  35.566   1.741
17471W        W89786   3.866  15.638   2.355
17472W        W89787   7.259  19.329  12.577
17473W        W89788  18.181   8.948  13.983
17474W        W89789  25.279  25.112  13.057
17475W        W89790  15.461  39.415   1.816
17476W        W89791  14.367  19.622   4.470
17477W        W89792  15.809  28.492  14.310
17478W        W89793  27.349  36.695   3.696
17479W        W89794  37.968  16.489   1.029
17480W        W89795   1.230  43.266  13.897
17481W        W89796  44.466   4.298  14.312
17482W        W89797  33.369  29.322  14.367
17483W        W89798   1.366  20.485  13.058
17484W        W89799  22.043  21.272  14.057
17485W        W89800  25.447  25.721   3.635
17486W        W89801  24.555  35.486   1.699
17487W        W89802  43.563   8.260   2.199
17488W        W89803   7.353  14.634   2.778
17489W        W89804  26.966  18.579   0.266
17490W        W89805  31.607  27.028   1.721
17491W        W89806  22.008  34.517   1.905
17492W        W89807   8.811  17.855   4.683
17493W        W89808  37.277  28.739  14.885
17494W        W89809  16.658  39.348   0.320
17495W        W89810   2.209  28.464   3.632
17496W        W89811  44.984  18.585   4.364
17497W        W89812  23.447  34.432   0.361
17498W        W89813   5.680  13.738   0.763
17499W        W89814  39.659   2.329   0.717
17500W        W89815  33.438  34.031   3.213
17501W        W89816  31.634  30.914   3.184
17502W        W89817  30.749   0.386  14.062
17503W        W89818   1.367  39.851  13.103
17504W        W89819  34.271   3.931  11.160
17505W        W89820  12.574   1.241   2.943
17506W        W89821  21.566  24.555  13.516
17507W        W89822  35.865  21.753  12.459
17508W        W89823  19.157  26.727   0.335
17509W        W89824  27.072  39.378   4.659
17510W        W89825  23.962   5.219   3.570
17511W        W89826  32.982  17.263   4.532
17512W        W89827  10.710  37.227   1.133
17513W        W89828   8.155  27.101   2.253
17514W        W89829   1.487  34.583   2.207
17515W        W89830   5.490  22.148   1.183
17516W        W89831  27.132  14.557   3.488
17517W        W89832  38.038  44.430   2.196
17518W        W89833  24.491   2.708   0.289
17519W        W89834  17.074  29.603  10.258
17520W        W89835   3.883   0.919  13.074
17521W        W89836  43.448  27.141   3.820
17522W        W89837  38.041  13.296  11.492
17523W        W89838  20.338  15.682  14.394
17524W        W89839  24.160   5.890   1.174
17525W        W89840  20.865   7.111   0.823
17526W        W89841   6.886  16.822   0.359
17527W        W89842  15.369  32.152  13.430
17528W        W89843   9.262  33.710  11.554
17529W        W89844  15.100  40.304   2.842
17530W        W89845  37.043   7.177  12.511
17531W        W89846  40.638  16.366   3.268
17532W        W89847  15.047  21.115  10.714
17533W        W89848  23.566   1.773   4.225
17534W        W89849  36.526   4.970   4.802
17535W        W89850  17.649   1.496   1.306
17536W        W89851  10.291  27.010   3.068
17537W        W89852  20.742   9.346  13.376
17538W        W89853  44.286   2.768  12.416
17539W        W89854  18.645  29.233  10.696
17540W        W89855  30.903   8.743  10.344
17541W        W89856  12.222  21.649  10.624
17542W        W89857   0.292   3.302   4.556
17543W        W89858  12.000  41.152   1.004
17544W        W89859  18.448  36.879   1.362
17545W        W89860  19.068  35.658  13.572
17546W        W89861  33.950  12.046   0.942
17547W        W89862   3.447  19.241   4.576
17548W        W89863  11.674  40.505   1.861
17549W        W89864  20.782  39.355   3.123
17550W        W89865   3.025  14.225   3.024
17551W        W89866  37.471  30.972   3.158
17552W        W89867  11.153  24.002  12.440
17553W        W89868  30.445   2.940   3.910
17554W        W89869  38.616  31.713  14.346
17555W        W89870  42.315  22.526   0.424
17556W        W89871  23.954  33.165  11.203
17557W        W89872  15.717  32.202   1.959
17558W        W89873  26.432  21.811  11.592
17559W        W89874   7.248  14.056   1.378
17560W        W89875  43.868  28.060   2.117
17561W        W89876   3.371   7.530   3.213
17562W        W89877  33.523   6.239   3.658
17563W        W89878  42.390  33.603   0.406
17564W        W89879  35.056  28.631   0.390
17565W        W89880  32.950  23.743  12.536
17566W        W89881   4.178  43.693  14.493
17567W        W89882  36.886  32.414  12.097
17568W        W89883  40.571  28.942   1.896
17569W        W89884  33.861  22.839  14.742
17570W        W89885  31.477  10.582  10.278
17571W        W89886  12.118  10.939  14.540
17572W        W89887  25.657   0.944   2.879
17573W        W89888  32.630   1.058  13.775
17574W        W89889  25.606   7.615  10.653
17575W        W89890  26.891  18.235   3.319
17576W        W89891   6.644  23.610   1.272
17577W        W89892   5.107  30.421  14.011
17578W        W89893  19.770  24.546  12.996
17579W        W89894  41.868  27.153   3.835
17580W        W89895   1.470  27.457   0.456
17581W        W89896  35.068  11.021   4.592
17582W        W89897  21.727   7.243   1.889
17583W        W89898  31.652   4.770   0.031
17584W        W89899  16.357   4.350   4.238
17585W        W89900  19.175  28.143   0.261
17586W        W89901  36.534  19.748  13.841
17587W        W89902  15.764  31.914   3.779
17588W        W89903  34.509  42.415   4.632
17589W        W89904  43.008   7.648   3.205
17590W        W89905  30.924   4.487  11.995
17591W        W89906   3.688  27.503   0.997
17592W        W89907   0.933  29.694   3.652
17593W        W89908  25.146  41.886  14.350
17594W        W89909  23.702   5.411   1.367
17595W        W89910  22.308   8.273  13.766
17596W        W89911  24.759   4.207  10.528
17597W        W89912  41.685  43.365  11.090
17598W        W89913  31.837  29.736   3.694
17599W        W89914   9.866  14.134   1.424
17600W        W89915  30.881  14.293   4.600
17601W        W89916  34.599  20.644  13.881
17602W        W89917  13.166  21.273   1.924
17603W        W89918  43.909   7.205  11.083
17604W        W89919   0.849  41.010   1.374
17605W        W89920  32.098   2.918  13.044
17606W        W89921  13.253   9.573  14.927
17607W        W89922   1.297  40.992  14.557
17608W        W89923  18.263  33.375   3.744
17609W        W89924   7.511  35.649  14.982
17610W        W89925   3.021  14.087   0.791
17611W        W89926  22.189  15.526   3.210
17612W        W89927  12.707  42.823  10.569
17613W        W89928   2.651  31.537   3.250
17614W        W89929   8.878  32.420   0.443
17615W        W89930  42.663   7.191  10.577
17616W        W89931  23.813  32.953  14.453
17617W        W89932  43.915  39.373   4.880
17618W        W89933  38.402  35.527  14.991
17619W        W89934  13.796   7.993  13.032
17620W        W89935  36.799   3.294   3.593
17621W        W89936   9.351   8.854   1.932
17622W        W89937   5.826  33.874   0.437
17623W        W89938   0.166  37.378  13.254
17624W        W89939  29.660  35.445   4.262
17625W        W89940  34.872  13.434   2.359
17626W        W89941   3.475  44.119   1.219
17627W        W89942  41.275  23.517  11.192
17628W        W89943   8.389   9.312   1.849
17629W        W89944   6.821   6.665  11.534
17630W        W89945  43.958  10.731   5.098
17631W        W89946  17.119   1.926  13.586
17632W        W89947  29.474  39.346  12.098
17633W        W89948  41.925  30.245  13.393
17634W        W89949  23.670   2.459  13.486
17635W        W89950  34.553  12.419  12.839
17636W        W89951  15.863  15.344  14.917
17637W        W89952  19.512   8.908   0.918
17638W        W89953  37.313  38.940   1.871
17639W        W89954   9.114   5.511   0.191
17640W        W89955  12.131   3.264  10.115
17641W        W89956  35.991  38.524  14.015
17642W        W89957   3.317  25.443  11.933
17643W        W89958  16.125  33.601   0.933
17644W        W89959  24.663  11.249  11.967
17645W        W89960  31.552  11.818   1.314
17646W        W89961  21.064   6.185   4.244
17647W        W89962  13.880  13.300   4.587
17648W        W89963   4.429  31.031   4.537
17649W        W89964  39.625  22.224   2.375
17650W        W89965   0.330  37.575  11.202
17651W        W89966   0.564   5.410   0.964
17652W        W89967  20.122  28.449  14.392
17653W        W89968  29.650  19.058  12.509
17654W        W89969  33.122   8.579  11.471
17655W        W89970  39.546  25.632   0.562
17656W        W89971  22.074  32.992   0.792
17657W        W89972  22.031   3.168   4.605
17658W        W89973  28.956  10.042  13.413
17659W        W89974   6.199  44.962   0.241
17660W        W89975  17.581  29.401   1.276
17661W        W89976   5.326  38.205   2.177
17662W        W89977  15.159  13.912   4.092
17663W        W89978   3.928   1.700  12.106
17664W        W89979   5.719  13.058  13.110
17665W        W89980   5.897  25.839  11.140
17666W        W89981  38.263  44.078   4.175
17667W        W89982   1.570  15.725   2.757
17668W        W89983   6.922  17.402  12.072
17669W        W89984   5.945   1.328  12.519
17670W        W89985   3.959  33.565   0.465
17671W        W89986   3.630   2.440   2.821
17672W        W89987   8.236  12.337   2.705
17673W        W89988  37.865   2.554  13.046
17674W        W89989  13.802  42.814   2.317
17675W        W89990  39.285  41.020   1.430
17676W        W89991  41.325  19.195   0.453
17677W        W89992  43.699   1.155   4.125
17678W        W89993  15.098  19.571  12.165
17679W        W89994  17.383   3.266   4.996
17680W        W89995  23.266   9.145   4.630
17681W        W89996   7.276  20.020   0.855
17682W        W89997  13.302   8.207   4.654
17683W        W89998  44.327  15.641  14.837
17684W        W89999  32.851  17.537  12.477
17685W        W90000  33.963  37.654  10.712
17686W        W90001  36.295  25.843  11.034
17687W        W90002  10.621  27.542  10.040
17688W        W90003  29.019   1.402  12.453
17689W        W90004  11.051  38.726   3.370
17690W        W90005  16.687  36.299   3.732
17691W        W90006  17.805  41.353  10.711
17692W        W90007  40.312  10.577  11.098
17693W        W90008  23.039  17.390   2.487
17694W        W90009   1.449  35.156   4.621
17695W        W90010  10.182   0.224  13.323
17696W        W90011  23.519  37.969   2.905
17697W        W90012  30.141  24.231  12.133
17698W        W90013  10.685  32.026   1.754
17699W        W90014  12.076  10.444  14.444
17700W        W90015  12.219  39.518  14.197
17701W        W90016  43.178   5.122  10.246
17702W        W90017  12.704  19.738  14.447
17703W        W90018   5.394   5.736   0.375
17704W        W90019  27.163   2.263   4.366
17705W        W90020  14.462  22.757   4.107
17706W        W90021   1.046  22.122  14.331
17707W        W90022  35.604  39.678   4.068
17708W        W90023  27.088  18.085  14.920
17709W        W90024  41.359  34.523  13.415
17710W        W90025  34.538   1.708  12.064
17711W        W90026  30.632  37.689  13.260
17712W        W90027   9.611  13.824   2.962
17713W        W90028  24.006   7.381  14.111
17714W        W90029  11.820  32.052  12.419
17715W        W90030  25.003  39.795   4.686
17716W        W90031  20.515   5.307  13.065
17717W        W90032  43.244  34.466  14.678
17718W        W90033  32.033  19.615   0.647
17719W        W90034   4.226  10.723  14.933
17720W        W90035  32.128  21.605  10.722
17721W        W90036  14.234  10.288  12.659
17722W        W90037  14.107  32.103   1.321
17723W        W90038  21.720  29.269   4.142
17724W        W90039   1.277  26.393   3.686
17725W        W90040   5.390  16.591  10.406
17726W        W90041   1.165  40.306   4.553
17727W        W90042  37.963  42.712  14.518
17728W        W90043   2.819  12.374   0.316
17729W        W90044  40.933  20.162   4.853
17730W        W90045  16.733  33.679   5.040
17731W        W90046  23.496  23.631  11.474
17732W        W90047  43.244  37.465   0.907
17733W        W90048  29.054  27.523   1.919
17734W        W90049  44.827  34.532   4.443
17735W        W90050  43.524   2.611   1.750
17736W        W90051   9.189  21.230  14.675
17737W        W90052  26.860  25.532  14.464
17738W        W90053  40.866  25.208   0.922
17739W        W90054  37.770  42.084  13.836
17740W        W90055  31.306  19.310   3.718
17741W        W90056  34.445  39.491  12.004
17742W        W90057  44.027   3.931   2.980
17743W        W90058  39.063  38.708   4.986
17744W        W90059   7.280  15.029  14.319
17745W        W90060  11.414  25.555   4.295
17746W        W90061  37.483  21.259  13.980
17747W        W90062   3.150  17.229   2.359
17748W        W90063  30.825  42.664  13.281
17749W        W90064  29.956  24.298   0.221
17750W        W90065   6.148  22.631  11.431
17751W        W90066   0.495  22.718  12.424
17752W        W90067   0.933   7.804   4.527
17753W        W90068  38.127   8.677   0.096
17754W        W90069   8.899  41.423  12.429
17755W        W90070  15.747  30.662  13.509
17756W        W90071  20.816   7.383   3.253
17757W        W90072  31.526  14.150   2.443
17758W        W90073  13.245  44.557   1.949
17759W        W90074  39.444  38.512  14.076
17760W        W90075  32.204  18.013  13.036
17761W        W90076  26.838  15.611   2.141
17762W        W90077  14.062  17.138  11.650
17763W        W90078   2.665  23.759  12.037
17764W        W90079  25.427  41.994   2.258
17765W        W90080  21.642  41.562   0.257
17766W        W90081  19.675  22.614   3.861
17767W        W90082  30.521  18.759  13.042
17768W        W90083  18.279   6.236  10.541
17769W        W90084  13.783  18.143   3.908
17770W        W90085  15.857  23.014   4.058
17771W        W90086  33.375  32.934  13.428
17772W        W90087   1.752  27.068  14.563
17773W        W90088  21.007  17.169  14.870
17774W        W90089  28.190  28.116   4.227
17775W        W90090   7.181  44.945   0.404
17776W        W90091  44.693  32.186  14.006
17777W        W90092  32.338  26.579  13.757
17778W        W90093  40.354   3.801  14.015
17779W        W90094  40.913  34.585  14.271
17780W        W90095  35.450  31.093  14.971
17781W        W90096  18.246  34.068  14.138
17782W        W90097  28.109  20.650   3.265
17783W        W90098  20.498  41.441  13.521
17784W        W90099  25.667  42.812  13.347
17785W        W90100  39.987  25.726  13.690
17786W        W90101  12.203   1.522  12.630
17787W        W90102  11.938   0.985  13.948
17788W        W90103   6.409  15.748  12.974
17789W        W90104   7.840  13.338   4.576
17790W        W90105   2.595  24.214   3.961
17791W        W90106   9.178  24.116  13.856
17792W        W90107  35.509  24.564   2.503
17793W        W90108   2.828  41.466   0.501
17794W        W90109  34.458  10.299   0.856
17795W        W90110  36.891  27.097  14.832
17796W        W90111  22.068  38.323   4.005
17797W        W90112  16.608   8.413  10.675
17798W        W90113  41.402  44.550   1.797
17799W        W90114  40.451  32.997   3.732
17800W        W90115  26.637  15.715   5.030
17801W        W90116  29.555  32.711   3.705
17802W        W90117  35.473  19.456  12.070
17803W        W90118  23.137  37.509  10.909
17804W        W90119  24.558  12.607   0.445
17805W        W90120  23.020  34.915   1.709
17806W        W90121  25.030  14.042  14.315
17807W        W90122  23.203  41.850  12.927
17808W        W90123   2.843  17.862  14.458
17809W        W90124   5.925  40.894   1.817
17810W        W90125  26.753  35.847   1.891
17811W        W90126  26.182  25.153  10.641
17812W        W90127   7.421  15.057   3.678
17813W        W90128  12.535  27.134  12.863
17814W        W90129  25.196   6.905   2.896
17815W        W90130  14.031  15.562   4.520
17816W        W90131  25.648  14.532   2.774
17817W        W90132  19.719  34.534  14.910
17818W        W90133  17.501  27.782  14.267
17819W        W90134  34.982  15.672  11.138
17820W        W90135  24.917  29.632  13.007
17821W        W90136  27.043  44.861  13.824
17822W        W90137  27.201  40.530  10.648
17823W        W90138   7.045  17.051  12.497
17824W        W90139  21.043  33.927   2.357
17825W        W90140  15.262  33.164   1.290
17826W        W90141   6.312  25.017  13.469
17827W        W90142  30.564  14.329   2.244
17828W        W90143  43.306  29.001   0.692
17829W        W90144  34.592   4.879  11.110
17830W        W90145  42.984  38.861   3.646
17831W        W90146  36.554  12.668   1.458
17832W        W90147  32.979  44.858   0.451
17833W        W90148   4.891  41.930  11.595
17834W        W90149   5.687   1.175   3.410
17835W        W90150  43.245  17.191  11.223
17836W        W90151  16.889  39.291   1.311
17837W        W90152  33.053  40.417   2.277
17838W        W90153  39.256   1.487  14.753
17839W        W90154   7.412   7.750   2.330
17840W        W90155  11.198  26.648   3.534
17841W        W90156  16.136   4.920   0.871
17842W        W90157   9.798  27.570  10.712
17843W        W90158   6.177  37.869   2.669
17844W        W90159  36.831  12.960   3.619
17845W        W90160   3.509  43.385  13.093
17846W        W90161   4.957  41.351  11.178
17847W        W90162   9.325  27.438  10.923
17848W        W90163  13.846   7.205  10.740
17849W        W90164  43.861   8.839   3.349
17850W        W90165  36.446  11.669   2.772
17851W        W90166  11.399  28.588  11.643
17852W        W90167  26.479  36.565   4.607
17853W        W90168  24.004  16.638  10.722
17854W        W90169  35.549   3.376   1.304
17855W        W90170  39.727  29.192   0.730
17856W        W90171  23.204  18.455  10.972
17857W        W90172  27.412  38.395  11.513
17858W        W90173  25.716  26.855  10.182
17859W        W90174  17.596  39.590  11.734
17860W        W90175  32.482  21.951  14.577
17861W        W90176  14.309  11.171  10.680
17862W        W90177  36.588  39.071   3.310
17863W        W90178  23.033   2.866   1.277
17864W        W90179  44.706  22.693  12.871
17865W        W90180  19.574   4.142  14.213
17866W        W90181  34.209  28.067   0.104
17867W        W90182  37.108  30.165  11.922
17868W        W90183  35.976  38.091  11.717
17869W        W90184  19.134   3.217  10.104
17870W        W90185  26.577   3.760  13.365
17871W        W90186   5.766  19.924  11.140
17872W        W90187   7.851   0.072   2.185
17873W        W90188  37.841   8.116   3.635
17874W        W90189  14.339   9.822   4.347
17875W        W90190  10.584   1.481   4.615
17876W        W90191  15.638  17.726   4.285
17877W        W90192  10.895   3.867  13.090
17878W        W90193  23.457  40.511  14.019
17879W        W90194  22.075  10.216  11.723
17880W        W90195   8.361  35.032  10.757
17881W        W90196   4.303  13.584  13.337
17882W        W90197  10.277   5.010  14.920
17883W        W90198  22.390   2.649  13.161
17884W        W90199  19.254  33.566   4.726
17885W        W90200  31.490  36.879   4.425
17886W        W90201  15.055  25.574   2.701
17887W        W90202   5.214  41.398  10.676
17888W        W90203  15.158   1.545   4.508
17889W        W90204  34.406  17.398  13.282
17890W        W90205  32.652  18.207   0.406
17891W        W90206  37.584  42.502   0.882
17892W        W90207  26.016  21.571  11.334
17893W        W90208  32.128  36.034  12.444
17894W        W90209  40.346  33.868   0.474
17895W        W90210  34.159  35.440  14.025
17896W        W90211  23.673  44.051   2.869
17897W        W90212  33.961  37.140  11.495
17898W        W90213  36.077  39.057  10.544
17899W        W90214  32.045   6.085  13.348
17900W        W90215  17.217  16.611   3.450
17901W        W90216  32.131  40.981   3.097
17902W        W90217  21.073  40.985  12.535
17903W        W90218  26.894  28.725   1.931
17904W        W90219   1.386  26.667  14.442
17905W        W90220  26.639   0.840   3.118
17906W        W90221  38.952   9.651   2.224
17907W        W90222  41.438  43.239  13.538
17908W        W90223  44.334  19.361  14.728
17909W        W90224  20.869  43.727  13.381
17910W        W90225  25.252  35.495  12.454
17911W        W90226  28.577  44.477   2.230
17912W        W90227  34.020  20.856  11.187
17913W        W90228  18.590  10.339   3.275
17914W        W90229  41.825  34.585   4.172
17915W        W90230  10.777  21.710  10.236
17916W        W90231   9.173  22.007   2.897
17917W        W90232   8.294  42.533  12.848
17918W        W90233   0.932   3.257  14.312
17919W        W90234  14.515  18.174   3.184
17920W        W90235   6.818  12.075   0.776
17921W        W90236  22.925   3.647  12.907
17922W        W90237  29.816   7.961  12.925
17923W        W90238  17.150  43.832  10.398
17924W        W90239  20.797   0.725  13.002
17925W        W90240  13.254   6.773  11.124
17926W        W90241  11.031  42.494   4.788
17927W        W90242   9.827   4.483   0.347
17928W        W90243  17.111   5.845   1.003
17929W        W90244  40.968  43.051  12.483
17930W        W90245   4.953   4.152   1.326
17931W        W90246  33.372   4.360  11.971
17932W        W90247  30.997   2.521   4.978
17933W        W90248  42.785  31.681  13.494
17934W        W90249  35.316   7.929  12.130
17935W        W90250  27.879  25.141  12.774
17936W        W90251  34.298  40.279  11.523
17937W        W90252  19.799   2.348   3.137
17938W        W90253  13.578   1.456   3.801
17939W        W90254  40.404  10.794  11.561
17940W        W90255  42.587  23.225  13.794
17941W        W90256  37.452  26.206   0.822
17942W        W90257   9.818  42.086   3.277
17943W        W90258  23.316  30.099  13.984
17944W        W90259   2.777  43.838   3.287
17945W        W90260   2.189  20.834   4.705
17946W        W90261  44.533  27.760   3.703
17947W        W90262   4.785   2.880   0.982
17948W        W90263  19.510  27.121  14.022
17949W        W90264  33.415  14.634   4.482
17950W        W90265   0.739  24.547  12.946
17951W        W90266   1.435  41.039   2.026
17952W        W90267   8.684  22.796  13.863
17953W        W90268   5.247  26.549  12.496
17954W        W90269  27.933  14.021   1.436
17955W        W90270  27.127  25.625  14.002
17956W        W90271  26.573  38.272  13.495
17957W        W90272  37.369   4.187  10.648
17958W        W90273   8.832  42.365   4.158
17959W        W90274  43.740  33.713   1.123
17960W        W90275   1.291  25.075   1.827
17961W        W90276  23.053   5.505   2.285
17962W        W90277  43.937  16.097   2.390
17963W        W90278  22.370  13.328  10.352
17964W        W90279  25.166  12.380   2.544
17965W        W90280  27.445   7.848   4.234
17966W        W90281   6.244  13.019   4.468
17967W        W90282  11.209  28.206   2.406
17968W        W90283  28.536  31.350   1.825
17969W        W90284  42.921  44.309  12.096
17970W        W90285  32.186  32.051  12.017
17971W        W90286   0.996  30.463   0.265
17972W        W90287  35.943  39.307  13.474
17973W        W90288  37.966  11.665   1.839
17974W        W90289  14.830   8.601   2.932
17975W        W90290  13.278  15.756  12.951
17976W        W90291  11.821  33.615  14.963
17977W        W90292   3.228   0.599  11.156
17978W        W90293   3.234  10.637   3.545
17979W        W90294  23.255  24.030  10.694
17980W        W90295   1.881  25.107  10.994
17981W        W90296   3.218  19.592  12.466
17982W        W90297  23.732   6.852  13.035
17983W        W90298  10.129  28.058  12.148
17984W        W90299  19.672  15.558  11.101
17985W        W90300   5.074  26.453  14.123
17986W        W90301  32.532  25.689  14.244
17987W        W90302  40.866  21.707   4.245
17988W        W90303   0.345  28.540  13.784
17989W        W90304  13.891  16.354  12.174
17990W        W90305  19.595  19.162   4.800
17991W        W90306  28.664  40.305   1.679
17992W        W90307   4.755  41.935   0.989
17993W        W90308   6.398   0.702   2.818
17994W        W90309   2.875  33.866  14.879
17995W        W90310  42.449  17.094   2.757
17996W        W90311  25.578   4.326   1.944
17997W        W90312   2.439  15.201  13.064
17998W        W90313  44.432  18.546  12.051
17999W        W90314  28.543   3.899  14.777
18000W        W90315  41.549  38.999   0.780
18001W        W90316  32.898   3.360  12.573
18002W        W90317  42.558  14.266   2.700
18003W        W90318  22.542  20.763   4.758
18004W        W90319  20.811   4.768  11.070
18005W        W90320   9.698  40.733   1.957
18006W        W90321  18.529  34.940   4.181
18007W        W90322  26.496  31.929   9.775
18008W        W90323   6.892  34.621   4.593
18009W        W90324   1.504  18.568  14.117
18010W        W90325  15.580  28.087   0.398
18011W        W90326   4.307  13.072  14.872
18012W        W90327  31.022  18.715   0.218
18013W        W90328  35.623  11.345  11.334
18014W        W90329  20.509   1.692   2.795
18015W        W90330  42.323  40.405   4.555
18016W        W90331  15.703  29.064  10.721
18017W        W90332   7.842  36.032   4.676
18018W        W90333  24.629  36.096   4.149
18019W        W90334   3.870  27.680  14.266
18020W        W90335  22.183  38.490   0.333
18021W        W90336  35.412  17.258  11.586
18022W        W90337  36.865  30.073  12.363
18023W        W90338  27.059  30.931   2.675
18024W        W90339  29.456  31.705   3.754
18025W        W90340  36.309  28.816   2.033
18026W        W90341  20.545   1.822   2.274
18027W        W90342  29.578  22.820  10.741
18028W        W90343  20.170  11.819  10.192
18029W        W90344   3.133   1.017  10.644
18030W        W90345  44.529   1.983  14.325
18031W        W90346  15.239  26.511   9.936
18032W        W90347   8.139  14.663   3.260
18033W        W90348   0.715   4.453  11.645
18034W        W90349  31.497   9.084  12.060
18035W        W90350  19.998  15.109   2.351
18036W        W90351  13.826   5.530   0.807
18037W        W90352  30.083  11.273   3.430
18038W        W90353   3.283  32.168   0.759
18039W        W90354  38.943  10.560  10.686
18040W        W90355   9.480  28.765  12.142
18041W        W90356  27.496  43.326  12.964
18042W        W90357  28.939  30.826  11.462
18043W        W90358  19.505  23.534   3.103
18044W        W90359  12.361  17.233  10.254
18045W        W90360  40.641  27.725   3.093
18046W        W90361  36.317  14.789   2.176
18047W        W90362   9.817  39.972   4.631
18048W        W90363  42.003  39.823   3.123
18049W        W90364  19.852  28.486  14.833
18050W        W90365  20.157   4.373   5.126
18051W        W90366   8.424  17.014  14.285
18052W        W90367  13.830   1.687  13.600
18053W        W90368  35.507  40.587   2.376
18054W        W90369  19.426  13.164   4.592
18055W        W90370  31.228  38.398  13.396
18056W        W90371   9.101  11.585  14.873
18057W        W90372   4.803   1.524   0.957
18058W        W90373  42.807  11.612   1.794
18059W        W90374   0.311  14.582   4.501
18060W        W90375  37.143  36.018   3.305
18061W        W90376   8.893  32.184  11.188
18062W        W90377   6.236   6.189   3.647
18063W        W90378  19.802   5.924   4.171
18064W        W90379  17.100  13.665  10.439
18065W        W90380   2.442   0.271   1.403
18066W        W90381  23.456  36.089   0.372
18067W        W90382  43.034   9.594   1.844
18068W        W90383  22.816  31.306  13.919
18069W        W90384  35.844  21.031   3.314
18070W        W90385  41.432   9.362  11.795
18071W        W90386  40.484  14.266   3.926
18072W        W90387  29.144  10.711   3.774
18073W        W90388  42.256   9.166  14.435
18074W        W90389  37.962  12.763   2.919
18075W        W90390  10.732  32.133   1.237
18076W        W90391  27.891  11.893  11.896
18077W        W90392  35.664  42.955   4.592
18078W        W90393   7.737  40.526  10.772
18079W        W90394   1.358  43.722   4.275
18080W        W90395  42.260  32.861   1.374
18081W        W90396  20.200  30.675   3.655
18082W        W90397  11.746  42.342   1.343
18083W        W90398  27.174  35.986  12.611
18084W        W90399  27.575  26.701  13.243
18085W        W90400  11.041   0.349  12.057
18086W        W90401  39.291  44.898  13.554
18087W        W90402  24.971   5.490  10.281
18088W        W90403  12.738  44.011  14.374
18089W        W90404  27.422  15.255  11.722
18090W        W90405  32.069  10.613   3.659
18091W        W90406  23.134   6.285  14.309
18092W        W90407  29.667  15.580  10.214
18093W        W90408  38.824  29.238  12.868
18094W        W90409   2.956   3.706  14.465
18095W        W90410  14.462  19.289  10.689
18096W        W90411  29.205  28.366   2.405
18097W        W90412   5.851   3.699   1.335
18098W        W90413  41.510  12.754   3.651
18099W        W90414   9.852  38.654   3.908
18100W        W90415  15.145  23.996   0.268
18101W        W90416  42.264  19.058  11.130
18102W        W90417  43.992  27.587  12.116
18103W        W90418  29.961  42.740  11.083
18104W        W90419   1.949  20.630  13.716
18105W        W90420  32.054  12.936   4.194
18106W        W90421  29.099  43.719   2.403
18107W        W90422   4.307   2.415   1.433
18108W        W90423  20.975  41.542  14.558
18109W        W90424   7.246  44.090   1.705
18110W        W90425  33.580  31.872   0.996
18111W        W90426  24.424  37.915   1.968
18112W        W90427  43.305  37.236   1.708
18113W        W90428  23.598   2.410  14.771
18114W        W90429   8.997  23.516  10.992
18115W        W90430  12.968  31.765  13.889
18116W        W90431  20.553   0.039   1.724
18117W        W90432   0.368  21.565   0.883
18118W        W90433  17.994  40.845   1.335
18119W        W90434  24.991  24.828  14.263
18120W        W90435   5.269  39.040  13.458
18121W        W90436  32.667  32.394   1.802
18122W        W90437  19.638   3.851   1.017
18123W        W90438  33.588  36.150   4.192
18124W        W90439   8.154  38.292   0.292
18125W        W90440  20.592  41.407  14.879
18126W        W90441  36.267  28.954  11.616
18127W        W90442  23.386  42.372  12.559
18128W        W90443  30.392  19.217  12.862
18129W        W90444  34.474  38.438  11.640
18130W        W90445  10.710  11.265  11.304
18131W        W90446   4.562   6.973  14.974
18132W        W90447  24.013  35.104  14.324
18133W        W90448  27.009   1.208  12.070
18134W        W90449   0.995  15.242   4.120
18135W        W90450  24.681  33.519   4.416
18136W        W90451  25.174   4.420   1.367
18137W        W90452   5.539  24.560  13.709
18138W        W90453  24.468  16.181  14.345
18139W        W90454  18.105   6.757  13.660
18140W        W90455  33.462  30.735   3.330
18141W        W90456  23.284  39.592  12.435
18142W        W90457  23.915  26.655   5.052
18143W        W90458  11.095  29.564   3.212
18144W        W90459  39.978  37.337   3.913
18145W        W90460  41.597  22.309  13.763
18146W        W90461  32.608   3.518  10.294
18147W        W90462   6.947  37.517   3.509
18148W        W90463  21.986  42.381  14.725
18149W        W90464   0.953   2.428  13.247
18150W        W90465   7.232  32.871  13.083
18151W        W90466  37.924  12.702  14.346
18152W        W90467  35.073  22.195  14.201
18153W        W90468  36.095  18.549   4.854
18154W        W90469  21.094  19.911   0.959
18155W        W90470  36.962  17.626   3.224
18156W        W90471   9.909  38.967  12.906
18157W        W90472  27.733  22.428  14.829
18158W        W90473  21.354  35.496   3.643
18159W        W90474  18.541  20.983   2.424
18160W        W90475  43.795  34.622   4.291
18161W        W90476  44.755   8.666  14.528
18162W        W90477  38.096   1.193  13.352
18163W        W90478   0.482  35.743  10.476
18164W        W90479   9.196  27.673   4.421
18165W        W90480  32.731  37.766  10.999
18166W        W90481  37.560  27.561   3.869
18167W        W90482  39.298  24.211  14.775
18168W        W90483   0.888  14.172  11.217
18169W        W90484  19.161   3.839  14.334
18170W        W90485  27.227   6.751   1.941
18171W        W90486   6.700  22.754   2.357
18172W        W90487  40.767  22.068   1.035
18173W        W90488  18.468  10.800   2.762
18174W        W90489  22.107  34.595   2.936
18175W        W90490   4.789  24.741  10.666
18176W        W90491   4.313   2.283   0.917
18177W        W90492  33.598  32.120  12.374
18178W        W90493  42.669  14.487  12.629
18179W        W90494  23.063  10.859  11.939
18180W        W90495  25.065   2.223   4.214
18181W        W90496   9.775  41.279  10.955
18182W        W90497  25.731  26.429   0.951
18183W        W90498   6.899   0.408   0.363
18184W        W90499  37.905  30.179   1.922
18185W        W90500   2.457  40.286   4.339
18186W        W90501  34.793  15.462   0.694
18187W        W90502  12.712  22.850   0.196
18188W        W90503  11.333  32.504   2.295
18189W        W90504  23.566  30.014   3.894
18190W        W90505  20.510   1.544  14.358
18191W        W90506   2.304  23.463   1.934
18192W        W90507  32.335  39.071  13.443
18193W        W90508  39.088  41.936   1.304
18194W        W90509  15.195  33.355  10.975
18195W        W90510  34.826  27.188   2.836
18196W        W90511  17.062  38.217  10.202
18197W        W90512  30.123  21.408   2.261
18198W        W90513   5.958  18.122   1.727
18199W        W90514  14.277  11.802  11.166
18200W        W90515  39.449   7.921  12.558
18201W        W90516  19.778  23.579   4.751
18202W        W90517   8.261  10.639   1.364
18203W        W90518  40.556   8.166  13.049
18204W        W90519  38.025  27.597  13.229
18205W        W90520  18.255   4.294  13.577
18206W        W90521  41.336  42.237   2.415
18207W        W90522   0.601  22.017   0.792
18208W        W90523  39.624   9.291  11.656
18209W        W90524  37.679  13.596   0.414
18210W        W90525  23.727  10.771  10.514
18211W        W90526  19.491  38.501  10.716
18212W        W90527  34.126  37.359   0.007
18213W        W90528  23.905  38.619  11.120
18214W        W90529  30.074  22.555   4.931
18215W        W90530  31.122  21.219  10.622
18216W        W90531  23.674  21.300  11.175
18217W        W90532  38.546  41.327  12.831
18218W        W90533   0.996  35.556   1.916
18219W        W90534  32.798  19.156  12.985
18220W        W90535  10.399  28.007  10.151
18221W        W90536  40.399  13.633   0.285
18222W        W90537   7.848  13.718  13.973
18223W        W90538   6.014   0.935   1.653
18224W        W90539  14.647  36.125  13.408
18225W        W90540  10.858   8.810  13.362
18226W        W90541  41.914  20.926   9.928
18227W        W90542  22.104  33.325  11.164
18228W        W90543  23.646  33.244  11.607
18229W        W90544  18.543  26.906   0.398
18230W        W90545  28.865  14.810   2.691
18231W        W90546  43.031  42.794   4.541
18232W        W90547  16.104  13.070  12.656
18233W        W90548  20.169  39.168  14.813
18234W        W90549  42.760  36.270   4.973
18235W        W90550  22.652   2.718   3.483
18236W        W90551  31.658   5.725   0.066
18237W        W90552   5.138   7.642  11.657
18238W        W90553  13.153   4.156   0.050
18239W        W90554   8.908   5.542   2.236
18240W        W90555  13.899  31.616   1.169
18241W        W90556   0.515  32.983  13.568
18242W        W90557  13.722  23.575   1.731
18243W        W90558  28.257  28.163   1.129
18244W        W90559   9.101  28.579   4.220
18245W        W90560  35.015  38.352  13.332
18246W        W90561   3.208  24.531  14.680
18247W        W90562  39.345  42.859  14.859
18248W        W90563  11.488  26.486  13.097
18249W        W90564  40.209  19.824   1.442
18250W        W90565  35.816  34.035  12.367
18251W        W90566  28.543  27.602  12.434
18252W        W90567  39.391  29.795  11.670
18253W        W90568  22.679  41.881   0.961
18254W        W90569  10.108  19.651  12.402
18255W        W90570  44.860  23.651   2.343
18256W        W90571  31.940  30.848  11.530
18257W        W90572  17.087  14.647   4.656
18258W        W90573   8.645  14.169  11.614
18259W        W90574  15.016  10.752  14.311
18260W        W90575  11.194   8.277  12.120
18261W        W90576  14.229   6.850  11.003
18262W        W90577  26.938  40.596   4.066
18263W        W90578   4.842   2.349  12.544
18264W        W90579   8.214  40.863   0.276
18265W        W90580   5.969   2.651   0.118
18266W        W90581  18.550  17.169  12.856
18267W        W90582  12.228  11.083  14.042
18268W        W90583  30.581  24.765   2.778
18269W        W90584  29.970   3.846  14.825
18270W        W90585  20.205  14.427   4.796
18271W        W90586   3.447  43.511   2.361
18272W        W90587  28.071  27.422  11.554
18273W        W90588  34.999  15.983  11.557
18274W        W90589  21.516  13.786  12.348
18275W        W90590  35.369  40.039   4.912
18276W        W90591   9.468  37.826   1.207
18277W        W90592  11.604  41.807  10.356
18278W        W90593  30.032  39.301   3.222
18279W        W90594  19.169  11.798   3.175
18280W        W90595  34.794  19.212   0.281
18281W        W90596  19.639  25.775   0.949
18282W        W90597  43.013  11.777   1.364
18283W        W90598  33.874  33.662  14.448
18284W        W90599  42.785   4.415   1.356
18285W        W90600  18.724   3.746   1.448
18286W        W90601  28.560  13.522   0.837
18287W        W90602  13.728  17.164   4.322
18288W        W90603  42.288  14.365  14.228
18289W        W90604  42.855  35.133   2.454
18290W        W90605  14.190  37.040   0.535
18291W        W90606  34.711  32.004  12.073
18292W        W90607  16.427  14.271   4.130
18293W        W90608  42.824  20.054   3.079
18294W        W90609   3.446  26.649   1.327
18295W        W90610   1.652  22.307  11.143
18296W        W90611  14.250   9.341  12.232
18297W        W90612  37.515  18.353   2.299
18298W        W90613  10.823  19.435  11.622
18299W        W90614  14.901  30.523   3.201
18300W        W90615   5.854  15.036   3.284
18301W        W90616  16.197  39.516  10.875
18302W        W90617  17.815  29.631   4.212
18303W        W90618   7.400  11.722  12.802
18304W        W90619   4.462  34.116  12.038
18305W        W90620  22.212  12.496   4.144
18306W        W90621   4.138  18.805  14.598
18307W        W90622  11.344   4.166   0.502
18308W        W90623  15.523  19.981  11.592
18309W        W90624  14.491  16.924  10.348
18310W        W90625  28.585   7.665  13.284
18311W        W90626   8.375  10.147  12.894
18312W        W90627   3.432  18.621   2.824
18313W        W90628   5.761  35.040   2.934
18314W        W90629  41.279  29.542   0.475
18315W        W90630  10.638  24.545  12.420
18316W        W90631   5.773  29.897   4.181
18317W        W90632  15.328   0.308  14.943
18318W        W90633  31.454  31.835   0.695
18319W        W90634   1.223   9.161   0.515
18320W        W90635  44.687  18.843   1.832
18321W        W90636  32.601  37.774  13.451
18322W        W90637   4.994  33.042  12.707
18323W        W90638  42.243   3.379   2.169
18324W        W90639  39.026  33.375   0.159
18325W        W90640  34.072  41.180  13.569
18326W        W90641  15.204   6.114   2.305
18327W        W90642  32.657  32.103  11.103
18328W        W90643  10.139   9.661  11.601
18329W        W90644  17.651   3.141  11.246
18330W        W90645  13.334  22.629   1.789
18331W        W90646  42.288  10.225  12.576
18332W        W90647  30.705  33.408   0.532
18333W        W90648  29.128   0.649   1.063
18334W        W90649  27.243  41.632   0.082
18335W        W90650  36.601  40.848   2.359
18336W        W90651  42.030   4.380   2.720
18337W        W90652  35.087  14.075  12.506
18338W        W90653  12.608  43.516  14.284
18339W        W90654   0.566   5.814   4.641
18340W        W90655  40.370  10.202  11.447
18341W        W90656  18.869  10.833  13.078
18342W        W90657   5.918  24.203  10.040
18343W        W90658  15.639   5.384  10.599
18344W        W90659  24.928  15.116   2.891
18345W        W90660  38.581  36.440   0.142
18346W        W90661  36.644   1.713  13.355
18347W        W90662   7.933   2.146  10.781
18348W        W90663   1.233  40.010  14.888
18349W        W90664  35.424  30.872   0.476
18350W        W90665  18.620  16.056   4.151
18351W        W90666  39.108  42.663  11.541
18352W        W90667  32.936  38.569   1.286
18353W        W90668   1.003  14.852  14.470
18354W        W90669  18.679  38.540   1.396
18355W        W90670  39.063  14.899   0.296
18356W        W90671  10.753   4.910   2.126
18357W        W90672   4.298  35.126   2.732
18358W        W90673  21.960  21.172   1.754
18359W        W90674  29.934  38.444   3.849
18360W        W90675   5.967  43.266   4.100
18361W        W90676  23.213  40.332   2.839
18362W        W90677  21.154  26.887   0.820
18363W        W90678  40.926  26.116  11.604
18364W        W90679  28.405  24.444   4.426
18365W        W90680   9.790  16.355  12.530
18366W        W90681   5.625  33.365  11.126
18367W        W90682  35.072  15.106   4.643
18368W        W90683  19.082  16.985  11.495
18369W        W90684   3.015   6.582   4.876
18370W        W90685  22.632  28.820  10.793
18371W        W90686  25.990  32.851  13.936
18372W        W90687  11.687  10.736  11.892
18373W        W90688  13.701  41.223  11.473
18374W        W90689   8.937   7.429  12.511
18375W        W90690  20.472  42.828  12.015
18376W        W90691  14.572  41.295  12.972
18377W        W90692  39.564  28.925  11.451
18378W        W90693   6.805  42.986   5.118
18379W        W90694  34.638  43.860  14.048
18380W        W90695  30.650  26.255   1.017
18381W        W90696  24.184   3.796  11.129
18382W        W90697  18.187  41.267  12.449
18383W        W90698  25.249  27.483  14.362
18384W        W90699   4.200  43.738  11.679
18385W        W90700  16.588  39.021   5.592
18386W        W90701  40.143  19.559  11.644
18387W        W90702  32.549  44.909   4.490
18388W        W90703  44.082   5.230   3.493
18389W        W90704  16.497   9.431   0.079
18390W        W90705   7.702  12.160   2.687
18391W        W90706  11.474  17.835   2.368
18392W        W90707  33.861  11.659   1.889
18393W        W90708  43.035  23.205   5.390
18394W        W90709  36.908   2.813  11.054
18395W        W90710  16.294  42.620   4.769
18396W        W90711  20.261  15.931  12.451
18397W        W90712  26.975  15.558  13.011
18398W        W90713  36.671  29.437   0.241
18399W        W90714  25.588  23.808   4.358
18400W        W90715   4.922  28.162  11.930
18401W        W90716  34.289   0.279  14.829
18402W        W90717  43.270  43.297  14.586
18403W        W90718  36.421  22.329   2.687
18404W        W90719   5.836   3.690  14.908
18405W        W90720   1.427  27.117   3.251
18406W        W90721  13.517  34.533  11.109
18407W        W90722  16.510  24.748  13.805
18408W        W90723  43.551  15.099   1.811
18409W        W90724  28.231  37.593   0.225
18410W        W90725  40.861  17.235  14.535
18411W        W90726  32.465  37.253   1.330
18412W        W90727  43.428  36.357  13.552
18413W        W90728  14.783  26.264  14.605
18414W        W90729  28.462  19.764   1.934
18415W        W90730  38.027  41.564  12.022
18416W        W90731   4.933   0.191  14.355
18417W        W90732  11.318   3.668   1.406
18418W        W90733   2.293  15.634   0.692
18419W        W90734   2.790  33.794  11.756
18420W        W90735  28.873  22.701   1.645
18421W        W90736  25.129  14.681  13.141
18422W        W90737  20.557  38.394  11.204
18423W        W90738  42.066  44.700  10.763
18424W        W90739  21.599  20.061  14.536
18425W        W90740  35.362  11.108   1.408
18426W        W90741  27.036  30.973  13.509
18427W        W90742   0.074   0.442  13.127
18428W        W90743  38.851  42.871  14.663
18429W        W90744  13.114  40.700   5.046
18430W        W90745  35.106  31.574   4.524
18431W        W90746  11.847  34.670  14.918
18432W        W90747  15.085  34.610   0.626
18433W        W90748   0.771  12.323   4.158
18434W        W90749   9.274   8.183  12.962
18435W        W90750   8.106  35.871  11.888
18436W        W90751  37.295  22.089  11.570
18437W        W90752   3.489  40.530  11.684
18438W        W90753   5.275   6.690   3.699
18439W        W90754  10.772  12.654   5.098
18440W        W90755  25.558  38.981   0.400
18441W        W90756  23.533  37.308   1.466
18442W        W90757   2.389  21.786   3.257
18443W        W90758   7.352  41.154  12.518
18444W        W90759  18.791   3.831  14.718
18445W        W90760  43.857  12.117   1.807
18446W        W90761  17.117  22.615  12.485
18447W        W90762  41.821  35.409   2.675
18448W        W90763  13.988  13.803  11.967
18449W        W90764  29.896  44.395   2.722
18450W        W90765  40.096   7.884   3.134
18451W        W90766   0.765  15.129  14.097
18452W        W90767  19.428   4.145   1.814
18453W        W90768  21.640  16.623   1.519
18454W        W90769  27.034   3.346  12.982
18455W        W90770   2.883  19.479   1.408
18456W        W90771  44.964   3.505  12.555
18457W        W90772  14.618  19.302  11.594
18458W        W90773  38.439  10.088  12.862
18459W        W90774  14.096  13.897   0.459
18460W        W90775  37.024  43.791  13.990
18461W        W90776  42.438  29.420   1.439
18462W        W90777  42.068  43.983  14.160
18463W        W90778  24.297  22.251  11.378
18464W        W90779  42.459  27.198  14.729
18465W        W90780  17.202  15.702  11.184
18466W        W90781  24.394   8.786   0.989
18467W        W90782  41.000  40.730  11.122
18468W        W90783  17.986  24.508  14.852
18469W        W90784  18.102  29.405   4.608
18470W        W90785  29.096  39.778   0.289
18471W        W90786  33.434  33.411  14.370
18472W        W90787  39.856  32.501   0.716
18473W        W90788  36.610  24.565   3.804
18474W        W90789  25.557  10.611   1.955
18475W        W90790   0.753   9.598  11.992
18476W        W90791  33.016  29.924   4.308
18477W        W90792  14.973   6.295  10.842
18478W        W90793  24.566  41.646   3.765
18479W        W90794   7.347  14.599  13.149
18480W        W90795  10.899  10.424  12.329
18481W        W90796  40.984  12.584  10.577
18482W        W90797  34.378  17.507  10.578
18483W        W90798  25.820  41.549  13.043
18484W        W90799  21.452   4.735  14.017
18485W        W90800  16.527  35.430   2.783
18486W        W90801   2.110  23.520   4.170
18487W        W90802  20.092  10.975   4.195
18488W        W90803  30.607  14.238   4.135
18489W        W90804  22.232   6.111  14.590
18490W        W90805   3.749  14.194  11.137
18491W        W90806  28.550  16.142  14.865
18492W        W90807  25.086   3.120   1.835
18493W        W90808   4.190   6.211   3.315
18494W        W90809  25.119  36.978   3.347
18495W        W90810  33.964  38.312  14.335
18496W        W90811  30.355   6.658  13.526
18497W        W90812   6.147   9.891   2.103
18498W        W90813  29.799   3.604  12.255
18499W        W90814   0.395  20.965   0.026
18500W        W90815  43.821   3.893   3.827
18501W        W90816  20.774  17.698  12.569
18502W        W90817  35.603  17.230  14.821
18503W        W90818  27.409  11.884   4.875
18504W        W90819  10.392  37.405  12.614
18505W        W90820  21.324   7.696  14.716
18506W        W90821  31.999  27.251   0.720
18507W        W90822   4.811  12.281  12.887
18508W        W90823  40.163  41.573  11.971
18509W        W90824  37.130  18.599   2.762
18510W        W90825  19.321  35.786  11.972
18511W        W90826   9.094  27.078  10.589
18512W        W90827  37.830  24.721  11.839
18513W        W90828  12.479  24.631  13.705
18514W        W90829  28.061  32.542  10.682
18515W        W90830   3.394  17.279   3.327
18516W        W90831   5.948  40.543  13.587
18517W        W90832  13.744  24.247   2.893
18518W        W90833  11.819   3.249   4.111
18519W        W90834  35.089  36.477   4.508
18520W        W90835  16.143  37.012  14.887
18521W        W90836   6.215  19.128  13.856
18522W        W90837  10.798   9.168   3.875
18523W        W90838  14.396  17.748   0.671
18524W        W90839  19.722  39.368   4.895
18525W        W90840  25.453  17.271   0.721
18526W        W90841  16.686  22.464   0.813
18527W        W90842   0.265   6.009   1.190
18528W        W90843  31.095  23.688  11.013
18529W        W90844  25.261   3.607  13.539
18530W        W90845  41.355  44.486  13.373
18531W        W90846  13.077  24.587  10.767
18532W        W90847  27.410  42.723  12.508
18533W        W90848   4.561  21.017   5.340
18534W        W90849  16.675  13.832  11.248
18535W        W90850  33.917  36.426   2.259
18536W        W90851  24.746   0.576   1.182
18537W        W90852  20.585  36.107  12.532
18538W        W90853  16.120  21.579  13.939
18539W        W90854  31.859  39.371  11.555
18540W        W90855   3.695  42.929  11.595
18541W        W90856  10.684   4.695  13.373
18542W        W90857  36.731   9.251  13.958
18543W        W90858  34.862  31.474  12.418
18544W        W90859  26.827   8.287   0.038
18545W        W90860   4.290  44.441   2.729
18546W        W90861  18.551  39.157  14.937
18547W        W90862  33.941  13.068   0.042
18548W        W90863   5.129   4.473  14.077
18549W        W90864   1.531  42.948   5.058
18550W        W90865  28.764  31.122   2.229
18551W        W90866  30.617   5.384  11.279
18552W        W90867  25.614  34.513   3.186
18553W        W90868  28.690  17.671  10.680
18554W        W90869   6.885  37.437   1.253
18555W        W90870  29.663   5.162   0.523
18556W        W90871  30.028  33.842   0.708
18557W        W90872  14.533   6.808   4.678
18558W        W90873  37.537  41.446  12.148
18559W        W90874   0.354  42.817  10.360
18560W        W90875  31.268   0.765  13.440
18561W        W90876  17.823  24.115  10.799
18562W        W90877  31.552  38.812  14.268
18563W        W90878  18.688  28.142  10.250
18564W        W90879  41.064   0.003   2.760
18565W        W90880  44.726   1.002  13.928
18566W        W90881   1.398  14.671   2.320
18567W        W90882  16.783   0.328   2.004
18568W        W90883  10.555  39.885  11.481
18569W        W90884  26.259  31.581   3.766
18570W        W90885  19.144  38.809  12.384
18571W        W90886   3.903  26.881   2.295
18572W        W90887  44.960  10.166   1.799
18573W        W90888  17.702  11.349  12.637
18574W        W90889  24.143  25.990  13.388
18575W        W90890  22.310   7.659  14.907
18576W        W90891   8.347  11.391  11.663
18577W        W90892  34.115  42.458   3.861
18578W        W90893   5.350   1.289   2.203
18579W        W90894   4.296  39.552  11.579
18580W        W90895  36.250  12.309   4.713
18581W        W90896  17.698  39.610  13.433
18582W        W90897  42.488  44.875   1.161
18583W        W90898   7.974   6.767  13.069
18584W        W90899   8.448   0.932   2.442
18585W        W90900  28.217  21.382   5.068
18586W        W90901  24.710  41.954  11.036
18587W        W90902  27.236   0.473   3.696
18588W        W90903  41.464  18.575  11.121
18589W        W90904  28.077   0.778   3.338
18590W        W90905   1.379  31.647   0.851
18591W        W90906   0.817  13.729   2.667
18592W        W90907  20.705  29.687  11.557
18593W        W90908  36.427   8.405   3.203
18594W        W90909   6.643  10.778   4.101
18595W        W90910  19.661  10.321  13.795
18596W        W90911   1.014  27.590   4.136
18597W        W90912  17.701  44.918   2.408
18598W        W90913   6.414  36.041  11.082
18599W        W90914   0.897  36.451   2.136
18600W        W90915  27.032  42.534   1.989
18601W        W90916   6.435  39.967   1.718
18602W        W90917  33.094  37.898  14.221
18603W        W90918  34.869  40.428   3.277
18604W        W90919   0.534  10.678   1.509
18605W        W90920  30.513  39.590   3.143
18606W        W90921  35.984  14.401   3.214
18607W        W90922  18.945  22.744  13.913
18608W        W90923   5.008  33.051   3.252
18609W        W90924  38.097   3.756   2.921
18610W        W90925  24.031  12.628   0.435
18611W        W90926   3.749  22.529   0.907
18612W        W90927  17.637  37.296  12.985
18613W        W90928  25.783  36.572   2.883
18614W        W90929  35.066  33.569  12.568
18615W        W90930  30.591   6.690   1.337
18616W        W90931   1.544  44.820   0.261
18617W        W90932  20.573   2.698   0.248
18618W        W90933  15.607   4.231  14.394
18619W        W90934  24.431  33.765   3.598
18620W        W90935  12.765   0.911  12.641
18621W        W90936  40.623  37.468  11.209
18622W        W90937  42.440  13.896  14.397
18623W        W90938  43.681  34.961  11.979
18624W        W90939  26.609  12.009   2.251
18625W        W90940  28.034   3.944  14.942
18626W        W90941   1.745  42.892  13.350
18627W        W90942  18.082  19.205   3.194
18628W        W90943  10.936   1.230  13.868
18629W        W90944  41.901  31.508  12.572
18630W        W90945  44.090  40.880   0.136
18631W        W90946  12.108  28.206   2.389
18632W        W90947  27.662  17.990   3.818
18633W        W90948  20.707   6.844  13.947
18634W        W90949  36.746  13.296  14.832
18635W        W90950  24.212  29.608   1.727
18636W        W90951  43.537  24.626   0.623
18637W        W90952  39.834  11.763   4.433
18638W        W90953  33.846  29.783  11.679
18639W        W90954  17.802  14.172   0.707
18640W        W90955  25.158  16.066   2.747
18641W        W90956  43.046  24.049   3.577
18642W        W90957   2.261  24.213   0.396
18643W        W90958   5.154  24.766  13.395
18644W        W90959  39.297  36.502   0.779
18645W        W90960  19.055  42.371  14.846
18646W        W90961  37.478  28.399   0.936
18647W        W90962  18.606  18.290  11.193
18648W        W90963  29.444  38.279  14.387
18649W        W90964  42.548  40.789  14.831
18650W        W90965  38.475  37.379  12.953
18651W        W90966  33.253  10.837  13.469
18652W        W90967  43.404   8.174  14.442
18653W        W90968  39.878  12.630   4.021
18654W        W90969   4.283  39.542  10.673
18655W        W90970  11.603  26.687   1.728
18656W        W90971  16.224  18.140  13.551
18657W        W90972   4.189  13.811  14.309
18658W        W90973   0.866  30.536   2.631
18659W        W90974  10.648  12.567   1.456
18660W        W90975  35.299   9.891   0.845
18661W        W90976  10.793  43.037   1.664
18662W        W90977  20.232   6.148   3.584
18663W        W90978  38.567  42.600  12.402
18664W        W90979   7.063  28.573   3.263
18665W        W90980  22.490  16.710   3.609
18666W        W90981  26.984  20.665   2.694
18667W        W90982   0.363  30.697   0.307
18668W        W90983  35.521   4.964   4.140
18669W        W90984  22.951   6.133   4.178
18670W        W90985  26.035  34.632  12.581
18671W        W90986  33.927  18.784   3.312
18672W        W90987  30.909  25.791   0.374
18673W        W90988  44.236  30.052   4.977
18674W        W90989  27.183  14.558   0.536
18675W        W90990  18.990  30.240   3.991
18676W        W90991  18.379  38.464   9.969
18677W        W90992   0.730  24.643   1.230
18678W        W90993  10.447   8.182   4.091
18679W        W90994  43.820   8.405  12.292
18680W        W90995  29.081  17.596   4.603
18681W        W90996  38.237  12.086   1.793
18682W        W90997  22.281   2.305   0.354
18683W        W90998  38.616  11.343  11.935
18684W        W90999  10.095  32.717  11.638
18685W        W91000  28.483  24.264   3.209
18686W        W91001  31.212  24.176  11.677
18687W        W91002  33.761   8.588  14.821
18688W        W91003  17.136   5.267  11.526
18689W        W91004   1.904   2.996  12.303
18690W        W91005   2.925   9.128  14.403
18691W        W91006  19.720  30.018  11.986
18692W        W91007  22.621  44.314   0.746
18693W        W91008  28.454   0.982   2.266
18694W        W91009  40.589   6.712   3.315
18695W        W91010   5.441  14.737   2.441
18696W        W91011  16.749  17.346   1.337
18697W        W91012  30.003  25.148  13.441
18698W        W91013  41.112   3.411  14.389
18699W        W91014   9.477  17.101  12.212
18700W        W91015   3.807  20.290  13.776
18701W        W91016  34.539   0.857   3.570
18702W        W91017  30.895   5.160  14.835
18703W        W91018  22.732  43.405  14.099
18704W        W91019  21.116  19.325  13.175
18705W        W91020  37.550  31.875   2.682
18706W        W91021  24.750  41.007   2.782
18707W        W91022  10.270   4.973  11.899
18708W        W91023  31.160  38.221   0.108
18709W        W91024  35.619  11.746   3.099
18710W        W91025   8.397  26.208   0.725
18711W        W91026  32.022   5.924  11.940
18712W        W91027  10.342  21.906  10.501
18713W        W91028  29.789  19.568  12.744
18714W        W91029  29.884  18.980  12.047
18715W        W91030  39.511  36.390   1.295
18716W        W91031  21.640  32.052  13.455
18717W        W91032  15.709  31.459  10.658
18718W        W91033  26.621  17.150  11.500
18719W        W91034  42.563  41.937  14.323
18720W        W91035  34.568  19.717   0.432
18721W        W91036   0.828  17.232   4.217
18722W        W91037  38.603  20.615  12.434
18723W        W91038  40.500  32.080  10.692
18724W        W91039  13.575  39.332  11.059
18725W        W91040  41.253  34.300  12.940
18726W        W91041  10.077  25.618   3.809
18727W        W91042  19.078  31.690  13.370
18728W        W91043   0.726  39.851   2.153
18729W        W91044  18.643  26.432  11.127
18730W        W91045  20.378  23.877   0.549
18731W        W91046   2.409  17.638   3.542
18732W        W91047  19.159  19.281   4.333
18733W        W91048  14.566  28.703  13.276
18734W        W91049  18.126   3.233   3.054
18735W        W91050  12.571  27.559   2.850
18736W        W91051  24.266  15.815  12.866
18737W        W91052  30.069  24.136  10.655
18738W        W91053  32.531   0.442   4.548
18739W        W91054  13.131  20.155  11.908
18740W        W91055  33.907  14.706   2.709
18741W        W91056  13.041  42.769   1.395
18742W        W91057  28.547  17.635  11.974
18743W        W91058  35.888  16.554   2.289
18744W        W91059  22.637   7.119  11.713
18745W        W91060  30.356  19.778   3.375
18746W        W91061  12.570   4.382   2.653
18747W        W91062  19.791  43.775   2.657
18748W        W91063  21.171  33.205  11.077
18749W        W91064  27.339   7.800   2.884
18750W        W91065  29.014  28.140   0.691
18751W        W91066  14.786   2.201   1.903
18752W        W91067  28.520  41.448   4.488
18753W        W91068  20.004  28.416   3.323
18754W        W91069  17.154  30.222  12.910
18755W        W91070  10.807  23.068   0.392
18756W        W91071  30.927  31.727  14.512
18757W        W91072  30.024   6.245   2.782
18758W        W91073   1.004   2.841   4.129
18759W        W91074  33.583   6.265   3.131
18760W        W91075  25.623  28.817  10.001
18761W        W91076  36.583  35.560   3.244
18762W        W91077  44.033  44.860  14.101
18763W        W91078  36.038   1.027   0.394
18764W        W91079  41.603  17.906  12.420
18765W        W91080  31.682  44.435  12.194
18766W        W91081  15.639  22.138  13.872
18767W        W91082  15.087   8.686  14.803
18768W        W91083  44.748  42.044  13.016
18769W        W91084  30.640  18.371  13.672
18770W        W91085   6.420  16.251  11.482
18771W        W91086  20.551  29.391   1.237
18772W        W91087  32.120  24.330   1.234
18773W        W91088  24.033  13.880  14.354
18774W        W91089  33.593  43.858   4.956
18775W        W91090  23.529   1.121  13.790
18776W        W91091  29.350   9.793  11.154
18777W        W91092  10.251  42.337  14.838
18778W        W91093   8.404  41.246  12.372
18779W        W91094  11.676   4.882   1.693
18780W        W91095  21.169  21.232   4.612
18781W        W91096   8.132  23.587   2.103
18782W        W91097   9.128  35.549   4.348
18783W        W91098  29.629  27.735   1.733
18784W        W91099  29.326  22.633   0.824
18785W        W91100  13.143  19.521   0.456
18786W        W91101  31.708   4.617   1.335
18787W        W91102  32.961  40.345   3.835
18788W        W91103  12.064  30.638   0.270
18789W        W91104   9.397  33.127   2.230
18790W        W91105  11.238  38.875   1.075
18791W        W91106  36.344  24.054  11.076
18792W        W91107  39.413  10.196  14.355
18793W        W91108  24.692  44.535  12.131
18794W        W91109  17.225  27.525   3.172
18795W        W91110  27.443  41.181  11.509
18796W        W91111  41.404   6.623   4.842
18797W        W91112  19.184  32.858  14.812
18798W        W91113  44.373  13.902   4.763
18799W        W91114  38.756   3.758  12.299
18800W        W91115   7.157   6.844  11.888
18801W        W91116  21.603  12.732  12.482
18802W        W91117  16.801  13.513  14.044
18803W        W91118  35.198  36.554  11.931
18804W        W91119  44.369  36.295   0.494
18805W        W91120  15.284  37.341   0.001
18806W        W91121  31.156  26.974   4.906
18807W        W91122   4.563  14.084  12.181
18808W        W91123  13.742   0.051   2.827
18809W        W91124   1.346  31.245   1.193
18810W        W91125  44.395  22.151  11.208
18811W        W91126  37.150  14.324   0.733
18812W        W91127   3.666   1.747  13.581
18813W        W91128  35.848  12.087  11.118
18814W        W91129  37.071  15.696  14.851
18815W        W91130   5.399  16.144  12.662
18816W        W91131  24.517  33.008  11.723
18817W        W91132  19.069   9.969  13.391
18818W        W91133  26.370  35.920  11.417
18819W        W91134  23.705  10.658   4.224
18820W        W91135  27.572  27.962  13.817
18821W        W91136   2.646  42.200  14.931
18822W        W91137  37.482  36.358  10.707
18823W        W91138  12.872  12.805   0.332
18824W        W91139  10.364  34.302   3.140
18825W        W91140  16.691  13.356  10.496
18826W        W91141  39.577  13.800  11.102
18827W        W91142  11.296   1.386  14.949
18828W        W91143  23.199  14.712   2.860
18829W        W91144   0.193  23.539  14.468
18830W        W91145  24.786  20.614  14.884
18831W        W91146   9.945  13.854  14.771
18832W        W91147   3.447  34.077   2.340
18833W        W91148  10.133  14.745  12.009
18834W        W91149  41.798  27.846  11.475
18835W        W91150  13.280   1.024  12.491
18836W        W91151  23.540  43.918   0.836
18837W        W91152  25.739  13.583  13.514
18838W        W91153   8.257  34.930  12.942
18839W        W91154  22.809  43.392   3.503
18840W        W91155  16.756  24.568  12.115
18841W        W91156  33.986  35.489  13.524
18842W        W91157  14.036   2.389  14.945
18843W        W91158  33.134   8.598   1.162
18844W        W91159  23.160  29.618  13.909
18845W        W91160   0.529  39.343  14.961
18846W        W91161  36.970   2.331  11.225
18847W        W91162  37.622  41.936  11.377
18848W        W91163   0.444  11.667  13.202
18849W        W91164  28.258  33.828   9.809
18850W        W91165  18.832  43.310  11.628
18851W        W91166  22.188  44.477  11.664
18852W        W91167  19.594  37.451   0.218
18853W        W91168  17.772  22.579   1.992
18854W        W91169  33.738  10.372   1.425
18855W        W91170  41.013   7.133  11.544
18856W        W91171  33.383  12.184   2.706
18857W        W91172  15.131  12.146  14.398
18858W        W91173  29.064   5.238   3.969
18859W        W91174  28.315  43.047   5.150
18860W        W91175  22.830  29.615  14.336
18861W        W91176  40.236  33.592  12.824
18862W        W91177  21.550  11.558   3.099
18863W        W91178   6.794  39.693  13.145
18864W        W91179  18.304   6.422  11.431
18865W        W91180  34.980  17.153  14.565
18866W        W91181  30.670   6.240  13.428
18867W        W91182  43.200   0.884   0.843
18868W        W91183  43.926  42.517  14.029
18869W        W91184  15.574   3.863   2.711
18870W        W91185  28.941   1.814   4.163
18871W        W91186  12.374   4.402  14.032
18872W        W91187  10.300  43.890  11.816
18873W        W91188  15.339  27.989  13.598
18874W        W91189  28.564   9.968   4.125
18875W        W91190  25.241  22.754   5.039
18876W        W91191  22.258  33.136   1.272
18877W        W91192  37.583  37.641   2.811
18878W        W91193   0.796  28.243   1.227
18879W        W91194  17.034   8.237   3.363
18880W        W91195  36.770  23.562   3.708
18881W        W91196  23.140  18.184   5.103
18882W        W91197   2.469  31.880   2.893
18883W        W91198  11.520  39.852   0.365
18884W        W91199  43.705  11.766   3.689
18885W        W91200   3.280   1.023   1.499
18886W        W91201  36.728  21.251   2.906
18887W        W91202  29.895  20.381   2.344
18888W        W91203  10.386   2.996   1.608
18889W        W91204  18.493  27.080  14.006
18890W        W91205  15.386  23.861   0.706
18891W        W91206   1.965   4.971   3.653
18892W        W91207  26.710  21.870   3.750
18893W        W91208   8.015  21.560  11.817
18894W        W91209   5.139  43.642  12.393
18895W        W91210  10.353   0.572   5.060
18896W        W91211  31.973  20.096  11.022
18897W        W91212  36.420  12.643   2.451
18898W        W91213  41.974  14.296  11.086
18899W        W91214  19.522  35.789   2.634
18900W        W91215  19.303   2.568  13.473
18901W        W91216  13.411  27.242  12.021
18902W        W91217   4.663  33.978  13.070
18903W        W91218  16.731  41.920   2.893
18904W        W91219   1.750   3.987  10.496
18905W        W91220   1.160  14.710   4.226
18906W        W91221   1.402  30.202  11.099
18907W        W91222  18.062  34.345   2.411
18908W        W91223  24.653  18.963  11.969
18909W        W91224  26.247  14.785  14.428
18910W        W91225  33.073  20.005  10.750
18911W        W91226   4.776   9.851   0.747
18912W        W91227  13.869  37.417   1.798
18913W        W91228   5.032  39.135   1.023
18914W        W91229  15.385  36.594  13.470
18915W        W91230  11.666  36.867  11.053
18916W        W91231   4.405  19.105   0.392
18917W        W91232  13.367   6.412  12.483
18918W        W91233  18.754   0.843  10.356
18919W        W91234  22.407  36.069   0.294
18920W        W91235  37.400  38.066  11.187
18921W        W91236  13.160  29.159   2.243
18922W        W91237  35.951  28.931   0.408
18923W        W91238  18.762  24.195  10.702
18924W        W91239  43.930  32.483   0.330
18925W        W91240  42.862   9.117   1.261
18926W        W91241   7.941  44.766  12.041
18927W        W91242  43.316  26.940  14.187
18928W        W91243   9.742  25.606  12.442
18929W        W91244  33.896  21.443   2.960
18930W        W91245  33.414  10.635  11.010
18931W        W91246  26.947  30.455   1.251
18932W        W91247  36.120   3.230  14.443
18933W        W91248  15.790  18.050  13.963
18934W        W91249  15.590   9.834  11.087
18935W        W91250  12.816  10.419  13.994
18936W        W91251  21.154  44.835   3.917
18937W        W91252  16.952  20.709   1.585
18938W        W91253  32.830  14.762  12.121
18939W        W91254  18.616  31.615  12.059
18940W        W91255  15.333  35.378   3.684
18941W        W91256  37.119  15.419  14.401
18942W        W91257  27.103  37.430   3.083
18943W        W91258  12.754   6.354   3.348
18944W        W91259  25.121  32.044   1.341
18945W        W91260   9.955   2.212   2.813
18946W        W91261  35.420  22.020  14.584
18947W        W91262   9.384  16.726   9.781
18948W        W91263   6.895  22.097   2.756
18949W        W91264  24.258   9.726  13.695
18950W        W91265   6.087   3.672   3.897
18951W        W91266  10.941  36.450  14.381
18952W        W91267  34.924  32.165   2.321
18953W        W91268  36.444   5.639   3.736
18954W        W91269  17.611  27.860   0.249
18955W        W91270  33.079  30.845  11.920
18956W        W91271  37.266  24.980   4.272
18957W        W91272  32.685   1.898  13.393
18958W        W91273  23.588  34.342   3.273
18959W        W91274  44.935  29.467  14.271
18960W        W91275  31.520  14.161  14.791
18961W        W91276   6.358  37.459   3.558
18962W        W91277  44.424  44.335  11.693
18963W        W91278  34.908  31.983  13.112
18964W        W91279  27.855   7.814   4.570
18965W        W91280  15.517  41.592   0.880
18966W        W91281  23.930  37.782   1.952
18967W        W91282   8.364  28.748   3.736
18968W        W91283   1.841  18.425   2.475
18969W        W91284  32.606  30.186  11.173
18970W        W91285  42.882   1.289   0.837
18971W        W91286  39.041   5.849   3.840
18972W        W91287  29.153  10.635  14.946
18973W        W91288   1.381  27.220  10.674
18974W        W91289  31.955  42.005  10.962
18975W        W91290   2.871  29.848  12.492
18976W        W91291  10.140  22.827  13.980
18977W        W91292  10.453  41.633   2.658
18978W        W91293  31.286  27.224   1.184
18979W        W91294  36.065  33.375   4.116
18980W        W91295  40.529  32.575  12.843
18981W        W91296  40.213  30.527   2.981
18982W        W91297   5.923  30.520   0.325
18983W        W91298  26.956  31.525  13.516
18984W        W91299   6.567  36.545   1.811
18985W        W91300  32.882  26.444   1.543
18986W        W91301  14.403  22.333   3.265
18987W        W91302  25.833   9.349   4.724
18988W        W91303  35.515  24.498   0.722
18989W        W91304  41.571  17.381  12.482
18990W        W91305  33.017  18.212   1.717
18991W        W91306  23.800  34.543  11.959
18992W        W91307  10.833  40.160  13.896
18993W        W91308   0.134  37.076  14.263
18994W        W91309  32.491  20.719  11.560
18995W        W91310  24.868  13.880  12.060
18996W        W91311  34.157  44.038  14.044
18997W        W91312  15.093  42.274   3.598
18998W        W91313  12.199   1.207   4.899
18999W        W91314  21.566  20.541   4.292
19000W        W91315   6.446  11.164   2.182
19001W        W91316  41.981  37.518   1.906
19002W        W91317  44.238  31.123  10.709
19003W        W91318  11.406   2.471   1.784
19004W        W91319   6.112  41.035  13.646
19005W        W91320   3.421  15.613   1.403
19006W        W91321  17.211  36.579   1.531
19007W        W91322  11.299  33.067   1.800
19008W        W91323  14.619   7.650  13.335
19009W        W91324  37.986   3.311   4.190
19010W        W91325  41.930  15.740   3.827
19011W        W91326  13.338   5.397   2.628
19012W        W91327  19.163  20.599   4.696
19013W        W91328   1.389  11.685  10.944
19014W        W91329   5.030   5.277  11.119
19015W        W91330  31.328  42.769  13.438
19016W        W91331  32.022  39.961   4.933
19017W        W91332  17.177  19.800  13.492
19018W        W91333  26.590  44.866   3.704
19019W        W91334  13.771   9.283   1.978
19020W        W91335   9.647   6.447   1.786
19021W        W91336  38.569  23.342   9.786
19022W        W91337  43.271  20.529   4.209
19023W        W91338  39.848  37.355   0.918
19024W        W91339  21.286  19.626  10.485
19025W        W91340  44.448  17.623  12.152
19026W        W91341   7.019  38.491  14.942
19027W        W91342   2.245  33.770   1.413
19028W        W91343  17.084   4.273  12.460
19029W        W91344   4.304  12.751  14.446
19030W        W91345  37.505  38.429  14.036
19031W        W91346   0.054   8.255   0.362
19032W        W91347  29.432   2.200   2.295
19033W        W91348   5.703  41.848   1.862
19034W        W91349  32.603   9.833  13.951
19035W        W91350  11.555   9.570   0.173
19036W        W91351  36.108  37.456  13.888
19037W        W91352  36.815  29.919  14.345
19038W        W91353  41.751   2.864  13.412
19039W        W91354  18.538   7.814  10.614
19040W        W91355  24.512  22.253   5.092
19041W        W91356  26.995  23.669  14.777
19042W        W91357  14.022  36.612  13.123
19043W        W91358  42.999  21.637   4.129
19044W        W91359  15.548   6.799   2.323
19045W        W91360  33.359  28.569  13.758
19046W        W91361   2.695  17.280  10.735
19047W        W91362  38.364  30.585  11.996
19048W        W91363   2.410  41.725   4.216
19049W        W91364  17.159  40.065   4.488
19050W        W91365  17.178  10.296  13.954
19051W        W91366  10.427  13.652  11.585
19052W        W91367  10.631  40.044   0.705
19053W        W91368  20.725  40.837  13.813
19054W        W91369  12.230  39.842   2.557
19055W        W91370  21.617  32.966  13.722
19056W        W91371   1.902  13.318   0.391
19057W        W91372  31.848  29.894  13.321
19058W        W91373   3.285  34.511  12.023
19059W        W91374  22.519  36.569   3.198
19060W        W91375  41.303  37.160  10.690
19061W        W91376  40.086  14.221  13.187
19062W        W91377  42.584  33.807  14.155
19063W        W91378  41.800   4.343   0.381
19064W        W91379  37.828  11.107  11.922
19065W        W91380  11.686   0.768  14.352
19066W        W91381  19.708  10.266   3.481
19067W        W91382  33.852  21.183  13.553
19068W        W91383  32.022   3.492   0.384
19069W        W91384  28.562  12.268  12.297
19070W        W91385  11.323  41.038  14.242
19071W        W91386   8.594  23.410   2.835
19072W        W91387  38.459  38.091   3.257
19073W        W91388  36.932  31.483  12.310
19074W        W91389  26.071  41.623   3.878
19075W        W91390   8.389  42.294  13.292
19076W        W91391   5.221   1.820  14.047
19077W        W91392  10.324   2.584   1.285
19078W        W91393  21.394  13.040   2.336
19079W        W91394  17.527  28.388  12.976
19080W        W91395  10.392  23.753   0.943
19081W        W91396  10.289  10.224   3.384
19082W        W91397  39.502  39.284   0.876
19083W        W91398  17.274  38.929  11.085
19084W        W91399  10.184   4.248  14.548
19085W        W91400  27.621   9.593   4.129
19086W        W91401  25.227  17.793  14.836
19087W        W91402  42.335  31.006   3.414
19088W        W91403   7.766  28.911  12.657
19089W        W91404  39.397  15.172  10.701
19090W        W91405  21.683  24.292  11.932
19091W        W91406  15.834  32.455  11.620
19092W        W91407   7.713  25.887   2.923
19093W        W91408  44.404  21.064  11.132
19094W        W91409   5.465  19.334   2.247
19095W        W91410   8.817  40.765  10.642
19096W        W91411  24.067  17.165  10.774
19097W        W91412   0.794  16.689   0.329
19098W        W91413  10.294  17.666   4.861
19099W        W91414   5.888   4.919  12.409
19100W        W91415  40.852  25.128   2.049
19101W        W91416  37.632  14.296   0.942
19102W        W91417  36.952  39.013  12.847
19103W        W91418  14.028  42.976   1.719
19104W        W91419  30.884   2.407  12.844
19105W        W91420  12.662  31.410   0.528
19106W        W91421  30.973  31.978  14.035
19107W        W91422  16.652   7.457  13.281
19108W        W91423   1.718  23.265   4.883
19109W        W91424  10.150  35.634  12.793
19110W        W91425   6.307   7.232  10.552
19111W        W91426  18.365  32.214   0.393
19112W        W91427  18.318  37.755   0.702
19113W        W91428  32.373   4.838   4.611
19114W        W91429   7.567  17.105  12.484
19115W        W91430  18.233  44.114   0.012
19116W        W91431  22.163  27.916  13.109
19117W        W91432  17.492  33.069   4.174
19118W        W91433  20.597  34.230  11.403
19119W        W91434  16.853  31.435   2.757
19120W        W91435   6.865  12.148  12.125
19121W        W91436  19.812  43.441  14.401
19122W        W91437  11.453  39.024   0.146
19123W        W91438  34.141  22.230   0.245
19124W        W91439  28.047  19.869  12.173
19125W        W91440  15.233  26.377   0.892
19126W        W91441   1.212   4.145  12.509
19127W        W91442   4.477  17.406   0.198
19128W        W91443  25.473  10.191   3.750
19129W        W91444  20.225  10.322   1.800
19130W        W91445  18.981  35.248   1.919
19131W        W91446  19.651   0.387  14.401
19132W        W91447  42.714   9.955   2.787
19133W        W91448  28.465  17.034   3.692
19134W        W91449  26.654  13.775   2.420
19135W        W91450  39.852   1.169   4.731
19136W        W91451  21.474  31.645  14.376
19137W        W91452   9.936  29.094   2.218
19138W        W91453  24.959  22.641   0.418
19139W        W91454   2.254   6.753  14.241
19140W        W91455  31.614   1.752   2.171
19141W        W91456  15.259   4.264  12.496
19142W        W91457   1.280  23.149  12.358
19143W        W91458  31.443  44.966   0.439
19144W        W91459  43.348  34.981  12.369
19145W        W91460  39.685  38.802  12.842
19146W        W91461  33.950   3.072   4.644
19147W        W91462   3.682  31.394   4.726
19148W        W91463   1.470   2.261   1.352
19149W        W91464  25.199  42.825  11.048
19150W        W91465   3.861  44.890  10.698
19151W        W91466  12.238  44.257   4.275
19152W        W91467  32.148  44.925  10.611
19153W        W91468  18.438  37.964   9.876
19154W        W91469  35.136  27.888   2.270
19155W        W91470  14.782   0.862  13.182
19156W        W91471  29.857  11.210  13.599
19157W        W91472  15.791  36.527   2.668
19158W        W91473  41.959  40.584  11.641
19159W        W91474  41.489  26.672  13.495
19160W        W91475  18.895  19.831  13.821
19161W        W91476  14.913  22.580   4.287
19162W        W91477   5.805  16.051  12.987
19163W        W91478  15.151   8.369  13.523
19164W        W91479   5.477  29.928   2.397
19165W        W91480  30.954  24.750   3.141
19166W        W91481  27.616  34.249  14.856
19167W        W91482   3.921  18.446  11.602
19168W        W91483  19.042   7.692  10.632
19169W        W91484   1.046  38.370   2.355
19170W        W91485  32.327   5.789  10.684
19171W        W91486  37.610  44.457   0.221
19172W        W91487   0.059   2.789   4.840
19173W        W91488  12.190  37.423  10.594
19174W        W91489  19.580  18.103  12.055
19175W        W91490   6.329  39.695  10.221
19176W        W91491  39.724  32.905   0.405
19177W        W91492  24.749  29.304   3.501
19178W        W91493  23.968  29.967  12.426
19179W        W91494  37.158  27.925   3.846
19180W        W91495  20.225  25.274  12.246
19181W        W91496   8.541   0.982   3.884
19182W        W91497  10.400   6.217   0.368
19183W        W91498  21.508   1.202  10.656
19184W        W91499  10.193  33.118  12.594
19185W        W91500  33.599   1.693   1.414
19186W        W91501  15.162   6.316   3.336
19187W        W91502   8.304  35.387   3.631
19188W        W91503  31.381  22.087  11.440
19189W        W91504  30.985   2.241  13.876
19190W        W91505  38.569  11.836  12.191
19191W        W91506  25.488  32.850  11.641
19192W        W91507  35.433  24.945  13.934
19193W        W91508   5.411   5.699  11.172
19194W        W91509  10.932   7.777  13.462
19195W        W91510   2.868  16.209   0.179
19196W        W91511   7.246  26.267  14.823
19197W        W91512  15.559  41.561   3.667
19198W        W91513  36.730  12.064   3.542
19199W        W91514  29.390  44.979   2.235
19200W        W91515  25.109  27.969   3.618
19201W        W91516   6.480  33.099   1.327
19202W        W91517  39.113  29.477  10.892
19203W        W91518   8.217  43.886   0.474
19204W        W91519  21.141  31.873  12.499
19205W        W91520  25.079  36.973  13.816
19206W        W91521  37.455  36.849  10.577
19207W        W91522  15.884  32.589   4.967
19208W        W91523  10.891  41.356   2.747
19209W        W91524  13.583   2.651   4.577
19210W        W91525  41.269  20.647  13.966
19211W        W91526  21.691   4.153   3.820
19212W        W91527  30.006  40.977  12.505
19213W        W91528  25.571  30.475   0.833
19214W        W91529  38.393   0.357   2.556
19215W        W91530  27.286  33.913  10.908
19216W        W91531  34.276  29.370  12.007
19217W        W91532  31.575  15.208  13.791
19218W        W91533  28.512  33.867   1.651
19219W        W91534  19.529  36.802   3.533
19220W        W91535   1.412  38.780   0.357
19221W        W91536  17.297  22.006   2.753
19222W        W91537   9.661  18.793   2.375
19223W        W91538  32.030  41.482  14.333
19224W        W91539   9.099  33.160  14.874
19225W        W91540   0.813  31.198  10.669
19226W        W91541  27.557  37.407  13.392
19227W        W91542  12.274   5.838   2.330
19228W        W91543   7.797  24.170   1.277
19229W        W91544  23.680  29.805   1.786
19230W        W91545  19.090  11.542  12.373
19231W        W91546  25.774  11.913  13.845
19232W        W91547  36.559  19.207   4.559
19233W        W91548  28.908  33.945   3.668
19234W        W91549   3.824  35.635  14.938
19235W        W91550   3.986  26.164  11.586
19236W        W91551   4.966  18.315  10.700
19237W        W91552   3.185  28.686   3.220
19238W        W91553  15.632  14.798  10.657
19239W        W91554  17.867   6.382  12.475
19240W        W91555  27.268  36.542  11.574
19241W        W91556  20.860  26.053   3.194
19242W        W91557   1.034  32.873  14.386
19243W        W91558   1.487   8.624   3.186
19244W        W91559  12.296  22.631   3.897
19245W        W91560  41.036  35.964  12.470
19246W        W91561   2.376  22.752  10.787
19247W        W91562   8.914   1.300   3.724
19248W        W91563  26.580  41.512   3.133
19249W        W91564  39.370  14.619  12.339
19250W        W91565  40.878  37.261   4.117
19251W        W91566  10.697   4.829   1.605
19252W        W91567  42.900  24.435   1.866
19253W        W91568  34.908  23.171   2.763
19254W        W91569  20.507   0.434   2.089
19255W        W91570  43.287  11.588   0.415
19256W        W91571  30.098   6.229  11.521
19257W        W91572   1.017  21.651  11.656
19258W        W91573  13.568   3.276   3.878
19259W        W91574  32.568  33.381   4.817
19260W        W91575  13.049  22.771   4.586
19261W        W91576  13.311  20.498   3.820
19262W        W91577  40.669  31.052  13.884
19263W        W91578  18.609  22.138  14.487
19264W        W91579  32.402  16.820  11.039
19265W        W91580  11.328  30.711  14.745
19266W        W91581  26.099  14.915   0.652
19267W        W91582  28.842   5.441   3.543
19268W        W91583  31.171   4.229   2.808
19269W        W91584  41.473  25.004  11.166
19270W        W91585  16.654  14.843  12.614
19271W        W91586  13.997  29.659   4.090
19272W        W91587  18.300  28.128  11.887
19273W        W91588  41.422   0.838  14.582
19274W        W91589  29.910  23.966  13.974
19275W        W91590  27.715  35.845  14.815
19276W        W91591   5.503   9.332   3.753
19277W        W91592  19.909  31.357   2.993
19278W        W91593  13.316   4.601   3.135
19279W        W91594  43.087  17.249   0.825
19280W        W91595  21.693  27.115  12.719
19281W        W91596  22.165  39.381   3.879
19282W        W91597   1.401  36.136  12.410
19283W        W91598  27.312  26.232  11.600
19284W        W91599   6.889  33.838   2.711
19285W        W91600  18.301  42.488  14.338
19286W        W91601  17.830  32.368   2.586
19287W        W91602  15.078  44.375   1.472
19288W        W91603  28.906  41.999   2.203
19289W        W91604  12.700   2.496   4.789
19290W        W91605  40.067  27.788   1.293
19291W        W91606  21.688  22.140   3.465
19292W        W91607  19.622  36.511   0.196
19293W        W91608  26.665  38.563   0.574
19294W        W91609  33.720   7.227   2.431
19295W        W91610   3.850  44.067   0.700
19296W        W91611  17.849  24.081   0.486
19297W        W91612   9.401  12.151   3.675
19298W        W91613  26.228  11.770  14.931
19299W        W91614  33.924  38.199   1.318
19300W        W91615  28.027  19.082   3.328
19301W        W91616   4.415   8.949  11.559
19302W        W91617  25.000  40.199   2.961
19303W        W91618   5.980  24.148   0.371
19304W        W91619  23.096  36.801  14.857
19305W        W91620   0.526  27.610  14.513
19306W        W91621  27.108  22.662   2.835
19307W        W91622  37.132  25.751  13.002
19308W        W91623   2.922  30.419  12.440
19309W        W91624   1.916   8.237  14.845
19310W        W91625   8.636  13.178   4.224
19311W        W91626  30.498  11.398   2.112
19312W        W91627  34.499  18.302  12.799
19313W        W91628  42.416  10.800   4.181
19314W        W91629  15.825   1.449  13.993
19315W        W91630   7.731   5.447   1.228
19316W        W91631  16.601  35.727  12.030
19317W        W91632  42.115  43.241   1.213
19318W        W91633  43.396   7.240  14.330
19319W        W91634  24.417  38.560   0.869
19320W        W91635   6.533  25.448   1.281
19321W        W91636  22.839  21.040   0.339
19322W        W91637  13.545  23.767  12.096
19323W        W91638  37.540  39.689  14.224
19324W        W91639  37.903  39.308   4.157
19325W        W91640  15.050  28.232   1.298
19326W        W91641  20.265   2.301   1.367
19327W        W91642  39.304  11.273  14.352
19328W        W91643  16.718  12.800   2.607
19329W        W91644  21.570   8.189  13.632
19330W        W91645   5.971   6.236   4.704
19331W        W91646  24.410  38.362   3.181
19332W        W91647  43.849   5.860  12.291
19333W        W91648  39.468   5.111  12.084
19334W        W91649  38.902  32.041   0.999
19335W        W91650  27.008  34.615  14.505
19336W        W91651  11.139   1.176   2.225
19337W        W91652  38.021  15.195   0.664
19338W        W91653  27.426   5.975  10.557
19339W        W91654  17.693  14.595   3.118
19340W        W91655  35.400  38.715   4.486
19341W        W91656   5.656   8.817  12.030
19342W        W91657   8.983  43.564   3.768
19343W        W91658  11.855  20.193   0.735
19344W        W91659  10.774  25.380  11.708
19345W        W91660  37.101   6.886  14.343
19346W        W91661  20.781  42.995   0.877
19347W        W91662  11.681  23.255  12.568
19348W        W91663  19.649  32.177   1.367
19349W        W91664   8.313   3.437  14.757
19350W        W91665  28.566  37.806   4.620
19351W        W91666  35.124  14.170   4.602
19352W        W91667  25.077   9.899   4.298
19353W        W91668  44.708  12.810  14.860
19354W        W91669  11.426  36.851  14.263
19355W        W91670  43.359  30.939  13.461
19356W        W91671  23.921   2.949   3.368
19357W        W91672  32.496  23.274  14.887
19358W        W91673   1.677  44.959  12.601
19359W        W91674   8.938  38.133   3.922
19360W        W91675  35.851   1.428  11.439
19361W        W91676  16.676   0.071  10.575
19362W        W91677  40.283  23.998   1.862
19363W        W91678   2.242   8.915   4.113
19364W        W91679  12.085  23.934  11.879
19365W        W91680  27.987  19.486  13.902
19366W        W91681  15.255  26.623   0.441
19367W        W91682   2.768  34.388   4.821
19368W        W91683  34.527  28.932  12.046
19369W        W91684  30.925  25.220  13.490
19370W        W91685  38.383  11.135  11.162
19371W        W91686  18.070  14.638  10.229
19372W        W91687  15.229  27.398   0.021
19373W        W91688  10.288  26.903   0.443
19374W        W91689  12.204  26.670  11.228
19375W        W91690  16.648  29.481   4.646
19376W        W91691  26.478  26.903   4.709
19377W        W91692  42.074  17.780  12.195
19378W        W91693  20.714  10.488  10.453
19379W        W91694   8.174  35.357   1.342
19380W        W91695  34.356  36.825  12.414
19381W        W91696  10.862  20.590  11.740
19382W        W91697  18.619  26.965  11.149
19383W        W91698  44.872  21.037  11.397
19384W        W91699  17.767   5.373   1.765
19385W        W91700  18.019  11.250   1.695
19386W        W91701  30.411  32.403   0.510
19387W        W91702  24.198   0.045  11.869
19388W        W91703  16.171  20.564  11.046
19389W        W91704  10.191  27.807  10.925
19390W        W91705   8.310  37.086  12.517
19391W        W91706  37.849  15.839  10.378
19392W        W91707  28.943  36.831  13.424
19393W        W91708  44.611   2.343  12.448
19394W        W91709  27.810  41.405  12.915
19395W        W91710  29.131  25.711   4.851
19396W        W91711  27.940  22.677  14.421
19397W        W91712  40.523   3.299   2.825
19398W        W91713  21.630  30.664  13.377
19399W        W91714  21.050  13.212  12.972
19400W        W91715  42.270  38.333  10.356
19401W        W91716  11.145  20.504   3.755
19402W        W91717   5.158  41.994  12.045
19403W        W91718  43.767  17.726   2.427
19404W        W91719   9.368   1.624   4.106
19405W        W91720   4.402   9.258  12.876
19406W        W91721  30.954   1.436  10.667
19407W        W91722  22.013  25.682   2.583
19408W        W91723  24.498  37.561   3.747
19409W        W91724  44.640   7.833  12.931
19410W        W91725  20.621  34.884   3.355
19411W        W91726  29.231  33.140   3.323
19412W        W91727  37.915  42.954  13.199
19413W        W91728  24.025  16.353   2.497
19414W        W91729  43.239  20.512  14.573
19415W        W91730  43.204  33.487  13.013
19416W        W91731  12.063   7.382  12.168
19417W        W91732   7.227   9.776   2.785
19418W        W91733  11.217  24.612   1.807
19419W        W91734  18.075  37.338   0.480
19420W        W91735  12.203  37.961   4.501
19421W        W91736  33.826   6.811   4.542
19422W        W91737   2.175  40.656  14.014
19423W        W91738  37.581  37.413   3.286
19424W        W91739  14.575  11.779  12.647
19425W        W91740  19.697  28.707  12.501
19426W        W91741  11.268   0.904  13.428
19427W        W91742  23.741   9.939  11.900
19428W        W91743   4.943  43.490  10.616
19429W        W91744  42.493   2.515  10.853
19430W        W91745  42.962  27.253  13.905
19431W        W91746  23.495  14.861   4.181
19432W        W91747  39.213  28.768   4.642
19433W        W91748  35.958  33.380   2.247
19434W        W91749  42.442  24.419  11.949
19435W        W91750  22.730   0.255   2.681
19436W        W91751   3.790   3.279   3.767
19437W        W91752   5.532  36.671   1.710
19438W        W91753  11.065  20.283  10.075
19439W        W91754  19.050  34.007   2.056
19440W        W91755  41.782  15.746   0.969
19441W        W91756  28.431  24.586  12.423
19442W        W91757  17.311  29.350  12.625
19443W        W91758   0.751   1.450  10.726
19444W        W91759  19.342   3.213  11.612
19445W        W91760   6.365  13.920  12.544
19446W        W91761   8.863   0.288   1.305
19447W        W91762  34.117  43.867   1.397
19448W        W91763  37.322  19.248   0.327
19449W        W91764  25.632  16.128  11.676
19450W        W91765  31.099  22.669   2.278
19451W        W91766  11.606  39.458  13.499
19452W        W91767  39.521  43.533   3.069
19453W        W91768  13.877  40.348   3.151
19454W        W91769  11.556  18.850  11.530
19455W        W91770  39.757  44.565  11.434
19456W        W91771  13.451  27.136   1.634
19457W        W91772  43.079   9.794   4.623
19458W        W91773   6.862  23.815   4.789
19459W        W91774  12.036  32.460   3.345
19460W        W91775  42.426   7.670  14.688
19461W        W91776  12.936  11.979   4.784
19462W        W91777  23.227  14.868   0.638
19463W        W91778  15.774  33.360   1.222
19464W        W91779  34.677  32.911  13.078
19465W        W91780  20.158  42.897   4.296
19466W        W91781  32.286  31.909  10.181
19467W        W91782   8.325  15.102   4.568
19468W        W91783  27.942  11.086   3.956
19469W        W91784  21.738  42.119   1.879
19470W        W91785  15.364  35.540  11.914
19471W        W91786   6.916  43.820  12.320
19472W        W91787  17.769  39.904   4.219
19473W        W91788   2.774  18.750  12.849
19474W        W91789  35.055   9.155   1.231
19475W        W91790  18.594  35.016  10.580
19476W        W91791   8.881   6.190  13.158
19477W        W91792  32.977  14.242   4.643
19478W        W91793  19.022  34.708   4.590
19479W        W91794  15.519  19.305  11.606
19480W        W91795  18.672  15.901  14.030
19481W        W91796  14.711  37.423   4.871
19482W        W91797   5.021  18.263   0.209
19483W        W91798  36.180  42.889   3.782
19484W        W91799  26.491  41.405  12.347
19485W        W91800   4.787  33.343   3.660
19486W        W91801  28.948  20.257   4.208
19487W        W91802  30.571  12.616  11.438
19488W        W91803  33.971   0.319   1.494
19489W        W91804  29.660  31.930  10.200
19490W        W91805   9.658  19.275   1.253
19491W        W91806  27.126  18.417   4.855
19492W        W91807   7.941  17.253  14.321
19493W        W91808  31.796  28.428  13.896
19494W        W91809  39.850  10.117  13.602
19495W        W91810  28.038   0.466  10.528
19496W        W91811   3.886   4.285   1.685
19497W        W91812  41.981  35.669   5.175
19498W        W91813  41.353   7.158   0.004
19499W        W91814  13.027  36.762  14.866
19500W        W91815   4.417  10.239  13.812
19501W        W91816  44.453  23.192  14.840
19502W        W91817  44.823  41.579   4.134
19503W        W91818  25.661  28.909  14.576
19504W        W91819  41.246  33.457  12.853
19505W        W91820  32.009  23.043  12.872
19506W        W91821  29.537  29.039  13.874
19507W        W91822  20.251  42.582  11.417
19508W        W91823  29.270   1.340   4.024
19509W        W91824  18.284   4.620   1.734
19510W        W91825  44.095  22.999   3.336
19511W        W91826   7.358  24.994  13.446
19512W        W91827  14.189  23.750   0.882
19513W        W91828  28.602  40.328  12.441
19514W        W91829  13.170   0.504   1.609
19515W        W91830  26.541  15.298  12.845
19516W        W91831  44.141  30.927   1.887
19517W        W91832  18.495   8.359  12.259
19518W        W91833  41.463   2.533   1.300
19519W        W91834   3.652   8.665   0.949
19520W        W91835  30.188  23.912  14.429
19521W        W91836   0.946   0.859  10.610
19522W        W91837  20.050  41.088  11.564
19523W        W91838  23.115  37.044   3.671
19524W        W91839  26.844  21.626  11.895
19525W        W91840   0.011   4.901   0.042
19526W        W91841  33.924  19.937  10.658
19527W        W91842  42.929  21.089   2.282
19528W        W91843  12.608  18.233  13.805
19529W        W91844  24.706  19.910  12.538
19530W        W91845  15.837  14.855   3.237
19531W        W91846  15.334   0.938  11.922
19532W        W91847  22.438  37.089   4.655
19533W        W91848  36.461   9.924   2.211
19534W        W91849  24.440   1.814  14.822
19535W        W91850   3.194  33.804   3.235
19536W        W91851  29.171  33.850   0.912
19537W        W91852  20.419  25.873   3.388
19538W        W91853   3.863  28.605   0.242
19539W        W91854  30.010  42.511   3.806
19540W        W91855  16.605  11.128   0.770
19541W        W91856   3.493  14.206  12.879
19542W        W91857  14.357   4.845   5.195
19543W        W91858  12.265  40.871  13.060
19544W        W91859   2.455  34.507   5.217
19545W        W91860  26.018   1.873   2.404
19546W        W91861  35.390  21.604   1.276
19547W        W91862  42.490   0.188  13.882
19548W        W91863  17.493   7.262  11.087
19549W        W91864   7.983  34.805  11.109
19550W        W91865  19.995  24.317  11.403
19551W        W91866  30.087  39.340  13.248
19552W        W91867  26.863  11.387   2.225
19553W        W91868  35.452  17.607  13.281
19554W        W91869  16.620  31.388  13.397
19555W        W91870  36.947  23.927   0.923
19556W        W91871  29.557  22.688   2.300
19557W        W91872   4.365  11.291   2.887
19558W        W91873  12.180  28.384  14.377
19559W        W91874   7.683  22.527  14.174
19560W        W91875  25.190  30.113  11.963
19561W        W91876  11.283  33.854  12.450
19562W        W91877  29.453  32.496   4.150
19563W        W91878  30.041  40.015   1.001
19564W        W91879   4.413  44.894   2.455
19565W        W91880   9.835  16.495   0.975
19566W        W91881  30.436  23.650  12.587
19567W        W91882   7.041  39.773   4.092
19568W        W91883  22.846  14.386  12.635
19569W        W91884  20.178  35.305   0.838
19570W        W91885   2.999  14.085  12.139
19571W        W91886  42.762  33.295  11.027
19572W        W91887  22.222  34.373  11.168
19573W        W91888  11.734  31.668   3.724
19574W        W91889  41.643  35.017  12.660
19575W        W91890  31.582  20.938  14.397
19576W        W91891  17.628  12.677   1.747
19577W        W91892  33.473  14.069   0.192
19578W        W91893   3.687  15.246   4.347
19579W        W91894  31.729   3.293  14.349
19580W        W91895  15.099  28.996   4.183
19581W        W91896   0.139   5.420  12.155
19582W        W91897  42.288   4.685   4.611
19583W        W91898   2.399  38.060  11.139
19584W        W91899  30.731  24.589  10.971
19585W        W91900  18.929  18.730  14.376
19586W        W91901  19.694  34.109   3.222
19587W        W91902  37.686  20.563   2.232
19588W        W91903  19.220   6.818  14.959
19589W        W91904  19.562  39.932   2.359
19590W        W91905   5.721  37.343  12.717
19591W        W91906  14.442  38.316   0.532
19592W        W91907  39.344  37.868  11.926
19593W        W91908  20.522  40.813   4.695
19594W        W91909  41.391  23.601   3.013
19595W        W91910  32.424   5.960  14.543
19596W        W91911   8.860  37.534   0.264
19597W        W91912  30.609  32.640   0.957
19598W        W91913  37.479  10.197   1.878
19599W        W91914  22.652  12.302  10.786
19600W        W91915  29.116   8.579  11.347
19601W        W91916  15.188  24.062  12.605
19602W        W91917  24.404   1.182   3.196
19603W        W91918  33.224   5.367   0.523
19604W        W91919  11.187   5.342   0.882
19605W        W91920  28.050  42.067  11.121
19606W        W91921  44.516   0.224   3.197
19607W        W91922  25.734  33.127   1.412
19608W        W91923  10.131  21.789  12.448
19609W        W91924   3.053  41.881   3.200
19610W        W91925  33.653   5.340   3.466
19611W        W91926  29.960  43.431  13.020
19612W        W91927   3.689  30.688  12.899
19613W        W91928  27.118   0.745   3.256
19614W        W91929  11.292   2.348  12.067
19615W        W91930  33.632  24.350   2.991
19616W        W91931   8.215  41.668  11.091
19617W        W91932  34.285  29.338   1.543
19618W        W91933   4.345   8.674   4.603
19619W        W91934  24.159  24.172   1.389
19620W        W91935   9.701  18.122   3.207
19621W        W91936  44.849  14.115   2.329
19622W        W91937  32.017   1.731   3.369
19623W        W91938  24.839  14.294  13.324
19624W        W91939  30.511  26.685   0.758
19625W        W91940  28.198  14.235   3.732
19626W        W91941  25.734  41.577   2.640
19627W        W91942  10.697   6.477  13.036
19628W        W91943  35.959  14.249   2.682
19629W        W91944   7.156  44.465  14.362
19630W        W91945  15.943   9.916  14.631
19631W        W91946   9.326  27.106  14.407
19632W        W91947  22.565  11.874   0.235
19633W        W91948  43.903  21.574  13.400
19634W        W91949   9.177  14.324   0.693
19635W        W91950  30.333   0.519   4.106
19636W        W91951  31.922  25.719   4.239
19637W        W91952  18.071  12.290   1.738
19638W        W91953  44.185  29.884  13.793
19639W        W91954   2.251  14.214   3.585
19640W        W91955   5.279  41.915   0.860
19641W        W91956   2.803  29.104  12.159
19642W        W91957  14.689   7.959   0.360
19643W        W91958  26.241  36.915  11.025
19644W        W91959  42.036   3.181  11.247
19645W        W91960  15.147  43.247   0.050
19646W        W91961  29.174   9.335   0.337
19647W        W91962  35.399   2.889   1.478
19648W        W91963   1.515  33.616  11.875
19649W        W91964  16.657  41.318   0.256
19650W        W91965  16.225  20.314  14.542
19651W        W91966  19.741  20.966   1.435
19652W        W91967   7.358  15.457  12.026
19653W        W91968  42.715  17.201  13.981
19654W        W91969  24.054  26.765  13.925
19655W        W91970  44.854  43.969   1.522
19656W        W91971  30.102   5.383  11.306
19657W        W91972  24.269  12.884  11.458
19658W        W91973   4.140   2.828   2.182
19659W        W91974  12.288  26.873  14.563
19660W        W91975  43.024   3.146  12.012
19661W        W91976   3.322  37.394   1.724
19662W        W91977  17.640  38.319  13.026
19663W        W91978  11.734  21.355   3.690
19664W        W91979  44.324  38.834   0.295
19665W        W91980   4.969  31.908   2.154
19666W        W91981  27.873  23.678  12.540
19667W        W91982   7.152  20.510  13.941
19668W        W91983  28.136  36.338   3.287
19669W        W91984  28.500  34.292   1.347
19670W        W91985  27.600  27.335  10.813
19671W        W91986  18.611  41.149   0.949
19672W        W91987  39.768  23.863   2.783
19673W        W91988  39.752  22.974  10.505
19674W        W91989   0.154  39.432   2.229
19675W        W91990  30.624   2.318   3.104
19676W        W91991   2.675  33.285   0.885
19677W        W91992   3.288  11.605   4.119
19678W        W91993  25.588  13.224   4.139
19679W        W91994   2.906  35.148  11.706
19680W        W91995  25.659  24.733   4.794
19681W        W91996  40.308  34.648  10.310
19682W        W91997  40.665  25.546   2.858
19683W        W91998  25.147   7.799   3.087
19684W        W91999  28.643   1.726  10.732
19685W        W92000  21.399  19.569   0.725
19686W        W92001  32.685  21.888  13.341
19687W        W92002   7.267   3.223  12.635
19688W        W92003  31.913   1.366   0.453
19689W        W92004  11.609  23.372   2.704
19690W        W92005   4.477   0.536   3.673
19691W        W92006  10.386  13.351   0.344
19692W        W92007  10.210   9.634  10.736
19693W        W92008  34.852  40.959   0.008
19694W        W92009  26.435  37.351  12.575
19695W        W92010  22.235  35.440  13.427
19696W        W92011   8.170  28.165   1.267
19697W        W92012  38.254  22.033   3.321
19698W        W92013  43.982  27.970  12.461
19699W        W92014  42.893  41.389   4.486
19700W        W92015  36.316   0.588  14.493
19701W        W92016  13.587  37.064  11.513
19702W        W92017  44.995  19.431  12.597
19703W        W92018  36.183  39.107   3.682
19704W        W92019  23.944  33.118   3.575
19705W        W92020   4.227  33.493   3.327
19706W        W92021  18.694  39.272   2.203
19707W        W92022  43.057  22.142  12.450
19708W        W92023   0.697  30.467   0.689
19709W        W92024  10.278  20.199   0.475
19710W        W92025  39.297  24.231   0.288
19711W        W92026   0.302  35.476  14.226
19712W        W92027   0.220  31.894  12.775
19713W        W92028   7.623  43.409  14.263
19714W        W92029  38.425  33.678  11.623
19715W        W92030   0.798   0.976  14.495
19716W        W92031  12.338  28.579  10.628
19717W        W92032  25.218  41.502  13.983
19718W        W92033  12.698  22.987   2.302
19719W        W92034   4.693   5.627   4.180
19720W        W92035  37.873  36.658   0.779
19721W        W92036  15.641  15.695  13.413
19722W        W92037  29.803  20.263  12.046
19723W        W92038  15.679   7.622   3.140
19724W        W92039   0.872  10.709  12.392
19725W        W92040  34.669  36.105   1.929
19726W        W92041  12.229  20.741   0.305
19727W        W92042   9.170   2.338   1.804
19728W        W92043  38.860   4.297   0.650
19729W        W92044  30.642  38.026  14.263
19730W        W92045  29.225  26.505  13.810
19731W        W92046  21.287  33.598  11.975
19732W        W92047  13.119  18.030  11.997
19733W        W92048  32.596  14.276  14.923
19734W        W92049   1.825  11.951  10.917
19735W        W92050  12.937  17.335   4.571
19736W        W92051  34.991  20.044   3.525
19737W        W92052  22.385  25.314   1.863
19738W        W92053   1.880  11.345  11.599
19739W        W92054  44.981  38.013   2.971
19740W        W92055  20.664  40.022  14.357
19741W        W92056  13.894  42.256   4.242
19742W        W92057  39.382  41.711  14.931
19743W        W92058  15.006  25.485   1.405
19744W        W92059  22.557  21.211  12.417
19745W        W92060  37.082   5.803   1.270
19746W        W92061  31.634  22.582   3.616
19747W        W92062  21.058  15.888   0.686
19748W        W92063  38.877  14.639  11.168
19749W        W92064   3.367  42.337   1.816
19750W        W92065  19.201  13.773   0.934
19751W        W92066  39.372   3.798  11.603
19752W        W92067  13.112  33.019   0.164
19753W        W92068   1.934   3.249  13.371
19754W        W92069   7.285  30.990   2.896
19755W        W92070   7.481  13.583  14.416
19756W        W92071  23.778  28.872  12.834
19757W        W92072  35.476  27.828  12.938
19758W        W92073  31.692   6.314  11.224
19759W        W92074  15.836  35.063   4.142
19760W        W92075  39.433  18.955   4.565
19761W        W92076   9.921  40.287  11.166
19762W        W92077  34.895  18.633   4.113
19763W        W92078  42.750  43.925   3.523
19764W        W92079  20.017  12.960   2.592
19765W        W92080   4.716  10.958   1.694
19766W        W92081  15.695  39.466  13.072
19767W        W92082   1.871   3.771   4.618
19768W        W92083  36.478  19.617   4.892
19769W        W92084   3.814  22.701   1.806
19770W        W92085  36.974  38.218   4.183
19771W        W92086  11.535  25.712  11.979
19772W        W92087   9.890  41.771  10.821
19773W        W92088  32.361   2.395   1.330
19774W        W92089  40.703  42.610   5.075
19775W        W92090   7.683  12.110  12.634
19776W        W92091  14.865  42.291   2.626
19777W        W92092  36.486  37.993  12.550
19778W        W92093  23.649  11.482  13.415
19779W        W92094  42.270   8.755  11.432
19780W        W92095  41.880   6.306  14.880
19781W        W92096  36.948  22.006  12.905
19782W        W92097   5.329   1.205   4.078
19783W        W92098   8.146   3.908  10.755
19784W        W92099  21.991   9.771   1.027
19785W        W92100   1.909  22.846   2.929
19786W        W92101  19.533  36.124  14.420
19787W        W92102   5.589  17.353   0.321
19788W        W92103  37.374   3.735  10.358
19789W        W92104   4.992  34.516   2.231
19790W        W92105   7.332  28.998  14.906
19791W        W92106   9.775  11.309   3.863
19792W        W92107  28.055  22.380   4.132
19793W        W92108  13.360  26.698  11.542
19794W        W92109  23.460  43.459   4.671
19795W        W92110  20.687  44.540   3.418
19796W        W92111  19.743  40.785   1.853
19797W        W92112  20.665  27.133   3.292
19798W        W92113   8.211  29.002  13.073
19799W        W92114   5.323  10.839  11.175
19800W        W92115  41.643   6.842  12.967
19801W        W92116   4.300  31.095  13.873
19802W        W92117   2.935  16.008  11.834
19803W        W92118  13.901  43.780  11.419
19804W        W92119  14.057  41.302  13.012
19805W        W92120  25.485  14.734   2.327
19806W        W92121  24.120  12.649  12.381
19807W        W92122  43.009  17.210  13.144
19808W        W92123  19.032   1.752   2.261
19809W        W92124   2.564  22.240   1.041
19810W        W92125   2.971   3.359  14.098
19811W        W92126  24.087  25.395   3.710
19812W        W92127  26.180  41.422  10.679
19813W        W92128  19.716   7.223   4.144
19814W        W92129  35.071  32.533  12.455
19815W        W92130  44.375   3.484   0.883
19816W        W92131  43.933  33.037   1.217
19817W        W92132   2.933  39.899  13.993
19818W        W92133  10.433  29.971  11.930
19819W        W92134   3.241  34.513   0.890
19820W        W92135  30.804  27.832  10.648
19821W        W92136  28.865  22.274   3.116
19822W        W92137  28.675  43.420   3.146
19823W        W92138  34.105   6.272   2.288
19824W        W92139  42.999  32.892   0.889
19825W        W92140  41.567  39.883  11.198
19826W        W92141  18.802  19.507   1.549
19827W        W92142  34.023  33.260   4.100
19828W        W92143  26.261  40.364  10.636
19829W        W92144  22.809  17.835   3.700
19830W        W92145   5.364  42.179   1.625
19831W        W92146  40.250   0.033  11.951
19832W        W92147  32.957  34.980  11.153
19833W        W92148  29.095  28.425  13.335
19834W        W92149  37.294  33.406   2.829
19835W        W92150  41.492  11.770   1.388
19836W        W92151  35.035  33.086  10.386
19837W        W92152   8.626  39.794   2.868
19838W        W92153  42.403  42.855  14.318
19839W        W92154  44.294  14.310   0.837
19840W        W92155  21.736  13.749   4.860
19841W        W92156  18.098   9.127   2.801
19842W        W92157  38.446   3.669   1.525
19843W        W92158  20.167   1.627   0.243
19844W        W92159   5.536  21.811  12.795
19845W        W92160  42.423  16.469   0.291
19846W        W92161  20.575  42.292  14.732
19847W        W92162  43.709  38.106   3.724
19848W        W92163  31.588   1.725  10.807
19849W        W92164  37.426  14.842  10.982
19850W        W92165  36.837   0.227   0.355
19851W        W92166  25.437  10.178  10.537
19852W        W92167   8.740  43.735  12.912
19853W        W92168  21.932   3.798  13.785
19854W        W92169  43.430  25.433   4.772
19855W        W92170  37.536  42.579   5.118
19856W        W92171   4.453   6.486  10.985
19857W        W92172  27.127  18.213  13.919
19858W        W92173   4.643  23.441  11.894
19859W        W92174  18.738  14.685   0.691
19860W        W92175  42.918  34.175  13.419
19861W        W92176  34.316  32.611  12.856
19862W        W92177  11.540   6.310   1.162
19863W        W92178  36.469  33.840   2.867
19864W        W92179  37.951  28.255   2.780
19865W        W92180  19.997  13.664   0.429
19866W        W92181  42.412  25.203  11.438
19867W        W92182  10.709  17.587   5.212
19868W        W92183   5.275   5.522  12.582
19869W        W92184   5.984  34.584  12.046
19870W        W92185  23.782  20.598  14.987
19871W        W92186  23.281   3.334   3.964
19872W        W92187  24.406  25.019  10.886
19873W        W92188  13.977  20.210  11.358
19874W        W92189   5.515  35.507   2.292
19875W        W92190   0.498  19.078  12.861
19876W        W92191  10.322  40.542  12.465
19877W        W92192  33.552  43.806  11.033
19878W        W92193  18.534  28.381   4.963
19879W        W92194  26.876  32.440   1.369
19880W        W92195   7.687  28.471   0.967
19881W        W92196   0.058  44.311   3.376
19882W        W92197   7.198  31.455  14.262
19883W        W92198  31.618  28.218  11.712
19884W        W92199  37.837  28.341  13.003
19885W        W92200  28.479   9.130   1.803
19886W        W92201  33.939  19.804   1.669
19887W        W92202   5.133  33.412  11.142
19888W        W92203   3.214  16.049  10.572
19889W        W92204  28.901  43.032   3.394
19890W        W92205  16.677   7.917  14.338
19891W        W92206  42.408  11.628  11.347
19892W        W92207  32.326  28.208   0.543
19893W        W92208  17.107  42.812   3.246
19894W        W92209  35.294  11.858   4.636
19895W        W92210  27.045  32.930   0.725
19896W        W92211  23.450  37.357  13.635
19897W        W92212  31.585  34.970  13.470
19898W        W92213   6.168  12.419   1.844
19899W        W92214  42.333   6.543  11.037
19900W        W92215  33.090   4.520   2.744
19901W        W92216  31.396  40.514   2.846
19902W        W92217  38.032  18.619   0.048
19903W        W92218  32.502  11.226  11.089
19904W        W92219  27.656  20.729   0.932
19905W        W92220  21.160   8.646   0.949
19906W        W92221  43.854  10.386   2.187
19907W        W92222  37.755   3.388   2.795
19908W        W92223   0.377  33.101   0.298
19909W        W92224   4.697  28.489   3.512
19910W        W92225  28.459  30.174  10.444
19911W        W92226  41.867  42.878  11.112
19912W        W92227   4.184  39.385   2.897
19913W        W92228  24.262  23.682  13.733
19914W        W92229  35.409  41.813  14.465
19915W        W92230  18.549  26.529   0.755
19916W        W92231  10.547  29.723  11.479
19917W        W92232  29.117  17.117  13.595
19918W        W92233   3.256  29.748  13.363
19919W        W92234  24.729  22.939  13.527
19920W        W92235  40.540  40.941  10.370
19921W        W92236  30.465  30.267   4.562
19922W        W92237  34.129  20.879  13.884
19923W        W92238  38.539  18.271   4.156
19924W        W92239  31.159  10.267  10.532
19925W        W92240   8.937   4.670   2.429
19926W        W92241  39.416  23.551  12.538
19927W        W92242  34.416   3.040  11.046
19928W        W92243  36.887  20.559   2.773
19929W        W92244  43.105  25.082   1.351
19930W        W92245  33.088  21.798   1.713
19931W        W92246  14.636  15.105  10.733
19932W        W92247  27.594   3.912  11.124
19933W        W92248  20.990   5.405  14.696
19934W        W92249  12.034   6.277  11.405
19935W        W92250   6.831  12.877   0.283
19936W        W92251  32.901  11.741  13.467
19937W        W92252  39.532   5.472   4.563
19938W        W92253   3.765   9.958   4.620
19939W        W92254  25.049  28.160  13.342
19940W        W92255   8.854  40.662  13.091
19941W        W92256  26.488  14.035  13.903
19942W        W92257   8.408  24.686   3.105
19943W        W92258  21.046  33.341  14.757
19944W        W92259  17.347  39.360   1.007
19945W        W92260  17.529   4.865   1.396
19946W        W92261  10.994  34.266  11.557
19947W        W92262  11.174  31.239  14.729
19948W        W92263  15.139  14.839   0.293
19949W        W92264  21.802  38.428  12.111
19950W        W92265   7.198  21.712   4.468
19951W        W92266  37.647  37.485   4.163
19952W        W92267   5.910  22.660   0.346
19953W        W92268  33.662  15.941  11.904
19954W        W92269  15.205  38.857  13.961
19955W        W92270  28.688   0.475   0.848
19956W        W92271  25.640  44.892  12.995
19957W        W92272  43.177  12.396  14.669
19958W        W92273   9.135  15.122   0.255
19959W        W92274  32.103  33.829  11.910
19960W        W92275  38.080   7.707   3.435
19961W        W92276   3.429  21.171  11.144
19962W        W92277  25.640  25.620   0.272
19963W        W92278  38.415  14.077   0.383
19964W        W92279  28.138   4.353  13.060
19965W        W92280  33.924   5.135   4.057
19966W        W92281  24.295  28.779  12.777
19967W        W92282  32.334  20.192  14.008
19968W        W92283  28.868  11.296  12.797
19969W        W92284  18.122  25.464  13.995
19970W        W92285   9.031   8.933   2.406
19971W        W92286   6.987  20.107  10.721
19972W        W92287   0.044  26.051  12.845
19973W        W92288  27.246   5.712  13.290
19974W        W92289  30.336  10.349  12.536
19975W        W92290  18.687   2.962  14.516
19976W        W92291  22.619  24.990  10.016
19977W        W92292  32.665  27.600  10.341
19978W        W92293  30.516  15.213  12.833
19979W        W92294  27.632  38.241  14.456
19980W        W92295  37.542   8.433   3.871
19981W        W92296  11.562  20.676   1.858
19982W        W92297   4.716   7.976   0.419
19983W        W92298  26.132   5.203  10.862
19984W        W92299  10.719  18.884  11.620
19985W        W92300  24.287  13.404  11.373
19986W        W92301  22.941  32.518   0.750
19987W        W92302  10.965  32.856   0.914
19988W        W92303  35.163  35.369  10.765
19989W        W92304  15.683  31.328  11.165
19990W        W92305  40.596  17.190  13.184
19991W        W92306  17.112   8.932   4.649
19992W        W92307   1.893  21.778   4.275
19993W        W92308  11.841  34.157  13.566
19994W        W92309   9.431  10.836   2.240
19995W        W92310  17.824   4.198   3.896
19996W        W92311   7.128  15.820  11.729
19997W        W92312  11.729  43.489  12.450
19998W        W92313  13.798  41.418   0.473
19999W        W92314  37.919  17.307  14.814
20000W        W92315  25.455  39.893  11.488
20001W        W92316   1.661  40.889   3.281
20002W        W92317  37.217  32.045   3.984
20003W        W92318  40.852  34.718   3.507
20004W        W92319  24.583  14.047  10.760
20005W        W92320  42.205   9.927  12.979
20006W        W92321  35.553   4.123  10.736
20007W        W92322   2.175  38.967   4.613
20008W        W92323  35.380   2.721   1.989
20009W        W92324  41.481  16.493  14.840
20010W        W92325  15.531   1.918  14.856
20011W        W92326  17.650  21.122  10.874
20012W        W92327  33.922  18.839  10.697
20013W        W92328   9.378  26.121   3.701
20014W        W92329  30.628   9.369   1.718
20015W        W92330  40.941  19.594   1.795
20016W        W92331  19.737  21.113   3.127
20017W        W92332  42.916  25.070  14.368
20018W        W92333  39.052  37.799  14.986
20019W        W92334  44.825  29.251   3.114
20020W        W92335  20.202  25.207  14.934
20021W        W92336   6.049   9.415   3.653
20022W        W92337   1.203  35.921   5.393
20023W        W92338  36.158  24.171   2.282
20024W        W92339  40.504  15.582  13.497
20025W        W92340  18.815  29.407  12.486
20026W        W92341   3.003  12.140  12.980
20027W        W92342  12.157  34.058  10.636
20028W        W92343   5.863  19.512   1.669
20029W        W92344  40.820  15.553  12.957
20030W        W92345   4.822  23.077  12.446
20031W        W92346   6.169  39.153  13.051
20032W        W92347  19.130   3.921   3.765
20033W        W92348  44.053  22.040   0.816
20034W        W92349  12.176  17.198   0.852
20035W        W92350  30.638  42.253  11.971
20036W        W92351  13.603  41.556  13.053
20037W        W92352  33.653   1.218   0.441
20038W        W92353  13.595   5.267   1.203
20039W        W92354  14.560  22.245   1.797
20040W        W92355  30.860  40.442   4.886
20041W        W92356   7.457  42.974   1.212
20042W        W92357  41.096  39.076   1.820
20043W        W92358  15.707  10.389   2.329
20044W        W92359   9.688   3.698  12.550
20045W        W92360  20.838  17.572  14.005
20046W        W92361  27.755   3.153  14.422
20047W        W92362  31.529  39.762  13.054
20048W        W92363  16.422   4.424  13.067
20049W        W92364  14.065  20.470   2.711
20050W        W92365   3.274  31.517  12.897
20051W        W92366  33.292  44.805  12.101
20052W        W92367  37.978  22.509  12.079
20053W        W92368  16.195  35.962   3.196
20054W        W92369  12.568  44.279   1.260
20055W        W92370  31.861  39.357  12.805
20056W        W92371   2.196  11.363   5.712
20057W        W92372  32.335  28.691  11.318
20058W        W92373  12.331  22.995  11.981
20059W        W92374  16.649  43.149  12.626
20060W        W92375  27.282  21.248  12.661
20061W        W92376  39.581   2.748   1.329
20062W        W92377  37.609  36.943   2.133
20063W        W92378   8.403  31.486  13.711
20064W        W92379  33.660  35.401  12.981
20065W        W92380   9.972  27.076  14.033
20066W        W92381  18.352   3.225   1.706
20067W        W92382  16.045   5.283   4.265
20068W        W92383  44.873   9.161   0.599
20069W        W92384  28.042  34.368   4.069
20070W        W92385  23.528  29.085   3.152
20071W        W92386  32.463  20.250  11.798
20072W        W92387  19.686   7.556  12.745
20073W        W92388  21.399   9.059   0.224
20074W        W92389  21.713   2.150  11.583
20075W        W92390  27.156  24.789   1.403
20076W        W92391  12.359  11.731  11.643
20077W        W92392  20.662  37.978  10.921
20078W        W92393  16.258  36.872   3.627
20079W        W92394  16.320   0.828  13.476
20080W        W92395  15.599  13.147  12.509
20081W        W92396  41.808  39.383   4.196
20082W        W92397  26.638  30.958   5.048
20083W        W92398  23.807  39.023  13.236
20084W        W92399  25.556  41.264   4.535
20085W        W92400  43.942  36.442   4.196
20086W        W92401   5.942   8.249   1.982
20087W        W92402   2.214  17.498  13.373
20088W        W92403  34.828  32.550  12.011
20089W        W92404  18.465  14.559   0.263
20090W        W92405  33.046   1.982  10.770
20091W        W92406  32.355  28.974  14.493
20092W        W92407  12.226  13.887   2.205
20093W        W92408  22.973  40.682   0.076
20094W        W92409  23.962   3.978  12.128
20095W        W92410   3.726  44.411   2.841
20096W        W92411   6.295  28.079   4.999
20097W        W92412   7.816  42.270   4.104
20098W        W92413  25.016  44.250  12.526
20099W        W92414  31.052  41.844   2.405
20100W        W92415  43.589  28.725  14.154
20101W        W92416  11.213  20.840   3.220
20102W        W92417  29.627   2.691   0.923
20103W        W92418  40.284   5.383  11.557
20104W        W92419  20.808  36.323  11.365
20105W        W92420   2.570  22.065  12.934
20106W        W92421  44.191   0.557   4.011
20107W        W92422   0.866  16.237  13.821
20108W        W92423   8.762  19.219   1.739
20109W        W92424   9.781  10.732  13.342
20110W        W92425   5.289  40.946  14.391
20111W        W92426   1.880  19.066   1.758
20112W        W92427  15.712  31.970   2.939
20113W        W92428  41.905   3.217   3.914
20114W        W92429  30.863  43.299  13.968
20115W        W92430  21.992  16.601   4.649
20116W        W92431  10.070  28.561   1.860
20117W        W92432  43.893  25.469  11.693
20118W        W92433  43.544  16.766  11.950
20119W        W92434  13.161   4.458  10.797
20120W        W92435  44.210  32.961  11.154
20121W        W92436  17.700  33.372   1.936
20122W        W92437  42.968  27.975   3.707
20123W        W92438  16.207  32.941  12.945
20124W        W92439  14.628  26.583  13.787
20125W        W92440  18.724  38.922  12.146
20126W        W92441   6.776  33.105  13.007
20127W        W92442  20.502  19.190   2.361
20128W        W92443  19.377  30.262   1.828
20129W        W92444   6.132   6.277  13.542
20130W        W92445  43.646   6.697   3.656
20131W        W92446   6.620  21.066   2.303
20132W        W92447  35.371  18.073   0.045
20133W        W92448  32.466   3.991   3.352
20134W        W92449  26.259  41.830   2.699
20135W        W92450  39.832  12.141  14.308
20136W        W92451  12.783   3.896  12.010
20137W        W92452   8.338   7.565   2.341
20138W        W92453  44.971  30.159  14.861
20139W        W92454  20.712  16.020   1.866
20140W        W92455  23.150  40.113   1.667
20141W        W92456   2.855  25.787   1.340
20142W        W92457   2.235  38.887  10.734
20143W        W92458  16.837  26.229   0.517
20144W        W92459   2.671  17.729   2.655
20145W        W92460  20.710   6.345   2.922
20146W        W92461   1.739  31.919  11.414
20147W        W92462   3.348  28.152   2.264
20148W        W92463  35.605   2.431   1.370
20149W        W92464  31.155  10.845  14.821
20150W        W92465  28.152  44.808   0.931
20151W        W92466   6.588  26.013  11.957
20152W        W92467  23.723  24.924   3.071
20153W        W92468   7.283   8.415  14.808
20154W        W92469  14.853   0.761   0.383
20155W        W92470  16.192  36.098   0.712
20156W        W92471  18.047  35.519  14.495
20157W        W92472  33.003  32.066   4.608
20158W        W92473  19.270  17.598   1.274
20159W        W92474  36.655  32.259  10.560
20160W        W92475   5.217  37.244   4.062
20161W        W92476  10.666  38.053  11.536
20162W        W92477  22.972   7.915  13.858
20163W        W92478  36.409  13.649   1.674
20164W        W92479  12.995   2.351   5.189
20165W        W92480  12.746   4.957   3.382
20166W        W92481   9.821  29.938   3.701
20167W        W92482  31.520   3.650   4.744
20168W        W92483  44.176  41.528  11.653
20169W        W92484  28.091   8.198   4.275
20170W        W92485  35.072  16.304   0.043
20171W        W92486  30.995   3.836   2.167
20172W        W92487  18.452  11.604   4.790
20173W        W92488   1.922  21.073   3.620
20174W        W92489  26.282   9.389   1.897
20175W        W92490  16.767  35.522  11.570
20176W        W92491  15.283  43.932   1.300
20177W        W92492   2.798  33.161   2.770
20178W        W92493   3.308  44.278  12.920
20179W        W92494  22.612  13.259  14.028
20180W        W92495  43.238   2.276   0.302
20181W        W92496   5.388  33.596  12.430
20182W        W92497  33.418  29.840  14.375
20183W        W92498  31.226  40.981   4.252
20184W        W92499  43.092   3.064   1.385
20185W        W92500  44.582  14.758   3.286
20186W        W92501  19.175  13.254   3.778
20187W        W92502  19.578  29.663   2.674
20188W        W92503  31.449  43.308  14.391
20189W        W92504  25.013   6.228  14.275
20190W        W92505  18.143  39.100  12.562
20191W        W92506  10.787   7.591  10.709
20192W        W92507  28.151  35.450   1.726
20193W        W92508  34.978   1.672  14.826
20194W        W92509   3.974  18.490   2.273
20195W        W92510  18.202  23.999  12.519
20196W        W92511  41.747  17.015   4.029
20197W        W92512   7.880  15.141  10.986
20198W        W92513  22.504  43.871   2.244
20199W        W92514  31.536   5.419  11.416
20200W        W92515   8.463  39.490   3.257
20201W        W92516  32.464  12.651   1.967
20202W        W92517  21.570  18.055  13.430
20203W        W92518  42.309   0.657   0.537
20204W        W92519   8.750  27.621  14.215
20205W        W92520  18.274   2.232   1.305
20206W        W92521  43.685   6.812   2.299
20207W        W92522  26.990  16.493   0.236
20208W        W92523  32.667  25.806   3.761
20209W        W92524  41.694  21.836   4.262
20210W        W92525  33.534  31.924  13.377
20211W        W92526  18.141   4.399  11.052
20212W        W92527  11.230  16.857   4.362
20213W        W92528   0.869   6.189   2.144
20214W        W92529  42.049  11.263   2.750
20215W        W92530  16.142  31.433  10.959
20216W        W92531  20.134  37.839  12.691
20217W        W92532  34.915  21.455  13.484
20218W        W92533  29.466  35.334  14.779
20219W        W92534  10.320  44.294   2.776
20220W        W92535   6.177  38.883  14.924
20221W        W92536  19.508  25.452  12.811
20222W        W92537  34.967   0.950   0.802
20223W        W92538  39.853  16.613   2.725
20224W        W92539  22.671  15.611   2.736
20225W        W92540  26.586  37.116   3.271
20226W        W92541  32.603  16.467  11.954
20227W        W92542  40.920  42.038  11.554
20228W        W92543  21.636  12.708  11.520
20229W        W92544  30.186  37.563  13.893
20230W        W92545  13.810   9.435  10.994
20231W        W92546  36.562  11.638  14.229
20232W        W92547  25.450   4.511  11.738
20233W        W92548   4.361   8.024  13.887
20234W        W92549  32.325  40.754  10.762
20235W        W92550  21.165  28.387   4.105
20236W        W92551   8.694  15.233   0.509
20237W        W92552  19.297  42.961  12.994
20238W        W92553  33.859  22.656   0.233
20239W        W92554   7.853  22.580   0.431
20240W        W92555  14.590  16.499  11.158
20241W        W92556   5.509  40.329   0.034
20242W        W92557  37.444  24.854   5.168
20243W        W92558  29.454   5.212   4.306
20244W        W92559  42.483  20.208  12.060
20245W        W92560  24.553  22.794  14.005
20246W        W92561   4.860  22.129  11.326
20247W        W92562  23.758   1.684  14.509
20248W        W92563  26.015  23.706   0.545
20249W        W92564  13.429   8.662   1.943
20250W        W92565  15.556  25.707  11.658
20251W        W92566  31.393   3.407   3.810
20252W        W92567  39.276   1.347  12.939
20253W        W92568  38.085   6.787   3.413
20254W        W92569  17.522   8.102   5.533
20255W        W92570  33.666   0.852   3.402
20256W        W92571   9.923   4.211  12.036
20257W        W92572   7.879  44.098  12.539
20258W        W92573  13.703  43.743  12.854
20259W        W92574  27.992  22.673  13.413
20260W        W92575  36.978  16.155   0.591
20261W        W92576  34.991   1.849  11.187
20262W        W92577  27.965  15.375  13.007
20263W        W92578  13.305  26.538   3.847
20264W        W92579  40.290  18.243  14.756
20265W        W92580   4.385  40.579  14.457
20266W        W92581  32.862  43.080  10.980
20267W        W92582   4.600  28.021   4.234
20268W        W92583  25.473  37.404   0.973
20269W        W92584  19.358  10.863   3.730
20270W        W92585  28.974  14.312   0.887
20271W        W92586   9.340  21.916   0.798
20272W        W92587  22.271  40.783   0.896
20273W        W92588  35.908   9.219  10.697
20274W        W92589   3.735  12.704   0.749
20275W        W92590   0.570  28.500  14.301
20276W        W92591   1.723  12.284   4.745
20277W        W92592  42.404  33.489  13.397
20278W        W92593  17.251  12.673  14.042
20279W        W92594  11.329  20.176  12.577
20280W        W92595  32.125  30.695   3.355
20281W        W92596  36.041   5.839  10.698
20282W        W92597  22.291  11.412  14.381
20283W        W92598  25.989  10.258  12.543
20284W        W92599  14.219  42.599   2.099
20285W        W92600  33.424  24.027   2.659
20286W        W92601  33.593  24.552   2.500
20287W        W92602  37.932  23.322   1.369
20288W        W92603  11.958  17.708   0.712
20289W        W92604  18.231   7.420  10.706
20290W        W92605  31.516  42.209   3.501
20291W        W92606   4.627  40.064  12.883
20292W        W92607  25.047  17.314  14.892
20293W        W92608  37.353  18.580  11.380
20294W        W92609  37.401  23.489   3.069
20295W        W92610  38.008  21.992  12.141
20296W        W92611  27.528  10.254  14.403
20297W        W92612  11.234  33.555   0.414
20298W        W92613   1.756  24.378   4.218
20299W        W92614  32.110  37.123  10.886
20300W        W92615  43.287  19.760   4.016
20301W        W92616  27.251  22.113  12.774
20302W        W92617  13.303  11.222  14.839
20303W        W92618  15.099  14.104   3.214
20304W        W92619   8.712   1.253  12.578
20305W        W92620  14.102  31.947   3.901
20306W        W92621  41.578  19.532  12.450
20307W        W92622  33.530   0.767  12.020
20308W        W92623  25.123  10.771   1.669
20309W        W92624  20.438  13.940   4.876
20310W        W92625  25.926  21.053  13.403
20311W        W92626   5.971  36.018   4.368
20312W        W92627   8.936   1.889   2.249
20313W        W92628  40.559  22.846  14.065
20314W        W92629  22.196  39.123   4.311
20315W        W92630  26.533   7.660  12.009
20316W        W92631   9.153  38.382   2.705
20317W        W92632   2.780  28.022  12.983
20318W        W92633   0.492  10.188   3.587
20319W        W92634  27.848  36.700   1.727
20320W        W92635   2.974  26.437  13.558
20321W        W92636  42.875  25.630   4.007
20322W        W92637   2.178  31.757   0.372
20323W        W92638  40.486  24.637   1.894
20324W        W92639  12.310  19.262   2.536
20325W        W92640  32.422  27.567   3.949
20326W        W92641  10.193  24.056   2.832
20327W        W92642  31.595   2.661   2.322
20328W        W92643  36.964   9.234  14.808
20329W        W92644  36.410  21.686  14.366
20330W        W92645  44.492  18.242  14.866
20331W        W92646   3.332  23.094   2.116
20332W        W92647  15.549   4.406   3.858
20333W        W92648  43.946  15.906  12.449
20334W        W92649  14.576   6.740   3.349
20335W        W92650  16.551  33.723   1.288
20336W        W92651  38.133   8.404  12.946
20337W        W92652  34.743  21.641   3.410
20338W        W92653   6.376  19.289  10.805
20339W        W92654   1.512  35.922   2.176
20340W        W92655  17.225  42.767  10.465
20341W        W92656  13.824   5.606   2.669
20342W        W92657   2.253  35.612   3.292
20343W        W92658  26.001   0.724   4.360
20344W        W92659  32.951  32.651  13.455
20345W        W92660  19.708   5.166   0.327
20346W        W92661   7.213   2.993   3.099
20347W        W92662  40.886  44.343  11.812
20348W        W92663  25.112  39.465   3.404
20349W        W92664  42.023  30.674   2.266
20350W        W92665  18.195  38.290   0.713
20351W        W92666  27.600   4.793   3.583
20352W        W92667  43.709  24.121  12.052
20353W        W92668  13.803  18.500   0.959
20354W        W92669  42.674  23.752   0.882
20355W        W92670   7.105   2.546   4.169
20356W        W92671  10.427  29.714  14.772
20357W        W92672  42.152  22.744   2.312
20358W        W92673  34.308  17.596  14.598
20359W        W92674   6.881  11.592  12.608
20360W        W92675  40.505  16.773   0.008
20361W        W92676  19.150   7.307  14.108
20362W        W92677  11.406   0.952  13.937
20363W        W92678  14.058   8.631  12.434
20364W        W92679  26.090  41.018  12.924
20365W        W92680  22.797  44.470   0.290
20366W        W92681   9.599  21.714  12.525
20367W        W92682  19.109  19.118  13.062
20368W        W92683  18.501  20.128  13.640
20369W        W92684  40.103  13.645  14.028
20370W        W92685  19.954  13.072   4.573
20371W        W92686   1.432  36.001   3.211
20372W        W92687  11.600  18.345  11.579
20373W        W92688   8.647  17.670  14.869
20374W        W92689  17.119  15.230  14.479
20375W        W92690  23.660  21.978   5.470
20376W        W92691  30.978  39.370  13.372
20377W        W92692  28.656  39.457   4.285
20378W        W92693  33.328  33.429   2.455
20379W        W92694   8.521   3.001   4.168
20380W        W92695  29.403  22.741   4.106
20381W        W92696   4.362  21.179  10.688
20382W        W92697  22.064   8.973   3.211
20383W        W92698  39.476  12.613   4.360
20384W        W92699  17.678  17.482   3.734
20385W        W92700   3.823  42.046  14.236
20386W        W92701  29.840  15.935   0.681
20387W        W92702  31.583  33.665  13.837
20388W        W92703  42.254  21.174  13.927
20389W        W92704   3.447  36.541   2.354
20390W        W92705   2.466  10.137   2.000
20391W        W92706   6.711  31.333   1.134
20392W        W92707  17.176   1.445  11.397
20393W        W92708   4.707   4.396   2.665
20394W        W92709  43.265  13.268   2.290
20395W        W92710  11.569  40.433  14.770
20396W        W92711  23.923  13.213  13.455
20397W        W92712  40.899  27.898  14.388
20398W        W92713   0.420  19.133  10.898
20399W        W92714  17.652  19.317   0.851
20400W        W92715  16.898   5.709   2.925
20401W        W92716  28.513  37.418   1.940
20402W        W92717  31.302   1.820   4.127
20403W        W92718  28.100  13.769  11.921
20404W        W92719  42.756  19.728  11.416
20405W        W92720  24.692  35.988  10.684
20406W        W92721  30.610  17.269  12.513
20407W        W92722  14.412  17.846  11.500
20408W        W92723  10.704  11.394  13.960
20409W        W92724  42.060   9.938  14.388
20410W        W92725  20.020   4.753   2.911
20411W        W92726   6.758   5.775   1.175
20412W        W92727  10.826  42.113   1.785
20413W        W92728  12.809  33.840   1.930
20414W        W92729  30.919  40.937   2.390
20415W        W92730  33.025  38.762   4.646
20416W        W92731  28.887  11.310   3.678
20417W        W92732  43.604  34.536   0.655
20418W        W92733  33.538   2.835   4.377
20419W        W92734   9.106   5.500  12.428
20420W        W92735  18.104   0.726   2.245
20421W        W92736  17.540  31.020  14.803
20422W        W92737  21.252  30.580  10.652
20423W        W92738   3.266  30.844   0.296
20424W        W92739  37.308   6.886   3.829
20425W        W92740   2.675  21.296   3.323
20426W        W92741   2.170   5.509   3.643
20427W        W92742  21.600  42.816   1.247
20428W        W92743  18.963   8.244   5.490
20429W        W92744  35.514   3.110   4.514
20430W        W92745  22.566  43.582   4.504
20431W        W92746  33.219  23.288   0.168
20432W        W92747  10.185   0.649  12.011
20433W        W92748  16.117  38.333   5.108
20434W        W92749  34.352  37.561   1.887
20435W        W92750  43.670  28.128   1.078
20436W        W92751  34.695  31.128  11.134
20437W        W92752  15.669   0.969  13.150
20438W        W92753  23.584   5.924  13.996
20439W        W92754  41.919  30.707  14.841
20440W        W92755  36.521  18.679   4.569
20441W        W92756  15.206  29.401  10.237
20442W        W92757  40.818  13.625  11.588
20443W        W92758   3.427  32.803  10.685
20444W        W92759  11.325  27.008   1.380
20445W        W92760  19.490  37.383   5.103
20446W        W92761  12.141  36.939   4.087
20447W        W92762  32.311  17.160   1.116
20448W        W92763  13.698   5.900   3.095
20449W        W92764  25.729  37.401  10.117
20450W        W92765  15.770  41.801   0.453
20451W        W92766  32.423  22.052  10.393
20452W        W92767  36.658  18.661   5.060
20453W        W92768  12.764  27.797  11.134
20454W        W92769  21.262  39.838   0.369
20455W        W92770  34.518  12.724   1.949
20456W        W92771   1.951  31.384  12.090
20457W        W92772   7.710  19.037  12.553
20458W        W92773  18.266  17.746  10.465
20459W        W92774  27.184  30.848  12.044
20460W        W92775  18.684  17.762  11.208
20461W        W92776   6.544  29.149  11.116
20462W        W92777   4.910   1.315  13.362
20463W        W92778  44.412  25.439  10.630
20464W        W92779   9.943  19.609   0.961
20465W        W92780   7.499   0.401  12.464
20466W        W92781  30.444  24.970  11.165
20467W        W92782  11.187  15.860   1.219
20468W        W92783  30.227   9.217   4.449
20469W        W92784  39.288   2.764   3.758
20470W        W92785  40.688  29.634   0.423
20471W        W92786   7.687  26.919   5.011
20472W        W92787   7.449  42.480   3.737
20473W        W92788  42.521  24.608   2.184
20474W        W92789  25.576   6.196   1.846
20475W        W92790  38.842  28.664   1.784
20476W        W92791   0.287   3.356  14.984
20477W        W92792  26.100  23.747  14.554
20478W        W92793  43.272  23.879  12.220
20479W        W92794  44.309  31.777  11.261
20480W        W92795  34.968  25.268   0.875
20481W        W92796  32.927  13.064  12.511
20482W        W92797  13.104  28.590  12.808
20483W        W92798  30.013  38.324   3.350
20484W        W92799  17.420  23.242  10.380
20485W        W92800  41.511  18.582  12.880
20486W        W92801  22.939   8.634   2.905
20487W        W92802  28.652  30.344   4.254
20488W        W92803  10.876  12.654   2.807
20489W        W92804  38.819   4.950   5.445
20490W        W92805  32.802   6.755  12.881
20491W        W92806  40.799  26.728   1.268
20492W        W92807  26.111  40.729  14.366
20493W        W92808  44.375  16.116   4.153
20494W        W92809  38.071  24.176   4.426
20495W        W92810  33.084  25.461   4.686
20496W        W92811  17.558  35.653   0.684
20497W        W92812  10.597  17.794  13.407
20498W        W92813   9.844  14.625   0.791
20499W        W92814  19.783  22.008  13.930
20500W        W92815  33.357  35.467   2.942
20501W        W92816  31.674  23.917   4.142
20502W        W92817  34.993   3.036   1.912
20503W        W92818  17.196  36.410  11.429
20504W        W92819  38.210   7.189   1.294
20505W        W92820   5.393   7.162  12.031
20506W        W92821  35.869  33.912   0.253
20507W        W92822  17.154   3.698  12.453
20508W        W92823  23.080  20.595  14.444
20509W        W92824  32.127  27.541  10.316
20510W        W92825  29.655  29.397   1.327
20511W        W92826   1.987  26.445   4.085
20512W        W92827  23.539  26.450   3.105
20513W        W92828  36.596  32.661  13.998
20514W        W92829  27.535  17.435  13.848
20515W        W92830  44.333  44.296  11.180
20516W        W92831  16.839  33.591  14.420
20517W        W92832   3.282  30.257  13.342
20518W        W92833  16.576  25.344  14.351
20519W        W92834  28.959  40.532   4.298
20520W        W92835  34.967  32.354   3.676
20521W        W92836  30.466  20.534   1.315
20522W        W92837  11.266  39.626   4.808
20523W        W92838  27.427  40.071  10.741
20524W        W92839  43.274  17.645  12.899
20525W        W92840  36.869  22.476   2.420
20526W        W92841  44.432  24.629  11.500
20527W        W92842  13.832   1.325   3.341
20528W        W92843  23.255  24.137   0.517
20529W        W92844  19.013  26.080   1.793
20530W        W92845  18.575  11.304   1.731
20531W        W92846  30.163  11.361  13.979
20532W        W92847   5.804   6.428   0.791
20533W        W92848  17.206   9.630  14.027
20534W        W92849  26.608   2.863  14.309
20535W        W92850  26.063   7.457  12.868
20536W        W92851   1.785  15.798   4.053
20537W        W92852  31.427  35.959  13.013
20538W        W92853   5.185   5.765   4.860
20539W        W92854  31.394  24.493   3.340
20540W        W92855   3.968   6.484  14.461
20541W        W92856  19.663  14.229   4.548
20542W        W92857   9.573  26.229  11.941
20543W        W92858  14.034   2.920  13.819
20544W        W92859  27.742  28.859   5.102
20545W        W92860  12.234   3.214   3.805
20546W        W92861  17.309  38.578   2.690
20547W        W92862   5.859  27.655  11.921
20548W        W92863   4.294   2.913  11.271
20549W        W92864  30.942  14.124  12.063
20550W        W92865  40.416  17.780  13.932
20551W        W92866   3.215  38.025  13.512
20552W        W92867  33.778  28.902   2.785
20553W        W92868  17.214  34.073  13.853
20554W        W92869   6.408  30.931   4.586
20555W        W92870  18.624  24.573  11.603
20556W        W92871  17.280  17.549  11.577
20557W        W92872  38.977   9.210  12.494
20558W        W92873  11.474   6.709  14.413
20559W        W92874  41.948   7.734  10.805
20560W        W92875  30.360  41.963  14.726
20561W        W92876  15.387  27.123  13.064
20562W        W92877  10.642  36.906  11.921
20563W        W92878  13.927  27.135  13.060
20564W        W92879   3.514  40.414   0.703
20565W        W92880  32.509   0.482  12.944
20566W        W92881  40.191  31.688  11.906
20567W        W92882  23.211  18.229  12.645
20568W        W92883  25.655  26.185   3.601
20569W        W92884   4.298  36.845   0.320
20570W        W92885  13.571  17.228  12.918
20571W        W92886  20.248  36.152   3.176
20572W        W92887  22.738  25.586  10.423
20573W        W92888  18.712  27.577  11.923
20574W        W92889  19.053  31.172   3.241
20575W        W92890  38.097  26.018  12.134
20576W        W92891   9.337  42.039  11.627
20577W        W92892  33.840  13.844   3.072
20578W        W92893  19.502  26.891  12.084
20579W        W92894  10.168  41.360  13.288
20580W        W92895  16.576  37.796  13.749
20581W        W92896  21.127  23.381   2.824
20582W        W92897  30.683  16.595  10.847
20583W        W92898  18.757  14.582  14.399
20584W        W92899  19.543  35.999  13.561
20585W        W92900  38.393  25.702  10.157
20586W        W92901   2.973  24.619  12.597
20587W        W92902  30.847  35.544   0.853
20588W        W92903  19.817   2.037  11.946
20589W        W92904   3.250  28.538  11.553
20590W        W92905  18.794  41.907  14.851
20591W        W92906  19.773  40.388   3.211
20592W        W92907  33.509  27.130  12.505
20593W        W92908  22.133  35.092   3.662
20594W        W92909   1.965  13.249  13.483
20595W        W92910  24.557   4.550  11.451
20596W        W92911  34.901  20.117   0.348
20597W        W92912  25.014   1.287  11.967
20598W        W92913  27.231   3.389   0.449
20599W        W92914   0.488   0.427  14.731
20600W        W92915  41.844  16.644  12.760
20601W        W92916  38.538  12.441   0.925
20602W        W92917  26.654  12.141  14.793
20603W        W92918   4.746   6.858   3.575
20604W        W92919  27.429  39.692  11.114
20605W        W92920  20.653  30.254   0.889
20606W        W92921  29.295   7.089  10.759
20607W        W92922   7.686  38.719  11.058
20608W        W92923  26.045  30.304   0.747
20609W        W92924  14.871  14.334  14.545
20610W        W92925   3.758  28.399  13.375
20611W        W92926  41.856  36.923   2.736
20612W        W92927  23.602  22.836   0.299
20613W        W92928   3.528   3.723   3.785
20614W        W92929  12.276  25.437  13.953
20615W        W92930  39.112  38.194   3.608
20616W        W92931  24.887  28.938  13.797
20617W        W92932   9.769  20.191   3.617
20618W        W92933  42.549  22.351   3.339
20619W        W92934  29.859  29.074  10.974
20620W        W92935  24.976  20.659   3.875
20621W        W92936  25.997  23.430   0.033
20622W        W92937  35.792  16.111  12.381
20623W        W92938   7.823   1.474  14.917
20624W        W92939  10.814  29.029   2.147
20625W        W92940   9.750  23.538   2.928
20626W        W92941  17.833  35.112  11.138
20627W        W92942  31.892  42.582  13.548
20628W        W92943  15.642  36.322   4.581
20629W        W92944   3.344  24.148  12.159
20630W        W92945   6.369   4.688   3.851
20631W        W92946  17.873  32.539  13.289
20632W        W92947   5.189  42.948   0.401
20633W        W92948   9.910  29.951  12.000
20634W        W92949   5.805  20.626  12.595
20635W        W92950   4.907  17.699  14.931
20636W        W92951  18.082   9.932  13.926
20637W        W92952  38.999  17.816   2.798
20638W        W92953  35.432  11.296  10.844
20639W        W92954  13.919  40.856  14.222
20640W        W92955  36.961  44.119   0.757
20641W        W92956  35.097  25.093   0.399
20642W        W92957  42.466   7.405   2.228
20643W        W92958   2.156   5.431  12.566
20644W        W92959  34.654  15.560   3.116
20645W        W92960  35.830  14.706  10.746
20646W        W92961  30.357  10.828  11.053
20647W        W92962   5.419  42.045   4.597
20648W        W92963  30.106  11.377   2.902
20649W        W92964  38.743  33.744  14.279
20650W        W92965  39.111  10.715  12.884
20651W        W92966  35.363  40.324   0.796
20652W        W92967  35.523  36.632   3.774
20653W        W92968  13.499  35.405  10.687
20654W        W92969  21.701   7.179  11.475
20655W        W92970  29.907  18.501   3.235
20656W        W92971  24.421  28.714  13.929
20657W        W92972  44.388  32.938   0.952
20658W        W92973  25.485   5.888   1.406
20659W        W92974  26.094  13.259   4.897
20660W        W92975  41.826  25.684  12.641
20661W        W92976   6.681   0.416  14.716
20662W        W92977  33.552  34.164   4.170
20663W        W92978  11.462  18.692  13.576
20664W        W92979   0.964   3.226   5.001
20665W        W92980   5.184  33.077  12.186
20666W        W92981  14.771  34.904  10.745
20667W        W92982  34.174  20.355  13.754
20668W        W92983  24.308  24.616   1.713
20669W        W92984  44.254  44.921   2.275
20670W        W92985  36.384  25.574   2.393
20671W        W92986  26.934  14.497  13.075
20672W        W92987   0.125  30.427   1.981
20673W        W92988  16.277   3.238   3.321
20674W        W92989  30.085  28.492  12.436
20675W        W92990   6.317  33.387  12.869
20676W        W92991   3.254  11.697  12.894
20677W        W92992  25.365   8.416   1.724
20678W        W92993  38.530  26.264  11.297
20679W        W92994  39.122  15.856   2.322
20680W        W92995  19.211   8.055  11.620
20681W        W92996  26.996  20.820   2.206
20682W        W92997  14.142  16.367  14.472
20683W        W92998  15.731  12.770   1.690
20684W        W92999  39.871  34.475  12.398
20685W        W93000  19.114  44.201  12.202
20686W        W93001  26.928  30.081  10.474
20687W        W93002   4.433  34.852  13.590
20688W        W93003  28.241  24.523   2.642
20689W        W93004  42.424   8.662   0.759
20690W        W93005  28.497  42.297  14.768
20691W        W93006   1.713  34.940   1.872
20692W        W93007  44.532   0.002  11.446
20693W        W93008  22.731  20.476   4.342
20694W        W93009  14.285  11.267  13.801
20695W        W93010   2.406  12.587   3.658
20696W        W93011  23.105   9.794  12.356
20697W        W93012  24.524  22.594   0.765
20698W        W93013  12.893  10.690   0.474
20699W        W93014  25.629  33.413  10.453
20700W        W93015  17.731   9.182  12.018
20701W        W93016  11.522  18.744  14.905
20702W        W93017  13.762  44.416   1.732
20703W        W93018  44.599  13.434   1.816
20704W        W93019  12.143  15.330   2.323
20705W        W93020  16.192  32.180   2.842
20706W        W93021   7.994  41.204   4.191
20707W        W93022  32.368  20.326  12.300
20708W        W93023  36.617  35.013   3.233
20709W        W93024  30.498   0.896  12.448
20710W        W93025  19.029  29.695   2.755
20711W        W93026  15.639  37.275  11.605
20712W        W93027  27.430  18.812  11.000
20713W        W93028  14.339   0.773   4.583
20714W        W93029  27.241  35.893  14.593
20715W        W93030  13.667  14.119   1.161
20716W        W93031  38.046   0.258  11.893
20717W        W93032  19.129  24.462  12.443
20718W        W93033  40.095  26.194  14.995
20719W        W93034  15.000  34.206  12.495
20720W        W93035  26.737  11.645  14.903
20721W        W93036  30.628  27.941  13.558
20722W        W93037   1.997  25.399   4.169
20723W        W93038  40.874  10.445  11.105
20724W        W93039   0.554  37.358  14.924
20725W        W93040  12.632  10.343   1.416
20726W        W93041  36.398  24.894  13.843
20727W        W93042  22.843  30.812  12.000
20728W        W93043  27.292   7.135   4.488
20729W        W93044  36.321   6.819   4.730
20730W        W93045  43.011  26.452   1.273
20731W        W93046   4.243   7.008  14.543
20732W        W93047  19.946  32.594   1.380
20733W        W93048   1.476   9.191  11.385
20734W        W93049  15.394  27.108   2.328
20735W        W93050  16.875  34.802  11.047
20736W        W93051  27.170  44.855   4.213
20737W        W93052  19.955  42.153  13.036
20738W        W93053  36.877  28.423   0.285
20739W        W93054  11.779  19.203   0.811
20740W        W93055  33.112  21.125   3.335
20741W        W93056   6.704  23.947  11.033
20742W        W93057   4.274   8.285  12.905
20743W        W93058   3.251  11.646   0.629
20744W        W93059   6.410  21.537  11.975
20745W        W93060  27.940  34.180  12.249
20746W        W93061   2.413  28.959   2.699
20747W        W93062  38.572  33.487   2.289
20748W        W93063  43.494  37.808  14.299
20749W        W93064  14.848  16.530  12.898
20750W        W93065  28.663   0.536  12.424
20751W        W93066  41.517  29.934   0.153
20752W        W93067   7.693  44.509   0.048
20753W        W93068  17.710  41.061   5.155
20754W        W93069  42.505  23.680   4.534
20755W        W93070  16.183  29.151  10.531
20756W        W93071  24.687  18.441  13.989
20757W        W93072  16.719  26.731   4.538
20758W        W93073  12.614  39.804   1.347
20759W        W93074  19.139  34.785   1.691
20760W        W93075  28.529  22.813  11.537
20761W        W93076   3.008  44.408  10.718
20762W        W93077  18.276   4.246   2.615
20763W        W93078  21.313  20.685   1.739
20764W        W93079   4.163  18.170  10.893
20765W        W93080  15.847  31.115  12.579
20766W        W93081  23.945  22.513   2.823
20767W        W93082   0.641  34.100  14.969
20768W        W93083  39.385  37.550   3.003
20769W        W93084  29.858  32.983   0.716
20770W        W93085  39.518  15.134   2.914
20771W        W93086   0.621  19.317  11.554
20772W        W93087   9.022   8.023  13.398
20773W        W93088  24.294  43.110  13.525
20774W        W93089  20.300  23.201   1.698
20775W        W93090  42.064  10.580   0.259
20776W        W93091  12.652  29.520  10.477
20777W        W93092   1.262  36.574   4.737
20778W        W93093  16.671   5.114  10.639
20779W        W93094   6.471  37.576   4.369
20780W        W93095   9.030   3.048   4.226
20781W        W93096  12.779  14.646  12.136
20782W        W93097  37.447  32.008   4.902
20783W        W93098  33.575  22.429  12.104
20784W        W93099   5.305  23.497  11.302
20785W        W93100  22.484  37.347   2.821
20786W        W93101  44.221  21.169  13.475
20787W        W93102  41.970  28.218   1.653
20788W        W93103   7.118  30.405   2.172
20789W        W93104  12.837   1.660  14.953
20790W        W93105  26.943  27.356  13.361
20791W        W93106  40.557  19.198  14.949
20792W        W93107  14.341  32.089   1.813
20793W        W93108  19.962   3.838  11.967
20794W        W93109  30.102  30.074   4.920
20795W        W93110  10.049   4.006  14.072
20796W        W93111  28.631  24.996  13.401
20797W        W93112  26.174  42.779   1.508
20798W        W93113  31.489  25.149  11.308
20799W        W93114  20.154   1.997   2.565
20800W        W93115  37.753  14.930   3.406
20801W        W93116  34.509  25.091   2.932
20802W        W93117  42.905  16.576   0.110
20803W        W93118  11.399  13.663   0.906
20804W        W93119  16.007  11.310   1.907
20805W        W93120  26.034  22.926  14.913
20806W        W93121  37.711   7.126   4.912
20807W        W93122  40.129  44.798  10.514
20808W        W93123  23.270   4.501   4.558
20809W        W93124  39.396  24.683   4.221
20810W        W93125  23.733  38.882   4.661
20811W        W93126  44.121  12.496   4.246
20812W        W93127  36.639  36.970   2.422
20813W        W93128  37.993  22.466   3.223
20814W        W93129  19.771  34.895  14.343
20815W        W93130   0.735   6.291   4.585
20816W        W93131  28.384  32.738   4.962
20817W        W93132  15.550   6.775   4.636
20818W        W93133  19.342  11.721  14.443
20819W        W93134  11.458  35.220   3.198
20820W        W93135  31.473  34.569   4.090
20821W        W93136  21.951   1.869   2.357
20822W        W93137   1.237  23.013   0.770
20823W        W93138   8.463  40.533   4.356
20824W        W93139  43.152  43.857  14.761
20825W        W93140  27.114  27.188   1.776
20826W        W93141  10.702   6.978  14.660
20827W        W93142  30.013  43.862   0.406
20828W        W93143   6.151   3.026   0.453
20829W        W93144  26.285  23.733   1.914
20830W        W93145  12.757  36.829  11.656
20831W        W93146   1.230  21.463  12.880
20832W        W93147   1.777  17.348   0.890
20833W        W93148   6.496  28.044   2.362
20834W        W93149   9.941  44.778   2.270
20835W        W93150  23.246   3.511   4.447
20836W        W93151  16.670  23.648  10.609
20837W        W93152   3.768   4.969   2.858
20838W        W93153  33.983  19.660   1.170
20839W        W93154  38.479  26.707  13.281
20840W        W93155   6.216  36.168  12.611
20841W        W93156   6.936  24.449   2.193
20842W        W93157  38.159  26.092  11.622
20843W        W93158  25.739  13.265   3.244
20844W        W93159  36.029   4.434   4.788
20845W        W93160  14.596  33.934  12.966
20846W        W93161   5.880  23.300  14.228
20847W        W93162  39.868   9.903  14.471
20848W        W93163   8.194  44.328  12.207
20849W        W93164   7.704  29.159   1.865
20850W        W93165  24.471   0.131   1.302
20851W        W93166  32.364  35.583  12.506
20852W        W93167  18.835   6.014   3.174
20853W        W93168  32.527  22.245   1.458
20854W        W93169  24.187   1.804   1.205
20855W        W93170  43.769  29.211   1.685
20856W        W93171  22.242  27.113  11.994
20857W        W93172  27.417  40.634  13.236
20858W        W93173  28.198  15.317  13.492
20859W        W93174  26.535  43.871  11.858
20860W        W93175  33.482   4.613  12.771
20861W        W93176   8.199  44.057   3.618
20862W        W93177  22.230   1.487   2.590
20863W        W93178  35.581  43.884  10.768
20864W        W93179  28.915  21.783  10.832
20865W        W93180  42.319  24.254   1.830
20866W        W93181  27.411  22.025  14.851
20867W        W93182  10.716  37.007  12.852
20868W        W93183  41.532  40.051   3.080
20869W        W93184   1.982   4.495   3.435
20870W        W93185  22.588  15.070   9.624
20871W        W93186  25.061  23.179   3.280
20872W        W93187  39.574  24.557  13.484
20873W        W93188  27.082   4.726   3.643
20874W        W93189  15.188   6.309  14.055
20875W        W93190  38.018  17.667  13.909
20876W        W93191  38.465   0.774  11.297
20877W        W93192  32.581  31.908   4.366
20878W        W93193  29.068  34.657   3.245
20879W        W93194   5.897  19.721  10.645
20880W        W93195   2.946  11.262   2.221
20881W        W93196   0.059   8.394  11.649
20882W        W93197   4.432  32.419   4.364
20883W        W93198  42.010  38.735  14.542
20884W        W93199  34.099  43.580  12.962
20885W        W93200  36.345   0.977  12.039
20886W        W93201  20.272  15.391  13.620
20887W        W93202  34.897  21.680  10.951
20888W        W93203  44.379  35.190  14.370
20889W        W93204  39.335  22.479  12.547
20890W        W93205  38.866  34.065   3.418
20891W        W93206  44.422  38.826   2.665
20892W        W93207   7.935  26.165   3.879
20893W        W93208  32.828  16.420   0.802
20894W        W93209   6.823  18.074  11.261
20895W        W93210  12.099   1.961  12.988
20896W        W93211   2.880   2.951   2.215
20897W        W93212  21.739  10.685  12.460
20898W        W93213  26.102  22.527   4.956
20899W        W93214   3.728  19.290   2.726
20900W        W93215  12.116  14.818  13.027
20901W        W93216  44.478  37.782  11.559
20902W        W93217  42.729   5.304  12.612
20903W        W93218   2.052  22.308   0.913
20904W        W93219  32.624   3.431  11.302
20905W        W93220  12.288  43.282  12.424
20906W        W93221   3.365   1.444   4.649
20907W        W93222   7.886  23.992   3.765
20908W        W93223  13.306  13.354  10.644
20909W        W93224  24.931  19.809   9.776
20910W        W93225  17.158  29.754  13.393
20911W        W93226  38.920  42.185   0.390
20912W        W93227  33.672  35.475  12.084
20913W        W93228  32.087  33.241   1.698
20914W        W93229   7.393  39.840   0.263
20915W        W93230  42.461  30.395  13.445
20916W        W93231  20.477  11.745   2.868
20917W        W93232   1.817  26.964   0.372
20918W        W93233  33.060   0.248  14.032
20919W        W93234   4.670  12.860  12.545
20920W        W93235  35.964  21.696   1.667
20921W        W93236  37.875  10.678   2.083
20922W        W93237   2.859  34.536  11.061
20923W        W93238  27.465  42.063   1.280
20924W        W93239  42.811  13.508   4.564
20925W        W93240  15.196  37.915   0.125
20926W        W93241  26.746  29.428   0.520
20927W        W93242  26.966  30.525   1.768
20928W        W93243  10.810  33.018  12.911
20929W        W93244   4.412  13.177   0.814
20930W        W93245  29.477  38.428   3.024
20931W        W93246  37.076  43.611   0.862
20932W        W93247  33.891   9.893   1.591
20933W        W93248  38.479   8.587   0.474
20934W        W93249   9.822  28.000   0.504
20935W        W93250  16.727   7.161  13.690
20936W        W93251  12.726  42.033  12.775
20937W        W93252  15.768  35.186  14.306
20938W        W93253  26.092  25.694  13.518
20939W        W93254   1.459  43.025  11.971
20940W        W93255  37.427  23.115   4.406
20941W        W93256  18.718  13.218  11.076
20942W        W93257  27.662   9.358   4.608
20943W        W93258  22.810  15.104  11.329
20944W        W93259  27.358  36.557  10.699
20945W        W93260   0.502  23.990  14.498
20946W        W93261  44.295   8.167   2.864
20947W        W93262   5.092  19.663   0.396
20948W        W93263  18.129  24.165   4.658
20949W        W93264   1.194  26.514   1.817
20950W        W93265  14.504  24.370  12.930
20951W        W93266  19.790  36.186  13.971
20952W        W93267  11.540   2.281  11.290
20953W        W93268   0.929  31.675  14.697
20954W        W93269  39.803  35.881   1.285
20955W        W93270  19.618  11.878   0.936
20956W        W93271   8.215  14.228  11.208
20957W        W93272  23.692  34.050   2.861
20958W        W93273  27.133  14.991  11.382
20959W        W93274   4.447  30.001   1.335
20960W        W93275  23.099  20.561  13.054
20961W        W93276  29.517  30.483  10.212
20962W        W93277  18.807  35.620   0.011
20963W        W93278  44.803  25.550  11.412
20964W        W93279  36.890  43.741   1.329
20965W        W93280   5.312  21.598   2.212
20966W        W93281   4.869  29.175  12.077
20967W        W93282   1.895  42.781   3.619
20968W        W93283  36.834  34.888   1.338
20969W        W93284   5.199  34.537   0.874
20970W        W93285  18.196  34.036  10.657
20971W        W93286  17.783  39.499   3.863
20972W        W93287  29.411  27.220   0.446
20973W        W93288  19.966   7.737   3.291
20974W        W93289  25.697  22.402   4.153
20975W        W93290  38.943  26.551   2.299
20976W        W93291  34.854  37.367   1.826
20977W        W93292  36.998  33.491  11.072
20978W        W93293  27.431  13.772   0.388
20979W        W93294  24.591  39.430  14.356
20980W        W93295  33.028  10.239   2.659
20981W        W93296  30.993  39.799   1.731
20982W        W93297  37.483  40.476  13.299
20983W        W93298   8.427  39.907   1.619
20984W        W93299  19.454  39.999   3.198
20985W        W93300   0.818  27.097   0.212
20986W        W93301  42.798  27.679  11.592
20987W        W93302   1.729  26.663   3.692
20988W        W93303  29.170   0.770   2.803
20989W        W93304  41.745  14.069   0.575
20990W        W93305   6.805  13.938  12.818
20991W        W93306  40.751   9.910  11.688
20992W        W93307  35.907  36.044   4.280
20993W        W93308   2.418  39.842  12.928
20994W        W93309  17.279   4.764   4.401
20995W        W93310  17.179  34.796   2.746
20996W        W93311  19.050  30.199   2.311
20997W        W93312  31.342  32.119  12.276
20998W        W93313  39.625   6.389   3.952
20999W        W93314  25.089  36.849  12.486
21000W        W93315  28.503  11.753   0.505
21001W        W93316  19.834  16.132   1.740
21002W        W93317  39.768  44.450   4.012
21003W        W93318  25.346  30.452  12.293
21004W        W93319  35.852  43.529   1.331
21005W        W93320   3.664  29.906   0.540
21006W        W93321  36.067  11.357  12.518
21007W        W93322  23.961  35.319  12.045
21008W        W93323  22.687   6.393  14.543
21009W        W93324  22.464   4.046  11.531
21010W        W93325  36.624  10.041   1.734
21011W        W93326  14.673   6.858   2.385
21012W        W93327  36.409  34.194   0.957
21013W        W93328  44.789  34.578  11.924
21014W        W93329   6.262   8.160  14.474
21015W        W93330  12.691  18.272  14.773
21016W        W93331  20.135   1.432  14.010
21017W        W93332  12.529   4.894  10.874
21018W        W93333  31.435  16.287  12.176
21019W        W93334  10.311  25.536   2.807
21020W        W93335  13.780  38.951   0.004
21021W        W93336  12.782  36.470   3.659
21022W        W93337  25.077  26.616  12.976
21023W        W93338  42.421  22.285   1.859
21024W        W93339   0.042  43.379   0.830
21025W        W93340  17.289   3.277  13.285
21026W        W93341  32.284  40.899   1.318
21027W        W93342   8.643   2.860  13.129
21028W        W93343  35.530  39.876  12.888
21029W        W93344  29.164  37.737  12.081
21030W        W93345   0.605  13.688  13.771
21031W        W93346  32.896  21.044  14.776
21032W        W93347  34.877   7.575  12.297
21033W        W93348  20.888  37.048  11.121
21034W        W93349   5.682  32.089  14.881
21035W        W93350  36.067  44.431  14.809
21036W        W93351  41.067  33.637   1.213
21037W        W93352  29.211  16.090   1.242
21038W        W93353  40.557  24.062  12.905
21039W        W93354  22.238   3.431  13.994
21040W        W93355  42.315  11.536  14.730
21041W        W93356  32.161  15.155  10.889
21042W        W93357  31.050   2.430   2.385
21043W        W93358   2.755  12.220  11.623
21044W        W93359   4.254  36.089   3.147
21045W        W93360   1.816  23.900   4.007
21046W        W93361   5.852   1.002  10.666
21047W        W93362  40.983  24.663   2.846
21048W        W93363   0.806  44.447   0.752
21049W        W93364  42.156  38.415  11.238
21050W        W93365   9.929  36.356   1.891
21051W        W93366  12.124   3.667   0.314
21052W        W93367  42.304  25.534   3.122
21053W        W93368  35.285   9.721  13.026
21054W        W93369   0.922  19.718   3.567
21055W        W93370  37.447  10.744   0.203
21056W        W93371   0.845  34.922   2.884
21057W        W93372  29.390  32.393  10.691
21058W        W93373   0.981  42.366  13.448
21059W        W93374  11.601  26.760  14.947
21060W        W93375  33.138  41.415  13.499
21061W        W93376   3.154  24.076   2.478
21062W        W93377  31.100  16.589  14.466
21063W        W93378   0.029  21.537   4.566
21064W        W93379  10.475  28.424  11.428
21065W        W93380  23.135  30.989  12.447
21066W        W93381  38.445  23.911   1.818
21067W        W93382   6.973  20.150   4.250
21068W        W93383   1.777  43.023   4.614
21069W        W93384  10.237  28.666   3.633
21070W        W93385  44.956  19.735   0.708
21071W        W93386  29.430  23.731  10.487
21072W        W93387   3.214  15.282  11.225
21073W        W93388   9.078  15.930   4.582
21074W        W93389   4.081   5.927  12.652
21075W        W93390  18.974  12.760  11.351
21076W        W93391  32.677  14.386   3.440
21077W        W93392  12.878  36.349  12.411
21078W        W93393  24.010  44.795  10.598
21079W        W93394  26.939  39.068   2.404
21080W        W93395  20.701  41.826   1.006
21081W        W93396  42.883  12.376   0.828
21082W        W93397  40.488  24.134  10.119
21083W        W93398  17.353  14.157   0.972
21084W        W93399  15.877  39.400   2.690
21085W        W93400   0.744  32.617  13.857
21086W        W93401   8.753   6.299   2.547
21087W        W93402  41.776  16.131   4.142
21088W        W93403  42.535  32.600   2.744
21089W        W93404  12.668  14.236  11.368
21090W        W93405  32.188  29.667   3.288
21091W        W93406  11.434   3.982   2.715
21092W        W93407   9.904  38.270  14.971
21093W        W93408  21.698  13.282   1.937
21094W        W93409   9.235  12.972   1.491
21095W        W93410  15.218   2.675   3.057
21096W        W93411  16.494  16.396   1.329
21097W        W93412   3.543  42.258   3.772
21098W        W93413  17.077  37.932  12.515
21099W        W93414  22.035   1.014  12.836
21100W        W93415  16.931   9.284  12.288
21101W        W93416  22.253  28.045  11.005
21102W        W93417  19.678  31.020  11.309
21103W        W93418  35.754  21.607   3.211
21104W        W93419   6.733  20.033  13.086
21105W        W93420  42.333   7.578  13.168
21106W        W93421  42.881  15.529  11.859
21107W        W93422  34.877  14.571   9.842
21108W        W93423  42.291  16.885  13.918
21109W        W93424  32.942  37.886  14.730
21110W        W93425  34.368  10.672  11.152
21111W        W93426  17.519   9.237   5.355
21112W        W93427  23.002   5.856  11.277
21113W        W93428  16.610  18.762  11.667
21114W        W93429   5.234  17.781   1.877
21115W        W93430  34.543  41.593   1.635
21116W        W93431  23.273  19.853  14.864
21117W        W93432   7.817  18.061   2.757
21118W        W93433  14.790  36.112   4.176
21119W        W93434  19.642   1.003  11.799
21120W        W93435  37.302  40.296   2.268
21121W        W93436  24.012  34.847  12.319
21122W        W93437  16.663   1.804  12.804
21123W        W93438  23.982  28.450   0.977
21124W        W93439  44.198  36.976   2.285
21125W        W93440   4.685   3.355   0.800
21126W        W93441  41.052   4.358  11.068
21127W        W93442  39.121  22.500  11.115
21128W        W93443  37.102  21.300  14.942
21129W        W93444  15.125  27.944  11.167
21130W        W93445  35.298  44.409   3.692
21131W        W93446   6.991  12.812   2.112
21132W        W93447  11.863   1.703  14.230
21133W        W93448  19.253  28.629   1.792
21134W        W93449  18.266  32.094   3.238
21135W        W93450  41.833   9.066  11.559
21136W        W93451   6.156   1.371  14.394
21137W        W93452  18.602  24.275   4.193
21138W        W93453   8.762  21.937   4.847
21139W        W93454  15.590  24.511  10.529
21140W        W93455  36.266  17.596  11.559
21141W        W93456   4.921  34.313  12.568
21142W        W93457  20.724  31.577  11.791
21143W        W93458  23.573  34.765  12.608
21144W        W93459  24.659  36.128   2.351
21145W        W93460  24.259   7.146   0.000
21146W        W93461  31.862  34.598  14.402
21147W        W93462  42.271  13.554   4.584
21148W        W93463   7.273  43.833  13.500
21149W        W93464  20.030  23.539  14.623
21150W        W93465  15.297  13.423   0.060
21151W        W93466  13.071  44.322  13.870
21152W        W93467  11.643  44.368  12.988
21153W        W93468  16.044  18.848  10.821
21154W        W93469  17.553  35.039  11.606
21155W        W93470  40.246  40.880  13.357
21156W        W93471   4.307   9.137   4.310
21157W        W93472  22.968  43.469   1.691
21158W        W93473  41.538  20.178  13.232
21159W        W93474  15.726  42.825   3.156
21160W        W93475   2.883  12.455  13.805
21161W        W93476  14.779  11.686   2.924
21162W        W93477  42.521  20.975   3.260
21163W        W93478  36.485   5.782   2.681
21164W        W93479  33.317  11.479   3.256
21165W        W93480   9.611   7.936  10.655
21166W        W93481  14.710  27.147   0.974
21167W        W93482  29.458  10.464  13.993
21168W        W93483  35.459   1.904   3.753
21169W        W93484  26.232  18.177  13.383
21170W        W93485  27.261  43.956   4.398
21171W        W93486   8.691   2.762  10.439
21172W        W93487   7.622  26.109   4.601
21173W        W93488  27.276  14.221   4.148
21174W        W93489   5.138  19.619  10.739
21175W        W93490  41.724   9.333   3.692
21176W        W93491   9.560  33.693   4.197
21177W        W93492  16.425  23.167  10.591
21178W        W93493  28.552  38.578   4.065
21179W        W93494  32.367   8.295   1.453
21180W        W93495  44.032  37.489  11.976
21181W        W93496   2.446  28.451  13.958
21182W        W93497  16.057  15.845   3.135
21183W        W93498   6.966  32.424  11.902
21184W        W93499   4.737  26.261  13.214
21185W        W93500  13.273   5.990   2.185
21186W        W93501  24.266  26.528  10.466
21187W        W93502  18.581  32.246   2.798
21188W        W93503  29.932  15.103   2.229
21189W        W93504   2.729  17.216   4.665
21190W        W93505  36.168  38.320   0.018
21191W        W93506  16.007  19.599  12.354
21192W        W93507  20.322  41.472  10.692
21193W        W93508   9.898  18.085  13.865
21194W        W93509  30.218  33.379  12.842
21195W        W93510  29.462  25.050   1.237
21196W        W93511  37.571  35.397   0.681
21197W        W93512  20.144  32.161  14.750
21198W        W93513   2.353   2.994  13.612
21199W        W93514  23.953  24.051   5.051
21200W        W93515  11.770   4.464  10.638
21201W        W93516  25.937   0.573  13.375
21202W        W93517  20.474   8.246   1.430
21203W        W93518  12.107  24.135   1.221
21204W        W93519  28.645  29.187  12.566
21205W        W93520  35.343  44.592  13.446
21206W        W93521  34.656  13.106   1.152
21207W        W93522   4.929  30.075   1.155
21208W        W93523  18.819  29.829  14.272
21209W        W93524  10.149  41.090   0.718
21210W        W93525   3.461  44.261  11.926
21211W        W93526   0.615   2.870   0.435
21212W        W93527  19.060  34.656  14.370
21213W        W93528  18.215   8.649   2.670
21214W        W93529  34.011  32.675   4.164
21215W        W93530  35.055  28.671  12.928
21216W        W93531  41.495  22.777  14.397
21217W        W93532  42.284   2.094  11.118
21218W        W93533  25.167   8.338   0.006
21219W        W93534  12.137  11.602  14.053
21220W        W93535  22.502  27.927  13.859
21221W        W93536   6.678  35.371  10.582
21222W        W93537  29.019   4.281   4.912
21223W        W93538  24.605  36.499   1.122
21224W        W93539   7.717  28.429   0.445
21225W        W93540  26.595  26.748  10.981
21226W        W93541  38.966  11.652   4.770
21227W        W93542  17.833   4.808  11.984
21228W        W93543  27.045  24.779   4.613
21229W        W93544   8.827  17.753   0.409
21230W        W93545  30.640  23.963   2.325
21231W        W93546  25.929  23.004   4.675
21232W        W93547  40.043  32.763   1.847
21233W        W93548  31.035   6.019  12.127
21234W        W93549  30.929   2.829  11.034
21235W        W93550  17.701   5.390  10.677
21236W        W93551   5.892   7.914  13.166
21237W        W93552  28.263  42.919   2.162
21238W        W93553  22.635  23.321   0.043
21239W        W93554  41.775  39.581  11.614
21240W        W93555  11.098  17.668  11.143
21241W        W93556  42.046  26.131  12.394
21242W        W93557   8.335   1.369   1.364
21243W        W93558  37.821   7.302  13.403
21244W        W93559  20.816  15.092  11.774
21245W        W93560   0.720   6.488  11.645
21246W        W93561   1.039  20.698   3.847
21247W        W93562  39.483  13.824   0.773
21248W        W93563   0.255  40.904  11.410
21249W        W93564   4.141  17.747   4.604
21250W        W93565  25.689  28.613  13.838
21251W        W93566  42.812  36.498  11.524
21252W        W93567  13.156  38.766   4.618
21253W        W93568  15.429  13.714   3.624
21254W        W93569  18.619  27.564   4.659
21255W        W93570  12.057   0.079   3.301
21256W        W93571   5.145   6.903  14.930
21257W        W93572  11.900  16.702  13.464
21258W        W93573  36.394  11.714   3.759
21259W        W93574  24.276   3.335  10.863
21260W        W93575  27.133  10.246  13.405
21261W        W93576  29.442  38.415   4.028
21262W        W93577  29.139  24.149  10.484
21263W        W93578  35.561  23.951  12.829
21264W        W93579   7.921   6.854   1.274
21265W        W93580  13.304   7.967  13.377
21266W        W93581  14.790  16.227   4.534
21267W        W93582  22.568  27.048   0.087
21268W        W93583   5.313  12.465   0.874
21269W        W93584  37.352  17.766  10.753
21270W        W93585  29.516   5.267   2.779
21271W        W93586  17.231  23.688   3.257
21272W        W93587   9.832  29.006  14.493
21273W        W93588  28.328  29.168   3.041
21274W        W93589  44.814  12.895  13.049
21275W        W93590  21.631  22.514   2.151
21276W        W93591  16.225  25.537  10.710
21277W        W93592   2.375  29.462   0.748
21278W        W93593  24.291  22.939  13.263
21279W        W93594  39.850  22.197  11.036
21280W        W93595  28.197  12.645   1.128
21281W        W93596  15.267   8.788   2.684
21282W        W93597  15.956  32.037  13.132
21283W        W93598  26.279  30.967   4.316
21284W        W93599  38.764  22.015   3.420
21285W        W93600  38.523  36.433  14.635
21286W        W93601  34.601  29.618   1.836
21287W        W93602  16.025  17.268   0.025
21288W        W93603  37.844  11.649  13.709
21289W        W93604  30.628  33.059   3.333
21290W        W93605  36.128  29.562  11.554
21291W        W93606  33.615  35.641   0.739
21292W        W93607   8.224  32.668  13.378
21293W        W93608  18.697  41.293   3.107
21294W        W93609  25.234  27.882   0.693
21295W        W93610  12.756  31.849   3.812
21296W        W93611  36.035  27.082   4.913
21297W        W93612  13.390   5.831  10.725
21298W        W93613  21.661   4.351  12.894
21299W        W93614  28.589  36.917   1.255
21300W        W93615  14.125  33.923   0.561
21301W        W93616  37.009  13.316  14.382
21302W        W93617   5.850  44.891   3.642
21303W        W93618   8.626  18.222   5.034
21304W        W93619  23.264  25.968   0.256
21305W        W93620  36.361   3.726   3.557
21306W        W93621  37.363  18.106   2.739
21307W        W93622   3.192  43.466   4.196
21308W        W93623  20.613  40.918  12.825
21309W        W93624  12.856   7.305   3.850
21310W        W93625  18.324  33.062   4.660
21311W        W93626  41.826  39.457   0.865
21312W        W93627  18.906  13.575   1.905
21313W        W93628  18.686  33.290   1.211
21314W        W93629  11.399  19.276   4.599
21315W        W93630   9.204  17.162  10.609
21316W        W93631  27.719  40.486   0.709
21317W        W93632  32.882  33.941  14.818
21318W        W93633  28.350  43.741  11.005
21319W        W93634  24.682  24.254   1.848
21320W        W93635  37.658  27.948  13.290
21321W        W93636  25.356  32.523   1.284
21322W        W93637  32.599  33.040  12.976
21323W        W93638  16.356  35.652   1.991
21324W        W93639  18.988  25.416   0.784
21325W        W93640  26.015  32.340  13.933
21326W        W93641  44.506  20.179  11.601
21327W        W93642   4.193   2.211  14.840
21328W        W93643  16.796   8.692   0.419
21329W        W93644  10.935  30.030   1.365
21330W        W93645  10.784  32.917   1.805
21331W        W93646   0.734  39.852  14.978
21332W        W93647   6.348  27.855  10.731
21333W        W93648  15.093  14.349   0.449
21334W        W93649  18.127  33.082   0.503
21335W        W93650  17.588   8.959   2.737
21336W        W93651   0.629   8.232   4.579
21337W        W93652   3.390  16.350  12.930
21338W        W93653  21.153   3.172  13.923
21339W        W93654   0.963  13.722   0.125
21340W        W93655  36.607  41.231   1.774
21341W        W93656  29.973  42.098  13.339
21342W        W93657   6.927   5.628  12.108
21343W        W93658  21.964   9.213  10.728
21344W        W93659  28.919  17.384   1.778
21345W        W93660  17.138  43.319   3.110
21346W        W93661  20.316  38.647  14.846
21347W        W93662  24.459  22.385   0.289
21348W        W93663  15.244   3.181  14.857
21349W        W93664   0.477  40.789  12.970
21350W        W93665   7.873  18.193   2.253
21351W        W93666  36.936  12.476   0.878
21352W        W93667  39.625   9.215   4.142
21353W        W93668  40.827  35.115  11.592
21354W        W93669  20.327  26.607  14.790
21355W        W93670  26.173  40.636  11.947
21356W        W93671  37.602  10.216  13.896
21357W        W93672  18.284   0.871   2.708
21358W        W93673  42.231  35.902  13.980
21359W        W93674   8.426  33.485  10.682
21360W        W93675   8.172  11.144   1.338
21361W        W93676  17.864  33.384   2.434
21362W        W93677  32.483  32.881  13.457
21363W        W93678  41.973   2.459   0.970
21364W        W93679  38.878  26.836  13.580
21365W        W93680  41.103  30.064   1.045
21366W        W93681   7.270   6.855  14.915
21367W        W93682  38.055   9.935  13.386
21368W        W93683  34.038  36.127  11.577
21369W        W93684  32.017   5.386   1.458
21370W        W93685  21.140  32.599  11.970
21371W        W93686  43.490  13.560   3.226
21372W        W93687   9.261  10.389   1.001
21373W        W93688  23.572  16.642  11.865
21374W        W93689  13.371   0.249   0.791
21375W        W93690   6.181  40.165  13.308
21376W        W93691  15.711   4.512  12.587
21377W        W93692  14.783  20.814   1.463
21378W        W93693   5.279   9.469  13.314
21379W        W93694  31.131  16.160  12.588
21380W        W93695   1.805   1.149  11.024
21381W        W93696   6.125   5.887   4.332
21382W        W93697  15.883  19.085  12.608
21383W        W93698  11.115   7.290   4.660
21384W        W93699  37.336   6.378  13.447
21385W        W93700  21.770  40.545   3.903
21386W        W93701  12.605  21.173  12.571
21387W        W93702   2.882  33.482  14.383
21388W        W93703  21.132  25.057  12.110
21389W        W93704  13.739  41.071  11.981
21390W        W93705  27.549  25.994   3.314
21391W        W93706  18.575  29.023  14.334
21392W        W93707  32.887  37.423  12.940
21393W        W93708  40.559   6.323   2.505
21394W        W93709  27.540  25.647  13.507
21395W        W93710  25.561  23.507  13.430
21396W        W93711   9.599   0.021   3.899
21397W        W93712  13.801   2.221   3.101
21398W        W93713  29.076   3.873   0.371
21399W        W93714  17.508  11.802   0.816
21400W        W93715  30.098  16.594   1.265
21401W        W93716  35.332  44.098  11.640
21402W        W93717  24.942  17.289   4.316
21403W        W93718  14.987   6.788  10.173
21404W        W93719  25.073   4.184   0.352
21405W        W93720  23.539   5.147  11.178
21406W        W93721   1.608  11.369   4.124
21407W        W93722   9.991  14.286   4.985
21408W        W93723   5.601  38.112   2.867
21409W        W93724   5.170  10.243   2.822
21410W        W93725  44.054  16.830   2.218
21411W        W93726  17.550  32.014   3.374
21412W        W93727   2.396   5.318   3.223
21413W        W93728  11.253  42.982   3.856
21414W        W93729  16.485   9.518  11.429
21415W        W93730  29.569  27.998  13.522
21416W        W93731   4.824  40.613  13.313
21417W        W93732   9.276  16.855  13.392
21418W        W93733  26.079  26.163   2.613
21419W        W93734  43.652  16.553   2.426
21420W        W93735  10.329  10.463   3.833
21421W        W93736  37.091  18.167  11.582
21422W        W93737  36.310  27.697   0.233
21423W        W93738  15.172  35.127   0.005
21424W        W93739  33.057  21.049   4.740
21425W        W93740  14.737  14.892  13.538
21426W        W93741  36.263  32.980  12.333
21427W        W93742  35.402  32.419   0.343
21428W        W93743  34.914  14.748   1.146
21429W        W93744  29.922  43.899  13.958
21430W        W93745  30.165  43.949  10.600
21431W        W93746  20.427  31.379   3.218
21432W        W93747  19.726   8.912  14.335
21433W        W93748  13.350   6.203  11.586
21434W        W93749   1.967  14.198  13.652
21435W        W93750   5.016   8.657   4.084
21436W        W93751  37.048  36.999   4.937
21437W        W93752  15.365  31.139  11.650
21438W        W93753  29.991  24.477   3.450
21439W        W93754   1.321  44.068   1.806
21440W        W93755  25.544  36.649  12.085
21441W        W93756  29.582   0.311  11.159
21442W        W93757  16.264  30.338  12.351
21443W        W93758  19.521  44.141   3.663
21444W        W93759  11.375  44.881   2.379
21445W        W93760  18.005  44.822  11.084
21446W        W93761  12.043  26.618  12.934
21447W        W93762  24.441  11.151   4.031
21448W        W93763  13.397  26.707   3.363
21449W        W93764  39.564  13.340   2.287
21450W        W93765   5.415  33.329  10.150
21451W        W93766  35.685  30.618  10.628
21452W        W93767  21.640   5.010  13.515
21453W        W93768  24.696  11.289  14.460
21454W        W93769   2.130   3.418  11.175
21455W        W93770  23.638  12.317   1.647
21456W        W93771  10.019   5.258  11.547
21457W        W93772  17.201   2.848  11.985
21458W        W93773  25.435   8.956   5.061
21459W        W93774  13.909  43.103   4.647
21460W        W93775  30.373  44.989  12.472
21461W        W93776  11.343  31.443  13.404
21462W        W93777   8.267  34.824   4.712
21463W        W93778  15.655   7.049  10.002
21464W        W93779  26.354  22.168  11.194
21465W        W93780  41.791  31.944  10.963
21466W        W93781  43.210   6.667  11.077
21467W        W93782  28.926  19.816  13.085
21468W        W93783   0.029  17.542   3.158
21469W        W93784  19.776  17.925  12.512
21470W        W93785  33.564  14.625  14.368
21471W        W93786  35.375  36.070   3.766
21472W        W93787   8.694  33.412   0.118
21473W        W93788  43.883  38.342   3.300
21474W        W93789  27.448  44.730   0.488
21475W        W93790  40.926  30.533   1.188
21476W        W93791  15.697  29.628   0.976
21477W        W93792  37.513  15.361   3.282
21478W        W93793  34.917  38.392   3.126
21479W        W93794  37.458  26.665  10.032
21480W        W93795  29.689   1.967   2.725
21481W        W93796  40.373  32.429  13.999
21482W        W93797  18.248  38.299  10.729
21483W        W93798  28.742  41.808  12.107
21484W        W93799   0.944  11.627   4.327
21485W        W93800   3.959  22.189   3.731
21486W        W93801  22.147  19.485   3.190
21487W        W93802  41.981  26.408  14.344
21488W        W93803  12.881   6.619  13.877
21489W        W93804   4.852  25.242   0.229
21490W        W93805  35.219  26.371  11.557
21491W        W93806   2.680  24.176   2.274
21492W        W93807  44.487   0.798  12.557
21493W        W93808  10.586  33.443  11.536
21494W        W93809  27.965   9.817  12.515
21495W        W93810  15.812  43.452  13.321
21496W        W93811   8.188   8.934   0.154
21497W        W93812  16.954  26.715  12.433
21498W        W93813  21.529  15.475   1.873
21499W        W93814  17.326  13.803  14.638
21500W        W93815  12.131  35.109  14.968
21501W        W93816  35.922  26.426  11.850
21502W        W93817  15.138  13.935   2.371
21503W        W93818  42.764   4.846   3.107
21504W        W93819  36.340  34.461  13.073
21505W        W93820  23.646  23.413  10.229
21506W        W93821  24.525   9.875  11.718
21507W        W93822  16.185   3.810   1.775
21508W        W93823  35.030   9.676   1.292
21509W        W93824   7.307  10.257  13.391
21510W        W93825  19.616  22.135   4.648
21511W        W93826  30.179  26.140   1.922
21512W        W93827  30.457  24.743  14.092
21513W        W93828  24.054  27.901   2.301
21514W        W93829   0.841   0.478  14.305
21515W        W93830   2.731  16.223  13.267
21516W        W93831  33.839   0.133   0.062
21517W        W93832   2.369  26.734   4.296
21518W        W93833  13.202   6.118  12.097
21519W        W93834  43.101   8.651  10.785
21520W        W93835  43.359  20.866  13.599
21521W        W93836  23.818  44.769  14.863
21522W        W93837  14.756  32.213  14.461
21523W        W93838  29.177  31.603  12.784
21524W        W93839  24.446  38.824  11.071
21525W        W93840   5.967  21.990  13.031
21526W        W93841  35.280  37.850   2.727
21527W        W93842   2.990  26.705  10.263
21528W        W93843  38.365  19.518  11.212
21529W        W93844  13.355  13.833   4.052
21530W        W93845  27.872  15.638  12.492
21531W        W93846  32.874  19.471  13.445
21532W        W93847  33.591  37.758  14.321
21533W        W93848   6.231  39.494   2.844
21534W        W93849   8.101  30.641   4.091
21535W        W93850  20.090   9.455   2.821
21536W        W93851  30.064   5.730  13.048
21537W        W93852  38.116  19.620   2.348
21538W        W93853  24.572  37.073   2.288
21539W        W93854  42.524  21.614   4.833
21540W        W93855   7.161   1.409  12.991
21541W        W93856  30.249  41.486  14.501
21542W        W93857  23.654  27.092  14.088
21543W        W93858  27.966  41.814   2.407
21544W        W93859   9.875  35.641   4.995
21545W        W93860   7.611  41.067  11.686
21546W        W93861   2.606   4.357  12.318
21547W        W93862   2.850  32.504  11.676
21548W        W93863  17.390  20.497  10.442
21549W        W93864  14.756  23.431  13.114
21550W        W93865  12.758  16.068   3.725
21551W        W93866  38.360  40.517   4.240
21552W        W93867  28.652   3.107  10.101
21553W        W93868  22.962  40.622   1.839
21554W        W93869  26.515  33.673   2.639
21555W        W93870   1.057  29.211   4.701
21556W        W93871  27.732  35.303   4.109
21557W        W93872   7.817  24.156  13.383
21558W        W93873   9.384  14.853  11.587
21559W        W93874  41.270  13.197   2.907
21560W        W93875  34.824  15.456  10.692
21561W        W93876  13.521  28.090   5.109
21562W        W93877  19.720   6.888   4.539
21563W        W93878  19.293  10.987   9.833
21564W        W93879  21.161  37.495  11.095
21565W        W93880  12.398  17.434   3.272
21566W        W93881  42.938  32.048  14.248
21567W        W93882  27.735   7.704   1.862
21568W        W93883  27.423  30.652   1.355
21569W        W93884  41.191  35.855  11.995
21570W        W93885  24.257  34.738   0.456
21571W        W93886  15.494  40.904  13.231
21572W        W93887  35.982  41.502   0.434
21573W        W93888   7.815   8.751   3.410
21574W        W93889  20.027  13.020  12.945
21575W        W93890  41.747  22.508  12.456
21576W        W93891  18.560  10.865   4.548
21577W        W93892  27.191   2.834  13.006
21578W        W93893  33.369  38.397   0.415
21579W        W93894  16.223   9.853  13.814
21580W        W93895  15.339  38.736  14.550
21581W        W93896  21.489  34.273  14.478
21582W        W93897   7.260  13.419  14.954
21583W        W93898   9.856  24.010  12.634
21584W        W93899   6.823  33.348   0.354
21585W        W93900  21.642  28.615  14.043
21586W        W93901  26.663  19.208  13.048
21587W        W93902  10.825   0.459  11.122
21588W        W93903  34.018  40.256   3.070
21589W        W93904  32.575  16.123   1.153
21590W        W93905  43.950  36.475  14.211
21591W        W93906   2.955  12.607  14.864
21592W        W93907   0.358  39.728   4.931
21593W        W93908  12.759  27.058   1.013
21594W        W93909  40.959  31.090   4.844
21595W        W93910  26.062   9.893   0.348
21596W        W93911   8.712  42.841  14.816
21597W        W93912  35.652  38.288   0.025
21598W        W93913  19.106   4.486  12.919
21599W        W93914  12.737  26.523  14.014
21600W        W93915  19.176  41.495   3.217
21601W        W93916  12.405  32.844   0.957
21602W        W93917   1.387   3.963  11.176
21603W        W93918  34.566  38.056  11.321
21604W        W93919  27.458  33.173   2.903
21605W        W93920  18.915   2.952   3.397
21606W        W93921   4.272  26.103   2.503
21607W        W93922  32.595  19.489   2.813
21608W        W93923  37.979   4.220   3.659
21609W        W93924  14.967   2.630  12.410
21610W        W93925  33.313   3.390   0.330
21611W        W93926   6.259  33.027  10.392
21612W        W93927   0.580  26.922  13.909
21613W        W93928  42.457   9.840   4.083
21614W        W93929  38.812   3.497  11.234
21615W        W93930  10.316  22.720  11.681
21616W        W93931  15.485  21.055   2.379
21617W        W93932  18.566  30.359   2.148
21618W        W93933  10.193  20.978   2.315
21619W        W93934  20.811  11.405   2.318
21620W        W93935  21.032  21.370   1.424
21621W        W93936  17.719  20.591  14.476
21622W        W93937  37.303   6.269   1.367
21623W        W93938   4.327   3.387  14.441
21624W        W93939   3.414  40.987  10.585
21625W        W93940  16.155   6.898  14.911
21626W        W93941  41.492  33.440   4.962
21627W        W93942  28.450  38.514   0.308
21628W        W93943  33.657  10.416  14.381
21629W        W93944  11.935  26.354  13.373
21630W        W93945  16.395  41.800   3.319
21631W        W93946  42.364  34.350   2.888
21632W        W93947   4.997   9.846  10.306
21633W        W93948   8.670  10.961   1.286
21634W        W93949  28.131  44.351   2.565
21635W        W93950  36.933  28.311  12.076
21636W        W93951  18.627  10.560   4.135
21637W        W93952   8.164   7.196   0.447
21638W        W93953   9.681  43.982  14.505
21639W        W93954  21.490   9.895  13.717
21640W        W93955  16.012  19.158  12.105
21641W        W93956  28.012  19.065   4.229
21642W        W93957  24.585   6.263  14.943
21643W        W93958  29.428  40.495  13.644
21644W        W93959  11.902  40.391  14.375
21645W        W93960  19.846   6.193   0.385
21646W        W93961  19.758  11.411   4.310
21647W        W93962  26.665  23.031   0.224
21648W        W93963  43.771   4.872   4.303
21649W        W93964  10.192  18.264   3.155
21650W        W93965  16.003  43.933  12.079
21651W        W93966  29.667  33.175  12.871
21652W        W93967  33.017  36.801  10.783
21653W        W93968   4.243   2.486  13.467
21654W        W93969  13.097   4.159   2.264
21655W        W93970  32.601  13.025  14.462
21656W        W93971  12.140   8.974   0.819
21657W        W93972   0.178   3.271   2.693
21658W        W93973   8.166  34.689  13.404
21659W        W93974  42.867  22.721   2.587
21660W        W93975  21.128  28.117  13.440
21661W        W93976  23.816  19.820   0.488
21662W        W93977  36.922  15.798  11.244
21663W        W93978  29.335  15.866   0.731
21664W        W93979  36.189  14.709   2.806
21665W        W93980  14.875   4.321  14.029
21666W        W93981  32.063   6.721   4.154
21667W        W93982  23.763  32.474   3.746
21668W        W93983   6.172   0.901   2.144
21669W        W93984  12.110  40.475   1.309
21670W        W93985   8.720  41.544  11.077
21671W        W93986  43.736   4.837   3.400
21672W        W93987  37.462   3.778  14.438
21673W        W93988  37.589   6.250  14.439
21674W        W93989  11.343  12.002  10.253
21675W        W93990   9.176  23.865   1.262
21676W        W93991  43.867  40.609  14.345
21677W        W93992  20.634  34.399   1.874
21678W        W93993  41.340  15.597  13.050
21679W        W93994  26.322   8.393   0.082
21680W        W93995   2.463  31.921  13.558
21681W        W93996  35.899   1.449  10.937
21682W        W93997  13.027  14.899   2.671
21683W        W93998   2.314   6.330   4.576
21684W        W93999  39.826   0.350  11.895
21685W        W94000  26.631  36.326   1.188
21686W        W94001  25.550   4.163   2.416
21687W        W94002  16.295  31.197  14.020
21688W        W94003  33.260   8.683  14.820
21689W        W94004  18.647  35.499  10.876
21690W        W94005  24.058   0.948  12.095
21691W        W94006  34.318  11.648  11.555
21692W        W94007  32.008  17.785   4.114
21693W        W94008  16.562  39.699   1.288
21694W        W94009  41.900  44.212  14.579
21695W        W94010  33.657  42.133   4.070
21696W        W94011  34.013  18.425  12.152
21697W        W94012   2.735   8.367   3.301
21698W        W94013  31.912  43.082  14.466
21699W        W94014  44.502  44.337   3.254
21700W        W94015  35.022  12.216   4.113
21701W        W94016  42.616  43.683  11.541
21702W        W94017  18.855  32.418  14.093
21703W        W94018   3.657   3.335   1.295
21704W        W94019  26.412   0.417  13.256
21705W        W94020   4.471  32.961  14.531
21706W        W94021  39.031  12.612  14.457
21707W        W94022  12.655   5.722   4.688
21708W        W94023  11.102   3.866  10.918
21709W        W94024  24.970  23.157   2.214
21710W        W94025  27.963  44.498   4.100
21711W        W94026  10.408  36.373   1.660
21712W        W94027  30.340  41.259   4.517
21713W        W94028  19.190  12.453  10.518
21714W        W94029  41.812  24.775  12.287
21715W        W94030   7.997  32.840   1.472
21716W        W94031  39.341   7.754   2.437
21717W        W94032  31.298   3.567  11.126
21718W        W94033   7.450  16.823   3.930
21719W        W94034  42.121   0.718   0.994
21720W        W94035  32.101  26.485  11.916
21721W        W94036  43.350  11.929   1.854
21722W        W94037   9.732   6.789   2.233
21723W        W94038  31.416   7.272  13.072
21724W        W94039  16.156   8.892   2.687
21725W        W94040  32.470  23.689   3.715
21726W        W94041  23.553  39.033   1.702
21727W        W94042  31.038  25.792   2.221
21728W        W94043   0.289  22.733   3.877
21729W        W94044  14.359   5.166  11.157
21730W        W94045  39.542  26.445  13.838
21731W        W94046   2.457  27.210   0.724
21732W        W94047  25.354  37.030  11.217
21733W        W94048  22.150  42.397  11.397
21734W        W94049  19.246  13.792  14.865
21735W        W94050  19.589  38.439   0.760
21736W        W94051  31.069  13.227   0.976
21737W        W94052   5.921  30.626  10.256
21738W        W94053  36.857  31.912   1.272
21739W        W94054  40.297  10.273  12.374
21740W        W94055  15.837  43.002   4.172
21741W        W94056  44.516   2.301   1.708
21742W        W94057   5.171  33.824   1.805
21743W        W94058   8.352  34.600  13.905
21744W        W94059  15.686   6.313   2.160
21745W        W94060  21.743  28.394  10.667
21746W        W94061  14.216  20.580   4.759
21747W        W94062   5.372  13.042   1.663
21748W        W94063   5.957  41.396   3.681
21749W        W94064  21.265  33.881   4.610
21750W        W94065  11.662   6.346   3.825
21751W        W94066  11.980   9.194  13.835
21752W        W94067   0.106  13.309   0.546
21753W        W94068  14.303   3.672   0.844
21754W        W94069  41.540  22.291   1.811
21755W        W94070   0.800   0.982  11.980
21756W        W94071   3.876  24.727   3.115
21757W        W94072  21.949  36.341  11.592
21758W        W94073  41.535  20.636   2.331
21759W        W94074  15.308   1.380   1.901
21760W        W94075  40.318  31.403   4.553
21761W        W94076  18.258  13.894  12.489
21762W        W94077  21.081  40.973   3.739
21763W        W94078  43.766  12.230   3.393
21764W        W94079  26.762  22.237  11.516
21765W        W94080  32.420  30.379   2.731
21766W        W94081  41.990   3.850   2.675
21767W        W94082  21.532  42.891  10.689
21768W        W94083  36.889  40.652  11.183
21769W        W94084  18.465   8.378  14.725
21770W        W94085   9.738  42.475  14.808
21771W        W94086  27.583  12.517  14.893
21772W        W94087  43.432   6.453   4.832
21773W        W94088   1.458   8.185  11.184
21774W        W94089  33.577  24.137  14.968
21775W        W94090  36.521  43.453   4.400
21776W        W94091  28.601   2.899  11.022
21777W        W94092  36.898  15.411   1.433
21778W        W94093  40.474  36.575   3.150
21779W        W94094  10.375  30.713   1.023
21780W        W94095  19.255  18.100   0.606
21781W        W94096   2.275  21.265  11.950
21782W        W94097   1.878   2.241   3.691
21783W        W94098  39.776   8.365  13.942
21784W        W94099   6.869  20.922  13.847
21785W        W94100  42.326  28.384  13.533
21786W        W94101   3.785  31.709  12.037
21787W        W94102  14.674  18.507   2.785
21788W        W94103  14.839  10.389  14.000
21789W        W94104   2.105  10.979   0.713
21790W        W94105  16.778  19.315   2.363
21791W        W94106   1.086   4.703   3.356
21792W        W94107  29.876   7.754   4.545
21793W        W94108  29.540  40.097   2.246
21794W        W94109  25.693  26.611  10.646
21795W        W94110   7.461  37.919  12.714
21796W        W94111   5.812  29.685  14.348
21797W        W94112  28.642  31.043  13.341
21798W        W94113  19.035  27.053  10.733
21799W        W94114  14.522  37.835   1.252
21800W        W94115  11.635   4.870   2.233
21801W        W94116  44.778  36.668  13.483
21802W        W94117  17.759   5.830   3.301
21803W        W94118   3.775  25.658  12.857
21804W        W94119  41.032  31.434  13.145
21805W        W94120   1.502  42.480   3.846
21806W        W94121   0.039  26.380   4.898
21807W        W94122  26.506  44.493   3.310
21808W        W94123   5.843  20.646  14.490
21809W        W94124   9.796  16.696   3.227
21810W        W94125  16.046  30.594   4.107
21811W        W94126  12.537  34.683  11.207
21812W        W94127  21.750  43.482  13.860
21813W        W94128  16.593  20.870  14.937
21814W        W94129   7.184  30.030  10.933
21815W        W94130  16.035  21.999   0.469
21816W        W94131  33.102   8.591  12.901
21817W        W94132  40.542  44.627  12.107
21818W        W94133  41.666  30.678  10.820
21819W        W94134  34.699   2.924   0.446
21820W        W94135  19.578  42.211  14.028
21821W        W94136  27.004  14.069   0.455
21822W        W94137  18.299  32.580  11.553
21823W        W94138  21.746   8.773   1.579
21824W        W94139  44.662   6.327  13.055
21825W        W94140   9.244  16.609  14.206
21826W        W94141  44.319  23.913  14.439
21827W        W94142  13.273  20.340  14.454
21828W        W94143  44.989  28.943  13.437
21829W        W94144  38.623  37.575  14.558
21830W        W94145  13.655  16.088  10.765
21831W        W94146  40.031  22.046  12.937
21832W        W94147   5.311  31.051   1.713
21833W        W94148  37.801  11.259  14.041
21834W        W94149   9.907   1.480   3.822
21835W        W94150   1.854  22.800   1.493
21836W        W94151  36.047  41.454  13.373
21837W        W94152   3.106  12.891   3.154
21838W        W94153  32.637  26.127   3.312
21839W        W94154  29.135  40.448   0.923
21840W        W94155  33.418   9.746  12.216
21841W        W94156  13.735  27.864   1.416
21842W        W94157   5.490  17.484  10.527
21843W        W94158  38.356  20.633   1.807
21844W        W94159  16.828  36.434   0.755
21845W        W94160  18.086  38.041   4.523
21846W        W94161  28.416   0.387  14.352
21847W        W94162  33.797  11.525  13.432
21848W        W94163  41.961  17.732   0.439
21849W        W94164  17.095   1.331   0.985
21850W        W94165  44.770  41.435  13.475
21851W        W94166  26.214  20.924   4.210
21852W        W94167   8.912  15.819  10.075
21853W        W94168  13.204  26.507   2.369
21854W        W94169  32.589  10.258  13.053
21855W        W94170   8.701   1.301  12.068
21856W        W94171  33.133  13.234   2.137
21857W        W94172  32.443  14.297   4.624
21858W        W94173  44.389  11.457   3.101
21859W        W94174  12.261  38.053   1.738
21860W        W94175   4.165  20.207   1.252
21861W        W94176  36.399  26.214   3.651
21862W        W94177  13.258  28.648  11.895
21863W        W94178  44.810  10.406   2.239
21864W        W94179  33.121  35.293  12.946
21865W        W94180  24.596  18.055   0.337
21866W        W94181   9.788  12.906  14.308
21867W        W94182  22.104  20.741  14.075
21868W        W94183  23.146  21.778   9.867
21869W        W94184  10.851   0.290  10.638
21870W        W94185  28.468  39.489  12.956
21871W        W94186  21.047  26.360   2.325
21872W        W94187  33.877  22.792   1.403
21873W        W94188   0.658  14.839   4.208
21874W        W94189  37.674  19.461   1.704
21875W        W94190  27.370  24.855  14.778
21876W        W94191   0.579  20.170  13.768
21877W        W94192  39.258  43.181   0.341
21878W        W94193  42.613  26.554   4.457
21879W        W94194  30.515  22.581  10.490
21880W        W94195  29.251  14.395   3.538
21881W        W94196  18.447  43.381   3.302
21882W        W94197  29.561  25.056  14.244
21883W        W94198  20.072  21.925  10.840
21884W        W94199  33.250  15.315  13.860
21885W        W94200  41.367  37.025   4.787
21886W        W94201   9.783  26.994   0.368
21887W        W94202  12.061   1.240  14.403
21888W        W94203  29.596  24.630  13.473
21889W        W94204   3.191  17.018  11.560
21890W        W94205  42.979  11.067  10.967
21891W        W94206  44.441   9.761   5.003
21892W        W94207  15.826   8.844   3.562
21893W        W94208  14.208   8.641   4.582
21894W        W94209  34.489  29.291   2.237
21895W        W94210  18.832  39.903  13.698
21896W        W94211  39.516  38.957   0.487
21897W        W94212  40.332  34.626   3.549
21898W        W94213  36.178   7.064   2.599
21899W        W94214   9.814   5.507  13.027
21900W        W94215  43.305  16.628  12.502
21901W        W94216  11.805  27.614  11.402
21902W        W94217   3.274  19.186   1.155
21903W        W94218  13.887  23.992  14.205
21904W        W94219  44.362  25.045  14.007
21905W        W94220  25.282  27.667   0.223
21906W        W94221  12.454   5.367   0.215
21907W        W94222  12.201  37.074   2.769
21908W        W94223  14.759  43.075  13.184
21909W        W94224  30.093  42.645  10.577
21910W        W94225   5.525   0.667   3.725
21911W        W94226  24.763  18.550   0.296
21912W        W94227  23.296   5.980  11.689
21913W        W94228  31.481  26.560  14.824
21914W        W94229  26.672   2.695   1.768
21915W        W94230  31.060  39.598   2.618
21916W        W94231  15.303  29.745   2.133
21917W        W94232  12.066  38.954  12.481
21918W        W94233   3.935  39.229   4.583
21919W        W94234  35.901  42.176   5.020
21920W        W94235   2.704  21.169   5.019
21921W        W94236   1.872  20.330   0.916
21922W        W94237  37.583  31.470  14.416
21923W        W94238  27.472   3.437  14.078
21924W        W94239  42.857  19.057   3.746
21925W        W94240   6.884  44.867  11.735
21926W        W94241  38.892  33.543   4.146
21927W        W94242  38.046  30.356  10.772
21928W        W94243  24.531  27.131   1.631
21929W        W94244   3.375   7.368   2.353
21930W        W94245  29.389  26.968   2.217
21931W        W94246  22.671  31.492   3.355
21932W        W94247   3.008  13.995   1.758
21933W        W94248   9.681  17.686  13.043
21934W        W94249  33.525  44.670   1.752
21935W        W94250  40.742  23.122   4.344
21936W        W94251  12.176  31.500   0.675
21937W        W94252   3.174  40.319  12.594
21938W        W94253  19.090  38.250   4.536
21939W        W94254  32.074   4.029   3.702
21940W        W94255  22.583  17.226   9.937
21941W        W94256  36.545  43.791  12.371
21942W        W94257  27.172  14.523  11.162
21943W        W94258  41.868   5.918   1.281
21944W        W94259   7.293   4.349   0.869
21945W        W94260  44.905  12.448  13.335
21946W        W94261  10.418   4.964  14.058
21947W        W94262  21.133  44.954   1.468
21948W        W94263  24.610  24.656   2.175
21949W        W94264  15.894  30.161   2.836
21950W        W94265  14.556  35.067  10.299
21951W        W94266  15.621   4.942  13.960
21952W        W94267  35.784  41.231  11.156
21953W        W94268  21.121  12.881   1.430
21954W        W94269  23.975  17.322   4.078
21955W        W94270  31.673  27.983   3.162
21956W        W94271  12.860  34.519   4.526
21957W        W94272  14.342  14.339   4.197
21958W        W94273  28.514   0.504   4.047
21959W        W94274   0.735  39.046   4.987
21960W        W94275  37.018  37.720   4.368
21961W        W94276  17.622  42.821   3.350
21962W        W94277  44.415  32.475  13.508
21963W        W94278   6.326  11.442   4.573
21964W        W94279  14.896  30.013   1.945
21965W        W94280   9.515  26.383   1.338
21966W        W94281  40.466  10.878  12.135
21967W        W94282   2.365  25.429   3.219
21968W        W94283  24.085  23.143   1.235
21969W        W94284  34.868  21.725  11.933
21970W        W94285  16.143  40.878   0.994
21971W        W94286  21.897  31.972   5.181
21972W        W94287  14.677   1.190  13.573
21973W        W94288  25.744  10.865   0.345
21974W        W94289  41.752  18.446  13.340
21975W        W94290   6.348   2.636   4.867
21976W        W94291  10.630   9.419  10.992
21977W        W94292  41.398   8.300  14.889
21978W        W94293  43.568  33.155   1.589
21979W        W94294  43.784  19.144  14.549
21980W        W94295   0.957  39.464  12.447
21981W        W94296  35.055  38.973  10.628
21982W        W94297  33.937  13.196  12.437
21983W        W94298  28.985  18.747  11.615
21984W        W94299  29.583  43.500  11.433
21985W        W94300  21.347  41.323  10.354
21986W        W94301  41.306  27.413  14.719
21987W        W94302  25.437  24.893  12.431
21988W        W94303  33.945  30.845  14.946
21989W        W94304  33.922   5.224  12.365
21990W        W94305  25.504  40.041  14.386
21991W        W94306   2.736  22.106  12.458
21992W        W94307   8.398  37.032   2.749
21993W        W94308  34.987  21.181   3.383
21994W        W94309  31.099  28.572   3.819
21995W        W94310  21.172  38.484  13.284
21996W        W94311   1.906  36.899   3.107
21997W        W94312  13.318  33.833   3.602
21998W        W94313   3.800  20.521  12.403
21999W        W94314   2.613  29.017   0.194
22000W        W94315  42.069  23.158   2.597
22001W        W94316   5.688   5.621   2.620
22002W        W94317  35.935  34.335   2.388
22003W        W94318  33.785  43.729   1.779
22004W        W94319  32.809   2.778   3.130
22005W        W94320  25.129   1.712  13.054
22006W        W94321   3.170  22.882   2.678
22007W        W94322  38.299   7.541  13.448
22008W        W94323  22.183  14.599  13.011
22009W        W94324  41.350  33.675  13.335
22010W        W94325  43.066  11.919  14.514
22011W        W94326  27.904   5.277  13.420
22012W        W94327  17.386   3.275  12.226
22013W        W94328   3.790  42.733   4.655
22014W        W94329  13.645  10.727  14.011
22015W        W94330  40.583  16.091  13.292
22016W        W94331  13.580  13.253  11.957
22017W        W94332  27.973   3.815   5.284
22018W        W94333   4.185  34.653  12.873
22019W        W94334   2.241  32.002   0.946
22020W        W94335  38.942  28.541  12.156
22021W        W94336   9.182   8.786  12.741
22022W        W94337  10.981  18.558   1.974
22023W        W94338  25.472  24.559   2.281
22024W        W94339  18.751  40.887  14.059
22025W        W94340   1.813   0.577   1.458
22026W        W94341   5.435  35.075   3.758
22027W        W94342  21.597  26.250  13.893
22028W        W94343  27.160  20.001  14.966
22029W        W94344  24.733   0.339  10.398
22030W        W94345  29.815  19.128  11.165
22031W        W94346  27.680   5.183   1.777
22032W        W94347   1.552  34.176  10.208
22033W        W94348  42.867  38.778  11.689
22034W        W94349  32.889  20.570  14.412
22035W        W94350  36.432  13.114   3.342
22036W        W94351  32.061   0.886   0.296
22037W        W94352   9.305   9.417   0.834
22038W        W94353  35.596  43.488   0.717
22039W        W94354  10.166   3.917  14.957
22040W        W94355  42.868  34.360   4.192
22041W        W94356  13.214  43.119   1.752
22042W        W94357  29.585  10.201  13.069
22043W        W94358   5.265  34.998  12.259
22044W        W94359  15.485  32.403  11.241
22045W        W94360  15.579  42.912  13.998
22046W        W94361  21.794  22.619  12.107
22047W        W94362  12.768  11.656   4.335
22048W        W94363  19.655  36.585  14.696
22049W        W94364   1.225  16.397  14.612
22050W        W94365  33.846  39.664  10.247
22051W        W94366  40.591  19.130  13.776
22052W        W94367  14.189  30.620  12.946
22053W        W94368  19.750   5.467   3.401
22054W        W94369  11.321  30.871   0.729
22055W        W94370  28.724  15.111  12.024
22056W        W94371  30.542   2.803   4.946
22057W        W94372   1.333  12.066   2.233
22058W        W94373  29.160   4.236   9.817
22059W        W94374   7.144  19.998  13.604
22060W        W94375   5.356  12.850   0.416
22061W        W94376   9.569  22.241  12.566
22062W        W94377  25.109  20.109   0.016
22063W        W94378  44.959  34.008   4.504
22064W        W94379  18.459  19.220  11.681
22065W        W94380  27.071   4.198   3.654
22066W        W94381  19.295   4.187  11.255
22067W        W94382  44.398  42.408  11.570
22068W        W94383  33.034  26.122   0.896
22069W        W94384  15.716  33.084   4.234
22070W        W94385  22.467  19.050   4.323
22071W        W94386  27.632  11.844   1.639
22072W        W94387  14.097  20.057  11.822
22073W        W94388  42.349   0.798   2.608
22074W        W94389  27.839   4.355   0.518
22075W        W94390  35.922  13.229   3.275
22076W        W94391  16.739  34.443  12.290
22077W        W94392  26.079  11.723  13.455
22078W        W94393  19.702  23.470   1.135
22079W        W94394  35.746   5.307  11.480
22080W        W94395  38.449  37.304  12.433
22081W        W94396   9.012  11.155   2.284
22082W        W94397  25.905  43.499   0.379
22083W        W94398   3.509   1.278  13.091
22084W        W94399  41.303  43.030  11.204
22085W        W94400  12.341  10.876  13.520
22086W        W94401   2.555  25.725   3.601
22087W        W94402  13.856  11.570  14.424
22088W        W94403  15.836   2.514   4.135
22089W        W94404   8.305  16.012   4.960
22090W        W94405  41.807   0.841   1.701
22091W        W94406  21.737   4.213   1.420
22092W        W94407  36.626  17.922  12.340
22093W        W94408   4.008  18.548   1.437
22094W        W94409  31.580  20.440   2.507
22095W        W94410  22.228  31.186   3.357
22096W        W94411  15.630  10.626   4.130
22097W        W94412   4.948  40.300   4.251
22098W        W94413   3.836  35.114  11.674
22099W        W94414  29.958  38.221  14.508
22100W        W94415  26.079  28.209   2.400
22101W        W94416   7.399  28.546  11.356
22102W        W94417  20.194   2.242  10.748
22103W        W94418  38.039  34.647   0.748
22104W        W94419  17.256  34.980  12.132
22105W        W94420  33.602  32.003   4.615
22106W        W94421   6.034  25.519   2.052
22107W        W94422  13.798  41.335  14.409
22108W        W94423  26.744   4.057   3.291
22109W        W94424  36.928  22.661  12.580
22110W        W94425  30.223   7.902  13.751
22111W        W94426   6.907   1.199  11.568
22112W        W94427   8.241  16.197  13.028
22113W        W94428   5.310  29.376   2.500
22114W        W94429  19.254  33.393  11.237
22115W        W94430  40.439   5.885   2.235
22116W        W94431  42.919  17.527   2.715
22117W        W94432  12.582  24.518  14.931
22118W        W94433  32.278  29.618   1.462
22119W        W94434  11.610   4.981   0.298
22120W        W94435  28.115  18.594  13.841
22121W        W94436  39.450  30.446   4.411
22122W        W94437  24.136  16.972   2.297
22123W        W94438  38.058  24.906   3.283
22124W        W94439  23.956  35.985  13.507
22125W        W94440  39.080   2.309  12.886
22126W        W94441  10.414  34.576  12.223
22127W        W94442  14.198  42.242   4.674
22128W        W94443   3.862  43.237   4.588
22129W        W94444  33.806  41.609  14.885
22130W        W94445  44.919  18.715  11.990
22131W        W94446  34.834  42.215   1.426
22132W        W94447  37.927  34.059  14.862
22133W        W94448  23.743  35.532  13.354
22134W        W94449  25.959  35.588   3.329
22135W        W94450  28.932   5.271   5.037
22136W        W94451  17.046  44.369   0.242
22137W        W94452  41.783  16.083  14.854
22138W        W94453   6.170   6.286  14.452
22139W        W94454  19.670  12.778   4.924
22140W        W94455  21.768  17.859   0.027
22141W        W94456   6.925  15.717  12.939
22142W        W94457  41.472   4.708   2.442
22143W        W94458  21.134  42.423  11.308
22144W        W94459  39.094  24.576  10.769
22145W        W94460   0.976  37.014   4.746
22146W        W94461   3.979  19.716   2.620
22147W        W94462   2.568  38.539  13.309
22148W        W94463  19.494   7.289  14.915
22149W        W94464  25.185  19.820  12.390
22150W        W94465  24.927  26.466  11.508
22151W        W94466  29.988  42.070   4.048
22152W        W94467   1.389   8.898   1.279
22153W        W94468  31.479  30.430  14.867
22154W        W94469  24.154  37.312   4.056
22155W        W94470  19.450  27.129   0.510
22156W        W94471  39.440  42.574   1.194
22157W        W94472  14.804  11.699  11.274
22158W        W94473   5.489  13.785   1.266
22159W        W94474  10.616  31.938  10.100
22160W        W94475   5.606  17.239  11.381
22161W        W94476  28.112  13.197   2.851
22162W        W94477  39.055  23.715  11.684
22163W        W94478  35.626  27.589   0.736
22164W        W94479   8.211  14.698  14.481
22165W        W94480  19.861   4.731  12.006
22166W        W94481  43.323  14.328   3.341
22167W        W94482  40.064  23.854   0.312
22168W        W94483  40.998  14.175   4.118
22169W        W94484  33.074  25.884  10.795
22170W        W94485  26.115  39.134  10.671
22171W        W94486  24.992  33.380  13.988
22172W        W94487   6.123  18.581  12.017
22173W        W94488  30.727  25.803   2.723
22174W        W94489   0.951  29.462  14.292
22175W        W94490   2.805   1.239   1.623
22176W        W94491   4.461  36.323   0.840
22177W        W94492  43.043  40.551   2.366
22178W        W94493  29.192   3.136  12.940
22179W        W94494  44.893   0.789   1.288
22180W        W94495  27.020  11.212  12.583
22181W        W94496  13.096   1.843   3.423
22182W        W94497  35.147  42.938  13.893
22183W        W94498  16.145  44.592  14.978
22184W        W94499   0.618   6.226  14.796
22185W        W94500  41.816  26.678   2.386
22186W        W94501   7.332  10.195   0.471
22187W        W94502   7.170  30.094   0.431
22188W        W94503  23.744  30.633  14.719
22189W        W94504   0.685   7.423  11.429
22190W        W94505  35.541  42.933   1.995
22191W        W94506  40.075  18.600   3.303
22192W        W94507  23.256  15.385  13.054
22193W        W94508  14.093  38.530  14.301
22194W        W94509   7.664  31.238  14.222
22195W        W94510   4.346  44.917  13.349
22196W        W94511  11.151  35.146   1.487
22197W        W94512  40.435  20.052   2.750
22198W        W94513  11.766   4.141   4.694
22199W        W94514  35.436  16.680   0.826
22200W        W94515  32.835  15.163  13.608
22201W        W94516   7.774  30.218  14.390
22202W        W94517  43.299  18.081   3.224
22203W        W94518  24.225   5.405   1.349
22204W        W94519  10.626  35.160   0.742
22205W        W94520   0.868  43.059   2.381
22206W        W94521   3.276  28.152   5.296
22207W        W94522  23.090  33.495  10.494
22208W        W94523  42.873  20.344   4.981
22209W        W94524  35.365  38.850   2.811
22210W        W94525  26.155  17.406  11.512
22211W        W94526   5.446  42.816   1.324
22212W        W94527  13.118  34.965  11.164
22213W        W94528  34.570  10.290   1.735
22214W        W94529  38.021  22.983   3.214
22215W        W94530  41.336  13.232   3.452
22216W        W94531  29.984  11.763   1.816
22217W        W94532  16.191   9.710  12.482
22218W        W94533  14.873  13.702  14.040
22219W        W94534  32.344   2.037  10.340
22220W        W94535  31.394  12.300  13.782
22221W        W94536   1.983  34.279  11.497
22222W        W94537   5.460   0.771   3.223
22223W        W94538   1.876  33.336   4.557
22224W        W94539  34.261  18.064  11.871
22225W        W94540   7.939  10.472  14.425
22226W        W94541  21.067   7.027   3.786
22227W        W94542  40.522  28.433  12.040
22228W        W94543  34.062  12.330  11.171
22229W        W94544  34.339  28.995   2.677
22230W        W94545  31.032  19.487  13.458
22231W        W94546  22.087  27.592  12.130
22232W        W94547  34.871  26.114  13.035
22233W        W94548  25.978  32.886   3.411
22234W        W94549   5.342  37.900  13.795
22235W        W94550  40.797  32.644   1.183
22236W        W94551  15.660   2.459   3.233
22237W        W94552  19.487  31.458   0.047
22238W        W94553  44.518  19.935   3.188
22239W        W94554   1.610   9.740   3.215
22240W        W94555  43.017  39.362   1.822
22241W        W94556  25.472  33.504  10.955
22242W        W94557  26.111  40.875   1.886
22243W        W94558  41.536   4.001   3.622
22244W        W94559  16.197  30.974  14.490
22245W        W94560  35.671  17.056   2.341
22246W        W94561  15.564  28.742   1.267
22247W        W94562  18.298  23.282  13.354
22248W        W94563  28.180  31.549  14.148
22249W        W94564  39.351  41.987  12.259
22250W        W94565   8.399  39.449  11.393
22251W        W94566  13.182  35.804  14.038
22252W        W94567   5.810  36.160   0.903
22253W        W94568  44.557   3.821   4.887
22254W        W94569  16.291   5.663   1.303
22255W        W94570  23.153  41.553   4.084
22256W        W94571  14.871  22.937  13.130
22257W        W94572  43.062  21.675   1.629
22258W        W94573  40.829  38.329  13.448
22259W        W94574  40.280  10.104  13.885
22260W        W94575  14.433  23.676   0.010
22261W        W94576  11.618  22.088   1.425
22262W        W94577  39.909  18.361   4.264
22263W        W94578  18.110  44.146   1.392
22264W        W94579  24.631  20.609  10.882
22265W        W94580  26.429   3.436   5.703
22266W        W94581  27.473   2.369   1.213
22267W        W94582   4.943  39.598  11.838
22268W        W94583  28.760  20.654   1.497
22269W        W94584  23.481   7.144   0.809
22270W        W94585  10.266  13.864   4.977
22271W        W94586  32.849  22.504  10.606
22272W        W94587  39.549  11.231  10.712
22273W        W94588  25.004   4.587   0.027
22274W        W94589  40.386   1.878   4.476
22275W        W94590  15.331   2.919   2.610
22276W        W94591  31.106  12.886   4.642
22277W        W94592   0.573  28.848  11.368
22278W        W94593  44.934  26.522   2.601
22279W        W94594  12.645  22.447   4.696
22280W        W94595  44.178   6.171   2.850
22281W        W94596  27.263  28.198   1.478
22282W        W94597  17.337  21.331  10.151
22283W        W94598  39.482   6.746  10.722
22284W        W94599  21.589  11.005  12.049
22285W        W94600  28.531  26.035  13.303
22286W        W94601  23.628  28.696  14.369
22287W        W94602  25.057   9.886   2.163
22288W        W94603   4.306  19.369  11.296
22289W        W94604  43.994  31.637   4.095
22290W        W94605   1.982  32.548   0.050
22291W        W94606   0.733   7.799   3.269
22292W        W94607  39.406  31.978   2.821
22293W        W94608  35.821  11.541   0.261
22294W        W94609   0.883  44.367  13.473
22295W        W94610   7.649  42.160   1.909
22296W        W94611  37.944   7.661   9.919
22297W        W94612  40.428  28.466  14.783
22298W        W94613  37.070  13.554   2.885
22299W        W94614  31.825  27.087   3.944
22300W        W94615  20.267  40.926  13.408
22301W        W94616  11.396   9.853  14.303
22302W        W94617  20.336  40.326  10.000
22303W        W94618  16.409  14.416  12.435
22304W        W94619  34.225  37.954  10.387
22305W        W94620  20.380  32.588  11.495
22306W        W94621  36.513  26.492   4.080
22307W        W94622  40.978  36.695   1.425
22308W        W94623   5.151  14.306   1.478
22309W        W94624   4.393  28.472   0.881
22310W        W94625   4.735  23.359  14.942
22311W        W94626  21.566  37.441  10.164
22312W        W94627  16.102  27.919   9.816
22313W        W94628  27.992  38.502   2.630
22314W        W94629  38.507  33.501  11.154
22315W        W94630  28.280  18.773  14.320
22316W        W94631  19.795   8.709  10.622
22317W        W94632  44.549  13.343  12.898
22318W        W94633  35.490  24.079   3.847
22319W        W94634   8.383  37.351   3.148
22320W        W94635  22.182  24.282   3.841
22321W        W94636  13.441  24.021  14.619
22322W        W94637  17.433  20.719   3.242
22323W        W94638  17.149   3.302  14.819
22324W        W94639   7.307   5.364   4.749
22325W        W94640  38.420  33.472   0.930
22326W        W94641  12.686  33.230   4.691
22327W        W94642  17.499  41.955   0.414
22328W        W94643  29.412  29.022   4.026
22329W        W94644  17.747  39.027   1.774
22330W        W94645  36.037  14.680   4.227
22331W        W94646  39.839  24.950   2.828
22332W        W94647   7.207  12.197  11.452
22333W        W94648  35.809  41.000  13.459
22334W        W94649  33.436   8.292   4.557
22335W        W94650  32.592  31.593  13.057
22336W        W94651  11.400  36.019  11.726
22337W        W94652  14.364  38.810   3.641
22338W        W94653  32.139  26.037  11.127
22339W        W94654  26.874  43.282   3.783
22340W        W94655  40.721   1.412  14.951
22341W        W94656  20.114  25.819  13.755
22342W        W94657   3.748   6.162  11.415
22343W        W94658  26.193  35.071  11.188
22344W        W94659   9.676  24.039   1.325
22345W        W94660   3.720  19.067   1.716
22346W        W94661  14.091  28.203   1.289
22347W        W94662  18.171  22.926   2.751
22348W        W94663  40.568   3.912  11.665
22349W        W94664  25.476   4.776   5.436
22350W        W94665   1.012  16.358   1.012
22351W        W94666  18.579  20.157  11.089
22352W        W94667  19.812  32.232   3.137
22353W        W94668  16.792  21.529   3.925
22354W        W94669  14.544   3.183   0.409
22355W        W94670  22.949   9.084  10.743
22356W        W94671  18.552  21.157   0.520
22357W        W94672  34.414   8.679  13.142
22358W        W94673  11.785  21.725   4.030
22359W        W94674  17.329  11.131   0.996
22360W        W94675  43.497  27.281   0.658
22361W        W94676  22.265   6.228  12.528
22362W        W94677  10.073  39.033  11.944
22363W        W94678  19.035  17.245  13.040
22364W        W94679  40.825  16.263  11.238
22365W        W94680  13.234  30.512  14.904
22366W        W94681   2.940  27.692   2.961
22367W        W94682   9.754  30.622  11.233
22368W        W94683  25.899  39.016   0.028
22369W        W94684  24.949  41.449   0.946
22370W        W94685  11.396  22.572  14.931
22371W        W94686  32.379  10.307  14.071
22372W        W94687  10.282  44.023   1.794
22373W        W94688  31.106  25.486   2.635
22374W        W94689  25.823  15.615   1.644
22375W        W94690   3.738  11.585  10.854
22376W        W94691  12.239  38.368   0.089
22377W        W94692  36.386  43.575  11.641
22378W        W94693  22.017  32.163   1.328
22379W        W94694  32.386  20.978   2.659
22380W        W94695   7.862  30.942   4.657
22381W        W94696  38.541  36.936  13.789
22382W        W94697  14.245   4.326   2.889
22383W        W94698  44.086  19.182   3.232
22384W        W94699  32.353  43.364  13.095
22385W        W94700  12.329  10.884   2.364
22386W        W94701  11.944  19.641  14.057
22387W        W94702  14.523  12.614   0.800
22388W        W94703  37.902   2.276   3.859
22389W        W94704   2.806   5.388  10.797
22390W        W94705  22.774  39.941  13.644
22391W        W94706  19.259   9.391   4.605
22392W        W94707  27.727  40.542   1.289
22393W        W94708  24.199  32.238  12.984
22394W        W94709  42.044   8.659  14.994
22395W        W94710  34.005  38.160  10.805
22396W        W94711  24.916  44.304   4.175
22397W        W94712  16.775   2.693  12.227
22398W        W94713  25.556   2.912  11.460
22399W        W94714  36.677  10.188   2.603
22400W        W94715   1.777  15.214  11.073
22401W        W94716  26.203   8.634  12.130
22402W        W94717  18.608  32.726   2.571
22403W        W94718  29.028  40.785   1.331
22404W        W94719   4.458  39.376   4.599
22405W        W94720   6.756  21.614  10.811
22406W        W94721  40.024   4.208   1.560
22407W        W94722  30.956  22.929   2.738
22408W        W94723  43.564  13.749   2.284
22409W        W94724  29.259  17.597   0.276
22410W        W94725  21.534  18.376  10.416
22411W        W94726  34.253  38.509   0.749
22412W        W94727  11.709  37.129  13.391
22413W        W94728  26.093  21.427   3.189
22414W        W94729  23.021  24.103   4.561
22415W        W94730  11.151  33.878   1.761
22416W        W94731  24.124  39.758   4.594
22417W        W94732  19.672   0.206  12.905
22418W        W94733  13.739  21.047   2.137
22419W        W94734  31.117  39.013   4.531
22420W        W94735   9.823  24.170   5.056
22421W        W94736  21.482  27.267   3.891
22422W        W94737  35.521  33.566   1.904
22423W        W94738  28.511  23.732  13.892
22424W        W94739  38.783  12.141   4.709
22425W        W94740  40.480  31.544   1.380
22426W        W94741  38.133   2.506  14.293
22427W        W94742  15.468   8.358   0.767
22428W        W94743  17.461  10.954   2.850
22429W        W94744  17.875  33.615  11.513
22430W        W94745  33.178  29.988  12.471
22431W        W94746  31.217  44.234   1.453
22432W        W94747   3.694  15.337  10.439
22433W        W94748  10.669  41.044  13.815
22434W        W94749   5.188   9.761  12.886
22435W        W94750  25.709   9.777  10.339
22436W        W94751  35.461   0.978   3.903
22437W        W94752  12.041  12.134  13.943
22438W        W94753  34.337  30.429  13.850
22439W        W94754  19.345   5.218  12.389
22440W        W94755   0.222   5.728   0.745
22441W        W94756   6.153  22.719   2.177
22442W        W94757   1.892  29.600   3.770
22443W        W94758  11.116  10.206   1.941
22444W        W94759  18.478  40.904   0.484
22445W        W94760  33.911  44.799   1.412
22446W        W94761   9.084   5.314  10.969
22447W        W94762  44.337  37.946  12.515
22448W        W94763  24.488  22.593   2.845
22449W        W94764  12.212  40.314  11.207
22450W        W94765  22.441  10.741  14.370
22451W        W94766  42.341  14.184  12.349
22452W        W94767  18.085   4.662   2.863
22453W        W94768  35.502  14.370   3.823
22454W        W94769   7.017  36.302   0.259
22455W        W94770  13.592  27.468  10.878
22456W        W94771  40.991  39.899   4.406
22457W        W94772  19.178  18.968   0.457
22458W        W94773  19.762  43.451  10.694
22459W        W94774  10.427   9.625   2.778
22460W        W94775  16.908   6.111   3.295
22461W        W94776  12.393  10.162   4.603
22462W        W94777  19.566   1.890  14.233
22463W        W94778   3.313  25.907  12.783
22464W        W94779  40.569   1.933  11.095
22465W        W94780   1.779  13.934  12.309
22466W        W94781  28.193  42.253   1.810
22467W        W94782  40.892  10.361  12.576
22468W        W94783  41.168  23.096   4.690
22469W        W94784   0.470  43.132   3.486
22470W        W94785  12.869  43.859  12.389
22471W        W94786  18.716  41.824   3.131
22472W        W94787  18.384  32.615  13.899
22473W        W94788  26.128  32.581   2.595
22474W        W94789  23.312   1.370   2.448
22475W        W94790  34.594   7.625   3.252
22476W        W94791  26.896  41.965   3.161
22477W        W94792  20.078  33.421  12.519
22478W        W94793   6.670  35.121  11.077
22479W        W94794  31.348  29.147  12.078
22480W        W94795   7.556  27.666  14.365
22481W        W94796  13.529   0.303  12.999
22482W        W94797  29.982  11.440  13.086
22483W        W94798  10.775   2.752   3.689
22484W        W94799  19.552  40.871   1.364
22485W        W94800  40.723  18.075  14.536
22486W        W94801  11.593  11.618   3.912
22487W        W94802  13.558   3.705  12.931
22488W        W94803  14.886   5.448   1.698
22489W        W94804  14.343  16.728  13.018
22490W        W94805  36.546  15.174   0.740
22491W        W94806  34.577  37.352   1.372
22492W        W94807  24.709  42.238  13.639
22493W        W94808  11.433  37.554  14.546
22494W        W94809  10.265   2.053  13.107
22495W        W94810  14.170  23.330  11.600
22496W        W94811  41.936   9.140   1.317
22497W        W94812  26.174  33.365   3.692
22498W        W94813  21.775   0.316  10.649
22499W        W94814  31.722  21.084  12.993
22500W        W94815  12.793   0.887  14.238
22501W        W94816  32.365  26.568   2.450
22502W        W94817   6.088  22.548   4.651
22503W        W94818   9.903  18.136  14.942
22504W        W94819   4.482  11.125   4.325
22505W        W94820  20.251  41.447   0.259
22506W        W94821  26.361  22.087   4.819
22507W        W94822  42.761   7.802   1.354
22508W        W94823   3.780  24.009  14.041
22509W        W94824  19.180  12.172   2.826
22510W        W94825  20.150  43.056  14.278
22511W        W94826  13.854  40.638  12.647
22512W        W94827   5.695  19.439  13.910
22513W        W94828   6.117  39.134   5.118
22514W        W94829  26.696  31.888   1.263
22515W        W94830  33.465  19.143  10.704
22516W        W94831   7.676   8.747   2.454
22517W        W94832   7.919   0.979   2.364
22518W        W94833  19.861  40.458  14.536
22519W        W94834  23.947  12.096  11.150
22520W        W94835  31.060   2.579   2.897
22521W        W94836  39.442   2.443  13.850
22522W        W94837  22.031   3.881   3.161
22523W        W94838  32.650   4.754   4.139
22524W        W94839  39.138  38.847   0.847
22525W        W94840  17.020  43.671  11.980
22526W        W94841  17.248   7.317  10.439
22527W        W94842   9.738  41.916  12.593
22528W        W94843  32.650  19.753  14.997
22529W        W94844  27.973  15.049   1.402
22530W        W94845  41.182   3.853   0.861
22531W        W94846  36.953  17.250   2.883
22532W        W94847  31.680  38.352  14.975
22533W        W94848  20.523   9.825   3.263
22534W        W94849  23.842  16.572   0.016
22535W        W94850  40.915  39.783  12.838
22536W        W94851  40.685  38.810   4.415
22537W        W94852  40.956   6.342  12.138
22538W        W94853   6.907  23.266   1.564
22539W        W94854  38.384  29.706   0.239
22540W        W94855  30.111  12.907   2.423
22541W        W94856  38.781   9.446  12.064
22542W        W94857  12.055  29.423  11.670
22543W        W94858   9.201   7.395  12.049
22544W        W94859   4.153   4.509   0.363
22545W        W94860  32.635  29.139   4.511
22546W        W94861  39.017  38.044  13.286
22547W        W94862  39.357   9.362  11.159
22548W        W94863  38.890  42.192  12.369
22549W        W94864  30.407  28.024   5.046
22550W        W94865  34.463  44.564  10.587
22551W        W94866  17.846  33.794   1.689
22552W        W94867  18.539  32.108  11.531
22553W        W94868  44.960   1.388  14.818
22554W        W94869  40.779  16.078  13.786
22555W        W94870  38.862  42.311  13.565
22556W        W94871  32.863  44.039   1.649
22557W        W94872  10.060  18.032   3.595
22558W        W94873  39.671  15.859  12.524
22559W        W94874   2.728   3.234  14.535
22560W        W94875  41.012  15.241   2.024
22561W        W94876   8.526  33.553   4.116
22562W        W94877  23.567  17.636   2.618
22563W        W94878  43.818  41.307   4.546
22564W        W94879  20.829  43.536  11.597
22565W        W94880  23.509  13.942   2.433
22566W        W94881   4.907  23.214  11.515
22567W        W94882  10.269  31.073  14.793
22568W        W94883  21.266  26.109   3.564
22569W        W94884  18.910  11.811   4.662
22570W        W94885   7.316  35.863   3.341
22571W        W94886  29.745  24.710   1.502
22572W        W94887  41.792  19.625   2.056
22573W        W94888  18.572  24.055  14.487
22574W        W94889  27.510  27.872   0.783
22575W        W94890  35.820  38.016   2.855
22576W        W94891  29.873  33.665   4.320
22577W        W94892  19.691   9.675   4.568
22578W        W94893  44.420   9.331  11.717
22579W        W94894  23.891  37.632   4.994
22580W        W94895  15.253   9.855   4.000
22581W        W94896  11.875  44.188   2.647
22582W        W94897   6.816  18.247  13.018
22583W        W94898  23.412  39.177  13.542
22584W        W94899  27.126  34.501   2.613
22585W        W94900  14.581  41.990   0.429
22586W        W94901   0.955  40.862  10.886
22587W        W94902   4.956  11.124   2.702
22588W        W94903  34.136  39.018  11.138
22589W        W94904  26.173  38.966   1.921
22590W        W94905   5.707  44.319  14.787
22591W        W94906   4.792  14.349  11.384
22592W        W94907  35.413  21.664  14.202
22593W        W94908  27.648  19.069  11.360
22594W        W94909  29.061   3.898  13.455
22595W        W94910  31.742  13.165  13.940
22596W        W94911  42.327   0.933   0.123
22597W        W94912   0.723  21.826   1.506
22598W        W94913  29.899  32.933  13.303
22599W        W94914  23.674  13.834  14.724
22600W        W94915  20.117  30.528  12.574
22601W        W94916  36.619  34.527  11.194
22602W        W94917   3.106  42.456  10.679
22603W        W94918  16.610  17.854  10.996
22604W        W94919  41.739  44.934   1.826
22605W        W94920  19.673  35.066  14.849
22606W        W94921  44.357   3.781   0.006
22607W        W94922  37.904  14.246  13.132
22608W        W94923  35.935  26.211   2.776
22609W        W94924  20.246  26.893   1.818
22610W        W94925  22.183   4.934   3.825
22611W        W94926  16.403   0.943   2.604
22612W        W94927  24.781  34.953  12.016
22613W        W94928  15.309  30.067  12.635
22614W        W94929  32.903  40.405  11.713
22615W        W94930  15.158  25.050  12.059
22616W        W94931   4.793  13.386  13.415
22617W        W94932   6.380  26.218   3.776
22618W        W94933  19.277  34.458   4.237
22619W        W94934  24.507  14.353  14.271
22620W        W94935  20.220  22.011   4.267
22621W        W94936   0.941  41.353   4.115
22622W        W94937  32.180  24.766   0.418
22623W        W94938  35.631  37.348  11.938
22624W        W94939   7.812   7.922  14.592
22625W        W94940   6.481   9.814   1.671
22626W        W94941  35.949  34.040  13.355
22627W        W94942   7.906  11.256   2.621
22628W        W94943  42.242  17.007  14.412
22629W        W94944   4.475  27.436  11.909
22630W        W94945  25.956  20.566  13.044
22631W        W94946  16.785  10.216   4.881
22632W        W94947   4.550  23.769  10.175
22633W        W94948  40.297  41.919  10.658
22634W        W94949  24.481   5.209   0.950
22635W        W94950   1.166  12.774  11.891
22636W        W94951   3.991  44.987  12.085
22637W        W94952  25.993  13.731   3.120
22638W        W94953  16.072   1.292  13.574
22639W        W94954  32.577  17.635  13.305
22640W        W94955  23.328  42.755  13.877
22641W        W94956  15.102   6.241  11.332
22642W        W94957  24.005   2.710   1.558
22643W        W94958   7.794  43.087  12.540
22644W        W94959  30.621  12.565   2.856
22645W        W94960  12.358  13.573  12.907
22646W        W94961  40.957  37.996  13.015
22647W        W94962   9.062  38.856  12.039
22648W        W94963  12.130  14.669   4.302
22649W        W94964  33.970  25.674   1.254
22650W        W94965  23.528   3.983   2.847
22651W        W94966  19.287  42.517  13.496
22652W        W94967  11.319  20.299  11.145
22653W        W94968  18.565  24.408  11.118
22654W        W94969  39.032  22.117  13.975
22655W        W94970   9.603  17.488  11.253
22656W        W94971  37.067  23.872  10.075
22657W        W94972  33.201   4.237  12.463
22658W        W94973  11.435  14.659   0.717
22659W        W94974  20.539  36.938   1.706
22660W        W94975  17.002  11.583   4.312
22661W        W94976  40.892  42.524   2.373
22662W        W94977  32.057  38.803   1.640
22663W        W94978  20.618   9.194  11.030
22664W        W94979  22.049  32.671  13.028
22665W        W94980  37.931  38.905  13.781
22666W        W94981  24.692  39.163   4.258
22667W        W94982   9.861  27.432  11.747
22668W        W94983  17.503   2.745  11.570
22669W        W94984  24.664  14.258  14.746
22670W        W94985  33.993  36.081   1.270
22671W        W94986  18.438  34.486  13.529
22672W        W94987  19.387  38.575  13.779
22673W        W94988  23.699  27.000   1.389
22674W        W94989  28.696  24.266  10.202
22675W        W94990  15.235  41.398   1.900
22676W        W94991  10.272  43.517   0.488
22677W        W94992   5.988  41.408  11.098
22678W        W94993  37.291  13.220   3.527
22679W        W94994  28.055   0.933   0.289
22680W        W94995  25.190   2.802   2.606
22681W        W94996  15.687   9.157   1.695
22682W        W94997  25.945  21.813  11.801
22683W        W94998  27.307   4.070   4.684
22684W        W94999  13.377  24.806   3.259
22685W        W95000  14.782   5.371  11.886
22686W        W95001  32.034   2.905  14.487
22687W        W95002  33.894  21.011   0.829
22688W        W95003  31.653   7.061  12.199
22689W        W95004  10.788  37.936   4.368
22690W        W95005  21.104  34.112   3.201
22691W        W95006  30.158  32.368   1.003
22692W        W95007  18.557  17.114   1.205
22693W        W95008   5.077  14.508   2.748
22694W        W95009  41.939  17.164  12.869
22695W        W95010  25.310  16.971   2.844
22696W        W95011  19.298  14.749   2.216
22697W        W95012  27.078  13.734   4.683
22698W        W95013  43.582  38.460   1.900
22699W        W95014  17.569   8.719   4.652
22700W        W95015   3.815  33.471  14.985
22701W        W95016   0.448  10.129   0.089
22702W        W95017  24.204  35.876   1.716
22703W        W95018  33.424  34.203   2.719
22704W        W95019  16.068  41.635   2.908
22705W        W95020  35.175  34.980   2.681
22706W        W95021  44.422  33.899  13.292
22707W        W95022   5.653  17.647  11.668
22708W        W95023  44.624   9.370   1.023
22709W        W95024  34.086  16.524   2.702
22710W        W95025   0.833   0.215  11.122
22711W        W95026  40.944  26.451   0.437
22712W        W95027  37.179  17.331  14.558
22713W        W95028  29.108   9.341  11.052
22714W        W95029  37.350  25.428   4.556
22715W        W95030  39.527  39.163   2.231
22716W        W95031  19.183  35.114   3.639
22717W        W95032  26.649  30.230  11.150
22718W        W95033  15.278  31.779   1.260
22719W        W95034  20.148  37.017   4.731
22720W        W95035  44.627  10.974  10.684
22721W        W95036   9.427   3.458   1.811
22722W        W95037  27.983  34.567  13.695
22723W        W95038  42.488  31.851   0.560
22724W        W95039  28.386  39.794  13.957
22725W        W95040   5.740  33.035  13.954
22726W        W95041  37.185   9.615   0.533
22727W        W95042  29.876  16.233  14.459
22728W        W95043   8.263  29.344   0.416
22729W        W95044  43.978   0.776   1.131
22730W        W95045  42.354  28.611  10.736
22731W        W95046  24.896  38.071   2.838
22732W        W95047  22.952   5.598  11.734
22733W        W95048  11.596  15.122  14.168
22734W        W95049   9.127  28.110  13.507
22735W        W95050  40.932  34.402  14.779
22736W        W95051  13.677  42.856  11.812
22737W        W95052  26.331  25.477  14.487
22738W        W95053  24.538  31.397  12.816
22739W        W95054  42.910  14.115   9.913
22740W        W95055  22.466  23.943   1.809
22741W        W95056   6.856  34.938   0.461
22742W        W95057  30.968  18.625  12.803
22743W        W95058  39.597  28.922  13.356
22744W        W95059  10.254  25.796  12.394
22745W        W95060   5.342  34.598  12.590
22746W        W95061  12.444  12.380   2.774
22747W        W95062  16.154  44.798   3.234
22748W        W95063   5.622   8.726  11.026
22749W        W95064  13.996   1.746   4.708
22750W        W95065   0.196   3.172  12.174
22751W        W95066  35.816  16.790   0.025
22752W        W95067  37.501  41.430   3.925
22753W        W95068   1.314  37.654  12.505
22754W        W95069   0.294  41.315  10.589
22755W        W95070   3.274   1.959  13.272
22756W        W95071   9.034  26.167  12.890
22757W        W95072  38.510  24.981  12.809
22758W        W95073  34.002  15.931   4.169
22759W        W95074  36.529  37.893  10.578
22760W        W95075   4.739   1.990  14.016
22761W        W95076  28.587  15.667   3.868
22762W        W95077  27.149  38.491  13.795
22763W        W95078  26.179  27.221   4.129
22764W        W95079  37.592  30.230  14.858
22765W        W95080  44.753  36.057   9.738
22766W        W95081   1.911  21.241   2.707
22767W        W95082  26.049  22.229  12.143
22768W        W95083  10.252   0.950   0.302
22769W        W95084  22.068  13.692   3.066
22770W        W95085   6.750  14.544  11.127
22771W        W95086  30.817  13.762   4.100
22772W        W95087  22.744  22.602  10.447
22773W        W95088  35.031  10.028  14.306
22774W        W95089  35.446   2.687  13.913
22775W        W95090  44.772   1.879   0.691
22776W        W95091   0.542   3.762   1.757
22777W        W95092   5.490  39.500   4.523
22778W        W95093  41.755  43.008   4.643
22779W        W95094  42.279   3.748   1.720
22780W        W95095  37.061  39.512  12.919
22781W        W95096  11.783  31.506  12.136
22782W        W95097  13.145   8.294  10.983
22783W        W95098   4.651  38.036  12.159
22784W        W95099  15.707  17.046  14.437
22785W        W95100  16.242   0.546  14.792
22786W        W95101  19.299  41.900  14.925
22787W        W95102  12.440  12.076   0.344
22788W        W95103   6.850  16.360   3.659
22789W        W95104  33.640  17.536  12.870
22790W        W95105   8.204  39.905   2.584
22791W        W95106  44.914  27.619   0.331
22792W        W95107  15.700  33.346   3.656
22793W        W95108  33.175  35.647   1.727
22794W        W95109  18.996  21.588  14.903
22795W        W95110  36.863  29.985  10.945
22796W        W95111  14.052  37.923  12.494
22797W        W95112  20.122  33.514   3.861
22798W        W95113  33.384  40.655  12.367
22799W        W95114   4.664  25.930   1.745
22800W        W95115   8.433  14.829   0.991
22801W        W95116  39.808  21.978   0.845
22802W        W95117  18.285  23.482  14.979
22803W        W95118   6.010  44.339   1.305
22804W        W95119  10.840  38.378  11.885
22805W        W95120  44.497   2.527  13.491
22806W        W95121  31.918  41.485  10.801
22807W        W95122  16.672  10.245  13.763
22808W        W95123   0.977   3.536   1.505
22809W        W95124   6.795  27.423   1.330
22810W        W95125  26.070  35.445   2.466
22811W        W95126  19.835   9.933  12.617
22812W        W95127   4.831  31.205   1.895
22813W        W95128  33.012  42.900  14.984
22814W        W95129  32.467  35.189  12.208
22815W        W95130  12.195   8.977  12.058
22816W        W95131  13.740  14.089   1.828
22817W        W95132  12.992   5.428   0.309
22818W        W95133  15.876   9.222   4.276
22819W        W95134   2.899  14.221  14.198
22820W        W95135  19.976   8.172   0.021
22821W        W95136  22.099   7.103   4.552
22822W        W95137  34.617   0.888   2.233
22823W        W95138   9.943  38.850   1.843
22824W        W95139  31.838  33.539  13.112
22825W        W95140  44.645  34.018   2.354
22826W        W95141  11.610  40.851  12.279
22827W        W95142  39.848  13.626  11.545
22828W        W95143  41.904  22.140   3.098
22829W        W95144   7.742  20.938   2.272
22830W        W95145  24.977  17.761  13.073
22831W        W95146  20.022  15.846  14.758
22832W        W95147  22.521  24.534   4.342
22833W        W95148  42.067  20.797  14.958
22834W        W95149  23.174   6.059  10.423
22835W        W95150   8.280  21.726   3.676
22836W        W95151  42.843  31.443   1.827
22837W        W95152  36.749  38.040   4.661
22838W        W95153  16.341  42.871   0.722
22839W        W95154  13.029   0.852  13.089
22840W        W95155   5.804  17.380  10.937
22841W        W95156  21.525  21.153   2.608
22842W        W95157  42.417  36.841   1.349
22843W        W95158  26.115  40.022   2.101
22844W        W95159  10.695  12.161   0.170
22845W        W95160  23.126  29.545   1.374
22846W        W95161   8.723  21.337  12.180
22847W        W95162   8.417   7.783  14.454
22848W        W95163  39.080  15.876  13.505
22849W        W95164  15.348  39.658  14.675
22850W        W95165  41.967  37.533   2.754
22851W        W95166  26.651  38.109   1.332
22852W        W95167  28.570  26.901   0.919
22853W        W95168   4.798  23.570   2.353
22854W        W95169   6.251  27.982   1.868
22855W        W95170  25.080   3.643   1.873
22856W        W95171  30.982  37.900   4.668
22857W        W95172   8.859  17.611   4.234
22858W        W95173  43.882  42.580  12.938
22859W        W95174  32.872  10.318  12.025
22860W        W95175  15.354   7.200   0.423
22861W        W95176   5.879  42.338  14.831
22862W        W95177  25.194  21.481  14.879
22863W        W95178  33.669  35.866   1.701
22864W        W95179   3.098  35.530  13.997
22865W        W95180  29.574  24.550  12.045
22866W        W95181  19.693  23.134   3.856
22867W        W95182  13.600  16.462  12.589
22868W        W95183  19.593  40.573   0.003
22869W        W95184  35.419  34.123  14.007
22870W        W95185  30.136  29.500  12.324
22871W        W95186   8.544  32.942  14.342
22872W        W95187  14.262  25.959  14.786
22873W        W95188  42.196  31.576  14.851
22874W        W95189  28.331   5.723  14.636
22875W        W95190   7.145  11.180   3.355
22876W        W95191  39.595  29.757  10.798
22877W        W95192  33.592  32.595   2.149
22878W        W95193  17.165  18.999  13.087
22879W        W95194   1.010  12.859   5.028
22880W        W95195  44.277  33.913   0.336
22881W        W95196  24.540  38.790   0.312
22882W        W95197   0.949  35.915   3.723
22883W        W95198  23.797   0.383   3.567
22884W        W95199  44.975  18.545  14.883
22885W        W95200  29.996  31.501   0.230
22886W        W95201  36.463  35.720  12.816
22887W        W95202  26.589  38.321  14.492
22888W        W95203  12.352   6.254  14.502
22889W        W95204   0.092  41.773  11.570
22890W        W95205  32.319   4.280   4.165
22891W        W95206  28.046   6.702   9.594
22892W        W95207  29.610  10.901  10.572
22893W        W95208  14.740  37.450  14.938
22894W        W95209  42.003  24.754  14.292
22895W        W95210  27.767   6.831   1.908
22896W        W95211  18.296  34.958  10.994
22897W        W95212  39.814  14.784   2.392
22898W        W95213  14.871   2.293   1.002
22899W        W95214  18.747  42.467   1.356
22900W        W95215  33.133  20.213   0.281
22901W        W95216  35.046  41.489  10.827
22902W        W95217  20.456   0.798   4.321
22903W        W95218  37.779  33.059  12.401
22904W        W95219  38.998  39.041   0.319
22905W        W95220  25.959   8.808  14.623
22906W        W95221   2.793   8.491   3.804
22907W        W95222   1.079  26.178  11.458
22908W        W95223  15.354  22.721   0.499
22909W        W95224  37.080  13.148   2.125
22910W        W95225  34.929   6.246   4.084
22911W        W95226  37.837  35.015   2.368
22912W        W95227   2.001   8.757  12.146
22913W        W95228  17.286  27.617  10.607
22914W        W95229  26.540   6.767   0.738
22915W        W95230  40.953  21.065   2.365
22916W        W95231  41.098  17.399  11.933
22917W        W95232  27.098  11.748  12.293
22918W        W95233  22.988  13.900  12.608
22919W        W95234  10.456  38.147  13.797
22920W        W95235  28.402   6.754  12.831
22921W        W95236  43.023  11.233   2.722
22922W        W95237  35.424  32.422   0.882
22923W        W95238  40.807  13.732   1.207
22924W        W95239   9.564  20.325  14.910
22925W        W95240  20.147  37.917  14.852
22926W        W95241   9.947   3.015   2.514
22927W        W95242  43.556  41.091   1.864
22928W        W95243  34.367   3.806   4.802
22929W        W95244  22.202  22.848  13.015
22930W        W95245  21.333  13.979   3.410
22931W        W95246  44.381  34.556   5.326
22932W        W95247  31.414  31.109   1.636
22933W        W95248  36.605  33.693  14.082
22934W        W95249   6.425   1.111  11.725
22935W        W95250  27.581  36.535  11.166
22936W        W95251  23.115  22.046   3.265
22937W        W95252  23.228   4.428  11.650
22938W        W95253  42.514  27.183  13.122
22939W        W95254  44.891  17.287  11.544
22940W        W95255  36.437  42.874   0.939
22941W        W95256  32.983   5.475   1.862
22942W        W95257  39.987   6.311   0.517
22943W        W95258  11.714  38.427  13.818
22944W        W95259   0.778  29.666   1.756
22945W        W95260  42.789   2.327   0.033
22946W        W95261   0.994   0.225   4.331
22947W        W95262  40.014  11.431   2.285
22948W        W95263  37.581  43.731  14.612
22949W        W95264   5.253  24.222   1.854
22950W        W95265   1.299  10.143   3.350
22951W        W95266  20.313  14.098   3.262
22952W        W95267   8.781   6.557   4.231
22953W        W95268   2.213   2.268  14.651
22954W        W95269  13.086  12.077  11.049
22955W        W95270  19.237  30.685  13.433
22956W        W95271  25.659  40.147  12.966
22957W        W95272  35.447  44.364  10.653
22958W        W95273  11.249  13.573   2.267
22959W        W95274   6.282  21.681  13.832
22960W        W95275  40.264  42.523   3.070
22961W        W95276  20.657  21.933   1.849
22962W        W95277  44.315  16.387  14.419
22963W        W95278  22.566  20.474   0.974
22964W        W95279  17.233  43.442   4.598
22965W        W95280  35.907  40.081  13.907
22966W        W95281  18.515   9.321   3.443
22967W        W95282  32.782  38.819   0.869
22968W        W95283  36.547   7.363  12.624
22969W        W95284  25.187  11.848  12.411
22970W        W95285   4.749  30.365   2.109
22971W        W95286  42.380  17.524   1.947
22972W        W95287  31.919  14.066  14.024
22973W        W95288  29.028  43.226  11.998
22974W        W95289   0.250   9.672  12.895
22975W        W95290  24.322  41.624   1.307
22976W        W95291   2.381   4.832   2.680
22977W        W95292  37.380  11.554  13.927
22978W        W95293   4.733   2.669  13.436
22979W        W95294  25.148  17.283  13.245
22980W        W95295  20.959  18.813  11.320
22981W        W95296   7.803  26.404   3.026
22982W        W95297  17.262  18.152  14.923
22983W        W95298  41.602  34.036   2.789
22984W        W95299  18.185  15.135   4.600
22985W        W95300  30.497  15.072  13.317
22986W        W95301   9.994   8.290   4.976
22987W        W95302  13.571  19.145  10.595
22988W        W95303  24.924   2.160  12.892
22989W        W95304  10.153  33.212  11.738
22990W        W95305  39.109  38.024   2.769
22991W        W95306   6.495  29.660  12.903
22992W        W95307  19.089  41.662   2.360
22993W        W95308  15.362  17.635  14.311
22994W        W95309  41.818   4.209  14.475
22995W        W95310  21.156  38.447  14.442
22996W        W95311  22.839  14.745  14.859
22997W        W95312  35.618  18.562  11.906
22998W        W95313  14.338  21.265   0.837
22999W        W95314   6.377   1.337  11.050
23000W        W95315  25.195  41.809   3.734
23001W        W95316  34.152  35.519   3.307
23002W        W95317  37.654  35.103  12.998
23003W        W95318  36.761  18.285  14.064
23004W        W95319  14.604  17.785   1.421
23005W        W95320  16.162   2.462  14.814
23006W        W95321  40.614  43.882  14.423
23007W        W95322   5.209  12.263   1.763
23008W        W95323   7.907   8.811  10.277
23009W        W95324  30.582  19.222   3.345
23010W        W95325   8.103  22.324  14.435
23011W        W95326  28.864  33.064  11.638
23012W        W95327  21.942  21.660   2.111
23013W        W95328  21.645  10.579  11.038
23014W        W95329  10.156  39.874   2.492
23015W        W95330  28.218  12.355   2.907
23016W        W95331  30.082   1.154  11.560
23017W        W95332  13.925  36.740   3.179
23018W        W95333  26.818  26.309   2.093
23019W        W95334   4.943  36.413  14.411
23020W        W95335  37.110  18.033  12.541
23021W        W95336  42.851  43.165  11.008
23022W        W95337  43.480  34.993  11.519
23023W        W95338  35.885  39.567  13.945
23024W        W95339  26.080  10.722  10.868
23025W        W95340  30.223   2.073   3.850
23026W        W95341   0.446  19.007  14.855
23027W        W95342  14.360  31.032  12.592
23028W        W95343  40.822  32.078   4.554
23029W        W95344  28.331  18.598  10.438
23030W        W95345  43.349  33.875  13.433
23031W        W95346   3.308  10.833   1.327
23032W        W95347   1.742  44.368   4.606
23033W        W95348  11.684  13.815  11.097
23034W        W95349   7.709   2.226   3.376
23035W        W95350   1.965  40.272   4.230
23036W        W95351  43.314  16.132  11.141
23037W        W95352   8.885  34.770   0.336
23038W        W95353  36.894  37.296  14.348
23039W        W95354   8.462  15.742   2.301
23040W        W95355   9.287   5.357   1.231
23041W        W95356   1.940   8.893   2.229
23042W        W95357   0.774   1.637  12.898
23043W        W95358   7.178  26.723  13.983
23044W        W95359  20.221  44.514   0.890
23045W        W95360  22.572  13.849  13.842
23046W        W95361  39.306   1.291   2.208
23047W        W95362  33.941  20.609   4.249
23048W        W95363  12.774  27.265   4.136
23049W        W95364  39.029  25.716  10.655
23050W        W95365  37.023  15.510   3.222
23051W        W95366  23.651   5.370  13.320
23052W        W95367  24.151   9.925  10.972
23053W        W95368  31.472  42.790   2.742
23054W        W95369   7.741  12.379   3.147
23055W        W95370  28.109  22.018  11.387
23056W        W95371  10.693   6.012   4.597
23057W        W95372  22.716  27.211   1.505
23058W        W95373  23.757  29.367  10.741
23059W        W95374   0.480  32.616   3.750
23060W        W95375  13.795  33.574   0.296
23061W        W95376   7.162  34.556   4.153
23062W        W95377   2.201  18.196   1.317
23063W        W95378  41.003  22.727  11.121
23064W        W95379  14.265   2.904  13.345
23065W        W95380  25.009  31.956  14.810
23066W        W95381  33.113   6.321   3.314
23067W        W95382  15.322  37.738  12.941
23068W        W95383   3.952  44.913   0.961
23069W        W95384  13.286  36.348   3.603
23070W        W95385  18.710  37.242   3.041
23071W        W95386  38.531  37.826  13.250
23072W        W95387  13.227  30.339  12.462
23073W        W95388  20.004   7.835  13.030
23074W        W95389  30.123  35.459  13.053
23075W        W95390  37.963  14.280   0.504
23076W        W95391  43.917  42.580  11.611
23077W        W95392   5.288  14.169  14.802
23078W        W95393  38.363   7.942  13.059
23079W        W95394   3.021  43.308   2.147
23080W        W95395  22.026  36.491   3.450
23081W        W95396  37.158  41.918   3.705
23082W        W95397  30.050  29.427   3.652
23083W        W95398  25.172  23.635  13.788
23084W        W95399  13.174  41.625  14.305
23085W        W95400  28.894  29.942  11.179
23086W        W95401  22.728   4.837   0.800
23087W        W95402  16.743   6.394   4.200
23088W        W95403  23.878  33.679   1.904
23089W        W95404  21.954  14.308  11.006
23090W        W95405  43.388  43.514  12.053
23091W        W95406  21.035  10.933  10.461
23092W        W95407  18.373   6.446   3.438
23093W        W95408  10.880  32.206  13.502
23094W        W95409   4.444   6.126  11.876
23095W        W95410   6.612  34.563   3.149
23096W        W95411  39.263   6.399   1.235
23097W        W95412  38.772  10.847   1.747
23098W        W95413  15.692  11.017   3.766
23099W        W95414  36.542   6.865  10.412
23100W        W95415  11.210  36.491   1.072
23101W        W95416  14.742  36.069   5.083
23102W        W95417  22.038  33.284  13.876
23103W        W95418  19.770   4.375   2.672
23104W        W95419  28.621  39.066   2.127
23105W        W95420  18.553  13.556  11.713
23106W        W95421  37.843  44.304  12.081
23107W        W95422  27.172  12.228   0.501
23108W        W95423   9.051  14.860  14.772
23109W        W95424  30.937   7.205   0.803
23110W        W95425  39.058  33.102   2.669
23111W        W95426  38.050  13.291   1.401
23112W        W95427   5.213  18.319   2.682
23113W        W95428   5.788  37.244  14.839
23114W        W95429  10.172  12.798  11.931
23115W        W95430  17.643  19.743   2.194
23116W        W95431  42.081  14.536  12.084
23117W        W95432  25.554  12.877  14.052
23118W        W95433   9.987  20.642   4.332
23119W        W95434  44.031  31.359  11.171
23120W        W95435  43.963  33.219   0.737
23121W        W95436  11.050   6.520   2.959
23122W        W95437  31.595  26.766   4.361
23123W        W95438  34.565  16.163  14.898
23124W        W95439   7.644  39.009  11.981
23125W        W95440  24.616  22.437   4.547
23126W        W95441  31.540  20.673  13.758
23127W        W95442  44.566  18.065  11.918
23128W        W95443  24.934  39.865   2.582
23129W        W95444   9.908  28.921  11.897
23130W        W95445  42.392   3.013  10.659
23131W        W95446  25.020  25.617   0.972
23132W        W95447  35.605  10.334   4.690
23133W        W95448  37.762  29.054   0.910
23134W        W95449   5.190   7.906  12.517
23135W        W95450  33.552  10.623   3.267
23136W        W95451   5.298  30.633   4.202
23137W        W95452  24.620  39.640   3.618
23138W        W95453   0.768  24.585   0.217
23139W        W95454  39.526  24.218  11.742
23140W        W95455  37.334   8.179  13.795
23141W        W95456  40.775  32.430  12.367
23142W        W95457  28.162  24.088  10.847
23143W        W95458  22.673  36.986  10.583
23144W        W95459  25.858  10.908   1.173
23145W        W95460   1.560  40.051  13.953
23146W        W95461   5.991  12.115  11.165
23147W        W95462   9.271  31.500   4.888
23148W        W95463  44.727  25.581   2.239
23149W        W95464   0.292  31.402  13.438
23150W        W95465  36.567   4.490   2.444
23151W        W95466  24.368  30.352  11.098
23152W        W95467  24.673   2.787   2.586
23153W        W95468   2.930   7.282  14.351
23154W        W95469   8.122  31.012  10.717
23155W        W95470  37.121  20.516   3.661
23156W        W95471   4.856  37.297  12.566
23157W        W95472  42.645  35.439   1.403
23158W        W95473   5.825  38.851   4.785
23159W        W95474  27.134  44.179  12.561
23160W        W95475  33.078  17.994   0.176
23161W        W95476  33.764   2.822   2.128
23162W        W95477  16.067   4.076  11.178
23163W        W95478   8.621  29.423   1.570
23164W        W95479  17.798  31.139  13.392
23165W        W95480  13.130  35.365   4.673
23166W        W95481   1.197   4.328   4.895
23167W        W95482  24.191  27.588   1.753
23168W        W95483  29.055  22.814  10.823
23169W        W95484   0.013   0.163   3.237
23170W        W95485   0.298  16.329   4.552
23171W        W95486  11.157  20.723   2.211
23172W        W95487  32.987  25.699  14.475
23173W        W95488   6.273  18.304  10.603
23174W        W95489  23.012   7.658   1.439
23175W        W95490  16.760  31.094   4.428
23176W        W95491  31.468  38.106  13.759
23177W        W95492  20.186  33.176   3.055
23178W        W95493  30.520  11.947   4.085
23179W        W95494  25.128  28.069   4.540
23180W        W95495  37.962  41.454   3.602
23181W        W95496  23.532  42.692  10.136
23182W        W95497  39.571  33.164  13.286
23183W        W95498  40.315   2.653  10.713
23184W        W95499  35.908  42.843  12.142
23185W        W95500  21.036  42.979   3.746
23186W        W95501   7.261   1.572   4.137
23187W        W95502  23.914   7.668   1.773
23188W        W95503  17.651  43.538  14.369
23189W        W95504  17.031   6.748   1.449
23190W        W95505  33.084  27.185   1.847
23191W        W95506  35.821  15.142   2.759
23192W        W95507  33.012   8.154  14.290
23193W        W95508  43.264  15.290  12.861
23194W        W95509  42.432  39.643  13.679
23195W        W95510  41.076   1.776   0.875
23196W        W95511  29.572  42.572  10.784
23197W        W95512  40.303  34.490   2.735
23198W        W95513  22.339  42.972  14.910
23199W        W95514  21.553  15.209  11.126
23200W        W95515  12.271  12.277  14.831
23201W        W95516  32.392  30.992  13.902
23202W        W95517  39.994  23.584  12.091
23203W        W95518   5.368  33.270  11.588
23204W        W95519  18.613  35.943  10.639
23205W        W95520  34.980  26.515  11.995
23206W        W95521  34.386  17.455   0.606
23207W        W95522  28.032  44.375  13.505
23208W        W95523  19.686  10.136   4.832
23209W        W95524  42.560  44.412  12.471
23210W        W95525  32.736  29.379  12.876
23211W        W95526  43.695  21.574  12.917
23212W        W95527  30.068  31.996  13.325
23213W        W95528  25.733  35.953   1.752
23214W        W95529  10.453  14.327  12.031
23215W        W95530   5.314   8.881   2.316
23216W        W95531  18.736  17.627   1.261
23217W        W95532  35.610  14.023  14.385
23218W        W95533  16.026  26.505   2.916
23219W        W95534   3.320  14.391  12.424
23220W        W95535  19.223  44.040  11.472
23221W        W95536  29.951   7.308   1.447
23222W        W95537   9.748   2.691  14.948
23223W        W95538  35.849  22.267  12.480
23224W        W95539  32.430  34.785  12.509
23225W        W95540  14.464  29.085  14.494
23226W        W95541  19.728   2.455  10.670
23227W        W95542  35.112  37.531  13.405
23228W        W95543   4.435   7.510  14.606
23229W        W95544  27.971  38.019   2.424
23230W        W95545  16.256  27.351  12.960
23231W        W95546   0.757  22.720  11.239
23232W        W95547  16.746  44.751  14.990
23233W        W95548   0.994  18.627  10.647
23234W        W95549  44.476  17.133  12.499
23235W        W95550  35.829  25.950  12.843
23236W        W95551   4.322   0.806  14.399
23237W        W95552  32.605  10.541   2.803
23238W        W95553  25.925  42.073   2.131
23239W        W95554  44.608  19.966  12.917
23240W        W95555  44.858  11.712  14.524
23241W        W95556  18.964  14.501   1.391
23242W        W95557  14.306  29.722   1.253
23243W        W95558  18.778  39.362  13.939
23244W        W95559  11.101   4.158  14.625
23245W        W95560  22.129  28.659  12.346
23246W        W95561   9.266  38.363  11.946
23247W        W95562  34.945  17.006  13.086
23248W        W95563  21.755   9.344   0.472
23249W        W95564   9.247  30.888   4.153
23250W        W95565  41.484  29.283   2.721
23251W        W95566  25.012  41.254  11.642
23252W        W95567  16.760  42.347   4.897
23253W        W95568  10.523   6.323   3.776
23254W        W95569   6.863  30.194   3.210
23255W        W95570   1.190  38.019  10.742
23256W        W95571  28.597  30.473   1.882
23257W        W95572  20.257  19.620  13.862
23258W        W95573  39.299   3.491  10.923
23259W        W95574   6.726  26.615   4.328
23260W        W95575  15.233  30.971   4.953
23261W        W95576   9.333  44.437  14.934
23262W        W95577  31.179  24.011   0.016
23263W        W95578  33.002  11.569  14.730
23264W        W95579  15.037  28.739   1.210
23265W        W95580  39.482  21.578   0.889
23266W        W95581  25.114   7.756  12.937
23267W        W95582   5.172  22.619  14.822
23268W        W95583   4.442   4.144   4.221
23269W        W95584   2.244  10.065   4.873
23270W        W95585  33.135  29.012  11.665
23271W        W95586  27.897  38.706  12.764
23272W        W95587  44.358  32.055   2.591
23273W        W95588   7.668  18.148   4.128
23274W        W95589  12.600   6.868   3.750
23275W        W95590  22.202  35.591  14.927
23276W        W95591  37.628  31.132   3.640
23277W        W95592  12.575  18.492   3.466
23278W        W95593  29.623  42.914   2.795
23279W        W95594  38.653  30.983  13.943
23280W        W95595   8.196  17.232   4.086
23281W        W95596  31.037  30.613   4.591
23282W        W95597  31.874  23.471   2.768
23283W        W95598   9.845  37.120   3.662
23284W        W95599  27.234   5.436   5.168
23285W        W95600  36.908  39.555   3.861
23286W        W95601  39.718  22.478  12.896
23287W        W95602  29.473  38.217  10.747
23288W        W95603  19.545  34.438  14.421
23289W        W95604   6.870   5.171  14.830
23290W        W95605  21.577  24.949  12.647
23291W        W95606   6.338   1.086  13.941
23292W        W95607  44.847  27.438  14.014
23293W        W95608  20.581  14.321   5.195
23294W        W95609  11.395   2.963  14.347
23295W        W95610  23.284  29.250   1.858
23296W        W95611  43.814   5.893  13.954
23297W        W95612   6.122  16.390   2.849
23298W        W95613  39.655   9.727  12.026
23299W        W95614  20.723  44.107   1.967
23300W        W95615  44.340  15.651  13.417
23301W        W95616   9.768  23.242   1.835
23302W        W95617  44.396  12.931   4.658
23303W        W95618  21.870  26.641  12.540
23304W        W95619  17.550  23.829  13.094
23305W        W95620  40.046  32.459  12.951
23306W        W95621  39.942  38.255   0.903
23307W        W95622  25.628  20.725   2.696
23308W        W95623  39.448  34.994  11.386
23309W        W95624   7.343  37.500   2.258
23310W        W95625  25.126  17.175  13.749
23311W        W95626   3.487  25.889   3.690
23312W        W95627  38.823  33.312   4.597
23313W        W95628  26.973   7.778  14.845
23314W        W95629   0.249  13.833  12.431
23315W        W95630  34.435  25.271  13.032
23316W        W95631   5.381  27.031   4.631
23317W        W95632  13.887  10.652   2.254
23318W        W95633   1.080  16.901   1.797
23319W        W95634  28.122  33.590  11.443
23320W        W95635   1.950  37.840  11.812
23321W        W95636   7.752  23.122   3.583
23322W        W95637  31.152  41.026  11.824
23323W        W95638  33.507  12.802   3.176
23324W        W95639   4.782  12.313   2.100
23325W        W95640  15.314  15.828  12.086
23326W        W95641   6.929  27.617  12.094
23327W        W95642   2.914   8.177  13.299
23328W        W95643   6.499  24.546   4.529
23329W        W95644   0.538  39.558   2.555
23330W        W95645  21.077  32.355   1.415
23331W        W95646  27.714  21.973  12.559
23332W        W95647   8.235   4.458  10.932
23333W        W95648  15.055   2.219   2.462
23334W        W95649  30.910  38.926   2.303
23335W        W95650  21.307   7.333   0.534
23336W        W95651   3.363  26.420   2.634
23337W        W95652  41.939  19.804   3.549
23338W        W95653  37.602  40.917  11.609
23339W        W95654  33.456  41.797  12.034
23340W        W95655   2.209  42.939  10.645
23341W        W95656   8.876  26.141   2.313
23342W        W95657  40.538  14.631  13.931
23343W        W95658   1.807  39.900   2.020
23344W        W95659  26.305  44.164  12.237
23345W        W95660  32.776  23.973   2.840
23346W        W95661   9.099  39.031  11.143
23347W        W95662   3.326   1.903  10.966
23348W        W95663  22.030   0.983  11.922
23349W        W95664  30.858  12.224   0.634
23350W        W95665  25.965  16.309   4.527
23351W        W95666  35.814  35.558   2.699
23352W        W95667   0.549  17.594  14.394
23353W        W95668  32.339   6.931   3.229
23354W        W95669  29.955   2.938  13.399
23355W        W95670  32.199  16.833   2.775
23356W        W95671  25.526   7.661  11.674
23357W        W95672  23.518  24.637   4.540
23358W        W95673  26.297   0.346  11.494
23359W        W95674  27.457  25.862  13.037
23360W        W95675  20.160  30.751  12.033
23361W        W95676  33.400  16.654  12.460
23362W        W95677   7.703  37.342  10.708
23363W        W95678   3.455  13.862   0.930
23364W        W95679  33.742  34.135  14.562
23365W        W95680  37.798   2.835   2.655
23366W        W95681  28.037   3.479   4.154
23367W        W95682  42.952  30.152  13.449
23368W        W95683  35.854  14.207   4.150
23369W        W95684  14.333  24.574   3.521
23370W        W95685  33.867  15.117  13.410
23371W        W95686   2.240  10.595   1.981
23372W        W95687  32.603  25.245   3.604
23373W        W95688   6.657  34.157  10.718
23374W        W95689  19.187  18.588   2.138
23375W        W95690  44.205   5.190   0.216
23376W        W95691  18.081  24.276  11.230
23377W        W95692   8.395  43.429  13.576
23378W        W95693  32.552  13.846   1.700
23379W        W95694  37.483  35.521   3.814
23380W        W95695  13.862  27.877  11.048
23381W        W95696  21.093  17.752   0.664
23382W        W95697   4.299  11.291  11.085
23383W        W95698  44.364  27.107  14.166
23384W        W95699   0.855  15.279  12.269
23385W        W95700  39.453   1.695  13.513
23386W        W95701  22.701  16.586   2.267
23387W        W95702  10.869  42.847  14.883
23388W        W95703   9.456  35.473  14.910
23389W        W95704   1.666  26.946  13.375
23390W        W95705  44.144  13.856  13.640
23391W        W95706   6.952  12.358   1.287
23392W        W95707   1.378  32.134   2.450
23393W        W95708   4.333   7.269  11.877
23394W        W95709  10.357  38.957   4.418
23395W        W95710  34.463  23.309  13.023
23396W        W95711  15.352  14.882   1.391
23397W        W95712  25.876  16.680   2.416
23398W        W95713  39.846  38.621   0.048
23399W        W95714  32.367  34.973  10.422
23400W        W95715  35.460  25.564   0.828
23401W        W95716  15.479  30.600  14.356
23402W        W95717  42.395  34.744   0.374
23403W        W95718  33.250   6.049   4.723
23404W        W95719  24.035  27.284  13.789
23405W        W95720  43.356  19.195   2.846
23406W        W95721   3.815  38.351   4.402
23407W        W95722  28.162  26.592  10.793
23408W        W95723  25.801  14.335   4.588
23409W        W95724  41.501  15.652   5.003
23410W        W95725   3.136   6.790  11.023
23411W        W95726  28.748   9.720  13.811
23412W        W95727   4.769  27.062  13.539
23413W        W95728  33.524  15.867  10.925
23414W        W95729  35.836  40.003   3.705
23415W        W95730   8.872  18.073  12.398
23416W        W95731  16.680  35.346   0.238
23417W        W95732  42.107   3.755  14.333
23418W        W95733  37.852  22.059  11.201
23419W        W95734  44.531  11.916   3.282
23420W        W95735  17.036  19.504  13.092
23421W        W95736  14.254  17.416   2.277
23422W        W95737  43.758  25.760   4.199
23423W        W95738  33.020  39.470  14.437
23424W        W95739   2.972  43.989   1.119
23425W        W95740  19.318  25.054   1.548
23426W        W95741   1.319  11.926  12.945
23427W        W95742  17.098  15.710  14.735
23428W        W95743  16.368  35.133   1.914
23429W        W95744  38.045  31.184   2.269
23430W        W95745  21.270  35.323   0.687
23431W        W95746  13.322   8.388   2.362
23432W        W95747  19.207   1.502  10.756
23433W        W95748  39.235  40.591  12.338
23434W        W95749  19.267  38.670   4.262
23435W        W95750  33.502  13.377   5.006
23436W        W95751  11.429   5.805  11.512
23437W        W95752  22.191   5.301  10.921
23438W        W95753  42.523  19.243   1.330
23439W        W95754  20.001  19.824  12.348
23440W        W95755  12.210  42.977   2.404
23441W        W95756  30.339  23.258  11.113
23442W        W95757  20.513   9.846  10.568
23443W        W95758   9.341  24.979  14.359
23444W        W95759  28.489  33.275   0.933
23445W        W95760  19.506  21.226  14.638
23446W        W95761  11.350  39.985  13.394
23447W        W95762  43.838  23.634  14.747
23448W        W95763   9.647  21.477   1.309
23449W        W95764  11.311  13.878   4.666
23450W        W95765  12.547  17.260  12.104
23451W        W95766  44.077  39.926  11.965
23452W        W95767   1.910  43.790  11.386
23453W        W95768   0.708   1.877   3.991
23454W        W95769  24.014  32.975  10.745
23455W        W95770  14.909   0.378  10.406
23456W        W95771  22.583  10.845  12.146
23457W        W95772  39.308  28.742  13.969
23458W        W95773  20.331  40.726   0.913
23459W        W95774  20.557   1.289   4.381
23460W        W95775  12.135  38.563  13.549
23461W        W95776  15.668   8.837   4.571
23462W        W95777  10.194  43.891   3.599
23463W        W95778  41.401  23.999  11.097
23464W        W95779   9.339  39.594  10.495
23465W        W95780  17.041   7.704  12.221
23466W        W95781  25.592  11.677   2.186
23467W        W95782  25.879  30.387  13.505
23468W        W95783   5.776  11.278  11.338
23469W        W95784  15.265  38.264   1.476
23470W        W95785  40.573  10.214   4.193
23471W        W95786   5.869  43.328  10.247
23472W        W95787  18.940  12.574  13.440
23473W        W95788  37.529  16.867   0.897
23474W        W95789  17.108  35.128   0.441
23475W        W95790   1.878   4.375   1.647
23476W        W95791  32.462  14.779  12.531
23477W        W95792  44.499  43.460   0.811
23478W        W95793   9.668  32.107   2.693
23479W        W95794  37.084  34.504   4.343
23480W        W95795  40.530  11.853   5.020
23481W        W95796  39.950   7.895  13.751
23482W        W95797  31.446  40.090  12.430
23483W        W95798   0.505   8.711   0.004
23484W        W95799  22.652  31.706  11.326
23485W        W95800  18.475  29.502  10.246
23486W        W95801  23.570  36.188   4.583
23487W        W95802  43.813  33.212  13.424
23488W        W95803  28.002  38.789   4.201
23489W        W95804   0.239  14.744   0.903
23490W        W95805  32.512  43.619   3.719
23491W        W95806  21.772  33.947   0.338
23492W        W95807  38.384  15.925  14.816
23493W        W95808   5.657   8.367  13.092
23494W        W95809  20.310  32.294   3.274
23495W        W95810  44.385   4.371   1.271
23496W        W95811  41.914  15.238  11.106
23497W        W95812   7.784  38.625   4.120
23498W        W95813  27.055  41.955   4.282
23499W        W95814  41.985   1.696   4.597
23500W        W95815  24.756   9.327  14.899
23501W        W95816  15.217  30.167   5.621
23502W        W95817   7.176   1.907   0.280
23503W        W95818  35.448  21.517  14.721
23504W        W95819  11.163  42.721   3.428
23505W        W95820  31.321   9.185  11.154
23506W        W95821   4.818  17.741   2.696
23507W        W95822   3.371   4.497  10.744
23508W        W95823  26.608  15.884  10.895
23509W        W95824  29.259  33.885  10.663
23510W        W95825  28.276  25.021   2.780
23511W        W95826  35.432  25.508  11.423
23512W        W95827   9.714  43.022  14.739
23513W        W95828  26.042  17.225   1.863
23514W        W95829   3.678  28.733   1.395
23515W        W95830  43.788  19.088   3.676
23516W        W95831  22.893  36.815   4.600
23517W        W95832   6.956  12.627  12.676
23518W        W95833   0.020  23.829   3.202
23519W        W95834  40.772  36.515   1.864
23520W        W95835  40.011  36.895  14.596
23521W        W95836  34.604  22.643  10.534
23522W        W95837  32.666  38.285  10.986
23523W        W95838  37.472  17.062  14.915
23524W        W95839  14.638  10.241  12.342
23525W        W95840   2.578  30.455   0.732
23526W        W95841  21.599   2.883   4.659
23527W        W95842   1.930  16.542   3.105
23528W        W95843  13.861   7.357  14.485
23529W        W95844   9.957  21.594   3.633
23530W        W95845  22.873  21.920   2.444
23531W        W95846   2.510  28.008  11.573
23532W        W95847  17.753  10.105  10.407
23533W        W95848  28.183   7.383  13.494
23534W        W95849  40.675  43.892   0.822
23535W        W95850  32.836  13.607  10.391
23536W        W95851  33.990   1.172  14.946
23537W        W95852  26.801  36.528   2.935
23538W        W95853  39.805  27.636   3.739
23539W        W95854  41.512  12.635  14.811
23540W        W95855   7.831   5.835   3.773
23541W        W95856  42.873  42.306   4.220
23542W        W95857  24.683  21.204  14.015
23543W        W95858  10.653  10.125   2.759
23544W        W95859  14.258  19.026   3.142
23545W        W95860   4.713  40.795  14.083
23546W        W95861  26.058  13.728  10.724
23547W        W95862  41.950  35.851   0.809
23548W        W95863  24.641  19.425   0.119
23549W        W95864  16.688  39.522   3.688
23550W        W95865  17.727  43.437   0.346
23551W        W95866  30.110  30.551  11.584
23552W        W95867  31.969  35.053   1.367
23553W        W95868  17.264  39.140  13.058
23554W        W95869   3.684  40.974   0.495
23555W        W95870  13.304   2.991   1.665
23556W        W95871  35.861  36.079  14.915
23557W        W95872  24.961  21.391   4.833
23558W        W95873  42.415  11.134  11.575
23559W        W95874  11.570  37.487   3.248
23560W        W95875  21.945  36.428  13.182
23561W        W95876   1.599   2.029   4.060
23562W        W95877  33.206  29.380   2.391
23563W        W95878  39.018  17.022   0.453
23564W        W95879  16.638  19.568  14.291
23565W        W95880  41.221  36.296   2.720
23566W        W95881  20.058  33.649  12.996
23567W        W95882   0.311  10.254  12.114
23568W        W95883  33.463   8.664  10.054
23569W        W95884  13.301  37.126   3.036
23570W        W95885   6.839  33.154  14.858
23571W        W95886  42.307  44.406  12.931
23572W        W95887   9.096  40.454   2.300
23573W        W95888   4.443   1.077  11.439
23574W        W95889  13.206  28.515   4.881
23575W        W95890  23.872  23.117  13.491
23576W        W95891  37.061  22.196  13.991
23577W        W95892  39.395  38.471   4.620
23578W        W95893  21.801   7.855   2.353
23579W        W95894  40.482   8.657   3.120
23580W        W95895  42.314   1.678   2.032
23581W        W95896  30.388  24.468   4.160
23582W        W95897  40.945  33.661  12.493
23583W        W95898   1.202   6.326  10.710
23584W        W95899   9.647   0.885  10.960
23585W        W95900  31.366  44.796   0.965
23586W        W95901  40.525  22.973  14.992
23587W        W95902  33.482  17.654  10.492
23588W        W95903   6.407  20.021  11.979
23589W        W95904  25.551  16.192   0.899
23590W        W95905   6.517  17.611   0.381
23591W        W95906  31.114  15.874  13.423
23592W        W95907  27.073  17.777   3.142
23593W        W95908  15.880  19.762   2.430
23594W        W95909  38.598  18.052  12.118
23595W        W95910  21.013  44.976   2.457
23596W        W95911  39.490  43.051  12.493
23597W        W95912  24.764  16.491  13.506
23598W        W95913  41.315   1.958   0.431
23599W        W95914  43.789  37.436  14.528
23600W        W95915  22.671  20.538  10.375
23601W        W95916  24.219  44.878  12.795
23602W        W95917  34.894  22.702  11.569
23603W        W95918  32.115  26.242   3.228
23604W        W95919   2.972  20.939   0.271
23605W        W95920  38.970  37.893   4.458
23606W        W95921  39.153  32.812  13.994
23607W        W95922  22.725  35.050  12.624
23608W        W95923   2.898   3.977   0.863
23609W        W95924  16.063   4.997  13.692
23610W        W95925  10.131  40.876  13.880
23611W        W95926  19.672  36.438  13.309
23612W        W95927  14.130  25.319  12.901
23613W        W95928  19.398  38.586   2.354
23614W        W95929   5.185  21.094   2.132
23615W        W95930   4.399   9.143   0.881
23616W        W95931  27.501   0.707   2.377
23617W        W95932   4.191  12.783  12.345
23618W        W95933  33.856   4.607   3.259
23619W        W95934  14.074  33.343   1.828
23620W        W95935  24.678  24.688  14.656
23621W        W95936  14.673  27.767   3.849
23622W        W95937  28.068  34.490  14.182
23623W        W95938   7.466  10.736  13.575
23624W        W95939   0.293  10.773  12.273
23625W        W95940  40.819  12.862  14.515
23626W        W95941  27.911  35.745   9.990
23627W        W95942  26.036  23.407  13.590
23628W        W95943   9.206  44.453  10.912
23629W        W95944  15.090   7.642   0.391
23630W        W95945  18.530  43.404   0.874
23631W        W95946  26.573  37.945  11.583
23632W        W95947   1.899  35.315  10.363
23633W        W95948  34.644  10.002   0.404
23634W        W95949  29.284   8.752   4.613
23635W        W95950   9.153   1.372  12.329
23636W        W95951  34.856  13.813  11.755
23637W        W95952   5.724  30.852   4.039
23638W        W95953   5.769  12.140   2.701
23639W        W95954   3.473   3.394   0.011
23640W        W95955   2.759  15.041  11.248
23641W        W95956  36.527  21.922   1.773
23642W        W95957  32.559  41.303  14.359
23643W        W95958  37.532  26.698   4.092
23644W        W95959  16.187  30.001   3.589
23645W        W95960  15.387  17.552   1.769
23646W        W95961  15.070  34.408   3.566
23647W        W95962  38.116  18.729   4.242
23648W        W95963   9.893  15.888  10.277
23649W        W95964  44.212  20.865  13.881
23650W        W95965  34.389  23.765   0.032
23651W        W95966  36.401  24.180  12.345
23652W        W95967  24.136  28.631  11.787
23653W        W95968  15.373  23.110  14.001
23654W        W95969  27.490  38.795   4.059
23655W        W95970  32.417  15.809   4.142
23656W        W95971  19.351  15.566  14.421
23657W        W95972   2.165  27.655   0.808
23658W        W95973   8.195   2.950   2.732
23659W        W95974   0.248  41.852   1.460
23660W        W95975   5.623  18.796  11.932
23661W        W95976  13.157  23.138  14.708
23662W        W95977   4.780  35.314  12.431
23663W        W95978   4.554  27.973  13.739
23664W        W95979   0.151  20.105   3.838
23665W        W95980   5.740  40.428  10.633
23666W        W95981  17.625   4.878  14.994
23667W        W95982  29.101  14.743  13.664
23668W        W95983  21.250  32.847   4.581
23669W        W95984   4.629  21.719  11.677
23670W        W95985  35.481  35.956   2.709
23671W        W95986  18.707  22.006  13.287
23672W        W95987  37.025  44.596   3.250
23673W        W95988   6.184   3.816   3.386
23674W        W95989  35.477  17.794  13.811
23675W        W95990   5.330  28.346   0.713
23676W        W95991  18.517  23.487   3.384
23677W        W95992  34.093  14.166  13.699
23678W        W95993  29.736  31.872   2.613
23679W        W95994  15.043   4.719   2.635
23680W        W95995   3.005   1.729  10.598
23681W        W95996  24.521  26.095  14.329
23682W        W95997  13.377  19.964   3.839
23683W        W95998  28.804  32.849   0.812
23684W        W95999  37.547  23.295   9.753
23685W        W96000  36.615  11.343  12.305
23686W        W96001  12.901  28.722   2.233
23687W        W96002  30.603  13.526  13.453
23688W        W96003  16.296  15.145  11.032
23689W        W96004  19.745  14.573  14.336
23690W        W96005  15.737  30.748   0.872
23691W        W96006   4.254  28.239  13.355
23692W        W96007  21.883  33.029   2.823
23693W        W96008  42.518  17.459  11.108
23694W        W96009  39.783  10.042  13.096
23695W        W96010  29.764  29.169  14.402
23696W        W96011  36.725  15.991   4.496
23697W        W96012  14.191   0.368   2.477
23698W        W96013  24.563  23.526  12.003
23699W        W96014   7.719  12.884   4.086
23700W        W96015   4.716  11.805  13.383
23701W        W96016  22.481  21.168   1.680
23702W        W96017  14.136  31.488   2.066
23703W        W96018  40.307  13.362   0.740
23704W        W96019  31.303  29.935   0.650
23705W        W96020  30.712  21.727   1.351
23706W        W96021  30.681   5.738   2.355
23707W        W96022  20.484  12.677  13.337
23708W        W96023  19.115  16.283   0.314
23709W        W96024  11.612  38.110   3.712
23710W        W96025   3.408  40.535   2.386
23711W        W96026  15.396  14.394   4.143
23712W        W96027   0.443  10.370  14.036
23713W        W96028  23.730  27.500  11.119
23714W        W96029  31.932  30.714  13.828
23715W        W96030  27.960   1.217   1.117
23716W        W96031   2.303  16.285  13.024
23717W        W96032  24.640   6.303   0.457
23718W        W96033   0.816  28.619   1.785
23719W        W96034  35.839  41.756   4.709
23720W        W96035   9.322  17.568   0.409
23721W        W96036  30.608  34.356  10.652
23722W        W96037  31.830  44.285   3.683
23723W        W96038   7.181  10.172  14.469
23724W        W96039  14.248  32.106  10.438
23725W        W96040  25.003  26.101  12.915
23726W        W96041  22.231   4.359   3.249
23727W        W96042  42.557  11.353   4.738
23728W        W96043  38.613  22.018   2.488
23729W        W96044  28.084  22.691  10.766
23730W        W96045  17.680  43.531  13.530
23731W        W96046   8.735  29.421   0.235
23732W        W96047  30.016  26.064  12.348
23733W        W96048   6.849  24.893   4.720
23734W        W96049  29.826  13.310  12.891
23735W        W96050  11.728   9.761  13.409
23736W        W96051   5.986  37.386  11.112
23737W        W96052   7.143  22.199   0.686
23738W        W96053  43.795  16.457  12.299
23739W        W96054  22.498  11.750  12.052
23740W        W96055  33.853  41.277  11.850
23741W        W96056  28.476  27.112   0.354
23742W        W96057  18.303  32.597  10.698
23743W        W96058  36.354  15.572  10.788
23744W        W96059   2.940  15.212  12.503
23745W        W96060  32.371  41.739  10.770
23746W        W96061  24.473  31.520  11.519
23747W        W96062  37.837   7.161   1.651
23748W        W96063   4.756  38.504   2.939
23749W        W96064   7.241  11.216   1.028
23750W        W96065  21.789  44.702  14.465
23751W        W96066  14.199  30.246   1.344
23752W        W96067   2.492  13.608   4.758
23753W        W96068  11.150  35.532  12.965
23754W        W96069  24.365   7.893   1.918
23755W        W96070   0.225  28.759  10.985
23756W        W96071   6.182   8.465  13.071
23757W        W96072  22.134   6.281   2.762
23758W        W96073  36.418  10.259   3.042
23759W        W96074   5.634   1.176   2.888
23760W        W96075  30.549  35.413  10.585
23761W        W96076  21.331  16.553  10.766
23762W        W96077  13.009  39.667   0.591
23763W        W96078  27.725   6.179  13.279
23764W        W96079   6.692  35.949  12.373
23765W        W96080   2.678  41.578   2.785
23766W        W96081  28.891  14.287   2.627
23767W        W96082  16.685  28.954   4.875
23768W        W96083  12.555  30.407  10.637
23769W        W96084  36.480   5.477  14.247
23770W        W96085  19.330  40.659   5.507
23771W        W96086  10.656  42.069   0.379
23772W        W96087   4.789  33.540  13.961
23773W        W96088  40.303  38.159  12.866
23774W        W96089  11.583  21.532   2.683
23775W        W96090  22.513  36.547   4.288
23776W        W96091  44.739  15.293  14.793
23777W        W96092  20.414  30.092   4.649
23778W        W96093  23.420   5.641   0.484
23779W        W96094  15.752  38.390   1.454
23780W        W96095  33.500  22.672   3.682
23781W        W96096  25.186  12.092   0.931
23782W        W96097  28.152  14.358   4.242
23783W        W96098   7.883   5.748  11.624
23784W        W96099  40.333  32.573  13.435
23785W        W96100  32.121   2.257  14.528
23786W        W96101   7.618  38.455  11.501
23787W        W96102   7.625  20.387  11.480
23788W        W96103  18.825  16.654  14.868
23789W        W96104   0.413  21.408   3.767
23790W        W96105   0.206  38.370  11.509
23791W        W96106  27.007   9.664   2.786
23792W        W96107   4.981  25.504  11.122
23793W        W96108  40.776   8.742   0.454
23794W        W96109  28.927   9.685   4.359
23795W        W96110  27.098  11.776   0.288
23796W        W96111  17.543  19.209   3.316
23797W        W96112   2.764   6.228  12.498
23798W        W96113  41.560  39.838   1.157
23799W        W96114  40.330  42.035  12.798
23800W        W96115  25.126  25.432   2.589
23801W        W96116  32.512  31.392   2.500
23802W        W96117  31.761  43.831  12.527
23803W        W96118  39.451  26.497  13.315
23804W        W96119   1.918  44.270  13.136
23805W        W96120  13.247   6.443  13.517
23806W        W96121  17.094   9.351   3.031
23807W        W96122  40.897   5.866   1.148
23808W        W96123   9.171  44.004  11.170
23809W        W96124  40.540  36.410   1.389
23810W        W96125  31.335  32.383  13.064
23811W        W96126  13.744  15.578   0.443
23812W        W96127  30.473  27.035  13.931
23813W        W96128  19.074  44.870  10.851
23814W        W96129   7.400  43.835   4.868
23815W        W96130  17.456  42.900   2.398
23816W        W96131  33.761  20.049  12.414
23817W        W96132  41.418   3.371   0.750
23818W        W96133  43.378  38.845  14.310
23819W        W96134  34.627   6.127   3.678
23820W        W96135   0.729  35.539   2.362
23821W        W96136  25.456   9.612  12.479
23822W        W96137  34.141   3.766   2.657
23823W        W96138  23.647  14.654   1.402
23824W        W96139  26.994   6.186   3.046
23825W        W96140  38.922   2.272   0.439
23826W        W96141   2.745  40.864  11.912
23827W        W96142  33.542   7.818   0.278
23828W        W96143  39.670  28.566   4.773
23829W        W96144  40.786   3.166  12.967
23830W        W96145   7.162  20.711  11.174
23831W        W96146   9.190   4.833  10.615
23832W        W96147  30.446   5.747   1.471
23833W        W96148  26.949  12.957   2.126
23834W        W96149  26.616   5.823   0.041
23835W        W96150   7.672  11.609  10.936
23836W        W96151  14.788  25.818  14.877
23837W        W96152   5.937  30.666  14.407
23838W        W96153   6.211   1.158   2.721
23839W        W96154  36.535  22.144   0.265
23840W        W96155   0.927  30.010  11.086
23841W        W96156   4.673   9.294  14.995
23842W        W96157  22.352  27.202   4.856
23843W        W96158  35.510  17.207  10.566
23844W        W96159  12.851  12.534   4.164
23845W        W96160  21.245  19.529   4.326
23846W        W96161   9.701  12.215  12.058
23847W        W96162  43.918  18.602   3.632
23848W        W96163  22.741  10.193   4.173
23849W        W96164  20.771  39.461  14.575
23850W        W96165  21.037  41.722   3.294
23851W        W96166  32.006  12.631   1.154
23852W        W96167   9.135  16.580   0.489
23853W        W96168   6.762  12.832   1.162
23854W        W96169   0.587   8.753  11.055
23855W        W96170  31.047   5.247   1.624
23856W        W96171  39.854  40.509  13.002
23857W        W96172   9.551  15.277   1.925
23858W        W96173  29.643  44.419  14.558
23859W        W96174  32.557  34.462   2.903
23860W        W96175  27.706  42.355   4.165
23861W        W96176   3.798   5.484   0.405
23862W        W96177   4.490   2.329  13.038
23863W        W96178  22.141  11.910  11.118
23864W        W96179   1.912  26.450  13.301
23865W        W96180  24.705   8.709   1.432
23866W        W96181   7.199   5.863   3.368
23867W        W96182  21.727  34.496  11.222
23868W        W96183   7.943   0.950  12.815
23869W        W96184  31.116  25.940   1.591
23870W        W96185  10.888  43.028  13.479
23871W        W96186  10.840  19.741   2.234
23872W        W96187   4.717  29.513  12.548
23873W        W96188  27.046  23.248  11.510
23874W        W96189  40.420  19.551   1.833
23875W        W96190  12.635   0.357  12.548
23876W        W96191  12.302   6.325   3.629
23877W        W96192  33.983  15.028  11.662
23878W        W96193   5.017   6.006  11.665
23879W        W96194   4.780  25.967  11.131
23880W        W96195  43.910  14.937   1.069
23881W        W96196   3.407  10.960  12.070
23882W        W96197  42.748  27.894  10.687
23883W        W96198  36.336  10.233  10.706
23884W        W96199  32.412  10.704   3.265
23885W        W96200  12.066  35.634   2.616
23886W        W96201  37.890  11.210  12.407
23887W        W96202  10.842   1.181  14.818
23888W        W96203  36.678  18.013   3.832
23889W        W96204  21.800   3.709   3.582
23890W        W96205  10.953  13.438   3.032
23891W        W96206  11.632  10.086   0.290
23892W        W96207   3.904  19.049   2.223
23893W        W96208  12.421   4.831   2.404
23894W        W96209  22.708  13.834  14.845
23895W        W96210  32.463  26.655  14.683
23896W        W96211   3.930  21.213  10.389
23897W        W96212  38.360  31.851   3.692
23898W        W96213  19.119  26.460  11.583
23899W        W96214   2.522   1.914   0.909
23900W        W96215  26.439  37.935  14.805
23901W        W96216  29.658   9.276   0.200
23902W        W96217  34.233  18.885  11.956
23903W        W96218  29.704   7.308  10.961
23904W        W96219   9.699  24.473  10.681
23905W        W96220  14.700  24.539  14.895
23906W        W96221  33.498  20.633  11.717
23907W        W96222  18.419  37.501  14.535
23908W        W96223  36.459  28.673   0.549
23909W        W96224   3.947  31.185  11.184
23910W        W96225  10.032  21.539  14.479
23911W        W96226  34.475  14.136  12.508
23912W        W96227  25.626  17.044   2.112
23913W        W96228  44.584  35.819   0.407
23914W        W96229  40.451  43.981   3.589
23915W        W96230  11.597  24.025   1.257
23916W        W96231  17.515  27.457  12.868
23917W        W96232   0.635  17.968  11.149
23918W        W96233  34.172  21.063   2.748
23919W        W96234  32.983  13.367  14.355
23920W        W96235  13.070  10.715  14.341
23921W        W96236  11.845   4.877  14.797
23922W        W96237  32.114  38.919   3.205
23923W        W96238  32.197  38.864  10.693
23924W        W96239  24.656  28.965  10.709
23925W        W96240  34.346  37.332  14.479
23926W        W96241  24.745  20.706  13.943
23927W        W96242  18.569   6.605   2.423
23928W        W96243  44.932  20.328  13.110
23929W        W96244  30.176   8.704   0.887
23930W        W96245  39.135  24.213   4.201
23931W        W96246  18.080  11.362  11.545
23932W        W96247  17.482  24.447   0.402
23933W        W96248  14.961  28.387  13.421
23934W        W96249  28.470  41.941   4.133
23935W        W96250  21.236   8.171  13.198
23936W        W96251  29.170   1.753   2.344
23937W        W96252  23.514  41.796   0.337
23938W        W96253  26.124   3.510  10.066
23939W        W96254  19.107   4.708   0.465
23940W        W96255  13.562  37.891  13.343
23941W        W96256   4.014  18.934  11.347
23942W        W96257   9.683   0.467  12.103
23943W        W96258  36.532  41.904   2.385
23944W        W96259  12.222   3.218   1.286
23945W        W96260  18.226  41.323   4.997
23946W        W96261   6.875  25.158  13.371
23947W        W96262  40.804  36.349  14.363
23948W        W96263  18.965   9.372  11.527
23949W        W96264  23.190  12.451   3.259
23950W        W96265  38.795  22.609   3.627
23951W        W96266  15.608  29.788  14.920
23952W        W96267  22.037  24.172   0.036
23953W        W96268  34.022  18.160   0.941
23954W        W96269  33.005   2.312   3.748
23955W        W96270  29.382  41.320  13.547
23956W        W96271  10.331  40.847   3.151
23957W        W96272   3.810  44.094   3.667
23958W        W96273  16.806  27.899   3.311
23959W        W96274  28.310  16.785   4.565
23960W        W96275  40.299  26.199   1.932
23961W        W96276  26.535  43.710   3.784
23962W        W96277  35.597  15.106   4.554
23963W        W96278   0.455  36.243  11.440
23964W        W96279   0.229   2.415   2.366
23965W        W96280  31.011   6.949  12.849
23966W        W96281  34.559  16.812  14.449
23967W        W96282  24.906  28.286   2.580
23968W        W96283   6.816   5.680  11.590
23969W        W96284  18.740  20.164  12.105
23970W        W96285   3.257  24.920   2.765
23971W        W96286  36.174   3.933   4.736
23972W        W96287  11.885  26.133  13.834
23973W        W96288  27.827  11.139  13.331
23974W        W96289  38.381  14.546  11.165
23975W        W96290  15.851  36.105   4.161
23976W        W96291  24.995  31.716   0.631
23977W        W96292  14.482  25.547  13.964
23978W        W96293  41.487  40.756  11.513
23979W        W96294  11.173  38.017  13.344
23980W        W96295   9.139  42.874  10.546
23981W        W96296  17.309  23.460   2.783
23982W        W96297  27.239  33.550  12.391
23983W        W96298  18.569  34.145  12.831
23984W        W96299  38.205  18.517   3.227
23985W        W96300  13.760  13.548   1.755
23986W        W96301  31.215  21.747   1.219
23987W        W96302   3.333  10.431  11.395
23988W        W96303  16.670  23.164   3.962
23989W        W96304  15.627  17.075   0.806
23990W        W96305   4.203  13.793  13.781
23991W        W96306  40.928  36.854   4.549
23992W        W96307  31.976  24.641   1.607
23993W        W96308  24.305   6.972   0.979
23994W        W96309  41.854  22.572   2.763
23995W        W96310  38.788   2.717   2.913
23996W        W96311  24.223  44.957   0.781
23997W        W96312   1.885  42.982   1.295
23998W        W96313  24.609  14.554  10.612
23999W        W96314  20.037  11.806   1.281
24000W        W96315  17.238   5.909   0.504
24001W        W96316  37.490   4.803   3.027
24002W        W96317  14.003  20.974   2.564
24003W        W96318  18.273  15.195  12.456
24004W        W96319  15.631   0.720  10.948
24005W        W96320  31.127  27.346  12.387
24006W        W96321  11.537  36.899   1.225
24007W        W96322  21.544  40.056  12.909
24008W        W96323  18.634  26.389  12.927
24009W        W96324  30.584  28.489   2.245
24010W        W96325   9.616  38.346  14.111
24011W        W96326  12.301  33.721   3.805
24012W        W96327  14.319  30.192   0.037
24013W        W96328  14.344   8.230  11.177
24014W        W96329  15.154  39.420   4.042
24015W        W96330  17.799   2.511   2.224
24016W        W96331   3.999  23.093  12.882
24017W        W96332   6.784  21.773   1.087
24018W        W96333   6.805  23.014   3.725
24019W        W96334  16.694  39.366  10.713
24020W        W96335  12.440  20.565  14.861
24021W        W96336  21.977   0.244   2.293
24022W        W96337  26.900  42.876   3.189
24023W        W96338  20.055  42.360   0.880
24024W        W96339   7.164  44.293   0.944
24025W        W96340  13.163  26.776  12.014
24026W        W96341  18.509  28.639  13.039
24027W        W96342  23.062  28.944   3.270
24028W        W96343  23.025   3.258  13.522
24029W        W96344  19.123   0.625  14.504
24030W        W96345  23.063  37.786   0.248
24031W        W96346  32.707  35.965  14.516
24032W        W96347  32.744   8.849   3.208
24033W        W96348   4.701  43.682  14.421
24034W        W96349  35.032   4.880  14.555
24035W        W96350   5.777  13.548   3.216
24036W        W96351  21.100  36.603   3.560
24037W        W96352   0.861  34.787  13.311
24038W        W96353  42.067   2.915   4.865
24039W        W96354  13.714  23.277  11.149
24040W        W96355   6.173   4.929   0.999
24041W        W96356  40.330  40.900   0.460
24042W        W96357  11.580  33.405  12.908
24043W        W96358   8.740   1.413  11.567
24044W        W96359  22.279  31.737   1.247
24045W        W96360  36.763  24.170  11.384
24046W        W96361  26.930  38.907  14.005
24047W        W96362  10.201   6.683  12.479
24048W        W96363   6.357  20.936  13.928
24049W        W96364  43.501  22.004   4.223
24050W        W96365  39.901  34.059  11.131
24051W        W96366  40.916  31.626   0.563
24052W        W96367  25.282   1.910  12.590
24053W        W96368  23.475   1.029  11.244
24054W        W96369   3.293  30.415  14.996
24055W        W96370  10.278  23.613  11.121
24056W        W96371  29.887  20.657   3.378
24057W        W96372  37.606  32.553   3.331
24058W        W96373  26.328  20.716  11.895
24059W        W96374  30.986  36.531   3.710
24060W        W96375  16.623  35.114  13.315
24061W        W96376   1.205  42.342   0.314
24062W        W96377  41.369  21.654   0.404
24063W        W96378  23.641  19.457  11.544
24064W        W96379  32.340  39.341  12.993
24065W        W96380   5.111  40.901   0.901
24066W        W96381  17.703   8.720   0.521
24067W        W96382  25.515   2.176  10.790
24068W        W96383  22.244  30.621   2.601
24069W        W96384  30.671  11.720   5.030
24070W        W96385  30.423   8.375  11.141
24071W        W96386  35.185  24.450  11.177
24072W        W96387  15.107  27.195   1.312
24073W        W96388  31.863  40.079   2.224
24074W        W96389  31.746  41.084   1.363
24075W        W96390  30.051  16.578  14.106
24076W        W96391   1.890  43.281  11.350
24077W        W96392  31.984  24.276   2.354
24078W        W96393  37.555  27.597  11.713
24079W        W96394  41.069  25.597   1.923
24080W        W96395  36.838  19.666  13.400
24081W        W96396  41.917  28.974   2.157
24082W        W96397  12.264  43.353  11.730
24083W        W96398  39.899  31.617   3.648
24084W        W96399   2.792  19.781   0.946
24085W        W96400  33.860  30.886   2.705
24086W        W96401  10.962  26.047   3.798
24087W        W96402  40.461  20.075   1.850
24088W        W96403  19.953  12.611  13.262
24089W        W96404  10.843  21.981   0.213
24090W        W96405   9.864  41.289  11.952
24091W        W96406  21.942  31.962   2.953
24092W        W96407  42.038  33.445  12.388
24093W        W96408  28.370   5.328  12.069
24094W        W96409  17.894  28.062   3.302
24095W        W96410   2.782  39.932   3.130
24096W        W96411   0.961  23.091  14.413
24097W        W96412   0.785  13.163  11.050
24098W        W96413   7.343  41.246  13.541
24099W        W96414  33.101  36.543  12.057
24100W        W96415   6.552  14.415  12.482
24101W        W96416   3.453   8.908   3.333
24102W        W96417   7.969   5.985  12.086
24103W        W96418  44.260  37.031   0.867
24104W        W96419   3.348   5.765  13.292
24105W        W96420  40.867   0.910   1.220
24106W        W96421  32.048  23.537  11.171
24107W        W96422   2.662  26.245   3.436
24108W        W96423  14.471  44.499  12.850
24109W        W96424  21.272  28.049  11.969
24110W        W96425  15.067  29.590  14.849
24111W        W96426  30.649  17.006  13.395
24112W        W96427  22.219  44.315   2.207
24113W        W96428  29.940  23.727  10.381
24114W        W96429  33.348  39.554  13.103
24115W        W96430  13.248  27.921   4.626
24116W        W96431  11.817  38.956   4.632
24117W        W96432   5.188  23.577  14.818
24118W        W96433  15.497  44.250  12.628
24119W        W96434  21.725  31.324   3.300
24120W        W96435  43.986  35.495  14.438
24121W        W96436  37.831  12.388   3.242
24122W        W96437   1.930  14.469  11.621
24123W        W96438  20.224  38.078   1.192
24124W        W96439  35.418  41.616  11.183
24125W        W96440  41.656  42.291   1.973
24126W        W96441   4.899  28.927   3.808
24127W        W96442  11.421   6.324   4.788
24128W        W96443  41.276  22.710  13.915
24129W        W96444  39.348   5.290  11.088
24130W        W96445  14.662  27.028   4.232
24131W        W96446  42.739   6.849  10.969
24132W        W96447   6.712  30.839  12.464
24133W        W96448  20.774  18.535  14.035
24134W        W96449   0.546  14.768  12.667
24135W        W96450   1.244  18.601  13.127
24136W        W96451  40.239  26.976  14.401
24137W        W96452  12.237  43.023   1.886
24138W        W96453  29.620  40.886  11.917
24139W        W96454  35.438  23.779   1.307
24140W        W96455  33.991  16.544   3.602
24141W        W96456   0.773  24.680   4.177
24142W        W96457   3.674   8.800  12.970
24143W        W96458  26.251  40.745  13.339
24144W        W96459  29.731  33.739   3.784
24145W        W96460  18.572  30.740  10.606
24146W        W96461  26.565  26.648  14.881
24147W        W96462  33.517  27.964   1.358
24148W        W96463  41.954  31.950  11.466
24149W        W96464   5.060  13.968   4.647
24150W        W96465   4.695  28.692  11.081
24151W        W96466  14.813  27.617  12.922
24152W        W96467  13.713  33.534   3.405
24153W        W96468  41.369  36.304   4.091
24154W        W96469  36.382  38.260  12.981
24155W        W96470   6.382  13.827  13.794
24156W        W96471   3.244  19.709  13.386
24157W        W96472  32.020   0.422  10.653
24158W        W96473   3.743  36.072   3.754
24159W        W96474   4.192  16.612  14.564
24160W        W96475  30.705   2.877  12.829
24161W        W96476  18.135  18.122  14.217
24162W        W96477  22.946  30.409  11.713
24163W        W96478   8.384  29.522  11.691
24164W        W96479  23.109  29.536   4.691
24165W        W96480  23.745  23.634  13.523
24166W        W96481  42.790  40.504   2.803
24167W        W96482  37.849  17.184   4.015
24168W        W96483   2.049  10.880   2.367
24169W        W96484   1.569  19.711  11.609
24170W        W96485  16.518  10.393   3.756
24171W        W96486  31.088  22.735   1.241
24172W        W96487  41.605  42.353  14.764
24173W        W96488  14.803  18.018   2.801
24174W        W96489  30.278  24.979  10.636
24175W        W96490  20.035  20.907  13.333
24176W        W96491   2.477  26.486   2.997
24177W        W96492   1.454  30.288  14.543
24178W        W96493  30.141  28.743   2.354
24179W        W96494  29.507   0.371  13.645
24180W        W96495   0.260  28.681   2.458
24181W        W96496  35.652  29.549   3.062
24182W        W96497  15.033  33.189   0.294
24183W        W96498  35.739   0.810   2.834
24184W        W96499  10.472   4.707  14.539
24185W        W96500  31.634  24.248   3.738
24186W        W96501   0.463   1.783  11.530
24187W        W96502  44.533  31.315  13.910
24188W        W96503  17.497  12.202  12.579
24189W        W96504  19.183  40.815   9.697
24190W        W96505  30.938  33.707  14.447
24191W        W96506  21.108   3.332  10.154
24192W        W96507  15.427   8.844  14.449
24193W        W96508  26.692  32.416   3.331
24194W        W96509  11.927  20.101   2.224
24195W        W96510  23.059  28.184   0.473
24196W        W96511  15.744  41.206   1.143
24197W        W96512  37.244  21.827   3.371
24198W        W96513  34.053  13.227   2.614
24199W        W96514  39.801  43.901   3.891
24200W        W96515  23.717  43.600  11.982
24201W        W96516  29.697  44.947  13.287
24202W        W96517  22.676  39.387  14.781
24203W        W96518  32.912  26.148   2.816
24204W        W96519  21.480  42.017   3.162
24205W        W96520  13.874   6.692  13.755
24206W        W96521  39.516  18.788   1.337
24207W        W96522  42.408  22.474  12.138
24208W        W96523  30.521   7.626   0.412
24209W        W96524  22.200  22.103   3.307
24210W        W96525   3.421  22.679   5.242
24211W        W96526  11.392  28.100   1.932
24212W        W96527  30.476   4.896   2.776
24213W        W96528  39.563  33.666  11.129
24214W        W96529  29.095  35.422  12.934
24215W        W96530  14.716  40.065   3.578
24216W        W96531   5.747  11.787   0.426
24217W        W96532   5.808  36.354   0.018
24218W        W96533  17.691  40.603   4.923
24219W        W96534  14.375  40.574   2.344
24220W        W96535  39.957  12.299   3.042
24221W        W96536   2.439  11.617   4.098
24222W        W96537  25.979  35.520  11.092
24223W        W96538   7.216  40.114  12.597
24224W        W96539  24.462  23.358  10.981
24225W        W96540  21.170   4.281  13.059
24226W        W96541  42.061  34.945   2.739
24227W        W96542  13.635  31.713   0.734
24228W        W96543  22.626  44.854   4.419
24229W        W96544  36.711  27.712   3.758
24230W        W96545   5.867  27.756  14.408
24231W        W96546  16.028  32.896  10.711
24232W        W96547  22.166  41.304   1.563
24233W        W96548  26.009   9.995  12.046
24234W        W96549  29.413   9.127   4.153
24235W        W96550  28.374  17.095  11.103
24236W        W96551   8.959  30.188  14.780
24237W        W96552  36.236   2.269   0.354
24238W        W96553  41.886  11.523   1.710
24239W        W96554  36.956  12.806   1.759
24240W        W96555  30.251   1.080  12.883
24241W        W96556  40.015  29.285   4.209
24242W        W96557  36.418  30.144   1.540
24243W        W96558  21.170  29.578   1.983
24244W        W96559  34.594  30.122  12.641
24245W        W96560  13.969  17.644   2.673
24246W        W96561  24.420  19.511   1.357
24247W        W96562  24.638  32.575  10.571
24248W        W96563  43.882  22.692   0.285
24249W        W96564  16.297  38.992   4.640
24250W        W96565   5.323   9.523  10.843
24251W        W96566  27.406   0.501   4.853
24252W        W96567  30.018  33.147  10.728
24253W        W96568  25.260   2.653  13.517
24254W        W96569   6.787   7.745  12.899
24255W        W96570  16.151  21.279   1.821
24256W        W96571   7.747  44.823   4.495
24257W        W96572  34.913  27.982   1.423
24258W        W96573  29.024  10.917   2.006
24259W        W96574  11.790  21.612  10.912
24260W        W96575  35.872  43.443  13.991
24261W        W96576  32.387  35.538  14.541
24262W        W96577   0.955  41.505   3.206
24263W        W96578  22.111   9.078   1.329
24264W        W96579  21.424  39.018   4.228
24265W        W96580  10.682   7.775   2.117
24266W        W96581  20.654  28.656  14.463
24267W        W96582  30.144  19.340  13.356
24268W        W96583   8.678  43.205   1.341
24269W        W96584  39.858   0.060  12.310
24270W        W96585  33.079  38.610  11.057
24271W        W96586  10.260  29.733   0.832
24272W        W96587  39.786  30.035   4.329
24273W        W96588  34.644  11.700   0.963
24274W        W96589  16.450  22.481  10.019
24275W        W96590  11.275  43.864   0.949
24276W        W96591   5.142  21.545   0.456
24277W        W96592  33.152  29.595   0.915
24278W        W96593   7.210  15.521   3.683
24279W        W96594  43.881  44.855  12.137
24280W        W96595  12.316   7.461  14.672
24281W        W96596   5.419  13.204  14.104
24282W        W96597   4.418  41.990  13.191
24283W        W96598   6.884  40.478  10.730
24284W        W96599  23.139  15.134   0.009
24285W        W96600  36.921  26.572   0.317
24286W        W96601  23.016  42.354  13.064
24287W        W96602   9.771  44.932   3.378
24288W        W96603   7.158  14.677  10.312
24289W        W96604  24.898  24.802  12.472
24290W        W96605  16.318   6.473  10.717
24291W        W96606  44.965  28.421  12.003
24292W        W96607  11.704   0.678  13.591
24293W        W96608  32.893   6.180  13.334
24294W        W96609  28.943  40.203  12.889
24295W        W96610  32.592  43.771   1.154
24296W        W96611  12.144   0.212  11.909
24297W        W96612  40.964  29.226   1.367
24298W        W96613  36.022   1.812   2.743
24299W        W96614   4.007  11.217   4.538
24300W        W96615   9.148  29.202  13.511
24301W        W96616  14.438  36.709   3.286
24302W        W96617  23.190  33.921   1.492
24303W        W96618  38.578  39.391   3.669
24304W        W96619  21.470  44.843  14.070
24305W        W96620  11.120  35.073  11.684
24306W        W96621  14.179   1.659   4.218
24307W        W96622  29.654   5.138   3.274
24308W        W96623  18.315   2.182   0.287
24309W        W96624  32.378  43.822   4.490
24310W        W96625  30.947  17.647  13.971
24311W        W96626  11.715  38.537  10.678
24312W        W96627   6.425  36.445   2.300
24313W        W96628  12.800  30.584   4.602
24314W        W96629  31.088  41.921   0.365
24315W        W96630  42.406  31.170  10.971
24316W        W96631  32.844  17.052  14.910
24317W        W96632   8.403  31.926   1.449
24318W        W96633  30.985  22.186   4.700
24319W        W96634  37.761  26.282   3.171
24320W        W96635  12.323  40.847   4.593
24321W        W96636  10.302   9.359   1.198
24322W        W96637   4.178  11.526   4.158
24323W        W96638  16.638  20.126  10.786
24324W        W96639  12.951  13.306   0.384
24325W        W96640   9.345  28.827   0.736
24326W        W96641   6.288   3.308  10.341
24327W        W96642  24.209   0.938   0.733
24328W        W96643   9.341  44.196   4.470
24329W        W96644  44.540  12.664   5.077
24330W        W96645  20.848   2.360   3.568
24331W        W96646   5.273   9.343   2.628
24332W        W96647  33.285  15.489   5.064
24333W        W96648  39.802  35.370   3.342
24334W        W96649  29.201  42.837   0.664
24335W        W96650  35.369  25.484   2.317
24336W        W96651  35.280  19.809  14.263
24337W        W96652  28.656  21.099  12.864
24338W        W96653  33.113  33.068  12.990
24339W        W96654   2.799  15.098   3.728
24340W        W96655  12.153  42.365   2.692
24341W        W96656  14.907  26.570  11.491
24342W        W96657  10.984   6.544  10.974
24343W        W96658   4.504   3.741  10.701
24344W        W96659  40.308   6.945  14.414
24345W        W96660  39.123  32.496   3.255
24346W        W96661  43.788  25.126  13.385
24347W        W96662  36.354  12.924   2.877
24348W        W96663  32.391  42.793  14.845
24349W        W96664   1.561  43.954  12.401
24350W        W96665  13.569  18.541   3.634
24351W        W96666  44.397  17.079   2.719
24352W        W96667  25.150  33.353   2.565
24353W        W96668  33.907  14.085  14.170
24354W        W96669   6.468  23.462  12.345
24355W        W96670  24.697   0.727  11.461
24356W        W96671  30.351  20.189  13.761
24357W        W96672  13.135  23.632  14.440
24358W        W96673   4.636  14.758   2.822
24359W        W96674  19.164   1.201  13.814
24360W        W96675  34.030   7.638  14.494
24361W        W96676  38.039  32.061   2.698
24362W        W96677   2.334   6.862   3.206
24363W        W96678  31.169  39.335  14.795
24364W        W96679   0.437  26.720  11.099
24365W        W96680  41.417  31.784   0.521
24366W        W96681   0.770  44.656   2.762
24367W        W96682  21.013   9.817   3.097
24368W        W96683  14.337  37.800   4.807
24369W        W96684  44.546  26.961   2.102
24370W        W96685  18.574  41.840  10.641
24371W        W96686  24.075   6.124  13.915
24372W        W96687  21.254  44.918   4.411
24373W        W96688  23.230  22.460   1.824
24374W        W96689  18.125  37.389  14.955
24375W        W96690  16.323  25.523   2.325
24376W        W96691  22.113  44.100   0.775
24377W        W96692  39.784   0.790  13.065
24378W        W96693  18.783  22.517   5.184
24379W        W96694  10.832  42.505  13.402
24380W        W96695   4.299  27.922   2.931
24381W        W96696  35.582  42.854  12.962
24382W        W96697   6.979  11.769  13.087
24383W        W96698  21.949  20.101   3.796
24384W        W96699  20.713   3.340   4.201
24385W        W96700  16.730  18.598   4.337
24386W        W96701  14.627   0.421   2.887
24387W        W96702  22.177  37.145   1.821
24388W        W96703  26.073  37.273  14.378
24389W        W96704  41.784  20.486  14.014
24390W        W96705  27.933  24.717  12.467
24391W        W96706   4.475  20.231  10.686
24392W        W96707   2.250  34.425   2.648
24393W        W96708  19.976   3.941  12.898
24394W        W96709  21.138  17.474  12.252
24395W        W96710  27.204   0.411  13.927
24396W        W96711  13.582  30.001  11.865
24397W        W96712  21.319  39.066  10.993
24398W        W96713  27.010  44.868  11.456
24399W        W96714  42.322  23.720   1.857
24400W        W96715  22.227  36.049   1.651
24401W        W96716   6.149  30.890  11.961
24402W        W96717  11.137   3.631   0.495
24403W        W96718  25.347   8.986   9.932
24404W        W96719  19.606  40.815   2.868
24405W        W96720  39.306  27.792   3.809
24406W        W96721   2.719   8.045   4.065
24407W        W96722   7.354  35.605   2.431
24408W        W96723  21.794  20.998   0.440
24409W        W96724  34.335  37.639   2.421
24410W        W96725  16.268  38.138  12.850
24411W        W96726  15.361  30.047   1.712
24412W        W96727  41.039  41.242  13.898
24413W        W96728   1.372  15.466   0.697
24414W        W96729  31.668   9.330   1.722
24415W        W96730  39.273   6.238   3.588
24416W        W96731  22.869  22.653   4.548
24417W        W96732   0.815  38.788   2.138
24418W        W96733  20.422  29.374   4.861
24419W        W96734   2.733  18.695  11.837
24420W        W96735  36.382  41.352   2.226
24421W        W96736  29.943  14.696  12.535
24422W        W96737   2.452  38.649  11.157
24423W        W96738   5.381   8.447   3.676
24424W        W96739   3.814   6.188  14.014
24425W        W96740  43.298   3.201   4.593
24426W        W96741  31.066  39.923   9.913
24427W        W96742  16.038  17.615  12.105
24428W        W96743   6.488  16.228  14.532
24429W        W96744  24.702  31.537   2.864
24430W        W96745   7.350  17.406   2.981
24431W        W96746  24.303  22.149   2.677
24432W        W96747  43.903   1.726  11.660
24433W        W96748  20.411   4.433  13.477
24434W        W96749  23.982  39.774  13.482
24435W        W96750  39.825  31.710   2.002
24436W        W96751  19.790  23.143   2.909
24437W        W96752  41.361  41.717   2.541
24438W        W96753  33.854  17.390   0.455
24439W        W96754  30.147  32.768   2.143
24440W        W96755  38.084  31.306   0.869
24441W        W96756  31.380   5.887  11.140
24442W        W96757   3.123  38.740   4.444
24443W        W96758  40.788  32.139   1.273
24444W        W96759  12.252   4.649   3.603
24445W        W96760  11.797  13.125   2.754
24446W        W96761   5.397  34.663  13.459
24447W        W96762  23.496  41.290   2.525
24448W        W96763   7.213  32.801  13.993
24449W        W96764  42.335  27.134   3.634
24450W        W96765  16.266  22.706  14.978
24451W        W96766  13.385  23.715  10.721
24452W        W96767   3.492  40.395  14.324
24453W        W96768  43.931  34.380   1.879
24454W        W96769  11.712  41.938   1.691
24455W        W96770  35.329   5.356  13.863
24456W        W96771  14.042  41.971  12.392
24457W        W96772  27.484   2.372   3.603
24458W        W96773  24.435  24.072  12.930
24459W        W96774  20.981  25.418   2.255
24460W        W96775  42.979  37.892   2.221
24461W        W96776  33.884   4.408  11.964
24462W        W96777  28.733  19.730  14.480
24463W        W96778  12.861  36.088  13.242
24464W        W96779  44.381  38.315   0.318
24465W        W96780  14.213  12.261  12.047
24466W        W96781  16.798  11.401  11.092
24467W        W96782  17.937   9.857  11.527
24468W        W96783  15.913  15.260  13.697
24469W        W96784   3.541  23.657   3.256
24470W        W96785  23.023  34.534  13.834
24471W        W96786  10.352  16.497  11.520
24472W        W96787  15.059  18.052  14.328
24473W        W96788  13.653  38.460   0.231
24474W        W96789  34.435   1.911   4.635
24475W        W96790  27.646   0.498  13.604
24476W        W96791  26.486  19.260  10.571
24477W        W96792  44.567  11.835  11.609
24478W        W96793   8.103  37.040   4.181
24479W        W96794   9.137  12.573  10.334
24480W        W96795  13.908   2.509   4.123
24481W        W96796   7.866  40.370   5.032
24482W        W96797  36.104  19.184  12.478
24483W        W96798  23.492  31.018   2.356
24484W        W96799  29.194  15.132   3.409
24485W        W96800   1.325  17.918   4.465
24486W        W96801  19.830  19.095  13.263
24487W        W96802  22.991  35.610  11.949
24488W        W96803   0.760  20.388   1.637
24489W        W96804  24.729   9.210   3.661
24490W        W96805   8.466   4.641  11.805
24491W        W96806   6.198  18.544   1.437
24492W        W96807  25.665  16.334   3.339
24493W        W96808  20.708  14.058   0.026
24494W        W96809   9.519   3.183   4.176
24495W        W96810  30.148  12.729   0.480
24496W        W96811  37.869  35.333  11.103
24497W        W96812  16.062  39.601   1.399
24498W        W96813   9.374  12.583  12.547
24499W        W96814  13.320  41.519  12.601
24500W        W96815  16.107  21.035  11.976
24501W        W96816  21.708  36.250  12.178
24502W        W96817  32.425   3.643   3.737
24503W        W96818  19.340  28.475  14.863
24504W        W96819  37.027   0.790  10.541
24505W        W96820  36.448  39.775  12.105
24506W        W96821  37.575  41.351   4.451
24507W        W96822   3.072  15.790  14.967
24508W        W96823  35.035   4.820   3.895
24509W        W96824  36.098  40.419   4.613
24510W        W96825  38.990  14.025   0.973
24511W        W96826   8.622  22.047  12.357
24512W        W96827  17.206   2.934   3.762
24513W        W96828  11.178  31.892   2.872
24514W        W96829  38.311  40.874  11.134
24515W        W96830  17.627  17.343  10.676
24516W        W96831  34.919   5.657   3.286
24517W        W96832   9.617  36.841   2.664
24518W        W96833  24.436   9.204  12.089
24519W        W96834  30.625   9.907  11.135
24520W        W96835   3.356  22.453  13.327
24521W        W96836   4.454  39.378   1.016
24522W        W96837  13.181  17.238  11.536
24523W        W96838  31.356  28.832  14.364
24524W        W96839  41.271  15.064  12.050
24525W        W96840  34.470  16.169   4.313
24526W        W96841   7.403  43.811  14.515
24527W        W96842   6.162  21.974   3.872
24528W        W96843  32.552   1.220   1.005
24529W        W96844  39.844  22.704  13.759
24530W        W96845  18.666  13.055  14.303
24531W        W96846   5.603   0.025   1.719
24532W        W96847  44.582  32.428  12.071
24533W        W96848  10.244  38.349  10.644
24534W        W96849  44.688  23.750   0.861
24535W        W96850  17.678  24.487   3.376
24536W        W96851  17.274   9.607  13.121
24537W        W96852  43.921  20.908  12.620
24538W        W96853  22.044   6.812   0.672
24539W        W96854  13.097  29.132  10.466
24540W        W96855  41.516  40.617  13.425
24541W        W96856  10.341  13.844   4.111
24542W        W96857  26.105  36.211   4.535
24543W        W96858  27.800   0.512   1.696
24544W        W96859  29.955   8.165   0.889
24545W        W96860   4.825  33.073  13.700
24546W        W96861   1.380  38.821   4.354
24547W        W96862   2.774  25.994   0.387
24548W        W96863  36.044  29.954  13.804
24549W        W96864   6.947  42.776  12.945
24550W        W96865  18.454  44.003   5.069
24551W        W96866  12.312   4.763  14.389
24552W        W96867   4.938  34.847   3.254
24553W        W96868  23.262  17.889  13.992
24554W        W96869  36.292  16.746   3.285
24555W        W96870   7.298   4.884  14.948
24556W        W96871  20.183  43.449   0.266
24557W        W96872  21.489  30.651  11.901
24558W        W96873   9.466  32.969   4.150
24559W        W96874  19.102   4.810  10.690
24560W        W96875  30.559  12.658   1.681
24561W        W96876  20.168   3.874  11.490
24562W        W96877  20.677   2.537   3.116
24563W        W96878  13.147  13.795  14.997
24564W        W96879   8.977  43.680  12.428
24565W        W96880  11.092  12.675   0.615
24566W        W96881  44.560  34.069  10.613
24567W        W96882  29.595  30.365   2.874
24568W        W96883  22.674   7.898   2.299
24569W        W96884  23.576   5.912  14.869
24570W        W96885  15.494  36.900   1.311
24571W        W96886  23.096  21.492  11.157
24572W        W96887  16.103  26.519  12.415
24573W        W96888  23.117   4.712   1.847
24574W        W96889   5.914  26.023   2.865
24575W        W96890  17.368  20.703  12.427
24576W        W96891  26.420  27.057   2.108
24577W        W96892  10.253   7.946   3.451
24578W        W96893  41.488  30.699  14.491
24579W        W96894  23.786  38.358   4.673
24580W        W96895  19.701  29.559  13.439
24581W        W96896  25.124  10.408   4.144
24582W        W96897   3.004  15.016  13.000
24583W        W96898   1.861  13.216   0.974
24584W        W96899  41.914  34.804  12.252
24585W        W96900  27.321  13.903  10.068
24586W        W96901   8.906  12.748  14.776
24587W        W96902   3.236  18.310  10.999
24588W        W96903  31.565  29.087   0.952
24589W        W96904  22.687  25.589   3.897
24590W        W96905   8.256  12.740   4.781
24591W        W96906  41.650   8.984  12.049
24592W        W96907  37.766  24.733  11.329
24593W        W96908   5.695  12.531  11.288
24594W        W96909  12.824  25.452  14.009
24595W        W96910   0.859  41.985  13.766
24596W        W96911  19.517  25.234  13.486
24597W        W96912  44.620  35.967  13.969
24598W        W96913  16.997  34.898   0.887
24599W        W96914  28.691  10.882  14.909
24600W        W96915  19.549  17.603  10.858
24601W        W96916   7.742   9.263   3.253
24602W        W96917  11.672  38.386   0.406
24603W        W96918   2.860  29.421   0.912
24604W        W96919  41.784  20.171   2.288
24605W        W96920  10.374  41.840  14.078
24606W        W96921  24.533   1.538  11.997
24607W        W96922  34.351   7.426  12.551
24608W        W96923   3.972  30.971   0.031
24609W        W96924  43.327  12.305   2.384
24610W        W96925  43.582  41.538   0.405
24611W        W96926  28.527  17.889  11.515
24612W        W96927   6.132  39.960  11.715
24613W        W96928  13.659  11.138  12.407
24614W        W96929  31.485  42.796  14.356
24615W        W96930  27.285   1.326  13.957
24616W        W96931  19.080  16.654   1.815
24617W        W96932   1.016  11.403  14.993
24618W        W96933  16.659  29.726   5.104
24619W        W96934  37.792  32.307   0.985
24620W        W96935  29.466  33.552  10.216
24621W        W96936  42.423  19.936  13.332
24622W        W96937  18.066  28.495  13.846
24623W        W96938   4.660  11.672   3.408
24624W        W96939  39.992  38.359  12.458
24625W        W96940  38.375  15.911  12.047
24626W        W96941   2.226   8.634   4.560
24627W        W96942  35.428  21.803   1.803
24628W        W96943  26.626  40.891  14.083
24629W        W96944   6.283   4.382  12.417
24630W        W96945   9.796  12.810   2.743
24631W        W96946  24.559  14.871  13.964
24632W        W96947  35.412  15.716  12.487
24633W        W96948  17.397  12.772  14.537
24634W        W96949  21.615  25.668   2.903
24635W        W96950  14.708  12.358  11.504
24636W        W96951  36.033   3.847   0.259
24637W        W96952  42.330   3.335  14.054
24638W        W96953   2.125  21.815  12.974
24639W        W96954   5.507  27.279  11.074
24640W        W96955  34.393  39.594   3.289
24641W        W96956  24.548  24.224  14.928
24642W        W96957  11.334  11.206  14.917
24643W        W96958  12.824   1.292  13.792
24644W        W96959  10.898  31.194  13.496
24645W        W96960   7.869  25.498   2.229
24646W        W96961  23.141  24.514   3.650
24647W        W96962  32.604   2.720  10.580
24648W        W96963  27.448   4.262   0.843
24649W        W96964  17.401  32.099  10.807
24650W        W96965  34.184  43.510   0.351
24651W        W96966  31.754  32.201   4.273
24652W        W96967   5.855   2.232   1.384
24653W        W96968  34.534  41.681   4.195
24654W        W96969  21.635  20.296  10.570
24655W        W96970   8.784  33.136   2.821
24656W        W96971  22.588  15.428  10.468
24657W        W96972  32.639  18.134   0.934
24658W        W96973  27.542  11.653   5.317
24659W        W96974  39.890   7.909  12.863
24660W        W96975  21.786   5.613  11.006
24661W        W96976   6.826   3.798   0.291
24662W        W96977   3.861   5.049  11.604
24663W        W96978  11.079  13.211   4.114
24664W        W96979   7.760  41.277  11.241
24665W        W96980  37.907   5.462  14.189
24666W        W96981  15.031   1.190  12.754
24667W        W96982  16.071   0.344  13.671
24668W        W96983  31.972  13.576  12.113
24669W        W96984  17.558  43.796   4.347
24670W        W96985  21.215  43.943  14.983
24671W        W96986  27.856  13.505  14.466
24672W        W96987  10.703  20.497   1.862
24673W        W96988   7.800  28.098  12.592
24674W        W96989  40.308  30.888  11.279
24675W        W96990  30.363  34.524   0.468
24676W        W96991  14.557   4.284  14.445
24677W        W96992  17.164  14.651   3.739
24678W        W96993  35.183  37.211   0.760
24679W        W96994  23.210   0.425   2.810
24680W        W96995  41.305  22.014  11.935
24681W        W96996  29.589  18.092   1.822
24682W        W96997  38.314   8.750  11.437
24683W        W96998  31.202  14.018   3.299
24684W        W96999  12.822  39.495  14.936
24685W        W97000  15.373  13.613  12.404
24686W        W97001  36.037   4.271   3.827
24687W        W97002  21.128  38.010  11.181
24688W        W97003   3.259   1.685   3.372
24689W        W97004  29.634   5.995  12.107
24690W        W97005  38.911  22.164   4.373
24691W        W97006   0.887  24.063  12.834
24692W        W97007   2.177  20.308  12.912
24693W        W97008   2.312  27.457   1.733
24694W        W97009   0.374  19.647   4.731
24695W        W97010  35.631  19.004  11.158
24696W        W97011  35.299  43.886   2.704
24697W        W97012  30.695   7.428   3.653
24698W        W97013   6.311   6.539  11.648
24699W        W97014  15.615  34.877  14.943
24700W        W97015   2.507  10.748   5.065
24701W        W97016  28.628  25.884   4.130
24702W        W97017  29.393  43.962  11.605
24703W        W97018  36.532   3.042  12.008
24704W        W97019  42.806  41.451   2.919
24705W        W97020  35.053  37.471  13.944
24706W        W97021   8.439   6.824  11.985
24707W        W97022  34.066  32.235  12.561
24708W        W97023  30.611   5.224   3.290
24709W        W97024  26.773  21.159   1.230
24710W        W97025  43.578  18.728  11.030
24711W        W97026   2.697   7.831  13.615
24712W        W97027  31.311   9.758   2.019
24713W        W97028   5.887  15.662   2.172
24714W        W97029   4.049  22.171  11.925
24715W        W97030  32.445   3.769   0.353
24716W        W97031  16.680  37.365   0.705
24717W        W97032  35.041   7.453  14.400
24718W        W97033  16.251  24.201   0.669
24719W        W97034  40.239  14.020  12.402
24720W        W97035   5.581   1.461  11.593
24721W        W97036  22.238  31.671  12.911
24722W        W97037   9.928  35.812   4.237
24723W        W97038  28.236   9.718  13.875
24724W        W97039  44.539  18.133   3.586
24725W        W97040  21.183  24.149  12.109
24726W        W97041   5.740  14.176   0.030
24727W        W97042   0.945   9.428  14.576
24728W        W97043  29.612  14.696  13.806
24729W        W97044  31.078  12.304  10.796
24730W        W97045  29.710  44.396  11.714
24731W        W97046  38.046  42.511  12.390
24732W        W97047   8.889  38.787  10.750
24733W        W97048  16.056  29.416  13.831
24734W        W97049  41.375  33.157   4.526
24735W        W97050   3.283  16.562   4.542
24736W        W97051  16.772  12.647   4.429
24737W        W97052  42.026  17.231  13.388
24738W        W97053  18.200   8.154   9.766
24739W        W97054  36.445  16.832  10.799
24740W        W97055  16.113  15.540   2.259
24741W        W97056  32.001  27.625   3.634
24742W        W97057  16.812  31.596   4.287
24743W        W97058  18.244  21.139  12.175
24744W        W97059  18.055  39.527  11.997
24745W        W97060   0.968  39.138  14.462
24746W        W97061  12.460   8.406   4.267
24747W        W97062  36.769  32.893  12.308
24748W        W97063  29.552   5.792  10.148
24749W        W97064  18.796  36.051   4.614
24750W        W97065  31.673   2.490   3.896
24751W        W97066  35.073  31.846   0.914
24752W        W97067  12.954  20.557  14.875
24753W        W97068  25.549  37.846  12.564
24754W        W97069  31.836  17.160   2.887
24755W        W97070  21.142  21.705  13.885
24756W        W97071  37.592  13.695   2.839
24757W        W97072  19.245  31.610   3.767
24758W        W97073  10.782   8.750  12.430
24759W        W97074  34.562  24.415   1.406
24760W        W97075  11.886  10.664  13.622
24761W        W97076  42.856  23.164   3.426
24762W        W97077   0.755   9.428   0.502
24763W        W97078  17.832  19.654   3.197
24764W        W97079  13.553  37.432   4.526
24765W        W97080   7.292  22.906  13.356
24766W        W97081  28.675  14.004  13.879
24767W        W97082  42.352   0.846  14.580
24768W        W97083  44.502  40.470   2.218
24769W        W97084  11.359  16.334  10.960
24770W        W97085  18.736  30.468   5.252
24771W        W97086  43.506  43.894   0.197
24772W        W97087  14.266  28.349   4.236
24773W        W97088  12.148  38.337   1.122
24774W        W97089  35.496  13.379  12.066
24775W        W97090  17.714   2.905  12.036
24776W        W97091  16.172  11.190  14.997
24777W        W97092  18.224  41.338   0.283
24778W        W97093   1.743   1.206   4.261
24779W        W97094  18.640  18.024   2.817
24780W        W97095  20.958  28.558  11.990
24781W        W97096  33.369  34.435   4.601
24782W        W97097  31.595  17.949   4.371
24783W        W97098  44.260   7.935   2.396
24784W        W97099  18.742  23.770   4.230
24785W        W97100   2.276  35.421  11.377
24786W        W97101  18.183  35.113   1.903
24787W        W97102  11.102   8.827   0.789
24788W        W97103  10.341  12.716   2.741
24789W        W97104  41.440  11.129   2.181
24790W        W97105  10.697   3.257  12.096
24791W        W97106   1.363  21.559   0.855
24792W        W97107  18.880  20.736  14.820
24793W        W97108  11.209   0.344   5.017
24794W        W97109  21.084  24.235   1.798
24795W        W97110  13.623   9.873   3.206
24796W        W97111  27.015   2.345   3.885
24797W        W97112  17.209   1.677  14.970
24798W        W97113  26.946   1.357   4.699
24799W        W97114  17.662  35.832  10.595
24800W        W97115  37.366  15.123   1.368
24801W        W97116  39.018   3.852   0.862
24802W        W97117  39.609   4.448   4.549
24803W        W97118  37.950   1.644  13.558
24804W        W97119  34.950  36.619   3.066
24805W        W97120  13.391  35.934  10.730
24806W        W97121   2.703  39.020   4.531
24807W        W97122  30.272  12.291  11.785
24808W        W97123  33.887  41.806  11.719
24809W        W97124   3.447  24.042   2.899
24810W        W97125  29.640  40.984  11.431
24811W        W97126  34.374  20.263   4.607
24812W        W97127  27.543  32.955  11.151
24813W        W97128  41.497   1.803   3.141
24814W        W97129  28.044  27.032   2.720
24815W        W97130   2.714  23.983   3.495
24816W        W97131  14.899  23.315  14.033
24817W        W97132   9.851   2.187  14.961
24818W        W97133  14.648  34.996  13.928
24819W        W97134   6.517  21.161  10.700
24820W        W97135  16.357  26.868  13.104
24821W        W97136  17.963  22.075  12.479
24822W        W97137  27.603  35.388  12.593
24823W        W97138  30.084  30.944   1.672
24824W        W97139  31.997  28.415   1.314
24825W        W97140  22.414  38.051   4.821
24826W        W97141  42.795  22.756   3.115
24827W        W97142  11.771   7.794  12.002
24828W        W97143  11.701   7.651   0.884
24829W        W97144  39.835  37.829  12.821
24830W        W97145  11.790  13.092  10.516
24831W        W97146  42.684  12.650  13.879
24832W        W97147  35.815  30.505   0.494
24833W        W97148  37.885   7.810  13.240
24834W        W97149   0.913  43.582  12.054
24835W        W97150  21.094   9.970   5.063
24836W        W97151  11.177   2.495  14.886
24837W        W97152  12.885  33.067   4.250
24838W        W97153  26.005  43.861   2.317
24839W        W97154  36.086   0.768   0.836
24840W        W97155  21.768  33.714   0.970
24841W        W97156   2.904   8.144   4.554
24842W        W97157   7.409   1.408  13.467
24843W        W97158  25.188   3.782   2.370
24844W        W97159  15.625  35.413   0.706
24845W        W97160  39.643   0.234  13.771
24846W        W97161  41.278   3.751  12.094
24847W        W97162  13.214  40.392  11.163
24848W        W97163   3.384   6.224  13.539
24849W        W97164  28.947  15.534   0.474
24850W        W97165  42.714   9.737   0.428
24851W        W97166  27.471  33.638   2.598
24852W        W97167  36.527   1.726  11.631
24853W        W97168  10.261  41.005  14.699
24854W        W97169  28.562   5.931   1.405
24855W        W97170  22.508  35.199   4.305
24856W        W97171  25.314  41.701   4.671
24857W        W97172   4.278  27.472  14.528
24858W        W97173  43.990  10.824  13.359
24859W        W97174  16.645  37.029  13.351
24860W        W97175  26.136  42.660  12.020
24861W        W97176  40.030  25.212  13.904
24862W        W97177  37.905  35.468   2.659
24863W        W97178  32.523   9.928  14.859
24864W        W97179  24.394  39.282  14.875
24865W        W97180   8.175  15.631   3.705
24866W        W97181  33.417  40.613  14.102
24867W        W97182  14.104  41.334   1.959
24868W        W97183  22.911  42.610  12.602
24869W        W97184  32.305  16.834  14.067
24870W        W97185  24.464  32.603  12.611
24871W        W97186  39.322  20.534   2.780
24872W        W97187  33.764  22.803  13.798
24873W        W97188  20.864  23.995   0.738
24874W        W97189  21.677  21.753   5.075
24875W        W97190  39.049   3.224   4.848
24876W        W97191  20.525  16.860  11.571
24877W        W97192  27.963   1.786  13.510
24878W        W97193  10.260  28.176   0.934
24879W        W97194  31.107  32.006  11.032
24880W        W97195  23.528  23.347   0.432
24881W        W97196  25.288  38.842  13.012
24882W        W97197   9.395  27.172   3.311
24883W        W97198  38.432  28.180   4.867
24884W        W97199  25.434  25.413   0.700
24885W        W97200  34.022   5.091   3.185
24886W        W97201  10.659  20.025   4.262
24887W        W97202   4.860  20.266  12.913
24888W        W97203   4.160  10.839  11.328
24889W        W97204   8.618  35.332  14.515
24890W        W97205  37.000  32.586  11.284
24891W        W97206   2.816  43.490   1.143
24892W        W97207  32.565  11.653  10.827
24893W        W97208  16.195  25.065   1.133
24894W        W97209   9.352   5.853   1.434
24895W        W97210  26.045  14.549  12.998
24896W        W97211  19.742  14.985  11.952
24897W        W97212  21.657   4.879   0.044
24898W        W97213   5.776  12.448   4.075
24899W        W97214  30.693  43.815   2.797
24900W        W97215  16.023  28.594  12.037
24901W        W97216  20.283  42.317   2.308
24902W        W97217  41.439  20.751   1.779
24903W        W97218  37.912  22.701   2.751
24904W        W97219   9.414  18.893   1.896
24905W        W97220  22.629   8.897   1.939
24906W        W97221  28.545   7.148   3.129
24907W        W97222   5.526  20.109   4.673
24908W        W97223  41.279   3.703   3.276
24909W        W97224  19.611  30.560   0.361
24910W        W97225   8.824  34.210  12.453
24911W        W97226  33.881  12.441   3.235
24912W        W97227  43.962   9.517   0.950
24913W        W97228  36.341  22.541  12.463
24914W        W97229  38.110  37.983  13.507
24915W        W97230  16.565  14.101   3.174
24916W        W97231   5.854  22.345  13.971
24917W        W97232  22.334  14.842  14.753
24918W        W97233  43.563  22.246   3.173
24919W        W97234   0.508  43.305  14.434
24920W        W97235  17.340   6.814   2.833
24921W        W97236  35.045   9.444   0.792
24922W        W97237  14.861  16.801   1.237
24923W        W97238  15.596  30.203   5.248
24924W        W97239  32.896  42.927   0.866
24925W        W97240  40.972  28.553   4.697
24926W        W97241   6.868  19.597  10.710
24927W        W97242   5.178  22.470  11.571
24928W        W97243  30.412   3.727   5.123
24929W        W97244  24.932  13.245  13.525
24930W        W97245   8.353  33.465  13.026
24931W        W97246   1.879  17.173   1.361
24932W        W97247  18.002  25.954   1.348
24933W        W97248  39.951  18.578   3.800
24934W        W97249   5.744  29.654  13.841
24935W        W97250   2.443   5.810  14.766
24936W        W97251  21.752  42.384   3.924
24937W        W97252  27.546  29.977   2.044
24938W        W97253  42.974  32.464  12.796
24939W        W97254   9.359  17.595  14.041
24940W        W97255  27.722  18.200  11.587
24941W        W97256   4.958   1.474   3.854
24942W        W97257   9.822  13.881   4.707
24943W        W97258  34.370  13.573   1.817
24944W        W97259  19.088   1.167  14.320
24945W        W97260   1.507  11.353  12.125
24946W        W97261  39.130  44.524  14.320
24947W        W97262  37.453  43.400   4.753
24948W        W97263   2.868   3.896  11.484
24949W        W97264  38.847  20.990  12.108
24950W        W97265  22.783  25.168   2.235
24951W        W97266   0.978  32.579  11.471
24952W        W97267   5.823  24.217   1.264
24953W        W97268  25.469   2.411   2.794
24954W        W97269   0.097   8.930  10.164
24955W        W97270  13.652  23.056  13.821
24956W        W97271  24.172  18.554   3.845
24957W        W97272  18.127  43.248  13.702
24958W        W97273  16.063  34.978  14.683
24959W        W97274  29.645  30.737  12.155
24960W        W97275  40.313   6.445  13.602
24961W        W97276  43.421  10.943  10.324
24962W        W97277  23.585  35.501   2.191
24963W        W97278   4.836  22.812   1.343
24964W        W97279  29.138   3.029  13.738
24965W        W97280  34.246  34.956   4.187
24966W        W97281  31.595  15.596  13.365
24967W        W97282  29.119   9.247  13.917
24968W        W97283  37.615   9.122  11.911
24969W        W97284  22.731  10.919   1.449
24970W        W97285   3.809  34.436   3.565
24971W        W97286  34.548  14.823  12.846
24972W        W97287  42.917  16.828   1.123
24973W        W97288   0.494  22.505  14.992
24974W        W97289  34.548  32.364  12.406
24975W        W97290   9.372  33.600  14.809
24976W        W97291  25.271  16.011   3.275
24977W        W97292  13.397  12.107   3.693
24978W        W97293   7.660  42.427   4.594
24979W        W97294  22.134   7.037  14.297
24980W        W97295  41.459  30.945   4.045
24981W        W97296  12.645  23.573  14.610
24982W        W97297  35.412  35.684  13.813
24983W        W97298  10.286   4.471  14.115
24984W        W97299  37.938   3.296  10.358
24985W        W97300  44.032  22.536  11.315
24986W        W97301  39.435  13.416  14.557
24987W        W97302  35.829   1.495   0.366
24988W        W97303  21.091  21.782  13.013
24989W        W97304  24.208   9.285  12.533
24990W        W97305  36.440   1.968  12.917
24991W        W97306   3.573  11.850   2.426
24992W        W97307  44.903  32.636  11.587
24993W        W97308  43.774  10.155  12.809
24994W        W97309   0.985  40.415  11.197
24995W        W97310  24.983   1.944  11.111
24996W        W97311  21.030   6.602  11.616
24997W        W97312  13.776   8.359  14.452
24998W        W97313   4.789   6.145   1.417
24999W        W97314  18.844   4.221  12.424
25000W        W97315   2.537  18.783   2.692
25001W        W97316  36.433  28.518   0.029
25002W        W97317  37.840  43.440  12.874
25003W        W97318  37.789  33.536  12.207
25004W        W97319   2.032  20.486  10.700
25005W        W97320   5.571   6.831  11.112
25006W        W97321  38.496  25.266   2.099
25007W        W97322  33.930  31.636   1.311
25008W        W97323  24.226  40.607   2.650
25009W        W97324  44.931  25.980   0.551
25010W        W97325  31.749  36.641  13.978
25011W        W97326  12.202  43.398  13.322
25012W        W97327  20.446  19.805   4.680
25013W        W97328  23.671  28.701   3.902
25014W        W97329  31.462  22.814   4.060
25015W        W97330  42.994  29.427  12.032
25016W        W97331   4.414  32.994  14.015
25017W        W97332  29.262  24.435  12.633
25018W        W97333   8.417   4.141   1.358
25019W        W97334  28.248  38.968   0.463
25020W        W97335  12.919  31.122   0.978
25021W        W97336  16.591   9.400  10.752
25022W        W97337  12.909   6.315  14.457
25023W        W97338  23.148   6.384   2.375
25024W        W97339  30.878  15.764  12.895
25025W        W97340  42.596  22.975   2.198
25026W        W97341  30.135  28.390  10.497
25027W        W97342  44.696  15.023  11.136
25028W        W97343  40.532  19.590  14.101
25029W        W97344  32.039   9.394   3.259
25030W        W97345  18.462   1.419   0.960
25031W        W97346  23.128  20.693   1.263
25032W        W97347  38.430   8.144  13.508
25033W        W97348  16.614  30.549  10.183
25034W        W97349  26.615  17.889  10.635
25035W        W97350  23.431  14.232  11.414
25036W        W97351  14.166   7.760   0.962
25037W        W97352   7.126   0.257   0.820
25038W        W97353  32.165  20.568   0.088
25039W        W97354  10.687  30.853   3.308
25040W        W97355  42.748  22.275   0.212
25041W        W97356  25.412   7.355   2.693
25042W        W97357  31.742   6.887  13.557
25043W        W97358  22.732   4.488   4.449
25044W        W97359   8.944  11.195   0.802
25045W        W97360  39.031  22.707   1.188
25046W        W97361  40.038  21.648  13.353
25047W        W97362  21.562  37.803  12.746
25048W        W97363  44.001  40.835  12.105
25049W        W97364  34.349   2.879   4.944
25050W        W97365  32.290   0.225   0.749
25051W        W97366  12.775  37.814   2.907
25052W        W97367  12.270   1.066  11.440
25053W        W97368  14.326  11.883   1.941
25054W        W97369  33.457  23.183   3.796
25055W        W97370  22.706  21.504  11.843
25056W        W97371  41.299  40.354  14.004
25057W        W97372  35.647  41.103   0.533
25058W        W97373   3.914   8.706  14.539
25059W        W97374   5.846  26.446   0.766
25060W        W97375  15.002  20.771   3.239
25061W        W97376  34.388  26.192  14.579
25062W        W97377   9.716   4.248  14.866
25063W        W97378  39.888  41.350   3.123
25064W        W97379  22.257  19.104   1.962
25065W        W97380  25.169   1.704  11.583
25066W        W97381  38.514  41.432  14.789
25067W        W97382  11.613  10.066   2.368
25068W        W97383  16.945  10.967  10.089
25069W        W97384   0.534  36.817  14.019
25070W        W97385  34.096   6.649   4.957
25071W        W97386  40.346   4.891  13.291
25072W        W97387   6.847  43.787   3.144
25073W        W97388  32.709  16.736   1.850
25074W        W97389  39.833  31.458  10.704
25075W        W97390  16.265  37.522  12.058
25076W        W97391  38.584  12.795  12.018
25077W        W97392  13.452   9.263   0.926
25078W        W97393   2.753   8.148   1.459
25079W        W97394  25.607  21.469  13.178
25080W        W97395   2.018   5.778  12.926
25081W        W97396   0.997   1.397   0.923
25082W        W97397  31.508  26.607  11.523
25083W        W97398  34.380  12.850  13.821
25084W        W97399  36.596  13.812   3.777
25085W        W97400  28.734  39.535  14.260
25086W        W97401   3.593   9.751  12.974
25087W        W97402  22.785  15.724  14.835
25088W        W97403  31.584   3.175   2.202
25089W        W97404  43.953  28.712  13.083
25090W        W97405  35.042  24.427   2.329
25091W        W97406  15.564  39.901  13.337
25092W        W97407  19.622  30.436   2.304
25093W        W97408   5.649  26.426  12.171
25094W        W97409  18.131  20.120   0.713
25095W        W97410  40.457  33.855  12.367
25096W        W97411   9.059  22.137  12.636
25097W        W97412  33.992  25.549  13.011
25098W        W97413  26.941   3.283  14.047
25099W        W97414  25.219  17.377  12.755
25100W        W97415  41.567  31.301   0.480
25101W        W97416  38.857   3.868  14.416
25102W        W97417   3.965   1.655   4.609
25103W        W97418  24.189  37.838   1.502
25104W        W97419  24.890   3.682   0.335
25105W        W97420   9.376  43.272   1.789
25106W        W97421   0.737  13.447   4.233
25107W        W97422  16.121  40.978   0.487
25108W        W97423   7.101  18.608  13.923
25109W        W97424   6.139  31.876  11.851
25110W        W97425   7.452  23.243  10.720
25111W        W97426  38.041  28.654  12.138
25112W        W97427  30.323  14.602  14.971
25113W        W97428  26.221  44.673   1.885
25114W        W97429   7.882  22.949   4.057
25115W        W97430  32.091   9.659  14.840
25116W        W97431   5.312  25.230   0.524
25117W        W97432  24.744   7.638  11.128
25118W        W97433   3.207   2.067   1.672
25119W        W97434  13.703  15.542  14.398
25120W        W97435  11.085  21.153  14.463
25121W        W97436  11.858  30.539   4.327
25122W        W97437  36.513   0.513  11.931
25123W        W97438  28.075   6.884  13.520
25124W        W97439  11.733  17.972  14.188
25125W        W97440   7.654  31.818   0.203
25126W        W97441  17.311  16.234   2.227
25127W        W97442  18.039  30.729  10.197
25128W        W97443  18.478  30.454  11.024
25129W        W97444  37.128   7.435   2.750
25130W        W97445  26.131  31.696  11.983
25131W        W97446  17.257   9.509  11.171
25132W        W97447  18.791   6.422   1.946
25133W        W97448   6.212   8.809   0.871
25134W        W97449   3.244   9.334   3.098
25135W        W97450  11.706  15.225  13.641
25136W        W97451   8.965   6.930  14.693
25137W        W97452  13.755  34.830  14.995
25138W        W97453  15.892   4.791   2.297
25139W        W97454   9.302  14.811  13.421
25140W        W97455  15.089  25.651  12.830
25141W        W97456   4.386   1.267   0.779
25142W        W97457  18.834  11.144   1.315
25143W        W97458  10.106   3.059   4.895
25144W        W97459  25.510  25.953   3.173
25145W        W97460  28.427   4.406  11.101
25146W        W97461  42.404  29.624   4.609
25147W        W97462  35.908  11.637  12.957
25148W        W97463  35.562  16.546   2.809
25149W        W97464   0.090  34.383  12.726
25150W        W97465  37.848  37.626   0.163
25151W        W97466  18.462   6.126   2.799
25152W        W97467   2.346  10.720   3.791
25153W        W97468   0.319  41.030  14.583
25154W        W97469  33.422  14.135  14.326
25155W        W97470  11.387  12.867   3.889
25156W        W97471  42.885  12.717  14.382
25157W        W97472  25.532  43.292   0.830
25158W        W97473  38.810  36.579   0.886
25159W        W97474   6.204  16.526   2.321
25160W        W97475  14.247  25.037  14.501
25161W        W97476  24.517  15.377   2.700
25162W        W97477  36.403  34.182   3.677
25163W        W97478  41.317   4.768  11.948
25164W        W97479  43.271  29.372  14.381
25165W        W97480   5.893  41.451   2.230
25166W        W97481  17.550  27.102   3.087
25167W        W97482   3.486   7.735  12.991
25168W        W97483  21.140  31.970   3.114
25169W        W97484  16.612   4.703  10.957
25170W        W97485  10.177  25.030   2.663
25171W        W97486  11.418  36.937  11.499
25172W        W97487  30.452  33.662   0.933
25173W        W97488  30.046  10.818  14.972
25174W        W97489  25.528  30.147   2.862
25175W        W97490  26.623  34.476   3.703
25176W        W97491   0.214   7.695  14.032
25177W        W97492  27.644  20.502  11.514
25178W        W97493  29.939  39.480   0.871
25179W        W97494  28.003  26.145  11.004
25180W        W97495  21.139  39.542   1.927
25181W        W97496   3.467  27.296  14.087
25182W        W97497   9.958  15.680  12.758
25183W        W97498  36.140  36.583   2.655
25184W        W97499  34.985  33.932  11.817
25185W        W97500  34.550  24.620   2.651
25186W        W97501  19.284  29.004  12.403
25187W        W97502  43.457  32.737   1.869
25188W        W97503  44.331  18.992  12.295
25189W        W97504  17.681  17.068  12.453
25190W        W97505  33.646   3.257   1.917
25191W        W97506  34.098  25.115   0.378
25192W        W97507  31.023  13.596   0.329
25193W        W97508  40.492  15.538   0.401
25194W        W97509   9.282  21.296  14.174
25195W        W97510  27.581  42.331  14.846
25196W        W97511   6.208  40.902  14.708
25197W        W97512  28.432   8.713  14.309
25198W        W97513  12.693  21.416  10.759
25199W        W97514   9.146  39.374  12.003
25200W        W97515   2.071  25.652   2.841
25201W        W97516   3.817  40.399   0.261
25202W        W97517  42.243  30.699  11.178
25203W        W97518  16.708  10.553  10.583
25204W        W97519   1.219  35.665   0.932
25205W        W97520   6.023  21.181  10.498
25206W        W97521  32.371  28.143   2.287
25207W        W97522  23.718  10.572   3.709
25208W        W97523  27.267  12.320  13.121
25209W        W97524  32.390  16.303  11.172
25210W        W97525  34.824  23.582  11.629
25211W        W97526  27.360  20.490   1.303
25212W        W97527  25.033  23.021  14.844
25213W        W97528  13.259  32.419   1.270
25214W        W97529  27.592  39.100   0.938
25215W        W97530  12.150   9.877   3.225
25216W        W97531  37.811  34.967   0.399
25217W        W97532   3.715  25.363   5.450
25218W        W97533  36.684  21.225   0.609
25219W        W97534   7.883   9.969  14.537
25220W        W97535  26.462   3.358  10.751
25221W        W97536  14.913  28.780   3.761
25222W        W97537   3.751  24.494   0.437
25223W        W97538  13.771  29.544   0.462
25224W        W97539  29.354  43.061  11.609
25225W        W97540  33.536  29.162   4.749
25226W        W97541  16.659  16.326   4.630
25227W        W97542  15.401  43.624   2.832
25228W        W97543  12.802  35.646  12.953
25229W        W97544  44.031   2.736  11.927
25230W        W97545  18.632  15.509   3.400
25231W        W97546  16.089  34.930   2.282
25232W        W97547  29.733   2.263   4.026
25233W        W97548  14.927  16.022  13.019
25234W        W97549   6.247  32.961  10.919
25235W        W97550  26.788  30.113   3.222
25236W        W97551   7.863  38.219  14.015
25237W        W97552  19.023  24.132  13.270
25238W        W97553   0.793  41.524  12.690
25239W        W97554  14.071  44.138  12.775
25240W        W97555  34.134  37.094   1.306
25241W        W97556   4.819  12.359   2.737
25242W        W97557  23.590  33.402  14.386
25243W        W97558  41.288  39.752  11.632
25244W        W97559  17.342  38.217   1.708
25245W        W97560  13.235  17.600  14.058
25246W        W97561  39.028   2.921   2.495
25247W        W97562  31.082  32.872   2.123
25248W        W97563  36.045  22.044   4.386
25249W        W97564  16.064  33.450   3.278
25250W        W97565  11.171   4.999   1.700
25251W        W97566   2.143  36.446  14.329
25252W        W97567   3.111  18.276  12.253
25253W        W97568   6.355  10.057  13.386
25254W        W97569  24.002  33.992   3.287
25255W        W97570  40.332   6.377  11.581
25256W        W97571  25.469  11.386  14.727
25257W        W97572   9.840  13.083   2.314
25258W        W97573  12.575  43.996   0.838
25259W        W97574  20.138  16.985   5.246
25260W        W97575   3.552   5.137   2.187
25261W        W97576  21.119  26.223  14.075
25262W        W97577  31.400  14.243   1.251
25263W        W97578  41.867   0.207   4.598
25264W        W97579   2.534  14.762   0.718
25265W        W97580  12.085  41.735  10.570
25266W        W97581  32.140   9.854   4.365
25267W        W97582   8.116  15.127   2.749
25268W        W97583  31.519  41.239  14.284
25269W        W97584  27.030  26.985  11.123
25270W        W97585   8.741  40.975  12.667
25271W        W97586  13.873  39.408  10.634
25272W        W97587  24.965   1.275   1.613
25273W        W97588  18.664  17.334   4.403
25274W        W97589  41.072  22.065   2.017
25275W        W97590   1.951  16.055   0.881
25276W        W97591  11.751   4.961  11.869
25277W        W97592  14.898  34.497   2.502
25278W        W97593  36.738   7.694   1.389
25279W        W97594   0.954  39.316   0.817
25280W        W97595  11.773  29.923   3.501
25281W        W97596   4.919  43.779  13.954
25282W        W97597  16.218  44.836  10.646
25283W        W97598  10.669  16.195   3.728
25284W        W97599  39.829  20.760   4.743
25285W        W97600  40.885  37.290   0.775
25286W        W97601   8.679   5.241   0.216
25287W        W97602  31.988  18.682   2.406
25288W        W97603  24.547   9.473   4.967
25289W        W97604  43.354  34.565  10.561
25290W        W97605  13.335   3.850  12.116
25291W        W97606  11.291  44.275  12.581
25292W        W97607  42.282   2.875   1.641
25293W        W97608   7.735  11.183   0.276
25294W        W97609   7.073   0.845   1.567
25295W        W97610  40.108  26.707   0.698
25296W        W97611  27.001  30.589  11.614
25297W        W97612  38.898  43.596   0.328
25298W        W97613  42.494  33.923  13.668
25299W        W97614  16.756  14.894  11.079
25300W        W97615  21.064  34.588  10.660
25301W        W97616  13.138  37.895   1.273
25302W        W97617  31.239  24.666  11.017
25303W        W97618  31.591  16.806  13.594
25304W        W97619  30.164  31.702   4.716
25305W        W97620  11.398  21.065  13.411
25306W        W97621  14.626  39.285  11.117
25307W        W97622  34.366  20.667   1.481
25308W        W97623  35.216  38.374   4.114
25309W        W97624   4.629  10.592  12.482
25310W        W97625  41.002  31.386   3.356
25311W        W97626  15.863  14.167   2.584
25312W        W97627  44.831  28.035   4.518
25313W        W97628  11.249  44.642  11.214
25314W        W97629  21.312  20.911  14.518
25315W        W97630  43.829  38.329   4.183
25316W        W97631  35.985  44.849  10.695
25317W        W97632  39.002  11.033  13.740
25318W        W97633  20.149   8.687  14.043
25319W        W97634  13.667  40.354   0.302
25320W        W97635  16.506   3.379   0.382
25321W        W97636  19.738  32.839   3.825
25322W        W97637  17.583   7.311  11.597
25323W        W97638  31.528  21.499   2.393
25324W        W97639  31.049  43.996   0.377
25325W        W97640  16.234  10.423  11.983
25326W        W97641   6.458  40.303  11.952
25327W        W97642   8.849  42.566   2.640
25328W        W97643  20.347   1.934   4.146
25329W        W97644  30.603  32.455  11.663
25330W        W97645  16.846   4.933  11.942
25331W        W97646  11.635  13.732   9.995
25332W        W97647   6.714  29.820  12.449
25333W        W97648  21.527  42.380   0.039
25334W        W97649  25.564  19.616   1.974
25335W        W97650  36.543  16.464  14.860
25336W        W97651  31.878  24.278   3.264
25337W        W97652  17.598  10.247   0.251
25338W        W97653  27.019  26.130   3.354
25339W        W97654  32.597  21.553  10.943
25340W        W97655  34.426  12.685  14.772
25341W        W97656  31.584  23.014  13.492
25342W        W97657  36.676  32.963  14.480
25343W        W97658  16.903  32.061  10.638
25344W        W97659  28.551  13.447   2.119
25345W        W97660   0.461  20.907   3.879
25346W        W97661  21.998  37.999  12.933
25347W        W97662  14.807  15.907   1.932
25348W        W97663  23.070  32.428   1.735
25349W        W97664  41.844  14.605   3.710
25350W        W97665  34.999  24.586   1.194
25351W        W97666  39.067  42.780  13.690
25352W        W97667   8.857  34.010  13.275
25353W        W97668  31.589  43.752  10.954
25354W        W97669  30.102  23.030   0.905
25355W        W97670   2.887  16.185  11.356
25356W        W97671  13.534   9.363  14.149
25357W        W97672  34.757  25.519  12.689
25358W        W97673   2.043  44.398  14.482
25359W        W97674   5.859  18.659   0.445
25360W        W97675  12.368  40.762   0.054
25361W        W97676   0.748  40.515   1.751
25362W        W97677  39.636   6.541  12.041
25363W        W97678   1.217  39.698   0.315
25364W        W97679  14.287  44.710  13.342
25365W        W97680  18.631  34.592  13.052
25366W        W97681  14.837  28.105   1.773
25367W        W97682  19.792  39.065   3.159
25368W        W97683  39.117   1.537   0.928
25369W        W97684   8.816  25.542  14.351
25370W        W97685  35.863  28.700  14.239
25371W        W97686  36.330   9.135  10.976
25372W        W97687  15.904  27.855   4.844
25373W        W97688  32.053  41.285  11.560
25374W        W97689  19.151  32.531   0.209
25375W        W97690  14.409  25.092   3.575
25376W        W97691  41.514  19.116  14.083
25377W        W97692   4.821  12.863  13.397
25378W        W97693  36.943  22.525  14.572
25379W        W97694   3.959  35.033  13.795
25380W        W97695  35.880  19.290  10.816
25381W        W97696   9.250  40.478   1.301
25382W        W97697  17.986  33.468  13.905
25383W        W97698  21.462  39.938  11.169
25384W        W97699   6.172  17.831  14.419
25385W        W97700  21.240  28.123   4.549
25386W        W97701  41.818  28.073  11.940
25387W        W97702  26.617   1.774  11.113
25388W        W97703  15.820  29.200   3.741
25389W        W97704  34.368  11.302   3.185
25390W        W97705  43.273   3.560   1.418
25391W        W97706  24.806  21.004  14.496
25392W        W97707  41.312  37.974  14.495
25393W        W97708   8.516   3.895  12.489
25394W        W97709   5.338  39.599   1.110
25395W        W97710  43.754   8.096  11.892
25396W        W97711  13.300  16.382   0.831
25397W        W97712  32.860  28.503  14.988
25398W        W97713  43.258  38.942  13.819
25399W        W97714  11.247  38.994   3.837
25400W        W97715  28.635  27.416  11.949
25401W        W97716  17.256   0.652   3.157
25402W        W97717   8.931  25.236   1.251
25403W        W97718  24.236  22.080  13.364
25404W        W97719   2.489   1.516  11.100
25405W        W97720  16.176  32.685   2.702
25406W        W97721  14.581  17.181  12.943
25407W        W97722   0.402   3.447   2.148
25408W        W97723  12.904  25.978   0.934
25409W        W97724  17.590   0.907   2.193
25410W        W97725  22.279  44.897   4.801
25411W        W97726  40.396  27.277   2.985
25412W        W97727  38.896  11.077   4.772
25413W        W97728  29.651   6.381   1.240
25414W        W97729  21.038  11.780   4.213
25415W        W97730  23.989  18.371  14.792
25416W        W97731  27.756  16.034   4.574
25417W        W97732  25.981   2.286  13.905
25418W        W97733  38.042  34.017  11.470
25419W        W97734  10.718  26.487   2.685
25420W        W97735  36.465  44.473  10.604
25421W        W97736  44.717  33.987  14.952
25422W        W97737  32.661  22.555   1.860
25423W        W97738  18.302  42.105   3.248
25424W        W97739  36.334  24.701   1.851
25425W        W97740  20.559  20.465   0.407
25426W        W97741  40.374  24.660  10.207
25427W        W97742  27.690  38.857  12.330
25428W        W97743  19.472   1.468  14.520
25429W        W97744  16.046  28.468  14.770
25430W        W97745   6.208  30.982   0.354
25431W        W97746  40.517  41.329   4.658
25432W        W97747  16.632  22.212   2.725
25433W        W97748   6.206  32.612   4.567
25434W        W97749   6.109  10.863   1.826
25435W        W97750  22.766  19.303   9.728
25436W        W97751  40.793  29.956  14.274
25437W        W97752   3.527   3.448  12.600
25438W        W97753  41.604  16.186   3.218
25439W        W97754  17.619  23.180  10.914
25440W        W97755   9.545   4.364   2.202
25441W        W97756  37.909  11.221  12.917
25442W        W97757  26.185  33.034   4.259
25443W        W97758  32.196   1.379   0.011
25444W        W97759  24.684  39.872   0.290
25445W        W97760  13.283  16.630   3.808
25446W        W97761  34.790  29.355  12.216
25447W        W97762  33.842  35.899  12.905
25448W        W97763  37.353  25.475   1.241
25449W        W97764  14.642  19.349  14.437
25450W        W97765  16.970  39.362   4.123
25451W        W97766  16.120  41.380  14.324
25452W        W97767   4.805  31.704   3.308
25453W        W97768  26.480   2.010  12.024
25454W        W97769  17.515  44.057  13.462
25455W        W97770  20.799  33.793  14.813
25456W        W97771  21.616   1.506   3.231
25457W        W97772   3.704  14.250   2.302
25458W        W97773  35.415  37.565   3.607
25459W        W97774  38.098  11.307  13.392
25460W        W97775   4.295  35.395   0.052
25461W        W97776   9.500  26.983   3.803
25462W        W97777   0.058  34.915  12.890
25463W        W97778  26.732  30.686   0.507
25464W        W97779  29.151  30.493   1.746
25465W        W97780  28.768  38.929   0.472
25466W        W97781  24.218  43.183   4.900
25467W        W97782  36.135  18.617   0.358
25468W        W97783  43.461  11.930  14.109
25469W        W97784  25.680  24.041   3.114
25470W        W97785  37.494  42.768   2.721
25471W        W97786   3.167  20.991  13.465
25472W        W97787  34.938  29.976   1.289
25473W        W97788   0.470  30.615  13.874
25474W        W97789  37.388  44.485   2.909
25475W        W97790  15.661  27.620   1.868
25476W        W97791   3.923  27.565  11.963
25477W        W97792   4.738   9.014   0.480
25478W        W97793   3.067  41.555   1.519
25479W        W97794  13.157   3.374  12.082
25480W        W97795  26.219  17.612  12.553
25481W        W97796  34.703  12.755  10.920
25482W        W97797  37.467  37.921   3.244
25483W        W97798  25.175   6.735   0.932
25484W        W97799  25.490  24.759  11.601
25485W        W97800   4.757   6.946  13.448
25486W        W97801  28.318  27.012  13.842
25487W        W97802  23.207  40.619   0.954
25488W        W97803  31.867  37.470  13.086
25489W        W97804  27.101  36.410   4.452
25490W        W97805  39.559  16.731   3.191
25491W        W97806  16.309  26.060  12.634
25492W        W97807  10.426  44.252  12.487
25493W        W97808   7.954  32.730  14.249
25494W        W97809  44.531   9.267  10.501
25495W        W97810   6.872  30.528  12.960
25496W        W97811  39.343  23.027   4.783
25497W        W97812  16.732  19.603  10.584
25498W        W97813  39.828   0.222  10.587
25499W        W97814  35.052  36.584   3.988
25500W        W97815  33.599   8.440  11.681
25501W        W97816  11.791  19.491  11.918
25502W        W97817   8.204   2.093  13.309
25503W        W97818  24.688   7.854   3.327
25504W        W97819  13.318  16.918  14.485
25505W        W97820   2.241  15.515   4.464
25506W        W97821  32.937  32.441   4.997
25507W        W97822   6.335  37.545   4.877
25508W        W97823  18.615   9.279   0.042
25509W        W97824   9.957  16.126  11.614
25510W        W97825  11.273  15.672   4.675
25511W        W97826  14.279  37.359   3.913
25512W        W97827  36.832  35.000  10.439
25513W        W97828  22.110  26.143  11.182
25514W        W97829  18.479  10.908  10.215
25515W        W97830  23.716  38.854   3.294
25516W        W97831  40.599  24.038   1.184
25517W        W97832  35.853  23.714  14.775
25518W        W97833  18.037  10.174  12.024
25519W        W97834   4.316  37.392  12.833
25520W        W97835   2.590  44.939   1.798
25521W        W97836  35.355  10.449   4.254
25522W        W97837  20.459  10.140   0.838
25523W        W97838  19.701  11.233   3.845
25524W        W97839  27.496  19.209  14.454
25525W        W97840  16.714  13.020   4.056
25526W        W97841  19.598  14.779  14.788
25527W        W97842  40.982  37.043  14.937
25528W        W97843  23.718   6.442   3.670
25529W        W97844  31.865  15.686  12.013
25530W        W97845  14.673  12.748  13.703
25531W        W97846  18.508  32.931   3.728
25532W        W97847  32.341  21.237   4.267
25533W        W97848  22.466  32.541  10.732
25534W        W97849   2.427   9.590  13.730
25535W        W97850   6.242  18.059  12.036
25536W        W97851  34.785  43.863   3.005
25537W        W97852  40.314  26.269  10.425
25538W        W97853  29.166  41.156  13.114
25539W        W97854  40.886   1.276  13.692
25540W        W97855  21.650  28.135   1.325
25541W        W97856  33.060  21.178   0.866
25542W        W97857   7.221  14.733  13.614
25543W        W97858  30.525  10.604  14.881
25544W        W97859  30.577  36.962   0.682
25545W        W97860   5.174  18.050  12.925
25546W        W97861  31.380  25.102   4.568
25547W        W97862  21.687   7.669   0.279
25548W        W97863  15.653   4.889   4.151
25549W        W97864   8.660  19.467  12.475
25550W        W97865  41.362  41.267  12.404
25551W        W97866  18.579  15.647   1.406
25552W        W97867  42.864  21.689  11.176
25553W        W97868  12.109  18.485  12.105
25554W        W97869  42.616  37.561   0.269
25555W        W97870   6.457  12.764   2.755
25556W        W97871  32.643  31.421   0.801
25557W        W97872  34.851   1.341  13.854
25558W        W97873  24.156  19.637  14.396
25559W        W97874  24.079  27.074   2.712
25560W        W97875  12.413  23.819   2.338
25561W        W97876  39.284  30.968   4.179
25562W        W97877  30.076  17.100  11.118
25563W        W97878   5.793   9.770  10.834
25564W        W97879  40.110   8.596  14.669
25565W        W97880   8.769  36.991   1.445
25566W        W97881  38.545  11.874  10.499
25567W        W97882  11.141  23.308  10.880
25568W        W97883  32.300  37.320   3.641
25569W        W97884  35.127  20.847  14.846
25570W        W97885   1.860  44.886   0.794
25571W        W97886  25.749  13.147   0.367
25572W        W97887  35.925  25.665  10.558
25573W        W97888  26.804  19.458  12.607
25574W        W97889  22.266   8.100   3.089
25575W        W97890  30.644  15.173   3.624
25576W        W97891  44.353  33.294  11.890
25577W        W97892   5.568  11.377  12.193
25578W        W97893   4.670  11.483   1.750
25579W        W97894  33.394  38.582   1.840
25580W        W97895  33.418  43.615  10.149
25581W        W97896  11.051  16.644   0.362
25582W        W97897   9.250  34.213  11.487
25583W        W97898   8.837  38.047   2.927
25584W        W97899   5.545  29.306   5.019
25585W        W97900  17.530   9.872  12.339
25586W        W97901  22.882  41.432  12.020
25587W        W97902  31.581   8.701   4.357
25588W        W97903   5.425  21.007   1.683
25589W        W97904  41.797  17.108  13.896
25590W        W97905  42.923  27.247   0.129
25591W        W97906  16.629  32.619  12.912
25592W        W97907  41.112  24.194  11.495
25593W        W97908   7.605  33.516   4.053
25594W        W97909  16.258   9.865   1.368
25595W        W97910   6.500  38.610   2.739
25596W        W97911  37.493  24.213  11.107
25597W        W97912  30.678  38.776   2.752
25598W        W97913  11.821   4.853  10.264
25599W        W97914  40.360  25.162  14.744
25600W        W97915  22.469  38.475  13.967
25601W        W97916  33.093  13.225   0.728
25602W        W97917  40.320  14.126  13.918
25603W        W97918  16.322  28.727  10.229
25604W        W97919  18.194  37.800   2.520
25605W        W97920  44.481   0.451   0.702
25606W        W97921  30.995  29.974  12.473
25607W        W97922   6.235  24.695  13.040
25608W        W97923  38.854  19.600   4.774
25609W        W97924   7.492   1.816  12.935
25610W        W97925   4.374  18.203  13.375
25611W        W97926  21.522  35.726   3.216
25612W        W97927  16.147  39.396   4.926
25613W        W97928  38.803   5.665   0.972
25614W        W97929  39.572  17.091  10.693
25615W        W97930  20.415  42.498  13.780
25616W        W97931  39.425  11.178   1.643
25617W        W97932  43.936  16.323   4.297
25618W        W97933   6.120  36.309   2.692
25619W        W97934  40.036  12.631   1.845
25620W        W97935  30.776  31.939   3.257
25621W        W97936  23.153  41.915   0.735
25622W        W97937  37.053  19.299   4.422
25623W        W97938   6.599   0.869   1.288
25624W        W97939  36.812   1.255  10.720
25625W        W97940  40.439  19.798   3.709
25626W        W97941  28.141  29.612  11.813
25627W        W97942  43.500  15.594  12.456
25628W        W97943  41.738   0.094  12.859
25629W        W97944   2.740   6.468  10.764
25630W        W97945   1.410  32.677  12.143
25631W        W97946  36.410  24.688   3.361
25632W        W97947  35.090  22.509   1.934
25633W        W97948   0.808  10.080   3.165
25634W        W97949  29.600   0.877   4.118
25635W        W97950  44.635  40.651   2.711
25636W        W97951  16.773  43.835   1.463
25637W        W97952  15.132  16.698  11.158
25638W        W97953   9.588   3.175  14.049
25639W        W97954   9.710  34.470  12.628
25640W        W97955  15.922  24.086  11.358
25641W        W97956   9.726  34.979   3.931
25642W        W97957  14.282   5.370  14.835
25643W        W97958  30.981  43.427   1.943
25644W        W97959  44.732   0.500  12.181
25645W        W97960  13.304   0.743  11.456
25646W        W97961  29.159  31.490   0.686
25647W        W97962   0.426   6.703   1.903
25648W        W97963  17.808  40.006  14.982
25649W        W97964  25.688   3.339  12.654
25650W        W97965  38.591  19.831  14.821
25651W        W97966  10.245  14.862   3.181
25652W        W97967  19.395   8.532   3.992
25653W        W97968  33.899  22.618  14.281
25654W        W97969  40.567  20.187  11.216
25655W        W97970  38.614  34.183   4.455
25656W        W97971  23.440   3.815   4.095
25657W        W97972   6.209  26.931  12.509
25658W        W97973  35.007  10.470  13.262
25659W        W97974  32.021   8.398   0.322
25660W        W97975  40.959   7.171  13.787
25661W        W97976  26.276  41.156  11.910
25662W        W97977  19.227  40.891   4.234
25663W        W97978  29.919  23.120   2.786
25664W        W97979  19.536  13.064  11.979
25665W        W97980  15.794  29.188  11.213
25666W        W97981  31.148  32.135   0.978
25667W        W97982  11.117  35.165   4.020
25668W        W97983  16.338  27.576  12.261
25669W        W97984   9.069   9.576  13.187
25670W        W97985  16.723   6.658  11.869
25671W        W97986  22.316  38.600  11.941
25672W        W97987  34.338  11.752   4.639
25673W        W97988  43.937  15.746  14.020
25674W        W97989  33.436   1.292  10.262
25675W        W97990   2.055  36.080  13.035
25676W        W97991  36.464   8.173   3.663
25677W        W97992  20.976   6.406  13.538
25678W        W97993  24.254  14.771   3.793
25679W        W97994  24.751  15.191  11.118
25680W        W97995  35.274  38.606   2.367
25681W        W97996  42.395   6.419  13.533
25682W        W97997  20.048  40.384   1.887
25683W        W97998  14.984  22.557   5.089
25684W        W97999  44.483  42.061  12.539
25685W        W98000  12.576  17.526  11.023
25686W        W98001  15.593  43.691   4.650
25687W        W98002  37.345  16.586  11.930
25688W        W98003  36.387  29.993  12.541
25689W        W98004  13.180   3.525   0.315
25690W        W98005  16.410   8.297   1.200
25691W        W98006  24.212   2.173  11.493
25692W        W98007  37.514   2.842  12.789
25693W        W98008  36.270   4.314   3.182
25694W        W98009  15.936  35.602   4.138
25695W        W98010  32.197   9.232   1.728
25696W        W98011  43.338  36.043  13.144
25697W        W98012  43.725  26.286   4.142
25698W        W98013  41.205  41.892   3.694
25699W        W98014   3.070  32.127  14.503
25700W        W98015   1.367  31.289   4.195
25701W        W98016  15.690  11.213   4.265
25702W        W98017   0.537   3.623   2.694
25703W        W98018   9.356  28.239  12.106
25704W        W98019  12.614  11.159   0.434
25705W        W98020   3.329  44.682  11.071
25706W        W98021  27.747  36.668  12.916
25707W        W98022  44.060  24.179  14.818
25708W        W98023  14.656   5.992  11.163
25709W        W98024  15.284  31.481   3.259
25710W        W98025   1.253  29.000  13.998
25711W        W98026   6.404  22.840   0.364
25712W        W98027  17.178  21.121  14.948
25713W        W98028  28.124  41.119   4.462
25714W        W98029  13.815  38.915  11.232
25715W        W98030  22.080  35.907   2.140
25716W        W98031  25.731   7.204  11.882
25717W        W98032  11.413   3.266  11.590
25718W        W98033   9.562  16.580   5.080
25719W        W98034  31.587  33.474   4.139
25720W        W98035  25.922  13.318  14.912
25721W        W98036  14.295   0.915  10.479
25722W        W98037  39.078  16.638  11.578
25723W        W98038  35.648  19.784  10.767
25724W        W98039  42.272  25.044  13.510
25725W        W98040  37.639  39.503   4.571
25726W        W98041   7.465  35.002   1.811
25727W        W98042  17.366   5.858  14.034
25728W        W98043  23.178  43.631  14.201
25729W        W98044  44.445  17.727   0.461
25730W        W98045  11.379  16.705  12.589
25731W        W98046   2.778  40.864  14.390
25732W        W98047  10.778  10.481   1.271
25733W        W98048  18.745  27.557   2.142
25734W        W98049  24.608  37.788  14.073
25735W        W98050  36.407  10.022  10.243
25736W        W98051  22.081   1.558  11.074
25737W        W98052   7.286   7.147   3.604
25738W        W98053  37.041  18.691   4.726
25739W        W98054   0.789  17.186  12.688
25740W        W98055  19.646  21.866   2.214
25741W        W98056  32.824  24.184   1.851
25742W        W98057  39.478   2.256   1.197
25743W        W98058  13.624  35.085  13.328
25744W        W98059  40.865  25.949  11.119
25745W        W98060  38.172  22.235  11.576
25746W        W98061  25.295  43.932   4.267
25747W        W98062   9.671  33.024  11.733
25748W        W98063  15.716   8.089   2.931
25749W        W98064   4.031  22.238  11.267
25750W        W98065   8.004  28.209   0.017
25751W        W98066  39.351  37.278   2.139
25752W        W98067  34.344   6.285  10.751
25753W        W98068  41.077   4.041  11.714
25754W        W98069   2.269  21.237  13.326
25755W        W98070  35.659  41.467  14.743
25756W        W98071  26.672   5.385  14.767
25757W        W98072  33.649  44.349  13.285
25758W        W98073   0.282  12.708  12.972
25759W        W98074  10.760  21.777  13.385
25760W        W98075   6.263   7.168   4.214
25761W        W98076   6.001   5.479   4.008
25762W        W98077  33.250  15.758  14.860
25763W        W98078  38.971  34.300  11.900
25764W        W98079  15.028  11.425   4.237
25765W        W98080  40.257   5.396   0.478
25766W        W98081  22.690  20.748   1.965
25767W        W98082  30.644  44.353  14.321
25768W        W98083   9.350   7.769  14.277
25769W        W98084  24.186  36.470  11.203
25770W        W98085  42.010  19.235  14.049
25771W        W98086  14.352  38.337   1.562
25772W        W98087  11.317  12.803  14.824
25773W        W98088   6.169  38.760   2.216
25774W        W98089  17.822  19.740  11.394
25775W        W98090  19.104  24.396  13.707
25776W        W98091  38.025  34.130   0.743
25777W        W98092  10.367  12.633  12.884
25778W        W98093  27.208  43.309   4.215
25779W        W98094   6.065  42.463   4.634
25780W        W98095  15.678   7.116   3.219
25781W        W98096   6.332  22.242   4.278
25782W        W98097  26.953  36.042   2.839
25783W        W98098   3.661  21.441   4.137
25784W        W98099  18.054  27.827  12.512
25785W        W98100  36.370   3.879   4.060
25786W        W98101  16.643  22.471   3.237
25787W        W98102  31.936  20.564  12.414
25788W        W98103  33.197  38.516  11.953
25789W        W98104  29.870   8.870  12.947
25790W        W98105  10.091  17.764  13.503
25791W        W98106   2.333  13.322  13.081
25792W        W98107  21.949  19.195  13.917
25793W        W98108  18.298  25.022   1.415
25794W        W98109  37.406  11.037   4.176
25795W        W98110  22.213  33.995  13.528
25796W        W98111   1.702  33.860   1.385
25797W        W98112  10.804  41.417  11.986
25798W        W98113  11.943   6.368   4.796
25799W        W98114  15.794  10.835  13.992
25800W        W98115  20.726   2.242  10.623
25801W        W98116   8.351  40.411  14.009
25802W        W98117  23.005  22.798   2.716
25803W        W98118   1.836  14.810   0.474
25804W        W98119   0.052  30.197   3.337
25805W        W98120  44.874  31.813   1.857
25806W        W98121  37.967   8.759   0.572
25807W        W98122   3.428  11.968  13.275
25808W        W98123  34.129  22.171  14.336
25809W        W98124  43.141  38.995  11.275
25810W        W98125  42.256  41.933  11.475
25811W        W98126  10.939  25.036   0.616
25812W        W98127   0.465  21.364   1.378
25813W        W98128  28.150  39.643   4.282
25814W        W98129  22.135  40.687  13.547
25815W        W98130  32.661  21.178  12.025
25816W        W98131  15.340  37.050  14.324
25817W        W98132  22.499  19.986  14.740
25818W        W98133  27.854  13.488   4.332
25819W        W98134  11.326  35.962  11.212
25820W        W98135  38.200  40.345  13.468
25821W        W98136  41.363  34.015   3.334
25822W        W98137  20.210  34.071  11.705
25823W        W98138   3.378  33.413  13.370
25824W        W98139  35.949  22.050   3.368
25825W        W98140   0.438  26.005   1.451
25826W        W98141  28.942  43.343   0.806
25827W        W98142  18.266   4.243   4.647
25828W        W98143  26.007  23.167  12.611
25829W        W98144  19.213  25.402  14.776
25830W        W98145  44.458  37.028  11.025
25831W        W98146  43.931  13.319   3.294
25832W        W98147   6.834  34.426   0.960
25833W        W98148  17.102  38.953  10.126
25834W        W98149  37.363  36.099  12.866
25835W        W98150  25.500  17.572   4.389
25836W        W98151  43.784  30.311   4.980
25837W        W98152  15.534  24.506   2.883
25838W        W98153   2.684  43.433   0.285
25839W        W98154   9.237  31.568  10.668
25840W        W98155  24.437  19.592  12.856
25841W        W98156  27.509   6.651   4.495
25842W        W98157  33.363   3.392   3.698
25843W        W98158  12.613   9.916   1.082
25844W        W98159  15.273  11.420   0.998
25845W        W98160  26.533  15.635   2.869
25846W        W98161  39.724  43.362   0.488
25847W        W98162  18.589  18.290   2.365
25848W        W98163  32.837  34.355  10.546
25849W        W98164   3.660   9.437   2.203
25850W        W98165  43.296  36.733   3.256
25851W        W98166  21.692  29.935  12.893
25852W        W98167  28.739  25.594   2.822
25853W        W98168  11.844   4.324  14.862
25854W        W98169  30.139  19.597   4.504
25855W        W98170  31.865   1.874  11.242
25856W        W98171   9.805  11.910  11.543
25857W        W98172   7.792  41.353  13.887
25858W        W98173  24.957   2.742   4.072
25859W        W98174  27.695   0.929  13.938
25860W        W98175  20.690  22.168  11.947
25861W        W98176  30.660   2.842   3.052
25862W        W98177   5.860  36.854   0.192
25863W        W98178  24.679   9.860  10.801
25864W        W98179  35.580  38.948  10.729
25865W        W98180   7.114  14.577  14.091
25866W        W98181  29.039  32.185   4.050
25867W        W98182  17.811  37.283   2.178
25868W        W98183  29.937  39.936  13.903
25869W        W98184  13.401  26.595   0.965
25870W        W98185   0.774  13.825   1.628
25871W        W98186  28.774  42.979   2.203
25872W        W98187  11.700  15.558   1.239
25873W        W98188  14.536   1.738  14.439
25874W        W98189  32.829  26.402   2.362
25875W        W98190   8.914  14.666   2.821
25876W        W98191  17.533  15.390   2.488
25877W        W98192   0.236  15.565  12.918
25878W        W98193   3.358  35.125  12.573
25879W        W98194  38.017  24.180   1.956
25880W        W98195  12.190  33.412   0.965
25881W        W98196   7.894  39.794  14.566
25882W        W98197  32.974   7.823   3.416
25883W        W98198  21.740  11.801  12.993
25884W        W98199  25.197  11.206   0.789
25885W        W98200  31.008  28.427  14.336
25886W        W98201   4.605  43.735  10.935
25887W        W98202  35.530  27.924   2.810
25888W        W98203  24.699  10.934   3.614
25889W        W98204  30.340  32.496  13.085
25890W        W98205   5.425   7.212   4.883
25891W        W98206  36.256  32.019  14.327
25892W        W98207  21.777  39.026  13.832
25893W        W98208   9.336   1.088   3.282
25894W        W98209  31.068  15.243   2.849
25895W        W98210  13.257  33.095   1.819
25896W        W98211  34.380   2.241  11.137
25897W        W98212  13.767  32.913  12.037
25898W        W98213  11.192   2.865  12.497
25899W        W98214  22.595   4.514   3.599
25900W        W98215  10.682   9.729   0.434
25901W        W98216   3.539   0.956   0.283
25902W        W98217  29.969   1.439  12.663
25903W        W98218  17.268  12.623  12.266
25904W        W98219  24.494  29.565  12.091
25905W        W98220  33.021  37.409   2.342
25906W        W98221   6.349   6.395  13.086
25907W        W98222  11.283   5.891   0.232
25908W        W98223  30.517   1.723  13.460
25909W        W98224   1.933  21.156  14.284
25910W        W98225  21.966  28.391  13.242
25911W        W98226  20.032  39.489   0.280
25912W        W98227   9.733   7.428  12.430
25913W        W98228  38.039  12.561  13.286
25914W        W98229  34.576  22.397   1.906
25915W        W98230  41.650  11.706   0.867
25916W        W98231   4.428  44.042   0.522
25917W        W98232  40.560   7.640   3.091
25918W        W98233  33.577  19.600   2.750
25919W        W98234  43.191   6.033  10.326
25920W        W98235   3.035   6.351   0.994
25921W        W98236  36.416  38.808  13.887
25922W        W98237  25.264   6.381   2.827
25923W        W98238   7.772   6.225  10.854
25924W        W98239  22.667  21.461   9.962
25925W        W98240  43.292   4.700  12.458
25926W        W98241  18.735  10.631  12.309
25927W        W98242  25.483  28.579  10.605
25928W        W98243  18.814   1.033   0.965
25929W        W98244  16.720   5.652   3.414
25930W        W98245  13.770   4.783   4.364
25931W        W98246  34.517  29.662  11.002
25932W        W98247  36.337  15.585   4.617
25933W        W98248   6.351   8.265  10.965
25934W        W98249  27.535   3.238  13.168
25935W        W98250  40.511  41.819  12.344
25936W        W98251   7.327  26.995   0.911
25937W        W98252  14.856  14.059  10.741
25938W        W98253  32.316  36.252  14.881
25939W        W98254  22.772   5.464   2.708
25940W        W98255  23.500  27.421   1.112
25941W        W98256  17.686   8.667  11.961
25942W        W98257  18.283   4.155  14.595
25943W        W98258  16.193   8.098   2.243
25944W        W98259  39.278   1.526  11.915
25945W        W98260  35.489   0.137   3.211
25946W        W98261  22.997  12.428  11.216
25947W        W98262   0.535   8.727   1.771
25948W        W98263  42.756   6.499  11.332
25949W        W98264  32.524   9.062  14.551
25950W        W98265  20.731   4.693   2.177
25951W        W98266  12.448  28.107  13.244
25952W        W98267  27.066  34.966  14.065
25953W        W98268  37.029  40.789  13.332
25954W        W98269  37.800  27.906   4.198
25955W        W98270  38.893  19.063   4.770
25956W        W98271   5.716  34.680   4.219
25957W        W98272   1.756  29.097  11.641
25958W        W98273   6.699  20.971   3.184
25959W        W98274  12.662   5.794  13.294
25960W        W98275  34.487  39.445   1.012
25961W        W98276  35.049  21.167   2.353
25962W        W98277  35.354   4.450   0.516
25963W        W98278  31.623  39.125  13.864
25964W        W98279  15.137  14.718  13.843
25965W        W98280  11.325  19.031   3.630
25966W        W98281  31.160  38.346   1.392
25967W        W98282  26.210   2.230   0.418
25968W        W98283  42.620  38.089   1.897
25969W        W98284  25.454  18.315  12.498
25970W        W98285  39.504  15.150   0.022
25971W        W98286  24.966  18.331   0.727
25972W        W98287  16.951   5.138   4.618
25973W        W98288   2.581  11.944   9.726
25974W        W98289  44.984  36.701   0.080
25975W        W98290   1.226  11.395   3.734
25976W        W98291   9.448  32.396  13.578
25977W        W98292  31.107  18.123  10.673
25978W        W98293  25.776  20.372  13.944
25979W        W98294   8.801  36.326   3.623
25980W        W98295  17.007  43.931  13.805
25981W        W98296  25.037  43.542   0.772
25982W        W98297  44.317  28.017  13.266
25983W        W98298   9.918   6.128  11.113
25984W        W98299  36.560  31.591   2.843
25985W        W98300  35.356  28.667   3.188
25986W        W98301   7.524  27.777   2.334
25987W        W98302   9.722  27.101  12.131
25988W        W98303   1.821  14.342  12.629
25989W        W98304  20.229  33.083   2.197
25990W        W98305  13.177  15.980   2.597
25991W        W98306  25.118  27.033  11.853
25992W        W98307  32.922  20.991  12.426
25993W        W98308  12.259  26.022   3.378
25994W        W98309  37.626  37.629   1.681
25995W        W98310  28.961  43.095   1.698
25996W        W98311  30.061  34.040  12.092
25997W        W98312   9.701   7.612  11.931
25998W        W98313   9.300  41.775   3.169
25999W        W98314   7.208  40.948   3.706
26000W        W98315   7.202  41.006  12.975
26001W        W98316  21.970   5.954   1.623
26002W        W98317  17.707   0.382   2.156
26003W        W98318  11.908  40.801  14.856
26004W        W98319  22.823  39.486   3.312
26005W        W98320  16.006   5.473   3.777
26006W        W98321  18.966  20.103  12.858
26007W        W98322  20.693  36.480   3.868
26008W        W98323   7.349  29.160   4.346
26009W        W98324   9.828   5.748   4.157
26010W        W98325  31.515  34.988   1.663
26011W        W98326  38.811  37.468  10.724
26012W        W98327  26.689  21.063  12.447
26013W        W98328  44.887   0.138  14.474
26014W        W98329  22.617  36.125  13.570
26015W        W98330  23.495  37.968   1.734
26016W        W98331  17.061  34.769   4.086
26017W        W98332  41.214  28.127   0.932
26018W        W98333  42.341  31.937  13.399
26019W        W98334  17.609  14.745   4.593
26020W        W98335  20.488  37.074   2.682
26021W        W98336  28.124   8.332  11.604
26022W        W98337  39.267   2.296  10.987
26023W        W98338  15.025   4.787   3.163
26024W        W98339   5.110  40.539   1.971
26025W        W98340  10.787  28.547   2.392
26026W        W98341   8.356  29.668   2.126
26027W        W98342  37.805  16.603   0.551
26028W        W98343  40.625  17.233  12.096
26029W        W98344   0.484  42.462   2.711
26030W        W98345  37.370  25.052  14.257
26031W        W98346  38.768  36.900   0.321
26032W        W98347   4.640   9.417  11.699
26033W        W98348  14.597  28.558  12.453
26034W        W98349  35.886   1.251   0.828
26035W        W98350  31.439   7.683  11.155
26036W        W98351  37.963  32.049  14.981
26037W        W98352  31.988  28.537   2.202
26038W        W98353  15.140  21.437  13.734
26039W        W98354  31.538  12.215   1.667
26040W        W98355  38.438  33.415  14.002
26041W        W98356   0.181   4.666  13.766
26042W        W98357  43.794  22.527   2.636
26043W        W98358  13.370  41.019  14.323
26044W        W98359   0.411  25.999  10.661
26045W        W98360   7.322   6.033  11.131
26046W        W98361   7.957  21.349  10.635
26047W        W98362   8.458  33.640   2.254
26048W        W98363  38.487  13.168   0.398
26049W        W98364   9.081  17.645  14.527
26050W        W98365   3.357  21.732  14.721
26051W        W98366  29.860   5.448  13.909
26052W        W98367  24.102  32.363   2.849
26053W        W98368   7.376  30.853  14.013
26054W        W98369  20.299  34.392   4.168
26055W        W98370  14.659  14.044   0.383
26056W        W98371  34.432   1.943   0.457
26057W        W98372  25.132  11.198   4.828
26058W        W98373  36.700   2.742  11.520
26059W        W98374  14.776   5.782  12.170
26060W        W98375  26.538  24.813  10.830
26061W        W98376  25.236  19.650  13.261
26062W        W98377  31.390  33.796  14.831
26063W        W98378  15.730  17.746   3.313
26064W        W98379  37.896   0.346   2.759
26065W        W98380  16.314  27.201   2.345
26066W        W98381  14.654  21.220   3.082
26067W        W98382  16.193   6.145  14.502
26068W        W98383  11.576  33.454  11.439
26069W        W98384   8.920  22.120   1.030
26070W        W98385  14.056  14.017   5.085
26071W        W98386  22.153  28.007  14.540
26072W        W98387  20.726  35.998  14.941
26073W        W98388  30.680  43.836  10.547
26074W        W98389  28.055  42.591  14.885
26075W        W98390   3.062  38.969  10.010
26076W        W98391  44.645  43.792  12.439
26077W        W98392   6.164   2.424  13.338
26078W        W98393   6.447  14.158   3.129
26079W        W98394   9.651  15.197  14.366
26080W        W98395  21.390  34.073  12.122
26081W        W98396   4.073  31.030   4.155
26082W        W98397  29.351  27.206  11.192
26083W        W98398   2.564  13.825   1.355
26084W        W98399   8.031  34.975   3.285
26085W        W98400  42.499   7.089  12.276
26086W        W98401  26.364  33.397   2.215
26087W        W98402  35.691  38.307   4.336
26088W        W98403  39.787   2.914   3.680
26089W        W98404   0.274  22.653   2.628
26090W        W98405  13.233  40.218  10.684
26091W        W98406  38.019  26.553   4.145
26092W        W98407  40.628   8.613   3.615
26093W        W98408  41.292   7.129   0.868
26094W        W98409  22.407   9.214  14.260
26095W        W98410  25.315  26.662  13.445
26096W        W98411  36.306  12.077  14.270
26097W        W98412  38.064  29.375  14.314
26098W        W98413  33.851  42.002   1.168
26099W        W98414  34.928  19.558  13.464
26100W        W98415   1.061   9.319   1.397
26101W        W98416  20.979  38.376  10.854
26102W        W98417   7.103  39.434  11.264
26103W        W98418   4.063  34.952   3.184
26104W        W98419  14.085   2.579   1.666
26105W        W98420  25.135  23.684   4.080
26106W        W98421  21.037   2.470  11.244
26107W        W98422  11.210  12.163  14.965
26108W        W98423  14.851   6.481   3.720
26109W        W98424   8.394  12.086  14.727
26110W        W98425   2.823  23.067   4.712
26111W        W98426  21.910  31.811   1.708
26112W        W98427  12.658   6.482   2.247
26113W        W98428  18.161  38.501   1.268
26114W        W98429  43.513  10.610   5.421
26115W        W98430  26.137  18.460   1.253
26116W        W98431  19.510   7.104  11.530
26117W        W98432  22.677  35.304  14.826
26118W        W98433  11.843  20.010  11.850
26119W        W98434  27.179   3.461  12.363
26120W        W98435  23.505   7.909  13.863
26121W        W98436  12.600  22.748  13.079
26122W        W98437  38.583   7.318  12.439
26123W        W98438  16.708   1.219   0.357
26124W        W98439   2.895   2.714   1.329
26125W        W98440   2.498  15.187   1.579
26126W        W98441  43.264  30.549  14.073
26127W        W98442  17.785  24.132  14.044
26128W        W98443   1.432  40.807  11.076
26129W        W98444  24.920  20.097   4.856
26130W        W98445  36.332  39.958   4.596
26131W        W98446  16.678  32.737   1.116
26132W        W98447  39.954  30.829  14.311
26133W        W98448  36.547  21.720  11.103
26134W        W98449   6.324  29.474   2.339
26135W        W98450   1.053   6.231  12.031
26136W        W98451  28.154   6.689   0.396
26137W        W98452  14.571  42.571   3.537
26138W        W98453  13.537  14.842   4.136
26139W        W98454  16.743  17.073  13.431
26140W        W98455  29.100  26.101   4.032
26141W        W98456  12.570  27.607  12.078
26142W        W98457   0.739  34.106  14.051
26143W        W98458   4.355  26.933  11.884
26144W        W98459  37.870  13.729   1.774
26145W        W98460  12.616   4.426   1.394
26146W        W98461   0.132  41.038  12.039
26147W        W98462   3.210   4.620  11.207
26148W        W98463  32.434   6.519   0.809
26149W        W98464  17.760  39.815  12.964
26150W        W98465  23.455  17.214  12.399
26151W        W98466   2.436  43.622  12.374
26152W        W98467  14.894  14.574  10.212
26153W        W98468  17.192  27.555   0.489
26154W        W98469  28.640  35.847  14.550
26155W        W98470  12.871  27.596  11.634
26156W        W98471  37.051  10.491  11.596
26157W        W98472  16.529  39.566  13.404
26158W        W98473   9.381  34.396   0.957
26159W        W98474  19.572  41.593   2.207
26160W        W98475  37.103   9.696  12.439
26161W        W98476  37.680  12.425  10.230
26162W        W98477  23.269   6.382  12.906
26163W        W98478   1.688  23.312   2.743
26164W        W98479  42.859   3.321  11.077
26165W        W98480   4.362  32.017   4.666
26166W        W98481  41.863   8.952   2.758
26167W        W98482  37.617   0.462   3.238
26168W        W98483  13.404  21.590   3.227
26169W        W98484  17.970  10.929   2.823
26170W        W98485  35.850  22.265   0.689
26171W        W98486  10.314  43.910  10.306
26172W        W98487  43.726   9.184   3.725
26173W        W98488   2.782  12.812  10.530
26174W        W98489  36.976   3.415   4.065
26175W        W98490   4.932  36.595  13.939
26176W        W98491  38.337   9.269  11.260
26177W        W98492   3.297  36.129   3.408
26178W        W98493  24.311  40.293  10.291
26179W        W98494   5.954  19.016  11.018
26180W        W98495  25.048   0.950  13.672
26181W        W98496  21.675  25.182  15.000
26182W        W98497   8.701   0.030   3.696
26183W        W98498   4.793  23.474  11.071
26184W        W98499   9.271  10.668  13.592
26185W        W98500  12.599  37.094  10.758
26186W        W98501   8.357  24.197   3.866
26187W        W98502  36.421  16.681   2.425
26188W        W98503  18.035   3.664   0.831
26189W        W98504  31.014  28.187  14.791
26190W        W98505  17.974  26.424  12.301
26191W        W98506  15.206  18.013  12.544
26192W        W98507  30.189  22.589   3.324
26193W        W98508  15.291  28.881   0.778
26194W        W98509  28.134  29.674   4.978
26195W        W98510  24.702  36.987  10.650
26196W        W98511   2.805  25.727   0.834
26197W        W98512   7.856  33.493   3.589
26198W        W98513  31.933  24.165   0.742
26199W        W98514  24.550  20.447   1.500
26200W        W98515  36.669  26.073  13.803
26201W        W98516   7.937   4.366  12.075
26202W        W98517  44.758  29.377   2.219
26203W        W98518  29.342  42.891  14.755
26204W        W98519  44.937   0.381  14.964
26205W        W98520  30.164  39.548   2.765
26206W        W98521  10.161  29.632   3.158
26207W        W98522   9.785  28.284  12.979
26208W        W98523   1.992  13.312  10.376
26209W        W98524   6.894  31.553   1.826
26210W        W98525   9.873  28.942   4.643
26211W        W98526  11.191  23.498   3.124
26212W        W98527  35.882  40.338   3.316
26213W        W98528   2.840  41.579  13.186
26214W        W98529  33.189  32.878   3.807
26215W        W98530   5.703  34.496   0.754
26216W        W98531   6.458   0.309  13.492
26217W        W98532  20.259  43.888   2.884
26218W        W98533  20.112   3.487  13.073
26219W        W98534  24.509  31.050   2.146
26220W        W98535  17.707  15.714   4.238
26221W        W98536   5.226  19.347  12.396
26222W        W98537   8.414  13.214  11.904
26223W        W98538  21.040   4.985  14.375
26224W        W98539  22.248   0.910   1.878
26225W        W98540  19.087   7.357  14.614
26226W        W98541  22.692  23.541   4.135
26227W        W98542  31.863  32.441   3.806
26228W        W98543  10.710  38.512  10.871
26229W        W98544  34.613  42.962  11.429
26230W        W98545  17.971  30.376  12.633
26231W        W98546  10.273  23.174  11.900
26232W        W98547  13.073   9.820  10.633
26233W        W98548  11.215  33.062  13.214
26234W        W98549   0.029  15.119  14.356
26235W        W98550  30.786  34.338  10.151
26236W        W98551  24.038  42.682   0.370
26237W        W98552  28.025  22.179   3.482
26238W        W98553  13.177  32.180  11.920
26239W        W98554  15.431   3.354   5.323
26240W        W98555  34.674  28.169   2.394
26241W        W98556  33.089  11.876   3.035
26242W        W98557  28.647   7.230   0.682
26243W        W98558  42.905  24.565  13.972
26244W        W98559  38.819   6.668  11.585
26245W        W98560  24.695  32.447   0.497
26246W        W98561  37.700  10.755  13.832
26247W        W98562   3.327  15.335   1.834
26248W        W98563  34.852  33.410   2.602
26249W        W98564   0.624  38.689  12.975
26250W        W98565  35.912  43.297   3.148
26251W        W98566  15.342  36.469   1.804
26252W        W98567   6.652  19.583   4.182
26253W        W98568   4.319  31.521   3.942
26254W        W98569  11.226  27.139   3.373
26255W        W98570  26.648  18.897  14.986
26256W        W98571  43.973  19.748  13.373
26257W        W98572  28.330  10.401  10.959
26258W        W98573  23.762  25.614  10.583
26259W        W98574  38.335   8.590   4.900
26260W        W98575   8.201  26.972  12.514
26261W        W98576  10.343  19.793   3.328
26262W        W98577  22.433  11.937   2.767
26263W        W98578  20.571  29.069   0.816
26264W        W98579  25.525  12.533   0.927
26265W        W98580  28.674  19.700   5.221
26266W        W98581  33.469  36.585   1.861
26267W        W98582  11.183   5.842   4.630
26268W        W98583  25.023  43.357  12.813
26269W        W98584  33.479  21.216   0.559
26270W        W98585   6.554  15.163   1.763
26271W        W98586  18.257  42.195   0.238
26272W        W98587  40.472  42.498  10.996
26273W        W98588  14.305  14.539  12.302
26274W        W98589  32.610  23.113   0.384
26275W        W98590   2.875  28.609   3.638
26276W        W98591  16.536  15.663  13.251
26277W        W98592  19.756   9.675   2.244
26278W        W98593  25.905   8.135   4.344
26279W        W98594  41.905  31.637  13.549
26280W        W98595  38.983  33.002  12.191
26281W        W98596  29.519  43.430  13.321
26282W        W98597  26.544  27.380   0.869
26283W        W98598  23.991  36.423  10.722
26284W        W98599  39.568  20.967  12.609
26285W        W98600  36.868  26.115   2.896
26286W        W98601   1.688  20.027   1.765
26287W        W98602  36.080  15.144  10.744
26288W        W98603  36.392  40.016   3.742
26289W        W98604  31.506  28.961  10.682
26290W        W98605   0.060  39.910  13.838
26291W        W98606   8.617  44.303   2.238
26292W        W98607  17.146  41.524  14.492
26293W        W98608  33.508   3.250  13.596
26294W        W98609  38.833  14.896  11.602
26295W        W98610  15.490  20.447  14.039
26296W        W98611  39.181   2.506   0.825
26297W        W98612  32.872  22.586   3.038
26298W        W98613  22.034  11.866  13.427
26299W        W98614   7.141   0.328  11.560
26300W        W98615  21.210   6.778  13.802
26301W        W98616  27.723  32.712  10.131
26302W        W98617  36.593   7.308   4.607
26303W        W98618   5.344  38.563   1.801
26304W        W98619  21.306   2.406   4.811
26305W        W98620  20.087  22.327   2.815
26306W        W98621  33.471  25.446  12.914
26307W        W98622  11.266  38.011   2.022
26308W        W98623  33.035   6.406   3.848
26309W        W98624  14.339   0.388   1.967
26310W        W98625  24.587   6.391   1.834
26311W        W98626  16.167  21.938  10.570
26312W        W98627  33.901  31.207  12.333
26313W        W98628  41.702  33.472  11.147
26314W        W98629  42.278  10.811  11.182
26315W        W98630   3.971  22.048  10.806
26316W        W98631  40.860  22.014   3.313
26317W        W98632   9.381  10.702  12.030
26318W        W98633   6.000  26.186   3.343
26319W        W98634  22.311  37.612  12.801
26320W        W98635   4.424  35.813   0.893
26321W        W98636   4.224   7.886   2.320
26322W        W98637  33.608  35.477   3.877
26323W        W98638  21.224  25.549  12.401
26324W        W98639  40.280  32.802   0.343
26325W        W98640  36.126  26.034  13.838
26326W        W98641  12.876  24.196   4.549
26327W        W98642  27.151   1.773   1.137
26328W        W98643  28.633  10.610   1.733
26329W        W98644  21.430  29.125   1.356
26330W        W98645  44.512  36.657  13.020
26331W        W98646  21.567  23.119  12.902
26332W        W98647  37.451  40.941   4.122
26333W        W98648   0.933  21.819  14.972
26334W        W98649   7.146  25.320   4.603
26335W        W98650  44.215   9.157   3.588
26336W        W98651  22.728  26.916   4.491
26337W        W98652  29.190  11.223   4.536
26338W        W98653   5.698  27.016  12.011
26339W        W98654  37.535   5.355   3.394
26340W        W98655  31.762  20.962   3.250
26341W        W98656  15.571  24.110  13.038
26342W        W98657  29.909  35.491  14.523
26343W        W98658  34.820  37.552   0.934
26344W        W98659  28.707  13.202  13.839
26345W        W98660  39.529  19.800   2.288
26346W        W98661  14.568   6.697  13.557
26347W        W98662  31.378  12.788  14.020
26348W        W98663   5.041  32.120   3.113
26349W        W98664  28.995  44.352  13.341
26350W        W98665  44.277   5.643   1.866
26351W        W98666  13.326  21.036   3.772
26352W        W98667  17.223  22.235   3.301
26353W        W98668  22.068  22.968   3.690
26354W        W98669  38.057  30.856  10.655
26355W        W98670  27.564  32.462  13.069
26356W        W98671  35.400  26.652   0.442
26357W        W98672  24.191  39.966  14.923
26358W        W98673  14.611  38.803   1.465
26359W        W98674  40.056  12.076  11.356
26360W        W98675  26.620  26.953  11.552
26361W        W98676  20.332  17.903  12.417
26362W        W98677   8.707   1.819   0.425
26363W        W98678  27.388  32.846   0.317
26364W        W98679  40.273  17.725   2.701
26365W        W98680   3.174  30.914   1.642
26366W        W98681  44.125  24.960   3.676
26367W        W98682   8.865  39.363  12.520
26368W        W98683   1.040  41.432   2.189
26369W        W98684  13.739  27.650  13.379
26370W        W98685  35.051  10.339   0.730
26371W        W98686  13.478  10.733  10.543
26372W        W98687   7.516  13.557   3.591
26373W        W98688   0.161   6.919   1.509
26374W        W98689  27.758   7.061   4.695
26375W        W98690  28.942  30.714   1.287
26376W        W98691   8.379  13.257  12.862
26377W        W98692  24.759  14.736   0.816
26378W        W98693  20.315  42.938   0.135
26379W        W98694  22.574  41.015  14.928
26380W        W98695  22.180  29.907   3.439
26381W        W98696  31.184   5.923   4.491
26382W        W98697   1.042  21.540  14.008
26383W        W98698   7.963  14.258   4.635
26384W        W98699  35.937  12.505   0.502
26385W        W98700  12.032  27.748   4.614
26386W        W98701   4.414   9.589  13.275
26387W        W98702   1.033  11.235   4.674
26388W        W98703   0.913  17.367   1.592
26389W        W98704  21.711  24.722  11.633
26390W        W98705  28.711  31.695   0.562
26391W        W98706  15.078   2.705  14.659
26392W        W98707  15.524  12.287   0.434
26393W        W98708  38.776  42.747  10.555
26394W        W98709  20.292  30.348  14.067
26395W        W98710   2.440  26.324  11.478
26396W        W98711  20.205  12.289  14.435
26397W        W98712  10.894   8.969  14.199
26398W        W98713  16.720   5.640  10.628
26399W        W98714   3.453  21.279   4.584
26400W        W98715  36.911  18.219  13.531
26401W        W98716  29.506   5.930  13.023
26402W        W98717  22.949  23.088  10.478
26403W        W98718  38.536  32.808  14.071
26404W        W98719   8.360  29.197   4.671
26405W        W98720  38.271  16.988   2.396
26406W        W98721  24.894  42.740   1.205
26407W        W98722   3.582   7.603  14.886
26408W        W98723   2.023  10.248   2.347
26409W        W98724   0.143  11.852  14.089
26410W        W98725  43.288  13.609  12.881
26411W        W98726  16.602  32.073   1.961
26412W        W98727   1.419  24.993  14.492
26413W        W98728  11.260  42.494   1.137
26414W        W98729  40.395  15.311   0.863
26415W        W98730  15.153   6.665  12.561
26416W        W98731   9.400  17.751  11.627
26417W        W98732  35.397   5.923   0.995
26418W        W98733  15.894  10.884  11.042
26419W        W98734   3.207  32.230   1.676
26420W        W98735   0.503  36.869   3.246
26421W        W98736  31.980   0.507  11.166
26422W        W98737   7.666  41.275   1.331
26423W        W98738  29.298   4.681  11.157
26424W        W98739  44.947  28.606   1.736
26425W        W98740   4.960  27.662  11.850
26426W        W98741  30.120   4.998  13.833
26427W        W98742  26.201   0.268  13.730
26428W        W98743   2.585  36.247   0.490
26429W        W98744   8.710  39.004   3.918
26430W        W98745  24.513  27.728  14.510
26431W        W98746  33.761  18.609   4.498
26432W        W98747  11.910  38.908  11.527
26433W        W98748  19.039  16.365  12.977
26434W        W98749  29.214  41.869   4.607
26435W        W98750  19.666  12.687   1.371
26436W        W98751  41.530  44.521   1.281
26437W        W98752  21.712  42.006  13.517
26438W        W98753   0.748  43.373  11.586
26439W        W98754  32.894  37.892   3.089
26440W        W98755  26.191   9.336  12.806
26441W        W98756  22.176   5.861   0.877
26442W        W98757   9.373  33.764  12.413
26443W        W98758  15.351  29.167  14.759
26444W        W98759   6.804  20.675   0.552
26445W        W98760  31.731  17.523  13.781
26446W        W98761  24.795   9.227   4.561
26447W        W98762  22.066  20.534   0.272
26448W        W98763  37.321  19.714  14.311
26449W        W98764  12.161  12.676  12.058
26450W        W98765  26.723   6.672   3.800
26451W        W98766  41.402  19.295   1.899
26452W        W98767  37.339  11.714  11.595
26453W        W98768   1.924  43.379   0.960
26454W        W98769   1.270  10.112  10.300
26455W        W98770  33.389  25.423  14.340
26456W        W98771  25.568  43.586   2.212
26457W        W98772  18.088   4.365   1.343
26458W        W98773  38.783   2.351   1.814
26459W        W98774   1.815  10.216   3.225
26460W        W98775  27.669  18.603   1.277
26461W        W98776  28.383  15.667  12.638
26462W        W98777  17.406  36.027   4.293
26463W        W98778  18.440  36.112   3.877
26464W        W98779  13.098  33.007  12.786
26465W        W98780  25.779  44.253  11.182
26466W        W98781   6.909  31.951  14.297
26467W        W98782  24.487  16.889   4.635
26468W        W98783   0.425  33.637   2.902
26469W        W98784  11.177  14.162  11.449
26470W        W98785   7.868  16.854   4.259
26471W        W98786  30.047  20.404   4.256
26472W        W98787  25.120   7.693   0.723
26473W        W98788  33.296   5.658   1.498
26474W        W98789  43.156  18.323   2.325
26475W        W98790  24.270  39.416   4.157
26476W        W98791  24.115  13.862  11.189
26477W        W98792   1.892  19.167   1.247
26478W        W98793   9.795  44.286   2.704
26479W        W98794  37.362   3.670   3.192
26480W        W98795  23.332  23.489   3.311
26481W        W98796  32.881  18.612   0.911
26482W        W98797  14.522  30.333   1.750
26483W        W98798   6.352   5.191   4.754
26484W        W98799  36.878  19.080  14.437
26485W        W98800  38.838  35.716   4.068
26486W        W98801   4.457  24.102  14.340
26487W        W98802  33.016  41.107   3.618
26488W        W98803  33.548  19.173  12.601
26489W        W98804  24.719  30.066   2.338
26490W        W98805  17.144   2.365   0.807
26491W        W98806  37.064   1.616  13.662
26492W        W98807  18.139   2.965   2.540
26493W        W98808  34.913  32.911   0.874
26494W        W98809   4.237  39.318  13.342
26495W        W98810  31.534   3.440  13.888
26496W        W98811   0.090  32.291   3.707
26497W        W98812  44.254   6.851   4.576
26498W        W98813   0.902  13.369  14.049
26499W        W98814  38.544  10.841   3.831
26500W        W98815  40.332  12.108   3.768
26501W        W98816   1.027  43.324  11.089
26502W        W98817  36.199  15.741  13.480
26503W        W98818  43.902  28.701   1.749
26504W        W98819  29.625  20.822   1.596
26505W        W98820   3.195  42.312  12.034
26506W        W98821  29.999   0.826   2.302
26507W        W98822  37.046  44.408  14.736
26508W        W98823  17.201  30.987  13.595
26509W        W98824  40.941  38.461   4.819
26510W        W98825  30.905  29.948   0.985
26511W        W98826  40.303  36.315   2.717
26512W        W98827   2.230  18.105  12.396
26513W        W98828  39.115  22.136   2.419
26514W        W98829  25.215   4.161  14.793
26515W        W98830  24.037  31.754  13.918
26516W        W98831  28.001  39.532   0.222
26517W        W98832  19.539  40.304   1.999
26518W        W98833  10.940   2.791  12.061
26519W        W98834  34.989  30.543  13.433
26520W        W98835  21.304  11.300  13.577
26521W        W98836  21.197  40.165  11.572
26522W        W98837   3.349  41.602   0.401
26523W        W98838  30.861  26.605  13.069
26524W        W98839  21.148   9.759  12.190
26525W        W98840  37.313   7.639   2.249
26526W        W98841   5.449  35.402   1.453
26527W        W98842  42.865  26.129   3.831
26528W        W98843  35.863   3.955  12.194
26529W        W98844  28.226   9.899  12.951
26530W        W98845  10.833  34.506  14.046
26531W        W98846  38.867  36.390  11.658
26532W        W98847  22.956  23.063  14.403
26533W        W98848   1.263   1.296  11.617
26534W        W98849  18.186  11.625  13.129
26535W        W98850  37.582   5.919  13.330
26536W        W98851   5.224  43.978   4.536
26537W        W98852   3.760  30.032  10.696
26538W        W98853  27.689   6.994  14.859
26539W        W98854  11.246  23.707  14.863
26540W        W98855  29.009   5.965   1.151
26541W        W98856  35.025  14.248   5.155
26542W        W98857  20.124  42.954   1.645
26543W        W98858   9.795  15.670  14.153
26544W        W98859   1.410  34.613   0.894
26545W        W98860  35.475  38.957   1.274
26546W        W98861  12.049  30.440  10.573
26547W        W98862  29.589   9.820   3.537
26548W        W98863  38.028  35.434   0.352
26549W        W98864   6.815   7.722   1.652
26550W        W98865   0.016   7.849  13.291
26551W        W98866  14.296  21.729  10.750
26552W        W98867  26.879  36.806  14.252
26553W        W98868  11.949   5.380   0.400
26554W        W98869   4.983  16.630   3.716
26555W        W98870  20.261  23.737  10.601
26556W        W98871  40.660   9.849   1.877
26557W        W98872  24.041  38.929   0.055
26558W        W98873  31.950  31.370  11.621
26559W        W98874  19.240  37.335   3.741
26560W        W98875  25.197  15.812   2.240
26561W        W98876  39.069   6.327   4.644
26562W        W98877  33.966  33.405   2.711
26563W        W98878  40.979  37.377   4.594
26564W        W98879  20.295  28.234   9.969
26565W        W98880  39.697   4.316   1.196
26566W        W98881  26.854   2.963  11.619
26567W        W98882  35.603   5.812  14.354
26568W        W98883  10.236  14.654   3.682
26569W        W98884  35.802  40.309   1.081
26570W        W98885  20.098  41.992   3.089
26571W        W98886  27.632  25.800  14.004
26572W        W98887  31.111  20.021  12.807
26573W        W98888  27.882  40.099   9.978
26574W        W98889  17.503  36.328  10.621
26575W        W98890  12.821  29.542  14.340
26576W        W98891  40.838  29.054  12.740
26577W        W98892  41.380  41.701   4.178
26578W        W98893  33.502  43.079  10.130
26579W        W98894  22.094  13.940  11.690
26580W        W98895  27.204  35.757  10.969
26581W        W98896  39.773  41.472  12.783
26582W        W98897  23.133   1.162  14.448
26583W        W98898  44.292  40.182   0.781
26584W        W98899  39.563  23.504   4.430
26585W        W98900  34.184  20.765   4.681
26586W        W98901  40.526  39.812   2.947
26587W        W98902  11.755  36.883   2.589
26588W        W98903  19.311  44.781  13.997
26589W        W98904  37.569   5.884  10.719
26590W        W98905  14.803   7.278   1.289
26591W        W98906  41.190   5.660  11.090
26592W        W98907  34.915  35.996   2.377
26593W        W98908  25.755   5.445   2.845
26594W        W98909  11.811  10.323  10.188
26595W        W98910  16.820  30.466  11.977
26596W        W98911   3.126  40.844  10.974
26597W        W98912  14.660  28.216  12.080
26598W        W98913  37.337  38.517  12.892
26599W        W98914  11.234  39.305  14.729
26600W        W98915  34.668  32.844  12.568
26601W        W98916  44.162  10.150  10.738
26602W        W98917   8.957  34.004  11.070
26603W        W98918  15.743  29.195   4.963
26604W        W98919  15.563  37.432  12.609
26605W        W98920  36.448  26.569   0.051
26606W        W98921  14.815  37.721  12.146
26607W        W98922  18.191  33.575   2.874
26608W        W98923  10.856  43.488  12.457
26609W        W98924  27.525   5.158  14.996
26610W        W98925   2.579  19.778  11.681
26611W        W98926  41.938  28.659  14.870
26612W        W98927   2.861  10.285  11.537
26613W        W98928  38.587  18.696   4.447
26614W        W98929  27.201   6.907   3.703
26615W        W98930  27.452  25.022   2.993
26616W        W98931   9.727  39.548   0.983
26617W        W98932  26.597  42.970  11.768
26618W        W98933   2.243  12.868   0.895
26619W        W98934  28.448  22.679  14.549
26620W        W98935  15.068  14.400  11.144
26621W        W98936   7.468   3.894  14.491
26622W        W98937  27.439  18.078  12.483
26623W        W98938   1.476   7.398  14.066
26624W        W98939   0.884  22.598   4.617
26625W        W98940  36.371  25.417   0.008
26626W        W98941  43.327  31.242  12.470
26627W        W98942  33.808   2.452  11.058
26628W        W98943  40.251  11.578  14.721
26629W        W98944  42.359  37.962   1.108
26630W        W98945  13.411  16.006  10.187
26631W        W98946   3.634  11.250   2.676
26632W        W98947  16.883  15.241   1.974
26633W        W98948  32.424   7.308   1.479
26634W        W98949   1.378  26.444  12.100
26635W        W98950  11.268  43.399  12.141
26636W        W98951  36.289  15.934   2.837
26637W        W98952  32.891   5.729  12.104
26638W        W98953  13.385  12.866  10.737
26639W        W98954   6.538  13.702   3.390
26640W        W98955  27.991  37.125  12.930
26641W        W98956   8.728  24.743   2.124
26642W        W98957  21.036  35.990  11.696
26643W        W98958  26.576  27.332   1.696
26644W        W98959  29.655  32.859   2.367
26645W        W98960  14.879  24.718  12.873
26646W        W98961  26.682  43.730   0.397
26647W        W98962  34.468  24.730  13.020
26648W        W98963  26.042  28.968  12.620
26649W        W98964  41.234  15.199   5.061
26650W        W98965  25.383  24.862  10.191
26651W        W98966  28.447  10.151  10.172
26652W        W98967  10.693   1.774  13.088
26653W        W98968  36.160   8.763   1.492
26654W        W98969  28.584  20.618   0.557
26655W        W98970   6.861  22.891  13.078
26656W        W98971  27.024  19.102  13.433
26657W        W98972  10.205   8.782   4.613
26658W        W98973  10.581  41.355  11.414
26659W        W98974  42.453  18.985  13.496
26660W        W98975  33.944   3.484  13.404
26661W        W98976  24.443  38.395   2.671
26662W        W98977  35.925  43.107   0.229
26663W        W98978  12.563  25.007  14.054
26664W        W98979   3.421   3.405  13.125
26665W        W98980  37.090  25.543  11.137
26666W        W98981  28.976   5.258   2.128
26667W        W98982  34.311  19.076   2.780
26668W        W98983  20.511  21.171  14.896
26669W        W98984  33.394   0.723  11.092
26670W        W98985  42.965  32.825  11.926
26671W        W98986  14.338  43.598  14.895
26672W        W98987  29.156  13.876  13.696
26673W        W98988  41.797  11.484   4.997
26674W        W98989  36.421  26.366  10.989
26675W        W98990  13.373  44.293  14.318
26676W        W98991  32.918  20.446  13.490
26677W        W98992  41.874  38.220  14.462
26678W        W98993  25.539  37.415  11.629
26679W        W98994   4.190  10.433   2.868
26680W        W98995  44.292   9.704   0.309
26681W        W98996  19.787  25.800  14.489
26682W        W98997  43.066  31.687   4.176
26683W        W98998   3.219  24.613  13.380
26684W        W98999  36.124  11.774  13.407
26685W        W99000  36.167  29.627   3.144
26686W        W99001  29.579  12.773  11.451
26687W        W99002  34.323  24.675  14.931
26688W        W99003  28.254  42.902  10.692
26689W        W99004  31.549  16.325   1.935
26690W        W99005  11.597  21.733   0.832
26691W        W99006  36.833  43.873   2.763
26692W        W99007  38.531  22.866   9.961
26693W        W99008  20.677  34.517  11.000
26694W        W99009  43.385  21.754  12.515
26695W        W99010  13.883   8.031  11.157
26696W        W99011   5.230  13.998  12.139
26697W        W99012  28.505  24.753   1.825
26698W        W99013  20.099  14.080  12.974
26699W        W99014   2.279  19.669   2.242
26700W        W99015   0.984  43.018   0.155
26701W        W99016  19.172  24.908  13.796
26702W        W99017  31.647  12.804   3.896
26703W        W99018  23.347  26.673  13.389
26704W        W99019  34.193  10.645  14.376
26705W        W99020  36.094  33.197  11.882
26706W        W99021  10.721  44.849   1.668
26707W        W99022  26.089   4.321  11.084
26708W        W99023   5.987  29.906  14.822
26709W        W99024   8.360  29.735   0.758
26710W        W99025  18.527  37.329  10.611
26711W        W99026   1.014  44.422   0.272
26712W        W99027  43.484  29.139  13.850
26713W        W99028  41.475   4.250  11.962
26714W        W99029  38.495  26.226  12.409
26715W        W99030  23.002   6.917   3.791
26716W        W99031  12.450  29.023  12.404
26717W        W99032  36.097   6.393  11.600
26718W        W99033   6.698  37.342  10.378
26719W        W99034  44.421  44.059   4.099
26720W        W99035   3.427  29.167   1.189
26721W        W99036   0.501  37.349   1.338
26722W        W99037   4.107  42.600  13.762
26723W        W99038  41.247  18.557   4.603
26724W        W99039  13.619   0.823   3.281
26725W        W99040   6.493  30.871   5.129
26726W        W99041   3.408   8.878  11.457
26727W        W99042  21.124  36.003   2.417
26728W        W99043   3.420  43.447   3.726
26729W        W99044  44.715  34.465  14.749
26730W        W99045  24.880  19.277   3.593
26731W        W99046  33.623  14.301   1.047
26732W        W99047  36.840  17.706  13.357
26733W        W99048   7.292  24.226  13.866
26734W        W99049  17.817   1.381  12.884
26735W        W99050  22.533  43.383  12.475
26736W        W99051  31.975  13.134   1.381
26737W        W99052  27.028   4.257   1.152
26738W        W99053  23.781  34.523  13.009
26739W        W99054  20.233  21.741  14.073
26740W        W99055  37.572  15.264  11.236
26741W        W99056  38.739  38.419  11.610
26742W        W99057  25.203  32.434   0.348
26743W        W99058  29.691  14.654   0.089
26744W        W99059   6.797  42.408   2.464
26745W        W99060  39.583   6.597   3.356
26746W        W99061   0.988  33.649  14.115
26747W        W99062  16.775  40.610   2.215
26748W        W99063  22.673  30.538   3.905
26749W        W99064  32.163   8.810   1.419
26750W        W99065  24.307  26.549   4.711
26751W        W99066  37.326  34.923   0.751
26752W        W99067  26.097  13.271   2.866
26753W        W99068  41.715  10.338   1.013
26754W        W99069  16.850  23.752  12.484
26755W        W99070  34.125   6.248  11.970
26756W        W99071  20.552  18.103  12.842
26757W        W99072  28.184  34.170   3.183
26758W        W99073  35.343  22.497  12.442
26759W        W99074  42.072  35.043   4.122
26760W        W99075   3.200  14.798   3.045
26761W        W99076   8.596  28.933   0.364
26762W        W99077  30.648   8.672  10.791
26763W        W99078  29.912  29.381   0.869
26764W        W99079   7.203  22.933  12.421
26765W        W99080  43.073  31.003   0.933
26766W        W99081   8.800  26.110  13.386
26767W        W99082   7.098  14.210  13.354
26768W        W99083  14.676   2.202   3.342
26769W        W99084  31.059   9.098  13.353
26770W        W99085   3.696  39.044   2.194
26771W        W99086  40.753  21.278   3.970
26772W        W99087  33.552  16.782  10.462
26773W        W99088  22.068  11.826   2.424
26774W        W99089  21.564  14.514  14.898
26775W        W99090   0.874  32.178  13.424
26776W        W99091  10.416  43.732  12.576
26777W        W99092  23.251  21.526  10.307
26778W        W99093  16.226  35.875  14.844
26779W        W99094  39.978  39.685  13.916
26780W        W99095  33.154  34.002   1.861
26781W        W99096   2.959   0.228   3.287
26782W        W99097  40.017  15.370  11.924
26783W        W99098  11.629  18.639  12.014
26784W        W99099  32.060   6.686  11.276
26785W        W99100  39.351  19.490  13.271
26786W        W99101  35.903  35.536  11.697
26787W        W99102   9.786  23.033   1.326
26788W        W99103   9.285  43.775   4.827
26789W        W99104  40.456  24.962   0.716
26790W        W99105  23.121  38.898  11.202
26791W        W99106   3.916  39.312  12.759
26792W        W99107  30.081  33.317  11.377
26793W        W99108  22.546  40.670   2.172
26794W        W99109  32.772  42.746   5.181
26795W        W99110  43.222  13.127  11.253
26796W        W99111  27.725  19.792  14.267
26797W        W99112  18.221  40.252   3.570
26798W        W99113  18.124  41.785   4.729
26799W        W99114  30.493  36.673  11.487
26800W        W99115  19.035  21.576  12.036
26801W        W99116  32.151   0.223   3.796
26802W        W99117  27.326  34.096   2.866
26803W        W99118  44.557  36.036  10.216
26804W        W99119   5.037  30.560  10.846
26805W        W99120  19.172  15.161   2.726
26806W        W99121   2.363  37.562  10.205
26807W        W99122   6.366   2.883  10.660
26808W        W99123  38.251  44.176  14.337
26809W        W99124   9.280   7.759   4.800
26810W        W99125  17.661  42.939   5.224
26811W        W99126  43.254  12.753  12.467
26812W        W99127   4.800  29.003  13.077
26813W        W99128  35.452   0.531  14.422
26814W        W99129  41.866   9.227  10.495
26815W        W99130  13.389  22.493  12.335
26816W        W99131  12.152  24.640   0.224
26817W        W99132   7.814   8.313   3.097
26818W        W99133  23.090   3.292  14.502
26819W        W99134  30.734  30.881  14.396
26820W        W99135  43.426   2.668  12.507
26821W        W99136  13.109  38.624  13.936
26822W        W99137   6.715  25.039  11.947
26823W        W99138  25.484  10.119  13.301
26824W        W99139  24.630  21.015  12.861
26825W        W99140   5.214  23.005   3.854
26826W        W99141  17.332  11.372  13.456
26827W        W99142  11.183  34.469   2.693
26828W        W99143  27.170  18.929   4.843
26829W        W99144   4.640  15.169  12.879
26830W        W99145  31.732   9.789  14.461
26831W        W99146  27.923  24.955  13.893
26832W        W99147  33.311  31.209   2.402
26833W        W99148  35.514  30.467  12.329
26834W        W99149  17.051  30.171  10.240
26835W        W99150  37.069  28.943  14.441
26836W        W99151   8.920   2.475  11.561
26837W        W99152  34.928  35.771  11.048
26838W        W99153   8.201  37.687  13.831
26839W        W99154  34.084  16.094   1.847
26840W        W99155   5.702   4.782   3.252
26841W        W99156   1.969   9.258  12.413
26842W        W99157  36.624  35.599   0.843
26843W        W99158   1.266   5.956   3.353
26844W        W99159  24.733   5.365  10.803
26845W        W99160  16.377  19.584  14.740
26846W        W99161   5.237  37.008  13.927
26847W        W99162  16.147  31.601   0.692
26848W        W99163  10.908   1.269  12.062
26849W        W99164  19.834  21.598  14.442
26850W        W99165  23.752  31.055  13.723
26851W        W99166  30.790  44.912  13.225
26852W        W99167  36.525  19.919  11.440
26853W        W99168  28.679   0.282  11.528
26854W        W99169  41.067  44.742  12.069
26855W        W99170  29.512  42.370   3.823
26856W        W99171  25.145   1.391  14.309
26857W        W99172   0.642  42.839   1.682
26858W        W99173  11.166  21.378  10.171
26859W        W99174  26.224   2.314  13.438
26860W        W99175   7.871  12.569  10.808
26861W        W99176  23.000   4.406   0.919
26862W        W99177  30.998  17.680   3.904
26863W        W99178   8.356  20.628  12.611
26864W        W99179  33.657  20.594  14.912
26865W        W99180  11.361  14.379   1.935
26866W        W99181  12.744   5.402   1.597
26867W        W99182  12.620   6.729  10.518
26868W        W99183  34.901  32.380   1.807
26869W        W99184  29.600  27.195   2.642
26870W        W99185   5.736   8.137  14.421
26871W        W99186  29.952   7.841   2.720
26872W        W99187  20.819  19.645  14.853
26873W        W99188   7.256   5.198   3.737
26874W        W99189  41.277  27.918  13.805
26875W        W99190  29.862  27.977  11.616
26876W        W99191   5.380   9.220   1.084
26877W        W99192  34.618  12.014  12.494
26878W        W99193  15.993  37.390   4.197
26879W        W99194  12.894   9.677   2.731
26880W        W99195  29.477  23.569  12.935
26881W        W99196  30.058  33.978  13.400
26882W        W99197  21.974   2.532  10.990
26883W        W99198  13.767  38.976   2.058
26884W        W99199  40.055  33.012  14.565
26885W        W99200  29.476  36.817  13.755
26886W        W99201   7.331  22.121   2.495
26887W        W99202  18.627  44.891  14.886
26888W        W99203  21.066  27.557   3.774
26889W        W99204  25.278   3.353   0.460
26890W        W99205   3.437  20.568  13.053
26891W        W99206   4.715   1.203   4.247
26892W        W99207  23.184  11.264  13.302
26893W        W99208  26.519   2.351   0.818
26894W        W99209  32.998   7.437  12.165
26895W        W99210   6.324  43.144   2.628
26896W        W99211  39.336  39.477  14.355
26897W        W99212  35.985  36.047  14.030
26898W        W99213   2.259  26.109   3.770
26899W        W99214  10.653  43.277   2.122
26900W        W99215  42.342  13.790   2.716
26901W        W99216  13.060  33.519  14.016
26902W        W99217  34.752  10.902   2.867
26903W        W99218  28.519   4.879   3.197
26904W        W99219  18.852  20.628  12.351
26905W        W99220  31.162   0.662  12.687
26906W        W99221  42.770  17.874  11.618
26907W        W99222  20.965  40.006  11.112
26908W        W99223  29.195  17.507  10.798
26909W        W99224  41.478  37.349   1.888
26910W        W99225   8.109  33.987  14.535
26911W        W99226  23.627  16.283   2.160
26912W        W99227   7.936   2.310   0.313
26913W        W99228  22.403  31.197  13.049
26914W        W99229  26.990  17.615   1.756
26915W        W99230  13.699  32.496   2.485
26916W        W99231  43.331  37.018   1.229
26917W        W99232   5.187   8.853   2.812
26918W        W99233  21.948  41.321  11.535
26919W        W99234  16.346   0.969   1.323
26920W        W99235  39.502   0.814  14.659
26921W        W99236  16.160  31.967   2.227
26922W        W99237  19.010   4.815   2.770
26923W        W99238  10.393  41.827   0.022
26924W        W99239  26.462  31.764  10.572
26925W        W99240   6.596   2.396   4.054
26926W        W99241  43.741  37.572   3.691
26927W        W99242  14.078   2.959   0.338
26928W        W99243  31.647  23.270   1.868
26929W        W99244   6.227  27.671   1.038
26930W        W99245  13.098  41.253  10.780
26931W        W99246  35.183  15.387   0.003
26932W        W99247  31.950  27.522   4.204
26933W        W99248  19.421  23.600  10.898
26934W        W99249   1.875  39.833   0.702
26935W        W99250  37.077   3.295  10.937
26936W        W99251  21.394  37.444  10.652
26937W        W99252  30.690   3.627   0.914
26938W        W99253  41.342  25.965   0.907
26939W        W99254  44.189  33.887  12.465
26940W        W99255  43.595  24.027   2.359
26941W        W99256  26.814  13.353  12.174
26942W        W99257  36.725  10.715   1.360
26943W        W99258   5.952  25.955   0.867
26944W        W99259   8.372  38.954  10.704
26945W        W99260  25.522  35.045   4.063
26946W        W99261  13.202  31.447  10.709
26947W        W99262  13.330  36.614  12.413
26948W        W99263  23.483   3.352  14.869
26949W        W99264  12.737  27.192   0.370
26950W        W99265  31.357  12.167   0.735
26951W        W99266  43.383  15.291  12.043
26952W        W99267  17.792  21.041   3.037
26953W        W99268  12.617  31.059  11.737
26954W        W99269  16.140   1.789  12.907
26955W        W99270  17.507  28.141  11.719
26956W        W99271   2.085  41.833  12.522
26957W        W99272  37.770  17.196  13.932
26958W        W99273  14.589   8.910  12.348
26959W        W99274  39.567  23.096  10.953
26960W        W99275  23.700  33.096   4.887
26961W        W99276   6.607   0.304  10.559
26962W        W99277  33.597   4.368   0.341
26963W        W99278  15.541  17.361  12.144
26964W        W99279  13.093  35.490   5.180
26965W        W99280   0.300  41.117   0.598
26966W        W99281  38.277  29.241   1.317
26967W        W99282  27.168   6.275   4.528
26968W        W99283   6.815  36.979  11.139
26969W        W99284  10.959   5.419   3.852
26970W        W99285  34.515   4.030   2.397
26971W        W99286  37.111  13.799   3.740
26972W        W99287  26.143  24.762   2.706
26973W        W99288  12.514  10.069  11.853
26974W        W99289  23.174  15.235   3.293
26975W        W99290  30.063  17.788  12.359
26976W        W99291  42.845  24.953  11.464
26977W        W99292   6.412  10.292  11.591
26978W        W99293  34.952   3.215  11.473
26979W        W99294  29.853  17.152  12.974
26980W        W99295   2.195  39.372  13.014
26981W        W99296  29.196  30.606  11.035
26982W        W99297  20.769  41.910  12.067
26983W        W99298   7.853  42.783  12.955
26984W        W99299   9.726  42.570   3.390
26985W        W99300  39.223  14.215  11.192
26986W        W99301  34.732  43.489   4.703
26987W        W99302   4.918   2.451  10.778
26988W        W99303  32.820  34.334  12.898
26989W        W99304   7.213  41.750  13.389
26990W        W99305  22.154  21.260   0.780
26991W        W99306  12.786  26.423   3.686
26992W        W99307  43.838  33.847  10.744
26993W        W99308   1.165  32.658   1.802
26994W        W99309   7.374  32.188  11.616
26995W        W99310   5.725  43.760  14.759
26996W        W99311  43.976  34.426  14.353
26997W        W99312   7.374  28.157  14.333
26998W        W99313  16.728  13.721  11.734
26999W        W99314  30.220  12.233   1.726
27000W        W99315  13.671  13.588   1.237
27001W        W99316  40.039   1.928   4.101
27002W        W99317   5.132  24.416   2.388
27003W        W99318  42.584  22.088  14.774
27004W        W99319  12.336  21.249   4.291
27005W        W99320  43.034  37.904  13.442
27006W        W99321  24.480  36.360  13.014
27007W        W99322   2.913  42.400   0.905
27008W        W99323  27.921  34.595   0.780
27009W        W99324  16.673  38.042  14.459
27010W        W99325  28.117  41.368  10.669
27011W        W99326  41.530  33.774  14.862
27012W        W99327  22.039  25.227   2.813
27013W        W99328  23.491  17.711  13.048
27014W        W99329  16.049  38.091  12.368
27015W        W99330  30.181  23.051  13.528
27016W        W99331  34.911  21.471   0.959
27017W        W99332   7.978  10.820  11.763
27018W        W99333  29.544   7.765  13.336
27019W        W99334  40.465  17.033  10.333
27020W        W99335  18.518   8.720   0.902
27021W        W99336  43.953  31.194   0.709
27022W        W99337   6.204  30.875   1.832
27023W        W99338  44.887  12.391  11.466
27024W        W99339   9.189   0.270   0.866
27025W        W99340  28.049  43.329  13.371
27026W        W99341  41.870  21.542  11.132
27027W        W99342  12.624  20.578  11.161
27028W        W99343   6.746  14.041  11.022
27029W        W99344  31.168  11.246  11.458
27030W        W99345  40.222  18.243  10.669
27031W        W99346  38.507  42.415   0.127
27032W        W99347  34.566   2.497   3.140
27033W        W99348  28.490  27.050  12.318
27034W        W99349  39.854  23.802  12.582
27035W        W99350  31.891  43.594   4.887
27036W        W99351  31.938  28.164   3.570
27037W        W99352  17.953  32.256   4.332
27038W        W99353  10.355   2.273   0.832
27039W        W99354  39.645  24.242   4.040
27040W        W99355  19.473  36.453   5.094
27041W        W99356  26.066  29.909  13.549
27042W        W99357  39.327  16.184  14.827
27043W        W99358  31.318  14.692  11.103
27044W        W99359  22.197  15.227  13.356
27045W        W99360  35.567  44.516   4.468
27046W        W99361   4.878  43.151  12.163
27047W        W99362  38.406  27.152   2.802
27048W        W99363  10.216  14.636   4.623
27049W        W99364  17.267  35.159   1.683
27050W        W99365   9.717  24.068  12.144
27051W        W99366  36.598   6.643   0.239
27052W        W99367  19.615  10.339  14.311
27053W        W99368  15.769  41.115   2.694
27054W        W99369  25.670   5.235  10.592
27055W        W99370  38.084  33.013  12.000
27056W        W99371  25.237  16.959   1.387
27057W        W99372  18.778   6.953   4.639
27058W        W99373   3.245  42.565   4.071
27059W        W99374   9.213  35.957   2.807
27060W        W99375  23.108  28.632  14.956
27061W        W99376  33.930  42.304  14.022
27062W        W99377  32.085  30.365   1.549
27063W        W99378  34.405  32.976  11.149
27064W        W99379   5.675  21.821  14.003
27065W        W99380  10.122  15.870   0.414
27066W        W99381  37.571  20.071  12.588
27067W        W99382   6.696  35.619  11.025
27068W        W99383  29.651  20.163   2.821
27069W        W99384  12.141  29.621   0.367
27070W        W99385  18.633  37.132  14.833
27071W        W99386  26.531  15.190   0.765
27072W        W99387   9.359   1.921  11.677
27073W        W99388  13.340  41.406   1.262
27074W        W99389  16.992  13.605   1.870
27075W        W99390   5.796   8.693   2.205
27076W        W99391  22.262  17.591  14.038
27077W        W99392  10.732  20.907  12.551
27078W        W99393  14.090  44.382   2.618
27079W        W99394  43.780  12.115   0.354
27080W        W99395  26.404   3.392   5.192
27081W        W99396   1.885  44.589  14.932
27082W        W99397  10.611  31.897   3.243
27083W        W99398  39.418  35.454  11.136
27084W        W99399   2.689  40.154  12.518
27085W        W99400  19.771  10.590   0.471
27086W        W99401   9.237  37.662  11.136
27087W        W99402  32.720   3.199   0.896
27088W        W99403   9.402  19.826  14.839
27089W        W99404  30.431  25.226  13.798
27090W        W99405  31.126  18.178   3.118
27091W        W99406  39.819  39.041  14.751
27092W        W99407  15.885  20.931  14.820
27093W        W99408  38.615  27.074  11.992
27094W        W99409   3.915  20.790  11.936
27095W        W99410   7.404  36.154  12.527
27096W        W99411  43.479  39.832  12.844
27097W        W99412   0.450   5.791   1.665
27098W        W99413   8.004  32.907   2.362
27099W        W99414  13.821  40.071  13.995
27100W        W99415  34.868  20.566  14.463
27101W        W99416  22.657   6.900  12.991
27102W        W99417   2.472   8.790  14.328
27103W        W99418  34.545  31.175  13.822
27104W        W99419  44.851  28.826  10.622
27105W        W99420  28.031  26.161   1.120
27106W        W99421  25.052  34.001  12.282
27107W        W99422  16.776   2.845  11.015
27108W        W99423  24.263  40.528  14.504
27109W        W99424  22.214  17.866   0.822
27110W        W99425  39.051  13.748  11.096
27111W        W99426  38.774   0.928   4.803
27112W        W99427  14.970  15.131   4.809
27113W        W99428   3.609  20.814   1.450
27114W        W99429  21.207  26.064  11.188
27115W        W99430  29.985  41.777  10.934
27116W        W99431  36.772  28.687  13.890
27117W        W99432  42.446  30.139   0.995
27118W        W99433   1.182  41.808   2.875
27119W        W99434   4.667   8.636  12.846
27120W        W99435  17.634  17.655  12.403
27121W        W99436  32.544  28.072  11.631
27122W        W99437  38.815  11.813  13.462
27123W        W99438  44.733  33.636  11.728
27124W        W99439   1.447  37.227   0.377
27125W        W99440  25.290   0.343  10.258
27126W        W99441   8.678  18.075  13.500
27127W        W99442  12.115  10.815   2.824
27128W        W99443   2.818  10.691  14.256
27129W        W99444  21.998  19.808  12.965
27130W        W99445  26.496  16.334   1.465
27131W        W99446  23.292  25.690   1.597
27132W        W99447  38.359  12.932   0.838
27133W        W99448  12.862   3.218   5.032
27134W        W99449   1.354  34.075  14.970
27135W        W99450  35.027  17.317  11.239
27136W        W99451   8.403  32.666   1.720
27137W        W99452  13.732  27.503  11.368
27138W        W99453  15.818  28.749   1.814
27139W        W99454  14.382  26.903  12.850
27140W        W99455  21.216  31.420   0.688
27141W        W99456  31.722   3.725  11.901
27142W        W99457  39.196  37.050  12.404
27143W        W99458  42.907  27.761   1.748
27144W        W99459   9.312  16.158  12.625
27145W        W99460   9.185  43.086   3.698
27146W        W99461  12.384  18.691  13.823
27147W        W99462  14.847  10.114   3.626
27148W        W99463  33.502  25.284   2.694
27149W        W99464  37.580  11.576  10.713
27150W        W99465   7.158  39.806  14.371
27151W        W99466   2.320  38.385   0.593
27152W        W99467   5.084  30.440  13.034
27153W        W99468  17.024  32.398  11.039
27154W        W99469  34.594   6.856  10.765
27155W        W99470  27.018   5.914  14.243
27156W        W99471  24.617  39.179  13.440
27157W        W99472   6.808  20.174   4.801
27158W        W99473  39.089  43.682  10.746
27159W        W99474   6.904   8.267  11.861
27160W        W99475  35.931  18.178   1.130
27161W        W99476  40.937   1.416  12.646
27162W        W99477   7.057  17.726   3.602
27163W        W99478  19.590  21.955   1.329
27164W        W99479  42.631  40.502   0.399
27165W        W99480  34.330   5.361  13.929
27166W        W99481  31.004  33.514   2.029
27167W        W99482   2.742  32.093  12.094
27168W        W99483  29.169  12.912  11.095
27169W        W99484  32.071  10.659   5.014
27170W        W99485  28.842  28.984   2.795
27171W        W99486  30.345   4.266   4.412
27172W        W99487  37.033  29.708   1.763
27173W        W99488   2.681  41.354  14.986
27174W        W99489   8.796  35.654   2.721
27175W        W99490  29.122  28.624   3.299
27176W        W99491   7.097  19.018  14.868
27177W        W99492  18.241  18.562   0.429
27178W        W99493  19.344  32.230   2.177
27179W        W99494  36.867  29.062   0.898
27180W        W99495  32.855  44.339  14.219
27181W        W99496  20.754  24.958   0.780
27182W        W99497   9.898  37.083   0.786
27183W        W99498  22.435   5.282   4.083
27184W        W99499   3.198  17.568  11.461
27185W        W99500  43.240   4.747   1.701
27186W        W99501  36.633  23.768  10.334
27187W        W99502  15.373  32.200   2.622
27188W        W99503  27.312  26.612  11.964
27189W        W99504  18.986   2.487  14.753
27190W        W99505  28.357  15.817   1.870
27191W        W99506  38.956  30.093   4.936
27192W        W99507  27.503  41.927   4.597
27193W        W99508   7.890  21.163   0.003
27194W        W99509  29.100  19.226  12.424
27195W        W99510  17.828  16.798   2.099
27196W        W99511  26.547   6.297  12.358
27197W        W99512  38.541  37.829   0.001
27198W        W99513  24.175   1.962  13.827
27199W        W99514  25.187  30.135   0.880
27200W        W99515   8.985  36.555   4.078
27201W        W99516   6.434  29.406  11.528
27202W        W99517   4.885  37.015   2.886
27203W        W99518  13.345  43.348  14.793
27204W        W99519  34.366  16.641   0.740
27205W        W99520  35.991  29.136  10.802
27206W        W99521   3.318   0.260  12.133
27207W        W99522  22.671  29.919  13.926
27208W        W99523   3.191   3.005   1.752
27209W        W99524   7.199  30.080   4.297
27210W        W99525  21.686  42.754   2.702
27211W        W99526   8.217  44.927   3.284
27212W        W99527  17.012  44.854  11.146
27213W        W99528  19.227  11.042  12.370
27214W        W99529  39.985  41.258   4.730
27215W        W99530   0.126  29.170   1.203
27216W        W99531   2.226   9.863   1.455
27217W        W99532  24.716  37.133  13.481
27218W        W99533  31.514   4.677  13.007
27219W        W99534   7.893  32.913  11.521
27220W        W99535  17.788  33.655   0.987
27221W        W99536   4.770  40.885  14.602
27222W        W99537  22.069   2.276  13.491
27223W        W99538  35.518   1.941   1.466
27224W        W99539   7.918   5.182   3.131
27225W        W99540  19.495  44.892  12.511
27226W        W99541  43.770  10.470  11.498
27227W        W99542   9.177  21.759   1.294
27228W        W99543  19.243  39.813   2.766
27229W        W99544   8.378  38.137  14.010
27230W        W99545  22.047  31.346  11.898
27231W        W99546   9.891   6.240  11.938
27232W        W99547   6.675  31.859  12.502
27233W        W99548  30.372   4.973  11.082
27234W        W99549  38.011  19.933   2.848
27235W        W99550  23.608   1.867  12.958
27236W        W99551   9.157   6.371   0.268
27237W        W99552  42.100  42.174  14.778
27238W        W99553  39.971   5.328  12.142
27239W        W99554  13.371  10.611   4.542
27240W        W99555   0.044   9.213  10.599
27241W        W99556  16.651  33.804  13.577
27242W        W99557  30.697  29.924   4.200
27243W        W99558  10.143  43.535  12.985
27244W        W99559  22.157  24.956  11.459
27245W        W99560  20.089   8.122   5.279
27246W        W99561  23.762  42.236  11.128
27247W        W99562  30.596  42.535  12.801
27248W        W99563  15.106   9.854  11.722
27249W        W99564  19.624  36.880  10.660
27250W        W99565   0.299   9.237   2.756
27251W        W99566  25.974  21.188   4.594
27252W        W99567  42.669  15.340   4.272
27253W        W99568  38.891   8.158  11.595
27254W        W99569  14.775   9.360   2.244
27255W        W99570  40.798  16.501   3.745
27256W        W99571  44.029  16.833   4.253
27257W        W99572  10.214  29.017  13.012
27258W        W99573  14.596  17.363  12.399
27259W        W99574  37.594   8.342  14.368
27260W        W99575   2.196   7.335   0.766
27261W        W99576  29.687   6.073   1.655
27262W        W99577   6.367   8.230   4.197
27263W        W99578  29.611  40.110   3.186
27264W        W99579  38.207  36.108  13.463
27265W        W99580   1.866  43.047  14.874
27266W        W99581   6.714   3.782  11.978
27267W        W99582  14.236   7.370   3.208
27268W        W99583  34.568   9.841   2.341
27269W        W99584  38.790  39.906   3.668
27270W        W99585   5.482  20.011  10.735
27271W        W99586   9.838  32.703  14.568
27272W        W99587  18.453   8.260  12.751
27273W        W99588  22.014  31.027   3.785
27274W        W99589  27.948   0.252  14.527
27275W        W99590  20.268  22.526   2.388
27276W        W99591  35.528  34.511   3.902
27277W        W99592   0.986  30.804  12.994
27278W        W99593   3.975  37.506  12.084
27279W        W99594  30.520  38.890  12.311
27280W        W99595  13.018  13.380   2.256
27281W        W99596  43.041  10.879   2.217
27282W        W99597  38.229  10.901  12.635
27283W        W99598  44.176  29.640  13.332
27284W        W99599  12.321  44.968  12.377
27285W        W99600  21.274  41.955   2.695
27286W        W99601  43.569  40.407   3.758
27287W        W99602  35.512  37.973   3.286
27288W        W99603  37.890   7.205   4.129
27289W        W99604  43.551  22.696  11.170
27290W        W99605   6.234  40.881   3.818
27291W        W99606  13.175  27.298  14.420
27292W        W99607   2.228  44.747   3.361
27293W        W99608  27.182  31.066  10.579
27294W        W99609  44.326   1.323  12.451
27295W        W99610  31.370   7.812  12.928
27296W        W99611  33.188  22.236   3.751
27297W        W99612  20.713   9.355  11.501
27298W        W99613  31.325  12.094  14.769
27299W        W99614  33.526  17.835   4.147
27300W        W99615  44.367   1.175  10.520
27301W        W99616  32.060  26.657   3.556
27302W        W99617  30.922  32.634  14.306
27303W        W99618  21.847  16.820  12.933
27304W        W99619   1.480  27.737   3.980
27305W        W99620   3.326  13.833   3.163
27306W        W99621  13.590  43.125  11.041
27307W        W99622  40.403  16.221   1.931
27308W        W99623  29.714  41.682   5.132
27309W        W99624  19.056  39.137  14.899
27310W        W99625  36.016  23.705   0.677
27311W        W99626  36.893  37.039  12.748
27312W        W99627  44.518  27.449  10.301
27313W        W99628   8.414  41.991  14.385
27314W        W99629  20.072  16.016   2.391
27315W        W99630  10.898  30.007  11.693
27316W        W99631  24.914  32.162   0.881
27317W        W99632  30.345  18.141   4.530
27318W        W99633  41.867  32.416   0.924
27319W        W99634   3.184  29.250  13.429
27320W        W99635  35.582  42.434   3.628
27321W        W99636   9.633  40.413   0.937
27322W        W99637  43.737   1.238   1.269
27323W        W99638  20.043  29.059  13.790
27324W        W99639   1.019  25.410   0.566
27325W        W99640   8.320  27.489  12.463
27326W        W99641   6.096  26.706  12.045
27327W        W99642  35.890  31.043  14.340
27328W        W99643  26.255   9.624   0.779
27329W        W99644  18.696   2.258  11.638
27330W        W99645  37.336   5.515   3.857
27331W        W99646  36.008  40.726  11.039
27332W        W99647   9.586   4.456  11.670
27333W        W99648  25.204   5.511  13.542
27334W        W99649  12.442  17.094  14.436
27335W        W99650  23.129  11.744  14.409
27336W        W99651  10.908  13.806   0.880
27337W        W99652  43.619  21.958  14.978
27338W        W99653  24.122   9.361  10.817
27339W        W99654  33.865  42.749  14.325
27340W        W99655  25.294  39.812  13.147
27341W        W99656   9.924   8.116  11.924
27342W        W99657  42.711  29.350  11.097
27343W        W99658   2.976  38.121   3.419
27344W        W99659  25.234   5.643   0.737
27345W        W99660  32.965  11.663   0.237
27346W        W99661  24.747  27.667  11.067
27347W        W99662  35.564   8.496   1.994
27348W        W99663  16.482  27.045   4.173
27349W        W99664  13.593  24.603   0.805
27350W        W99665  39.976   4.591  13.473
27351W        W99666  12.900  40.621  12.433
27352W        W99667  10.730  33.474   0.297
27353W        W99668   5.261  28.885  12.404
27354W        W99669  42.546  15.619  10.935
27355W        W99670  11.070  38.810  12.038
27356W        W99671   0.216  26.077   2.829
27357W        W99672  42.156   8.687  14.219
27358W        W99673  21.273  15.808  14.445
27359W        W99674  41.231  21.669  12.602
27360W        W99675  19.521  23.412  12.047
27361W        W99676  18.212  31.977   4.734
27362W        W99677   9.960  26.011   1.378
27363W        W99678  10.343   7.340  13.984
27364W        W99679  24.429  21.116   0.853
27365W        W99680  19.198  13.073  12.700
27366W        W99681   6.770  26.464  14.798
27367W        W99682  27.833  31.256  14.877
27368W        W99683  10.808  17.088  12.919
27369W        W99684  25.632  14.084  13.551
27370W        W99685   6.010  23.165   0.274
27371W        W99686  27.858  27.091   0.061
27372W        W99687  24.712  43.060   3.626
27373W        W99688  43.975  14.735   0.047
27374W        W99689  36.122   9.625  12.376
27375W        W99690  24.448  36.491   0.609
27376W        W99691   5.659  27.448  13.441
27377W        W99692  26.479  41.334   0.039
27378W        W99693  44.531  16.315   3.712
27379W        W99694   3.872  24.304   4.064
27380W        W99695  33.029  38.973  12.012
27381W        W99696  17.123  15.652   0.789
27382W        W99697  11.679  31.350  13.022
27383W        W99698   1.258  24.666  11.584
27384W        W99699  36.406  24.692  12.444
27385W        W99700  44.260   4.467  11.656
27386W        W99701  13.057  37.978  13.397
27387W        W99702   4.638   7.212  14.240
27388W        W99703  28.714  35.046   3.046
27389W        W99704  16.327  24.980  14.634
27390W        W99705   8.655  36.573  14.896
27391W        W99706  10.477   2.347   0.319
27392W        W99707  26.880  40.041  14.552
27393W        W99708  37.836  43.059   4.514
27394W        W99709  34.161  12.796   0.439
27395W        W99710  27.419  32.342   0.090
27396W        W99711  16.688   6.361   0.278
27397W        W99712  44.013  42.286  13.516
27398W        W99713  22.146  29.516  13.921
27399W        W99714  21.221  22.724   2.447
27400W        W99715  10.619  19.105  10.044
27401W        W99716  10.517   4.031  13.902
27402W        W99717   6.948   5.503   3.080
27403W        W99718  12.103   9.852   0.848
27404W        W99719  43.588  40.877  14.732
27405W        W99720  12.850  35.552   2.349
27406W        W99721  43.379  42.533   1.680
27407W        W99722  19.171  34.301  10.784
27408W        W99723  32.491  36.140   2.234
27409W        W99724   7.879   5.007  14.015
27410W        W99725  40.393  39.815  11.614
27411W        W99726  21.106  37.666  11.560
27412W        W99727  19.033  19.361   2.619
27413W        W99728  11.389  36.426  10.947
27414W        W99729  23.089   7.153  14.466
27415W        W99730   3.729   6.274  10.523
27416W        W99731  21.182  25.099  11.138
27417W        W99732  26.544  24.155   4.120
27418W        W99733  41.500   2.969   0.357
27419W        W99734   0.807   1.250  12.495
27420W        W99735  21.651   3.334  13.962
27421W        W99736  31.479  11.695  11.622
27422W        W99737   0.925  40.860  13.853
27423W        W99738  16.237  14.657  12.895
27424W        W99739  40.580  33.853   0.978
27425W        W99740  16.361  15.741   4.063
27426W        W99741  40.727  10.534  10.614
27427W        W99742  21.133  20.518  12.115
27428W        W99743  44.004  29.928   3.115
27429W        W99744   7.195  19.645  11.662
27430W        W99745  30.639  36.619  13.924
27431W        W99746  20.269  34.022   1.776
27432W        W99747   3.038   1.454  11.038
27433W        W99748  16.015  11.602   4.100
27434W        W99749  28.519  22.830  11.028
27435W        W99750   5.936  43.949   2.933
27436W        W99751   5.759  18.811   4.053
27437W        W99752   7.514  33.100   3.774
27438W        W99753  39.308  30.414  13.777
27439W        W99754   2.612   3.373  12.303
27440W        W99755  21.596  34.258   3.243
27441W        W99756  16.642  37.759   3.639
27442W        W99757  17.850  15.366  12.173
27443W        W99758  13.329   1.383   3.333
27444W        W99759  15.323  18.053  11.606
27445W        W99760  12.508  22.221  14.369
27446W        W99761  35.992  12.192   4.283
27447W        W99762  11.655  24.532   0.012
27448W        W99763  39.954  36.926   3.133
27449W        W99764  44.239  24.413  11.089
27450W        W99765  29.152  35.032   4.781
27451W        W99766  27.219  29.636  14.819
27452W        W99767  17.400  20.411   9.921
27453W        W99768  27.655   4.960  14.523
27454W        W99769  22.012  14.674   1.970
27455W        W99770  17.636  18.357  12.044
27456W        W99771  13.470   0.356  14.484
27457W        W99772   0.678  12.180  14.439
27458W        W99773  34.968  34.370  13.870
27459W        W99774   8.955  19.782   3.665
27460W        W99775  21.813  33.810  14.808
27461W        W99776   7.509  25.309   5.019
27462W        W99777  25.440  31.430   0.857
27463W        W99778  18.276  43.354   1.345
27464W        W99779  29.310  21.562  12.044
27465W        W99780  42.488   6.617  12.859
27466W        W99781   8.133   9.608   4.754
27467W        W99782  44.069  12.831   2.389
27468W        W99783  23.055  38.047  10.745
27469W        W99784  29.046  30.131  14.273
27470W        W99785   6.231  42.743   1.811
27471W        W99786  27.581  20.717   2.204
27472W        W99787  38.851  32.672   2.835
27473W        W99788  43.361  38.517   3.833
27474W        W99789   3.266   0.488  11.647
27475W        W99790  28.634   3.986   2.236
27476W        W99791  37.049  32.605   2.342
27477W        W99792   3.517  27.267  10.839
27478W        W99793  11.788  31.521  11.608
27479W        W99794  15.572  42.508   0.898
27480W        W99795  23.566  20.320   1.297
27481W        W99796   3.880   7.841   4.063
27482W        W99797  32.874  11.903   1.650
27483W        W99798  28.565   9.954   0.850
27484W        W99799  10.259  34.372   3.662
27485W        W99800  24.218  21.657   2.431
27486W        W99801   0.549  19.408   4.203
27487W        W99802  40.239  14.117   0.221
27488W        W99803   9.727  36.523  11.534
27489W        W99804  35.383  39.570  14.823
27490W        W99805   1.750  26.603   0.785
27491W        W99806  32.419  41.510  12.952
27492W        W99807   9.917  26.458   4.562
27493W        W99808  22.189  12.618   3.382
27494W        W99809  42.600  31.223  13.770
27495W        W99810   5.426  32.876  14.817
27496W        W99811  15.587  27.061  14.780
27497W        W99812  13.764  43.582   2.918
27498W        W99813   5.329  21.270  11.155
27499W        W99814  34.476  27.149  14.790
27500W        W99815  42.544  19.272   2.214
27501W        W99816  15.878   7.926   0.864
27502W        W99817  13.643  11.615  11.130
27503W        W99818  14.263  30.473   0.773
27504W        W99819  37.009  14.692  13.900
27505W        W99820  23.587  29.083  13.527
27506W        W99821  15.340   5.810  10.648
27507W        W99822  30.471  10.101   3.300
27508W        W99823  33.331  19.366   0.565
27509W        W99824  25.912  30.173   4.120
27510W        W99825   2.033  11.679  10.539
27511W        W99826  36.490  31.019   1.000
27512W        W99827  21.132  37.044   1.380
27513W        W99828  38.271   2.193  10.935
27514W        W99829  28.244  25.248  13.110
27515W        W99830  37.348  12.681  11.495
27516W        W99831  26.224  19.300   0.900
27517W        W99832   8.699  23.581  13.787
27518W        W99833   7.397  20.437  13.502
27519W        W99834  26.751  40.080   0.381
27520W        W99835  36.622  17.446  12.577
27521W        W99836  17.192   9.361  13.577
27522W        W99837  43.356   8.476  13.453
27523W        W99838  42.645   2.297   2.768
27524W        W99839   3.769  25.189  13.053
27525W        W99840   2.883  18.367  14.313
27526W        W99841  44.837  19.287   2.887
27527W        W99842  28.206  42.889  12.906
27528W        W99843  37.095  17.208  12.657
27529W        W99844  40.352  42.348  14.255
27530W        W99845   8.175  27.505  11.664
27531W        W99846  17.988  16.245   1.416
27532W        W99847   8.744  10.447  13.375
27533W        W99848  17.865   5.329   3.555
27534W        W99849  25.804   5.846  12.370
27535W        W99850   4.619  18.715  10.719
27536W        W99851  30.948  27.976   4.561
27537W        W99852  40.014  41.970   0.404
27538W        W99853  36.637  40.906   0.970
27539W        W99854  36.576  30.887  10.722
27540W        W99855  16.870  20.654  13.619
27541W        W99856  12.763  17.552  11.516
27542W        W99857   1.000   9.350  11.567
27543W        W99858  33.996  22.217  12.337
27544W        W99859  28.699  36.487   1.523
27545W        W99860  25.616  16.105  12.590
27546W        W99861   5.429  44.868  12.028
27547W        W99862  24.102  22.123   1.724
27548W        W99863  32.875  13.574  12.583
27549W        W99864  32.671   8.148   2.696
27550W        W99865  24.561  11.735  13.299
27551W        W99866  17.298   2.372  13.287
27552W        W99867  33.001  30.893   3.176
27553W        W99868   3.622   4.913   4.136
27554W        W99869  27.416  14.670   1.784
27555W        W99870  38.138  30.941  13.920
27556W        W99871   0.645   3.252  11.142
27557W        W99872  36.729  32.131   4.083
27558W        W99873  38.254  34.073  12.444
27559W        W99874  36.603   2.318   3.355
27560W        W99875  36.427   9.108   1.885
27561W        W99876   7.139  26.986  13.564
27562W        W99877  12.240  18.328   2.285
27563W        W99878  31.121  40.114   2.674
27564W        W99879  14.970  17.531  14.789
27565W        W99880  23.724  13.657  13.283
27566W        W99881  28.547  25.929   2.320
27567W        W99882  40.829  35.991   1.245
27568W        W99883  18.107   7.806   3.082
27569W        W99884  25.345  41.918   5.153
27570W        W99885  20.127  14.348  13.457
27571W        W99886  11.189  42.378   2.064
27572W        W99887  27.542   6.750   5.517
27573W        W99888  11.632   4.470   2.556
27574W        W99889  26.510  11.582   1.663
27575W        W99890  19.753   1.746   4.836
27576W        W99891  10.252  38.583  11.116
27577W        W99892   7.294   6.848  10.426
27578W        W99893  21.542  16.674  13.361
27579W        W99894  25.496  25.717   4.567
27580W        W99895  29.944  21.583  12.912
27581W        W99896   6.252  18.041  13.107
27582W        W99897   0.264  24.773   3.185
27583W        W99898   1.839  20.273  14.377
27584W        W99899  22.031  21.962   3.818
27585W        W99900   7.416  31.218   0.873
27586W        W99901  24.529  40.884   2.323
27587W        W99902  16.760  12.902  10.708
27588W        W99903  35.579  22.607   2.853
27589W        W99904  24.408  19.085   3.111
27590W        W99905  31.198  43.476  10.605
27591W        W99906  28.903   0.783   0.136
27592W        W99907  23.194  12.163   2.831
27593W        W99908   9.173  34.375   3.726
27594W        W99909  17.363  32.414   4.294
27595W        W99910  27.586   9.202   3.659
27596W        W99911  24.440  13.214  13.344
27597W        W99912   1.473  13.748   3.800
27598W        W99913  28.459  10.417   0.668
27599W        W99914   0.467  23.093  14.236
27600W        W99915  32.125  35.035  14.566
27601W        W99916  27.070  39.597  10.755
27602W        W99917  17.377  22.941   5.037
27603W        W99918   8.491  19.557   4.560
27604W        W99919  41.113  17.343  10.706
27605W        W99920  22.641  43.537   1.290
27606W        W99921  44.517  20.278   4.652
27607W        W99922  43.400  16.318   0.258
27608W        W99923  26.022  12.668   4.526
27609W        W99924  16.774  33.113   2.105
27610W        W99925  24.703  24.587  11.732
27611W        W99926   0.343  29.208   2.341
27612W        W99927   8.100  22.841   3.371
27613W        W99928  28.385   6.102  14.988
27614W        W99929  12.846  42.815   5.154
27615W        W99930  36.612  19.272  13.996
27616W        W99931  24.539  36.076   0.315
27617W        W99932  44.199   9.389  14.361
27618W        W99933  25.210  19.738  11.611
27619W        W99934  27.923   1.737   2.260
27620W        W99935  43.311  13.566  10.999
27621W        W99936  23.580  28.005  11.341
27622W        W99937  16.499  11.686  14.454
27623W        W99938   6.443   9.191   1.926
27624W        W99939  36.283  34.890   0.399
27625W        W99940  28.964  26.281  13.404
27626W        W99941  21.455  33.532   0.439
27627W        W99942   4.688  16.313   0.788
27628W        W99943  10.469  13.119  10.569
27629W        W99944  29.606  35.201   3.656
27630W        W99945  15.840  25.585  13.940
27631W        W99946  36.566  38.626   2.753
27632W        W99947  22.188  40.436   3.627
27633W        W99948  11.057  41.492   0.964
27634W        W99949   7.861  36.881  10.852
27635W        W99950  15.644  13.827   2.223
27636W        W99951  26.721   2.368  13.460
27637W        W99952   2.949  19.703  11.240
27638W        W99953  41.017  24.202   0.103
27639W        W99954  28.565  42.712   3.746
27640W        W99955  21.687  44.672   2.872
27641W        W99956  39.811  32.901  12.905
27642W        W99957   7.256  32.357  13.057
27643W        W99958   7.388  38.519  13.157
27644W        W99959  10.350   7.317  13.020
27645W        W99960  41.382  35.308  12.991
27646W        W99961  10.430   0.808  11.152
27647W        W99962  33.064  39.514  12.695
27648W        W99963  15.491  17.139   4.110
27649W        W99964  12.709   6.614   0.768
27650W        W99965  43.540  32.394   3.630
27651W        W99966  26.713   5.880  11.897
27652W        W99967  16.505  14.182  13.859
27653W        W99968  30.503  17.574   3.818
27654W        W99969  25.123  40.307  12.940
27655W        W99970  23.512  10.134  12.317
27656W        W99971  30.300  22.860   4.269
27657W        W99972   4.277   3.850  11.679
27658W        W99973  32.952  18.466   2.417
27659W        W99974  40.014  14.614  11.938
27660W        W99975   0.451  26.970  10.630
27661W        W99976  41.180  43.983  11.585
27662W        W99977  30.178  15.172  12.440
27663W        W99978  43.794  39.424   0.691
27664W        W99979   0.946  26.209  11.946
27665W        W99980  38.888   4.431   0.159
27666W        W99981  14.298  17.663  10.723
27667W        W99982  18.125  36.360   3.566
27668W        W99983  39.808  32.679  13.380
27669W        W99984  37.855  20.329  10.737
27670W        W99985  19.962  27.018  11.725
27671W        W99986  17.385  17.406  14.544
27672W        W99987   6.836  11.816  14.411
27673W        W99988  31.850  39.018  12.325
27674W        W99989  24.513  35.109   1.248
27675W        W99990   2.521   8.460  14.722
27676W        W99991  40.260  39.397  12.435
27677W        W99992  24.169  12.238   0.748
27678W        W99993  13.877  19.016   0.930
27679W        W99994  17.636  38.275   4.366
27680W        W99995   8.613  16.588   0.566
27681W        W99996  37.391  24.467  13.542
27682W        W99997   5.970  17.232   2.250
27683W        W99998  44.304  43.779   1.837
27684W        W99999  39.563  14.516   4.361
27685W        W    0  37.145  12.357   4.265
27686W        W    1  15.360   2.399   3.921
27687W        W    2   6.422  37.974   3.318
27688W        W    3  10.738  11.746  12.572
27689W        W    4  29.204  15.798  11.165
27690W        W    5  10.447  27.478  13.305
27691W        W    6  14.487  10.275  10.655
27692W        W    7  15.686  25.080   0.961
27693W        W    8  10.578  29.621   3.952
27694W        W    9  13.708   7.906   0.674
27695W        W   10  32.675   7.213  13.466
27696W        W   11   8.799  30.346   4.614
27697W        W   12  14.659  21.312  10.427
27698W        W   13  11.861  32.490   0.515
27699W        W   14  38.048  13.225  14.459
27700W        W   15  38.849   9.271  11.143
27701W        W   16   3.853  15.512  12.092
27702W        W   17  14.694   5.111  12.326
27703W        W   18  34.422  18.761   3.214
27704W        W   19   0.280   8.849  11.472
27705W        W   20  42.320  16.077  10.972
27706W        W   21  41.622  30.605   4.578
27707W        W   22  35.684   3.521  11.963
27708W        W   23   0.583  32.455  12.078
27709W        W   24  10.167  30.666   3.265
27710W        W   25  25.103   4.834   5.064
27711W        W   26  25.994  30.420   4.995
27712W        W   27   0.413  22.153   1.786
27713W        W   28  26.095   6.651  13.310
27714W        W   29   5.652  25.503   1.711
27715W        W   30  16.725  13.922  13.103
27716W        W   31  42.270   4.403   1.350
27717W        W   32   5.745  15.835   4.600
27718W        W   33  40.597  10.420   2.996
27719W        W   34   4.310  12.427  14.014
27720W        W   35  34.592  39.759   4.209
27721W        W   36  25.125   8.199  14.254
27722W        W   37  29.882  12.303   4.749
27723W        W   38  16.570   8.672  11.120
27724W        W   39  19.672  28.104  14.455
27725W        W   40   3.806  39.805  12.612
27726W        W   41  43.397   4.671   0.356
27727W        W   42  19.513   6.882  12.346
27728W        W   43  10.703   4.779  12.078
27729W        W   44  38.984  13.316   0.410
27730W        W   45  35.636   3.839   2.277
27731W        W   46  35.422  23.076  13.680
27732W        W   47  31.640  18.814   0.142
27733W        W   48  34.113   0.266  13.312
27734W        W   49  22.768  15.361   1.666
27735W        W   50  19.240  16.542   2.292
27736W        W   51  34.583  41.176   4.297
27737W        W   52  40.461   0.323   4.755
27738W        W   53  36.563  42.439   3.217
27739W        W   54  25.598  43.297  14.972
27740W        W   55   8.635  29.016   1.880
27741W        W   56   3.336  39.233  13.543
27742W        W   57  32.559   9.848   1.482
27743W        W   58   9.346  32.373  11.033
27744W        W   59  28.139  13.049  13.063
27745W        W   60  37.591  30.089   3.776
27746W        W   61  42.307  15.187  10.736
27747W        W   62  18.035  12.190  13.969
27748W        W   63  21.775   9.789   0.169
27749W        W   64  11.920  21.556  13.388
27750W        W   65  26.241   4.171  11.910
27751W        W   66  14.381  23.669   2.308
27752W        W   67  36.864  24.936   2.150
27753W        W   68   3.901  17.503  11.267
27754W        W   69   8.423  16.319  12.241
27755W        W   70  27.012  36.987   3.994
27756W        W   71  35.445  33.073   1.671
27757W        W   72  13.761   7.746  11.576
27758W        W   73  34.683  12.596   3.912
27759W        W   74   4.818  22.540   2.318
27760W        W   75  12.752  29.004  14.025
27761W        W   76  25.029  41.744   1.397
27762W        W   77  16.215   6.194   0.453
27763W        W   78  27.075  10.778  10.881
27764W        W   79  32.126   5.654   2.862
27765W        W   80   8.293  14.630   3.743
27766W        W   81  12.832  42.436  11.517
27767W        W   82  26.033  30.333  11.532
27768W        W   83  27.208  42.433   4.286
27769W        W   84  20.551  29.152  14.301
27770W        W   85  34.445  40.139   3.331
27771W        W   86  18.181  30.330   3.771
27772W        W   87  20.161  32.421  12.824
27773W        W   88  12.282  34.902   2.911
27774W        W   89  23.041  25.453  14.286
27775W        W   90  20.571   6.785   3.256
27776W        W   91  18.045  41.299   3.566
27777W        W   92  36.308  40.788  10.556
27778W        W   93  25.008  33.397  14.900
27779W        W   94  44.905  16.105  12.698
27780W        W   95  13.258  19.756   0.967
27781W        W   96  42.304  11.204   3.741
27782W        W   97   3.903  39.972   2.329
27783W        W   98  32.481  20.616  11.055
27784W        W   99   6.604  36.618   0.287
27785W        W  100  38.868   3.699  13.940
27786W        W  101  43.472   4.765   3.855
27787W        W  102   8.538  28.537   1.715
27788W        W  103  10.181  30.069  14.474
27789W        W  104   8.070  39.978  14.088
27790W        W  105  25.721  30.526   4.574
27791W        W  106  30.541  41.783  12.156
27792W        W  107  22.901  20.077  12.980
27793W        W  108  26.625  24.219   3.169
27794W        W  109   4.194   5.176   2.618
27795W        W  110  28.219  20.166   2.174
27796W        W  111  21.735   5.150   1.300
27797W        W  112   9.166  11.115  14.672
27798W        W  113  26.658  14.342   1.135
27799W        W  114   6.513  42.331  11.163
27800W        W  115   9.350  31.155   1.966
27801W        W  116   3.697  38.450   2.355
27802W        W  117   8.318  28.680   4.602
27803W        W  118   6.907  25.676  11.755
27804W        W  119  23.485  35.548  12.868
27805W        W  120  31.177  29.650  13.322
27806W        W  121  23.449  23.098  10.580
27807W        W  122   9.441  33.879  11.092
27808W        W  123  44.350  12.763   0.784
27809W        W  124  16.839  29.070  12.577
27810W        W  125   8.844  40.149  13.050
27811W        W  126  36.487  21.085   4.568
27812W        W  127  20.500  13.813   0.442
27813W        W  128  21.706  33.304  11.892
27814W        W  129  37.144   5.962  14.498
27815W        W  130  32.395  42.236  10.647
27816W        W  131  38.546  20.740   1.314
27817W        W  132  27.766   3.783   9.852
27818W        W  133   2.734  21.384   0.364
27819W        W  134  41.330  44.287  10.927
27820W        W  135  27.471  26.713  13.768
27821W        W  136  43.357  33.635   1.485
27822W        W  137  34.065  35.855  11.156
27823W        W  138  25.555   4.733  14.559
27824W        W  139  30.701  39.419  10.682
27825W        W  140   6.451  36.408  13.053
27826W        W  141  21.818  21.604  10.395
27827W        W  142   9.299  20.139  11.670
27828W        W  143  35.303  34.317   0.769
27829W        W  144  43.069  22.050  11.584
27830W        W  145  31.596  21.001   4.561
27831W        W  146   3.329  23.457   3.696
27832W        W  147  21.311  36.122  11.270
27833W        W  148  14.815   6.559  11.589
27834W        W  149  13.809  39.416   0.267
27835W        W  150  15.684  31.846   0.554
27836W        W  151  19.182  28.524  12.558
27837W        W  152  25.535   3.717  10.615
27838W        W  153  12.584  32.169  14.316
27839W        W  154   4.454  19.309  10.485
27840W        W  155  14.765  37.352  11.159
27841W        W  156  11.635  16.493   1.151
27842W        W  157   8.619  26.806  14.026
27843W        W  158  23.138  27.895   3.485
27844W        W  159  11.800  42.783   2.674
27845W        W  160  23.248  20.999  11.183
27846W        W  161  20.713   3.955   2.645
27847W        W  162  24.880  20.173   0.940
27848W        W  163  25.177  19.130  12.974
27849W        W  164  31.043  25.248  10.359
27850W        W  165   0.359  16.245   3.196
27851W        W  166  26.185  25.079  12.862
27852W        W  167   5.239  26.533   3.391
27853W        W  168  36.936  27.619  11.136
27854W        W  169  15.206  16.717  11.678
27855W        W  170  27.477  17.901  11.964
27856W        W  171  39.734  18.239   2.022
27857W        W  172  20.744   8.325   0.924
27858W        W  173   5.995   7.326  13.955
27859W        W  174  35.161  14.895  14.825
27860W        W  175  38.466   4.994   1.645
27861W        W  176  27.058   6.789  13.323
27862W        W  177   2.677   1.769   0.311
27863W        W  178  26.267   2.796   0.913
27864W        W  179   5.489   7.806   4.214
27865W        W  180   1.452  30.287   0.081
27866W        W  181  43.998   0.362  10.482
27867W        W  182  40.841  10.976   3.246
27868W        W  183   7.908  29.076  10.643
27869W        W  184   7.690  37.032   1.439
27870W        W  185  15.670  34.524   4.262
27871W        W  186  43.883   0.698  12.605
27872W        W  187  10.082   8.631  13.018
27873W        W  188  13.554   7.477   0.909
27874W        W  189  34.601  13.173  10.609
27875W        W  190  29.368  41.887  14.820
27876W        W  191   6.333   1.993   4.225
27877W        W  192  43.212   9.924   1.368
27878W        W  193   9.081  43.709  13.319
27879W        W  194  40.339  11.220  14.316
27880W        W  195  37.153  11.638   2.177
27881W        W  196  16.355  42.008  14.611
27882W        W  197  29.640  43.029   2.156
27883W        W  198   5.346  18.825  12.431
27884W        W  199  37.458  19.760   2.361
27885W        W  200  24.932   2.356   2.809
27886W        W  201  18.610  10.139  13.209
27887W        W  202   1.671  37.414  12.828
27888W        W  203  42.715  37.520  14.409
27889W        W  204  44.076  11.319   5.204
27890W        W  205  13.212  18.189   0.820
27891W        W  206  14.793  42.381   1.260
27892W        W  207  14.251  33.070  10.251
27893W        W  208   4.454   3.982   1.304
27894W        W  209  19.574  44.648  10.713
27895W        W  210  17.959  33.452   3.336
27896W        W  211  41.179   5.175   2.253
27897W        W  212  24.147   1.918  12.911
27898W        W  213  39.489   9.693   1.297
27899W        W  214   6.429  41.891  11.649
27900W        W  215   9.156  11.657   2.675
27901W        W  216   1.933  37.898  11.278
27902W        W  217  24.766   1.402   2.889
27903W        W  218   7.664  35.053  11.913
27904W        W  219  21.803  19.712  12.090
27905W        W  220   0.550  41.466   1.327
27906W        W  221  25.831  20.853  12.000
27907W        W  222  31.575  10.681  10.837
27908W        W  223  16.510   2.950  11.449
27909W        W  224  20.331  20.175  13.998
27910W        W  225  20.282  33.639  11.999
27911W        W  226   9.568   0.868  12.846
27912W        W  227   1.240  36.116   4.112
27913W        W  228  30.980  37.550   1.766
27914W        W  229  20.445  29.522   2.324
27915W        W  230  17.955  26.597  13.263
27916W        W  231   8.810  13.771   2.414
27917W        W  232  35.471  19.730   1.313
27918W        W  233  23.106  11.791   3.813
27919W        W  234   6.331  36.931  13.096
27920W        W  235  40.273  40.449   4.532
27921W        W  236  13.852  12.385   4.839
27922W        W  237   2.193  31.036   3.752
27923W        W  238   1.551  28.852  13.553
27924W        W  239  39.233  11.088  12.474
27925W        W  240   4.260  17.690   1.850
27926W        W  241  31.927  29.014   3.094
27927W        W  242  18.035  42.376  14.790
27928W        W  243   8.189  19.797  11.361
27929W        W  244  13.184   0.539   3.029
27930W        W  245   2.709  42.871   0.902
27931W        W  246  27.082  44.404  13.539
27932W        W  247  24.208  35.554   2.994
27933W        W  248  13.311  37.377   5.006
27934W        W  249  28.399  25.457  10.696
27935W        W  250  20.708  15.641  11.168
27936W        W  251  24.809  34.435  12.034
27937W        W  252  28.858   4.799   4.174
27938W        W  253  22.645  21.623  13.281
27939W        W  254  17.757  43.430   2.792
27940W        W  255  27.521   6.981  10.764
27941W        W  256  39.892  13.120  12.565
27942W        W  257  12.903  42.295  13.504
27943W        W  258  12.785  38.470  10.739
27944W        W  259  35.109  16.786   1.308
27945W        W  260  13.461  42.578  14.345
27946W        W  261  32.854  15.885   1.575
27947W        W  262   9.632  12.613   0.277
27948W        W  263   9.927  15.560  12.266
27949W        W  264  41.781  41.289   5.017
27950W        W  265   1.278  14.788  11.991
27951W        W  266  21.984  17.590   0.427
27952W        W  267   4.419  36.647  13.937
27953W        W  268  33.126  32.626   1.903
27954W        W  269  26.706  34.867  13.455
27955W        W  270   0.285  34.798  12.142
27956W        W  271  30.693  34.607   0.880
27957W        W  272  44.566  23.067   3.067
27958W        W  273  42.874  29.716  11.615
27959W        W  274  40.362   7.068  12.155
27960W        W  275  21.549  39.373  11.885
27961W        W  276  40.694  30.575   4.988
27962W        W  277  22.239  15.022   0.993
27963W        W  278   9.414   1.818   0.907
27964W        W  279   6.900   8.302   1.728
27965W        W  280  37.342  24.440   4.906
27966W        W  281  35.969  33.115   4.580
27967W        W  282  33.618  32.392   0.412
27968W        W  283   8.158  16.091  10.261
27969W        W  284  39.807  35.294  14.432
27970W        W  285  41.339  34.492   2.721
27971W        W  286  41.447  42.569  11.080
27972W        W  287  33.156  24.188  14.222
27973W        W  288  35.983  39.073  13.945
27974W        W  289  33.220   0.971   3.793
27975W        W  290   5.173  29.436  11.104
27976W        W  291  20.006   1.282   3.111
27977W        W  292  29.107  41.314   2.663
27978W        W  293  37.820   6.344   4.118
27979W        W  294  30.061  13.721   4.403
27980W        W  295  21.151  19.618   2.854
27981W        W  296  25.128  14.130  13.712
27982W        W  297  40.138  13.182  13.021
27983W        W  298  42.379  24.414  14.375
27984W        W  299  25.549   3.972  13.806
27985W        W  300  18.778   7.479  12.193
27986W        W  301  17.326  39.952   1.814
27987W        W  302  19.213  26.456  13.913
27988W        W  303  14.948  34.400  14.706
27989W        W  304   8.282   6.320  10.938
27990W        W  305  27.704  42.836  12.966
27991W        W  306  31.429  20.645   3.464
27992W        W  307  18.716  38.363   0.365
27993W        W  308  34.002  33.922  11.712
27994W        W  309  29.252   1.064   4.848
27995W        W  310  35.914  17.736   1.809
27996W        W  311   1.188  22.802   3.319
27997W        W  312  24.579  24.601   3.718
27998W        W  313  15.416   6.262  12.745
27999W        W  314  21.003  35.485  11.939
28000W        W  315  18.627  11.664   3.821
28001W        W  316  25.190  13.191  12.010
28002W        W  317  37.321  44.176  12.221
28003W        W  318   5.677  17.108  12.375
28004W        W  319  31.492   2.276   1.480
28005W        W  320  21.762   6.647   2.802
28006W        W  321  14.132  16.075  10.581
28007W        W  322  39.348  25.704   5.310
28008W        W  323  35.375  41.941  11.588
28009W        W  324  42.811  11.611  14.847
28010W        W  325  20.210  35.886  14.920
28011W        W  326  42.991  36.618  13.853
28012W        W  327  19.346   9.021   4.200
28013W        W  328   0.441  12.073   5.107
28014W        W  329   1.945  32.440  10.658
28015W        W  330  43.057  24.643   3.944
28016W        W  331  41.456  22.369   2.330
28017W        W  332  20.424  14.729   4.393
28018W        W  333  11.579  23.532   3.700
28019W        W  334  23.486  13.330  12.385
28020W        W  335   3.490  37.833  12.870
28021W        W  336  15.833   8.818  14.014
28022W        W  337   5.217  16.047  14.784
28023W        W  338  20.154  24.594  10.982
28024W        W  339   7.892   7.164   0.020
28025W        W  340  33.846  21.466  11.845
28026W        W  341  27.764   9.104  11.531
28027W        W  342  19.808   3.158   1.765
28028W        W  343  38.406  25.863  14.301
28029W        W  344  16.690   3.941  13.081
28030W        W  345  35.168  33.051   4.162
28031W        W  346  42.946  28.256   1.615
28032W        W  347  37.804  15.093  13.096
28033W        W  348  28.751  26.125  12.822
28034W        W  349  41.258  12.787   1.277
28035W        W  350  41.835  10.852   3.023
28036W        W  351  15.556  28.218   1.284
28037W        W  352  28.717  10.087   0.356
28038W        W  353  23.157  26.670   0.340
28039W        W  354  20.270  37.600  12.241
28040W        W  355  20.009  38.127  13.675
28041W        W  356  43.259  26.656   3.682
28042W        W  357  31.571   2.941   0.246
28043W        W  358  19.715  29.410  10.693
28044W        W  359  35.579  12.322  14.301
28045W        W  360  10.241  11.086  11.526
28046W        W  361  16.360  33.982   1.875
28047W        W  362  44.231  32.804  12.064
28048W        W  363   7.883  31.505  13.838
28049W        W  364  17.201  22.040   4.786
28050W        W  365  42.961   6.905  12.396
28051W        W  366   9.342  36.556   0.374
28052W        W  367  44.882  32.877   1.798
28053W        W  368  40.504  19.263  11.434
28054W        W  369  14.382   2.050   5.032
28055W        W  370  28.188  36.625  14.947
28056W        W  371  18.100   8.156  13.101
28057W        W  372  26.352   1.046  14.107
28058W        W  373  43.049  24.174   1.154
28059W        W  374   0.997  20.850   1.701
28060W        W  375  43.007  26.565   2.757
28061W        W  376  11.705  16.591   3.707
28062W        W  377  35.082  22.426   0.979
28063W        W  378  33.199   9.332   1.999
28064W        W  379   6.185  34.181   3.160
28065W        W  380  25.953  37.121   4.115
28066W        W  381  24.625  25.585  13.612
28067W        W  382  39.078  39.809   4.605
28068W        W  383  25.221   1.671   4.763
28069W        W  384  33.305  30.077   0.723
28070W        W  385  25.505  17.191   3.640
28071W        W  386   4.001  43.465  12.871
28072W        W  387  11.191  18.339   0.000
28073W        W  388  38.906  35.720  10.544
28074W        W  389  43.639  31.208   1.427
28075W        W  390  44.263  21.698   3.681
28076W        W  391  44.183  38.840  13.586
28077W        W  392   5.789  40.930  11.720
28078W        W  393  28.592  21.210  11.464
28079W        W  394   9.775   8.455   0.653
28080W        W  395  14.560  43.779   4.686
28081W        W  396  38.867  25.550  11.742
28082W        W  397  19.579  10.681   1.396
28083W        W  398  27.205   9.569   4.517
28084W        W  399  17.757  17.940   0.338
28085W        W  400  31.178  12.849   4.104
28086W        W  401  16.287  42.015  11.103
28087W        W  402  26.016   3.712  11.894
28088W        W  403  34.401   8.460  11.687
28089W        W  404  23.265  10.401   4.130
28090W        W  405  38.429  28.181   0.167
28091W        W  406  17.321  32.582  12.407
28092W        W  407  11.144  29.039  12.925
28093W        W  408   8.319   2.484  10.980
28094W        W  409   2.181  39.863   0.277
28095W        W  410  15.437  24.542   4.969
28096W        W  411  13.759   1.857   1.248
28097W        W  412  44.742  19.593  13.863
28098W        W  413  12.032  11.566  12.387
28099W        W  414  32.421  13.137   3.680
28100W        W  415  41.349  42.730   2.237
28101W        W  416  38.214  21.498   4.128
28102W        W  417  41.529   8.947   1.536
28103W        W  418  37.107   3.896   4.236
28104W        W  419  34.400  10.864  12.080
28105W        W  420  38.963  35.763  12.456
28106W        W  421  36.505  42.293   3.719
28107W        W  422  21.849  40.083   1.839
28108W        W  423   3.721  11.849   0.716
28109W        W  424  20.085   1.744  10.732
28110W        W  425   7.653   1.856  12.435
28111W        W  426  21.133  21.997  11.617
28112W        W  427  17.407  14.021  10.681
28113W        W  428  37.043  23.163  11.366
28114W        W  429  18.153   2.237  12.514
28115W        W  430   0.888   9.155   0.935
28116W        W  431  33.259  44.226  12.980
28117W        W  432  18.752  35.119   3.279
28118W        W  433  12.131  23.764   0.836
28119W        W  434  38.650  43.450   1.905
28120W        W  435  34.583  13.050   3.749
28121W        W  436  22.779   6.198  12.516
28122W        W  437  42.253  41.986   2.486
28123W        W  438  39.419   5.087  14.924
28124W        W  439  21.593   9.209  12.486
28125W        W  440  11.948  35.100   4.574
28126W        W  441  34.849  38.865   2.891
28127W        W  442  27.580  34.944   0.434
28128W        W  443   4.231  12.227  14.485
28129W        W  444  32.494   2.927  11.423
28130W        W  445  18.433  22.719   4.847
28131W        W  446  16.024  39.356   4.409
28132W        W  447  19.639  35.104  13.023
28133W        W  448  29.169   9.880   3.927
28134W        W  449   2.543  23.947   4.665
28135W        W  450  44.583   2.859   5.046
28136W        W  451   8.301  16.064   4.392
28137W        W  452  38.809   0.292  14.970
28138W        W  453  17.070  26.641   0.978
28139W        W  454  44.149  27.018  13.433
28140W        W  455  10.121  35.470   2.745
28141W        W  456  23.897  41.092   2.884
28142W        W  457  37.492  44.833  13.056
28143W        W  458   2.231   3.329   4.659
28144W        W  459  25.506  20.614   1.120
28145W        W  460  34.133  12.163  12.640
28146W        W  461  32.160   0.794  13.898
28147W        W  462  34.550   4.465  11.425
28148W        W  463  42.499  39.949  14.081
28149W        W  464   8.202  19.833   3.252
28150W        W  465  29.944   2.322  12.875
28151W        W  466  12.640  23.916   0.905
28152W        W  467  23.018  26.231  13.932
28153W        W  468  24.559  24.774   3.229
28154W        W  469   9.759  17.017   1.804
28155W        W  470   4.564  22.045  12.083
28156W        W  471  23.933  38.715   1.499
28157W        W  472  21.370  14.664  12.401
28158W        W  473  36.093  39.352   3.234
28159W        W  474  29.939  14.730   1.877
28160W        W  475  29.220  31.551  14.124
28161W        W  476  38.080  39.861   4.326
28162W        W  477  42.335  21.785  11.077
28163W        W  478  34.343  37.474   4.961
28164W        W  479  16.877  36.059   4.259
28165W        W  480   6.467  43.948   2.279
28166W        W  481  22.653  25.148  14.036
28167W        W  482  21.622  42.792  14.446
28168W        W  483   3.981  32.735  11.819
28169W        W  484  15.707  29.685   5.167
28170W        W  485   9.858  35.024   3.446
28171W        W  486   4.743  44.718  13.609
28172W        W  487   0.011  11.564   1.007
28173W        W  488  23.535   0.913  12.455
28174W        W  489  30.328  11.871  12.952
28175W        W  490  28.409  41.939   4.657
28176W        W  491  43.037  36.464  10.709
28177W        W  492  42.374  18.221  11.457
28178W        W  493  10.158  17.475  14.531
28179W        W  494  17.771  19.784  12.143
28180W        W  495   6.661   5.913  14.769
28181W        W  496  16.861  31.107  13.029
28182W        W  497  27.431  40.852   0.939
28183W        W  498  40.465  31.867  11.166
28184W        W  499   8.667  12.335   4.642
28185W        W  500  35.877  14.183   1.709
28186W        W  501   9.654  20.322   4.098
28187W        W  502  41.794  22.786  13.816
28188W        W  503  35.645   0.816   1.964
28189W        W  504  38.519  17.302  11.810
28190W        W  505  22.400   1.849   2.917
28191W        W  506  29.150  44.288  14.478
28192W        W  507  20.664  19.492  13.434
28193W        W  508  33.302  14.822  14.775
28194W        W  509  23.988  10.167  12.516
28195W        W  510  25.706  44.883   4.358
28196W        W  511  31.926   7.504   3.659
28197W        W  512  30.584  15.259   3.115
28198W        W  513  44.385  16.566   2.837
28199W        W  514  27.173  38.234   1.355
28200W        W  515  16.798  14.118  12.632
28201W        W  516  28.054   8.315   4.762
28202W        W  517   0.957  41.676  13.334
28203W        W  518  33.943   7.890  12.902
28204W        W  519  13.815  25.796   3.998
28205W        W  520  36.341  20.303  12.277
28206W        W  521  41.886  37.000   0.190
28207W        W  522  40.590  11.818   1.719
28208W        W  523  30.630  36.628  13.024
28209W        W  524   5.176  41.814  11.183
28210W        W  525   1.266  23.291  13.244
28211W        W  526  22.761  40.947   0.951
28212W        W  527  33.056   2.761   3.998
28213W        W  528  10.231  17.049  10.285
28214W        W  529   1.954  23.177  13.842
28215W        W  530  42.738   6.788   0.761
28216W        W  531  43.526   6.907  10.649
28217W        W  532  29.408  44.049   2.191
28218W        W  533   1.503  40.508   4.210
28219W        W  534  10.244   5.973   4.365
28220W        W  535  16.165  24.201   2.763
28221W        W  536  42.508  25.269   3.948
28222W        W  537  38.049  34.840  11.061
28223W        W  538  27.243  16.055   4.639
28224W        W  539   0.264  22.507  10.402
28225W        W  540  39.986  32.027  12.460
28226W        W  541  13.706  20.749   2.931
28227W        W  542  22.715  40.293   2.993
28228W        W  543   0.746  32.438   4.189
28229W        W  544  10.649   1.437   3.194
28230W        W  545  28.380  18.278  13.517
28231W        W  546  21.081   8.890  12.532
28232W        W  547   2.349  44.972   4.422
28233W        W  548  10.247  33.845   2.123
28234W        W  549  16.490  42.438   3.877
28235W        W  550  31.465  42.806  11.600
28236W        W  551  21.528  13.857   0.515
28237W        W  552  42.063  27.624  12.109
28238W        W  553   9.855  36.278   4.053
28239W        W  554  14.141  17.164   2.731
28240W        W  555  14.446  35.571  14.404
28241W        W  556  40.721   8.303   0.768
28242W        W  557  29.204  28.109   2.970
28243W        W  558  14.540  42.078  11.525
28244W        W  559   7.263   9.389   3.114
28245W        W  560  19.594  11.337   0.064
28246W        W  561   3.263  24.991   1.033
28247W        W  562  37.792  18.435   1.842
28248W        W  563  22.112  44.994   2.725
28249W        W  564  13.305  40.890  12.231
28250W        W  565  27.905  27.818   5.056
28251W        W  566  31.519   2.234   4.366
28252W        W  567  17.389  12.151   2.355
28253W        W  568  42.131  34.243  13.456
28254W        W  569  22.683  19.117   0.859
28255W        W  570   5.404  16.127   3.874
28256W        W  571  15.641  37.614   3.540
28257W        W  572  31.572  18.711   4.692
28258W        W  573  36.997  28.657   1.786
28259W        W  574  39.449  40.818   0.964
28260W        W  575  29.993  37.096  11.990
28261W        W  576  17.369   4.974  11.850
28262W        W  577  39.276   0.052   1.437
28263W        W  578  28.430  34.026  12.713
28264W        W  579  21.925  12.270  11.420
28265W        W  580  24.684  41.969  12.604
28266W        W  581  23.794  12.651  13.883
28267W        W  582   0.331   8.642  13.830
28268W        W  583  22.143  30.120   3.902
28269W        W  584  28.415  23.591  14.513
28270W        W  585  13.590  20.292  11.684
28271W        W  586  11.176  15.880  13.596
28272W        W  587  26.690  39.012   2.863
28273W        W  588  24.288  23.100   0.771
28274W        W  589  19.068  31.654   0.890
28275W        W  590   1.324  13.678   3.297
28276W        W  591   7.512  17.058  13.389
28277W        W  592   3.501  30.565   2.755
28278W        W  593  31.374  42.278  10.726
28279W        W  594   8.937   2.800  14.533
28280W        W  595  43.503  37.085   3.612
28281W        W  596  38.086  42.369   0.467
28282W        W  597   4.941  21.914   3.695
28283W        W  598  10.623  22.603   4.275
28284W        W  599  20.164  32.718   1.829
28285W        W  600  21.221  17.079   3.417
28286W        W  601  12.523  37.485   3.415
28287W        W  602  34.211   5.838  14.097
28288W        W  603  20.541  28.041   2.313
28289W        W  604  43.152   7.494  11.377
28290W        W  605  26.198  16.862  14.398
28291W        W  606  30.265  42.740   0.743
28292W        W  607  22.760  23.011   4.179
28293W        W  608   4.258  41.190   0.761
28294W        W  609  41.238  28.225  12.836
28295W        W  610  28.500  42.191  13.821
28296W        W  611  39.933   4.029  14.456
28297W        W  612  13.447   9.789  11.076
28298W        W  613   7.542  11.147  14.221
28299W        W  614  19.704  36.095   4.810
28300W        W  615  10.909  40.432   0.866
28301W        W  616  11.821   0.870   2.797
28302W        W  617  25.023  36.323   3.264
28303W        W  618  24.033  22.450  10.952
28304W        W  619  28.560  42.186  11.826
28305W        W  620   8.289   7.685  10.634
28306W        W  621  43.434  15.766   4.323
28307W        W  622   0.336   2.793   2.784
28308W        W  623  24.528  24.033   2.863
28309W        W  624   2.273  14.187   2.244
28310W        W  625  29.328   3.352  12.174
28311W        W  626  41.628  21.019  13.121
28312W        W  627  26.958  41.309  13.744
28313W        W  628  37.594  21.252  11.742
28314W        W  629  36.773  26.482   3.296
28315W        W  630  29.169  21.022   2.804
28316W        W  631  26.564   2.848  13.797
28317W        W  632  10.376  38.891  11.537
28318W        W  633  41.306  28.030  11.959
28319W        W  634  22.338  30.585  12.064
28320W        W  635   4.190  24.358   3.237
28321W        W  636   3.179   4.168  14.388
28322W        W  637  17.799  18.386   0.084
28323W        W  638  36.020  16.027   0.638
28324W        W  639  22.523  31.110   2.603
28325W        W  640  32.094   4.019  11.612
28326W        W  641   9.361  34.573  14.948
28327W        W  642  16.735  39.822   4.247
28328W        W  643  29.419   8.956  11.168
28329W        W  644   6.451  41.653   0.403
28330W        W  645  38.370  28.517   2.011
28331W        W  646  21.075  40.211  13.052
28332W        W  647   6.321  25.535   3.914
28333W        W  648   4.859  15.699   1.923
28334W        W  649  29.847  18.107  11.969
28335W        W  650  22.279  38.945  13.894
28336W        W  651  18.627   2.700   3.763
28337W        W  652   2.940  23.918  13.760
28338W        W  653  20.194  28.506  13.522
28339W        W  654  18.097  19.584   0.778
28340W        W  655  15.429  25.434  12.503
28341W        W  656   6.744  25.854   3.773
28342W        W  657  44.335   0.075   3.903
28343W        W  658  23.819  11.076  14.621
28344W        W  659  15.820  37.018  12.875
28345W        W  660  22.685  17.044  14.984
28346W        W  661   2.153  35.836   5.520
28347W        W  662  11.789  22.553   1.670
28348W        W  663  37.389   8.208   1.597
28349W        W  664  42.338  19.738   4.708
28350W        W  665  20.667   9.232  13.873
28351W        W  666  20.846  35.659   2.734
28352W        W  667  33.017  34.534   2.678
28353W        W  668  10.256   3.492   1.904
28354W        W  669   0.599  41.905  11.620
28355W        W  670  38.283  38.773  10.766
28356W        W  671   4.899   6.820  14.471
28357W        W  672  21.180  23.233  14.011
28358W        W  673  14.633  12.315  14.354
28359W        W  674   5.458   1.910   1.481
28360W        W  675  10.402  10.593   0.370
28361W        W  676   0.888  12.601  13.615
28362W        W  677  17.717  11.264   4.574
28363W        W  678  41.300  38.063   4.788
28364W        W  679   6.937  15.840  14.525
28365W        W  680  14.605  33.582  13.952
28366W        W  681  26.087  27.553  10.453
28367W        W  682  34.062  31.580   0.396
28368W        W  683  13.130  24.464   2.822
28369W        W  684  39.532  35.411   1.308
28370W        W  685  38.993  14.697   2.317
28371W        W  686  26.172  31.251   5.075
28372W        W  687  11.338  14.425   3.696
28373W        W  688  44.372  38.554  11.199
28374W        W  689  38.922  41.438  13.956
28375W        W  690  31.495  15.987   1.539
28376W        W  691  33.942  26.242  11.904
28377W        W  692   8.300  15.783  14.453
28378W        W  693  23.661   6.945  11.898
28379W        W  694   7.218  41.509   4.735
28380W        W  695   1.849  30.020   0.891
28381W        W  696  36.193  16.067   1.157
28382W        W  697  30.459   9.161  11.579
28383W        W  698  20.251  39.553  12.946
28384W        W  699  42.259   4.819   3.306
28385W        W  700   3.247   5.233  14.345
28386W        W  701  18.766  25.412  11.049
28387W        W  702  17.234  42.008   2.753
28388W        W  703   7.178  34.177   0.276
28389W        W  704  10.265   8.187  14.389
28390W        W  705   7.865  42.026   1.042
28391W        W  706   5.477  16.067   2.237
28392W        W  707  24.046  16.122   0.906
28393W        W  708  27.091   9.323  12.108
28394W        W  709  39.595   4.429   3.775
28395W        W  710  19.716  24.672   1.313
28396W        W  711  27.126   0.355  12.610
28397W        W  712   3.786  40.538   1.640
28398W        W  713  29.748  30.172   0.370
28399W        W  714   9.405   2.398  11.498
28400W        W  715   8.295  24.200  13.595
28401W        W  716  30.118  22.654  14.862
28402W        W  717  32.682  32.023   3.280
28403W        W  718   4.769  37.335  13.442
28404W        W  719  43.677  35.284   4.912
28405W        W  720  20.124  17.271  12.028
28406W        W  721  14.673   6.235   3.206
28407W        W  722  17.127  13.279   0.302
28408W        W  723  30.538  43.308  14.425
28409W        W  724  34.357  14.552   0.389
28410W        W  725  43.563  39.014  14.779
28411W        W  726  16.620  26.659  10.721
28412W        W  727  37.219  36.557  13.804
28413W        W  728  20.653   8.525  11.901
28414W        W  729   5.366  10.247   4.849
28415W        W  730  39.819  37.060  11.385
28416W        W  731  26.003  30.975  12.399
28417W        W  732   0.568  44.463   4.902
28418W        W  733  25.284  18.514   0.270
28419W        W  734  40.968  26.629  13.541
28420W        W  735   8.923   1.888  13.452
28421W        W  736  13.753  36.499   3.758
28422W        W  737  40.134   6.476  12.719
28423W        W  738  10.445  19.298  14.994
28424W        W  739   4.181  15.506  11.698
28425W        W  740   7.923  39.838   4.439
28426W        W  741  31.893  39.498   0.253
28427W        W  742   7.703  43.808   0.366
28428W        W  743  33.498  11.943  12.809
28429W        W  744  36.462   6.224  13.219
28430W        W  745  27.429  19.980   0.450
28431W        W  746  39.989  23.592   3.522
28432W        W  747  11.431   3.770  12.405
28433W        W  748   5.403  16.779  13.295
28434W        W  749   4.890  27.375  12.252
28435W        W  750  27.742   4.449  10.514
28436W        W  751  18.153  13.656  12.055
28437W        W  752  33.062  15.269  14.670
28438W        W  753  25.412  36.980   2.805
28439W        W  754  34.912  18.085  14.755
28440W        W  755  13.833  11.390   1.015
28441W        W  756   0.277  21.784   2.303
28442W        W  757  37.811  41.371   1.345
28443W        W  758  14.217  31.043   4.108
28444W        W  759  12.816   5.792  14.337
28445W        W  760  34.576  10.812   2.387
28446W        W  761   4.270  22.330   0.870
28447W        W  762   8.972   9.169   4.920
28448W        W  763  42.762  30.860   4.657
28449W        W  764  24.572  34.195   2.223
28450W        W  765  18.258  35.432  11.197
28451W        W  766  41.433  32.078   0.110
28452W        W  767  29.538   6.350  10.069
28453W        W  768   5.154  30.551   4.703
28454W        W  769  17.678  30.634  13.456
28455W        W  770   6.336   2.054  13.726
28456W        W  771  15.577  25.559  13.005
28457W        W  772  36.651  40.689  11.871
28458W        W  773  22.963  38.485   3.326
28459W        W  774  24.108  31.345   2.172
28460W        W  775  17.076  11.270  12.380
28461W        W  776  38.471  16.170  14.327
28462W        W  777   8.333  14.689   0.457
28463W        W  778   5.856  29.900   1.136
28464W        W  779   0.330  22.440  11.141
28465W        W  780  37.333  30.707  14.890
28466W        W  781  29.798  13.925   2.257
28467W        W  782  12.426  16.608  13.413
28468W        W  783  16.502   3.464  12.150
28469W        W  784  27.649  32.651  13.579
28470W        W  785  13.278   3.662  11.195
28471W        W  786  36.709  20.591   2.204
28472W        W  787  30.934   3.565  13.396
28473W        W  788  12.356  18.612   2.701
28474W        W  789  30.566  29.239   3.695
28475W        W  790  26.231  32.966   4.758
28476W        W  791   0.149   1.966   1.499
28477W        W  792  43.890  30.178  13.495
28478W        W  793  19.872  40.476   3.703
28479W        W  794  27.647  27.385   0.894
28480W        W  795   0.504   9.131   9.815
28481W        W  796  23.792  11.274   2.091
28482W        W  797   2.630   2.272  14.340
28483W        W  798  30.985   9.549   2.396
28484W        W  799  13.906  43.251  13.066
28485W        W  800  29.025  12.438   1.368
28486W        W  801   4.153  37.965   4.379
28487W        W  802   9.003  21.673   1.866
28488W        W  803  16.678  26.453  13.161
28489W        W  804  31.986  24.032   4.554
28490W        W  805   8.316  32.451   3.682
28491W        W  806   3.884   5.741   1.335
28492W        W  807  26.949  11.650  10.275
28493W        W  808  31.298  27.532  12.868
28494W        W  809  39.543  27.380  14.848
28495W        W  810  22.179  36.591   0.064
28496W        W  811  13.121   8.260   1.834
28497W        W  812  17.529  22.081  14.874
28498W        W  813  18.287  24.707   0.963
28499W        W  814  44.121  34.650  12.769
28500W        W  815  36.626  43.360  12.111
28501W        W  816   2.133  23.193   0.684
28502W        W  817  13.360  39.046   1.142
28503W        W  818  17.212  29.625  11.633
28504W        W  819  28.925   8.185  14.417
28505W        W  820  23.160  27.076  11.577
28506W        W  821  43.160  42.637   0.732
28507W        W  822  17.713   0.952   0.267
28508W        W  823  17.252  24.104  10.946
28509W        W  824  14.609   7.837   1.284
28510W        W  825  19.347  37.993   1.405
28511W        W  826  27.495  19.696  13.814
28512W        W  827  41.556  35.014   4.176
28513W        W  828  21.946  27.158  14.310
28514W        W  829   3.328   3.914  12.620
28515W        W  830  22.762  38.009  11.206
28516W        W  831  30.517  19.754  14.487
28517W        W  832  12.182  19.809  11.087
28518W        W  833  21.620  30.236   4.118
28519W        W  834  35.186  15.609  13.446
28520W        W  835  23.173   1.444  14.010
28521W        W  836   1.432  30.086  12.605
28522W        W  837  42.773  44.358   3.856
28523W        W  838  43.487  20.623  12.625
28524W        W  839  24.972  15.702   1.781
28525W        W  840  10.460  19.693  12.002
28526W        W  841  24.494   1.300  10.615
28527W        W  842  14.004   0.454  13.184
28528W        W  843  32.049   2.040   2.178
28529W        W  844   7.534   6.712   3.911
28530W        W  845  41.288  31.550   1.830
28531W        W  846  10.105   3.460  11.048
28532W        W  847  17.767  39.103  11.823
28533W        W  848   1.342  19.277   2.410
28534W        W  849  30.325   6.662  10.680
28535W        W  850  35.007  20.392  11.873
28536W        W  851   0.841   1.987   2.071
28537W        W  852  15.007  24.094   4.452
28538W        W  853  33.473   0.034   4.123
28539W        W  854  24.218  11.674  11.369
28540W        W  855   7.375  28.166   4.165
28541W        W  856   5.741  17.809   0.485
28542W        W  857  21.021   0.145  14.239
28543W        W  858  17.672  37.450   1.720
28544W        W  859   7.258   8.128   3.733
28545W        W  860  37.587  28.451  11.241
28546W        W  861  39.376   9.448   1.748
28547W        W  862  22.547   4.869  11.952
28548W        W  863  16.136  36.379   1.421
28549W        W  864  35.580  40.469   3.742
28550W        W  865  20.562  39.444   0.479
28551W        W  866  19.583   9.877  13.550
28552W        W  867   2.324  25.057  12.401
28553W        W  868  34.844  14.726   4.955
28554W        W  869  35.383  40.989   3.774
28555W        W  870  12.108   9.763  11.584
28556W        W  871  15.940  14.159  12.495
28557W        W  872  35.300  29.098  11.698
28558W        W  873  29.380   4.844   2.254
28559W        W  874  10.846  14.313  12.750
28560W        W  875  35.676  13.279   4.593
28561W        W  876  14.566   8.780  12.855
28562W        W  877  15.673  15.680  13.969
28563W        W  878  39.035  28.277  13.223
28564W        W  879  39.247  18.893   3.578
28565W        W  880  21.649  21.575   1.681
28566W        W  881  12.194  36.442   4.812
28567W        W  882  39.753   7.356   1.427
28568W        W  883  21.310   6.253   0.726
28569W        W  884  29.545   7.024  14.511
28570W        W  885  16.546   0.007   4.243
28571W        W  886   1.591  41.908   1.012
28572W        W  887  23.311  26.598   1.219
28573W        W  888   0.544  12.842   4.226
28574W        W  889  36.025  23.134   1.458
28575W        W  890  10.309  42.845  11.961
28576W        W  891  17.856  16.032  12.430
28577W        W  892  40.096  32.005   0.735
28578W        W  893  19.673  33.590   4.140
28579W        W  894  17.372  37.781  10.651
28580W        W  895  42.820  33.808   4.215
28581W        W  896   5.697  22.000   3.133
28582W        W  897  31.939  13.158   0.387
28583W        W  898   0.446  21.292   4.281
28584W        W  899  25.964  23.161  12.084
28585W        W  900  18.049  43.278   3.626
28586W        W  901  21.185   1.875  10.114
28587W        W  902  24.494  20.540  13.498
28588W        W  903  16.185  21.950   2.701
28589W        W  904  44.747  18.103  11.017
28590W        W  905   2.411  30.212   0.281
28591W        W  906  32.796  12.561  12.482
28592W        W  907  35.535   5.323   2.308
28593W        W  908  43.918   8.953  14.445
28594W        W  909  16.028  24.554  14.842
28595W        W  910  38.829   5.013   2.641
28596W        W  911  34.427   6.957   4.051
28597W        W  912  39.489  31.308  11.521
28598W        W  913  11.015  19.968   9.676
28599W        W  914  14.328   6.700  14.561
28600W        W  915  12.937  40.517  11.590
28601W        W  916  42.894  14.482  13.933
28602W        W  917   6.067  19.493  11.170
28603W        W  918  15.327  43.107   1.377
28604W        W  919  12.271  21.152   3.306
28605W        W  920  11.374   3.052  13.834
28606W        W  921  16.422  41.901   2.491
28607W        W  922  26.982   3.753   5.013
28608W        W  923  10.329  23.085  13.402
28609W        W  924   0.595   3.855   0.467
28610W        W  925   8.838  27.747  13.258
28611W        W  926  38.010  10.646  10.420
28612W        W  927   2.306  14.294   1.288
28613W        W  928  17.136  29.781   1.146
28614W        W  929  33.357  43.361   1.375
28615W        W  930  43.521  36.240   1.600
28616W        W  931  29.726  22.089   1.960
28617W        W  932  21.960  23.171  11.190
28618W        W  933   0.765  19.281   3.744
28619W        W  934  19.247  39.565  13.736
28620W        W  935  39.939  26.669  13.258
28621W        W  936  11.058  31.638   3.298
28622W        W  937  18.310  12.303  11.363
28623W        W  938  29.677  26.638  10.525
28624W        W  939   9.162  29.506  11.806
28625W        W  940   0.734  36.555   4.696
28626W        W  941   6.342  41.379  13.955
28627W        W  942  36.036   6.341   3.694
28628W        W  943  32.580  27.867   2.712
28629W        W  944  24.159  14.324  10.696
28630W        W  945  17.242  17.255   1.209
28631W        W  946  33.865   0.343   4.036
28632W        W  947  36.287  41.088   2.714
28633W        W  948  40.742  38.287   2.223
28634W        W  949  38.089   0.828  14.336
28635W        W  950  41.601   3.600  14.385
28636W        W  951   0.244  26.014   1.920
28637W        W  952   1.236   0.449  10.855
28638W        W  953  26.998  27.959   2.388
28639W        W  954  18.346  35.411   2.540
28640W        W  955  36.447  20.122   4.734
28641W        W  956   6.426  23.518   4.623
28642W        W  957  14.599  41.867   2.791
28643W        W  958  17.669  42.929  12.082
28644W        W  959   0.731  42.651   0.414
28645W        W  960  34.099  37.671  12.649
28646W        W  961   8.467   1.873   4.362
28647W        W  962  31.514  38.925   0.847
28648W        W  963  31.403  24.998  13.579
28649W        W  964  36.060  21.409   3.578
28650W        W  965   7.189  37.875  13.610
28651W        W  966  13.845  36.395   1.718
28652W        W  967  31.583  41.851   3.155
28653W        W  968  20.214  34.308  14.933
28654W        W  969  36.390  31.155  14.258
28655W        W  970  12.821   1.243   1.945
28656W        W  971  44.624   5.259  10.582
28657W        W  972  29.664  31.994  12.385
28658W        W  973  38.988  36.037  10.106
28659W        W  974  44.736  42.926  11.070
28660W        W  975  40.436  20.232  14.751
28661W        W  976  25.518  19.075  13.934
28662W        W  977  44.963  17.798   2.686
28663W        W  978  13.192  28.040   4.113
28664W        W  979  42.799  44.423   4.400
28665W        W  980  14.075  41.105   4.086
28666W        W  981  28.510  15.037   4.578
28667W        W  982   6.909  44.874  10.637
28668W        W  983   7.326  32.700   4.469
28669W        W  984  19.685  21.645   1.755
28670W        W  985  40.690   0.099   1.811
28671W        W  986  13.975  19.084  13.280
28672W        W  987  10.173  39.143   3.019
28673W        W  988  12.343  38.961   4.700
28674W        W  989  25.566  23.215   3.397
28675W        W  990  40.874  44.602   1.854
28676W        W  991  35.404  29.228  14.883
28677W        W  992  29.712  38.889  11.995
28678W        W  993  24.789  26.739   0.757
28679W        W  994  28.521  21.340  13.949
28680W        W  995  30.044   1.821   1.469
28681W        W  996  16.200  37.891  14.680
28682W        W  997  26.467  27.640   1.302
28683W        W  998  32.546  37.379  13.879
28684W        W  999  16.154   1.810  13.761
28685W        W 1000  10.886   8.865   0.300
28686W        W 1001  16.762  37.432   2.558
28687W        W 1002  16.730  35.901   0.760
28688W        W 1003   6.683  34.054   3.149
28689W        W 1004  38.144  24.948   1.803
28690W        W 1005   1.917  24.079  11.617
28691W        W 1006   2.054  36.610   4.364
28692W        W 1007  42.955  37.382   4.978
28693W        W 1008  44.382  18.170  13.381
28694W        W 1009  24.830  14.812  13.535
28695W        W 1010  26.427   7.924  11.587
28696W        W 1011  17.247  20.787  13.285
28697W        W 1012   9.885  17.064  13.808
28698W        W 1013  16.571  40.071  13.423
28699W        W 1014  27.769  13.246   1.624
28700W        W 1015  42.752  26.572   3.630
28701W        W 1016  18.672  32.825  12.450
28702W        W 1017  32.516   5.342   2.684
28703W        W 1018  44.745  15.723  13.059
28704W        W 1019   0.400  22.854   1.171
28705W        W 1020  20.139   6.508  11.649
28706W        W 1021  41.383  31.069   4.544
28707W        W 1022  19.077  10.685   1.303
28708W        W 1023  21.956   7.301  13.428
28709W        W 1024   1.259  23.064   4.661
28710W        W 1025  39.297  33.614  13.352
28711W        W 1026  26.772   3.777  12.478
28712W        W 1027  22.410  36.881   0.958
28713W        W 1028   0.836  36.896  10.127
28714W        W 1029  18.791  42.900   1.635
28715W        W 1030   8.586  25.903   2.707
28716W        W 1031   1.035  30.952   0.809
28717W        W 1032  35.456  28.092   3.857
28718W        W 1033  26.263  35.493  12.671
28719W        W 1034  34.467  35.218   2.323
28720W        W 1035  41.275  36.325  11.594
28721W        W 1036   6.143  13.388   2.401
28722W        W 1037  39.117   9.949   3.082
28723W        W 1038  13.357  32.500  10.664
28724W        W 1039  42.290  19.320  14.529
28725W        W 1040  24.118  39.280  13.568
28726W        W 1041  34.956  17.671   2.781
28727W        W 1042  36.000  17.736   0.261
28728W        W 1043  14.513  11.755   2.468
28729W        W 1044  44.328   4.526  13.368
28730W        W 1045  17.161  25.846   2.171
28731W        W 1046  23.723   3.987   3.727
28732W        W 1047  22.612  26.047  10.106
28733W        W 1048   2.416  22.464  11.204
28734W        W 1049   0.509  23.961   2.868
28735W        W 1050  29.628  11.552   2.790
28736W        W 1051   4.009  43.720  13.965
28737W        W 1052  10.604   5.279  10.734
28738W        W 1053  20.184  22.839   0.477
28739W        W 1054  37.937  22.858  11.686
28740W        W 1055  24.139  13.823  13.003
28741W        W 1056  15.915  26.213  12.051
28742W        W 1057  15.733  30.585   3.076
28743W        W 1058  41.915  21.845  11.595
28744W        W 1059  12.939  29.594  11.804
28745W        W 1060  35.139  42.828  10.578
28746W        W 1061  39.614  31.043  13.019
28747W        W 1062  16.211   6.186   2.252
28748W        W 1063  37.027  31.529  13.496
28749W        W 1064  18.149  44.482  11.932
28750W        W 1065   1.238  33.566   3.104
28751W        W 1066  12.619  38.521  14.319
28752W        W 1067  14.742  35.239   3.159
28753W        W 1068  16.820   2.163   1.159
28754W        W 1069   0.906  43.058   0.693
28755W        W 1070  11.288  40.788  11.125
28756W        W 1071   9.846  44.930   0.464
28757W        W 1072  40.188  19.327   3.703
28758W        W 1073   9.167   7.927  12.482
28759W        W 1074   3.299  10.843  10.579
28760W        W 1075  33.481  17.152   2.424
28761W        W 1076  32.913  22.229   2.384
28762W        W 1077  44.066   0.347  12.982
28763W        W 1078  32.580  36.820   3.667
28764W        W 1079  38.869  34.776  11.707
28765W        W 1080  19.073  19.062  13.977
28766W        W 1081  19.504  40.878   0.409
28767W        W 1082  24.957  15.595   3.157
28768W        W 1083  20.206  41.464   1.408
28769W        W 1084  29.050   1.011  14.166
28770W        W 1085  27.163   9.944   1.031
28771W        W 1086  37.380  18.194  11.054
28772W        W 1087  27.560   6.830  10.300
28773W        W 1088  25.666  23.040   0.275
28774W        W 1089  19.139  25.937   3.850
28775W        W 1090  31.783  26.909  11.200
28776W        W 1091  34.700  20.102  11.048
28777W        W 1092  23.194  36.933   0.360
28778W        W 1093   1.371  11.151   3.271
28779W        W 1094   3.895  29.591  11.175
28780W        W 1095   7.563  35.063   5.062
28781W        W 1096   4.944  29.087  13.840
28782W        W 1097  36.554  35.986  14.337
28783W        W 1098   1.528  28.201  11.483
28784W        W 1099  35.853  10.620  13.038
28785W        W 1100  13.421  14.390   3.806
28786W        W 1101   2.404  10.315  13.021
28787W        W 1102   6.876  25.221  12.521
28788W        W 1103  23.800  41.057   3.404
28789W        W 1104   4.874  32.464   4.098
28790W        W 1105   4.898  39.602   0.848
28791W        W 1106  41.321  30.850   1.375
28792W        W 1107  43.375   5.825  14.973
28793W        W 1108  44.764  22.377  13.303
28794W        W 1109   1.841  21.717   1.030
28795W        W 1110  20.258  37.755  13.962
28796W        W 1111  10.890  21.629   4.069
28797W        W 1112   1.804  37.914  14.586
28798W        W 1113  26.729   9.982  12.873
28799W        W 1114  39.982  17.749  14.215
28800W        W 1115  30.005  43.898   2.890
28801W        W 1116  42.239  36.003  10.543
28802W        W 1117   5.881   8.634  13.491
28803W        W 1118  36.859  38.435  13.161
28804W        W 1119   9.653  16.280  10.649
28805W        W 1120  23.278  44.330   2.639
28806W        W 1121  42.257  14.693   2.790
28807W        W 1122  40.030  11.697   3.609
28808W        W 1123  43.929   1.276   4.627
28809W        W 1124  26.937   4.448  10.840
28810W        W 1125  10.714  33.322  12.016
28811W        W 1126  10.707  27.098  14.720
28812W        W 1127  33.280  19.721  11.162
28813W        W 1128  18.371  16.256  13.830
28814W        W 1129  43.316  34.499   3.125
28815W        W 1130  35.317  10.265   1.219
28816W        W 1131  12.809   4.976   0.122
28817W        W 1132  18.349  15.663  14.391
28818W        W 1133   1.389  41.910   0.533
28819W        W 1134  38.922  26.536   1.295
28820W        W 1135  43.915  13.269  10.683
28821W        W 1136  21.746  16.664  11.154
28822W        W 1137  16.733   9.427  14.479
28823W        W 1138   4.825  22.571  12.566
28824W        W 1139   9.177  18.531  10.728
28825W        W 1140  21.687  12.229  13.329
28826W        W 1141  41.756  16.800   4.836
28827W        W 1142  44.950   1.123  14.384
28828W        W 1143   9.463  39.473   2.321
28829W        W 1144  31.225  39.042   1.921
28830W        W 1145  23.703   5.793   0.914
28831W        W 1146  33.840   1.386  12.837
28832W        W 1147   6.918  19.169  12.981
28833W        W 1148   6.828  21.181  11.166
28834W        W 1149  10.772  42.276  14.832
28835W        W 1150  16.323  11.159  12.934
28836W        W 1151  21.124  41.811   4.117
28837W        W 1152   2.288   7.831  14.353
28838W        W 1153   4.776  17.491   3.531
28839W        W 1154   5.729  37.938  14.838
28840W        W 1155  40.472  42.858  11.530
28841W        W 1156   7.679  20.768  11.901
28842W        W 1157  23.583   2.764  12.960
28843W        W 1158  39.014  26.269  10.480
28844W        W 1159  40.345  40.245   5.003
28845W        W 1160  20.468  36.597  12.600
28846W        W 1161  29.622  13.903  13.350
28847W        W 1162   0.876  37.678  13.946
28848W        W 1163  24.965  42.765  11.568
28849W        W 1164  40.888  41.516  10.680
28850W        W 1165  24.014  21.204   1.244
28851W        W 1166  15.313  29.655   4.402
28852W        W 1167  41.268  40.533   4.698
28853W        W 1168   8.289   6.086   2.299
28854W        W 1169  37.402  39.551   3.642
28855W        W 1170   7.568  18.505  10.197
28856W        W 1171  25.718   2.996  14.748
28857W        W 1172  17.781  17.704   2.348
28858W        W 1173   0.375   0.444   1.235
28859W        W 1174  11.304  40.757  11.840
28860W        W 1175  14.195   6.796   1.002
28861W        W 1176  28.679  11.352   0.786
28862W        W 1177  18.281  11.231   5.485
28863W        W 1178  44.274  41.469  14.795
28864W        W 1179  25.654  28.417  14.412
28865W        W 1180  27.978  30.440   4.434
28866W        W 1181  25.711  15.285  12.046
28867W        W 1182  28.801  39.675  13.316
28868W        W 1183  43.739  25.385   0.900
28869W        W 1184  25.376   2.985  12.463
28870W        W 1185   3.261  39.376   1.649
28871W        W 1186  29.752   8.999   4.519
28872W        W 1187  44.212  30.667  12.501
28873W        W 1188  35.508  30.386  12.824
28874W        W 1189  23.229   3.871   0.855
28875W        W 1190  10.475   0.279   3.717
28876W        W 1191  44.190  10.275   5.077
28877W        W 1192  36.611  44.417   2.003
28878W        W 1193   4.377   3.828  12.678
28879W        W 1194   3.763  34.010  14.764
28880W        W 1195   2.071  30.565   0.723
28881W        W 1196  16.293  24.114   4.081
28882W        W 1197  28.667  40.960  11.817
28883W        W 1198  32.452  22.392   9.867
28884W        W 1199  26.337   5.650   1.900
28885W        W 1200  23.014   1.847  12.025
28886W        W 1201  32.442  10.867   4.360
28887W        W 1202  41.972   5.404  14.856
28888W        W 1203  22.199  34.916   0.330
28889W        W 1204  33.795   1.309   3.198
28890W        W 1205  32.892  16.565  14.804
28891W        W 1206  22.745  24.170   0.509
28892W        W 1207  33.867  21.068  14.973
28893W        W 1208  23.997  18.034  12.446
28894W        W 1209  41.018  20.145   4.354
28895W        W 1210   0.262  16.667   0.424
28896W        W 1211  30.001  15.219   1.235
28897W        W 1212  10.472  24.231  13.766
28898W        W 1213  30.736  29.616  13.918
28899W        W 1214  31.059   3.868  12.995
28900W        W 1215  39.897  13.661  13.124
28901W        W 1216  36.356  20.337  11.766
28902W        W 1217  13.061  19.599  10.168
28903W        W 1218   9.190   1.547   3.136
28904W        W 1219  22.543  38.087   3.321
28905W        W 1220  35.531   7.468   2.937
28906W        W 1221  29.690  16.014   4.238
28907W        W 1222  23.841   9.217   2.391
28908W        W 1223   2.385  41.200   4.205
28909W        W 1224  35.451  20.001  12.534
28910W        W 1225  42.917   7.216   4.172
28911W        W 1226  27.942  44.661  13.081
28912W        W 1227  19.503  21.617   0.018
28913W        W 1228  27.625  11.594   0.389
28914W        W 1229  44.724  30.594   0.020
28915W        W 1230  11.555  29.931  13.197
28916W        W 1231  31.591  11.460   4.988
28917W        W 1232  41.844  17.133   1.299
28918W        W 1233   7.068  42.401  12.573
28919W        W 1234  17.839  41.955  12.160
28920W        W 1235  39.591  17.568  14.989
28921W        W 1236  24.977   2.229   1.914
28922W        W 1237  10.898  14.508  12.257
28923W        W 1238  26.173  26.679  10.447
28924W        W 1239  41.468   8.345   3.719
28925W        W 1240  32.258  30.909   4.547
28926W        W 1241  28.522  40.027   1.243
28927W        W 1242   8.220  26.094   3.021
28928W        W 1243  15.273  31.482  14.256
28929W        W 1244  44.428  14.837  12.946
28930W        W 1245  39.012  40.545  11.869
28931W        W 1246   1.266   0.774  14.362
28932W        W 1247  28.791  19.784  11.764
28933W        W 1248   0.732  21.560  12.948
28934W        W 1249  25.170  11.211   2.877
28935W        W 1250  10.308  44.240   0.690
28936W        W 1251  11.932  23.719   2.103
28937W        W 1252  15.323  28.505   1.676
28938W        W 1253  19.550   1.682   2.389
28939W        W 1254   5.835  26.973  13.935
28940W        W 1255  33.378  12.906   4.801
28941W        W 1256  10.967  32.877  11.929
28942W        W 1257  19.870  40.419  11.614
28943W        W 1258  35.985  23.498  12.005
28944W        W 1259   3.165  43.763  12.962
28945W        W 1260   1.818  39.392  12.654
28946W        W 1261  22.141  33.634  12.500
28947W        W 1262  35.590  25.993  11.550
28948W        W 1263   8.544  38.788  12.065
28949W        W 1264  24.468   0.705   0.340
28950W        W 1265  41.058   2.795   3.889
28951W        W 1266  10.257  40.387  12.963
28952W        W 1267  10.864  40.854   4.345
28953W        W 1268  31.444  25.066   1.972
28954W        W 1269  29.323  32.547  13.914
28955W        W 1270  35.071  37.542   1.393
28956W        W 1271  30.371  31.804   1.833
28957W        W 1272  21.975   2.430  14.948
28958W        W 1273   8.407  16.119  11.229
28959W        W 1274   4.928   9.418   1.752
28960W        W 1275  24.726  15.057  13.057
28961W        W 1276   1.974  37.131   1.610
28962W        W 1277  31.926  14.713   4.399
28963W        W 1278   2.448   6.684  13.283
28964W        W 1279  42.988  34.095  14.364
28965W        W 1280  29.585  32.505   5.022
28966W        W 1281  24.126  30.153   1.850
28967W        W 1282  38.991  40.049  13.062
28968W        W 1283  32.562  36.126   4.101
28969W        W 1284  18.159   6.852  12.146
28970W        W 1285   8.352  42.483   3.916
28971W        W 1286  25.744  15.214  12.790
28972W        W 1287  19.632  42.411  12.109
28973W        W 1288  23.156  38.103  12.859
28974W        W 1289   2.393  37.898   0.432
28975W        W 1290  25.515   6.820   3.308
28976W        W 1291   6.735  14.659  13.718
28977W        W 1292  23.055  40.462  14.363
28978W        W 1293   5.705  42.368   1.261
28979W        W 1294  24.034  23.749  12.839
28980W        W 1295  14.435   7.636   3.644
28981W        W 1296   9.810  38.845  14.073
28982W        W 1297  23.596   4.280   0.522
28983W        W 1298   0.083  41.505   0.307
28984W        W 1299  21.764  35.973  12.978
28985W        W 1300  27.606  17.321   2.169
28986W        W 1301  35.989  36.083   2.881
28987W        W 1302  20.999  22.354  14.484
28988W        W 1303  29.923  10.577  10.829
28989W        W 1304  43.490   9.956  13.506
28990W        W 1305  42.046  35.256   3.633
28991W        W 1306  43.973  32.249  14.833
28992W        W 1307   5.721  29.010   4.210
28993W        W 1308  29.281  29.275   2.107
28994W        W 1309  44.360  24.637   2.249
28995W        W 1310  40.326   7.701   3.583
28996W        W 1311  18.600  42.773   4.184
28997W        W 1312  24.782   4.727  12.901
28998W        W 1313   1.745  11.730  13.804
28999W        W 1314  36.935   1.648   4.560
29000W        W 1315  21.080  30.743  11.130
29001W        W 1316   5.825  31.423   2.947
29002W        W 1317  31.655  17.467   4.539
29003W        W 1318  11.172  20.962  14.938
29004W        W 1319   7.651  12.375   4.067
29005W        W 1320  14.842  12.696  12.335
29006W        W 1321  27.632  33.566   3.628
29007W        W 1322  13.724  38.928  10.724
29008W        W 1323  17.717  25.758  12.833
29009W        W 1324  13.102  17.504  11.121
29010W        W 1325   6.637  28.603   4.157
29011W        W 1326   5.284  42.967  11.118
29012W        W 1327   6.540  32.650   3.199
29013W        W 1328  40.091  26.450  11.460
29014W        W 1329   9.210  31.853   2.642
29015W        W 1330  37.468   5.391   0.736
29016W        W 1331  35.857  37.934  12.207
29017W        W 1332  24.241  19.947   3.774
29018W        W 1333   7.902  15.666   0.361
29019W        W 1334   2.856  14.830   1.342
29020W        W 1335   6.163  22.427   0.764
29021W        W 1336  18.195  40.919   4.170
29022W        W 1337  12.614  12.111   3.199
29023W        W 1338   8.938  14.100  13.011
29024W        W 1339  31.552  36.438   3.650
29025W        W 1340  25.699   5.812  13.250
29026W        W 1341   6.922  39.436  14.909
29027W        W 1342  24.054   1.281   3.705
29028W        W 1343   9.088  24.509  11.357
29029W        W 1344  28.393  14.720  12.389
29030W        W 1345  35.730  43.987   2.178
29031W        W 1346   9.714  43.831   2.989
29032W        W 1347   1.886  40.730  12.357
29033W        W 1348  28.950  10.173  14.892
29034W        W 1349  36.099  19.446  14.794
29035W        W 1350  30.967  34.056   0.012
29036W        W 1351  34.446  17.929   4.897
29037W        W 1352  13.297   7.683   1.342
29038W        W 1353  26.293  14.265  14.327
29039W        W 1354  42.226   9.875   0.290
29040W        W 1355  44.698  26.534   5.264
29041W        W 1356  20.621   6.401  11.874
29042W        W 1357  17.128  17.590  12.124
29043W        W 1358  42.536  33.337  14.382
29044W        W 1359  39.585  33.617   2.364
29045W        W 1360   7.270  25.305  11.178
29046W        W 1361  10.123  16.566   5.182
29047W        W 1362  12.800  18.590   3.004
29048W        W 1363  10.724  31.469  12.913
29049W        W 1364  27.951  30.506  11.469
29050W        W 1365  10.675  13.987  12.403
29051W        W 1366  19.506  18.118  10.764
29052W        W 1367  35.751  23.042   1.029
29053W        W 1368  25.649  43.053   3.772
29054W        W 1369   6.824   8.670   5.044
29055W        W 1370  26.909   8.597   3.640
29056W        W 1371  36.843  28.260  11.572
29057W        W 1372  37.384  38.608  11.220
29058W        W 1373  23.914  11.891   1.021
29059W        W 1374  36.046  21.478  12.944
29060W        W 1375  35.340  28.968   1.845
29061W        W 1376  27.411  19.542   2.716
29062W        W 1377  37.593  15.654   1.318
29063W        W 1378  24.925   6.830  12.075
29064W        W 1379  20.278  16.676  13.777
29065W        W 1380  19.693  15.989   0.477
29066W        W 1381  37.378  10.277   0.397
29067W        W 1382  34.653  43.024  14.854
29068W        W 1383  40.991  18.564  10.892
29069W        W 1384  34.974  28.525  12.443
29070W        W 1385  37.885  39.337  13.507
29071W        W 1386  28.693  33.889   2.124
29072W        W 1387  29.982  29.431   1.761
29073W        W 1388   3.794  40.312  13.798
29074W        W 1389  17.264  26.079  10.714
29075W        W 1390   1.372   5.120  14.402
29076W        W 1391  32.019  15.617  10.632
29077W        W 1392  29.931  25.490   3.169
29078W        W 1393   0.301  30.536  11.615
29079W        W 1394  23.135  29.966   0.055
29080W        W 1395  25.693   7.218  13.270
29081W        W 1396  27.939  32.338  11.544
29082W        W 1397   0.239   9.124  14.792
29083W        W 1398  10.190  12.332   0.326
29084W        W 1399  17.633  30.976   4.330
29085W        W 1400   0.478  23.456  11.206
29086W        W 1401  28.603   5.682   0.952
29087W        W 1402  19.330   0.045   1.595
29088W        W 1403  14.516   3.524   2.288
29089W        W 1404  15.118  26.522   2.535
29090W        W 1405  28.556   6.365  10.699
29091W        W 1406   0.254  23.609   3.848
29092W        W 1407  29.271   0.132   2.876
29093W        W 1408   9.116  37.330  12.045
29094W        W 1409  30.427  29.429   0.704
29095W        W 1410  31.478  15.163  12.815
29096W        W 1411  20.089  24.972  14.371
29097W        W 1412  16.360  21.236  11.208
29098W        W 1413  44.480  33.024   2.897
29099W        W 1414  28.462  31.928  13.896
29100W        W 1415  23.412   9.295  12.940
29101W        W 1416   7.982   3.407  11.644
29102W        W 1417   0.843  10.879   2.777
29103W        W 1418  40.878  22.318  11.934
29104W        W 1419  22.171  24.490   1.007
29105W        W 1420  12.706  11.176   2.708
29106W        W 1421   2.998  39.317  10.393
29107W        W 1422  26.585  40.059   1.730
29108W        W 1423   7.986  10.378   4.285
29109W        W 1424  22.018  15.706  13.465
29110W        W 1425  16.598  15.677   0.783
29111W        W 1426  39.036  22.672   3.167
29112W        W 1427  13.737   5.930  11.094
29113W        W 1428  43.899  13.424   4.273
29114W        W 1429  11.101   8.250   3.588
29115W        W 1430  43.261  22.440   0.908
29116W        W 1431  31.381   2.578  11.097
29117W        W 1432  17.612  37.817   2.350
29118W        W 1433  19.518  21.112  14.137
29119W        W 1434   9.171  43.482  12.860
29120W        W 1435  24.406  22.119  10.776
29121W        W 1436  29.139  20.007   4.626
29122W        W 1437   0.579  12.271   2.678
29123W        W 1438   7.124  35.113   4.769
29124W        W 1439  19.679   5.146  14.347
29125W        W 1440  15.671  40.050   3.210
29126W        W 1441  22.024   5.216  12.826
29127W        W 1442  34.434   8.759   3.028
29128W        W 1443  38.014   7.872   4.438
29129W        W 1444  22.081  24.151   2.865
29130W        W 1445  35.391  37.547  12.371
29131W        W 1446   1.233   9.775  13.408
29132W        W 1447  33.043  15.967  12.518
29133W        W 1448  23.390  22.119   2.192
29134W        W 1449   7.554  12.799   0.716
29135W        W 1450   8.619   2.657   2.691
29136W        W 1451   1.987   2.508   2.019
29137W        W 1452   4.919   9.874   3.704
29138W        W 1453  20.299  28.936   1.932
29139W        W 1454   9.360  13.593   0.345
29140W        W 1455  33.003  35.516   0.249
29141W        W 1456  43.851   4.367   1.242
29142W        W 1457  19.264  23.310   0.248
29143W        W 1458   8.335   6.916   0.895
29144W        W 1459  13.892  25.416   4.382
29145W        W 1460  29.375  15.560   2.694
29146W        W 1461  10.528  27.296   1.576
29147W        W 1462  28.888  21.322   3.125
29148W        W 1463   5.136  18.720  10.458
29149W        W 1464  43.473   3.735  11.543
29150W        W 1465  14.436  32.975   1.921
29151W        W 1466  11.632  42.039  11.850
29152W        W 1467  19.466   3.714  12.044
29153W        W 1468   3.724  43.972   3.160
29154W        W 1469  21.732  12.374  14.282
29155W        W 1470  42.988   0.326   1.810
29156W        W 1471  21.908  21.684   3.303
29157W        W 1472  37.296  38.799  12.447
29158W        W 1473   2.462  35.548   3.794
29159W        W 1474  34.558  42.472  13.765
29160W        W 1475  14.136  16.896   2.226
29161W        W 1476  14.268   1.942   1.142
29162W        W 1477  41.312  27.175   0.663
29163W        W 1478  37.072  36.064  12.018
29164W        W 1479  27.085  14.556  11.661
29165W        W 1480  21.679  19.616   4.048
29166W        W 1481  15.337  33.992   3.839
29167W        W 1482  30.693  44.252  11.498
29168W        W 1483  26.858   4.628  11.694
29169W        W 1484  28.091  19.901   4.534
29170W        W 1485  31.961  18.523  11.470
29171W        W 1486  11.834  21.545  11.837
29172W        W 1487  34.052  27.732  11.588
29173W        W 1488  19.475   9.915   1.814
29174W        W 1489   4.975  14.331  12.941
29175W        W 1490  36.929   6.655  11.695
29176W        W 1491   3.183  27.610   0.969
29177W        W 1492  31.054  35.933  11.217
29178W        W 1493  22.939   4.888  14.401
29179W        W 1494  16.656  14.822   3.627
29180W        W 1495  38.125  12.240  11.550
29181W        W 1496  38.457  19.915   0.699
29182W        W 1497   7.580  28.798  14.483
29183W        W 1498  35.940  34.541   2.908
29184W        W 1499   7.374  29.098  10.750
29185W        W 1500   9.156   8.429   1.339
29186W        W 1501  19.260  32.617   0.712
29187W        W 1502  24.097   9.808   1.753
29188W        W 1503  34.110  40.826   1.696
29189W        W 1504  15.642  18.638   2.751
29190W        W 1505  41.339  21.655   4.634
29191W        W 1506  40.882  40.649   1.842
29192W        W 1507   5.157  28.936  11.094
29193W        W 1508  16.565  30.470  14.391
29194W        W 1509   3.508  27.235   2.192
29195W        W 1510  42.845   4.524  13.396
29196W        W 1511  43.795  33.726   4.128
29197W        W 1512  36.121   4.850   0.252
29198W        W 1513  39.593  15.690  11.938
29199W        W 1514  28.587   9.848   3.267
29200W        W 1515  25.493   5.368  13.981
29201W        W 1516   4.279  42.673  12.930
29202W        W 1517  26.892  13.835   4.173
29203W        W 1518  33.971  43.239  13.608
29204W        W 1519   1.861  27.466   1.208
29205W        W 1520  34.854  42.799  13.460
29206W        W 1521  15.182  19.147   1.027
29207W        W 1522   9.423  37.374   5.311
29208W        W 1523  42.995  28.621   1.990
29209W        W 1524   8.848  42.698   1.395
29210W        W 1525  40.788  24.710  11.519
29211W        W 1526  17.239  19.619   4.193
29212W        W 1527  21.598  34.426  13.850
29213W        W 1528  14.762  16.834  13.293
29214W        W 1529  29.084  13.416  11.132
29215W        W 1530  28.229   3.897  11.014
29216W        W 1531   1.532  26.013  13.404
29217W        W 1532  14.646  13.615  13.168
29218W        W 1533   4.503  35.371  11.866
29219W        W 1534   2.825  21.187   1.746
29220W        W 1535  40.383  32.564  11.953
29221W        W 1536   0.359  16.541  11.619
29222W        W 1537   9.762  15.808  10.782
29223W        W 1538  16.402  29.156   3.713
29224W        W 1539   8.330   1.317  12.915
29225W        W 1540  32.485  33.123   2.614
29226W        W 1541  19.335  12.332  14.361
29227W        W 1542  39.027  35.374   1.320
29228W        W 1543  20.029  12.339   1.834
29229W        W 1544   0.266  19.109  14.365
29230W        W 1545  24.188  20.074   1.362
29231W        W 1546  13.160  40.795  13.842
29232W        W 1547  34.029  12.839   2.233
29233W        W 1548   5.502  11.516  14.591
29234W        W 1549  23.100  30.451  12.601
29235W        W 1550   4.737  42.048   3.239
29236W        W 1551  23.061  41.308  14.271
29237W        W 1552   1.491  26.548   2.748
29238W        W 1553   1.318  33.166   0.757
29239W        W 1554  42.909  38.068   2.699
29240W        W 1555   5.393  36.831  10.672
29241W        W 1556  12.229   5.379  13.779
29242W        W 1557  10.331  31.982  14.300
29243W        W 1558  33.570  31.609  11.246
29244W        W 1559  21.144  36.480  10.529
29245W        W 1560  43.713  38.116  14.726
29246W        W 1561  42.371   2.823  13.933
29247W        W 1562  18.830  38.389  12.354
29248W        W 1563  44.335  23.636  13.556
29249W        W 1564  41.736  44.230  13.111
29250W        W 1565  11.870  16.780   0.725
29251W        W 1566  15.555  22.480  14.797
29252W        W 1567  29.046  21.291  10.685
29253W        W 1568  36.119  36.955   2.273
29254W        W 1569   4.950  42.095   2.471
29255W        W 1570  44.827  26.444  12.544
29256W        W 1571  44.539  28.751  12.367
29257W        W 1572  27.281   0.851  10.690
29258W        W 1573  20.230  15.801   1.821
29259W        W 1574  19.319  28.541  10.615
29260W        W 1575   9.111   7.249   3.146
29261W        W 1576  16.045  41.097  13.875
29262W        W 1577  27.979  43.208   1.805
29263W        W 1578   3.730   6.422   2.537
29264W        W 1579  40.092  21.066   5.097
29265W        W 1580  15.695  16.766   4.474
29266W        W 1581   3.403  15.774   3.176
29267W        W 1582  18.753  36.363  11.420
29268W        W 1583  39.464  17.232   2.266
29269W        W 1584  24.771  28.628   0.444
29270W        W 1585   4.605  26.580  13.974
29271W        W 1586  23.029   1.993  14.864
29272W        W 1587  15.077  10.371   0.863
29273W        W 1588   2.975  38.908   1.248
29274W        W 1589  32.575  35.627   4.105
29275W        W 1590  43.510  38.929   2.151
29276W        W 1591  37.112  39.012  11.457
29277W        W 1592  29.001  37.809   2.415
29278W        W 1593  16.527  18.786   1.445
29279W        W 1594  32.067  21.725  14.323
29280W        W 1595   1.337   3.702  11.635
29281W        W 1596  43.331  33.956   3.252
29282W        W 1597  34.917  26.277   0.921
29283W        W 1598  31.012  33.099   0.239
29284W        W 1599   3.285  21.597  10.373
29285W        W 1600  41.509  13.290  13.379
29286W        W 1601  38.331  39.794   0.213
29287W        W 1602  37.542   6.574  14.835
29288W        W 1603   8.205   1.829  14.216
29289W        W 1604  20.621  35.073   1.021
29290W        W 1605  17.851  42.674   2.865
29291W        W 1606  40.406   6.871   3.805
29292W        W 1607   2.868  44.501  12.684
29293W        W 1608  25.726  15.593  11.630
29294W        W 1609  34.235  23.659   1.789
29295W        W 1610  42.280  23.713  10.974
29296W        W 1611  41.192   3.585  13.002
29297W        W 1612   0.261  39.393   4.090
29298W        W 1613  34.795  15.890   2.707
29299W        W 1614   3.767  29.727   2.755
29300W        W 1615  31.640  32.104  14.338
29301W        W 1616  33.247  24.618  11.571
29302W        W 1617  11.486   1.340  11.620
29303W        W 1618  10.791  12.361  13.005
29304W        W 1619   8.347  10.153  14.429
29305W        W 1620  20.996  42.378   0.020
29306W        W 1621  42.476  10.337  11.182
29307W        W 1622  23.591  35.674  11.161
29308W        W 1623   1.671  12.975   2.472
29309W        W 1624  36.552   7.139  11.665
29310W        W 1625  29.944   8.200  13.372
29311W        W 1626  23.251  10.932   2.288
29312W        W 1627   7.437   6.883   1.653
29313W        W 1628  13.550  42.405  13.028
29314W        W 1629  26.970  12.742  13.775
29315W        W 1630  14.894  44.713  11.928
29316W        W 1631  21.123  15.600   4.958
29317W        W 1632   8.660   3.166   0.457
29318W        W 1633  39.846  10.319  11.078
29319W        W 1634  16.643  11.325   4.706
29320W        W 1635  17.117   6.647   4.584
29321W        W 1636  38.504   2.197  12.418
29322W        W 1637  17.585  29.292   0.329
29323W        W 1638  10.135  33.919   0.738
29324W        W 1639  27.867  27.006   3.641
29325W        W 1640  19.677   2.388   0.328
29326W        W 1641  17.954  15.136  12.892
29327W        W 1642  38.543  30.226  10.757
29328W        W 1643  18.766   6.909   1.785
29329W        W 1644  22.374  43.191  12.005
29330W        W 1645   6.334   2.835  10.118
29331W        W 1646  14.832   2.601  11.137
29332W        W 1647  15.290   1.713  12.491
29333W        W 1648  20.198   9.230  13.597
29334W        W 1649  10.852   7.699   1.566
29335W        W 1650   4.952  43.829  12.907
29336W        W 1651  37.972  25.304   0.424
29337W        W 1652  38.498  20.269  11.603
29338W        W 1653   6.200  10.836  11.558
29339W        W 1654  30.161  27.151  14.842
29340W        W 1655  24.081  33.615  14.443
29341W        W 1656   6.860  44.558  14.807
29342W        W 1657   8.287   6.638  14.930
29343W        W 1658  43.725   8.876  11.498
29344W        W 1659  40.929  25.223   4.143
29345W        W 1660  11.621  25.056  14.984
29346W        W 1661  19.696  11.796   9.976
29347W        W 1662  32.627  10.764  12.418
29348W        W 1663  43.814  43.335  12.282
29349W        W 1664  22.921   5.730   0.517
29350W        W 1665   1.594   3.763   3.099
29351W        W 1666   6.402   7.353  14.941
29352W        W 1667  24.309   8.276   2.739
29353W        W 1668  26.944  26.536  13.050
29354W        W 1669  22.468  29.159   0.197
29355W        W 1670  22.313  19.048  14.558
29356W        W 1671  31.225  33.949   3.502
29357W        W 1672   4.525  26.338   0.766
29358W        W 1673  39.379  35.167   0.876
29359W        W 1674  37.573  18.165  12.288
29360W        W 1675  11.718  26.451   0.352
29361W        W 1676  24.649  25.205  14.919
29362W        W 1677   3.764  26.122  12.600
29363W        W 1678  22.700  21.588   1.884
29364W        W 1679  23.065   7.655   1.951
29365W        W 1680   3.278  42.608  13.816
29366W        W 1681  44.843   7.381  13.117
29367W        W 1682  11.048  11.224   4.593
29368W        W 1683   0.407   3.923   4.514
29369W        W 1684  30.125  17.098   1.360
29370W        W 1685   4.229  22.088  14.860
29371W        W 1686  12.832  23.516   2.246
29372W        W 1687  32.706   4.130   2.891
29373W        W 1688  22.270  20.270   4.301
29374W        W 1689   4.076  24.077   3.654
29375W        W 1690  36.895  26.422   1.344
29376W        W 1691  10.630  16.711   5.003
29377W        W 1692  26.723   6.291   2.591
29378W        W 1693  11.836   1.346  10.909
29379W        W 1694  44.331  14.580   2.857
29380W        W 1695  16.293  43.900   0.663
29381W        W 1696   2.032  30.036   2.864
29382W        W 1697   6.892  19.674   0.765
29383W        W 1698   1.802  43.449   4.337
29384W        W 1699  29.473  26.673  14.252
29385W        W 1700   2.793   5.469  10.286
29386W        W 1701  34.274  17.101  12.229
29387W        W 1702  43.028  14.228  11.381
29388W        W 1703  22.171  42.076   1.211
29389W        W 1704  19.011  14.709   2.914
29390W        W 1705  20.748  22.519  13.538
29391W        W 1706   5.600  10.147  11.175
29392W        W 1707  25.717   2.515   1.406
29393W        W 1708  29.373  32.645   1.483
29394W        W 1709  30.414  22.801  12.550
29395W        W 1710  25.649  12.117  12.461
29396W        W 1711  32.136   2.267   0.048
29397W        W 1712   8.603  17.480  14.374
29398W        W 1713  20.558  39.691  11.204
29399W        W 1714  17.305  24.698  13.393
29400W        W 1715  36.520   6.627  11.407
29401W        W 1716   0.286   5.790  14.781
29402W        W 1717  37.308  40.962  13.930
29403W        W 1718  21.295   5.008   0.516
29404W        W 1719  30.068   4.574   4.799
29405W        W 1720  28.642  44.552  12.287
29406W        W 1721  17.315   0.721   1.299
29407W        W 1722  10.798  19.518   3.411
29408W        W 1723  28.612  28.754   3.214
29409W        W 1724  34.345  13.083  14.309
29410W        W 1725  28.059  41.879  11.602
29411W        W 1726  16.743  28.339   0.255
29412W        W 1727  33.556  35.090  14.299
29413W        W 1728  36.241  11.701   5.198
29414W        W 1729  17.779  41.812  13.949
29415W        W 1730  23.246  28.711   1.799
29416W        W 1731  20.422  19.521   0.392
29417W        W 1732  31.549   6.031  12.133
29418W        W 1733   9.212  44.330  12.464
29419W        W 1734  37.656  29.558   3.370
29420W        W 1735  33.368  22.778  12.516
29421W        W 1736  39.514   2.849  13.094
29422W        W 1737   4.350  19.196  11.789
29423W        W 1738  28.024  19.187  14.495
29424W        W 1739  37.023  18.712  14.792
29425W        W 1740  36.466  42.845   1.926
29426W        W 1741  23.749   0.544  11.018
29427W        W 1742  31.173   5.851  13.523
29428W        W 1743   7.629  12.298   4.606
29429W        W 1744  37.838   9.706  13.808
29430W        W 1745  15.613  21.657   4.574
29431W        W 1746  23.201  15.566   1.371
29432W        W 1747  36.099  27.981   1.437
29433W        W 1748  44.329  30.005   1.461
29434W        W 1749  37.131   5.782  11.654
29435W        W 1750  36.768   1.793   0.441
29436W        W 1751  16.724  23.486  11.940
29437W        W 1752  21.558  22.311   3.956
29438W        W 1753  37.047  32.665  13.051
29439W        W 1754  41.751   3.442  10.298
29440W        W 1755  29.629  29.475   3.919
29441W        W 1756  27.428   7.774  11.697
29442W        W 1757  17.123  17.839  11.145
29443W        W 1758  34.857   5.222   0.665
29444W        W 1759  16.807   1.025  13.490
29445W        W 1760  21.891  41.558  11.980
29446W        W 1761  36.158  26.200  11.428
29447W        W 1762   8.664  10.196  11.649
29448W        W 1763   5.032  41.284   4.657
29449W        W 1764  28.087  21.170  12.160
29450W        W 1765  34.337   8.347   0.384
29451W        W 1766  44.029  11.800   1.288
29452W        W 1767  12.368   5.203   3.680
29453W        W 1768  13.881   7.772   2.586
29454W        W 1769  23.431   2.358  13.948
29455W        W 1770  27.105  19.130   4.339
29456W        W 1771  28.653  39.163  13.328
29457W        W 1772   8.781  32.567  13.914
29458W        W 1773   5.437  36.577   0.940
29459W        W 1774  38.041  24.021  10.244
29460W        W 1775  32.129  26.771  10.558
29461W        W 1776  30.462  10.778  13.191
29462W        W 1777  27.716   0.534   3.853
29463W        W 1778  40.560   6.896  13.574
29464W        W 1779  14.838  27.924  13.624
29465W        W 1780  21.285  30.090  10.423
29466W        W 1781  14.355   3.450  14.010
29467W        W 1782  14.364  24.771   2.306
29468W        W 1783  37.930  35.103   5.012
29469W        W 1784   5.152  10.645   4.600
29470W        W 1785   9.983  20.948   0.041
29471W        W 1786  32.430  44.004   1.936
29472W        W 1787  34.423  10.233  14.986
29473W        W 1788  14.316   0.930   3.706
29474W        W 1789   9.442  38.924  13.717
29475W        W 1790  35.982  16.795  14.327
29476W        W 1791  40.252  10.667   2.724
29477W        W 1792   5.658  14.272  12.453
29478W        W 1793   4.167  40.772   0.431
29479W        W 1794  42.299   4.343   2.221
29480W        W 1795   1.319  32.194   1.591
29481W        W 1796  14.593  33.590   3.946
29482W        W 1797  17.897  20.491  10.411
29483W        W 1798  33.357   1.780  10.410
29484W        W 1799  18.952  12.041  12.537
29485W        W 1800   4.953  44.865   0.913
29486W        W 1801  35.096   2.989   2.410
29487W        W 1802  29.642  41.363  13.078
29488W        W 1803  15.267  13.378   4.009
29489W        W 1804  28.757  31.500   1.030
29490W        W 1805  42.572  36.648   4.656
29491W        W 1806  35.950   9.989   4.948
29492W        W 1807  12.401  42.958   0.025
29493W        W 1808   8.086  44.281  14.178
29494W        W 1809  29.706  11.192   4.754
29495W        W 1810   3.718  12.486  12.397
29496W        W 1811  28.517  39.319   4.760
29497W        W 1812  24.526  34.113  10.867
29498W        W 1813  18.805  40.739   5.409
29499W        W 1814  11.162  11.054  12.946
29500W        W 1815   3.741  39.862   3.256
29501W        W 1816  39.134  34.420   3.703
29502W        W 1817  32.913  37.546   1.125
29503W        W 1818  44.519  17.175   3.672
29504W        W 1819  39.395   5.314  14.416
29505W        W 1820  26.414   5.944  13.970
29506W        W 1821  40.703  31.776  14.556
29507W        W 1822  26.064   5.682  11.720
29508W        W 1823  35.659  15.634   2.327
29509W        W 1824  35.969   0.826   2.367
29510W        W 1825   2.827  35.389   4.743
29511W        W 1826  20.687  34.410   2.410
29512W        W 1827  36.211   1.479  12.580
29513W        W 1828  17.605   6.926  10.313
29514W        W 1829  23.932  15.303  14.356
29515W        W 1830  21.830  24.683   0.074
29516W        W 1831  21.190  18.643  11.742
29517W        W 1832  30.566  16.283   3.156
29518W        W 1833   3.406  28.239   0.786
29519W        W 1834  30.695  40.972   4.283
29520W        W 1835  21.161  19.077   3.428
29521W        W 1836  37.695  32.619  12.654
29522W        W 1837  14.100  38.297  14.814
29523W        W 1838  24.976  19.820   4.074
29524W        W 1839  41.902  34.111  14.966
29525W        W 1840  29.689  39.319   4.136
29526W        W 1841  37.500  11.298   4.701
29527W        W 1842  30.498  17.885  13.849
29528W        W 1843  16.743  24.717  13.303
29529W        W 1844  14.524   7.703   1.809
29530W        W 1845  33.163  31.606   0.746
29531W        W 1846  27.471  18.806   4.143
29532W        W 1847  38.643   3.425   5.096
29533W        W 1848  13.338  22.039  10.593
29534W        W 1849  21.009   0.545  10.905
29535W        W 1850  31.798  37.349   3.743
29536W        W 1851   4.351  24.760  11.409
29537W        W 1852  11.710  44.396  12.330
29538W        W 1853  28.863   2.631  12.018
29539W        W 1854  33.308  14.590  13.517
29540W        W 1855  18.046  42.508  12.949
29541W        W 1856  10.864  26.358   4.592
29542W        W 1857  19.162   6.135   4.534
29543W        W 1858  23.296  33.070   1.387
29544W        W 1859  42.964   9.136  12.472
29545W        W 1860   3.818  42.255   2.419
29546W        W 1861  20.654  27.664   3.324
29547W        W 1862  24.982  17.612  12.051
29548W        W 1863  39.459  34.141  11.384
29549W        W 1864  28.134   3.912  12.365
29550W        W 1865   7.434  19.103  12.995
29551W        W 1866  17.540   5.830   3.761
29552W        W 1867  38.957  27.539   9.806
29553W        W 1868   4.872   6.113   3.250
29554W        W 1869  42.685   6.378   3.735
29555W        W 1870  31.523   8.769  13.914
29556W        W 1871  43.771  36.927  14.409
29557W        W 1872  13.759  17.535  13.329
29558W        W 1873  18.176  17.804  12.491
29559W        W 1874  30.094  26.453   0.984
29560W        W 1875  16.467  18.313  12.757
29561W        W 1876   7.890   6.328   1.055
29562W        W 1877   7.393  20.653   4.600
29563W        W 1878   5.651  37.975  12.014
29564W        W 1879   2.221   2.389   0.691
29565W        W 1880  29.219  30.864   2.139
29566W        W 1881  24.711  27.248  14.571
29567W        W 1882  20.122  11.768   5.207
29568W        W 1883  17.844  10.805  14.094
29569W        W 1884  24.426  38.788   1.363
29570W        W 1885  33.005  40.804  11.376
29571W        W 1886  34.063  33.676   3.143
29572W        W 1887  44.720  27.885   2.068
29573W        W 1888  31.504  11.667   4.483
29574W        W 1889  30.132  13.666  12.660
29575W        W 1890  34.379  16.069  13.960
29576W        W 1891  24.230  11.595   3.255
29577W        W 1892  42.185  17.102   1.724
29578W        W 1893  20.693  33.847   3.331
29579W        W 1894   5.207  24.367  11.535
29580W        W 1895  36.546  22.542   3.160
29581W        W 1896  33.996  21.906   2.738
29582W        W 1897  21.339  31.425   1.217
29583W        W 1898  33.218   5.753  13.929
29584W        W 1899  15.834  20.705  13.450
29585W        W 1900  37.623  27.487   0.995
29586W        W 1901  43.486  20.711  13.131
29587W        W 1902  27.606  25.397   2.207
29588W        W 1903  14.150  29.242   1.351
29589W        W 1904  42.761   4.668   1.825
29590W        W 1905  10.079  21.630  11.960
29591W        W 1906  12.354  36.449   3.952
29592W        W 1907  31.479   8.739  14.444
29593W        W 1908  20.761  28.060   0.437
29594W        W 1909  16.059  23.126  11.566
29595W        W 1910   0.928  32.316  14.280
29596W        W 1911   9.177  43.967  14.800
29597W        W 1912   8.983  14.596   1.834
29598W        W 1913  30.880   8.874   1.718
29599W        W 1914  39.182  19.134  12.189
29600W        W 1915  17.729  10.426  13.767
29601W        W 1916  11.852  14.744  13.474
29602W        W 1917   9.381  37.498   0.302
29603W        W 1918  25.172  43.391   1.693
29604W        W 1919  32.513  40.262  10.775
29605W        W 1920   9.769  40.109  13.055
29606W        W 1921  44.484  36.146   3.013
29607W        W 1922  22.774  35.678   4.182
29608W        W 1923  25.220   8.900  11.180
29609W        W 1924  37.427   7.725  11.968
29610W        W 1925  39.002  20.804  14.810
29611W        W 1926   5.696  26.180   0.368
29612W        W 1927  38.104  28.678  13.488
29613W        W 1928  41.838  41.344  12.126
29614W        W 1929  43.284  30.445   0.969
29615W        W 1930  24.860  15.644   4.527
29616W        W 1931  33.451   2.444   4.017
29617W        W 1932   5.789  12.142   3.681
29618W        W 1933   2.179  39.381   0.478
29619W        W 1934  12.304  20.794   4.526
29620W        W 1935  33.942  28.757  11.674
29621W        W 1936  28.704  42.936   4.750
29622W        W 1937   0.313  38.975  10.732
29623W        W 1938  17.151  14.793   2.753
29624W        W 1939  16.273  37.527   0.046
29625W        W 1940  42.300  27.290   2.816
29626W        W 1941  28.871  15.675  10.780
29627W        W 1942  25.807  39.111  14.031
29628W        W 1943  33.860  33.670   1.343
29629W        W 1944  44.849  28.862   2.189
29630W        W 1945   7.390  26.699   3.240
29631W        W 1946  36.197  20.668   4.686
29632W        W 1947  42.844  36.942   1.072
29633W        W 1948  37.505  33.136  13.999
29634W        W 1949  11.290   6.735  10.625
29635W        W 1950  41.726  35.067   3.232
29636W        W 1951   0.847  38.902  14.967
29637W        W 1952  32.520  20.256   1.771
29638W        W 1953   0.880  35.600  12.008
29639W        W 1954  17.231  42.443   4.149
29640W        W 1955  32.463  29.929  10.737
29641W        W 1956  22.876  16.599  14.804
29642W        W 1957  44.288  41.441   3.239
29643W        W 1958  12.504  23.566  12.600
29644W        W 1959  18.737   7.924  12.471
29645W        W 1960   3.171   8.717  12.968
29646W        W 1961   2.702   9.423  10.554
29647W        W 1962  34.360  40.810   2.690
29648W        W 1963  28.224  38.852   1.852
29649W        W 1964  31.351  11.314   2.484
29650W        W 1965  39.834  34.415  10.341
29651W        W 1966   4.280  23.647   2.732
29652W        W 1967  12.394   9.464  12.140
29653W        W 1968  41.060  11.320  11.255
29654W        W 1969   8.846  10.760   3.365
29655W        W 1970  42.850  14.117   1.194
29656W        W 1971  13.507  37.395  12.917
29657W        W 1972  10.772  14.452  14.844
29658W        W 1973  27.163  39.242   2.849
29659W        W 1974  14.071  19.575   4.878
29660W        W 1975  43.939  39.899   0.481
29661W        W 1976  26.219  11.830   1.304
29662W        W 1977  23.492  22.670   2.240
29663W        W 1978  13.394  37.302   3.603
29664W        W 1979  43.017   0.403   0.886
29665W        W 1980  26.427  39.219  12.438
29666W        W 1981  22.855  33.307   4.995
29667W        W 1982  33.153  23.179  11.909
29668W        W 1983  17.745   3.424  13.567
29669W        W 1984   3.880  22.012   0.993
29670W        W 1985  41.683  25.024   4.639
29671W        W 1986  42.127  37.454  10.911
29672W        W 1987  27.781   1.463  13.978
29673W        W 1988  32.010  10.443  10.978
29674W        W 1989  19.781  17.121   1.677
29675W        W 1990  11.649  43.001   4.491
29676W        W 1991  28.840  30.175  12.543
29677W        W 1992   1.865  38.874   4.196
29678W        W 1993  13.613  31.689  12.498
29679W        W 1994   7.412  33.401  10.772
29680W        W 1995  10.206  31.145   2.442
29681W        W 1996  25.007  17.183   1.831
29682W        W 1997  40.595  31.943  14.080
29683W        W 1998  30.228  10.097   0.359
29684W        W 1999  17.705   3.968   3.233
29685W        W 2000  36.727  15.087   2.252
29686W        W 2001  21.946  38.073   1.827
29687W        W 2002   1.266  43.796   1.359
29688W        W 2003  14.896  32.687   0.311
29689W        W 2004  40.227   7.719   2.647
29690W        W 2005  32.640  18.808   3.791
29691W        W 2006  30.589  44.533  11.085
29692W        W 2007  18.879  10.803   4.948
29693W        W 2008  19.073  26.070   2.784
29694W        W 2009  28.063   1.502   2.693
29695W        W 2010  17.662  39.765   0.870
29696W        W 2011   4.493  34.829   0.460
29697W        W 2012  36.927   1.353   3.112
29698W        W 2013  30.494  44.459   0.929
29699W        W 2014  43.377  16.720  11.420
29700W        W 2015  32.412  12.147   3.410
29701W        W 2016  35.504  11.436   4.026
29702W        W 2017  37.686  40.521   0.636
29703W        W 2018  26.648  18.352  14.004
29704W        W 2019   9.164  32.197  13.195
29705W        W 2020  16.700   5.232  13.857
29706W        W 2021  35.589  32.913  11.054
29707W        W 2022   9.390  31.886  13.585
29708W        W 2023  38.250  18.022   3.072
29709W        W 2024   0.899  34.285  14.552
29710W        W 2025  38.335   1.303  13.784
29711W        W 2026  43.096  34.534   1.244
29712W        W 2027   4.104  20.124   2.983
29713W        W 2028  23.064  44.828   4.159
29714W        W 2029  38.339  39.622   3.207
29715W        W 2030  24.081  17.201   0.661
29716W        W 2031  18.288  21.748   1.673
29717W        W 2032  21.106  18.149   1.938
29718W        W 2033  10.208   2.880  12.631
29719W        W 2034  44.892  24.527   3.469
29720W        W 2035  38.321   1.268   4.976
29721W        W 2036  14.677  33.516  13.285
29722W        W 2037   5.339   3.483   4.647
29723W        W 2038  35.835  20.234  11.644
29724W        W 2039  13.394  39.553   4.207
29725W        W 2040   7.368  43.031  10.268
29726W        W 2041   5.715   9.752  12.099
29727W        W 2042  43.100  35.845  12.113
29728W        W 2043  33.608  29.228  14.851
29729W        W 2044  28.073  41.969   3.371
29730W        W 2045   0.000  31.922  10.464
29731W        W 2046   9.657  39.740  14.738
29732W        W 2047  24.601  20.028   4.412
29733W        W 2048  37.620  31.385  11.382
29734W        W 2049  25.569   7.855   3.415
29735W        W 2050  35.284   9.987  10.277
29736W        W 2051  19.680  25.085  13.946
29737W        W 2052  14.104  12.776   2.377
29738W        W 2053  21.773  38.264   0.537
29739W        W 2054  12.958   8.939   0.499
29740W        W 2055  39.765   1.033   0.044
29741W        W 2056  33.932  19.307   1.582
29742W        W 2057  39.077  20.699  10.911
29743W        W 2058  44.870   7.462   2.123
29744W        W 2059  12.819  22.138   0.762
29745W        W 2060  17.973   2.506  13.879
29746W        W 2061  10.702  27.898   3.735
29747W        W 2062   2.527  27.459  12.196
29748W        W 2063  14.056  30.625   0.289
29749W        W 2064  11.336  26.925  11.108
29750W        W 2065  17.775  30.249   5.497
29751W        W 2066  24.314  24.200  10.698
29752W        W 2067  36.496  31.471   4.408
29753W        W 2068  36.424  15.870  13.024
29754W        W 2069  24.440  12.903   3.377
29755W        W 2070  38.210  28.086  11.550
29756W        W 2071   3.142   7.722  13.368
29757W        W 2072  15.305  28.906  10.313
29758W        W 2073  15.563  38.089   4.303
29759W        W 2074  14.241  33.353  11.179
29760W        W 2075   2.904  32.877   1.107
29761W        W 2076  41.266  26.712  12.049
29762W        W 2077  20.218  40.141   4.666
29763W        W 2078  31.866  34.603  13.043
29764W        W 2079   9.833  21.089   1.961
29765W        W 2080  15.502   4.290   0.377
29766W        W 2081  23.722  40.937  14.811
29767W        W 2082  27.964  41.742  13.287
29768W        W 2083   0.521  13.645  12.824
29769W        W 2084   5.805  27.454   0.746
29770W        W 2085  11.746  15.798   4.807
29771W        W 2086  15.028  40.058  11.530
29772W        W 2087  21.979   1.308   0.738
29773W        W 2088   9.574  10.384   4.912
29774W        W 2089  17.698  30.205   3.713
29775W        W 2090  30.587  38.011  11.321
29776W        W 2091  28.145  30.168  14.298
29777W        W 2092  19.159  11.782   0.677
29778W        W 2093   8.831   2.741   1.821
29779W        W 2094  10.186  38.652   3.132
29780W        W 2095  35.678  18.185   3.021
29781W        W 2096  36.740  34.682   2.824
29782W        W 2097  26.913  34.981  12.204
29783W        W 2098  33.201  27.644  11.956
29784W        W 2099  29.142  22.055   2.718
29785W        W 2100  28.744  37.274   3.826
29786W        W 2101  32.599  43.362   0.839
29787W        W 2102  38.974  34.344  11.391
29788W        W 2103  38.236  24.669   1.324
29789W        W 2104  15.723  39.213  12.613
29790W        W 2105   7.382   1.723  14.826
29791W        W 2106  26.129  15.862  12.548
29792W        W 2107   4.314  28.645   4.705
29793W        W 2108  30.883   4.375  11.508
29794W        W 2109  14.798   2.315   4.769
29795W        W 2110  21.165  38.030   3.209
29796W        W 2111  12.230  26.235  11.510
29797W        W 2112  28.388   1.977  14.873
29798W        W 2113  42.506  14.867   4.514
29799W        W 2114  27.200   8.222   1.438
29800W        W 2115  35.082  11.399   3.721
29801W        W 2116  27.372   2.222   2.715
29802W        W 2117   1.216  29.001   0.295
29803W        W 2118   2.638  42.756  12.375
29804W        W 2119  10.083  17.660   0.009
29805W        W 2120  23.581   3.182  14.329
29806W        W 2121   3.449  38.072   1.259
29807W        W 2122  13.360  38.477  11.585
29808W        W 2123  43.925  20.424   2.648
29809W        W 2124  43.434  11.187  10.771
29810W        W 2125  19.591   3.979   4.558
29811W        W 2126  12.262  10.354   2.654
29812W        W 2127  41.430  20.199  13.735
29813W        W 2128  26.257   5.459   5.142
29814W        W 2129  11.573  21.170   1.462
29815W        W 2130  32.537  10.055   2.612
29816W        W 2131  27.481  39.831  13.427
29817W        W 2132   4.168   1.270  11.944
29818W        W 2133  43.257  16.829   0.401
29819W        W 2134  29.926   3.278  11.387
29820W        W 2135  21.531   3.239  12.564
29821W        W 2136  33.103  23.163  10.642
29822W        W 2137  35.643   7.038   2.686
29823W        W 2138   7.602  28.533  12.367
29824W        W 2139  20.006  16.710  13.291
29825W        W 2140  26.125   0.127   4.960
29826W        W 2141  23.914   1.863  13.381
29827W        W 2142  21.612  37.575  12.258
29828W        W 2143  21.614  27.137   3.425
29829W        W 2144  27.996   9.619   2.942
29830W        W 2145   2.445  31.270  11.157
29831W        W 2146  41.416  12.736   0.320
29832W        W 2147   5.654  21.215   2.313
29833W        W 2148   0.506  34.032   5.078
29834W        W 2149  42.224  34.873  14.849
29835W        W 2150  43.910  22.234  11.965
29836W        W 2151  33.990   8.488  12.026
29837W        W 2152  31.026  26.084  13.841
29838W        W 2153   5.533  13.690  14.803
29839W        W 2154  10.106  29.511  14.409
29840W        W 2155  44.884  24.063  12.792
29841W        W 2156  24.246   0.560  11.116
29842W        W 2157   9.155   8.265  11.607
29843W        W 2158  43.852  13.809  14.521
29844W        W 2159  19.930   3.998   1.821
29845W        W 2160  25.509  11.859  12.006
29846W        W 2161  34.968  12.787   1.461
29847W        W 2162   2.046  35.255   3.606
29848W        W 2163  11.645   0.389   9.892
29849W        W 2164  11.738   1.954   4.603
29850W        W 2165  39.628   9.882  12.520
29851W        W 2166  25.473  30.527   5.043
29852W        W 2167  41.762   1.025  11.178
29853W        W 2168  39.851  34.976  11.092
29854W        W 2169  23.736  24.307   0.648
29855W        W 2170  33.353  17.847  13.816
29856W        W 2171  29.396  19.736   3.314
29857W        W 2172  22.635  16.209  14.114
29858W        W 2173  19.159  16.637   3.557
29859W        W 2174  34.781  20.293   2.250
29860W        W 2175   3.652   0.666  13.455
29861W        W 2176  31.032  39.334   1.541
29862W        W 2177  29.087  14.578   2.255
29863W        W 2178  35.813  39.452  11.635
29864W        W 2179   6.839  21.036   1.461
29865W        W 2180  11.640  32.079  10.657
29866W        W 2181  20.997  35.420   0.227
29867W        W 2182   9.182  44.005  12.863
29868W        W 2183  21.347  20.339  10.153
29869W        W 2184  37.777  37.446   4.658
29870W        W 2185   5.436  38.972   2.648
29871W        W 2186  38.188  42.864   0.369
29872W        W 2187  29.570   4.352  12.189
29873W        W 2188   3.672  19.767  10.620
29874W        W 2189  30.458  23.391  11.593
29875W        W 2190  27.855  10.215   3.682
29876W        W 2191   3.076  32.004  13.069
29877W        W 2192   4.723  12.111  13.861
29878W        W 2193  40.976   9.908   3.434
29879W        W 2194   8.218  11.585  14.732
29880W        W 2195  20.667  44.267  13.638
29881W        W 2196   1.710  13.723   4.800
29882W        W 2197  18.333   1.022  10.653
29883W        W 2198  15.841  37.308   2.285
29884W        W 2199  18.859  14.266   0.418
29885W        W 2200  40.835  33.016   2.325
29886W        W 2201  29.864   0.406   2.028
29887W        W 2202  20.982  42.031   1.373
29888W        W 2203  11.714  11.112   2.667
29889W        W 2204  12.359  17.628   4.762
29890W        W 2205  43.928  12.896  13.529
29891W        W 2206  40.986  23.175  14.798
29892W        W 2207  32.556  22.516  12.110
29893W        W 2208   1.501   5.966   4.245
29894W        W 2209  20.251  18.046   4.276
29895W        W 2210  25.872  37.951  13.074
29896W        W 2211  42.064  31.578   2.263
29897W        W 2212  36.762  20.848  14.380
29898W        W 2213   2.780  39.582   1.791
29899W        W 2214   2.265  11.812  11.980
29900W        W 2215  36.955  34.887  14.478
29901W        W 2216   1.515   1.893   3.482
29902W        W 2217  30.963  25.029  11.210
29903W        W 2218  34.758  26.059   0.457
29904W        W 2219  43.554   9.726  12.601
29905W        W 2220   6.941  35.118   4.275
29906W        W 2221  21.593  13.578   3.217
29907W        W 2222   5.456  32.836   1.702
29908W        W 2223  22.936  21.854  12.869
29909W        W 2224  21.644  19.774   3.074
29910W        W 2225  26.698  40.955  11.084
29911W        W 2226  17.739  40.307   9.860
29912W        W 2227  24.964  38.939  11.161
29913W        W 2228  44.452   5.999  13.519
29914W        W 2229   7.631  40.284  13.447
29915W        W 2230  33.040  22.976   1.178
29916W        W 2231  26.517  38.922   4.228
29917W        W 2232  10.588  32.976  10.641
29918W        W 2233   3.624  41.039   3.423
29919W        W 2234   5.438  43.928   2.821
29920W        W 2235  34.482  34.370  12.558
29921W        W 2236   9.428  10.091  12.007
29922W        W 2237  36.329  10.808   0.797
29923W        W 2238  41.578  40.914   3.888
29924W        W 2239  31.605  27.384   0.423
29925W        W 2240  42.732  41.773   2.501
29926W        W 2241  42.873   0.343   2.340
29927W        W 2242   9.424  26.639   0.444
29928W        W 2243  16.606   6.776   2.355
29929W        W 2244  41.418  39.245   0.304
29930W        W 2245  27.162  13.694   0.837
29931W        W 2246   1.444  26.986   1.771
29932W        W 2247  13.190  38.933  13.038
29933W        W 2248  15.464  19.822  12.885
29934W        W 2249  43.297  14.225   4.678
29935W        W 2250  20.247  25.652   2.959
29936W        W 2251  30.743   5.679   4.708
29937W        W 2252   4.415   6.313   4.829
29938W        W 2253  17.052   8.372   0.029
29939W        W 2254  13.719  36.261   3.281
29940W        W 2255   3.733  10.263   3.796
29941W        W 2256  11.193  23.600  14.364
29942W        W 2257   1.003   7.671  11.090
29943W        W 2258   2.290  31.498  13.301
29944W        W 2259   3.892  31.843   4.591
29945W        W 2260   5.838  12.643  13.944
29946W        W 2261  25.190   1.539   3.203
29947W        W 2262  30.737   9.881  13.587
29948W        W 2263   9.331  27.004  12.805
29949W        W 2264   0.229  36.895   1.370
29950W        W 2265  20.422   8.076  12.008
29951W        W 2266  30.158  33.678   2.395
29952W        W 2267  26.471  17.661   4.080
29953W        W 2268   8.354   7.847   1.055
29954W        W 2269  37.775  31.946  14.496
29955W        W 2270  35.019  40.676  11.286
29956W        W 2271  43.379  22.117  12.901
29957W        W 2272  24.946  13.699   2.315
29958W        W 2273  44.512  38.540  14.862
29959W        W 2274  38.876   1.409  10.722
29960W        W 2275  17.617  21.585  13.380
29961W        W 2276   0.458  12.297  14.918
29962W        W 2277  13.796  37.525  11.359
29963W        W 2278  10.359  44.251   4.557
29964W        W 2279  38.751  34.397   2.702
29965W        W 2280  11.558   2.296  12.548
29966W        W 2281  36.408   2.190   1.640
29967W        W 2282  17.531  17.866  11.937
29968W        W 2283  31.093  17.251  11.544
29969W        W 2284   4.884  40.029   4.998
29970W        W 2285  43.226  38.904   0.145
29971W        W 2286  12.279   7.242   0.403
29972W        W 2287  27.062   5.131  10.574
29973W        W 2288  28.642  17.442   3.954
29974W        W 2289  15.682   1.851   0.921
29975W        W 2290  42.073  39.698  12.824
29976W        W 2291  16.180  34.953  13.064
29977W        W 2292  13.916  39.431   2.718
29978W        W 2293  10.607  35.659   0.810
29979W        W 2294  40.744   5.187  14.783
29980W        W 2295   4.245  32.435   1.423
29981W        W 2296  40.127  33.934   4.702
29982W        W 2297  39.971  42.414   1.227
29983W        W 2298  23.468  16.561  14.008
29984W        W 2299  11.914  22.482  14.824
29985W        W 2300  33.926  17.048   2.691
29986W        W 2301  13.504  18.729   0.612
29987W        W 2302   6.578  16.951   3.396
29988W        W 2303   9.851  18.668  14.372
29989W        W 2304  32.914  27.001   3.181
29990W        W 2305  25.832  42.304   4.759
29991W        W 2306  21.773  43.738  12.485
29992W        W 2307  27.006  44.648  12.770
29993W        W 2308  11.233  42.291  12.092
29994W        W 2309   3.913  21.165   2.846
29995W        W 2310   2.345   3.717  11.573
29996W        W 2311  24.142  31.400  13.474
29997W        W 2312  23.718   2.185   0.253
29998W        W 2313  30.351  16.524   0.813
29999W        W 2314  43.510   8.256   4.579
30000W        W 2315  31.508  24.515   2.443
30001W        W 2316  29.921  10.896  14.086
30002W        W 2317  33.573   5.635  12.421
30003W        W 2318   1.087   3.593   3.005
30004W        W 2319  22.804  28.369   1.746
30005W        W 2320  36.900  40.029   3.693
30006W        W 2321  34.852  33.888   2.464
30007W        W 2322  37.072  39.823  14.368
30008W        W 2323  23.523  43.023   2.927
30009W        W 2324  36.043  28.540  14.693
30010W        W 2325  32.109  36.037  11.568
30011W        W 2326   6.275  11.358  11.488
30012W        W 2327  22.468  19.081   3.809
30013W        W 2328   7.781   1.343   1.270
30014W        W 2329  13.167  44.927  14.563
30015W        W 2330  10.851  17.231  14.281
30016W        W 2331  19.505  13.183  10.694
30017W        W 2332  18.905  20.223   3.981
30018W        W 2333  44.776   9.308   2.866
30019W        W 2334  34.366  18.065  12.369
30020W        W 2335  31.962  41.373   1.722
30021W        W 2336   9.135  41.018   2.789
30022W        W 2337   5.452  34.816   3.296
30023W        W 2338  40.127  12.768  11.130
30024W        W 2339  24.938  38.575   2.672
30025W        W 2340  12.679  23.196  13.816
30026W        W 2341  26.501   2.164  11.534
30027W        W 2342  10.579   3.921   3.212
30028W        W 2343  29.067  23.186  12.128
30029W        W 2344  15.871  42.294   4.650
30030W        W 2345  23.258  34.746  13.399
30031W        W 2346   2.906  10.131   2.293
30032W        W 2347   8.749  38.547   3.160
30033W        W 2348  40.924  38.816  13.270
30034W        W 2349   8.750  30.827   1.405
30035W        W 2350   5.291  30.971  13.325
30036W        W 2351  19.286  27.894   2.596
30037W        W 2352  24.105  25.135  14.786
30038W        W 2353  32.412  12.334  14.944
30039W        W 2354  33.511   1.809   4.677
30040W        W 2355  27.803  23.999   1.709
30041W        W 2356   8.606  34.440  13.476
30042W        W 2357  19.560  24.018  14.798
30043W        W 2358  21.271  41.106  14.548
30044W        W 2359  30.320  12.195  11.240
30045W        W 2360  37.975  26.248   5.066
30046W        W 2361   8.451  16.585   5.078
30047W        W 2362   4.903  22.775   2.762
30048W        W 2363   4.746  20.622   0.511
30049W        W 2364  11.243  38.765   4.301
30050W        W 2365  10.923  12.644  12.452
30051W        W 2366  39.340  32.212  11.661
30052W        W 2367  15.614  21.253  12.008
30053W        W 2368  12.812   4.699  10.492
30054W        W 2369   5.230  21.277   4.154
30055W        W 2370  27.064   5.367   0.086
30056W        W 2371   2.022  35.960   4.514
30057W        W 2372  44.723  43.007   0.583
30058W        W 2373  29.547   3.970  12.540
30059W        W 2374   0.532   1.800  12.414
30060W        W 2375  24.121  34.019   3.911
30061W        W 2376  19.837   9.371   1.006
30062W        W 2377  16.394  14.179   2.625
30063W        W 2378  19.555  26.431   0.144
30064W        W 2379  33.063  11.162   0.312
30065W        W 2380  23.352  40.760   3.382
30066W        W 2381   5.276  36.507  12.376
30067W        W 2382  26.141  31.032  10.961
30068W        W 2383  33.842  27.432  10.737
30069W        W 2384  30.465  14.285  13.878
30070W        W 2385  39.488   7.947  11.570
30071W        W 2386  21.062  44.015   2.816
30072W        W 2387  24.620  26.278  11.120
30073W        W 2388  10.219  30.440  11.082
30074W        W 2389   8.677  30.085  13.466
30075W        W 2390   5.541   7.317  11.516
30076W        W 2391  39.454  34.750   3.942
30077W        W 2392  21.021  37.574   4.403
30078W        W 2393   9.605  42.361   1.729
30079W        W 2394   1.779   1.131  13.428
30080W        W 2395  17.580  25.981  11.126
30081W        W 2396  35.448  14.016  14.885
30082W        W 2397  12.811  29.015  12.784
30083W        W 2398  14.362  23.585   3.798
30084W        W 2399  31.976  20.101  14.366
30085W        W 2400  29.898  12.695   4.071
30086W        W 2401  39.105  28.276   3.923
30087W        W 2402  16.715  38.592  10.104
30088W        W 2403   8.137  41.855   0.359
30089W        W 2404  14.093  14.872   1.286
30090W        W 2405  38.341  43.910   3.672
30091W        W 2406  32.383   8.466   3.249
30092W        W 2407  17.763  28.555  12.513
30093W        W 2408  22.801   6.248   1.588
30094W        W 2409  13.345  35.580  12.463
30095W        W 2410  10.798   2.459  14.376
30096W        W 2411  28.961  30.196   4.652
30097W        W 2412   9.780  14.865  10.721
30098W        W 2413   9.153   9.807  10.717
30099W        W 2414  10.185  30.158  11.515
30100W        W 2415  39.042  19.622   3.678
30101W        W 2416  27.873  15.896  12.923
30102W        W 2417  17.162  21.874   1.910
30103W        W 2418   8.696  32.209   3.981
30104W        W 2419   2.398  43.019   3.735
30105W        W 2420  28.135  21.798  10.520
30106W        W 2421  41.920  19.137   1.932
30107W        W 2422  22.814  26.713   1.356
30108W        W 2423  27.965  25.745  10.680
30109W        W 2424  28.058  24.042  11.344
30110W        W 2425   8.334   7.381  13.780
30111W        W 2426  23.532   1.583   4.705
30112W        W 2427   7.248  25.604   0.433
30113W        W 2428  44.905  24.811   3.929
30114W        W 2429  14.714  33.110  11.193
30115W        W 2430  10.141  43.046  12.841
30116W        W 2431  12.775   3.254   2.277
30117W        W 2432  28.045   8.282  12.120
30118W        W 2433  24.477  26.541   2.351
30119W        W 2434   4.180  27.723  13.451
30120W        W 2435  14.662   9.198  11.915
30121W        W 2436  10.851  41.426  13.023
30122W        W 2437  23.712  26.045  12.126
30123W        W 2438  12.681  36.981   4.747
30124W        W 2439   4.183   0.224  11.430
30125W        W 2440  24.149  24.488   0.945
30126W        W 2441  40.433  37.045   3.895
30127W        W 2442   7.339  20.245   3.198
30128W        W 2443   0.815   3.763  11.143
30129W        W 2444  16.531  10.182   2.672
30130W        W 2445  42.863  28.635   3.854
30131W        W 2446  39.648  14.263   5.231
30132W        W 2447   0.966  39.065  12.875
30133W        W 2448   8.189   7.282  11.915
30134W        W 2449  32.610  26.192   1.202
30135W        W 2450   1.154   2.254  13.821
30136W        W 2451  34.464  38.137  14.548
30137W        W 2452  12.300  37.567  11.472
30138W        W 2453  37.796  34.867   1.489
30139W        W 2454   6.890  18.248   1.893
30140W        W 2455   7.799  36.306  13.908
30141W        W 2456  30.039  38.114  14.999
30142W        W 2457  24.687   8.314   3.082
30143W        W 2458   6.897   7.784   3.600
30144W        W 2459  30.144   6.353   3.678
30145W        W 2460  11.584  38.656  11.165
30146W        W 2461  29.268  36.865   2.154
30147W        W 2462  11.896  32.861  12.073
30148W        W 2463   0.359  37.585  11.894
30149W        W 2464  37.854   0.998  12.960
30150W        W 2465  21.963  32.346   4.593
30151W        W 2466  11.196  30.969   1.251
30152W        W 2467   6.749  33.373   4.514
30153W        W 2468  15.147  39.376  11.114
30154W        W 2469  34.320  41.160   3.319
30155W        W 2470  32.853  13.829   0.016
30156W        W 2471   1.591  32.951  13.758
30157W        W 2472  44.925  34.522   1.018
30158W        W 2473  17.068   6.601   3.250
30159W        W 2474  11.151  17.194   1.810
30160W        W 2475  30.073  23.305   4.323
30161W        W 2476  11.823  17.116   0.278
30162W        W 2477   4.310   4.279   0.840
30163W        W 2478  24.207  20.090   0.250
30164W        W 2479   9.214  31.188  13.078
30165W        W 2480   2.830   6.249  13.927
30166W        W 2481  15.232  39.733   4.878
30167W        W 2482  15.190   2.835   3.543
30168W        W 2483  32.124  44.273   4.207
30169W        W 2484   0.537  33.965   5.603
30170W        W 2485   0.368   2.782  13.988
30171W        W 2486  16.278  19.906   4.320
30172W        W 2487  26.530  11.202  13.431
30173W        W 2488  22.596  39.865   4.578
30174W        W 2489  10.570  22.142   3.246
30175W        W 2490  37.560  38.850   1.427
30176W        W 2491  26.844  28.389   3.661
30177W        W 2492  13.832  37.572   0.942
30178W        W 2493  18.587  40.467   1.756
30179W        W 2494  18.486  20.637  12.007
30180W        W 2495  41.276  38.767   2.705
30181W        W 2496  20.716  17.064   1.110
30182W        W 2497  37.073  35.354   1.467
30183W        W 2498  21.063  16.726  12.447
30184W        W 2499   8.626  19.293   0.395
30185W        W 2500  36.974  18.934  12.256
30186W        W 2501  24.960  16.194  12.568
30187W        W 2502  38.139  29.185   2.685
30188W        W 2503  36.948  24.666  10.687
30189W        W 2504  44.216  25.657   2.211
30190W        W 2505  38.516  15.280  12.912
30191W        W 2506  41.990  26.145   3.786
30192W        W 2507  26.523  27.567   0.018
30193W        W 2508  16.800  34.413   3.164
30194W        W 2509  40.414   3.723  14.554
30195W        W 2510  36.350   2.974   1.224
30196W        W 2511  40.130   8.793   1.274
30197W        W 2512  20.271  27.042  13.520
30198W        W 2513  26.528  12.669  14.922
30199W        W 2514   1.532  35.653   5.055
30200W        W 2515  38.236  25.078   4.085
30201W        W 2516  37.834  17.636   3.397
30202W        W 2517   2.199  23.519  14.929
30203W        W 2518  35.617  24.551   4.008
30204W        W 2519  17.365  16.015  13.846
30205W        W 2520   8.838  31.701   4.186
30206W        W 2521  10.695  29.662   0.220
30207W        W 2522  21.036  27.911   2.293
30208W        W 2523  29.200  42.300   0.501
30209W        W 2524  23.094   4.318   4.088
30210W        W 2525  27.103  11.279   2.688
30211W        W 2526  26.686  25.138   4.534
30212W        W 2527  40.474  27.863   5.078
30213W        W 2528  29.076  40.174  14.960
30214W        W 2529  43.426  22.710  10.660
30215W        W 2530   5.790   2.602   2.619
30216W        W 2531  28.278  19.530   0.289
30217W        W 2532  36.930  26.916  13.090
30218W        W 2533  18.720   6.624  14.855
30219W        W 2534  39.349  36.542   3.760
30220W        W 2535  30.366  13.780  13.871
30221W        W 2536  44.722  17.997   2.259
30222W        W 2537  37.436  23.997  13.854
30223W        W 2538   3.010   2.428   0.528
30224W        W 2539  17.053   0.425  10.578
30225W        W 2540  41.039   6.738  14.063
30226W        W 2541  17.471   4.197   0.922
30227W        W 2542  42.710  29.945  13.880
30228W        W 2543  25.069   5.462   2.345
30229W        W 2544  22.586  37.820   0.051
30230W        W 2545  32.898  20.259  11.163
30231W        W 2546  15.777  20.631   3.726
30232W        W 2547  20.913   0.879   3.307
30233W        W 2548  31.852   9.720  12.954
30234W        W 2549  43.977  21.647   4.485
30235W        W 2550  44.841  29.576   3.853
30236W        W 2551  13.832   9.109  12.468
30237W        W 2552  13.056  13.424   4.155
30238W        W 2553  20.212  20.430  14.991
30239W        W 2554  41.453  39.552   3.322
30240W        W 2555  15.042  20.446   4.133
30241W        W 2556  12.170   0.283  12.755
30242W        W 2557   8.428  26.482  13.647
30243W        W 2558   9.328  14.093   4.723
30244W        W 2559  18.305  26.981   0.957
30245W        W 2560  15.204  28.444  13.867
30246W        W 2561   0.565  21.460  14.977
30247W        W 2562  29.707  18.068   2.942
30248W        W 2563   8.889   0.761  10.879
30249W        W 2564  18.637  34.907   1.756
30250W        W 2565  20.612  20.611   1.227
30251W        W 2566  19.471  11.570  10.964
30252W        W 2567   1.079  27.049  13.864
30253W        W 2568  32.936  12.088   4.482
30254W        W 2569  25.292  14.181  11.072
30255W        W 2570  15.604  13.968   3.165
30256W        W 2571  28.280  10.068   2.882
30257W        W 2572  23.203  22.282  11.563
30258W        W 2573  16.325  12.190   1.416
30259W        W 2574  33.424  33.332   3.698
30260W        W 2575   2.299  42.745  14.803
30261W        W 2576   8.373  31.447   1.642
30262W        W 2577  37.284  43.760  11.611
30263W        W 2578  36.541  18.611   0.011
30264W        W 2579  31.895  11.063  13.928
30265W        W 2580  22.293  35.892   4.857
30266W        W 2581  36.477  28.977   2.631
30267W        W 2582  14.034  37.582   4.357
30268W        W 2583  12.204  25.556   3.641
30269W        W 2584   0.192  24.465   2.768
30270W        W 2585   0.425  16.660  11.086
30271W        W 2586  43.712   3.665  11.077
30272W        W 2587  14.880  27.082   3.354
30273W        W 2588  41.832   0.773  12.257
30274W        W 2589  44.386  33.165   1.445
30275W        W 2590  21.561  25.500   4.566
30276W        W 2591  37.410  22.571  14.352
30277W        W 2592  13.935   2.333   1.244
30278W        W 2593  22.080  33.044  10.722
30279W        W 2594  16.570  29.519   3.107
30280W        W 2595  42.891  15.162  11.441
30281W        W 2596  40.501  41.321   4.132
30282W        W 2597  12.860  36.526   4.170
30283W        W 2598  34.949  35.913  13.836
30284W        W 2599   7.383  14.307   3.224
30285W        W 2600  12.117   5.157   1.188
30286W        W 2601  43.799  14.695   1.970
30287W        W 2602  25.114  20.209  10.038
30288W        W 2603  29.382  44.323   2.664
30289W        W 2604  11.833  24.639   4.109
30290W        W 2605  11.903  35.136   2.635
30291W        W 2606   5.346  43.064   0.884
30292W        W 2607  42.386  41.781   4.396
30293W        W 2608  36.158  35.036  14.928
30294W        W 2609   2.220  18.020  13.416
30295W        W 2610  33.508   4.285   2.946
30296W        W 2611  15.809  15.146   0.797
30297W        W 2612  36.692  35.689   4.571
30298W        W 2613  30.300  36.872  13.526
30299W        W 2614  15.977  22.281   0.022
30300W        W 2615  13.145   2.764   0.745
30301W        W 2616  28.981  26.591   2.199
30302W        W 2617  42.505  16.584  11.721
30303W        W 2618   6.155   8.962   2.877
30304W        W 2619   2.434  34.820   4.233
30305W        W 2620  24.119  22.514   4.648
30306W        W 2621  43.586  10.261   0.600
30307W        W 2622  22.007  28.960   1.171
30308W        W 2623  19.734  21.502   0.502
30309W        W 2624  19.533  10.695   2.277
30310W        W 2625  28.109  40.229   4.148
30311W        W 2626  21.866   7.355   4.169
30312W        W 2627   1.241  36.733   0.520
30313W        W 2628  27.723   6.765   2.832
30314W        W 2629  24.988  16.283   0.839
30315W        W 2630   2.148  20.528  11.216
30316W        W 2631  43.305  10.648  11.678
30317W        W 2632   9.432   9.128  14.554
30318W        W 2633  34.392  38.974  14.820
30319W        W 2634  34.068   5.204   0.316
30320W        W 2635  20.736  23.472   3.686
30321W        W 2636   3.400   9.147   1.793
30322W        W 2637   2.457  19.664   2.724
30323W        W 2638  35.599  43.992   1.201
30324W        W 2639  10.637  41.876  11.367
30325W        W 2640  26.186   5.931  12.724
30326W        W 2641  13.712  26.244   2.847
30327W        W 2642  10.108  25.165  13.964
30328W        W 2643  16.173  20.554   0.044
30329W        W 2644  21.598  20.726   9.899
30330W        W 2645   5.351  15.603   0.053
30331W        W 2646  24.714   4.274  14.107
30332W        W 2647  18.942  37.301  14.423
30333W        W 2648  36.913   7.703  12.491
30334W        W 2649   7.565  43.851  11.069
30335W        W 2650  41.417  36.836   1.943
30336W        W 2651  22.931   0.044   3.176
30337W        W 2652  41.167  38.083   1.904
30338W        W 2653  11.341  16.265   2.556
30339W        W 2654  20.301   7.970   0.833
30340W        W 2655  30.978  41.881  11.875
30341W        W 2656  43.322  33.496   0.893
30342W        W 2657   6.406  15.806  13.825
30343W        W 2658  39.064  43.307   3.318
30344W        W 2659  44.402  43.543   4.105
30345W        W 2660  31.879  32.196  10.678
30346W        W 2661   4.264  30.691   3.214
30347W        W 2662  43.275  30.197   0.335
30348W        W 2663  41.926  27.940   1.201
30349W        W 2664  22.410  42.768   1.714
30350W        W 2665   3.523  12.631   3.687
30351W        W 2666  13.723  35.566  13.160
30352W        W 2667  30.496  38.890  12.818
30353W        W 2668   4.747  31.249  11.094
30354W        W 2669  36.283  32.517   2.823
30355W        W 2670  41.733  39.062  11.572
30356W        W 2671  19.190  29.378   0.841
30357W        W 2672  18.292   1.530  12.937
30358W        W 2673   8.989  42.506   2.136
30359W        W 2674  27.950  25.139   3.165
30360W        W 2675  12.638  37.686  13.883
30361W        W 2676  10.672  14.838   2.419
30362W        W 2677  11.359  34.990  14.528
30363W        W 2678  25.501  43.317  12.608
30364W        W 2679  35.953  20.533   3.257
30365W        W 2680  42.530   9.701   1.884
30366W        W 2681   7.348  12.658   3.297
30367W        W 2682  38.454  10.062   4.151
30368W        W 2683  20.261  12.216  13.335
30369W        W 2684  13.803  10.105   3.630
30370W        W 2685  20.789   8.675   1.335
30371W        W 2686  21.442  20.239  11.034
30372W        W 2687  40.000  21.767   3.108
30373W        W 2688   0.703  29.606   2.268
30374W        W 2689  22.092   4.796  10.455
30375W        W 2690  34.475  35.337  13.604
30376W        W 2691  27.016  43.355   2.258
30377W        W 2692  36.962  37.577  10.481
30378W        W 2693   3.139  29.536  14.928
30379W        W 2694  28.995  18.067   0.378
30380W        W 2695  28.919  31.470  13.269
30381W        W 2696   7.277  20.940   1.163
30382W        W 2697  10.084   7.778  12.949
30383W        W 2698  25.014  35.162   0.941
30384W        W 2699  40.947   7.855   0.951
30385W        W 2700  31.523   2.118   4.975
30386W        W 2701  41.745   3.781   1.741
30387W        W 2702  25.268  17.136  11.941
30388W        W 2703  17.013  42.903   2.723
30389W        W 2704  12.341  11.709  12.773
30390W        W 2705   7.584  20.799  14.822
30391W        W 2706   0.864  29.592   0.691
30392W        W 2707  35.774  25.423   3.114
30393W        W 2708  16.668  15.636   2.251
30394W        W 2709  44.809  33.284  14.456
30395W        W 2710  16.353   2.850  14.548
30396W        W 2711   0.009  35.939   4.669
30397W        W 2712  12.728  12.306  10.622
30398W        W 2713  28.733  26.591   1.462
30399W        W 2714  23.711  40.537  14.478
30400W        W 2715  11.031  24.536  11.474
30401W        W 2716  39.156  31.648  12.421
30402W        W 2717  38.741  14.257  12.485
30403W        W 2718  31.109  35.031  13.996
30404W        W 2719  40.170  26.140   9.463
30405W        W 2720  39.924  16.558  13.760
30406W        W 2721  32.969  37.866   2.055
30407W        W 2722  31.865  43.166  11.706
30408W        W 2723  22.568   5.315   0.689
30409W        W 2724   5.467  29.001   2.166
30410W        W 2725  29.148   6.899  12.082
30411W        W 2726  39.811  23.249   4.806
30412W        W 2727   5.411   7.651  14.328
30413W        W 2728  15.701  10.134  13.323
30414W        W 2729  41.028  35.958   1.960
30415W        W 2730  33.331   5.604   0.992
30416W        W 2731  33.125   7.321  14.694
30417W        W 2732  30.068  34.900   2.879
30418W        W 2733  34.657  44.921   4.646
30419W        W 2734  20.301  18.894   1.354
30420W        W 2735  22.960  17.372  14.417
30421W        W 2736  25.619  20.345  10.051
30422W        W 2737  15.531  26.775  13.439
30423W        W 2738   1.015  30.455  14.349
30424W        W 2739   5.707  21.537  12.380
30425W        W 2740  24.677  39.044   0.772
30426W        W 2741  35.082   3.403   4.559
30427W        W 2742  34.457  11.943  13.000
30428W        W 2743  35.909  25.654  14.106
30429W        W 2744  14.118  29.545  10.513
30430W        W 2745  38.982  15.209   4.082
30431W        W 2746  14.622  42.834   3.996
30432W        W 2747   2.526  18.264  11.599
30433W        W 2748  19.023  43.267  14.934
30434W        W 2749  25.076  43.735  11.197
30435W        W 2750  14.095  28.714   1.417
30436W        W 2751  11.384   7.693   4.877
30437W        W 2752  23.430   7.118   4.155
30438W        W 2753  33.448  11.528   0.421
30439W        W 2754  20.818  41.932   2.473
30440W        W 2755  30.625   9.246   3.173
30441W        W 2756  41.885   9.162  11.041
30442W        W 2757  12.510  10.152  14.437
30443W        W 2758  19.042  28.506   4.303
30444W        W 2759  42.889  10.334  13.392
30445W        W 2760   6.266  43.259  13.873
30446W        W 2761   2.944  40.344   2.297
30447W        W 2762   7.322  44.643   2.849
30448W        W 2763  34.841  19.459   1.857
30449W        W 2764  32.442  36.861   4.541
30450W        W 2765  16.975  40.302  14.746
30451W        W 2766  39.022   1.306  11.535
30452W        W 2767  26.435  16.651  11.465
30453W        W 2768   5.275  17.797   0.280
30454W        W 2769   4.779  16.252   1.671
30455W        W 2770  25.241  16.718   1.868
30456W        W 2771  20.022   6.937  13.498
30457W        W 2772  17.589  15.822  14.927
30458W        W 2773   3.411   4.780  12.436
30459W        W 2774  43.910  31.391   0.214
30460W        W 2775   9.237   8.591   3.287
30461W        W 2776  10.661  29.527   2.938
30462W        W 2777  44.997  12.676  11.059
30463W        W 2778   4.221  18.589   4.015
30464W        W 2779  28.179   4.817   0.517
30465W        W 2780  17.830  39.952   1.821
30466W        W 2781  40.711  37.817   1.991
30467W        W 2782  11.779  14.122   2.084
30468W        W 2783   6.429  15.382   4.402
30469W        W 2784  12.357  31.896   2.942
30470W        W 2785   8.272  19.116  10.728
30471W        W 2786  11.733   2.174   0.755
30472W        W 2787   9.381  40.295  13.938
30473W        W 2788  33.399   0.999   0.863
30474W        W 2789  43.991   6.929  11.506
30475W        W 2790  33.467   7.725  14.740
30476W        W 2791  23.222  43.763  12.113
30477W        W 2792   7.803   9.249   0.388
30478W        W 2793  21.310  33.703  13.061
30479W        W 2794   0.629   1.739   1.174
30480W        W 2795  36.046   1.699   1.767
30481W        W 2796  23.759   3.278  13.030
30482W        W 2797  17.736  28.122  13.399
30483W        W 2798  33.059  20.873   3.853
30484W        W 2799  18.744   9.247  14.549
30485W        W 2800   5.873   5.534  10.546
30486W        W 2801  35.431  10.262  13.026
30487W        W 2802   4.661  44.769   2.028
30488W        W 2803  44.328  22.630  13.480
30489W        W 2804   4.567  31.083   4.043
30490W        W 2805  21.893  16.211  11.435
30491W        W 2806   5.803  32.325   3.775
30492W        W 2807  33.409  24.148  10.606
30493W        W 2808  32.408  42.576   1.829
30494W        W 2809  36.989  41.435   0.131
30495W        W 2810  40.944  19.442  11.133
30496W        W 2811  40.944  33.886  12.033
30497W        W 2812  15.893  39.843   0.287
30498W        W 2813   2.442  34.106  12.551
30499W        W 2814  24.536  33.791   2.687
30500W        W 2815  12.522  29.513   0.770
30501W        W 2816   9.851  36.964  10.511
30502W        W 2817  28.175  21.236   2.769
30503W        W 2818   4.670  35.417  14.296
30504W        W 2819  44.507  35.867   4.796
30505W        W 2820   9.872  41.384  12.504
30506W        W 2821   1.236   1.279  10.751
30507W        W 2822  41.437  38.045   0.910
30508W        W 2823  33.636  41.032  10.641
30509W        W 2824   5.191  43.867  14.411
30510W        W 2825   6.477  13.602   1.516
30511W        W 2826  39.880  36.112  11.596
30512W        W 2827  22.271  42.439  10.894
30513W        W 2828  28.065  25.509  14.924
30514W        W 2829  33.925  21.129   4.230
30515W        W 2830  19.212  28.364   0.725
30516W        W 2831  12.182  28.951  11.942
30517W        W 2832  19.676  15.910  10.248
30518W        W 2833   1.170  15.380   2.726
30519W        W 2834  17.145  35.827  14.902
30520W        W 2835  25.083  44.408   3.279
30521W        W 2836  28.863  44.423  12.797
30522W        W 2837  20.812   1.725   4.234
30523W        W 2838  25.161   3.506  12.515
30524W        W 2839   7.700  34.079  12.974
30525W        W 2840  19.926  18.097   4.681
30526W        W 2841  19.256   5.755  14.229
30527W        W 2842   6.986  15.286   4.559
30528W        W 2843  20.798  20.326  13.350
30529W        W 2844  22.060  36.838   1.398
30530W        W 2845   8.928  11.979   3.726
30531W        W 2846  38.565   7.376   0.963
30532W        W 2847  29.684   4.405   3.818
30533W        W 2848  41.514  22.409   1.300
30534W        W 2849  38.050  26.045  12.653
30535W        W 2850  24.457  36.049  12.536
30536W        W 2851  35.341   9.910   4.630
30537W        W 2852  29.196  27.888  11.092
30538W        W 2853  26.201  26.398   1.248
30539W        W 2854  15.863  21.184   0.779
30540W        W 2855  15.351  43.900   1.884
30541W        W 2856  37.473  29.238  12.930
30542W        W 2857  13.450   2.843   2.674
30543W        W 2858  14.822  17.766  10.679
30544W        W 2859  37.578  36.995   4.269
30545W        W 2860  19.075   2.459  13.015
30546W        W 2861   7.882  29.708  10.543
30547W        W 2862  32.553  39.551  14.657
30548W        W 2863  34.131  30.894  13.998
30549W        W 2864   1.970  25.988   3.320
30550W        W 2865  13.292   1.026  14.056
30551W        W 2866  17.706   9.220  11.132
30552W        W 2867  41.859  18.106   3.346
30553W        W 2868  19.528   3.679  12.958
30554W        W 2869  34.926  25.623   3.756
30555W        W 2870  19.621  30.797  14.362
30556W        W 2871  38.246  24.038  10.704
30557W        W 2872  22.476  42.318  12.359
30558W        W 2873  11.628  38.951  14.639
30559W        W 2874  14.538  30.376  14.406
30560W        W 2875  21.405  41.611  12.095
30561W        W 2876  40.974  12.301  13.818
30562W        W 2877  28.279   9.777   0.454
30563W        W 2878  27.735   5.379   0.904
30564W        W 2879  31.485  41.957   2.115
30565W        W 2880   3.341  23.174   3.090
30566W        W 2881  17.961   7.309   2.973
30567W        W 2882  25.807   8.123  11.634
30568W        W 2883   7.202  27.789  13.973
30569W        W 2884  30.009  24.070   4.847
30570W        W 2885  42.486  24.929  11.867
30571W        W 2886  12.241   8.752  13.958
30572W        W 2887  10.382  25.471  14.818
30573W        W 2888  38.121  43.489  12.383
30574W        W 2889  17.763  30.559   3.143
30575W        W 2890  29.062  31.371   1.890
30576W        W 2891  16.617  15.009  13.108
30577W        W 2892  34.139  41.324   1.865
30578W        W 2893  42.029   3.888   0.451
30579W        W 2894  34.115  41.760   3.289
30580W        W 2895  32.399   6.792  11.670
30581W        W 2896  14.801  23.598   2.019
30582W        W 2897   6.705  15.336   3.679
30583W        W 2898  30.859  26.235   2.401
30584W        W 2899  40.962   4.698  13.995
30585W        W 2900  12.194   2.417  14.945
30586W        W 2901  40.587  23.162   1.715
30587W        W 2902   5.784  33.368   4.671
30588W        W 2903  34.109  10.144  14.375
30589W        W 2904  25.291   8.757  13.455
30590W        W 2905  10.755  20.775  14.660
30591W        W 2906   5.017  14.185   3.594
30592W        W 2907  18.487  40.392   4.045
30593W        W 2908  41.588   7.654   3.210
30594W        W 2909  37.841  40.579   3.327
30595W        W 2910  33.556  29.338   1.230
30596W        W 2911   0.778  18.874   2.905
30597W        W 2912  33.370  35.892   0.314
30598W        W 2913   2.855   0.054  12.031
30599W        W 2914  35.898   7.362  13.391
30600W        W 2915   1.495  15.047  14.507
30601W        W 2916  16.646  13.231   2.307
30602W        W 2917  17.686  11.743   9.882
30603W        W 2918  12.135  39.108   1.662
30604W        W 2919   4.482  14.235   3.589
30605W        W 2920   7.712   4.254   2.928
30606W        W 2921  17.798   6.388  11.458
30607W        W 2922  34.535  25.540  13.944
30608W        W 2923   6.546  13.852  14.722
30609W        W 2924  31.908  31.679  13.563
30610W        W 2925  20.751  10.892   5.127
30611W        W 2926  27.443  40.515   2.803
30612W        W 2927  38.323   0.272   2.020
30613W        W 2928  42.163  43.614   1.600
30614W        W 2929  36.860  30.139  13.419
30615W        W 2930  25.964  18.151   3.389
30616W        W 2931   2.831   9.429  14.005
30617W        W 2932  42.000  21.679   2.852
30618W        W 2933  44.058   8.690  10.097
30619W        W 2934   3.743  41.990  12.927
30620W        W 2935  17.285  39.710  13.163
30621W        W 2936   3.278  16.155  12.471
30622W        W 2937  44.131   2.237  12.680
30623W        W 2938  14.264  31.471   2.588
30624W        W 2939  30.955  40.544   4.380
30625W        W 2940   8.755   0.197  13.516
30626W        W 2941  23.021  31.070   1.437
30627W        W 2942  34.639  25.699   4.208
30628W        W 2943  30.399   4.216   0.004
30629W        W 2944  13.397  30.490   3.320
30630W        W 2945   9.752  40.635  13.071
30631W        W 2946  17.275  24.671   4.862
30632W        W 2947   9.512  19.678  11.535
30633W        W 2948   5.993   5.811   1.820
30634W        W 2949  40.540  10.734   0.553
30635W        W 2950   5.872  43.558  12.897
30636W        W 2951  29.475   4.447   1.702
30637W        W 2952   2.344   5.814  14.258
30638W        W 2953   2.247  14.374  14.858
30639W        W 2954  10.844   0.236  11.590
30640W        W 2955  19.578   2.316   3.620
30641W        W 2956   7.583  34.036  14.481
30642W        W 2957  11.000  32.232   4.142
30643W        W 2958  41.570   1.470   0.412
30644W        W 2959   8.672  40.702   0.483
30645W        W 2960  11.931  41.919   2.196
30646W        W 2961  32.461  34.136  13.768
30647W        W 2962  22.450  18.074   1.277
30648W        W 2963  44.563  21.976   0.924
30649W        W 2964  13.726  31.776  11.613
30650W        W 2965   7.243  44.129   4.295
30651W        W 2966   3.476  12.135   2.879
30652W        W 2967  39.033  20.204   4.901
30653W        W 2968  20.081   8.184  11.096
30654W        W 2969   9.490  35.368  12.089
30655W        W 2970  13.771   4.647  11.579
30656W        W 2971  34.319  30.251   2.257
30657W        W 2972  14.459  42.919   0.508
30658W        W 2973   3.932  40.343   3.277
30659W        W 2974   2.839  40.944   4.754
30660W        W 2975  22.535  26.670  13.965
30661W        W 2976  11.702  29.225   2.732
30662W        W 2977  33.480  20.027   1.725
30663W        W 2978  35.789   2.021   0.380
30664W        W 2979  25.139  10.742   2.699
30665W        W 2980   0.534  14.847   2.383
30666W        W 2981  28.496  29.760   0.442
30667W        W 2982  15.943  23.117   3.222
30668W        W 2983  21.285   9.175  11.629
30669W        W 2984  28.601  22.569  10.610
30670W        W 2985  43.506   1.090   1.723
30671W        W 2986   4.513   5.864   1.947
30672W        W 2987  23.523  28.589  11.125
30673W        W 2988  40.275  12.179   1.926
30674W        W 2989  29.607  17.367   3.385
30675W        W 2990  19.247  25.039   1.038
30676W        W 2991  10.016  16.666  14.165
30677W        W 2992   2.990  15.763  11.092
30678W        W 2993   0.807  20.660   0.062
30679W        W 2994  32.494  31.591   1.463
30680W        W 2995   4.010  30.727   2.685
30681W        W 2996  18.177  18.232  10.645
30682W        W 2997  20.147  34.980  12.913
30683W        W 2998   9.933  19.184   0.039
30684W        W 2999   6.853  39.409   0.875
30685W        W 3000  35.549  25.901   3.188
30686W        W 3001  27.569  22.142  12.084
30687W        W 3002  31.855   4.787  12.360
30688W        W 3003  39.123  31.729  11.578
30689W        W 3004  41.129  19.820  14.893
30690W        W 3005  11.494  41.106   2.228
30691W        W 3006  15.041  13.062   3.260
30692W        W 3007  33.481   6.122   1.708
30693W        W 3008   3.303  43.908   3.507
30694W        W 3009   7.229  26.467   2.003
30695W        W 3010   7.747  23.976  13.886
30696W        W 3011  30.629   8.652   3.338
30697W        W 3012  11.334  42.767  13.522
30698W        W 3013  16.604   2.269   2.830
30699W        W 3014  41.789   4.327  10.464
30700W        W 3015   7.653  19.988  13.462
30701W        W 3016  35.579  42.450  13.918
30702W        W 3017   9.427  32.585   1.757
30703W        W 3018   6.135  43.432  12.453
30704W        W 3019  42.946  24.467  10.658
30705W        W 3020  27.463  43.117   1.839
30706W        W 3021  29.884   9.267  12.573
30707W        W 3022   9.539  20.280  12.129
30708W        W 3023  21.130  19.508   1.880
30709W        W 3024  44.427  31.586   0.345
30710W        W 3025  25.687  41.890  12.163
30711W        W 3026  17.777  28.636   0.920
30712W        W 3027  14.325   8.452  13.593
30713W        W 3028  24.677  11.205   2.641
30714W        W 3029  12.737   8.575  14.043
30715W        W 3030  39.008  15.208   2.983
30716W        W 3031  43.824   8.920  12.366
30717W        W 3032   1.433  34.329   5.078
30718W        W 3033   6.914  24.078   4.339
30719W        W 3034  13.709  44.830  12.224
30720W        W 3035  27.383  27.279  13.657
30721W        W 3036  35.916   7.171  13.871
30722W        W 3037  14.182  41.546  14.768
30723W        W 3038   8.707  31.052   2.257
30724W        W 3039  22.858  19.607  13.258
30725W        W 3040  28.891  22.839  12.531
30726W        W 3041  26.625  34.646  12.973
30727W        W 3042   2.318  36.972  13.554
30728W        W 3043  36.186  43.635  11.167
30729W        W 3044  33.077   0.021   3.790
30730W        W 3045  27.497   4.186   2.866
30731W        W 3046  39.539  20.470  14.589
30732W        W 3047  32.247   2.815  11.993
30733W        W 3048  13.719  41.052   4.732
30734W        W 3049  21.067  17.777   1.177
30735W        W 3050  41.946   3.712   3.784
30736W        W 3051   8.414   3.154   1.779
30737W        W 3052  41.317  10.256   3.770
30738W        W 3053  31.166   9.609  13.394
30739W        W 3054  11.125  25.960  14.797
30740W        W 3055  34.388  32.043  14.980
30741W        W 3056  23.857  30.942   4.260
30742W        W 3057  26.729   0.020   0.829
30743W        W 3058  17.225  44.725  13.508
30744W        W 3059   9.804   7.787   2.099
30745W        W 3060  34.909  39.078  14.016
30746W        W 3061  10.770  18.154   3.119
30747W        W 3062  32.135   4.753   4.171
30748W        W 3063  43.710  43.324   4.061
30749W        W 3064  19.591  31.542  11.918
30750W        W 3065  26.951  18.862  11.202
30751W        W 3066   8.705   1.421   2.197
30752W        W 3067  32.371   1.512  13.624
30753W        W 3068  11.328  25.548  13.946
30754W        W 3069  43.337  15.745  14.834
30755W        W 3070   8.937  37.592  13.321
30756W        W 3071  19.921  35.378  14.337
30757W        W 3072  14.564  40.268  11.118
30758W        W 3073  24.644   9.897  13.391
30759W        W 3074  30.601  19.860   1.983
30760W        W 3075   3.449  18.173   3.733
30761W        W 3076  32.208  23.967  12.920
30762W        W 3077  16.761  28.421  14.355
30763W        W 3078   9.895  39.869  10.874
30764W        W 3079  23.438  40.328   3.722
30765W        W 3080  18.684   2.225   4.556
30766W        W 3081  14.849   3.332  14.010
30767W        W 3082  43.702  42.700  11.055
30768W        W 3083  11.129  13.053   2.244
30769W        W 3084  31.835  20.917   1.095
30770W        W 3085  31.330   3.949  12.578
30771W        W 3086   1.140  21.181  12.455
30772W        W 3087  39.054  20.252   0.676
30773W        W 3088   7.518  42.534   0.626
30774W        W 3089  38.999  21.685   2.692
30775W        W 3090   7.510  30.404  11.137
30776W        W 3091  19.388  43.489   2.405
30777W        W 3092   1.841  19.671  12.056
30778W        W 3093   5.227  39.980   0.686
30779W        W 3094  26.448  30.646   1.854
30780W        W 3095  10.258   2.477  14.875
30781W        W 3096  44.343  25.827  12.108
30782W        W 3097  13.276  36.630  11.506
30783W        W 3098  13.489  26.613  11.057
30784W        W 3099  43.273  33.155  11.065
30785W        W 3100  10.617   8.359   0.845
30786W        W 3101  18.098  11.864  10.561
30787W        W 3102  36.057   2.302  14.445
30788W        W 3103  14.609  10.428   1.305
30789W        W 3104  25.678   3.288   3.329
30790W        W 3105  37.043   5.919   3.697
30791W        W 3106  21.624  13.151  14.698
30792W        W 3107   1.911  38.300   0.978
30793W        W 3108  19.683   4.975   1.957
30794W        W 3109   9.176  30.939  12.583
30795W        W 3110  27.579  30.471   3.804
30796W        W 3111   5.482   4.230  11.757
30797W        W 3112  44.551  21.792  14.052
30798W        W 3113   4.489  30.386  11.647
30799W        W 3114  12.375  32.883   2.683
30800W        W 3115  25.508  17.018  14.031
30801W        W 3116  35.199  13.222  14.397
30802W        W 3117   9.724  23.207  11.534
30803W        W 3118  27.560  30.877  11.479
30804W        W 3119  28.186   3.321  10.176
30805W        W 3120  16.943  16.398  12.808
30806W        W 3121   4.676  14.420  14.406
30807W        W 3122  20.587   5.561  14.430
30808W        W 3123  12.869  39.066  14.028
30809W        W 3124  21.199  24.151  12.644
30810W        W 3125   4.711  39.980   0.562
30811W        W 3126  29.121   0.966   4.344
30812W        W 3127  28.430  11.847  14.325
30813W        W 3128  28.989  36.421  11.307
30814W        W 3129  10.674  34.215  11.964
30815W        W 3130   6.841  35.974  11.359
30816W        W 3131  29.190   5.653   5.758
30817W        W 3132  21.745  44.708   4.595
30818W        W 3133  36.836  19.240   1.358
30819W        W 3134  33.194   3.605  14.417
30820W        W 3135   9.446  42.067  10.865
30821W        W 3136  25.397   1.724   4.101
30822W        W 3137   7.365  10.008   9.973
30823W        W 3138   8.433  18.032   1.323
30824W        W 3139  23.228   4.147   1.918
30825W        W 3140   7.397  29.494   0.003
30826W        W 3141   1.427  42.329   1.721
30827W        W 3142   1.786   7.958  14.439
30828W        W 3143  44.912   4.300   1.261
30829W        W 3144  21.019  32.894   1.671
30830W        W 3145  10.177  12.819   1.331
30831W        W 3146  19.558   7.470  13.853
30832W        W 3147  33.584   4.886  11.258
30833W        W 3148  40.860   0.292   4.419
30834W        W 3149  22.003  23.135   1.972
30835W        W 3150  36.850   3.843   3.764
30836W        W 3151  12.647  10.077  11.020
30837W        W 3152   9.399   9.343   0.025
30838W        W 3153  11.645  26.150  14.914
30839W        W 3154  16.857  33.601   2.480
30840W        W 3155  36.050  44.207  14.347
30841W        W 3156   4.851   3.693   1.133
30842W        W 3157  32.022  31.132  12.551
30843W        W 3158  14.213  25.097   0.006
30844W        W 3159   4.902  12.089   3.208
30845W        W 3160  11.256  10.244  14.917
30846W        W 3161  19.959  24.062   4.641
30847W        W 3162   6.304  37.356   2.287
30848W        W 3163  25.905  39.119   3.677
30849W        W 3164   2.603   2.064  13.842
30850W        W 3165  35.109  15.158  10.992
30851W        W 3166   4.791  33.103  11.852
30852W        W 3167   2.127  41.704   1.817
30853W        W 3168  26.054  11.895   2.311
30854W        W 3169  43.866  33.725  10.219
30855W        W 3170  16.515   3.757   1.002
30856W        W 3171  10.237  13.165  11.550
30857W        W 3172  15.966  16.652  12.413
30858W        W 3173  39.924   2.781  11.021
30859W        W 3174   2.798  43.737  11.637
30860W        W 3175   7.727  34.857   2.255
30861W        W 3176  14.856  19.639   2.275
30862W        W 3177   7.776  22.376  10.719
30863W        W 3178  30.681  24.204  11.783
30864W        W 3179  36.568  36.044   3.015
30865W        W 3180  28.495  34.041  14.759
30866W        W 3181  40.702  19.799   4.575
30867W        W 3182   5.162  32.453   1.866
30868W        W 3183   0.463  10.115   4.766
30869W        W 3184  34.118  38.640  13.497
30870W        W 3185  26.239  28.224   0.687
30871W        W 3186  30.383   2.892  14.364
30872W        W 3187  30.468  44.836   2.210
30873W        W 3188   2.736   0.657  13.646
30874W        W 3189   7.829  35.436   4.154
30875W        W 3190  34.055  38.068   4.582
30876W        W 3191  10.013  32.650   4.171
30877W        W 3192  26.539  23.567  10.448
30878W        W 3193   0.685  35.995   5.421
30879W        W 3194  43.892  27.242   4.090
30880W        W 3195  39.856   0.311   3.583
30881W        W 3196   6.395  18.218   3.104
30882W        W 3197  36.016   5.390  13.419
30883W        W 3198   4.869  26.542   0.413
30884W        W 3199  13.484  18.634  13.762
30885W        W 3200   7.646  10.497  12.046
30886W        W 3201  39.925  30.957  13.451
30887W        W 3202   0.048  36.877   4.639
30888W        W 3203  10.215  35.873   4.660
30889W        W 3204  20.954  11.622  12.434
30890W        W 3205   1.108  42.016  11.671
30891W        W 3206  31.390   9.816  10.603
30892W        W 3207  27.879  44.750   3.276
30893W        W 3208  11.619  30.308   5.340
30894W        W 3209   6.216  30.425  10.711
30895W        W 3210   5.770  27.947   2.808
30896W        W 3211   3.254  30.129   4.423
30897W        W 3212  23.707  33.361   0.706
30898W        W 3213   6.863  16.344   2.191
30899W        W 3214  38.644  23.999   4.964
30900W        W 3215  43.578  28.080   0.402
30901W        W 3216  32.967   4.355   4.256
30902W        W 3217  20.314  41.854  14.851
30903W        W 3218  16.000  21.119   3.671
30904W        W 3219  14.635   8.948   3.839
30905W        W 3220  19.854  22.036  12.187
30906W        W 3221   6.544  11.756  14.847
30907W        W 3222  37.898  19.086   0.267
30908W        W 3223  26.461   1.535   4.696
30909W        W 3224   0.481  16.049   3.689
30910W        W 3225  17.645  18.172   4.636
30911W        W 3226   4.692  19.984   9.954
30912W        W 3227   1.216  15.565  12.528
30913W        W 3228  41.920  38.579  14.048
30914W        W 3229  31.238  41.547  11.151
30915W        W 3230  31.529  30.423   0.748
30916W        W 3231  37.578  34.507   0.533
30917W        W 3232  29.784  10.928   1.463
30918W        W 3233   6.322   0.301  14.360
30919W        W 3234  33.059   9.551  14.684
30920W        W 3235  18.629  11.312  13.101
30921W        W 3236  35.218  38.809   3.826
30922W        W 3237  43.798  41.711  12.172
30923W        W 3238   6.941  22.058   1.692
30924W        W 3239  25.731  36.975  10.808
30925W        W 3240  35.392   4.242  12.165
30926W        W 3241  30.075  42.020  10.463
30927W        W 3242  36.801  27.830   0.354
30928W        W 3243  33.645  11.808   1.425
30929W        W 3244  17.293   7.733  11.158
30930W        W 3245   9.052   6.039  12.419
30931W        W 3246  29.682  30.678   1.914
30932W        W 3247  38.876  15.157  13.859
30933W        W 3248   8.128  40.972  11.558
30934W        W 3249  16.175  27.485   2.848
30935W        W 3250   8.815   8.260   3.234
30936W        W 3251  27.652  17.427  11.891
30937W        W 3252  20.525  31.542   0.254
30938W        W 3253  27.652  16.381  14.619
30939W        W 3254  10.552  23.968   4.137
30940W        W 3255  15.752  11.196  14.703
30941W        W 3256  26.384  21.661   4.123
30942W        W 3257   3.739  43.763  10.996
30943W        W 3258  39.249   0.554   0.028
30944W        W 3259  23.743  44.450  11.626
30945W        W 3260   7.971  23.280  12.305
30946W        W 3261   0.938  33.238  13.164
30947W        W 3262  12.365  44.349  14.500
30948W        W 3263  23.107   1.320   2.907
30949W        W 3264  29.508  39.843  12.279
30950W        W 3265  21.685  19.052   1.408
30951W        W 3266  38.969  33.418  11.413
30952W        W 3267  27.741  16.417  12.113
30953W        W 3268  31.675   2.310  12.386
30954W        W 3269   8.219  20.058   2.652
30955W        W 3270  40.597  43.038   0.364
30956W        W 3271   4.262  37.611  14.307
30957W        W 3272  29.307  20.487   3.066
30958W        W 3273   8.624  23.909   0.866
30959W        W 3274  26.943  16.857  12.362
30960W        W 3275  26.261  25.672   4.196
30961W        W 3276   1.931  41.921  10.543
30962W        W 3277   6.706  27.116   4.692
30963W        W 3278  43.296  43.990  12.892
30964W        W 3279  42.043  34.127   4.113
30965W        W 3280  15.257   2.896  11.106
30966W        W 3281   8.540  35.035   3.360
30967W        W 3282  40.612  33.495   3.532
30968W        W 3283  21.623  36.104   2.289
30969W        W 3284  23.517  28.916  11.555
30970W        W 3285  19.992  25.055   2.353
30971W        W 3286  23.777   4.220  10.932
30972W        W 3287  32.428  18.387  12.634
30973W        W 3288  12.956  23.842   1.348
30974W        W 3289  41.411  15.569  13.618
30975W        W 3290  17.754  37.097  11.064
30976W        W 3291  43.898  24.637  13.030
30977W        W 3292  38.650  25.666  13.298
30978W        W 3293  36.449  12.288  12.618
30979W        W 3294  12.158  21.726   4.415
30980W        W 3295   7.580  31.014  13.373
30981W        W 3296  21.170  22.205  14.013
30982W        W 3297  22.731   1.122   3.966
30983W        W 3298  31.971  37.908   0.223
30984W        W 3299   3.238   0.015   2.259
30985W        W 3300  23.698  26.552   3.595
30986W        W 3301  16.202   5.761   1.925
30987W        W 3302  34.473   3.008  12.989
30988W        W 3303  37.527  35.743  14.186
30989W        W 3304  42.836  30.728   4.145
30990W        W 3305  37.407  18.446  13.459
30991W        W 3306  37.317  31.363  13.921
30992W        W 3307   7.180  37.317  10.589
30993W        W 3308  40.265  24.677   4.576
30994W        W 3309  15.410   7.849   1.667
30995W        W 3310   0.361  27.403   1.903
30996W        W 3311  29.562  24.130  10.796
30997W        W 3312  28.664  39.578   2.123
30998W        W 3313   1.231  29.899  10.687
30999W        W 3314  10.347   6.761  13.503
31000W        W 3315  20.099  23.049  13.477
31001W        W 3316  11.121  42.216   0.217
31002W        W 3317  17.781  18.511  12.921
31003W        W 3318   3.902  27.129   0.333
31004W        W 3319  16.813  32.383   3.733
31005W        W 3320   8.621   5.289   4.532
31006W        W 3321  19.499   6.191   4.939
31007W        W 3322  21.747  32.799   4.357
31008W        W 3323   8.683  21.187  14.317
31009W        W 3324  25.922  22.254  12.639
31010W        W 3325  30.790   4.182   4.145
31011W        W 3326   1.348   5.422   4.216
31012W        W 3327  24.121  14.607   2.176
31013W        W 3328  36.243  17.525   2.149
31014W        W 3329  22.757  29.022   2.651
31015W        W 3330  35.541   7.118   3.815
31016W        W 3331  23.670   5.960  12.039
31017W        W 3332  25.875  12.281  11.945
31018W        W 3333   5.462   3.495   0.275
31019W        W 3334  25.236   0.415  14.433
31020W        W 3335   7.675  33.636  11.146
31021W        W 3336  33.838  31.097   3.214
31022W        W 3337  44.008   8.099   1.974
31023W        W 3338  11.791  17.513  12.862
31024W        W 3339  19.944  42.903   2.674
31025W        W 3340   1.897  32.656  11.994
31026W        W 3341  37.541  25.004   1.407
31027W        W 3342   2.181   3.962  14.660
31028W        W 3343  37.137  34.457  11.108
31029W        W 3344   0.711   1.334   0.485
31030W        W 3345  28.301  19.520   4.256
31031W        W 3346  28.539   8.625   2.905
31032W        W 3347  30.759  27.436   5.018
31033W        W 3348  41.131  12.640  12.510
31034W        W 3349  37.885  41.074  12.064
31035W        W 3350   0.967  11.594  13.336
31036W        W 3351  35.475  16.499   0.308
31037W        W 3352  16.068  40.006  11.631
31038W        W 3353  17.705  10.850   9.721
31039W        W 3354   1.263   5.158  10.301
31040W        W 3355  43.931  36.786  12.189
31041W        W 3356  37.883   9.138  14.982
31042W        W 3357   5.772   4.933   0.178
31043W        W 3358  44.484  40.256  12.869
31044W        W 3359  35.992  44.242  12.007
31045W        W 3360  33.873  13.487   0.988
31046W        W 3361   9.517  16.717   4.605
31047W        W 3362  17.709  12.030   1.283
31048W        W 3363  12.500  38.581   2.469
31049W        W 3364  32.591   2.841  13.797
31050W        W 3365  28.593  18.474   3.770
31051W        W 3366  41.241   9.764   0.000
31052W        W 3367  38.562  35.898   3.681
31053W        W 3368  37.151   7.658  11.539
31054W        W 3369  13.419  14.720   1.969
31055W        W 3370  20.319  43.515  14.447
31056W        W 3371  29.907  18.721  14.405
31057W        W 3372   5.082   7.115  11.582
31058W        W 3373   4.142  32.642  13.082
31059W        W 3374   8.343  11.517  13.043
31060W        W 3375  26.616  43.088  13.515
31061W        W 3376  37.853  34.547  11.435
31062W        W 3377  12.521  29.266  13.143
31063W        W 3378  25.590  25.925  12.522
31064W        W 3379   2.529  33.156   3.209
31065W        W 3380   4.343  44.215  14.514
31066W        W 3381  14.097  40.911  13.403
31067W        W 3382   5.750   4.009   3.636
31068W        W 3383  42.420  17.068   1.279
31069W        W 3384  29.477  24.882  12.468
31070W        W 3385  11.571   2.819   0.026
31071W        W 3386  21.520  40.674   2.864
31072W        W 3387  16.564  17.307   3.196
31073W        W 3388  26.920  15.254  13.904
31074W        W 3389  14.699  12.235   4.457
31075W        W 3390  35.410  42.099  13.512
31076W        W 3391  44.142  40.922   3.338
31077W        W 3392  34.609   6.503   0.499
31078W        W 3393  12.262  34.831   2.412
31079W        W 3394   2.416   8.290  13.425
31080W        W 3395  11.620  40.318   1.380
31081W        W 3396  17.760  32.302  12.415
31082W        W 3397  38.575   8.187  12.121
31083W        W 3398  26.005  25.178   1.720
31084W        W 3399  36.583   1.067  14.241
31085W        W 3400  40.368   1.316  13.832
31086W        W 3401  36.598  30.968   1.507
31087W        W 3402  42.668  33.304   4.055
31088W        W 3403  16.514  34.046  12.695
31089W        W 3404  17.165  29.114  11.723
31090W        W 3405  16.180  20.650   2.798
31091W        W 3406  40.560  36.079  13.043
31092W        W 3407   3.444  19.224  13.355
31093W        W 3408  17.804  14.139  12.476
31094W        W 3409   9.670   3.314   3.676
31095W        W 3410   2.795  11.708  10.945
31096W        W 3411  14.696  25.110   0.808
31097W        W 3412   2.342  30.974  14.012
31098W        W 3413  44.054  11.185  11.978
31099W        W 3414  25.159  29.092   1.925
31100W        W 3415  30.954   0.807   3.780
31101W        W 3416  34.990   1.397  11.994
31102W        W 3417  26.981  36.050  13.128
31103W        W 3418   8.683  20.604   4.152
31104W        W 3419  39.745  26.228  12.985
31105W        W 3420  17.327  18.764   0.240
31106W        W 3421  10.219  43.062   1.373
31107W        W 3422  42.530   3.362  13.080
31108W        W 3423  26.948   8.592   4.537
31109W        W 3424  33.622  31.553  12.988
31110W        W 3425   6.281  39.649  13.301
31111W        W 3426  27.433  44.387   4.109
31112W        W 3427  30.354   8.417  12.417
31113W        W 3428   7.151  33.100  14.418
31114W        W 3429  34.858   2.658   2.734
31115W        W 3430  15.841   5.160  11.009
31116W        W 3431   7.823   5.906   4.734
31117W        W 3432  22.691  44.277   1.959
31118W        W 3433  22.409  28.256  13.455
31119W        W 3434  16.635   7.964  13.370
31120W        W 3435  32.998  11.090  11.380
31121W        W 3436  27.152  28.254  13.268
31122W        W 3437  36.814  19.590  14.340
31123W        W 3438  25.488   5.304   0.354
31124W        W 3439  24.503   6.235  14.432
31125W        W 3440  19.429  17.339  11.632
31126W        W 3441  23.264  28.122  10.172
31127W        W 3442  34.366  36.385   4.557
31128W        W 3443  37.383   1.291  11.807
31129W        W 3444  41.971  39.952   0.718
31130W        W 3445   7.652  11.006   0.772
31131W        W 3446  40.369   0.169   0.915
31132W        W 3447  27.721  12.771  13.181
31133W        W 3448  32.048  38.749   4.819
31134W        W 3449  15.588  25.588   2.711
31135W        W 3450  14.981  25.267  11.613
31136W        W 3451  31.834  24.872  11.689
31137W        W 3452  11.647   1.220   3.180
31138W        W 3453  34.559  16.609   4.048
31139W        W 3454  34.074  34.015  13.536
31140W        W 3455  10.892  22.431  10.970
31141W        W 3456   1.204   3.600  12.437
31142W        W 3457  20.708  23.442  14.041
31143W        W 3458  21.843  35.305   3.280
31144W        W 3459   0.022  11.688  11.124
31145W        W 3460  21.996  30.195  14.522
31146W        W 3461  18.121  14.697  11.875
31147W        W 3462  36.404  43.450  14.077
31148W        W 3463   7.204  36.563  13.078
31149W        W 3464  38.489   1.535  14.303
31150W        W 3465  33.795  16.718  14.842
31151W        W 3466  20.564  23.629  11.603
31152W        W 3467  13.615  43.284  12.082
31153W        W 3468  15.544  26.409   3.079
31154W        W 3469   1.928  27.636   3.779
31155W        W 3470   7.889  23.885   1.732
31156W        W 3471  14.697  35.786  11.895
31157W        W 3472   7.674  26.558   0.893
31158W        W 3473   3.221  30.450  12.867
31159W        W 3474  42.287  40.430  14.056
31160W        W 3475  18.467  33.391   1.689
31161W        W 3476  39.536  15.224  12.631
31162W        W 3477   4.266  19.645  12.644
31163W        W 3478   1.284   7.219   4.826
31164W        W 3479  12.664  30.083   3.352
31165W        W 3480  38.945  30.513  13.138
31166W        W 3481  25.337  25.599  14.242
31167W        W 3482  31.032  22.838  12.044
31168W        W 3483  36.051  18.607  12.832
31169W        W 3484  17.698  25.274  12.945
31170W        W 3485  17.762  23.175   0.442
31171W        W 3486   7.753  39.372   1.004
31172W        W 3487  37.538  39.292   2.195
31173W        W 3488  22.079  44.907  14.992
31174W        W 3489  15.367   4.764  14.399
31175W        W 3490  31.629  20.018  12.986
31176W        W 3491   6.195  25.127   2.411
31177W        W 3492   5.889  39.512  14.187
31178W        W 3493  10.616  32.481   0.838
31179W        W 3494  37.087  25.398  11.624
31180W        W 3495  19.064  36.856   3.782
31181W        W 3496  19.998  33.980   4.087
31182W        W 3497  20.094  38.090  14.366
31183W        W 3498  35.936  14.110   3.651
31184W        W 3499   4.440  43.160  12.950
31185W        W 3500  12.304  42.051   0.072
31186W        W 3501   7.132  36.606  11.322
31187W        W 3502  33.685  20.472   2.414
31188W        W 3503  39.050  25.456   4.588
31189W        W 3504   8.177  17.583   1.320
31190W        W 3505  23.679  18.165  12.834
31191W        W 3506  10.664  12.624  13.459
31192W        W 3507  11.473   2.002   3.645
31193W        W 3508  23.039  35.164  10.743
31194W        W 3509  42.370  27.632  12.531
31195W        W 3510  19.342  21.743  14.538
31196W        W 3511  10.176  14.878  13.765
31197W        W 3512  39.686  22.831   2.742
31198W        W 3513  20.618  19.486  12.877
31199W        W 3514  27.521  33.345   1.289
31200W        W 3515  26.146  13.784   2.630
31201W        W 3516  34.415  44.780   4.173
31202W        W 3517  12.331  39.245  12.847
31203W        W 3518   0.287  26.461   2.200
31204W        W 3519  19.438  32.031   4.032
31205W        W 3520  28.579  29.489   0.880
31206W        W 3521  39.392  22.747   2.308
31207W        W 3522  18.730   5.082  14.570
31208W        W 3523  39.434  42.971   2.147
31209W        W 3524  40.954  37.687   1.141
31210W        W 3525  36.379   5.296   2.818
31211W        W 3526  16.495  21.112   3.487
31212W        W 3527  11.411  34.031   0.426
31213W        W 3528  30.324  36.272   4.009
31214W        W 3529  33.662  40.530   0.852
31215W        W 3530  40.370   5.670  12.361
31216W        W 3531  11.338  27.551   1.377
31217W        W 3532  43.971  32.037   3.177
31218W        W 3533   8.649  18.348   1.681
31219W        W 3534  41.035  33.169  12.352
31220W        W 3535  23.766  41.355   1.955
31221W        W 3536  38.733  16.810  14.814
31222W        W 3537   7.703  40.577  11.611
31223W        W 3538  30.588   7.074  14.029
31224W        W 3539   7.212  41.253  11.428
31225W        W 3540   8.132   5.194   2.215
31226W        W 3541   1.195  13.846  11.897
31227W        W 3542  17.349  31.418   2.637
31228W        W 3543   9.624   7.279  13.525
31229W        W 3544  33.457  14.755  12.678
31230W        W 3545   8.681  14.871   0.139
31231W        W 3546   7.351  42.637   4.208
31232W        W 3547  32.546  36.473  10.724
31233W        W 3548  24.175  12.148  12.211
31234W        W 3549  16.761   7.028   1.078
31235W        W 3550  12.839   9.916   3.718
31236W        W 3551  18.693  40.788   2.176
31237W        W 3552  35.362   3.583  11.538
31238W        W 3553  31.072  13.677   3.655
31239W        W 3554  17.929   7.710  12.893
31240W        W 3555   8.787  36.272  11.208
31241W        W 3556   0.846  21.198  11.919
31242W        W 3557  24.300  26.925   0.779
31243W        W 3558  26.395  20.137   3.312
31244W        W 3559   9.647  27.564   4.662
31245W        W 3560   7.826  13.152   2.541
31246W        W 3561  20.024  19.096   2.231
31247W        W 3562  42.406  39.550   3.269
31248W        W 3563  39.113  40.433  14.353
31249W        W 3564  21.195  20.119   3.258
31250W        W 3565  41.403  18.603  13.930
31251W        W 3566  21.647  40.779  11.817
31252W        W 3567  16.650  10.971   1.390
31253W        W 3568  16.881   9.933  14.469
31254W        W 3569  36.978   5.949   2.841
31255W        W 3570   0.868  28.620   0.245
31256W        W 3571   6.674   9.625  11.001
31257W        W 3572  24.508  21.982  14.448
31258W        W 3573  33.701   8.320   2.648
31259W        W 3574  31.568  34.498  12.631
31260W        W 3575  27.238  19.284  11.123
31261W        W 3576   7.835  41.166   1.828
31262W        W 3577   0.236  36.221   3.902
31263W        W 3578  14.903  12.343   4.911
31264W        W 3579  31.557   4.225   2.127
31265W        W 3580  25.025   3.908   1.377
31266W        W 3581  14.818   3.226   4.215
31267W        W 3582  29.424  23.062  13.038
31268W        W 3583  17.713  16.832   3.376
31269W        W 3584  21.090   1.745   0.874
31270W        W 3585   1.413  37.103   4.984
31271W        W 3586  29.176   6.287  11.182
31272W        W 3587  10.649  43.846  14.744
31273W        W 3588  13.293  39.411   0.151
31274W        W 3589  39.825  29.496  14.352
31275W        W 3590  42.870  42.930  14.003
31276W        W 3591  33.217   2.872  11.942
31277W        W 3592  23.644  36.531   2.413
31278W        W 3593   1.517  37.377   1.200
31279W        W 3594  33.548  42.580  13.817
31280W        W 3595  14.047  38.592   2.349
31281W        W 3596  16.674  44.350  14.657
31282W        W 3597  20.162   6.676   3.569
31283W        W 3598  12.805  21.798  13.398
31284W        W 3599  30.852   9.818  10.665
31285W        W 3600  34.940  37.039   4.220
31286W        W 3601  38.912  44.354  11.951
31287W        W 3602  41.399   7.461  11.566
31288W        W 3603  13.690  37.505   2.709
31289W        W 3604   9.466  43.779   1.871
31290W        W 3605   3.350  17.775  13.053
31291W        W 3606   4.400  18.186  14.291
31292W        W 3607  10.932  28.379   3.709
31293W        W 3608   4.344  10.680  14.046
31294W        W 3609  39.957  31.810  11.050
31295W        W 3610  14.641  11.299   4.554
31296W        W 3611  13.037   2.276  11.066
31297W        W 3612  21.264  28.130   0.550
31298W        W 3613  18.590  38.997   1.178
31299W        W 3614  41.045  12.208  12.786
31300W        W 3615  33.515  43.098  12.115
31301W        W 3616  26.953   4.963   4.874
31302W        W 3617   5.350  22.181  11.023
31303W        W 3618   4.204  31.535  10.703
31304W        W 3619  20.109  21.251   1.669
31305W        W 3620  12.310   1.443  13.112
31306W        W 3621  22.185  19.611   0.270
31307W        W 3622   1.190  39.911  10.647
31308W        W 3623  36.095  11.902   0.946
31309W        W 3624  23.546  42.299   4.105
31310W        W 3625  34.103  33.511  10.935
31311W        W 3626   2.252   9.250   3.209
31312W        W 3627  11.623  25.211  11.613
31313W        W 3628   0.166  24.336  14.320
31314W        W 3629   0.785  39.107   2.543
31315W        W 3630   5.173  19.770  12.687
31316W        W 3631  18.095  18.155   2.203
31317W        W 3632  16.643  11.939   0.959
31318W        W 3633  13.128  28.761   2.991
31319W        W 3634  36.577  10.348  12.442
31320W        W 3635  27.841   7.752   2.797
31321W        W 3636   6.088  10.707   4.279
31322W        W 3637  21.921   8.477   3.168
31323W        W 3638   1.739  32.477  14.039
31324W        W 3639   8.293   4.341  13.370
31325W        W 3640  29.480  41.526   2.939
31326W        W 3641  20.763  31.144   0.679
31327W        W 3642  38.499   8.051   0.419
31328W        W 3643  39.598  31.491   2.790
31329W        W 3644  20.657  21.078  14.419
31330W        W 3645  24.702  20.326   5.261
31331W        W 3646  28.989   4.421  13.330
31332W        W 3647   6.312  34.097   1.290
31333W        W 3648  11.489  40.932   4.315
31334W        W 3649  24.213  21.951  13.865
31335W        W 3650  18.480   7.890  12.001
31336W        W 3651   2.439   7.122   0.359
31337W        W 3652  13.878  30.259   2.596
31338W        W 3653   4.522  13.808   0.025
31339W        W 3654  32.216  16.815  11.952
31340W        W 3655  25.626  32.914  12.137
31341W        W 3656  14.706  41.324   2.702
31342W        W 3657  38.946  18.572   0.485
31343W        W 3658  42.376  13.686  11.183
31344W        W 3659  22.119  26.158   1.739
31345W        W 3660   8.487  31.183  13.274
31346W        W 3661  14.626  15.589   2.304
31347W        W 3662  37.471   3.482   4.168
31348W        W 3663  35.526  41.559  13.389
31349W        W 3664  38.305   6.375   3.966
31350W        W 3665  20.494  28.637   2.739
31351W        W 3666  37.079   2.277   1.372
31352W        W 3667  29.328  22.836   4.599
31353W        W 3668  36.866  19.108  10.805
31354W        W 3669   9.276   8.709  10.746
31355W        W 3670   2.452  30.692  11.641
31356W        W 3671  31.488  23.601  14.703
31357W        W 3672   6.155  23.577  14.968
31358W        W 3673  25.616  38.314  14.738
31359W        W 3674  15.271  19.618   0.809
31360W        W 3675  26.557   5.992   9.940
31361W        W 3676  21.285  10.305   3.465
31362W        W 3677  21.558  38.373  10.627
31363W        W 3678   7.959  15.868  11.950
31364W        W 3679  10.599  19.141  12.529
31365W        W 3680  34.348   5.479  12.976
31366W        W 3681   6.311  20.065  14.983
31367W        W 3682  27.688   2.597   2.587
31368W        W 3683  30.960  43.712  13.586
31369W        W 3684  36.049  10.616  10.897
31370W        W 3685  22.641  40.533  11.055
31371W        W 3686  24.131  39.597  14.548
31372W        W 3687   2.273   8.640  11.671
31373W        W 3688   5.123  39.576   2.000
31374W        W 3689  14.811  38.284  13.654
31375W        W 3690  12.568  25.429  12.109
31376W        W 3691  41.023   3.767  12.559
31377W        W 3692  18.997  39.351   2.797
31378W        W 3693  34.426  43.461  13.801
31379W        W 3694  24.777  34.020  11.425
31380W        W 3695  25.627  37.125   3.248
31381W        W 3696  26.252   5.601   3.120
31382W        W 3697  43.424   1.648   1.469
31383W        W 3698  36.884  11.248   3.282
31384W        W 3699  27.512  38.374  12.542
31385W        W 3700  42.883  31.609  13.994
31386W        W 3701   5.378  43.407   2.765
31387W        W 3702  17.043   1.687   1.396
31388W        W 3703  44.893  25.513   0.793
31389W        W 3704   2.458  17.867  12.958
31390W        W 3705  31.982  18.520  12.899
31391W        W 3706  31.878  16.772  11.548
31392W        W 3707  28.107  43.920   3.384
31393W        W 3708  37.914  33.930   1.467
31394W        W 3709   9.976  20.647   3.811
31395W        W 3710  13.336   1.520   0.088
31396W        W 3711  31.064  28.695   2.351
31397W        W 3712  16.303  19.248  10.581
31398W        W 3713  20.656   0.589  14.319
31399W        W 3714  18.836  20.551   2.302
31400W        W 3715   5.355   7.331   4.359
31401W        W 3716  42.428   9.318   4.072
31402W        W 3717   1.144  13.295  11.927
31403W        W 3718  37.698   0.421  10.935
31404W        W 3719  19.422  30.343   4.338
31405W        W 3720  12.807  17.080  11.121
31406W        W 3721  10.576  42.388  13.857
31407W        W 3722   6.318  28.895   3.385
31408W        W 3723  38.334  28.078   1.722
31409W        W 3724  36.002   0.290   2.409
31410W        W 3725  11.634   4.464  11.954
31411W        W 3726  23.368  43.194  10.121
31412W        W 3727   7.211  29.498  14.073
31413W        W 3728  24.237   7.139   3.651
31414W        W 3729  14.690  28.650  13.803
31415W        W 3730  12.944   0.390  14.502
31416W        W 3731  15.364  20.830   4.054
31417W        W 3732  28.192  40.359   1.477
31418W        W 3733   5.857  10.812  14.213
31419W        W 3734  17.278  34.962   3.668
31420W        W 3735  29.539  21.104   2.458
31421W        W 3736  16.605  22.151  13.563
31422W        W 3737  36.498   7.370   0.964
31423W        W 3738  13.879  10.271  14.036
31424W        W 3739   7.780   0.991  11.404
31425W        W 3740   0.758  12.856  10.637
31426W        W 3741  12.127  30.594  14.366
31427W        W 3742  33.305  34.422  11.440
31428W        W 3743   2.953  14.681   4.014
31429W        W 3744  16.089   0.898   1.767
31430W        W 3745  30.019   8.183  14.560
31431W        W 3746  21.327  27.375  12.460
31432W        W 3747  35.300  14.670  12.495
31433W        W 3748  28.724  25.096  11.696
31434W        W 3749  26.236  37.161   1.198
31435W        W 3750   3.210   9.280   3.601
31436W        W 3751  28.277  37.065   4.014
31437W        W 3752  15.306  34.003   1.821
31438W        W 3753  16.263  41.075  14.983
31439W        W 3754   6.012  41.793  13.857
31440W        W 3755   3.238  10.849   4.823
31441W        W 3756  24.014  19.568  12.571
31442W        W 3757   4.240  34.948   0.912
31443W        W 3758  29.978  36.357   4.390
31444W        W 3759  37.922  12.546  13.816
31445W        W 3760  12.279  35.371  13.864
31446W        W 3761  29.657  18.183  13.575
31447W        W 3762   0.491  33.060  10.811
31448W        W 3763  37.015   6.668  11.151
31449W        W 3764  29.794   6.888   3.865
31450W        W 3765   9.653  33.518   3.260
31451W        W 3766  21.239  10.747  12.427
31452W        W 3767  38.286  43.325   4.504
31453W        W 3768  22.444  29.042  12.486
31454W        W 3769   5.921   3.168   1.733
31455W        W 3770  43.335  41.736  14.988
31456W        W 3771  15.378  42.289  14.467
31457W        W 3772  26.056  12.330   4.081
31458W        W 3773  28.207  30.563  10.967
31459W        W 3774  19.207   5.785   2.397
31460W        W 3775   7.571  38.735  12.747
31461W        W 3776  21.750  10.807  13.671
31462W        W 3777  13.028   1.514   3.845
31463W        W 3778   9.997  30.561  14.497
31464W        W 3779  14.330  39.283  11.541
31465W        W 3780  43.441  24.547  10.808
31466W        W 3781  43.509  36.548  13.079
31467W        W 3782   8.643  23.015   0.074
31468W        W 3783  12.622  40.400   2.977
31469W        W 3784  21.795  36.394  13.906
31470W        W 3785  29.510  25.126  13.236
31471W        W 3786   2.821   2.197  13.382
31472W        W 3787  13.503  15.605   0.923
31473W        W 3788  29.420  18.315   3.324
31474W        W 3789   7.570  29.301  14.446
31475W        W 3790   4.012  25.192  11.588
31476W        W 3791  24.742  37.837   1.054
31477W        W 3792  44.386  42.368   3.788
31478W        W 3793  13.626  41.070  13.877
31479W        W 3794   3.212  36.929  11.127
31480W        W 3795  21.768   0.677   2.765
31481W        W 3796  37.911   2.996   3.115
31482W        W 3797  36.235  16.155   3.769
31483W        W 3798  38.126   5.804  11.620
31484W        W 3799  41.971  28.648   0.788
31485W        W 3800  35.068  43.823  14.343
31486W        W 3801  14.179  25.226   1.861
31487W        W 3802  33.567  29.022  11.943
31488W        W 3803   3.925   6.720   1.711
31489W        W 3804  22.087  33.581  10.714
31490W        W 3805   3.833  20.828  12.842
31491W        W 3806  11.289   0.713   4.638
31492W        W 3807  36.935  25.059  11.024
31493W        W 3808  35.020  27.529   4.553
31494W        W 3809  25.077  35.829   4.275
31495W        W 3810  43.456  12.210   4.601
31496W        W 3811  34.387  36.737   2.401
31497W        W 3812  24.949   0.694  11.926
31498W        W 3813  28.246   6.629   1.268
31499W        W 3814  28.291   6.841   1.756
31500W        W 3815  10.632   2.272  12.837
31501W        W 3816  12.256  29.579  13.455
31502W        W 3817   6.169   8.803  12.001
31503W        W 3818  18.694  12.026  11.697
31504W        W 3819  41.359  21.157  10.703
31505W        W 3820  24.106  42.107  13.364
31506W        W 3821  10.731   2.430   3.261
31507W        W 3822  43.246  22.544   2.903
31508W        W 3823  38.507  22.664  12.298
31509W        W 3824   8.866  33.179  11.091
31510W        W 3825  36.334  35.626   2.741
31511W        W 3826  13.165   3.541   1.989
31512W        W 3827  30.183  18.235  14.360
31513W        W 3828   0.249   7.214   3.748
31514W        W 3829  19.314  26.868   0.947
31515W        W 3830   4.267  19.747  10.924
31516W        W 3831  31.050  44.975  14.012
31517W        W 3832  11.659  38.013  13.102
31518W        W 3833  17.294  19.228  14.380
31519W        W 3834  36.833  12.672  11.527
31520W        W 3835  16.577  29.857   2.417
31521W        W 3836  25.888  16.352  11.265
31522W        W 3837  24.302  14.931   2.910
31523W        W 3838  31.607  11.114  14.848
31524W        W 3839  26.018  21.954  13.911
31525W        W 3840  24.775  19.024   1.817
31526W        W 3841   2.028  17.325   3.328
31527W        W 3842  11.288  35.974  10.702
31528W        W 3843   6.895  35.353   2.644
31529W        W 3844  22.685  17.071   4.474
31530W        W 3845  44.844   0.961  10.573
31531W        W 3846  25.455  35.196   1.263
31532W        W 3847  22.709  42.029   3.671
31533W        W 3848  10.327   8.200  13.082
31534W        W 3849  41.780   2.454   2.409
31535W        W 3850  32.662  25.862  11.172
31536W        W 3851   6.842  21.309  12.136
31537W        W 3852  19.491  44.716   3.275
31538W        W 3853   8.824  18.542  12.188
31539W        W 3854  38.680  19.521   0.232
31540W        W 3855  36.930  12.976   0.693
31541W        W 3856  11.137  10.185  13.518
31542W        W 3857  35.265  15.039   2.768
31543W        W 3858  29.867  34.997  12.304
31544W        W 3859  35.877  22.269  14.593
31545W        W 3860  28.559  29.401   4.864
31546W        W 3861  33.197  19.347   4.067
31547W        W 3862  30.090  20.294   0.043
31548W        W 3863  16.183  28.937  11.028
31549W        W 3864  23.058  12.198   4.640
31550W        W 3865  26.156  38.853   4.626
31551W        W 3866  24.862   7.711   4.826
31552W        W 3867   3.706  13.757  13.895
31553W        W 3868  34.659   9.223  10.707
31554W        W 3869  12.138   6.768  12.585
31555W        W 3870  28.137  44.359   3.076
31556W        W 3871  35.501  20.842   4.132
31557W        W 3872   6.465  10.570  13.448
31558W        W 3873   1.048  34.438  10.975
31559W        W 3874   9.877   5.832  10.675
31560W        W 3875  37.228  14.194  12.528
31561W        W 3876  15.668  29.563  10.421
31562W        W 3877  25.636  21.422  12.635
31563W        W 3878   2.248  19.669  14.712
31564W        W 3879  25.471  32.537   4.586
31565W        W 3880  20.626   7.566  11.992
31566W        W 3881   9.208  25.744  12.570
31567W        W 3882  16.148   7.446  10.406
31568W        W 3883  12.049  27.559   3.800
31569W        W 3884   2.453  25.135   4.217
31570W        W 3885  17.716  20.971   3.579
31571W        W 3886   4.181   9.136  14.877
31572W        W 3887   0.264  26.846   4.797
31573W        W 3888  22.175  15.161  11.997
31574W        W 3889  37.086  29.239   4.112
31575W        W 3890  33.769  29.457   1.724
31576W        W 3891   8.845   3.675   0.395
31577W        W 3892  13.608   5.935  12.548
31578W        W 3893  33.823   6.673  14.028
31579W        W 3894  34.311  30.587  12.408
31580W        W 3895  18.195  44.301  12.421
31581W        W 3896  39.702  24.358   9.842
31582W        W 3897   5.971  12.640   3.636
31583W        W 3898  27.595  10.643   3.836
31584W        W 3899  22.053  11.104  14.025
31585W        W 3900  21.618  14.589  13.058
31586W        W 3901   3.562  25.930  14.433
31587W        W 3902  41.740  27.083   4.722
31588W        W 3903  13.122  30.271   4.836
31589W        W 3904  32.906   9.199   4.673
31590W        W 3905  38.609  31.478   4.417
31591W        W 3906  44.365  34.139   5.004
31592W        W 3907  13.102  30.790  14.336
31593W        W 3908  11.224  38.822  13.025
31594W        W 3909  35.742  29.015   2.886
31595W        W 3910  11.617  14.545   2.363
31596W        W 3911  43.400   6.030  11.618
31597W        W 3912  11.166  26.032  13.377
31598W        W 3913  40.752   3.253   4.502
31599W        W 3914   6.994   9.786   1.824
31600W        W 3915  17.074  41.832  11.582
31601W        W 3916  14.681   9.061  13.654
31602W        W 3917  30.889   2.949  14.393
31603W        W 3918  28.432  33.059  14.985
31604W        W 3919  19.048  36.160  13.476
31605W        W 3920   3.441  20.691   2.844
31606W        W 3921   3.428  12.428  11.268
31607W        W 3922  14.849  33.049   1.600
31608W        W 3923  27.567   5.274   4.330
31609W        W 3924  34.836  17.240   1.335
31610W        W 3925  26.447  29.856  12.370
31611W        W 3926  10.255  23.033   4.621
31612W        W 3927  25.306   6.145   4.295
31613W        W 3928  19.860  11.879  11.508
31614W        W 3929   0.289  44.310  12.107
31615W        W 3930  38.003  38.015   1.781
31616W        W 3931   2.869  39.049   0.081
31617W        W 3932  26.044   8.430   0.533
31618W        W 3933  32.541  24.607  12.991
31619W        W 3934  29.733  22.183   0.030
31620W        W 3935  44.847   3.406  13.059
31621W        W 3936  10.722  38.539  11.380
31622W        W 3937  12.401   9.432   0.849
31623W        W 3938  44.667   8.397  12.237
31624W        W 3939  23.856  14.674  14.732
31625W        W 3940  40.572  14.116  14.832
31626W        W 3941  22.750  40.157   1.993
31627W        W 3942  12.738  14.560   0.338
31628W        W 3943  26.610   1.301   2.824
31629W        W 3944  20.999  32.834   3.141
31630W        W 3945  25.722   4.252  14.431
31631W        W 3946  44.958   2.954  14.286
31632W        W 3947  23.426  13.862  12.329
31633W        W 3948   5.283   5.904   2.737
31634W        W 3949   3.153  15.690  13.826
31635W        W 3950  18.791  14.263   5.257
31636W        W 3951   4.330  25.128   0.164
31637W        W 3952  18.165  19.051   0.625
31638W        W 3953  36.497  17.152   4.558
31639W        W 3954   2.151  15.588  13.739
31640W        W 3955  36.312  25.704   3.701
31641W        W 3956  20.253  23.283   3.735
31642W        W 3957  39.735   6.460   1.422
31643W        W 3958   7.269  37.355   4.099
31644W        W 3959  36.343  18.158   0.213
31645W        W 3960  41.685  16.825   3.573
31646W        W 3961  23.605  14.506  13.843
31647W        W 3962  33.897  37.071   4.121
31648W        W 3963  38.132  33.612   3.991
31649W        W 3964  20.526  35.579   4.886
31650W        W 3965  30.883   0.737   1.335
31651W        W 3966  31.433  41.550   1.724
31652W        W 3967   3.913  37.053   1.884
31653W        W 3968  33.833  29.085  14.401
31654W        W 3969  18.609   2.802   0.951
31655W        W 3970   8.001   3.471   1.725
31656W        W 3971  39.006  42.743   2.405
31657W        W 3972  30.914   3.984  14.323
31658W        W 3973  12.877  20.901   4.974
31659W        W 3974   7.657  26.845   1.331
31660W        W 3975  18.779  28.461   1.582
31661W        W 3976  11.107  12.735  14.334
31662W        W 3977   3.655  29.530  14.948
31663W        W 3978  43.848  15.204   0.282
31664W        W 3979   3.272  12.743  11.678
31665W        W 3980  17.251  11.211  12.948
31666W        W 3981  42.965  25.506  11.508
31667W        W 3982  38.035  37.060  13.535
31668W        W 3983   6.254   4.262  10.865
31669W        W 3984   7.945  34.057   3.408
31670W        W 3985  27.944  40.424   2.895
31671W        W 3986  29.945  31.053  13.032
31672W        W 3987  15.115  12.895  13.375
31673W        W 3988   0.958  32.499   3.631
31674W        W 3989  12.777  21.343   0.285
31675W        W 3990  19.260  21.699  12.619
31676W        W 3991  32.005  31.896  11.545
31677W        W 3992  33.869  12.054  13.550
31678W        W 3993  43.861  20.049   3.929
31679W        W 3994  32.495   0.983  12.032
31680W        W 3995  38.505  32.738   4.067
31681W        W 3996  30.062   9.143  12.086
31682W        W 3997  26.784  27.465  14.590
31683W        W 3998  33.914  19.168  14.881
31684W        W 3999  17.758  44.792  11.683
31685W        W 4000  17.485  24.656  14.921
31686W        W 4001  11.467  16.226   5.496
31687W        W 4002  22.226  21.212   4.637
31688W        W 4003  39.026  31.112   0.582
31689W        W 4004  20.136  39.086   1.871
31690W        W 4005  17.091  29.260   1.186
31691W        W 4006  30.599  13.828  12.464
31692W        W 4007   9.121  17.227   3.987
31693W        W 4008   5.423  30.093   1.389
31694W        W 4009  33.470  11.289  10.667
31695W        W 4010  38.482  25.960   4.921
31696W        W 4011   8.150  25.597  12.057
31697W        W 4012  11.727   4.777  12.345
31698W        W 4013  37.852  27.286  14.768
31699W        W 4014  15.068   3.636  11.480
31700W        W 4015  27.069   5.778  14.758
31701W        W 4016  34.026  21.199   2.164
31702W        W 4017   3.238   6.428   0.045
31703W        W 4018   2.787  30.341  14.726
31704W        W 4019  30.455   2.814   4.431
31705W        W 4020  27.473  28.451  14.955
31706W        W 4021  32.574   1.954   4.201
31707W        W 4022  27.060  16.361   0.774
31708W        W 4023  10.716  18.551  12.987
31709W        W 4024   6.123   9.684  12.543
31710W        W 4025  35.891  41.034  14.875
31711W        W 4026  38.927  34.368  10.375
31712W        W 4027  12.725  13.663   4.909
31713W        W 4028  25.704  41.059   2.703
31714W        W 4029   3.509  17.683   2.367
31715W        W 4030  40.014  37.800  10.642
31716W        W 4031  31.924  12.201  12.421
31717W        W 4032  35.408   5.441  11.102
31718W        W 4033  40.640  19.296   4.463
31719W        W 4034  38.831  33.430  11.914
31720W        W 4035  38.401  13.356   2.689
31721W        W 4036  25.176   0.825   1.426
31722W        W 4037   8.169  31.121  14.221
31723W        W 4038  42.986  32.078   2.360
31724W        W 4039  22.751   3.195  13.102
31725W        W 4040  25.223  12.552  14.781
31726W        W 4041  12.392  37.390   3.979
31727W        W 4042  42.280   4.475  14.494
31728W        W 4043  26.490  38.317  12.568
31729W        W 4044  12.357   4.384  11.474
31730W        W 4045  35.385  35.260   4.309
31731W        W 4046  36.549  39.531   3.066
31732W        W 4047   5.523  23.299  13.875
31733W        W 4048   9.791  43.520  13.357
31734W        W 4049  20.007   1.509   2.644
31735W        W 4050  18.341   1.413  11.583
31736W        W 4051  34.748  22.793  14.835
31737W        W 4052  15.297  43.313   4.423
31738W        W 4053  35.280  33.070   4.758
31739W        W 4054  44.833  37.382   4.618
31740W        W 4055  15.785  16.573   0.750
31741W        W 4056   8.623  12.120  12.849
31742W        W 4057  35.094  20.520   0.801
31743W        W 4058  31.019  11.836   3.186
31744W        W 4059  14.331  43.322   2.667
31745W        W 4060  39.652  23.349   2.756
31746W        W 4061  44.971   4.681  11.622
31747W        W 4062  18.729   4.340  14.787
31748W        W 4063   0.248  31.442  11.620
31749W        W 4064  44.373  43.841  11.998
31750W        W 4065  32.362  43.449  11.986
31751W        W 4066  39.234   9.191  14.105
31752W        W 4067  28.085  40.093   4.642
31753W        W 4068  35.863  40.248   0.574
31754W        W 4069  16.740  22.720  11.065
31755W        W 4070  22.457   8.441   2.682
31756W        W 4071  23.737  12.379   4.058
31757W        W 4072  22.668  17.198  14.046
31758W        W 4073  21.545  26.419  14.451
31759W        W 4074   3.461  17.637   1.218
31760W        W 4075  18.282   1.070   4.315
31761W        W 4076  32.815  12.316   3.093
31762W        W 4077   3.991  35.537   2.804
31763W        W 4078  39.984  43.381  10.717
31764W        W 4079  28.832  16.785   2.591
31765W        W 4080  27.551   0.737   0.316
31766W        W 4081   6.436  16.231  12.412
31767W        W 4082  15.864  11.298  10.720
31768W        W 4083  41.518   5.650   0.896
31769W        W 4084   3.547  33.946  14.026
31770W        W 4085  16.130  44.930  13.128
31771W        W 4086  43.997  33.893  14.450
31772W        W 4087  36.966  10.595   0.426
31773W        W 4088  25.806  20.641  12.531
31774W        W 4089  43.057  24.571   4.476
31775W        W 4090   1.105   9.625   3.283
31776W        W 4091   8.811   3.825   1.265
31777W        W 4092  40.604  38.946   1.895
31778W        W 4093   7.512  38.287   2.645
31779W        W 4094  27.678  23.994  13.386
31780W        W 4095   9.166  17.778  11.140
31781W        W 4096  23.003   5.958   3.662
31782W        W 4097   0.920   6.787  13.795
31783W        W 4098   7.229  28.032   3.292
31784W        W 4099   8.704  16.977   3.773
31785W        W 4100  19.583  35.478  13.448
31786W        W 4101  29.629  23.204   2.364
31787W        W 4102  44.310   5.394  11.608
31788W        W 4103  23.346  42.268  14.072
31789W        W 4104  18.266   9.509   0.391
31790W        W 4105  37.816  23.246   2.318
31791W        W 4106  27.476  37.396   3.790
31792W        W 4107   3.223   5.323  11.541
31793W        W 4108  44.121  28.027  13.743
31794W        W 4109   7.439   8.330  12.425
31795W        W 4110  33.149   1.949   4.338
31796W        W 4111  44.468   6.149   1.919
31797W        W 4112  29.916  22.604  13.394
31798W        W 4113  11.145  11.875   3.832
31799W        W 4114   8.924  19.612  14.997
31800W        W 4115  41.558  44.839   2.770
31801W        W 4116  14.861  10.180   0.394
31802W        W 4117  22.162   5.470  13.715
31803W        W 4118  24.807  41.742  13.064
31804W        W 4119  42.519   5.268  11.626
31805W        W 4120   3.971  17.414   0.423
31806W        W 4121  18.117   5.761  14.725
31807W        W 4122  14.407  25.033  10.717
31808W        W 4123   5.626   6.329  13.397
31809W        W 4124   2.400   2.871  12.433
31810W        W 4125  43.899  11.399  14.199
31811W        W 4126  29.591   5.469  14.544
31812W        W 4127  23.191   2.047   0.933
31813W        W 4128  34.331   6.730  12.014
31814W        W 4129  29.071   5.652  12.979
31815W        W 4130  31.557  33.432   4.729
31816W        W 4131  18.080  32.156   0.841
31817W        W 4132  35.796   7.854  13.263
31818W        W 4133  42.702  44.982   0.158
31819W        W 4134  23.714   1.781   3.323
31820W        W 4135   1.744  21.173  13.345
31821W        W 4136  21.523   4.285  14.326
31822W        W 4137  31.865  40.530   3.013
31823W        W 4138  26.194  25.035  14.222
31824W        W 4139  25.035   3.870   3.719
31825W        W 4140  28.428  15.835  11.592
31826W        W 4141  11.950  16.829   9.664
31827W        W 4142  42.342  27.938   0.378
31828W        W 4143  32.427  31.431  12.587
31829W        W 4144   6.927  10.668   3.000
31830W        W 4145  30.432  31.100  14.028
31831W        W 4146  21.733   4.949   2.149
31832W        W 4147  17.043   0.573  11.403
31833W        W 4148  18.653   3.778  11.608
31834W        W 4149  31.406   4.098   3.281
31835W        W 4150  11.602  11.346  12.546
31836W        W 4151  34.540  23.073   4.833
31837W        W 4152  28.614  29.631   1.394
31838W        W 4153   7.367  25.012   3.733
31839W        W 4154  23.243  18.496   2.284
31840W        W 4155  31.730  40.637  11.051
31841W        W 4156  28.019   8.614  10.714
31842W        W 4157  43.434   7.990  13.125
31843W        W 4158  42.759  31.402   4.663
31844W        W 4159  12.621   7.704   1.751
31845W        W 4160  27.097   6.190   1.641
31846W        W 4161  38.949  15.306   1.311
31847W        W 4162   2.249   0.344   2.317
31848W        W 4163   6.497  12.208  10.464
31849W        W 4164  13.691  44.048   2.708
31850W        W 4165  34.986  25.781   0.906
31851W        W 4166  43.154  42.687  11.005
31852W        W 4167  27.677  40.898  13.993
31853W        W 4168  25.801   9.229  12.453
31854W        W 4169  21.727  44.061   0.180
31855W        W 4170   1.092  41.466   1.308
31856W        W 4171  40.782  35.066  14.441
31857W        W 4172  31.655  17.258  13.333
31858W        W 4173  15.819  28.898  10.247
31859W        W 4174  25.434  23.315   2.432
31860W        W 4175  37.439  20.268  13.981
31861W        W 4176   8.283  19.430  12.062
31862W        W 4177  23.111   0.643  14.487
31863W        W 4178  29.798   1.939  10.106
31864W        W 4179  44.083  15.346   3.781
31865W        W 4180   5.838  41.787   0.687
31866W        W 4181  27.444   4.627  12.522
31867W        W 4182  43.561  17.315   0.621
31868W        W 4183  30.519  33.111   0.051
31869W        W 4184  28.782   6.898  12.445
31870W        W 4185  36.794  16.916  14.743
31871W        W 4186  34.871   8.116   1.486
31872W        W 4187   9.677  10.432  11.698
31873W        W 4188  39.889  25.486   4.634
31874W        W 4189  18.544  28.663  13.942
31875W        W 4190  15.130  43.466   0.515
31876W        W 4191   6.959  42.480   3.829
31877W        W 4192  15.770  37.468  12.088
31878W        W 4193  10.476  22.484  14.870
31879W        W 4194   2.120  34.844  12.043
31880W        W 4195  26.738   1.314  12.524
31881W        W 4196  34.767  12.768  12.540
31882W        W 4197   3.320   8.291   3.682
31883W        W 4198  23.616  41.417   4.896
31884W        W 4199  34.003   8.617  14.356
31885W        W 4200  39.550  22.111  13.981
31886W        W 4201  18.626  24.765   4.019
31887W        W 4202  22.274  26.614  13.515
31888W        W 4203   5.473   7.364  13.871
31889W        W 4204  43.906  25.584   1.810
31890W        W 4205  40.293   2.462   1.902
31891W        W 4206  18.538  34.649  14.991
31892W        W 4207   2.143  22.984  13.411
31893W        W 4208  34.837   8.663   4.565
31894W        W 4209  20.569  16.073   4.172
31895W        W 4210   0.281  33.472  14.470
31896W        W 4211  32.538  11.236  12.073
31897W        W 4212  32.350  19.684  14.581
31898W        W 4213  13.403   9.608   2.810
31899W        W 4214  12.560  39.856  10.600
31900W        W 4215  19.323  10.037  14.906
31901W        W 4216  25.986   4.229  10.599
31902W        W 4217  41.840  19.280   3.656
31903W        W 4218  25.627   7.766   2.913
31904W        W 4219   0.313  43.979   4.161
31905W        W 4220  21.978  26.915   0.836
31906W        W 4221  39.363  20.144  11.950
31907W        W 4222   4.706  25.673  11.550
31908W        W 4223  10.154  30.789   1.501
31909W        W 4224  40.808  22.171   1.551
31910W        W 4225  44.982  16.792  11.346
31911W        W 4226  10.689  19.001   0.352
31912W        W 4227  21.803  40.707  10.484
31913W        W 4228   0.570  44.186   0.385
31914W        W 4229  43.255  12.643   2.764
31915W        W 4230  42.780   8.177   1.728
31916W        W 4231  35.530   4.912   1.391
31917W        W 4232  18.545  23.030  10.676
31918W        W 4233  19.645  39.585   0.667
31919W        W 4234  16.222  17.096   0.518
31920W        W 4235  28.552  14.597  14.749
31921W        W 4236  25.515  13.644  10.716
31922W        W 4237  11.196  23.422  12.520
31923W        W 4238   6.201  36.483   3.175
31924W        W 4239  38.084   7.871  11.789
31925W        W 4240   2.886   1.827  14.256
31926W        W 4241   3.850  30.494   0.252
31927W        W 4242  19.070  16.597   0.920
31928W        W 4243  13.251  37.564  14.573
31929W        W 4244  36.844   4.435  13.417
31930W        W 4245  30.469  27.431   4.184
31931W        W 4246  33.028  37.902  13.166
31932W        W 4247   7.041  21.560   0.680
31933W        W 4248  22.162  37.368  13.281
31934W        W 4249   6.446  44.504   1.499
31935W        W 4250  36.563  13.039  14.430
31936W        W 4251   4.217   5.939   2.350
31937W        W 4252   3.230   2.873  11.548
31938W        W 4253  28.255   1.350  13.440
31939W        W 4254  36.362  39.805  13.935
31940W        W 4255  23.540  43.835  12.896
31941W        W 4256   6.127  38.786   1.232
31942W        W 4257   9.814   9.595   1.953
31943W        W 4258   5.260   6.435   4.159
31944W        W 4259  40.326   8.285  12.160
31945W        W 4260   4.171   8.682   1.002
31946W        W 4261   2.499  33.177   0.290
31947W        W 4262  20.547  25.640   2.042
31948W        W 4263   7.288  43.625   4.385
31949W        W 4264  29.225  37.699  12.746
31950W        W 4265  16.440  13.373  12.427
31951W        W 4266  36.738  15.166  11.656
31952W        W 4267  23.181  10.366  14.518
31953W        W 4268  10.609  19.556   2.918
31954W        W 4269   5.331   8.660  11.437
31955W        W 4270  10.952  11.611  12.030
31956W        W 4271  16.128  34.620  13.436
31957W        W 4272  21.021  31.835   1.356
31958W        W 4273   4.503  16.675   4.721
31959W        W 4274  21.705   4.509   1.876
31960W        W 4275  34.024  30.606   4.136
31961W        W 4276   8.080  12.778  14.370
31962W        W 4277   5.202   7.228  11.089
31963W        W 4278  28.492  20.230  13.699
31964W        W 4279  13.245   6.948  13.389
31965W        W 4280  16.668  20.137   1.909
31966W        W 4281  15.105  10.681  12.267
31967W        W 4282  43.340   0.924  13.676
31968W        W 4283  31.918   4.930  14.112
31969W        W 4284  12.792  30.153  12.836
31970W        W 4285  25.783  10.338  13.970
31971W        W 4286  28.738  13.683  13.458
31972W        W 4287  35.409  36.321  14.894
31973W        W 4288  33.705   9.055   1.191
31974W        W 4289   8.871  42.235  14.441
31975W        W 4290   1.193  44.870  13.511
31976W        W 4291  21.745  31.556  11.042
31977W        W 4292   8.712  35.037  12.023
31978W        W 4293  12.527  10.402   2.222
31979W        W 4294   0.355   9.238   2.168
31980W        W 4295  21.257  23.634   3.759
31981W        W 4296   0.671  26.443  10.742
31982W        W 4297  18.729  24.184   0.386
31983W        W 4298  30.655  30.099  14.811
31984W        W 4299  30.996  33.451  10.641
31985W        W 4300  12.710   5.320  11.087
31986W        W 4301  43.516  11.674  14.534
31987W        W 4302  39.119  31.957   1.996
31988W        W 4303   7.062  35.027  10.727
31989W        W 4304  12.273  14.047   4.197
31990W        W 4305  15.585  10.050  12.538
31991W        W 4306  13.244   0.300   2.097
31992W        W 4307  37.046  29.604  12.566
31993W        W 4308  15.705  32.945   2.684
31994W        W 4309   4.842  32.455   2.745
31995W        W 4310  33.119  33.325   0.583
31996W        W 4311   2.333   1.002   0.990
31997W        W 4312  38.519  34.957  10.909
31998W        W 4313  15.757   8.563  10.863
31999W        W 4314  28.571  24.105  11.192
32000W        W 4315   4.239  22.214   1.791
32001W        W 4316  37.633  15.510  14.244
32002W        W 4317  15.582  13.198  13.368
32003W        W 4318  41.411   1.307  13.563
32004W        W 4319   8.141  40.301  12.473
32005W        W 4320  12.210  30.046  14.393
32006W        W 4321  26.833  40.504  13.806
32007W        W 4322  44.224  11.940   9.845
32008W        W 4323  39.792  33.708   1.841
32009W        W 4324  31.606  26.191  11.205
32010W        W 4325   4.177  41.687  12.840
32011W        W 4326  37.689   7.459   4.518
32012W        W 4327  25.100   1.748   1.802
32013W        W 4328  10.310  39.343  10.510
32014W        W 4329  44.422  23.051  11.969
32015W        W 4330  25.548  16.518   2.856
32016W        W 4331  42.354  22.865  11.811
32017W        W 4332  27.610  13.759   4.696
32018W        W 4333  39.998  21.212   4.540
32019W        W 4334  41.789  16.080  10.806
32020W        W 4335   4.144  34.878  11.024
32021W        W 4336  17.569  16.591   3.817
32022W        W 4337   5.978  24.412   3.724
32023W        W 4338  30.658   7.174  11.659
32024W        W 4339   0.824   4.764   3.808
32025W        W 4340  15.662  35.631   2.096
32026W        W 4341  33.349  27.480   3.627
32027W        W 4342  29.720   9.676   1.744
32028W        W 4343  25.021  39.281   4.708
32029W        W 4344  43.880   3.712   0.948
32030W        W 4345  14.270  23.535  13.360
32031W        W 4346   4.645  21.664   4.038
32032W        W 4347   1.986  40.697   3.720
32033W        W 4348  32.959  22.914  12.798
32034W        W 4349  42.099   2.882  12.129
32035W        W 4350   0.784  40.875  11.380
32036W        W 4351   6.171   5.267  14.457
32037W        W 4352  12.594  22.104   3.191
32038W        W 4353   2.529  42.114   1.909
32039W        W 4354  23.140   6.611   0.199
32040W        W 4355  15.921  16.359  12.873
32041W        W 4356  13.925  22.763  14.984
32042W        W 4357  39.928  40.284   3.817
32043W        W 4358  23.212   7.060  10.612
32044W        W 4359  42.208  40.419  11.229
32045W        W 4360  29.093   5.193  10.442
32046W        W 4361  13.321   0.905   4.631
32047W        W 4362  21.462  36.070  12.580
32048W        W 4363  13.557  15.546  14.930
32049W        W 4364   9.148  35.080   4.602
32050W        W 4365  26.522  17.180  12.420
32051W        W 4366  31.141  20.335  11.932
32052W        W 4367  18.547  13.869  13.876
32053W        W 4368  27.535   7.267  12.436
32054W        W 4369  41.343  20.500  11.683
32055W        W 4370  29.727  23.173   4.669
32056W        W 4371  38.992  17.669   4.694
32057W        W 4372  10.643   8.999  11.361
32058W        W 4373  32.506  40.506  13.996
32059W        W 4374   8.153  41.349  14.278
32060W        W 4375  10.934  34.064  14.314
32061W        W 4376   7.289   6.422  12.579
32062W        W 4377  11.893   9.270   2.346
32063W        W 4378  39.930  11.358   4.730
32064W        W 4379  43.418   9.825   5.020
32065W        W 4380  23.164  21.022   3.203
32066W        W 4381  18.357   0.946   0.191
32067W        W 4382  16.603  34.474   4.045
32068W        W 4383  26.741  31.522  11.457
32069W        W 4384  24.483  25.116  14.417
32070W        W 4385  14.591  37.018  13.393
32071W        W 4386  31.364  21.350   4.185
32072W        W 4387  36.601  21.273  14.132
32073W        W 4388   9.327  35.039  10.897
32074W        W 4389   0.404  41.167   0.081
32075W        W 4390  13.843   3.358  14.020
32076W        W 4391  34.823  37.148  14.303
32077W        W 4392  20.583  36.130   1.857
32078W        W 4393   1.268  41.869  14.057
32079W        W 4394  27.887  38.822  10.768
32080W        W 4395  43.425  28.898   3.764
32081W        W 4396  23.025  31.491   4.577
32082W        W 4397  35.449  29.952   4.467
32083W        W 4398  10.804  30.945  12.161
32084W        W 4399  12.226   7.455   2.764
32085W        W 4400  22.616   0.050  10.628
32086W        W 4401  20.828  28.775   1.801
32087W        W 4402  19.694  23.653   2.085
32088W        W 4403  43.898   9.545   4.126
32089W        W 4404  34.066  24.211  12.831
32090W        W 4405   0.244  26.505   3.572
32091W        W 4406   2.906  30.110  12.049
32092W        W 4407  29.333  30.113  10.965
32093W        W 4408  36.561  35.358   0.384
32094W        W 4409   5.453  41.517  13.461
32095W        W 4410  32.085   8.334  12.693
32096W        W 4411  34.635   6.411   1.426
32097W        W 4412  38.466  40.267   0.312
32098W        W 4413  38.995  44.537   4.312
32099W        W 4414  28.061  38.034  14.021
32100W        W 4415  40.874   2.473  13.714
32101W        W 4416  39.950  41.851  13.093
32102W        W 4417  30.166  35.037  11.873
32103W        W 4418  34.614  19.127  11.179
32104W        W 4419  15.311  26.260   1.792
32105W        W 4420  19.283  33.721  13.435
32106W        W 4421  32.607  25.186   1.254
32107W        W 4422  34.865  22.883   2.248
32108W        W 4423  11.866  31.144   2.810
32109W        W 4424  15.336  11.614   4.595
32110W        W 4425  24.193  33.269   0.571
32111W        W 4426  42.767  32.336  11.927
32112W        W 4427  11.252  43.746   3.239
32113W        W 4428   2.503  35.115  12.331
32114W        W 4429  17.612  36.775  13.893
32115W        W 4430  26.212  17.062   4.181
32116W        W 4431  29.790  16.935   4.967
32117W        W 4432  19.287  17.275  14.410
32118W        W 4433  10.735  14.100   1.339
32119W        W 4434  15.608  23.619  10.021
32120W        W 4435  21.244  22.596  13.347
32121W        W 4436  13.248  32.103  13.613
32122W        W 4437  26.935  25.455   0.796
32123W        W 4438  36.895  37.356   3.613
32124W        W 4439  36.378   8.895   2.351
32125W        W 4440  33.606  23.680   9.721
32126W        W 4441   3.535  19.090  11.383
32127W        W 4442  35.490  12.082  11.670
32128W        W 4443  20.383   6.116  11.062
32129W        W 4444  38.558  14.190  12.012
32130W        W 4445  24.304  29.178   2.736
32131W        W 4446  19.320   4.342  13.405
32132W        W 4447  43.910  42.952  12.593
32133W        W 4448   8.157  21.767   2.270
32134W        W 4449  30.456  30.032   1.421
32135W        W 4450  22.402  25.991   2.712
32136W        W 4451  23.633  41.548  13.002
32137W        W 4452   2.338  40.077   0.818
32138W        W 4453   4.375  20.892   1.811
32139W        W 4454  40.951  20.125   3.368
32140W        W 4455  24.463  12.439  11.929
32141W        W 4456  24.956  14.212   1.148
32142W        W 4457  24.574   5.193  12.675
32143W        W 4458  14.631  16.693  14.788
32144W        W 4459  30.666  40.642  14.213
32145W        W 4460   1.445  36.424   1.459
32146W        W 4461  14.076  20.715  10.715
32147W        W 4462  43.016  42.455  13.795
32148W        W 4463  32.905  18.674   1.947
32149W        W 4464  12.908  23.158   4.938
32150W        W 4465  40.033  15.836  13.443
32151W        W 4466  12.853  40.005   1.779
32152W        W 4467  30.932   7.531   1.938
32153W        W 4468   3.490  36.606  12.524
32154W        W 4469   7.795   1.188   3.303
32155W        W 4470  14.098  21.241  13.604
32156W        W 4471  17.772  10.780   1.893
32157W        W 4472  12.339  17.094   0.349
32158W        W 4473  37.077  16.314   1.484
32159W        W 4474  41.093  27.945   1.749
32160W        W 4475  22.127   5.694   4.808
32161W        W 4476  28.569  34.154  11.677
32162W        W 4477  29.918  19.472   2.616
32163W        W 4478  21.944  33.697   3.891
32164W        W 4479  35.615   8.991  12.190
32165W        W 4480  35.238  31.477  14.106
32166W        W 4481  16.784  26.167  12.753
32167W        W 4482  18.202   6.801   3.769
32168W        W 4483   2.328  12.090   0.347
32169W        W 4484  15.274  20.500   3.650
32170W        W 4485  14.427  31.736   1.095
32171W        W 4486  42.235   6.404  11.525
32172W        W 4487   7.301  23.989  11.674
32173W        W 4488   6.650   8.707  11.053
32174W        W 4489  29.875  31.488  13.452
32175W        W 4490   4.147   6.844   0.806
32176W        W 4491  14.528  27.443  10.679
32177W        W 4492   0.398   0.362   0.274
32178W        W 4493  34.485  25.454   1.157
32179W        W 4494  38.058  17.337  10.827
32180W        W 4495  22.635  10.268  14.468
32181W        W 4496  36.982   2.917   3.893
32182W        W 4497  22.959   0.675   0.353
32183W        W 4498  17.771  41.577   2.182
32184W        W 4499  35.661  22.670  10.934
32185W        W 4500  22.202  19.060   0.618
32186W        W 4501  18.809  32.557  11.563
32187W        W 4502  21.567  44.902  14.889
32188W        W 4503  25.111  12.193   4.521
32189W        W 4504  31.553  20.000  12.064
32190W        W 4505   6.176  28.083  13.307
32191W        W 4506   8.946  18.738  11.137
32192W        W 4507  17.846  35.021   1.298
32193W        W 4508  20.260   2.960  11.217
32194W        W 4509  12.957   2.224  10.035
32195W        W 4510   9.799  15.199  12.850
32196W        W 4511  31.976  33.215  13.489
32197W        W 4512   5.061  44.700  11.219
32198W        W 4513  37.870  32.121  13.498
32199W        W 4514   7.752  32.833   1.921
32200W        W 4515  11.604   4.376   0.918
32201W        W 4516   3.364   6.259   0.593
32202W        W 4517  43.233  14.956  14.907
32203W        W 4518  11.576  15.138   4.033
32204W        W 4519  36.467   0.482   4.855
32205W        W 4520  36.530  44.532   3.102
32206W        W 4521  36.641  27.060  14.033
32207W        W 4522  44.930  32.549  13.414
32208W        W 4523  32.449  32.887   0.827
32209W        W 4524  16.462  31.626   0.265
32210W        W 4525  21.170  38.436   3.614
32211W        W 4526   7.454  36.584   2.276
32212W        W 4527  40.789  44.247   3.281
32213W        W 4528  23.931  17.621  14.252
32214W        W 4529  22.766  19.177  10.633
32215W        W 4530  37.964  28.700   1.703
32216W        W 4531   2.551  27.934   2.668
32217W        W 4532  36.416  39.244   1.630
32218W        W 4533   2.721   1.060  11.892
32219W        W 4534   1.153   6.870   3.590
32220W        W 4535  29.701  30.203   3.385
32221W        W 4536  17.014  33.588   3.151
32222W        W 4537  41.125   2.747   0.860
32223W        W 4538   3.540  32.891   3.230
32224W        W 4539  23.635  30.567   2.622
32225W        W 4540  30.460  16.468   2.678
32226W        W 4541  36.937   8.483  12.064
32227W        W 4542   0.429   5.180  11.786
32228W        W 4543  36.833  12.181   3.050
32229W        W 4544  10.223  44.089  13.860
32230W        W 4545   6.776  39.704   1.354
32231W        W 4546   9.908  14.251  11.191
32232W        W 4547  40.805  16.088   0.948
32233W        W 4548   9.839  37.944   1.860
32234W        W 4549  16.572   8.452   3.317
32235W        W 4550  23.195  34.984   3.183
32236W        W 4551   8.640  13.698   1.950
32237W        W 4552  20.106   3.291  10.689
32238W        W 4553  16.830   2.402  13.076
32239W        W 4554   8.121   5.269  10.458
32240W        W 4555   9.823   7.400  13.974
32241W        W 4556  20.105  35.384   3.612
32242W        W 4557  25.653  28.235   1.244
32243W        W 4558  38.495  16.018   4.921
32244W        W 4559  31.072  29.676  14.324
32245W        W 4560   1.148  29.524   4.292
32246W        W 4561  35.309   7.854   1.412
32247W        W 4562  11.520  29.696  13.911
32248W        W 4563  10.305  39.552  10.991
32249W        W 4564  35.484  10.287  12.103
32250W        W 4565  38.405   3.905  13.517
32251W        W 4566  43.219   6.204   2.854
32252W        W 4567  38.670  43.536   3.592
32253W        W 4568   3.941  15.690  14.271
32254W        W 4569  12.618   6.292  14.954
32255W        W 4570  11.603   0.868   1.333
32256W        W 4571  25.169  16.821  14.956
32257W        W 4572   6.619  13.873  10.534
32258W        W 4573  37.791  24.583   1.681
32259W        W 4574  36.428  12.706   0.491
32260W        W 4575   1.359  23.923   0.307
32261W        W 4576   2.410  25.857  12.681
32262W        W 4577   8.422  36.054  11.516
32263W        W 4578  12.089  38.766   5.100
32264W        W 4579  20.811  16.566   4.167
32265W        W 4580  22.101  36.980   3.171
32266W        W 4581  35.824  33.213  12.366
32267W        W 4582  40.271  28.081   3.109
32268W        W 4583   1.747  32.087  13.687
32269W        W 4584  27.606  29.644   1.276
32270W        W 4585   1.944  43.364  10.859
32271W        W 4586  28.904  23.631  12.427
32272W        W 4587  39.664   0.869   3.688
32273W        W 4588   6.872   7.888  14.298
32274W        W 4589  35.033   6.267   0.893
32275W        W 4590  34.251  35.892  14.364
32276W        W 4591   4.379  44.469  14.057
32277W        W 4592  27.609  39.317  11.504
32278W        W 4593   4.766  17.821   0.421
32279W        W 4594  37.300  44.250  12.915
32280W        W 4595  28.011  20.951   1.929
32281W        W 4596  13.675  29.995   4.389
32282W        W 4597  15.294  31.572  11.368
32283W        W 4598  10.189   2.983  14.857
32284W        W 4599  40.959  25.744   5.451
32285W        W 4600  37.805  24.052   0.726
32286W        W 4601   5.928  35.938   3.842
32287W        W 4602  20.105  25.398   1.510
32288W        W 4603  28.948  43.792   2.886
32289W        W 4604  28.296  13.207  14.446
32290W        W 4605  23.223  43.258   0.490
32291W        W 4606  39.007  21.331  12.507
32292W        W 4607  30.269  25.174  12.951
32293W        W 4608  10.220  20.649  11.042
32294W        W 4609  19.435  39.432  14.716
32295W        W 4610  20.579   1.230  12.101
32296W        W 4611  39.768  19.253   1.257
32297W        W 4612  13.181  11.729  12.170
32298W        W 4613  18.110   0.952   1.780
32299W        W 4614  16.537  38.532   1.909
32300W        W 4615   3.842  17.107  12.996
32301W        W 4616  25.607   5.906   5.770
32302W        W 4617  38.921  23.240  11.535
32303W        W 4618  44.804  19.281  12.124
32304W        W 4619  30.046  33.533  12.370
32305W        W 4620   3.820  41.936   4.089
32306W        W 4621  17.705   6.849   0.848
32307W        W 4622  35.344  25.430   3.380
32308W        W 4623  38.449  43.340  14.033
32309W        W 4624  14.074  11.263   1.617
32310W        W 4625  10.879  36.077   0.984
32311W        W 4626  19.617  27.594   3.726
32312W        W 4627  35.351  27.191   0.914
32313W        W 4628   7.154  43.911   0.391
32314W        W 4629   1.422  17.660  13.797
32315W        W 4630  40.464  15.208  13.106
32316W        W 4631  23.196  38.550   3.798
32317W        W 4632   5.729  44.046  14.335
32318W        W 4633  25.564   4.925   4.105
32319W        W 4634  44.356  36.164   1.936
32320W        W 4635   2.005  34.352   0.236
32321W        W 4636  27.146   2.983   9.879
32322W        W 4637  32.004   6.685  14.929
32323W        W 4638   1.950  33.146   2.585
32324W        W 4639  34.225  40.402  13.986
32325W        W 4640  38.039  35.906   2.918
32326W        W 4641  18.164  34.598   1.147
32327W        W 4642  18.752  28.107  13.042
32328W        W 4643  13.261  23.193  11.588
32329W        W 4644   3.754  33.918  12.679
32330W        W 4645  33.132   6.156  12.025
32331W        W 4646  10.111  22.203   1.218
32332W        W 4647  39.047  43.768  14.768
32333W        W 4648   1.338   7.673  13.577
32334W        W 4649   7.729   0.356   4.411
32335W        W 4650  13.105   2.466  10.524
32336W        W 4651   9.887   0.877  12.374
32337W        W 4652  20.302  33.550   2.004
32338W        W 4653  11.810   5.115   5.242
32339W        W 4654  21.985   1.043  14.317
32340W        W 4655  10.581  33.068  14.413
32341W        W 4656  29.577  40.601   5.009
32342W        W 4657   0.397   6.463  12.450
32343W        W 4658  16.252   0.880  12.033
32344W        W 4659  27.572  44.952  13.849
32345W        W 4660  39.432  39.432   4.535
32346W        W 4661  22.169   1.381   3.132
32347W        W 4662  13.122  43.818   4.206
32348W        W 4663  23.812  39.097   2.231
32349W        W 4664  26.996  37.087  14.661
32350W        W 4665   4.903   2.186   0.256
32351W        W 4666   0.170  25.966   4.622
32352W        W 4667   7.314  30.995   2.383
32353W        W 4668   2.680  25.833  11.440
32354W        W 4669  12.256  31.166  14.329
32355W        W 4670   7.497  20.152  10.561
32356W        W 4671  23.093  12.154  14.010
32357W        W 4672   0.436  28.837   5.202
32358W        W 4673  29.120  33.113  12.959
32359W        W 4674  29.521  43.836   2.681
32360W        W 4675  20.202   6.711   4.468
32361W        W 4676  31.239  21.106   3.324
32362W        W 4677  22.452  18.062  13.806
32363W        W 4678   7.170   3.124   2.208
32364W        W 4679  30.131  17.837   4.072
32365W        W 4680  15.229  32.458  10.422
32366W        W 4681  24.472   3.159   4.646
32367W        W 4682  10.750  31.357  11.813
32368W        W 4683  27.429  28.270  14.248
32369W        W 4684   8.095  19.634  12.910
32370W        W 4685  37.801  40.689  14.305
32371W        W 4686  44.561  32.431   3.787
32372W        W 4687  42.910  23.929  11.550
32373W        W 4688  21.436   2.801  12.051
32374W        W 4689   2.265  29.955  13.802
32375W        W 4690  15.968  25.298  14.825
32376W        W 4691  29.091  43.970  12.874
32377W        W 4692  31.416  15.178   4.554
32378W        W 4693  13.169  41.300  13.905
32379W        W 4694  11.349  15.415  12.016
32380W        W 4695  17.858  33.317  14.416
32381W        W 4696  22.891   2.430  10.745
32382W        W 4697  18.719  44.251  14.272
32383W        W 4698  41.916  15.834  13.542
32384W        W 4699  43.672  43.849   2.413
32385W        W 4700  36.292  29.797   2.388
32386W        W 4701  24.217  35.912  13.002
32387W        W 4702  22.753  36.855  11.941
32388W        W 4703   2.054   9.888   0.777
32389W        W 4704  23.582   1.422  12.454
32390W        W 4705  43.797  34.121   3.301
32391W        W 4706  10.311   5.683   0.511
32392W        W 4707  11.278  44.909   2.882
32393W        W 4708   7.223  20.640  11.682
32394W        W 4709  31.468  33.652   2.229
32395W        W 4710  20.577  21.671  12.092
32396W        W 4711  32.019  10.604   4.503
32397W        W 4712  22.127  10.652  10.730
32398W        W 4713   2.686  42.365  11.996
32399W        W 4714  40.557  30.495   3.401
32400W        W 4715  22.192  31.469  12.415
32401W        W 4716  33.115  28.049   4.466
32402W        W 4717  18.154   5.519  12.932
32403W        W 4718   8.412  26.626   2.269
32404W        W 4719  40.775  11.847   3.042
32405W        W 4720  12.432   5.708   2.798
32406W        W 4721  38.106   4.184   0.899
32407W        W 4722  41.744  40.852   1.228
32408W        W 4723   8.835   1.978  11.568
32409W        W 4724   8.780   8.718   2.817
32410W        W 4725  38.498  30.533   3.414
32411W        W 4726  43.491  27.139   4.861
32412W        W 4727  39.283  10.828   0.427
32413W        W 4728  26.713  17.653  12.371
32414W        W 4729  38.551  41.247   0.836
32415W        W 4730  31.597  32.831  13.021
32416W        W 4731  34.762  22.603  13.817
32417W        W 4732  19.502  43.155   1.138
32418W        W 4733   6.903  26.889  10.968
32419W        W 4734  42.510   6.694   2.761
32420W        W 4735  35.424   7.651   2.276
32421W        W 4736  44.367  10.125  14.481
32422W        W 4737  41.829  43.948   1.832
32423W        W 4738  17.380  25.132  12.564
32424W        W 4739  27.130  41.736   0.919
32425W        W 4740  39.842  25.139   2.346
32426W        W 4741   0.507  35.587  12.378
32427W        W 4742  20.291  44.027  12.273
32428W        W 4743  44.244  39.104  14.029
32429W        W 4744   3.233  36.036   1.800
32430W        W 4745  39.884  39.262   2.663
32431W        W 4746   0.455   2.292   2.810
32432W        W 4747  24.262  13.235   2.138
32433W        W 4748  20.069  25.434   2.017
32434W        W 4749  41.263  11.077  13.839
32435W        W 4750  32.044  38.316   1.831
32436W        W 4751   1.194   8.219   2.232
32437W        W 4752  27.974  29.936   4.213
32438W        W 4753  15.825  32.568   0.938
32439W        W 4754  41.371  29.378   3.575
32440W        W 4755   6.448  12.286  13.591
32441W        W 4756   6.615  24.647   1.823
32442W        W 4757  40.839  10.391  11.603
32443W        W 4758  19.204  39.372  11.106
32444W        W 4759  20.232  12.614  12.031
32445W        W 4760  29.631  31.286  14.374
32446W        W 4761  31.513  14.886  14.399
32447W        W 4762  36.784  25.570  13.603
32448W        W 4763   4.216  23.188   0.245
32449W        W 4764   7.404  18.635  11.822
32450W        W 4765  37.523  25.577   2.240
32451W        W 4766  14.736  35.405   1.716
32452W        W 4767  23.800  42.949   3.370
32453W        W 4768  21.465  34.576   3.625
32454W        W 4769   2.765  18.665  11.006
32455W        W 4770   3.356  17.101  13.713
32456W        W 4771  41.829   7.207   3.258
32457W        W 4772  23.171  33.984   0.977
32458W        W 4773  26.818  23.554   3.755
32459W        W 4774  42.086  10.671  12.432
32460W        W 4775  24.704   6.643  13.359
32461W        W 4776  31.393  10.805  11.300
32462W        W 4777  42.560  13.822   3.232
32463W        W 4778   7.123  38.867   4.109
32464W        W 4779  24.964  34.508  11.506
32465W        W 4780  13.220  22.655   0.735
32466W        W 4781  23.425  30.987  10.770
32467W        W 4782  43.915   1.015   3.353
32468W        W 4783   9.492  11.891   5.055
32469W        W 4784  23.168  17.978  10.128
32470W        W 4785   8.616  16.647  11.584
32471W        W 4786  15.799   3.366  11.627
32472W        W 4787  19.554  31.710  10.881
32473W        W 4788  34.212  24.751   3.744
32474W        W 4789  29.958  27.141   1.936
32475W        W 4790   4.279  22.809   1.090
32476W        W 4791  20.027   0.030   1.763
32477W        W 4792  41.432  34.929  11.669
32478W        W 4793  23.757  34.540  11.114
32479W        W 4794   9.887  43.324   4.347
32480W        W 4795  33.603   6.361   0.411
32481W        W 4796   6.707  39.986   2.167
32482W        W 4797  12.516  35.470  12.315
32483W        W 4798  25.190  18.089  12.111
32484W        W 4799  23.992  37.433  10.320
32485W        W 4800   3.721  42.446   4.213
32486W        W 4801  30.498  36.320   4.501
32487W        W 4802  42.385   5.913   1.391
32488W        W 4803  24.370   8.281  11.890
32489W        W 4804  31.054   2.453  10.703
32490W        W 4805  16.050  28.628  10.644
32491W        W 4806  23.821  39.356   3.362
32492W        W 4807  22.221   0.289   4.480
32493W        W 4808  40.299   1.503  12.859
32494W        W 4809  15.534  30.190  10.282
32495W        W 4810  34.611  20.627  14.915
32496W        W 4811  22.635  15.862   3.191
32497W        W 4812   2.437  42.796  11.914
32498W        W 4813   7.640   0.971  12.394
32499W        W 4814  11.865   7.796   4.677
32500W        W 4815  34.944  43.922   4.499
32501W        W 4816   2.753  19.052  14.870
32502W        W 4817  23.919  43.848  11.484
32503W        W 4818  21.718  21.958   0.889
32504W        W 4819  10.278  42.766  14.051
32505W        W 4820  19.078  14.758  14.789
32506W        W 4821  16.993  29.774   3.305
32507W        W 4822  32.918   0.786   4.242
32508W        W 4823  24.651  12.905  11.109
32509W        W 4824  13.124  39.019  12.486
32510W        W 4825  23.457   6.154   4.183
32511W        W 4826  14.645  39.564   0.877
32512W        W 4827  40.838  31.089   1.422
32513W        W 4828  23.645  22.318  11.263
32514W        W 4829  21.943  27.396   1.324
32515W        W 4830  20.228  43.661   3.515
32516W        W 4831  19.192  38.453   1.223
32517W        W 4832  25.151   2.055   0.978
32518W        W 4833  14.309  39.288   1.831
32519W        W 4834  28.396  10.705  13.891
32520W        W 4835  26.525  26.949  14.432
32521W        W 4836  28.845  34.737   1.294
32522W        W 4837   9.779  10.903  10.494
32523W        W 4838  28.625  33.908   4.100
32524W        W 4839  27.712  15.010   3.223
32525W        W 4840  23.450  25.108  14.359
32526W        W 4841  22.983  35.505  12.870
32527W        W 4842   9.431  24.066  10.483
32528W        W 4843  33.640  38.977  11.358
32529W        W 4844  34.487  40.053  14.265
32530W        W 4845   7.262  22.387  13.406
32531W        W 4846  34.962  13.389  13.347
32532W        W 4847  18.655   3.225   0.336
32533W        W 4848   5.800  17.066  13.406
32534W        W 4849  18.499  26.696   2.668
32535W        W 4850  16.812  33.907   3.861
32536W        W 4851  32.441  33.610   2.353
32537W        W 4852  43.902  15.676  10.551
32538W        W 4853   6.208  41.413  12.959
32539W        W 4854  12.788  28.030  12.298
32540W        W 4855  11.235  13.694   4.199
32541W        W 4856  24.127  11.870  13.053
32542W        W 4857   6.870  16.069  12.138
32543W        W 4858  41.056  23.999  12.400
32544W        W 4859  25.899   4.328  11.561
32545W        W 4860  28.352  14.859  12.887
32546W        W 4861  44.998   6.522  10.755
32547W        W 4862  25.260  34.560  14.620
32548W        W 4863  20.027  18.131  10.656
32549W        W 4864  42.171  42.250   1.854
32550W        W 4865   7.792  28.483  12.941
32551W        W 4866  23.007  31.666  14.254
32552W        W 4867  22.018   4.790   4.666
32553W        W 4868   8.150   0.946  14.403
32554W        W 4869  10.837  40.071   3.382
32555W        W 4870   6.833  32.849   4.409
32556W        W 4871  10.815  38.536  13.869
32557W        W 4872  44.307   5.292  14.285
32558W        W 4873   3.042  27.053  12.960
32559W        W 4874  13.686  25.528   2.270
32560W        W 4875  37.353  41.467  14.068
32561W        W 4876  33.079  43.300  13.840
32562W        W 4877  32.877  29.378  14.948
32563W        W 4878  21.734  29.619  11.543
32564W        W 4879  10.237  24.596   3.352
32565W        W 4880   0.532  24.329  10.296
32566W        W 4881  10.734  24.617   0.023
32567W        W 4882  31.084  16.267   1.336
32568W        W 4883  16.293  42.105   4.916
32569W        W 4884   4.218   7.313  11.336
32570W        W 4885   1.302   8.264   0.932
32571W        W 4886  29.575  39.580   3.287
32572W        W 4887  15.571  33.531  14.883
32573W        W 4888  39.139   0.890  13.652
32574W        W 4889  37.415   6.710   4.827
32575W        W 4890  17.954  31.626   0.885
32576W        W 4891   8.332  38.580   2.282
32577W        W 4892   4.703  21.249  11.885
32578W        W 4893  16.325  30.395  14.838
32579W        W 4894   5.685  17.128  11.863
32580W        W 4895  33.237  41.185   4.988
32581W        W 4896   2.262  23.537   9.858
32582W        W 4897  24.832  42.998   1.644
32583W        W 4898  27.575  23.189  12.092
32584W        W 4899  18.031  43.541  11.986
32585W        W 4900  20.857  20.590  14.419
32586W        W 4901   6.658  37.279  12.934
32587W        W 4902  41.999   7.313   1.270
32588W        W 4903  27.505  14.341  10.810
32589W        W 4904  24.171   9.142  11.659
32590W        W 4905  27.564  23.969   2.183
32591W        W 4906  12.706  34.181  11.176
32592W        W 4907  39.608  18.621  10.531
32593W        W 4908   4.280  11.086  13.282
32594W        W 4909  11.171  27.077  10.639
32595W        W 4910  11.020  11.686  14.921
32596W        W 4911  39.303  24.675  13.993
32597W        W 4912  31.008  44.037  11.852
32598W        W 4913   7.739  40.700  12.624
32599W        W 4914   9.366  20.615  13.411
32600W        W 4915  44.870   6.115   0.840
32601W        W 4916  38.026  29.042  13.922
32602W        W 4917  33.778  11.200   2.216
32603W        W 4918   3.836  27.832   3.816
32604W        W 4919   6.423  23.959  11.500
32605W        W 4920  11.392   3.131   2.255
32606W        W 4921  11.277   9.582  11.126
32607W        W 4922   5.966  33.951  13.972
32608W        W 4923  39.301  27.045  13.116
32609W        W 4924   8.662  27.097   2.192
32610W        W 4925  36.578  28.051  14.930
32611W        W 4926  29.442  20.044   0.438
32612W        W 4927  43.004   7.876  12.340
32613W        W 4928  42.669   8.387  14.982
32614W        W 4929  20.821  10.384   4.304
32615W        W 4930  36.546  13.567  14.430
32616W        W 4931  28.710   9.286  10.709
32617W        W 4932  36.395  17.603   3.733
32618W        W 4933  19.248   2.381   1.333
32619W        W 4934  16.179  28.549   2.386
32620W        W 4935  30.562  29.420  10.693
32621W        W 4936  39.550  18.395  13.891
32622W        W 4937  12.422  36.000   4.694
32623W        W 4938  16.211  43.975  13.019
32624W        W 4939   0.916  40.342  12.129
32625W        W 4940   3.010   9.195   1.321
32626W        W 4941  33.429  24.910  14.420
32627W        W 4942  42.464   4.346   4.199
32628W        W 4943  33.425  18.845   3.239
32629W        W 4944   8.614  38.381   1.900
32630W        W 4945  21.815  43.118   0.346
32631W        W 4946  10.099  16.250   3.086
32632W        W 4947  27.372   4.768  11.579
32633W        W 4948  30.840  24.458  12.460
32634W        W 4949  36.373  43.495  12.936
32635W        W 4950   1.677  25.818  13.907
32636W        W 4951  22.960  33.478   2.743
32637W        W 4952  17.690   2.718   3.767
32638W        W 4953  37.921   2.457   2.983
32639W        W 4954  13.548   7.755   4.798
32640W        W 4955   3.967   1.973   2.221
32641W        W 4956  29.322  39.235  10.515
32642W        W 4957  21.686  36.525   4.621
32643W        W 4958  15.658  25.889  14.338
32644W        W 4959  24.461  15.738   1.771
32645W        W 4960  36.866   3.517   5.075
32646W        W 4961   2.710  15.029   3.239
32647W        W 4962  22.041  35.391  11.914
32648W        W 4963  33.689  41.672   4.780
32649W        W 4964  16.127  38.770  14.333
32650W        W 4965  44.256   8.555  14.660
32651W        W 4966  25.165  18.838  14.285
32652W        W 4967  35.020  17.171  14.059
32653W        W 4968  16.589  32.945   4.378
32654W        W 4969  11.909  11.475  12.924
32655W        W 4970  19.630   1.214  12.944
32656W        W 4971  41.637  30.325  11.693
32657W        W 4972   1.853  17.795   3.261
32658W        W 4973   5.032  12.219  14.703
32659W        W 4974   1.055   1.174  12.937
32660W        W 4975  26.142  35.337   0.329
32661W        W 4976  19.981  43.742  13.523
32662W        W 4977  34.584  37.621  11.019
32663W        W 4978  31.871  40.885  12.366
32664W        W 4979   6.964  27.152  13.121
32665W        W 4980  25.210  21.573  10.561
32666W        W 4981  36.013  17.198   0.369
32667W        W 4982  28.429  14.239   4.654
32668W        W 4983  32.424  24.007   2.150
32669W        W 4984  13.556  15.083  14.171
32670W        W 4985   6.796  38.314  13.988
32671W        W 4986  27.538  19.512   1.351
32672W        W 4987  22.944  24.606  12.857
32673W        W 4988  36.893  10.680  13.877
32674W        W 4989  31.680  34.470  13.520
32675W        W 4990   5.690  22.614  10.519
32676W        W 4991  30.381  43.403   3.781
32677W        W 4992  29.160  20.141   0.874
32678W        W 4993  17.128  36.320  12.440
32679W        W 4994   6.573  19.550  12.945
32680W        W 4995   9.875  38.983   0.446
32681W        W 4996  37.686  22.425  11.594
32682W        W 4997   0.706   3.168  12.003
32683W        W 4998  25.647  13.617  11.608
32684W        W 4999  36.689  38.525   2.241
32685W        W 5000  21.033  41.418  13.580
32686W        W 5001   1.027  24.161  13.361
32687W        W 5002  35.265  21.830  10.636
32688W        W 5003  44.920  16.893  12.319
32689W        W 5004   3.359   9.894  11.548
32690W        W 5005  21.462   2.705   2.167
32691W        W 5006  18.149  31.440  13.002
32692W        W 5007  30.594  17.624  14.768
32693W        W 5008  38.520  27.671   0.956
32694W        W 5009  39.995  42.595   4.110
32695W        W 5010  23.895  34.305   2.187
32696W        W 5011  39.605  32.294   3.189
32697W        W 5012  26.274  31.583  10.111
32698W        W 5013  13.421  26.652   1.479
32699W        W 5014  37.345  44.204  13.934
32700W        W 5015   2.176  25.996   1.268
32701W        W 5016  38.350  41.036   4.266
32702W        W 5017  14.184   5.388   1.305
32703W        W 5018  11.434  12.799  12.404
32704W        W 5019  27.684  39.628  10.648
32705W        W 5020  31.726  32.652  14.015
32706W        W 5021  38.072  15.053   2.170
32707W        W 5022  33.065  32.899  14.765
32708W        W 5023  21.899  22.517  11.518
32709W        W 5024  35.518  10.028   4.009
32710W        W 5025   5.324  28.900  11.904
32711W        W 5026  14.930  25.699  13.760
32712W        W 5027   0.400  44.376  14.933
32713W        W 5028  41.808  19.670   4.525
32714W        W 5029  37.125  25.930  12.344
32715W        W 5030  41.593  36.554  13.883
32716W        W 5031  35.505  39.053  11.586
32717W        W 5032   2.651   9.279   2.290
32718W        W 5033  41.040  16.136  14.234
32719W        W 5034   0.366  34.579   1.329
32720W        W 5035  32.498   5.879  10.194
32721W        W 5036  44.792   5.473  14.413
32722W        W 5037   0.923  28.463   0.761
32723W        W 5038   9.606  41.205  11.429
32724W        W 5039   6.927   4.983  12.461
32725W        W 5040  26.579   5.359  10.601
32726W        W 5041  38.849  37.014  12.872
32727W        W 5042  17.749  37.410  11.513
32728W        W 5043   5.870   8.333   3.828
32729W        W 5044   1.458   2.966   4.357
32730W        W 5045  43.407  28.406  11.552
32731W        W 5046  33.386  30.135  14.818
32732W        W 5047  39.468  29.416  11.291
32733W        W 5048  35.941   5.906   4.410
32734W        W 5049  32.924  30.649   2.713
32735W        W 5050   4.533   6.825   9.866
32736W        W 5051   6.387  16.113   3.656
32737W        W 5052   2.702  31.198  10.701
32738W        W 5053  34.831  16.267   3.639
32739W        W 5054  42.951   5.425   3.610
32740W        W 5055   6.323  22.040  12.067
32741W        W 5056   2.314  30.568   2.079
32742W        W 5057  19.623  12.877   1.889
32743W        W 5058  12.389  44.560   0.874
32744W        W 5059  13.591  19.249   2.399
32745W        W 5060  16.196   1.689   0.826
32746W        W 5061  40.428   7.964  11.683
32747W        W 5062  31.459  23.539   1.198
32748W        W 5063  42.366  25.688  12.542
32749W        W 5064  44.269   4.170  12.538
32750W        W 5065  43.304   0.062   2.886
32751W        W 5066  15.067   7.465   3.968
32752W        W 5067  28.013  32.883  11.910
32753W        W 5068   0.211  21.621  10.709
32754W        W 5069  13.401  16.618  11.788
32755W        W 5070   7.066  37.367   2.680
32756W        W 5071  20.224  27.790   3.056
32757W        W 5072  40.758  36.098  13.919
32758W        W 5073  11.262  43.405  13.448
32759W        W 5074  27.975   5.444   4.053
32760W        W 5075  28.571  25.561  11.562
32761W        W 5076  36.123   9.253  13.058
32762W        W 5077  39.278  18.175  11.222
32763W        W 5078  15.553   8.878  11.242
32764W        W 5079  39.676   7.651   3.333
32765W        W 5080   4.838   5.998   0.883
32766W        W 5081  40.446  22.236  14.289
32767W        W 5082  14.593  10.185   0.839
32768W        W 5083  40.150  10.960  13.371
32769W        W 5084  14.100  16.360   1.357
32770W        W 5085  17.660  33.391   2.919
32771W        W 5086   1.304  18.196  13.478
32772W        W 5087  20.553  18.629   1.759
32773W        W 5088  15.877  16.725  13.805
32774W        W 5089  17.671  42.996  13.507
32775W        W 5090   7.685  28.953  13.160
32776W        W 5091  35.427  29.024   0.357
32777W        W 5092  35.001  36.679  14.297
32778W        W 5093  15.965  27.953   3.124
32779W        W 5094  15.660   1.929  13.897
32780W        W 5095   8.815  14.710   0.648
32781W        W 5096  28.119   9.035  14.053
32782W        W 5097   6.365  12.429  10.923
32783W        W 5098  27.707  36.457   2.601
32784W        W 5099  25.131  17.472   1.387
32785W        W 5100  14.759  26.174  11.193
32786W        W 5101  34.330  43.560  10.525
32787W        W 5102   8.573  24.443   1.701
32788W        W 5103  21.024  22.122  10.561
32789W        W 5104  27.202  24.127   2.530
32790W        W 5105  19.601  18.668   2.849
32791W        W 5106  23.176  33.160   4.129
32792W        W 5107  39.785   8.672   2.751
32793W        W 5108   4.146  40.363  12.350
32794W        W 5109   4.887   6.738   1.390
32795W        W 5110  24.490  19.663  11.017
32796W        W 5111   8.174  18.585  13.104
32797W        W 5112  41.080  42.088  13.399
32798W        W 5113  17.776  18.815  11.881
32799W        W 5114   2.263  19.543   4.201
32800W        W 5115  44.069  43.513  10.649
32801W        W 5116  26.719   9.710   4.495
32802W        W 5117  27.518  30.605   5.170
32803W        W 5118  11.936  17.570  10.397
32804W        W 5119  25.734  33.399  14.298
32805W        W 5120  31.654  32.970   1.419
32806W        W 5121   8.405   7.250   2.753
32807W        W 5122  10.892  37.020   0.653
32808W        W 5123  41.334  28.124  11.460
32809W        W 5124  42.796  43.937   2.152
32810W        W 5125   0.994   8.357  12.377
32811W        W 5126  31.212   8.272  12.425
32812W        W 5127  25.506   9.858  11.943
32813W        W 5128  23.106  22.686   0.418
32814W        W 5129  38.561   0.539   3.479
32815W        W 5130  17.184  41.462   2.779
32816W        W 5131  36.751  29.089   3.224
32817W        W 5132   9.682  11.199  13.155
32818W        W 5133   8.847   1.779  12.469
32819W        W 5134  44.840  44.063  12.047
32820W        W 5135  23.521  26.437  12.939
32821W        W 5136  41.051  16.308  13.387
32822W        W 5137   6.768  42.872   3.586
32823W        W 5138  37.650  10.235  12.075
32824W        W 5139  26.591  35.007   2.809
32825W        W 5140   5.945   9.903   3.519
32826W        W 5141  18.201  38.982   4.579
32827W        W 5142   5.022  23.605   1.351
32828W        W 5143  12.572   8.680  11.124
32829W        W 5144  25.082  14.344   3.859
32830W        W 5145   2.689  17.072  14.754
32831W        W 5146  37.673  41.501   2.660
32832W        W 5147  28.604  27.992  12.074
32833W        W 5148  39.754  10.856   4.448
32834W        W 5149  43.490  18.025   4.916
32835W        W 5150  11.949   9.392  11.890
32836W        W 5151  42.518   3.182  11.986
32837W        W 5152  19.761  40.301  13.016
32838W        W 5153  34.586  21.067   4.535
32839W        W 5154  34.515  21.459  11.233
32840W        W 5155   3.162  33.680  11.130
32841W        W 5156  33.046  43.874   3.690
32842W        W 5157  16.791  24.108   3.909
32843W        W 5158  40.820  34.932   1.343
32844W        W 5159   2.210  26.424  14.031
32845W        W 5160   8.423   2.692   0.428
32846W        W 5161   7.710  14.904  12.164
32847W        W 5162  43.389  39.835   1.751
32848W        W 5163  30.975  38.041  12.045
32849W        W 5164  10.150  13.945  13.410
32850W        W 5165  24.601  35.540   3.298
32851W        W 5166  39.035  15.146  12.922
32852W        W 5167  30.441  16.247   1.801
32853W        W 5168  14.868   9.295   4.590
32854W        W 5169  41.633  25.182   3.748
32855W        W 5170  25.617   9.036  11.546
32856W        W 5171  30.165  31.932  12.307
32857W        W 5172  13.213  26.241  13.383
32858W        W 5173  19.271   7.151   4.462
32859W        W 5174   0.372  23.140   3.559
32860W        W 5175   2.019  29.580  10.761
32861W        W 5176  29.621  21.873   4.302
32862W        W 5177  38.834  15.686   1.925
32863W        W 5178  17.332  19.735  11.229
32864W        W 5179  22.237  29.074  12.958
32865W        W 5180   8.832  20.285   0.514
32866W        W 5181  10.042  22.483   3.758
32867W        W 5182   8.796  29.131  11.637
32868W        W 5183  43.993  35.925   0.535
32869W        W 5184   9.443  13.119   4.933
32870W        W 5185  29.905  32.144   4.097
32871W        W 5186   8.069   9.719   0.465
32872W        W 5187   7.222   7.971   3.205
32873W        W 5188  26.055  36.695  11.996
32874W        W 5189  29.814   0.327  14.055
32875W        W 5190  25.035  38.050  11.625
32876W        W 5191  37.258  14.001   2.604
32877W        W 5192   9.717  12.599  13.512
32878W        W 5193   5.495   2.757  14.908
32879W        W 5194  11.686  17.856  11.605
32880W        W 5195  34.718  20.144   4.201
32881W        W 5196  42.877  29.367   1.176
32882W        W 5197  38.989  26.736  10.666
32883W        W 5198   2.305  38.982  13.376
32884W        W 5199   0.679  40.913   4.146
32885W        W 5200  35.859  17.319  14.332
32886W        W 5201  13.061  41.085   1.979
32887W        W 5202  30.429   1.292  10.699
32888W        W 5203   3.703  19.457   1.267
32889W        W 5204  14.213  43.126   2.203
32890W        W 5205  39.918  23.182  13.419
32891W        W 5206  42.249   2.264  12.180
32892W        W 5207   2.901  12.616  11.334
32893W        W 5208  43.039  41.914  13.657
32894W        W 5209  35.919  20.654  10.727
32895W        W 5210  40.358  20.784   4.757
32896W        W 5211  12.828  29.981  10.641
32897W        W 5212   5.274   2.913   3.416
32898W        W 5213  35.799  14.676   0.957
32899W        W 5214  41.862   2.510  13.036
32900W        W 5215  30.170   9.265   0.829
32901W        W 5216   2.856  43.275   4.550
32902W        W 5217   0.412   9.178  13.857
32903W        W 5218  31.013  14.076   0.499
32904W        W 5219  24.639   0.898   2.149
32905W        W 5220  33.546   1.170   1.351
32906W        W 5221  25.969  35.413  13.076
32907W        W 5222   5.425  31.379  14.829
32908W        W 5223   8.143  16.631   0.758
32909W        W 5224  38.970  26.285   1.748
32910W        W 5225  34.920  24.079  11.437
32911W        W 5226  44.569  40.010   3.226
32912W        W 5227  28.508  32.890  14.467
32913W        W 5228  20.172  10.589  13.264
32914W        W 5229   7.960   1.336   4.626
32915W        W 5230  15.161  42.806  14.782
32916W        W 5231   9.627   8.635   1.461
32917W        W 5232  31.942  42.820   1.736
32918W        W 5233   7.564  37.880  13.252
32919W        W 5234  33.887  27.828   9.888
32920W        W 5235  20.031  36.110  10.165
32921W        W 5236  14.054  43.328  11.158
32922W        W 5237  44.538   1.367   0.755
32923W        W 5238  18.083  23.100  12.920
32924W        W 5239  22.750  21.395   2.371
32925W        W 5240   3.350  25.688   4.155
32926W        W 5241   3.393  20.254   4.607
32927W        W 5242  44.314  11.759  12.423
32928W        W 5243  10.990   6.803  12.094
32929W        W 5244  23.427  20.218  12.843
32930W        W 5245  26.467  37.552   4.741
32931W        W 5246  31.549  24.485  13.526
32932W        W 5247  33.948   9.657  14.353
32933W        W 5248  14.604   1.592  10.134
32934W        W 5249  34.156  19.707   2.310
32935W        W 5250  29.652  15.408  13.413
32936W        W 5251  44.529  32.095   3.270
32937W        W 5252  20.742  26.655  10.663
32938W        W 5253  36.256  21.551   3.100
32939W        W 5254  29.740  34.019  10.724
32940W        W 5255  32.779  10.292  12.557
32941W        W 5256  44.791  36.346  11.258
32942W        W 5257   3.473  40.025   4.163
32943W        W 5258   6.138  16.021   3.224
32944W        W 5259   2.705  10.132   2.793
32945W        W 5260  39.838  18.067  14.581
32946W        W 5261  30.347  20.737  12.587
32947W        W 5262   7.321  30.542  13.415
32948W        W 5263   5.931   4.467  11.624
32949W        W 5264  12.723  44.520   2.656
32950W        W 5265  36.697   0.336  10.771
32951W        W 5266  25.533  44.964  11.998
32952W        W 5267  17.076  43.198   1.164
32953W        W 5268  15.634  24.017  13.569
32954W        W 5269   7.340  14.024   3.654
32955W        W 5270  38.102  25.996  10.532
32956W        W 5271   4.851  36.782  14.852
32957W        W 5272  29.614  38.642   1.390
32958W        W 5273  25.210  27.156  13.341
32959W        W 5274   4.029  35.968   9.832
32960W        W 5275  29.580   5.988  14.427
32961W        W 5276  28.759  17.995  13.057
32962W        W 5277  35.120  25.703  12.384
32963W        W 5278  13.651  29.408   3.807
32964W        W 5279  39.584  43.829   4.625
32965W        W 5280   5.816  35.907   2.857
32966W        W 5281  28.154  18.299  11.851
32967W        W 5282  28.109   8.104   1.382
32968W        W 5283  13.219   3.299   3.499
32969W        W 5284  28.930   8.150  10.654
32970W        W 5285   3.699   9.239  13.558
32971W        W 5286  17.627  24.179  12.604
32972W        W 5287  26.491  35.819  13.465
32973W        W 5288  27.125  23.493  13.798
32974W        W 5289  26.670   7.679  14.012
32975W        W 5290  39.958  12.352  14.856
32976W        W 5291  42.525   8.124   4.760
32977W        W 5292  30.627  34.601  12.923
32978W        W 5293  35.307  33.091   2.191
32979W        W 5294  23.000  24.630   4.495
32980W        W 5295  14.520  20.584   4.303
32981W        W 5296  23.727  14.684   2.867
32982W        W 5297  22.321  38.236   2.715
32983W        W 5298  32.009   2.960   0.529
32984W        W 5299  19.569   0.029  13.384
32985W        W 5300  23.147   2.466   0.018
32986W        W 5301  22.052  26.632  14.448
32987W        W 5302   0.157  18.716   0.717
32988W        W 5303  11.100  42.253   4.306
32989W        W 5304  12.736  43.279   0.252
32990W        W 5305  37.994  16.556   3.763
32991W        W 5306  28.953  37.559  13.699
32992W        W 5307  33.978  31.865   1.836
32993W        W 5308   0.969  29.998  13.395
32994W        W 5309  38.009  27.915   4.745
32995W        W 5310  15.148  12.979  14.766
32996W        W 5311   3.500  28.129  11.383
32997W        W 5312  24.743  23.859  13.961
32998W        W 5313   2.742  11.714  12.907
32999W        W 5314   5.470  42.459   3.772
33000W        W 5315  24.057  12.853   1.872
33001W        W 5316   2.184  18.461  11.989
33002W        W 5317  14.683  32.625   2.870
33003W        W 5318  19.154  41.978   3.894
33004W        W 5319   6.193  40.542   3.236
33005W        W 5320   5.854  27.056  12.934
33006W        W 5321  23.688  12.127   2.663
33007W        W 5322   3.182  24.544  11.509
33008W        W 5323  38.523  37.571   3.221
33009W        W 5324  24.426  22.317   9.769
33010W        W 5325   3.467  31.181  12.451
33011W        W 5326   4.255   9.629   0.966
33012W        W 5327  43.804  44.433   1.387
33013W        W 5328   1.938  37.404  12.373
33014W        W 5329  30.572  30.713   1.737
33015W        W 5330  20.979   7.308  14.630
33016W        W 5331  16.175  19.595  13.361
33017W        W 5332  33.887   2.753   3.102
33018W        W 5333  11.727  26.706  14.439
33019W        W 5334  15.992  39.289  10.086
33020W        W 5335  42.516  42.923   3.615
33021W        W 5336  34.893  31.649   2.345
33022W        W 5337   4.611  31.085   1.426
33023W        W 5338  33.058   8.928  13.856
33024W        W 5339  17.314  15.166  13.978
33025W        W 5340  33.398   2.489   2.273
33026W        W 5341  33.033   6.388  11.241
33027W        W 5342  24.152   0.725   3.389
33028W        W 5343  37.990  10.239  12.608
33029W        W 5344  44.114  27.463   3.639
33030W        W 5345  28.615  27.535  13.481
33031W        W 5346  44.438  40.725   4.195
33032W        W 5347  34.529  21.893  11.528
33033W        W 5348  24.250  21.296   3.811
33034W        W 5349  28.491  33.267  12.514
33035W        W 5350  40.427  27.170   3.569
33036W        W 5351   2.717  43.985  10.878
33037W        W 5352  35.930  16.113  13.737
33038W        W 5353  33.096   7.258  10.640
33039W        W 5354  29.631  20.578   0.178
33040W        W 5355  37.071  38.858   2.328
33041W        W 5356   3.175  11.672   0.116
33042W        W 5357  36.059  11.708   3.359
33043W        W 5358  13.694  19.285  14.365
33044W        W 5359   9.766   2.732   4.026
33045W        W 5360  19.834  39.171  10.158
33046W        W 5361  39.254   5.423   3.617
33047W        W 5362  30.560  26.736  14.839
33048W        W 5363  20.511  15.228  11.372
33049W        W 5364   8.149  20.736  14.047
33050W        W 5365  42.448  29.449   2.023
33051W        W 5366  21.911  39.825  12.559
33052W        W 5367  34.652  33.346   0.260
33053W        W 5368  12.633  34.385  12.517
33054W        W 5369   5.504  26.180   3.124
33055W        W 5370  30.145  42.527  14.551
33056W        W 5371  28.076  23.063  12.147
33057W        W 5372  35.137  17.005  10.858
33058W        W 5373  35.608   3.414   4.115
33059W        W 5374  35.510   6.384   1.173
33060W        W 5375  21.689  37.065   4.679
33061W        W 5376   7.171  27.265  14.015
33062W        W 5377  33.464  36.529  10.899
33063W        W 5378  30.105  18.637   3.693
33064W        W 5379  13.875  26.023   2.351
33065W        W 5380  34.349  36.041  12.922
33066W        W 5381  11.112  10.012  12.527
33067W        W 5382  35.858  24.682  12.467
33068W        W 5383  31.007   6.678  12.405
33069W        W 5384   2.491   4.148  11.839
33070W        W 5385  14.771  19.490  13.578
33071W        W 5386  29.658  15.047   0.429
33072W        W 5387  16.314  28.198  10.187
33073W        W 5388   5.835  44.929   2.607
33074W        W 5389  28.157  11.545   4.110
33075W        W 5390   7.356  19.851  12.525
33076W        W 5391  17.572  34.920   4.134
33077W        W 5392  32.870  25.951  13.440
33078W        W 5393  15.124  12.727   2.858
33079W        W 5394  25.122  20.965   4.274
33080W        W 5395  30.894  12.142  14.475
33081W        W 5396  17.687  23.420   3.156
33082W        W 5397   4.261  35.123   2.221
33083W        W 5398   8.496  10.682  11.644
33084W        W 5399  26.409  18.747   2.013
33085W        W 5400  29.956  33.489  13.932
33086W        W 5401  22.297   6.415   4.778
33087W        W 5402   2.687   3.841  13.976
33088W        W 5403  39.601   6.926  11.686
33089W        W 5404  18.321  41.350  11.536
33090W        W 5405  13.107  19.118  10.379
33091W        W 5406  31.588   9.198   4.124
33092W        W 5407  39.391   9.685  14.729
33093W        W 5408   2.703  20.053   1.871
33094W        W 5409  14.622   4.683   4.796
33095W        W 5410   5.232  39.468  10.478
33096W        W 5411   0.234  35.484   2.196
33097W        W 5412  11.707   9.101   1.852
33098W        W 5413   3.329   3.859  14.795
33099W        W 5414  41.523  19.292  13.597
33100W        W 5415  14.077  12.314  11.054
33101W        W 5416   8.973   1.470  14.223
33102W        W 5417  35.374  37.041  14.492
33103W        W 5418  40.063  11.759   1.700
33104W        W 5419  26.520  40.588   1.758
33105W        W 5420   2.316   1.894   4.557
33106W        W 5421  33.831  24.691  14.134
33107W        W 5422  31.610  32.683   2.590
33108W        W 5423  29.858   4.976  11.122
33109W        W 5424  31.334   9.669   3.788
33110W        W 5425  16.697  19.272   1.455
33111W        W 5426  12.487  28.854  14.951
33112W        W 5427  10.435  36.937  12.383
33113W        W 5428  22.969   9.433  12.010
33114W        W 5429   6.259  25.957  13.413
33115W        W 5430  25.713  40.015   0.313
33116W        W 5431  44.978  44.982   1.822
33117W        W 5432  13.592  10.487   4.060
33118W        W 5433   6.196  25.900  11.620
33119W        W 5434  18.307  32.888  11.138
33120W        W 5435  40.026  10.427   2.260
33121W        W 5436  12.719  30.071  11.618
33122W        W 5437  36.113  23.218  12.426
33123W        W 5438  16.353  42.426   0.441
33124W        W 5439  35.484  23.102  11.157
33125W        W 5440  21.681  12.336   0.729
33126W        W 5441  32.622   7.638  13.774
33127W        W 5442  36.186   0.782   4.533
33128W        W 5443  26.139  24.571  13.945
33129W        W 5444  44.772  30.466  10.940
33130W        W 5445   9.708   9.337  13.498
33131W        W 5446  36.295  14.726   0.682
33132W        W 5447   3.191  12.236  14.415
33133W        W 5448  16.613  25.100   0.384
33134W        W 5449  32.875  44.221  12.538
33135W        W 5450   5.419  17.974   2.338
33136W        W 5451   5.016  39.106  11.137
33137W        W 5452  11.851   7.619  14.940
33138W        W 5453  41.899  38.886   3.666
33139W        W 5454  30.941  42.849  12.545
33140W        W 5455  43.364  35.856   1.935
33141W        W 5456  23.913  18.481  11.777
33142W        W 5457  32.094  41.900   1.380
33143W        W 5458   7.098   5.943  12.524
33144W        W 5459  23.208  14.814   4.626
33145W        W 5460  35.325  31.798  11.127
33146W        W 5461  25.944  13.108  13.403
33147W        W 5462  42.819  30.853   2.811
33148W        W 5463  25.560  27.989   4.161
33149W        W 5464  17.075  42.062   5.224
33150W        W 5465  26.356  29.663   3.811
33151W        W 5466  14.597  10.860  14.012
33152W        W 5467   3.457  40.530   4.257
33153W        W 5468  41.420  36.300  14.826
33154W        W 5469  23.040  10.232  13.638
33155W        W 5470   1.904  12.144  12.990
33156W        W 5471  40.382  37.956   3.878
33157W        W 5472  38.800  43.787   3.153
33158W        W 5473  37.901   8.873   1.843
33159W        W 5474   8.194  21.191  11.505
33160W        W 5475  38.875  11.253  14.746
33161W        W 5476  33.513   9.711  14.009
33162W        W 5477   2.259  28.661   3.154
33163W        W 5478  31.754  28.582  11.389
33164W        W 5479  23.335  17.750   3.954
33165W        W 5480  22.591  20.295   3.352
33166W        W 5481  27.407  27.230   1.336
33167W        W 5482  43.425   9.581   3.085
33168W        W 5483   9.414   4.160  12.097
33169W        W 5484  43.289  18.517   4.109
33170W        W 5485  25.979  30.630   2.078
33171W        W 5486  35.090  10.263   1.680
33172W        W 5487  33.891  43.911   0.872
33173W        W 5488   8.431  28.977  10.830
33174W        W 5489  14.326  10.443   1.953
33175W        W 5490  10.175   3.432  12.849
33176W        W 5491  33.126  43.261   3.327
33177W        W 5492  24.555  12.300   4.508
33178W        W 5493  21.443  36.280  11.747
33179W        W 5494  24.435  27.007  13.566
33180W        W 5495   7.111   1.790  12.500
33181W        W 5496  31.337  20.710   0.811
33182W        W 5497  35.609   9.416   2.499
33183W        W 5498   5.956  15.153  14.033
33184W        W 5499  34.692  41.395  14.760
33185W        W 5500   8.852  27.734  11.574
33186W        W 5501  44.312  27.209  14.668
33187W        W 5502  17.344  38.402  12.598
33188W        W 5503  14.117   3.368  13.539
33189W        W 5504   5.862  36.233  14.527
33190W        W 5505   1.508  31.943  10.492
33191W        W 5506  40.053  22.099   0.412
33192W        W 5507  17.793  11.372   2.626
33193W        W 5508   1.712   4.280  14.764
33194W        W 5509   1.774   7.359  13.626
33195W        W 5510  11.779  26.206   0.813
33196W        W 5511  21.973  44.030  11.772
33197W        W 5512   8.531  39.079  14.994
33198W        W 5513  34.487  11.311   2.681
33199W        W 5514  27.873  44.920  12.457
33200W        W 5515  12.144   3.002   1.747
33201W        W 5516  35.634  37.041   4.821
33202W        W 5517   5.371   9.044  10.686
33203W        W 5518  35.417  24.457  13.757
33204W        W 5519  38.116  30.019  13.931
33205W        W 5520   0.435  18.997   0.381
33206W        W 5521  29.527  33.769  13.334
33207W        W 5522   3.774   7.217   0.783
33208W        W 5523  20.245  16.861  11.084
33209W        W 5524  40.358  43.880  13.395
33210W        W 5525  26.638  23.044  11.723
33211W        W 5526   5.826  18.634  14.413
33212W        W 5527  23.183  39.790   2.071
33213W        W 5528   2.984  13.807   4.921
33214W        W 5529  23.985  24.204  14.323
33215W        W 5530  19.051  33.349  14.744
33216W        W 5531  17.926   5.305   4.845
33217W        W 5532   7.642  37.972  14.438
33218W        W 5533   8.118  23.003  14.987
33219W        W 5534  14.273  12.808   2.866
33220W        W 5535   6.195  27.028  13.314
33221W        W 5536  17.155  13.781  11.460
33222W        W 5537  19.297  29.532  11.533
33223W        W 5538  26.634  33.312   4.568
33224W        W 5539  30.053  30.564   0.196
33225W        W 5540  25.165  43.413  13.308
33226W        W 5541  40.864   0.596  11.202
33227W        W 5542  37.110  26.074  14.909
33228W        W 5543  42.965  20.086  12.596
33229W        W 5544  17.026   0.799  14.768
33230W        W 5545  42.115  31.531  11.193
33231W        W 5546  13.078   2.972  10.627
33232W        W 5547  20.173  38.987   0.309
33233W        W 5548  42.792  28.523  14.418
33234W        W 5549  39.762  11.121  12.598
33235W        W 5550  42.926   9.205   4.184
33236W        W 5551   0.984  25.144   3.224
33237W        W 5552  34.636   9.466   4.146
33238W        W 5553  28.002  35.027   1.476
33239W        W 5554  16.019  44.749  11.112
33240W        W 5555  44.706  26.042  11.268
33241W        W 5556  42.050  20.092  14.418
33242W        W 5557  44.645  31.068  14.821
33243W        W 5558  31.502  33.131   2.365
33244W        W 5559  10.357  37.443   0.529
33245W        W 5560   4.678  15.650  11.637
33246W        W 5561  37.609  16.066   4.163
33247W        W 5562  11.922  32.572   1.011
33248W        W 5563  36.053  23.462   0.206
33249W        W 5564  32.839  32.519   3.366
33250W        W 5565  25.529  34.558  12.458
33251W        W 5566   3.753  10.709  14.652
33252W        W 5567  39.127   8.204  14.381
33253W        W 5568  35.084  22.039  12.933
33254W        W 5569  38.173   6.270   1.266
33255W        W 5570   5.302  32.926  11.165
33256W        W 5571  30.541   9.616   0.012
33257W        W 5572  26.740  44.489  14.809
33258W        W 5573  35.626  32.978   3.917
33259W        W 5574  31.216  11.154  14.426
33260W        W 5575  14.627  15.410  13.568
33261W        W 5576  33.954  15.665  10.172
33262W        W 5577  35.381  35.137   2.226
33263W        W 5578   8.701  21.526  13.433
33264W        W 5579  39.524  19.477  14.820
33265W        W 5580  33.499  33.001   1.835
33266W        W 5581  36.208  15.081   1.759
33267W        W 5582  36.846   0.914  11.994
33268W        W 5583  13.251  33.582   1.904
33269W        W 5584  24.713  40.611   3.730
33270W        W 5585  16.575  41.081  14.282
33271W        W 5586  19.302   6.235   2.618
33272W        W 5587  18.709   7.717   4.134
33273W        W 5588  18.742  21.286   1.528
33274W        W 5589  37.498  42.788   3.305
33275W        W 5590  41.816  24.195   4.193
33276W        W 5591   7.151  13.674  13.095
33277W        W 5592  36.542   7.096   0.487
33278W        W 5593  10.351   5.264  13.185
33279W        W 5594   5.423  24.408  12.466
33280W        W 5595  40.339  37.548   3.111
33281W        W 5596  27.071  26.673  10.691
33282W        W 5597  44.750  43.537   1.795
33283W        W 5598  17.740  21.562  12.488
33284W        W 5599  41.793  32.482  14.081
33285W        W 5600  44.766  33.279   2.235
33286W        W 5601   1.983  18.215   1.766
33287W        W 5602  25.029  39.404   0.992
33288W        W 5603   4.687  27.562   3.609
33289W        W 5604  15.054  34.014   2.281
33290W        W 5605  21.255   0.831   1.949
33291W        W 5606   9.239  44.224   3.516
33292W        W 5607   1.715  13.187  13.969
33293W        W 5608  17.233  33.728   4.974
33294W        W 5609  33.386  28.850  14.588
33295W        W 5610  33.877  43.343  14.485
33296W        W 5611  40.285   1.854   0.420
33297W        W 5612  38.088  10.814  10.897
33298W        W 5613  19.737  23.006  11.643
33299W        W 5614  28.886  42.202  13.461
33300W        W 5615  15.562  44.755  12.405
33301W        W 5616   1.701  44.820  14.433
33302W        W 5617  29.461   4.747   5.059
33303W        W 5618  20.734  17.638  13.100
33304W        W 5619  31.677  27.457   1.459
33305W        W 5620  22.498  11.184  11.418
33306W        W 5621   9.727  27.624  11.231
33307W        W 5622  43.166  21.513  12.936
33308W        W 5623  16.584   0.636  10.527
33309W        W 5624  10.661   1.973   2.067
33310W        W 5625   0.099  41.492   4.552
33311W        W 5626  26.243  10.742  12.506
33312W        W 5627  23.500  37.321   2.840
33313W        W 5628  15.629  38.526  10.744
33314W        W 5629  16.672  41.585  12.103
33315W        W 5630  16.640  28.093   1.964
33316W        W 5631  28.333   7.792   2.710
33317W        W 5632   2.998   1.933   2.407
33318W        W 5633  27.379  33.100  11.610
33319W        W 5634  34.159   4.824   1.312
33320W        W 5635   7.703   2.527   4.201
33321W        W 5636  28.417   6.834  10.560
33322W        W 5637   2.755   1.178  13.534
33323W        W 5638  40.014  36.830  12.944
33324W        W 5639  35.458  23.445  14.548
33325W        W 5640  20.346   6.668  11.200
33326W        W 5641  10.875   9.198  12.753
33327W        W 5642  20.687  17.116  12.027
33328W        W 5643   3.270  32.598   4.508
33329W        W 5644  12.624  27.026  12.383
33330W        W 5645  44.317  40.413  14.477
33331W        W 5646  10.312  44.476  10.656
33332W        W 5647  11.340  13.611   3.313
33333W        W 5648  32.907  23.589   0.461
33334W        W 5649  38.642  17.122  13.418
33335W        W 5650  22.317  20.665   1.624
33336W        W 5651  26.872  25.026  11.182
33337W        W 5652  40.788   8.760   4.920
33338W        W 5653  26.062  25.953  12.131
33339W        W 5654  42.469  32.202  12.357
33340W        W 5655   4.241   5.428   4.071
33341W        W 5656   0.910  11.317   5.191
33342W        W 5657  36.075  26.735  11.140
33343W        W 5658  26.672  36.896  12.612
33344W        W 5659  12.078  44.343  12.694
33345W        W 5660  11.249  12.650   4.354
33346W        W 5661  44.847   2.956   4.330
33347W        W 5662   2.531  13.099  14.391
33348W        W 5663  13.322  17.781  12.416
33349W        W 5664  31.991  23.765   2.324
33350W        W 5665   3.418  11.407   3.145
33351W        W 5666  30.601  18.159  11.607
33352W        W 5667  22.653  12.915   2.136
33353W        W 5668  24.496  34.083   3.165
33354W        W 5669  40.728  24.916  14.509
33355W        W 5670  28.506  38.612   2.345
33356W        W 5671   4.040  41.136  12.725
33357W        W 5672  40.935  20.286  14.866
33358W        W 5673  17.287  34.481  12.359
33359W        W 5674   4.484   8.224   1.728
33360W        W 5675  36.553  22.051   4.572
33361W        W 5676  40.056  14.550   5.005
33362W        W 5677  25.905  31.213   0.800
33363W        W 5678  27.080  29.534  12.863
33364W        W 5679  10.814  10.644   3.634
33365W        W 5680   3.850  23.495   3.686
33366W        W 5681   7.449  44.954   1.751
33367W        W 5682  31.416  21.650   3.702
33368W        W 5683  32.376   8.156  14.478
33369W        W 5684  19.970  42.982  10.607
33370W        W 5685  29.033  19.811  14.906
33371W        W 5686  16.189  30.591  13.236
33372W        W 5687  30.108   2.908  13.921
33373W        W 5688  25.379  12.362  12.064
33374W        W 5689  42.858   7.729   4.494
33375W        W 5690   8.740  36.061   0.816
33376W        W 5691  14.307  37.008  14.365
33377W        W 5692  30.296  42.819  13.249
33378W        W 5693  10.058  39.872  11.425
33379W        W 5694   4.826  35.105  10.750
33380W        W 5695  41.595  20.862   1.280
33381W        W 5696   3.781   7.125  11.503
33382W        W 5697  21.972  35.392  14.467
33383W        W 5698   1.761   7.188   4.630
33384W        W 5699  30.183  37.926  13.029
33385W        W 5700   2.939  13.372  13.585
33386W        W 5701  35.427  44.763   4.038
33387W        W 5702  42.436  11.724  10.828
33388W        W 5703  17.690  13.334  10.816
33389W        W 5704   2.139  40.285  10.768
33390W        W 5705  28.128  16.878  12.936
33391W        W 5706  43.323   6.191   0.746
33392W        W 5707  19.174   3.295   3.104
33393W        W 5708  28.192  17.573   4.176
33394W        W 5709  10.333  39.992  13.826
33395W        W 5710  31.835  29.972   0.791
33396W        W 5711  28.643  40.848  12.316
33397W        W 5712  22.280   8.172   1.585
33398W        W 5713  11.518  12.513  10.216
33399W        W 5714  41.277   2.238  14.814
33400W        W 5715  11.345   5.857  13.823
33401W        W 5716  34.461   5.874   3.249
33402W        W 5717  35.255  10.778  12.423
33403W        W 5718  15.724  35.612   1.589
33404W        W 5719  35.634   4.835   0.132
33405W        W 5720  29.082  27.867   3.904
33406W        W 5721  26.491   8.871  11.568
33407W        W 5722  43.006  19.680  10.032
33408W        W 5723  25.153  31.976  11.615
33409W        W 5724   9.707  14.635   1.323
33410W        W 5725  27.575   3.968  11.962
33411W        W 5726  32.162  13.540  13.933
33412W        W 5727  25.974  26.565  12.331
33413W        W 5728  29.119  27.254  13.409
33414W        W 5729  33.441  38.230  14.459
33415W        W 5730   1.299  35.087  13.287
33416W        W 5731  31.533  38.619  13.784
33417W        W 5732   3.671  20.221   2.740
33418W        W 5733   2.246  34.773   0.999
33419W        W 5734  11.833  30.147   1.019
33420W        W 5735   2.972  16.707   2.840
33421W        W 5736   4.626   2.734  10.401
33422W        W 5737  36.383   5.133   3.733
33423W        W 5738  20.638  18.539   0.410
33424W        W 5739  16.222   4.853  11.773
33425W        W 5740  12.577  11.999   4.009
33426W        W 5741  30.577  11.649  13.813
33427W        W 5742  28.144  22.572  13.906
33428W        W 5743  36.094   8.190   1.905
33429W        W 5744  17.052  26.005  11.178
33430W        W 5745  20.555  27.149   0.278
33431W        W 5746  12.377  13.655   1.759
33432W        W 5747  31.117  31.508  10.734
33433W        W 5748  20.207  33.444  14.290
33434W        W 5749  20.143   3.260   1.338
33435W        W 5750  24.122  14.600  12.479
33436W        W 5751  14.233  42.537  13.909
33437W        W 5752  43.858  30.436  14.742
33438W        W 5753  14.189  42.403  11.245
33439W        W 5754  32.019  14.555  12.417
33440W        W 5755  41.532  21.196   3.173
33441W        W 5756  38.317  35.249  11.898
33442W        W 5757  36.603  10.265  13.727
33443W        W 5758  42.622  24.216  13.376
33444W        W 5759   1.305   3.759  10.694
33445W        W 5760  23.965  22.161   5.033
33446W        W 5761   8.697  22.011   3.578
33447W        W 5762  17.812  43.943   4.808
33448W        W 5763  40.883   0.989   0.227
33449W        W 5764  30.150  30.427   1.604
33450W        W 5765  21.560  10.819   4.748
33451W        W 5766  12.273  28.596  11.147
33452W        W 5767  26.305  13.771  14.492
33453W        W 5768  32.108  13.199  12.932
33454W        W 5769  44.327  22.102  13.401
33455W        W 5770  22.257  17.753  10.641
33456W        W 5771  36.398   7.901   3.225
33457W        W 5772  33.506  31.859   1.511
33458W        W 5773  17.016  10.751  12.492
33459W        W 5774  18.724  33.078  10.672
33460W        W 5775  32.426  28.015   3.656
33461W        W 5776  19.698  41.402  12.932
33462W        W 5777  29.358  11.574   3.733
33463W        W 5778  27.899  29.960   2.424
33464W        W 5779  37.810   9.793   0.770
33465W        W 5780  29.908  40.965   3.742
33466W        W 5781  14.172  35.918   1.399
33467W        W 5782  33.502  24.454  12.026
33468W        W 5783  20.192   7.688  14.924
33469W        W 5784   7.846  24.796   1.090
33470W        W 5785  36.584  14.285   0.722
33471W        W 5786  22.487   3.019  12.714
33472W        W 5787  11.077  14.672  11.189
33473W        W 5788  18.104   2.517  11.960
33474W        W 5789  35.919  12.079   1.947
33475W        W 5790   6.390  20.603   0.880
33476W        W 5791   7.622  41.998   3.686
33477W        W 5792  36.775  23.514  11.632
33478W        W 5793  43.884  14.593  11.493
33479W        W 5794  28.068  44.405   4.632
33480W        W 5795  32.927   4.201   1.439
33481W        W 5796  20.832   6.424  14.227
33482W        W 5797   6.210  44.082   3.691
33483W        W 5798  13.146  29.620  10.286
33484W        W 5799   7.133   4.785  13.870
33485W        W 5800  39.939  31.188   1.880
33486W        W 5801   5.965  19.795   1.237
33487W        W 5802   0.596  25.202  11.191
33488W        W 5803   8.910  17.824  13.902
33489W        W 5804  15.856  36.816  11.498
33490W        W 5805   5.432  20.648   2.941
33491W        W 5806  25.103   1.430   3.701
33492W        W 5807  22.078  35.441   1.892
33493W        W 5808  34.200   0.064   4.833
33494W        W 5809   1.554  17.585   2.224
33495W        W 5810   9.826  44.439  14.729
33496W        W 5811  24.380   5.223   3.900
33497W        W 5812  44.811  17.896  12.414
33498W        W 5813   7.743  22.862  10.915
33499W        W 5814  27.106  11.822  13.829
33500W        W 5815  19.783  44.319   1.871
33501W        W 5816  24.119  26.233   4.346
33502W        W 5817  21.231  24.035   2.266
33503W        W 5818  19.563  40.274   2.748
33504W        W 5819   8.286  24.999  12.490
33505W        W 5820  27.569  23.243  11.232
33506W        W 5821  36.581   5.971   1.287
33507W        W 5822  17.001   9.150  14.105
33508W        W 5823  44.299   3.598  11.904
33509W        W 5824  17.763  38.478  10.638
33510W        W 5825  38.926  40.000  11.709
33511W        W 5826   0.429   8.311   2.695
33512W        W 5827  37.118   0.954  11.527
33513W        W 5828   2.711  29.701  14.044
33514W        W 5829  33.181  16.040   0.696
33515W        W 5830  12.819  18.223   1.669
33516W        W 5831   4.220  11.721   1.684
33517W        W 5832  44.615  23.227   2.131
33518W        W 5833  24.494  30.185   3.836
33519W        W 5834  31.534  41.818  12.515
33520W        W 5835  29.572  13.097   1.411
33521W        W 5836  10.346  16.104   4.599
33522W        W 5837  24.054  28.473  14.606
33523W        W 5838   9.061  32.869  14.424
33524W        W 5839  11.351   9.119   1.399
33525W        W 5840  31.447  40.293  14.676
33526W        W 5841  38.559  24.012  14.643
33527W        W 5842  19.774  13.775  14.788
33528W        W 5843  36.870  40.445  10.699
33529W        W 5844  26.462  12.620  13.015
33530W        W 5845  40.011  12.717   0.240
33531W        W 5846  33.010  17.961  10.689
33532W        W 5847  41.080  37.616   2.875
33533W        W 5848  13.423  33.157  14.280
33534W        W 5849  38.977  30.991  14.391
33535W        W 5850  43.610  43.768  12.519
33536W        W 5851  10.425  33.332  10.287
33537W        W 5852  37.911  21.230   5.010
33538W        W 5853  22.766  34.166   0.707
33539W        W 5854  16.046  27.895  13.818
33540W        W 5855  41.287  32.880   3.193
33541W        W 5856  31.444   7.305   4.316
33542W        W 5857  26.423  33.482   4.121
33543W        W 5858  26.588  18.394  14.902
33544W        W 5859  44.262   0.782  12.088
33545W        W 5860  13.794  10.740  10.979
33546W        W 5861  15.023  28.506  11.848
33547W        W 5862  28.925   1.391   1.686
33548W        W 5863   4.873   3.495   4.873
33549W        W 5864  29.177  40.541   3.292
33550W        W 5865   5.420  27.903  12.677
33551W        W 5866  20.244  40.226  10.510
33552W        W 5867   1.854  38.379  12.602
33553W        W 5868  28.925  26.904  11.154
33554W        W 5869   5.676  23.753   2.198
33555W        W 5870  27.768  12.468  14.396
33556W        W 5871  32.075   8.154  13.991
33557W        W 5872   7.297   7.231   2.203
33558W        W 5873  30.067  21.211   0.273
33559W        W 5874   2.702  38.576   2.916
33560W        W 5875  24.742  12.602  12.871
33561W        W 5876  19.276  29.248   2.651
33562W        W 5877   6.140  22.156  14.786
33563W        W 5878   6.593  13.264  11.155
33564W        W 5879   6.912  33.408  10.701
33565W        W 5880  39.765  14.296  11.090
33566W        W 5881  12.265  18.976  10.740
33567W        W 5882  39.629  37.051   1.320
33568W        W 5883  27.406  38.084  12.985
33569W        W 5884  10.631  33.426  12.580
33570W        W 5885  12.395  35.760   2.227
33571W        W 5886  25.853  33.008   3.883
33572W        W 5887   6.656  19.317   4.660
33573W        W 5888  34.476  44.441  13.780
33574W        W 5889  32.072   9.817   2.922
33575W        W 5890  40.965  25.052  14.938
33576W        W 5891  10.842  17.346  11.443
33577W        W 5892  21.112  21.846  14.386
33578W        W 5893  17.161   4.396   2.706
33579W        W 5894   6.842   5.186   4.558
33580W        W 5895  10.247  42.499   4.124
33581W        W 5896  11.749  34.521   1.352
33582W        W 5897  40.103  31.579   2.790
33583W        W 5898   1.509  14.740  11.552
33584W        W 5899  21.560  22.921  12.439
33585W        W 5900  33.387  40.013  13.370
33586W        W 5901  41.291  13.327  10.671
33587W        W 5902   9.991  32.212   1.323
33588W        W 5903  25.686   0.931  13.035
33589W        W 5904  39.104  44.387   4.824
33590W        W 5905  16.498  24.999   2.960
33591W        W 5906  28.514  27.215  11.406
33592W        W 5907  43.239  31.662  14.465
33593W        W 5908  19.766  15.087   1.883
33594W        W 5909  31.201  12.348  12.947
33595W        W 5910  36.470  41.213  10.290
33596W        W 5911  22.142  25.605  14.341
33597W        W 5912  21.494   7.650   2.735
33598W        W 5913  42.950  19.166  14.224
33599W        W 5914  34.189  28.452  12.020
33600W        W 5915  33.451  40.780  14.931
33601W        W 5916  35.608   4.966  10.992
33602W        W 5917   0.908   9.917   3.664
33603W        W 5918   3.487   7.514  14.123
33604W        W 5919  13.519   4.912   1.803
33605W        W 5920  21.710  24.041   0.422
33606W        W 5921  24.088   7.895   0.009
33607W        W 5922  33.507   8.880  14.423
33608W        W 5923  15.227   6.168  14.537
33609W        W 5924  22.273  43.829  12.464
33610W        W 5925  10.765  16.584   4.092
33611W        W 5926   6.736  22.545   4.099
33612W        W 5927   9.795  20.609  14.510
33613W        W 5928  31.012  15.563  14.508
33614W        W 5929  36.920  44.109  12.560
33615W        W 5930   4.251  31.630  13.921
33616W        W 5931  19.208   0.209   0.242
33617W        W 5932  42.950  22.541   4.109
33618W        W 5933  38.556  10.652  14.387
33619W        W 5934  27.794  27.629   0.429
33620W        W 5935  29.167  34.912   2.795
33621W        W 5936  29.945  15.900  14.914
33622W        W 5937  11.514   5.764  14.306
33623W        W 5938   5.351   6.167   3.704
33624W        W 5939  21.635   4.214  10.826
33625W        W 5940  36.443   5.993  12.450
33626W        W 5941  14.159  24.058   4.117
33627W        W 5942   6.054  17.410   0.573
33628W        W 5943   3.724   7.282  13.048
33629W        W 5944   2.349  17.835   3.068
33630W        W 5945  15.734  16.224   4.750
33631W        W 5946  24.253  10.360  12.915
33632W        W 5947  38.422  12.712  13.827
33633W        W 5948  22.313   3.976  14.089
33634W        W 5949  19.120  37.985  12.573
33635W        W 5950  17.987   9.720   3.269
33636W        W 5951  31.172  41.386  12.595
33637W        W 5952   3.128  12.801   4.017
33638W        W 5953   5.998  31.696   4.210
33639W        W 5954  16.592   4.362   3.621
33640W        W 5955  21.267  26.654  13.821
33641W        W 5956   5.959  28.106   0.848
33642W        W 5957  22.763   7.151  12.525
33643W        W 5958  22.228  24.170   0.504
33644W        W 5959  15.539  32.360   3.898
33645W        W 5960  28.949  27.650  13.849
33646W        W 5961  36.475  35.006  13.631
33647W        W 5962  33.067   8.906  10.483
33648W        W 5963  44.963  20.218   3.217
33649W        W 5964  20.780  30.430  10.846
33650W        W 5965   1.693  22.528  12.909
33651W        W 5966   0.812  27.748   3.696
33652W        W 5967  41.773  22.114  14.576
33653W        W 5968  44.057   2.692  11.058
33654W        W 5969  33.891  13.940  14.666
33655W        W 5970  27.230  17.584   4.600
33656W        W 5971  44.283  29.955   4.474
33657W        W 5972  27.588  29.718  13.595
33658W        W 5973  19.304  43.374  14.484
33659W        W 5974   5.072  38.090   3.857
33660W        W 5975  17.321   7.393   3.622
33661W        W 5976  17.792  35.328   3.264
33662W        W 5977  39.253  21.053   3.777
33663W        W 5978  38.066  17.832  13.034
33664W        W 5979   0.833   5.952  12.493
33665W        W 5980   6.151   3.705  13.618
33666W        W 5981  18.899  44.103   2.901
33667W        W 5982  24.942  44.428  14.323
33668W        W 5983  22.596  38.890   4.970
33669W        W 5984   0.441  29.976   0.698
33670W        W 5985   6.727   0.230   2.326
33671W        W 5986  11.673  30.074   4.454
33672W        W 5987  25.828  26.513   4.491
33673W        W 5988  24.899  31.469  14.068
33674W        W 5989  33.317  26.473   2.391
33675W        W 5990   6.457   1.705  10.693
33676W        W 5991  19.219  24.173   0.534
33677W        W 5992   7.724   5.227   1.691
33678W        W 5993  11.755  44.421  11.314
33679W        W 5994   9.520  11.711  11.087
33680W        W 5995  42.326  21.626  12.449
33681W        W 5996  38.687  27.528   0.012
33682W        W 5997  24.479   6.436   3.995
33683W        W 5998  20.193   0.352   1.183
33684W        W 5999  12.823  19.203   3.229
33685W        W 6000  15.603  16.274  12.446
33686W        W 6001  15.316  15.405   3.373
33687W        W 6002  17.686  16.328  11.971
33688W        W 6003  26.157  12.738   1.224
33689W        W 6004   2.510  17.277   4.165
33690W        W 6005  30.349  38.709   4.099
33691W        W 6006  32.134  36.218   4.359
33692W        W 6007  28.393  37.758   2.858
33693W        W 6008  25.876   1.047  12.531
33694W        W 6009  37.459   3.655   0.377
33695W        W 6010  11.683  44.570   2.123
33696W        W 6011  20.341  30.008   3.396
33697W        W 6012  44.818  12.590   4.639
33698W        W 6013  36.919  21.017   2.477
33699W        W 6014  28.619  38.298  11.166
33700W        W 6015  21.593  32.824  11.806
33701W        W 6016  40.793  31.499  10.522
33702W        W 6017   4.754  30.362   0.751
33703W        W 6018  26.117  28.168  14.391
33704W        W 6019  12.371   9.663  14.579
33705W        W 6020  14.170  19.991   1.391
33706W        W 6021  27.118  42.987   2.738
33707W        W 6022   2.733  28.443   3.103
33708W        W 6023  44.047  25.942  12.505
33709W        W 6024  44.426  27.189   1.152
33710W        W 6025   0.281   4.977  12.396
33711W        W 6026  17.041  44.965   4.299
33712W        W 6027  24.293  20.534  14.988
33713W        W 6028  32.318  11.716   3.739
33714W        W 6029  44.555  11.376   4.953
33715W        W 6030   7.262   5.643   1.366
33716W        W 6031   1.373  36.215  10.133
33717W        W 6032  18.869   5.386  13.256
33718W        W 6033  41.440  16.244   1.712
33719W        W 6034  44.327   5.832  11.275
33720W        W 6035  38.503  30.462   2.386
33721W        W 6036  24.072   6.393  10.940
33722W        W 6037  32.898  20.154   0.917
33723W        W 6038  13.347  35.612   2.683
33724W        W 6039   7.889  22.802  14.567
33725W        W 6040  12.391   8.821   2.767
33726W        W 6041  20.382  21.692   0.920
33727W        W 6042  12.799  17.005  10.025
33728W        W 6043   5.167  19.126  14.853
33729W        W 6044  11.891  26.067  11.838
33730W        W 6045  34.404   6.696   1.782
33731W        W 6046  36.643  17.408  14.657
33732W        W 6047  40.671   3.690  12.964
33733W        W 6048  12.733  27.027  13.317
33734W        W 6049   0.761   1.844  11.931
33735W        W 6050  24.257  14.086  12.531
33736W        W 6051  25.952  28.647  10.385
33737W        W 6052  16.794  11.401  12.797
33738W        W 6053  12.258  21.690  11.563
33739W        W 6054  33.397  27.585  13.841
33740W        W 6055  18.045  32.438  11.115
33741W        W 6056   6.803   4.659  14.707
33742W        W 6057  22.741  32.422  14.653
33743W        W 6058   2.096  39.853   4.551
33744W        W 6059   0.837  15.828  13.504
33745W        W 6060  28.536  31.933   3.342
33746W        W 6061  30.516  25.251  11.591
33747W        W 6062  30.370  28.336   0.485
33748W        W 6063  44.075   5.490  13.048
33749W        W 6064   0.449  26.699  14.458
33750W        W 6065  32.968  41.603  12.071
33751W        W 6066  15.635  44.514   0.073
33752W        W 6067  26.402  20.779   1.387
33753W        W 6068   9.921  39.978  14.307
33754W        W 6069   8.870  37.517   1.195
33755W        W 6070  41.919  25.567   2.398
33756W        W 6071  28.004  30.423   3.543
33757W        W 6072  44.085   4.274   1.729
33758W        W 6073  20.231  27.384   3.442
33759W        W 6074  43.501  27.328  13.921
33760W        W 6075   1.714  24.599  14.243
33761W        W 6076  34.947  38.550   1.296
33762W        W 6077  42.994  26.298  11.975
33763W        W 6078   5.886  34.928  14.454
33764W        W 6079  38.477  28.891  14.539
33765W        W 6080   1.503  21.586  12.442
33766W        W 6081  15.746  34.085  10.635
33767W        W 6082  44.428  10.241   2.843
33768W        W 6083   7.417  41.227   2.288
33769W        W 6084  27.165  31.917   4.648
33770W        W 6085  11.803  30.168  10.166
33771W        W 6086  10.583   7.223   2.354
33772W        W 6087  34.495  15.294   3.790
33773W        W 6088  41.982  35.435  14.800
33774W        W 6089  13.336  13.795  12.555
33775W        W 6090  32.444   0.726  11.025
33776W        W 6091  15.693   3.144   1.855
33777W        W 6092  29.646   2.172   0.875
33778W        W 6093   5.462  25.664   2.181
33779W        W 6094  16.227   4.629  12.644
33780W        W 6095   0.034  35.170  12.422
33781W        W 6096  12.878   7.287  12.497
33782W        W 6097  12.071  16.331   0.915
33783W        W 6098  30.600  23.590   1.794
33784W        W 6099  24.948  10.323  11.127
33785W        W 6100  33.918  28.468   4.839
33786W        W 6101  33.518  12.878  14.846
33787W        W 6102  28.343  14.984   5.067
33788W        W 6103  42.968  36.281   0.533
33789W        W 6104  26.511  26.243  11.845
33790W        W 6105  33.601  18.540   2.884
33791W        W 6106  31.482  43.813  14.437
33792W        W 6107  37.899   8.811  12.656
33793W        W 6108   4.674   5.039  10.814
33794W        W 6109  33.313  38.712  10.108
33795W        W 6110  22.623   0.915  14.423
33796W        W 6111  40.654  12.747   2.959
33797W        W 6112  11.666   2.710  10.960
33798W        W 6113   1.661  36.601  10.773
33799W        W 6114  31.789  14.703  14.846
33800W        W 6115  16.162  21.629   0.842
33801W        W 6116  18.993  34.889  14.843
33802W        W 6117  21.827   6.235  10.671
33803W        W 6118  30.185  29.227   2.209
33804W        W 6119  33.365  38.117   0.872
33805W        W 6120  11.042  37.799   3.060
33806W        W 6121  26.281  42.735  14.436
33807W        W 6122  39.788   5.234   0.737
33808W        W 6123  34.449  16.250  10.728
33809W        W 6124   1.321  36.954   1.423
33810W        W 6125   6.903  13.729  11.878
33811W        W 6126  25.630  38.313   0.680
33812W        W 6127   4.769  26.763  13.121
33813W        W 6128  40.110  43.251   0.167
33814W        W 6129   5.922  26.434   3.780
33815W        W 6130  21.315  43.572  13.601
33816W        W 6131  18.672   1.728   1.865
33817W        W 6132  10.780  44.439   0.572
33818W        W 6133  37.808  43.601   4.424
33819W        W 6134  34.818  27.035  12.022
33820W        W 6135  32.768  39.544   2.274
33821W        W 6136  26.617  27.053   3.114
33822W        W 6137  10.179  34.117  13.889
33823W        W 6138  20.144  17.113   2.388
33824W        W 6139  24.050  12.277   1.338
33825W        W 6140  19.042  34.696  13.361
33826W        W 6141  25.012  18.114   3.338
33827W        W 6142  32.473   1.503   2.857
33828W        W 6143  25.983   7.185  12.363
33829W        W 6144  28.096  43.853  13.478
33830W        W 6145  28.964   4.175  11.996
33831W        W 6146  42.574  27.527  12.044
33832W        W 6147  26.509  21.121   3.286
33833W        W 6148  35.572  25.000   2.229
33834W        W 6149  12.762  22.466   3.733
33835W        W 6150  12.885  32.511   4.194
33836W        W 6151   6.113   5.336   0.274
33837W        W 6152  30.401  29.510   3.293
33838W        W 6153  15.694  37.101  11.095
33839W        W 6154   8.842   1.247  10.467
33840W        W 6155  35.602  19.570   2.375
33841W        W 6156   4.683  30.753  11.194
33842W        W 6157  44.803   2.030  13.871
33843W        W 6158   0.679  14.352   2.260
33844W        W 6159  43.713  40.229   1.916
33845W        W 6160   4.490  43.691   3.122
33846W        W 6161   9.927  44.957   4.292
33847W        W 6162  27.392  16.178  11.209
33848W        W 6163  18.579  15.344   3.884
33849W        W 6164  37.117  24.051  13.393
33850W        W 6165  16.307  13.715   0.392
33851W        W 6166  20.740  42.867   3.328
33852W        W 6167  38.905  18.569  13.797
33853W        W 6168  44.894  34.466   1.521
33854W        W 6169   8.835  38.742  11.595
33855W        W 6170  34.852  23.262   3.677
33856W        W 6171  21.505  34.397   4.544
33857W        W 6172   4.865  10.116   2.321
33858W        W 6173  25.052  22.558   3.673
33859W        W 6174   9.394  38.853   1.827
33860W        W 6175  35.797  14.739   0.466
33861W        W 6176  29.023  33.351  12.472
33862W        W 6177  36.248   9.119  13.913
33863W        W 6178  19.333  16.201   1.837
33864W        W 6179   5.400  10.556   3.225
33865W        W 6180  35.323  44.402  12.535
33866W        W 6181  12.185  34.977  11.488
33867W        W 6182  44.818   1.713   1.174
33868W        W 6183  27.603   3.212   2.584
33869W        W 6184   5.757  43.059  12.553
33870W        W 6185   7.736  25.024  11.610
33871W        W 6186   9.597  13.438  14.906
33872W        W 6187  10.601  20.041   9.994
33873W        W 6188  11.287  17.390   1.334
33874W        W 6189  43.876  43.062  11.433
33875W        W 6190   3.837   3.519   4.220
33876W        W 6191  42.893  37.392   2.361
33877W        W 6192  31.216  43.781   2.874
33878W        W 6193  30.833  42.838  14.928
33879W        W 6194   4.764  19.108   2.418
33880W        W 6195  20.037  19.833   3.846
33881W        W 6196  42.821  19.590   3.827
33882W        W 6197  28.160  32.620   2.221
33883W        W 6198  40.746  40.300  14.897
33884W        W 6199  26.521   9.106   0.312
33885W        W 6200  15.855  32.869   2.189
33886W        W 6201  19.645  19.110  14.519
33887W        W 6202  37.529  27.274   3.314
33888W        W 6203  40.119  15.885  14.382
33889W        W 6204  10.369   5.010   3.302
33890W        W 6205  38.021  13.313  13.508
33891W        W 6206  22.318  38.967  12.906
33892W        W 6207  23.601  33.819  12.403
33893W        W 6208   8.229  13.195   3.879
33894W        W 6209  13.648  42.557   2.748
33895W        W 6210  33.727  19.656  10.256
33896W        W 6211  31.583  21.121  12.065
33897W        W 6212  20.164  42.772  10.175
33898W        W 6213   4.419   5.828   3.795
33899W        W 6214  25.101  23.257  10.696
33900W        W 6215  26.229  26.682  11.889
33901W        W 6216   8.761  19.688   4.118
33902W        W 6217  15.315   5.719   3.632
33903W        W 6218  27.150  43.484  10.531
33904W        W 6219  39.280   2.481  12.006
33905W        W 6220  22.103  11.127   0.396
33906W        W 6221  20.597  28.150  13.533
33907W        W 6222  20.619  27.526   4.276
33908W        W 6223  19.152  21.753  13.147
33909W        W 6224  37.992  12.407  12.437
33910W        W 6225  10.836  11.614  14.435
33911W        W 6226   3.221  36.563  10.748
33912W        W 6227  20.700   5.508   0.389
33913W        W 6228   9.377   9.990  13.006
33914W        W 6229  24.535  27.355  11.430
33915W        W 6230  25.533  24.653   4.300
33916W        W 6231  30.567  39.381  12.961
33917W        W 6232   5.288  17.297  13.406
33918W        W 6233  40.133  13.068   4.124
33919W        W 6234   3.826  22.031   1.538
33920W        W 6235  22.993  27.080   3.645
33921W        W 6236   4.886  36.014  11.714
33922W        W 6237   8.733  39.948   2.383
33923W        W 6238  43.120  26.752   1.707
33924W        W 6239  10.440  30.973  13.692
33925W        W 6240  40.501  31.447   3.100
33926W        W 6241  40.665  12.817  14.022
33927W        W 6242  16.266  36.168   1.892
33928W        W 6243  35.050  42.228   0.015
33929W        W 6244  29.593  32.518   0.988
33930W        W 6245  24.246  38.249  13.487
33931W        W 6246  36.801   5.720  10.706
33932W        W 6247  34.958  30.178  13.023
33933W        W 6248  43.216  37.938   3.100
33934W        W 6249  20.781  30.179  14.861
33935W        W 6250  12.514   4.732   9.907
33936W        W 6251  44.788  27.912  10.175
33937W        W 6252  13.330   6.852  14.782
33938W        W 6253  31.397  38.076   3.453
33939W        W 6254  16.598   5.387  11.948
33940W        W 6255   3.332   7.175   3.580
33941W        W 6256  15.858   7.934   4.092
33942W        W 6257  42.259  24.513   1.154
33943W        W 6258  41.315  23.715   1.940
33944W        W 6259  29.494   9.407  11.430
33945W        W 6260  44.798  43.301  11.434
33946W        W 6261  16.126  39.011   0.768
33947W        W 6262  22.731  17.626   2.142
33948W        W 6263  41.579  21.705   3.742
33949W        W 6264  43.905   3.473   1.704
33950W        W 6265  36.018  33.632   1.249
33951W        W 6266   6.735  13.793   2.890
33952W        W 6267  38.511  38.467   2.222
33953W        W 6268  22.657  40.367  10.575
33954W        W 6269  20.518  41.860   1.533
33955W        W 6270  21.674  18.803   3.303
33956W        W 6271  17.796  38.938  14.670
33957W        W 6272  21.009   2.914   2.283
33958W        W 6273  16.753  36.526   1.253
33959W        W 6274  15.741   7.994  14.510
33960W        W 6275   8.621  33.208  12.477
33961W        W 6276  12.849  41.037   0.809
33962W        W 6277  13.094   4.780  11.942
33963W        W 6278  41.751   0.337  12.020
33964W        W 6279  18.742  19.735  12.439
33965W        W 6280  27.228  42.855   0.857
33966W        W 6281  12.129   8.829   3.226
33967W        W 6282   2.964  34.512   1.330
33968W        W 6283  43.924  22.990  14.395
33969W        W 6284  31.006   3.349   1.959
33970W        W 6285  12.252   1.634   3.960
33971W        W 6286   9.878  41.760  13.985
33972W        W 6287  14.229   7.108  12.929
33973W        W 6288  43.281  30.144   4.811
33974W        W 6289  13.819  14.691  13.432
33975W        W 6290  18.743   6.423   4.650
33976W        W 6291  38.457   2.722  12.404
33977W        W 6292  17.714  12.887   4.557
33978W        W 6293  28.485  25.256   1.955
33979W        W 6294  17.705  31.666   3.778
33980W        W 6295  32.634  36.377   4.541
33981W        W 6296   8.766  21.020  11.203
33982W        W 6297  37.924   4.967   2.801
33983W        W 6298   7.807  13.872   3.883
33984W        W 6299   3.284  35.383  12.017
33985W        W 6300   3.700  17.257  10.672
33986W        W 6301  21.548  44.723   1.246
33987W        W 6302  27.060  22.082   1.652
33988W        W 6303  15.890  32.848   0.516
33989W        W 6304   2.901  13.055   1.867
33990W        W 6305  30.614  32.878   2.375
33991W        W 6306  10.732  17.557   0.536
33992W        W 6307   2.833  37.581   1.797
33993W        W 6308  36.086  41.243   1.786
33994W        W 6309  29.308   8.884  13.146
33995W        W 6310  30.607  38.065   2.425
33996W        W 6311  32.825   8.366   4.175
33997W        W 6312  16.624  21.628   2.650
33998W        W 6313  16.203  37.820  11.084
33999W        W 6314   8.346  23.062  10.996
34000W        W 6315  17.320   4.720   3.279
34001W        W 6316  12.705  33.866  11.602
34002W        W 6317  27.551  26.426   4.141
34003W        W 6318  34.450   2.543  12.380
34004W        W 6319  29.087  22.221   1.765
34005W        W 6320  35.656  32.728  14.359
34006W        W 6321  11.299  41.439   5.042
34007W        W 6322  42.774  31.093  14.725
34008W        W 6323  15.509  41.157   4.228
34009W        W 6324  17.304  29.912   2.821
34010W        W 6325  25.188  22.202  13.522
34011W        W 6326  24.113   2.330   2.389
34012W        W 6327  34.027  31.342   4.631
34013W        W 6328  20.036   9.503  14.718
34014W        W 6329  42.273  35.377  13.918
34015W        W 6330  39.408  28.546   1.323
34016W        W 6331  15.122  21.469  11.964
34017W        W 6332  33.626  10.062   3.325
34018W        W 6333   3.446  10.099   4.222
34019W        W 6334  38.792   5.740  13.989
34020W        W 6335  20.727  41.527  13.992
34021W        W 6336  22.335  24.962   3.161
34022W        W 6337  12.277  32.461   2.322
34023W        W 6338  33.627  37.825   3.650
34024W        W 6339  21.195  40.913  13.585
34025W        W 6340  27.267  37.531  14.820
34026W        W 6341  43.864   1.898  10.727
34027W        W 6342  16.001  31.878  10.760
34028W        W 6343  10.206   1.025   1.217
34029W        W 6344  40.125  16.598  11.511
34030W        W 6345  36.751  29.168  12.558
34031W        W 6346   0.779  15.071  14.895
34032W        W 6347  34.567  17.726   2.167
34033W        W 6348  29.495  26.913  12.078
34034W        W 6349   1.013   4.499   1.884
34035W        W 6350  25.233  23.822  14.478
34036W        W 6351  16.522   3.775   2.706
34037W        W 6352  30.710   4.757  10.681
34038W        W 6353  14.684  30.506   1.271
34039W        W 6354  39.826  42.027  12.037
34040W        W 6355  20.781  29.706   1.620
34041W        W 6356  38.820  22.553   1.650
34042W        W 6357  29.601  44.806   2.675
34043W        W 6358  25.405   6.226   3.802
34044W        W 6359  22.905  35.967  12.648
34045W        W 6360  21.468   8.427   1.301
34046W        W 6361  28.286  13.886   2.158
34047W        W 6362  41.473  28.695  10.627
34048W        W 6363  44.882  12.205  13.811
34049W        W 6364   2.044  42.945   5.076
34050W        W 6365  32.833  15.689  10.251
34051W        W 6366  40.448   0.984   4.152
34052W        W 6367  36.346  10.593  12.859
34053W        W 6368  18.696  25.615  14.911
34054W        W 6369  27.049  29.686  12.356
34055W        W 6370  17.153  29.899   9.816
34056W        W 6371   3.092   0.945  11.542
34057W        W 6372   0.464  28.582   2.942
34058W        W 6373   1.777  43.865  10.878
34059W        W 6374  43.801  32.122   1.285
34060W        W 6375  23.094  32.003   2.715
34061W        W 6376   3.985  17.981   2.307
34062W        W 6377   6.995   6.352   0.449
34063W        W 6378  39.654  15.720   2.415
34064W        W 6379   5.963  37.811   0.285
34065W        W 6380  19.283  34.923   0.288
34066W        W 6381  21.596  20.934   3.917
34067W        W 6382  32.056  17.958  10.672
34068W        W 6383   2.332  31.462  12.789
34069W        W 6384   4.973  24.969  12.443
34070W        W 6385  37.173  23.885  11.343
34071W        W 6386  39.521  12.606   0.093
34072W        W 6387   4.885  31.664  12.837
34073W        W 6388  31.174   1.404   0.948
34074W        W 6389  40.693  31.827   3.394
34075W        W 6390  14.129  34.317   3.128
34076W        W 6391  31.002  29.687  10.705
34077W        W 6392  29.261   6.951  12.625
34078W        W 6393  36.328  26.535  12.136
34079W        W 6394  11.640  13.861   3.886
34080W        W 6395   6.873  39.273   2.324
34081W        W 6396  35.554   6.991   3.230
34082W        W 6397  21.985   7.748   2.822
34083W        W 6398  18.181   2.004   1.793
34084W        W 6399  29.909  29.608  13.788
34085W        W 6400  40.128  26.753  10.644
34086W        W 6401  17.515  25.867   1.224
34087W        W 6402  11.826  27.124   0.262
34088W        W 6403  11.179  44.272   3.248
34089W        W 6404  17.377   9.314   1.812
34090W        W 6405  35.653  26.223   1.436
34091W        W 6406  17.898  19.480  13.981
34092W        W 6407  20.088  18.292  12.698
34093W        W 6408   8.827  33.435  11.535
34094W        W 6409  12.260  27.970  12.295
34095W        W 6410  16.734  16.201   3.656
34096W        W 6411  17.184  37.333   0.018
34097W        W 6412  10.134   1.009   4.138
34098W        W 6413  39.902   9.357   1.363
34099W        W 6414  18.048  41.451  14.796
34100W        W 6415   5.472  42.616  11.441
34101W        W 6416  17.438  43.193   0.020
34102W        W 6417  14.054  26.499  12.971
34103W        W 6418  20.103  19.886  14.370
34104W        W 6419  11.413  35.499  11.639
34105W        W 6420  15.157  44.970   4.586
34106W        W 6421  10.819  18.961  14.832
34107W        W 6422  41.959  37.372   4.085
34108W        W 6423  21.746   4.703   2.600
34109W        W 6424  20.266  38.496  13.263
34110W        W 6425   0.297   9.258   0.296
34111W        W 6426  33.066   4.267   4.803
34112W        W 6427  19.603  19.377   0.971
34113W        W 6428  25.725  35.123  13.448
34114W        W 6429  26.626  25.605   4.728
34115W        W 6430  36.573   2.983   2.136
34116W        W 6431  13.406   7.331  12.500
34117W        W 6432  25.393   1.355   1.905
34118W        W 6433  14.201  17.730   4.878
34119W        W 6434  28.104  28.028   0.209
34120W        W 6435  26.016  38.602   2.282
34121W        W 6436  30.194   1.739  12.296
34122W        W 6437   7.887  18.629   4.220
34123W        W 6438   6.904  25.604   1.675
34124W        W 6439  33.830  10.582   0.958
34125W        W 6440   5.285  36.762   2.668
34126W        W 6441  23.986  20.791   0.921
34127W        W 6442  22.283  21.850  14.963
34128W        W 6443  41.601  40.378  14.430
34129W        W 6444   2.538   7.884  13.116
34130W        W 6445   7.361   7.243  12.596
34131W        W 6446  22.316  23.227   2.385
34132W        W 6447  25.096  10.362   1.970
34133W        W 6448  14.166  34.811   2.276
34134W        W 6449  29.978  10.277   0.867
34135W        W 6450  30.499   8.794   2.380
34136W        W 6451  31.900   4.350   3.300
34137W        W 6452  19.549  17.158   1.219
34138W        W 6453  22.930  17.267  12.501
34139W        W 6454   2.346  35.273  11.864
34140W        W 6455  43.463  15.289   4.593
34141W        W 6456  30.573   0.255   4.584
34142W        W 6457  22.289  41.364   4.008
34143W        W 6458  33.862  18.650   0.918
34144W        W 6459  31.025  37.431  10.150
34145W        W 6460  33.681   2.022   2.373
34146W        W 6461  24.466  27.551  10.613
34147W        W 6462  27.173  27.667   3.223
34148W        W 6463  20.365  14.015  12.159
34149W        W 6464  43.959   3.713  13.029
34150W        W 6465  13.342  29.987  10.586
34151W        W 6466   9.795  26.295  13.192
34152W        W 6467  12.073  23.491   4.466
34153W        W 6468  17.140  30.909   0.869
34154W        W 6469  36.070  20.846  14.766
34155W        W 6470  30.898  26.129  14.568
34156W        W 6471   7.631  28.785   2.959
34157W        W 6472  30.993   4.966   4.635
34158W        W 6473  37.491  34.610  11.904
34159W        W 6474  45.000  17.885   3.591
34160W        W 6475  27.130   8.471  12.018
34161W        W 6476   6.242   0.426   2.354
34162W        W 6477  34.370   5.360  11.065
34163W        W 6478  43.516   4.150  11.168
34164W        W 6479  13.555  34.939   4.082
34165W        W 6480   0.068  31.070   1.359
34166W        W 6481  26.156   0.641   4.859
34167W        W 6482  22.691  19.860   1.644
34168W        W 6483  11.383  39.656   2.389
34169W        W 6484  14.472  13.822   0.831
34170W        W 6485  32.811  31.509   0.301
34171W        W 6486  37.976  31.517   2.739
34172W        W 6487   0.405  42.988   0.800
34173W        W 6488  44.200  35.343  12.145
34174W        W 6489  31.389  19.180   4.546
34175W        W 6490  39.548  29.731   3.743
34176W        W 6491   1.746  38.604  13.936
34177W        W 6492  10.426  30.438   4.161
34178W        W 6493  10.650  42.811  14.397
34179W        W 6494  26.457   0.731   3.592
34180W        W 6495  26.697   1.734   1.701
34181W        W 6496  31.691  10.244  10.612
34182W        W 6497  38.087  31.128   0.365
34183W        W 6498  40.411  36.303  13.531
34184W        W 6499  16.194  22.762  12.393
34185W        W 6500  44.335  38.979  10.921
34186W        W 6501  33.763   7.756   1.351
34187W        W 6502  15.489  39.871  10.243
34188W        W 6503   7.390  40.580  13.806
34189W        W 6504  10.679  23.807   2.653
34190W        W 6505   9.883   6.907  13.782
34191W        W 6506  35.892  27.565   1.219
34192W        W 6507  23.179   1.481   1.222
34193W        W 6508  44.130  42.576   4.159
34194W        W 6509  33.225  17.856  12.091
34195W        W 6510  29.713  26.963  11.512
34196W        W 6511  24.294  39.334   2.280
34197W        W 6512  12.554   4.319  12.157
34198W        W 6513   8.433  34.586  10.999
34199W        W 6514   2.107  16.102  10.817
34200W        W 6515   6.154   6.032  11.679
34201W        W 6516  35.093  18.057   3.868
34202W        W 6517   7.699  44.296  10.830
34203W        W 6518   0.762  11.222  12.406
34204W        W 6519  42.168   8.747   2.370
34205W        W 6520  23.480  17.302  14.347
34206W        W 6521  28.201  17.993   2.333
34207W        W 6522  40.920  23.991  13.285
34208W        W 6523  39.930   8.636   2.207
34209W        W 6524  33.745   8.972   4.128
34210W        W 6525  21.307   6.260  10.574
34211W        W 6526  15.668  33.266   9.955
34212W        W 6527  44.953  21.136   4.261
34213W        W 6528  42.519  23.178   0.032
34214W        W 6529  17.741   0.502   3.322
34215W        W 6530  27.592  40.399   4.084
34216W        W 6531  29.695  38.456   0.892
34217W        W 6532  11.779  24.300   2.748
34218W        W 6533   8.877  20.045   3.231
34219W        W 6534  41.007  20.467  14.390
34220W        W 6535  17.645  40.502  11.992
34221W        W 6536  27.709  44.404  13.938
34222W        W 6537  17.747  42.475   2.373
34223W        W 6538  41.090  27.436   3.089
34224W        W 6539  11.987   0.274  14.379
34225W        W 6540  25.469  30.027   3.794
34226W        W 6541  31.506  38.125  11.941
34227W        W 6542  31.834  33.513   1.302
34228W        W 6543   5.924   0.518   4.327
34229W        W 6544  44.635  18.961   3.272
34230W        W 6545  12.286  14.302  10.701
34231W        W 6546   1.787   1.316  11.531
34232W        W 6547  21.496  16.963  10.506
34233W        W 6548  38.164  26.159  13.819
34234W        W 6549   5.950  38.063  10.734
34235W        W 6550  12.289  16.288   3.668
34236W        W 6551   9.897  16.327   4.778
34237W        W 6552  14.091  28.742  14.399
34238W        W 6553  44.506   7.679  11.134
34239W        W 6554  36.553  13.067   4.169
34240W        W 6555  27.013  33.561   2.822
34241W        W 6556  32.007   4.442   4.567
34242W        W 6557  26.653  29.544  13.165
34243W        W 6558  21.714  33.832  14.294
34244W        W 6559   0.011  17.267   3.598
34245W        W 6560   1.230  13.550   4.632
34246W        W 6561  34.178  34.268  11.207
34247W        W 6562  40.615  10.752   4.007
34248W        W 6563  43.932   4.823   0.974
34249W        W 6564  18.042  26.662   3.641
34250W        W 6565  38.042  28.017  11.061
34251W        W 6566  26.670  41.091   1.779
34252W        W 6567   6.836  14.184   2.184
34253W        W 6568  33.908  16.319   1.403
34254W        W 6569  19.302  35.420  13.992
34255W        W 6570  29.652  17.353   1.365
34256W        W 6571  39.451  17.815  12.492
34257W        W 6572   5.458   7.474  12.533
34258W        W 6573  43.131  35.568   1.356
34259W        W 6574  15.100  43.476   2.074
34260W        W 6575  37.295  37.840   2.407
34261W        W 6576  10.560  44.053   0.234
34262W        W 6577  10.775  10.857  11.606
34263W        W 6578  38.405  24.312   2.733
34264W        W 6579  23.533   5.227   3.273
34265W        W 6580  30.766  33.894  10.831
34266W        W 6581  43.034  16.070   4.583
34267W        W 6582  12.042  41.677   0.897
34268W        W 6583   7.814  10.304  11.150
34269W        W 6584  35.841   6.120  12.393
34270W        W 6585  10.211   0.443  12.849
34271W        W 6586   5.556   3.548   1.763
34272W        W 6587   4.715  37.036   1.233
34273W        W 6588  17.431  25.133   5.100
34274W        W 6589   1.384  30.531  13.943
34275W        W 6590  24.435  18.701  13.000
34276W        W 6591  17.591  28.019   1.878
34277W        W 6592   2.297  14.698   2.169
34278W        W 6593  14.594  13.211  11.828
34279W        W 6594  44.300   2.299   2.203
34280W        W 6595  25.277  12.715  10.721
34281W        W 6596  22.653   0.385  14.387
34282W        W 6597  37.096  14.235  10.629
34283W        W 6598  28.593  17.555  14.772
34284W        W 6599  34.424   3.885   3.443
34285W        W 6600  15.038   7.432   1.733
34286W        W 6601  17.818  32.413   2.088
34287W        W 6602  20.764   7.981  13.313
34288W        W 6603  26.857  28.505   4.690
34289W        W 6604  13.743  31.503   1.647
34290W        W 6605  27.006  34.432   2.089
34291W        W 6606   3.946   1.378  12.855
34292W        W 6607  42.152  22.293  11.705
34293W        W 6608   6.230  43.506   1.193
34294W        W 6609  11.790  37.300  11.552
34295W        W 6610   4.701  17.124  12.896
34296W        W 6611  12.130  27.771   1.623
34297W        W 6612  31.626   4.375  12.547
34298W        W 6613  12.334  22.987  10.977
34299W        W 6614  27.553  43.066  13.427
34300W        W 6615  16.635  33.805  12.243
34301W        W 6616  28.135  14.705  13.976
34302W        W 6617  35.793  28.020   0.972
34303W        W 6618  35.984   1.835   3.812
34304W        W 6619   2.969  43.253   0.711
34305W        W 6620   4.943  24.295  14.396
34306W        W 6621   5.462  11.361   0.533
34307W        W 6622  30.464   5.270   2.384
34308W        W 6623  44.293  41.206   0.905
34309W        W 6624   6.096  42.814  14.851
34310W        W 6625  30.649  38.877   0.787
34311W        W 6626   9.423  29.795   1.727
34312W        W 6627   4.907   1.398   1.965
34313W        W 6628  16.542   0.580  11.424
34314W        W 6629  44.225  34.818  13.313
34315W        W 6630  38.657  14.421   0.788
34316W        W 6631  22.493   3.766   1.388
34317W        W 6632  33.388  40.390   4.132
34318W        W 6633  10.325  42.587  11.120
34319W        W 6634   0.437  22.630  11.612
34320W        W 6635  26.233  41.792   0.028
34321W        W 6636  19.152  20.081   4.748
34322W        W 6637  42.565   2.943   2.077
34323W        W 6638   5.323  26.751  10.686
34324W        W 6639   3.677  30.935   3.851
34325W        W 6640  39.262  10.260   4.611
34326W        W 6641  19.281  40.307   1.243
34327W        W 6642   5.566  31.411   0.328
34328W        W 6643  31.549   6.431   2.827
34329W        W 6644  13.183  21.041  10.841
34330W        W 6645  25.823  32.849   0.557
34331W        W 6646  35.437   1.404  10.741
34332W        W 6647  22.729   9.828  13.900
34333W        W 6648  21.132  21.032   4.144
34334W        W 6649   0.747  29.977  12.019
34335W        W 6650  25.081  43.242  11.370
34336W        W 6651  15.874  11.693  11.070
34337W        W 6652   8.949  35.137   5.075
34338W        W 6653  18.234  43.779  12.440
34339W        W 6654  34.055  10.628  10.672
34340W        W 6655  31.673  19.220  14.374
34341W        W 6656  24.418   1.253  12.965
34342W        W 6657  41.869  41.610  11.664
34343W        W 6658   6.093  35.963   3.325
34344W        W 6659   5.223   9.474  10.001
34345W        W 6660  41.879   7.310  12.854
34346W        W 6661  39.014   2.734   4.990
34347W        W 6662  31.492   7.436   1.887
34348W        W 6663  38.481   8.818   2.688
34349W        W 6664   6.673  20.856  14.819
34350W        W 6665  40.026  24.351   0.023
34351W        W 6666  31.696  35.945   2.719
34352W        W 6667  37.081  40.825  11.624
34353W        W 6668  12.641  43.577  11.028
34354W        W 6669  30.168  35.461  13.577
34355W        W 6670  34.039   1.569   1.695
34356W        W 6671  24.211  34.642  14.507
34357W        W 6672  22.912   9.412  14.274
34358W        W 6673  12.557   2.972   4.696
34359W        W 6674  21.761  38.845  12.428
34360W        W 6675   6.778   2.317  11.998
34361W        W 6676  39.087   1.064  14.501
34362W        W 6677  36.713  10.750   3.169
34363W        W 6678  34.627  30.587  12.831
34364W        W 6679  14.133  14.747  13.018
34365W        W 6680  21.609  19.566  13.787
34366W        W 6681  17.043  23.248   4.805
34367W        W 6682  32.484  15.553  14.404
34368W        W 6683  20.986  41.037   4.606
34369W        W 6684  39.442   9.259   0.014
34370W        W 6685  13.378  17.861   3.202
34371W        W 6686  34.642  36.516  12.886
34372W        W 6687  41.416  42.089   1.566
34373W        W 6688  43.455  41.775   2.667
34374W        W 6689   3.277  20.708  10.369
34375W        W 6690  21.023  37.186   4.773
34376W        W 6691  42.828  25.000  10.788
34377W        W 6692  40.944  16.571  13.830
34378W        W 6693  23.986  17.683   0.518
34379W        W 6694  26.718   6.645   1.909
34380W        W 6695  25.750  40.521  12.249
34381W        W 6696   7.613  23.396   0.894
34382W        W 6697  20.078  10.448   5.596
34383W        W 6698  32.548  14.832  13.896
34384W        W 6699  35.041  39.837  13.596
34385W        W 6700  15.344  36.335   2.866
34386W        W 6701  17.254  11.685  12.683
34387W        W 6702   2.309  43.592  14.339
34388W        W 6703  26.664   7.951   1.418
34389W        W 6704  13.936  35.437  13.602
34390W        W 6705   5.181   8.786  12.846
34391W        W 6706  33.278  21.741   3.573
34392W        W 6707  43.956  29.538   4.387
34393W        W 6708   2.158   4.288  10.385
34394W        W 6709   2.544  10.606   4.237
34395W        W 6710  22.948   2.865  11.928
34396W        W 6711  10.613  23.634   0.401
34397W        W 6712  12.543  24.178  13.967
34398W        W 6713  35.343  36.266   3.087
34399W        W 6714  38.905   9.262   0.073
34400W        W 6715  28.642   6.322  13.598
34401W        W 6716   3.519  39.917   2.798
34402W        W 6717  10.865  34.889  13.289
34403W        W 6718  26.969   5.677  11.424
34404W        W 6719  13.575  31.293   4.145
34405W        W 6720   8.380  32.065  10.661
34406W        W 6721  44.250  32.128  10.599
34407W        W 6722  43.770  22.498   0.855
34408W        W 6723  41.413   0.948  12.557
34409W        W 6724  17.715  37.038  12.498
34410W        W 6725  36.079   4.298  11.547
34411W        W 6726  35.871   9.892   3.651
34412W        W 6727  25.223  12.824  11.605
34413W        W 6728  35.807  10.647   4.179
34414W        W 6729  20.262  38.825  10.291
34415W        W 6730  24.464  10.322  10.779
34416W        W 6731  17.575  25.062   1.084
34417W        W 6732  24.075  35.770   0.370
34418W        W 6733  10.635   5.683  13.310
34419W        W 6734  37.269  26.723  12.738
34420W        W 6735  10.161  19.636  13.755
34421W        W 6736  32.785   0.357   0.839
34422W        W 6737   3.901  23.503  12.503
34423W        W 6738  16.196  15.647  10.016
34424W        W 6739  16.007   3.529  11.184
34425W        W 6740  19.027   6.410  12.899
34426W        W 6741  27.002  11.386  13.584
34427W        W 6742  37.466  24.260   3.557
34428W        W 6743  23.081  40.783  13.073
34429W        W 6744   4.831  15.801   1.435
34430W        W 6745   3.799  15.726  10.756
34431W        W 6746  26.922  22.855   3.894
34432W        W 6747   3.743   6.329   2.039
34433W        W 6748  25.491   3.387  11.648
34434W        W 6749  27.935  11.955  14.226
34435W        W 6750  20.560  33.205  14.574
34436W        W 6751  33.933  40.884   3.138
34437W        W 6752  36.390  13.368  12.091
34438W        W 6753  19.860  24.140   3.870
34439W        W 6754   0.466  17.287   3.313
34440W        W 6755   8.236  37.299  13.005
34441W        W 6756  26.201   4.284  14.218
34442W        W 6757  15.104  25.466   4.039
34443W        W 6758  40.958  33.050  14.467
34444W        W 6759  40.805  19.057  12.923
34445W        W 6760  26.001  30.446   3.099
34446W        W 6761   0.128  34.918  10.433
34447W        W 6762  24.058  26.036   0.882
34448W        W 6763  43.704  40.416  10.785
34449W        W 6764   1.321  21.746   4.807
34450W        W 6765  33.940  44.848   3.907
34451W        W 6766  33.619  37.513   4.066
34452W        W 6767  43.323   0.876   0.324
34453W        W 6768   0.514  36.291  13.988
34454W        W 6769  41.868  12.228  14.774
34455W        W 6770  29.008  20.648   0.908
34456W        W 6771   8.387  40.401  12.954
34457W        W 6772  22.646   6.279   2.565
34458W        W 6773  20.969  34.993  13.504
34459W        W 6774   3.380  11.410  14.402
34460W        W 6775   4.768  26.596  11.697
34461W        W 6776  21.124  14.546  12.921
34462W        W 6777  24.921  40.396  11.928
34463W        W 6778  43.499  29.512  12.784
34464W        W 6779  15.316  12.103   4.712
34465W        W 6780  19.314  25.625   4.675
34466W        W 6781   4.616  40.761   3.227
34467W        W 6782   9.679   7.333   2.326
34468W        W 6783  28.899  14.583   0.448
34469W        W 6784  28.082  38.429   2.144
34470W        W 6785  42.786  13.360   0.593
34471W        W 6786  14.219   8.916   4.150
34472W        W 6787  16.394   7.446   3.739
34473W        W 6788   4.644   5.119   4.212
34474W        W 6789  37.889   2.046   2.654
34475W        W 6790   3.335  25.686   2.258
34476W        W 6791   3.824  36.468  11.558
34477W        W 6792   2.416  13.604   0.283
34478W        W 6793  36.821  21.890  11.505
34479W        W 6794  15.970  24.470  11.670
34480W        W 6795   6.005  21.525   0.787
34481W        W 6796  25.947   4.015  12.820
34482W        W 6797  34.516   5.940  12.798
34483W        W 6798  11.644   4.284  13.381
34484W        W 6799  19.412  38.573  14.311
34485W        W 6800  14.789  11.246   0.891
34486W        W 6801  32.800  44.543   3.743
34487W        W 6802  26.096   2.866   3.523
34488W        W 6803  11.171  44.895  13.297
34489W        W 6804  24.458  25.648  13.133
34490W        W 6805  17.495   6.340  12.914
34491W        W 6806  40.464  13.025  12.521
34492W        W 6807   9.077  19.247   2.177
34493W        W 6808  18.821   4.425  13.357
34494W        W 6809  38.692  14.875   1.519
34495W        W 6810   3.817  27.212  14.485
34496W        W 6811   1.446  19.319  11.955
34497W        W 6812  28.484   1.096   0.032
34498W        W 6813  16.241  41.332   4.619
34499W        W 6814  27.408  40.894   4.065
34500W        W 6815  30.065  27.702  13.440
34501W        W 6816  27.477  44.858  12.952
34502W        W 6817  20.638  44.968  12.502
34503W        W 6818  43.752   4.476  11.524
34504W        W 6819   5.858  43.024   3.140
34505W        W 6820  43.283  29.015  11.906
34506W        W 6821  39.576  36.096   3.968
34507W        W 6822  39.876  32.278   2.129
34508W        W 6823  34.626  35.111   1.844
34509W        W 6824  18.679  17.997  14.294
34510W        W 6825  15.230  37.054  10.839
34511W        W 6826  42.737  28.461   1.178
34512W        W 6827  19.849  22.360   4.267
34513W        W 6828  29.743   3.380   0.339
34514W        W 6829  36.826  34.423   1.888
34515W        W 6830  32.863  34.233  14.257
34516W        W 6831   9.580  38.816  11.947
34517W        W 6832  14.735  12.565   4.067
34518W        W 6833   6.966  10.657  13.481
34519W        W 6834  20.077  31.201  11.073
34520W        W 6835  41.857  16.018  12.160
34521W        W 6836  20.695  34.130  14.020
34522W        W 6837  29.430  28.071  12.003
34523W        W 6838  37.730  33.016  11.030
34524W        W 6839  32.940  26.328   3.752
34525W        W 6840  31.485  20.289  12.523
34526W        W 6841  37.150  42.064  11.683
34527W        W 6842  37.962  43.263   4.065
34528W        W 6843   4.274  16.114   4.606
34529W        W 6844   4.446  25.131  14.663
34530W        W 6845  12.279  33.871   2.438
34531W        W 6846  10.386  38.085   1.336
34532W        W 6847  41.879  23.662  14.333
34533W        W 6848  15.335  24.308  14.848
34534W        W 6849  30.880  18.943   1.029
34535W        W 6850  43.191   1.940  11.969
34536W        W 6851   7.727  19.519  14.344
34537W        W 6852  30.482   7.170  13.518
34538W        W 6853  29.221   2.462   0.695
34539W        W 6854  30.561  12.723   2.219
34540W        W 6855  36.186  10.081   4.043
34541W        W 6856  41.372  13.312   4.776
34542W        W 6857  15.005  32.360  11.432
34543W        W 6858  17.787  11.109   1.248
34544W        W 6859  23.517  31.691  11.302
34545W        W 6860  12.129  29.356   1.504
34546W        W 6861  30.513  30.207  12.658
34547W        W 6862  44.364   1.126   9.981
34548W        W 6863  11.526  17.126   3.631
34549W        W 6864  24.002  22.423   3.675
34550W        W 6865  18.512   6.301  12.814
34551W        W 6866  28.065  26.108   4.174
34552W        W 6867   0.437  14.131   0.302
34553W        W 6868  28.830  21.725  12.174
34554W        W 6869   7.042  25.735  11.279
34555W        W 6870  42.324  28.898  13.540
34556W        W 6871  42.878  35.150   5.522
34557W        W 6872  40.090  15.096   4.979
34558W        W 6873   3.284  38.791  14.863
34559W        W 6874  44.227  29.117   4.154
34560W        W 6875  24.967  32.965   3.409
34561W        W 6876  23.656  29.150   0.679
34562W        W 6877  10.720  25.922  13.074
34563W        W 6878  12.786  17.161   2.235
34564W        W 6879  10.710  31.153  14.471
34565W        W 6880  14.353   7.647  14.984
34566W        W 6881  22.624   4.743   3.135
34567W        W 6882   8.261   3.513  10.444
34568W        W 6883   2.266  11.182  13.469
34569W        W 6884  32.530  25.514  13.210
34570W        W 6885  38.381  37.497   2.359
34571W        W 6886   0.782   9.108   2.702
34572W        W 6887  19.569  43.272  14.918
34573W        W 6888  24.918  44.807   2.246
34574W        W 6889   1.930  30.413  14.370
34575W        W 6890  36.539   2.798   3.627
34576W        W 6891  32.931  43.727  13.539
34577W        W 6892  41.108   5.327  13.836
34578W        W 6893  22.956  11.931  14.906
34579W        W 6894  38.042  23.069   1.856
34580W        W 6895  17.806  30.618   2.618
34581W        W 6896  18.623  28.416   2.597
34582W        W 6897  16.852  42.405  12.424
34583W        W 6898  33.607  29.441   9.911
34584W        W 6899   9.453  34.800  12.309
34585W        W 6900  43.466  17.749  12.030
34586W        W 6901  41.976  27.704   0.721
34587W        W 6902  31.250  31.491   2.255
34588W        W 6903  28.390  10.174   3.648
34589W        W 6904  24.810  29.171  12.023
34590W        W 6905  31.141  32.202   0.470
34591W        W 6906  20.652  42.756  11.103
34592W        W 6907  18.006  21.604  11.885
34593W        W 6908  40.558  13.735  12.104
34594W        W 6909  22.134   5.114  13.345
34595W        W 6910   8.209  13.371  10.704
34596W        W 6911  34.429  17.995  14.911
34597W        W 6912  25.498   6.720   1.501
34598W        W 6913  27.511  35.432   3.621
34599W        W 6914  22.532  24.638  13.142
34600W        W 6915  18.548   7.829   2.812
34601W        W 6916  38.984   7.845   4.803
34602W        W 6917  36.919  22.227   4.252
34603W        W 6918  37.371   4.231   1.759
34604W        W 6919  36.595  19.148   3.095
34605W        W 6920  12.740   9.400   0.390
34606W        W 6921  22.403  41.300   0.827
34607W        W 6922   5.550  40.889  12.911
34608W        W 6923  43.999   7.890  13.361
34609W        W 6924   6.907  30.007  12.892
34610W        W 6925  32.478  28.235   1.400
34611W        W 6926  20.162  34.583   1.189
34612W        W 6927  22.402  38.347   0.966
34613W        W 6928  12.063   6.167  14.083
34614W        W 6929  27.503  42.831  14.744
34615W        W 6930  32.556  35.899  13.372
34616W        W 6931  19.305  36.372  10.692
34617W        W 6932  25.541  14.154   0.496
34618W        W 6933  41.577  36.036  11.256
34619W        W 6934  16.933  22.258   2.183
34620W        W 6935  14.630   5.154   4.583
34621W        W 6936  10.770  15.198  10.912
34622W        W 6937   6.600  14.522  10.186
34623W        W 6938  30.453  23.239  12.886
34624W        W 6939  21.470  41.776   4.521
34625W        W 6940  24.731  11.174   2.130
34626W        W 6941   1.834  41.254   1.722
34627W        W 6942  35.278  13.818  10.569
34628W        W 6943  24.858  22.040   3.629
34629W        W 6944  19.679  31.797  14.042
34630W        W 6945  37.362  32.335  12.345
34631W        W 6946  12.133  44.952  14.784
34632W        W 6947   6.931  26.404  11.239
34633W        W 6948   5.746  43.409   1.399
34634W        W 6949  17.727  30.354  13.896
34635W        W 6950  28.543  17.790   0.745
34636W        W 6951  28.006  40.104   3.336
34637W        W 6952  25.630  43.863   2.661
34638W        W 6953   3.887  44.409  10.486
34639W        W 6954  43.449  13.078   3.494
34640W        W 6955  23.253  37.868  12.028
34641W        W 6956  40.248  28.043   4.126
34642W        W 6957   8.579  28.202  13.410
34643W        W 6958   1.680   4.332  12.487
34644W        W 6959  26.959  21.756  14.801
34645W        W 6960  22.579  37.803   0.973
34646W        W 6961  11.922  44.951  13.963
34647W        W 6962  11.514  29.084   0.276
34648W        W 6963  14.210  10.083   0.015
34649W        W 6964  31.117  30.032  13.930
34650W        W 6965  13.760  38.866   4.144
34651W        W 6966   0.480  30.742   1.256
34652W        W 6967   8.322  19.260   3.702
34653W        W 6968  22.316  25.391   4.463
34654W        W 6969  35.346  25.124   1.782
34655W        W 6970  44.183  12.776  10.656
34656W        W 6971  14.818  40.773  11.101
34657W        W 6972  40.704  34.427  11.170
34658W        W 6973   2.675   7.712   1.766
34659W        W 6974  28.449   9.927  13.426
34660W        W 6975  14.357  36.471  10.711
34661W        W 6976  43.362  29.621  13.943
34662W        W 6977  21.527  10.292   0.859
34663W        W 6978  41.760  25.674  14.569
34664W        W 6979  42.974  39.008   4.580
34665W        W 6980   9.714  29.934   3.192
34666W        W 6981  12.673   3.940   2.877
34667W        W 6982  29.440   6.410   1.986
34668W        W 6983  38.864   8.637   1.763
34669W        W 6984  19.270  19.323   1.720
34670W        W 6985  34.218   7.849  11.105
34671W        W 6986   3.094  27.131  14.913
34672W        W 6987   9.109   9.416   2.643
34673W        W 6988   7.016  26.269   4.023
34674W        W 6989  36.495   4.879  12.879
34675W        W 6990  22.074  10.612   0.444
34676W        W 6991  32.434  20.757  12.569
34677W        W 6992   7.379  14.679   0.319
34678W        W 6993   9.180  29.126   2.732
34679W        W 6994  40.545  10.421   9.827
34680W        W 6995   5.486  26.475  13.404
34681W        W 6996  21.420   7.725  13.820
34682W        W 6997  38.352  41.600  12.416
34683W        W 6998  19.683  36.317   3.520
34684W        W 6999  24.259  36.919   1.869
34685W        W 7000   6.183  34.562   3.479
34686W        W 7001  14.839  34.058  13.403
34687W        W 7002  41.478  20.859  10.293
34688W        W 7003  20.288  35.008  14.425
34689W        W 7004  29.195  40.386  14.510
34690W        W 7005   7.390  10.744   3.241
34691W        W 7006  34.335   0.264   4.352
34692W        W 7007  11.702   9.236  13.380
34693W        W 7008  35.614   4.008  11.725
34694W        W 7009  42.085  32.859   2.754
34695W        W 7010   1.206  27.418   3.664
34696W        W 7011  18.956  26.468  13.425
34697W        W 7012  10.073   0.396   3.414
34698W        W 7013  30.641  44.328   5.053
34699W        W 7014  28.839  25.516  12.009
34700W        W 7015  34.073  21.673  11.443
34701W        W 7016  28.667  32.702   0.307
34702W        W 7017  28.361  42.869  11.572
34703W        W 7018  18.613  30.721   0.382
34704W        W 7019  30.141  25.021   4.127
34705W        W 7020   6.261  26.934   4.416
34706W        W 7021  44.550  37.596   4.238
34707W        W 7022  20.514  11.112  13.940
34708W        W 7023  41.933  28.709   4.505
34709W        W 7024   0.745   2.493  10.630
34710W        W 7025  28.999  26.974   1.205
34711W        W 7026  17.198  15.770  11.703
34712W        W 7027  25.079   7.030  13.441
34713W        W 7028  32.371   2.860   1.592
34714W        W 7029  22.334  13.877  13.388
34715W        W 7030  34.709  13.464  14.329
34716W        W 7031   2.853  35.896  14.550
34717W        W 7032  24.723  11.834   1.300
34718W        W 7033  38.077  43.786  13.441
34719W        W 7034  13.623   4.290  12.086
34720W        W 7035  44.875  40.194   0.052
34721W        W 7036  23.305   7.360   3.713
34722W        W 7037  26.555  23.463   2.282
34723W        W 7038  34.499   9.879  13.691
34724W        W 7039  17.126  24.254  12.360
34725W        W 7040  23.739  19.094   2.551
34726W        W 7041  14.270  13.151   3.648
34727W        W 7042  27.187  25.219   4.369
34728W        W 7043  34.402  30.607  11.882
34729W        W 7044  11.348  15.565   0.830
34730W        W 7045   1.512  34.872   5.038
34731W        W 7046  18.319  29.515   0.019
34732W        W 7047   9.219  11.745  10.664
34733W        W 7048  44.226  13.119  11.061
34734W        W 7049  31.595  26.495   3.374
34735W        W 7050  10.853   3.299   1.388
34736W        W 7051  29.574  25.956  12.581
34737W        W 7052  11.884  36.724  11.489
34738W        W 7053  17.700  43.421   4.808
34739W        W 7054  39.819  29.532  11.674
34740W        W 7055   2.343   4.069  13.657
34741W        W 7056   7.149  26.518   2.818
34742W        W 7057   0.376  30.583   4.893
34743W        W 7058  10.795  29.003  11.004
34744W        W 7059  31.143   8.721   1.296
34745W        W 7060  42.848  19.846  10.919
34746W        W 7061  16.178  27.570   1.960
34747W        W 7062  23.064   7.115   4.517
34748W        W 7063  22.504  22.025   2.861
34749W        W 7064   1.493   0.378  14.602
34750W        W 7065  14.670  23.901  12.941
34751W        W 7066   5.110  23.753  11.942
34752W        W 7067   0.382   5.606  13.326
34753W        W 7068  12.205  21.128   3.811
34754W        W 7069   6.585   1.648  12.452
34755W        W 7070  44.762  26.467   2.113
34756W        W 7071   5.469  16.575   3.610
34757W        W 7072  29.738  20.370   3.842
34758W        W 7073   8.529  27.712  11.981
34759W        W 7074  31.062  11.163   4.249
34760W        W 7075  40.407  32.077  13.618
34761W        W 7076   8.228  13.790   1.639
34762W        W 7077  25.275   3.386  10.910
34763W        W 7078   2.273  12.218   2.263
34764W        W 7079  38.405   9.841  10.605
34765W        W 7080  11.340   5.180  12.089
34766W        W 7081  21.334   9.455   4.118
34767W        W 7082  11.776  11.746  10.950
34768W        W 7083  43.040   6.780   0.311
34769W        W 7084  20.263  32.422  14.197
34770W        W 7085  17.506  29.606  14.417
34771W        W 7086   3.978  24.737  11.075
34772W        W 7087   7.816  25.776  12.429
34773W        W 7088  33.817  31.162   2.234
34774W        W 7089  31.472   8.753   3.867
34775W        W 7090  16.784  38.867  10.943
34776W        W 7091  39.846  10.404  10.573
34777W        W 7092  15.249  10.719   3.677
34778W        W 7093  34.259  44.796   0.055
34779W        W 7094  29.682  26.927  12.568
34780W        W 7095   3.246  15.867   1.824
34781W        W 7096  44.428  36.473  12.541
34782W        W 7097   1.258  24.313  10.806
34783W        W 7098  22.108  22.659   0.056
34784W        W 7099  12.865   6.414  12.632
34785W        W 7100  16.518   4.781   2.921
34786W        W 7101  33.814  39.150   1.298
34787W        W 7102  17.991  29.907  11.457
34788W        W 7103   6.336  39.393   3.337
34789W        W 7104  40.734  44.824  11.676
34790W        W 7105  26.189   0.411   3.937
34791W        W 7106   3.996  33.993   3.814
34792W        W 7107   7.228  22.665   2.356
34793W        W 7108  22.148  41.060  14.512
34794W        W 7109   8.884  23.428  12.243
34795W        W 7110  23.177  25.993  12.927
34796W        W 7111  39.512  23.250   5.232
34797W        W 7112   2.498  31.226   4.184
34798W        W 7113  38.297  22.048  14.660
34799W        W 7114  29.345  44.259   1.726
34800W        W 7115   6.720  13.608   2.352
34801W        W 7116  36.354  43.903   4.128
34802W        W 7117  38.301  33.572   2.724
34803W        W 7118  32.012  39.454   1.507
34804W        W 7119  44.042  33.283   3.592
34805W        W 7120  34.357  18.786   1.000
34806W        W 7121  29.520  19.761  10.780
34807W        W 7122  23.750  12.884   4.056
34808W        W 7123  35.688  32.518  10.739
34809W        W 7124  36.506  17.967   2.267
34810W        W 7125  40.071  44.420   1.350
34811W        W 7126  15.026  40.936  10.648
34812W        W 7127  20.504  11.580   3.380
34813W        W 7128  41.897  35.808   3.623
34814W        W 7129   1.328  43.209   4.270
34815W        W 7130  43.217  43.466   0.083
34816W        W 7131  28.516  41.985  11.359
34817W        W 7132  32.473  20.898  13.443
34818W        W 7133  33.582  19.631  14.752
34819W        W 7134   9.009  12.495   3.681
34820W        W 7135  34.203  28.703   3.714
34821W        W 7136  14.137  40.712  11.988
34822W        W 7137  16.253  29.063   1.733
34823W        W 7138   3.855   1.177  10.892
34824W        W 7139  33.678  41.054   1.882
34825W        W 7140   0.436  30.954  14.318
34826W        W 7141  39.902  13.147   2.727
34827W        W 7142  10.703  40.728  10.635
34828W        W 7143  40.608  26.270   9.729
34829W        W 7144  21.983   3.368  14.925
34830W        W 7145   9.435  32.019   2.204
34831W        W 7146  40.401  17.772  13.380
34832W        W 7147  11.258  24.303  11.993
34833W        W 7148   0.078  11.385  12.898
34834W        W 7149  30.150  34.041   4.112
34835W        W 7150  29.888   2.978  14.416
34836W        W 7151   6.202  38.510  12.558
34837W        W 7152  29.150  20.532   4.586
34838W        W 7153   6.856  22.125   4.410
34839W        W 7154  22.947  15.848   0.332
34840W        W 7155  27.367  44.698   3.258
34841W        W 7156   5.718  22.003   1.685
34842W        W 7157   3.828  43.792   2.179
34843W        W 7158  25.176  32.374  13.500
34844W        W 7159  10.371  17.339  12.074
34845W        W 7160  43.386  23.503   4.558
34846W        W 7161  29.223   3.947   1.484
34847W        W 7162  42.249   7.879   2.200
34848W        W 7163  31.481  26.264   2.922
34849W        W 7164  32.414  39.259   4.159
34850W        W 7165  40.640  38.910  10.391
34851W        W 7166  28.153  10.672   1.526
34852W        W 7167  25.330  28.203  11.539
34853W        W 7168  29.538   4.954  14.653
34854W        W 7169   7.242  28.498   1.194
34855W        W 7170  42.354   4.786   2.779
34856W        W 7171  33.455   3.276   4.621
34857W        W 7172   5.167   3.047   4.895
34858W        W 7173  42.522  33.686   4.691
34859W        W 7174   5.790   2.992  11.014
34860W        W 7175  27.558   2.261  11.476
34861W        W 7176  30.150  36.020  11.293
34862W        W 7177  28.083  29.682  14.456
34863W        W 7178  28.644   5.115   1.786
34864W        W 7179  41.576  17.600  12.017
34865W        W 7180  13.314  44.505  10.702
34866W        W 7181  10.583  33.675   4.263
34867W        W 7182  43.771  11.183   4.274
34868W        W 7183   7.964  22.291   4.689
34869W        W 7184  26.572  35.881  11.891
34870W        W 7185  27.500  37.043   1.873
34871W        W 7186  11.801  40.637  11.304
34872W        W 7187  24.191  36.102   3.629
34873W        W 7188  44.282  23.746   4.279
34874W        W 7189  22.485  26.588   2.299
34875W        W 7190  27.915  14.318   2.795
34876W        W 7191  26.631  42.667   1.716
34877W        W 7192  23.728  26.540   4.556
34878W        W 7193  33.617  22.092  13.619
34879W        W 7194   6.706  39.544  10.584
34880W        W 7195  15.808  30.239   0.759
34881W        W 7196  29.008  35.588   2.213
34882W        W 7197  44.786  29.618  11.212
34883W        W 7198  24.233   3.965   4.618
34884W        W 7199  40.349  15.157   3.924
34885W        W 7200   8.714  12.228   3.327
34886W        W 7201  41.373  37.922  13.313
34887W        W 7202   5.466  37.817   0.454
34888W        W 7203  32.357  36.073   0.407
34889W        W 7204  22.579   4.716   2.223
34890W        W 7205  16.714  28.752   3.534
34891W        W 7206   2.871   6.412  11.965
34892W        W 7207   5.447  18.797   4.856
34893W        W 7208  32.890  21.968  10.625
34894W        W 7209   2.314   0.958   0.475
34895W        W 7210  39.844  42.198  13.478
34896W        W 7211  33.367  24.626   3.348
34897W        W 7212  36.093  44.981  11.174
34898W        W 7213  14.769  15.085   0.746
34899W        W 7214  25.195  17.844  11.639
34900W        W 7215  18.753  27.976  11.110
34901W        W 7216  25.020  31.592  13.021
34902W        W 7217  31.713  27.636   1.936
34903W        W 7218  44.805  28.905  11.965
34904W        W 7219   9.613   7.857  13.829
34905W        W 7220  19.170  18.256  14.370
34906W        W 7221  33.670   2.951   1.126
34907W        W 7222  32.587   7.286  11.550
34908W        W 7223  17.546   1.759  12.032
34909W        W 7224  17.139  40.166  10.247
34910W        W 7225  14.385  13.164   4.555
34911W        W 7226  14.759  37.203   3.672
34912W        W 7227   1.304  41.910   1.447
34913W        W 7228  44.513  11.590   4.103
34914W        W 7229  34.405   0.751  14.314
34915W        W 7230  16.091   9.948   1.847
34916W        W 7231  18.217  39.741   3.624
34917W        W 7232  38.592   6.311   4.815
34918W        W 7233  21.721  12.782   3.196
34919W        W 7234  16.203  27.890   5.447
34920W        W 7235  29.867   9.619  10.478
34921W        W 7236  38.881  27.902   4.871
34922W        W 7237  27.705  38.713  14.665
34923W        W 7238  14.835  31.970  12.518
34924W        W 7239  38.620  11.626  13.011
34925W        W 7240  31.939  40.378   4.313
34926W        W 7241  17.001  25.140  13.434
34927W        W 7242  39.451  42.237   3.000
34928W        W 7243  21.908  37.087   0.964
34929W        W 7244  30.737   2.223   0.374
34930W        W 7245  39.069  32.578  11.400
34931W        W 7246   0.811   8.963   2.160
34932W        W 7247   5.931   9.111   1.879
34933W        W 7248  20.653  13.567   3.595
34934W        W 7249  27.769  34.676  10.207
34935W        W 7250  37.253   6.406   1.865
34936W        W 7251   2.271  10.844   1.255
34937W        W 7252   9.414  24.983  10.250
34938W        W 7253  11.364  16.855  10.880
34939W        W 7254   8.106   1.866   4.726
34940W        W 7255  30.557  41.549  13.886
34941W        W 7256  29.047  38.922  13.779
34942W        W 7257   0.118   5.912   4.100
34943W        W 7258  37.171  23.087   3.283
34944W        W 7259  16.627   9.288   3.811
34945W        W 7260  34.369  26.905  11.374
34946W        W 7261  29.165  15.262   3.909
34947W        W 7262  41.918   8.170   0.026
34948W        W 7263   4.618  24.532   0.379
34949W        W 7264   7.943  22.933  13.946
34950W        W 7265  36.136  13.795   4.025
34951W        W 7266  37.589   9.120   4.328
34952W        W 7267  39.957  23.739   4.720
34953W        W 7268  34.441  25.384   3.845
34954W        W 7269  33.022  34.967   1.553
34955W        W 7270  44.525  14.630  13.427
34956W        W 7271  26.470   1.351  12.993
34957W        W 7272  33.892   7.637   4.570
34958W        W 7273  44.185   7.455  10.621
34959W        W 7274  10.746  43.424  11.932
34960W        W 7275  44.876  33.074   3.249
34961W        W 7276  15.335   6.674  11.148
34962W        W 7277  23.870  12.141   0.166
34963W        W 7278  27.120  31.512   3.300
34964W        W 7279   0.444  12.618   3.355
34965W        W 7280  22.375  35.567   1.487
34966W        W 7281  11.702   0.076   1.796
34967W        W 7282   4.416  11.086   4.847
34968W        W 7283   4.375  10.655   0.784
34969W        W 7284  20.300  24.984   1.873
34970W        W 7285  40.014  19.173   3.217
34971W        W 7286  27.612  30.710   0.422
34972W        W 7287  18.275   4.034   0.473
34973W        W 7288  19.829  38.423   5.067
34974W        W 7289  29.608  35.133   1.654
34975W        W 7290  14.652  11.839  14.552
34976W        W 7291  36.353  19.524   3.423
34977W        W 7292  15.010  40.974   0.031
34978W        W 7293  22.153  10.147   1.674
34979W        W 7294  18.760  28.477   2.101
34980W        W 7295  16.724  44.709  13.307
34981W        W 7296   5.865   5.738  12.026
34982W        W 7297   9.376  17.952  12.455
34983W        W 7298  13.673  42.853  12.800
34984W        W 7299   1.384   4.672   3.806
34985W        W 7300  10.189  37.450   4.568
34986W        W 7301   0.631  34.128   1.270
34987W        W 7302  32.997  27.526   3.261
34988W        W 7303   4.368  13.599   2.412
34989W        W 7304  42.590  22.589   4.888
34990W        W 7305   8.699   8.192  14.223
34991W        W 7306  34.031  11.870   4.225
34992W        W 7307  17.202   8.847  13.716
34993W        W 7308   4.119  42.449   1.303
34994W        W 7309  15.677  23.132  13.569
34995W        W 7310  11.851  26.667  13.903
34996W        W 7311  10.868  14.825  12.686
34997W        W 7312   0.510  14.276   1.694
34998W        W 7313  36.510  16.630   4.570
34999W        W 7314  16.615  32.208   1.003
35000W        W 7315   0.011  36.023   1.336
35001W        W 7316  30.625  23.438   2.309
35002W        W 7317  14.865  14.690   1.450
35003W        W 7318  24.364  12.168   0.272
35004W        W 7319  35.924  36.846  14.464
35005W        W 7320  42.058  16.950  10.604
35006W        W 7321  15.863  18.680   4.541
35007W        W 7322  30.085  27.741   2.258
35008W        W 7323   7.659  10.309   3.124
35009W        W 7324   3.368  15.346  12.812
35010W        W 7325  19.068  42.832  11.594
35011W        W 7326  22.539  43.813   0.858
35012W        W 7327  25.539   4.753  12.486
35013W        W 7328  44.560  16.658   4.202
35014W        W 7329  27.760  17.954  14.276
35015W        W 7330  39.409  34.151  14.106
35016W        W 7331  20.535  32.021  14.459
35017W        W 7332  32.275  39.979  12.353
35018W        W 7333  29.300  28.780   1.950
35019W        W 7334  40.443  36.970  14.309
35020W        W 7335   1.344   0.306  12.349
35021W        W 7336  15.790  43.887   3.767
35022W        W 7337  26.507  43.728  14.428
35023W        W 7338  42.859  11.072  11.904
35024W        W 7339  30.942  43.810  11.404
35025W        W 7340   4.730  29.406   1.562
35026W        W 7341  37.816  33.365  13.648
35027W        W 7342  34.958   3.259  10.971
35028W        W 7343  38.032  12.374  10.603
35029W        W 7344  38.412  36.386   1.158
35030W        W 7345  10.870  36.253  13.905
35031W        W 7346  38.991  25.026   2.941
35032W        W 7347  25.618  27.408   4.167
35033W        W 7348  31.369  13.632   0.711
35034W        W 7349  20.593  23.965  14.736
35035W        W 7350  24.906  40.751  11.540
35036W        W 7351  24.422  10.920  13.354
35037W        W 7352   2.671   8.080   0.487
35038W        W 7353   3.840  31.726   2.707
35039W        W 7354  36.438  29.632   1.421
35040W        W 7355  19.739  11.118  11.045
35041W        W 7356  31.020  13.897  14.912
35042W        W 7357  41.182   9.600  14.518
35043W        W 7358  23.383   0.899  13.311
35044W        W 7359   6.705   9.183  14.435
35045W        W 7360   9.227  39.973   0.634
35046W        W 7361  29.098  10.517   3.285
35047W        W 7362  14.836   2.045  13.559
35048W        W 7363  23.844  17.319  12.908
35049W        W 7364  36.090  31.360  12.142
35050W        W 7365  39.496  26.885  14.895
35051W        W 7366  43.326   1.806   2.891
35052W        W 7367  23.276   2.929  11.557
35053W        W 7368  19.192  43.275  12.526
35054W        W 7369   4.072  41.260   0.263
35055W        W 7370  37.853  18.702  11.424
35056W        W 7371   1.836  18.630   1.445
35057W        W 7372  10.856  23.388  14.979
35058W        W 7373  23.500  24.711  11.977
35059W        W 7374  27.909  27.599  11.116
35060W        W 7375   7.810   8.977  10.752
35061W        W 7376  18.730  17.784   4.653
35062W        W 7377  14.764  13.246  12.824
35063W        W 7378   4.519   7.662   3.805
35064W        W 7379  21.212   2.685   4.382
35065W        W 7380  37.382  21.015   1.728
35066W        W 7381  15.574  23.103  12.403
35067W        W 7382  13.277  33.074  13.783
35068W        W 7383  42.460  28.408   4.197
35069W        W 7384   3.984  17.687  10.805
35070W        W 7385  17.182  16.246  11.932
35071W        W 7386  31.094  31.074  11.107
35072W        W 7387  29.472   8.774  12.177
35073W        W 7388  40.093  33.590  11.091
35074W        W 7389  22.506  33.466   0.427
35075W        W 7390  24.145  24.996   0.894
35076W        W 7391  14.204  14.260   1.677
35077W        W 7392  41.024   6.143   0.733
35078W        W 7393  33.600  25.897  13.121
35079W        W 7394   5.457  13.966   3.311
35080W        W 7395  10.847  44.311   2.821
35081W        W 7396   2.070  34.633  11.138
35082W        W 7397  23.494  18.364  14.043
35083W        W 7398  15.577  43.517   0.183
35084W        W 7399  24.250  41.326  13.621
35085W        W 7400   5.798   9.113   3.329
35086W        W 7401  32.919  11.213  12.431
35087W        W 7402  15.803   1.350   1.701
35088W        W 7403  23.453  33.046  11.168
35089W        W 7404  10.414  20.728   4.084
35090W        W 7405  18.312   0.976  13.690
35091W        W 7406  42.281  22.811  14.082
35092W        W 7407  31.009   8.384   3.115
35093W        W 7408  41.762   5.896   3.508
35094W        W 7409  40.884   3.279  14.912
35095W        W 7410  17.272  20.770  14.265
35096W        W 7411  40.907  32.663  14.127
35097W        W 7412  24.678  38.453   2.211
35098W        W 7413  23.332  30.711  14.375
35099W        W 7414   0.211  39.383  11.626
35100W        W 7415   0.289  25.133   0.044
35101W        W 7416  44.242  30.176  13.013
35102W        W 7417  33.996  42.023  12.601
35103W        W 7418  13.415   0.750   2.417
35104W        W 7419  43.567   5.419  10.710
35105W        W 7420  19.278  10.464   4.945
35106W        W 7421  22.772  42.038  14.893
35107W        W 7422   3.583  30.501   4.576
35108W        W 7423  22.297  24.591  14.860
35109W        W 7424   6.959   9.654  14.329
35110W        W 7425  32.667  24.419  11.203
35111W        W 7426   2.305  36.609   1.398
35112W        W 7427  20.318  22.551   4.364
35113W        W 7428  17.848   4.163  11.484
35114W        W 7429   3.809  13.138   3.606
35115W        W 7430  12.921  37.275  11.858
35116W        W 7431  14.230  12.131  13.402
35117W        W 7432  40.505  11.558  12.951
35118W        W 7433   2.373  18.612   0.414
35119W        W 7434   0.733  39.540   0.396
35120W        W 7435  36.192  30.311   2.497
35121W        W 7436  34.351  23.531  11.401
35122W        W 7437   9.878  35.374  14.551
35123W        W 7438   4.429  24.690   2.280
35124W        W 7439  27.005  35.844   0.430
35125W        W 7440  33.006  35.027   0.507
35126W        W 7441  40.363  10.105  13.384
35127W        W 7442  21.582  30.600   1.171
35128W        W 7443   2.176  40.303   4.795
35129W        W 7444   3.526  38.937  10.255
35130W        W 7445   9.195   7.278  14.382
35131W        W 7446  11.117  23.774  12.911
35132W        W 7447  10.737  10.129   3.648
35133W        W 7448   8.960   8.353  13.795
35134W        W 7449  14.802  37.974   4.617
35135W        W 7450  24.833  23.926   4.443
35136W        W 7451  37.513  11.905   1.884
35137W        W 7452  26.852  43.910   1.194
35138W        W 7453   5.744  23.964   1.726
35139W        W 7454  44.509  30.500  10.083
35140W        W 7455  44.202  31.492  14.313
35141W        W 7456  22.216   3.654   2.710
35142W        W 7457  39.959  43.735   1.880
35143W        W 7458  44.734  19.759  14.776
35144W        W 7459  29.303   5.173   0.892
35145W        W 7460  29.106  29.078   0.489
35146W        W 7461   7.817  35.976  12.288
35147W        W 7462  21.184  24.653  12.887
35148W        W 7463  40.139  21.132   4.039
35149W        W 7464  33.922  25.628  10.529
35150W        W 7465  42.810  29.488   2.818
35151W        W 7466   9.248  11.579   3.647
35152W        W 7467  12.265  20.602  10.639
35153W        W 7468  44.360  13.584   2.692
35154W        W 7469  42.256  22.989  12.307
35155W        W 7470  36.434   6.161   0.243
35156W        W 7471  31.984  14.679  14.377
35157W        W 7472  23.393  39.951   4.073
35158W        W 7473  38.685  30.861  14.814
35159W        W 7474   1.500  33.200   3.372
35160W        W 7475  29.912  24.647   1.007
35161W        W 7476  14.626  20.002   2.613
35162W        W 7477  17.865  12.625   0.322
35163W        W 7478  31.347  33.340   1.202
35164W        W 7479  39.851  19.274   1.793
35165W        W 7480  40.099  39.442   1.178
35166W        W 7481  39.991   5.217  13.051
35167W        W 7482   7.613   7.112   0.452
35168W        W 7483  43.431  24.410  13.061
35169W        W 7484  41.283  24.554   0.388
35170W        W 7485  34.483  13.794   2.276
35171W        W 7486   8.805  14.384  10.671
35172W        W 7487  19.805  31.542  11.362
35173W        W 7488  23.056   7.557  10.644
35174W        W 7489  37.340  32.299  12.858
35175W        W 7490  40.596   2.223  10.686
35176W        W 7491  27.077  27.546   0.018
35177W        W 7492   6.786   7.061  11.215
35178W        W 7493  34.512  18.479  11.987
35179W        W 7494  41.015  18.818   1.256
35180W        W 7495  44.795  35.483  14.065
35181W        W 7496  12.760  44.788  12.700
35182W        W 7497   8.442  20.278  14.331
35183W        W 7498  26.044  41.234  13.410
35184W        W 7499  27.580  17.032   3.677
35185W        W 7500   5.862  31.133  14.999
35186W        W 7501  15.238  16.777  13.131
35187W        W 7502   6.641  15.805  11.610
35188W        W 7503  42.266  41.773  13.883
35189W        W 7504  24.288  25.036   2.307
35190W        W 7505  15.707  43.514   4.152
35191W        W 7506   9.527   1.745  14.088
35192W        W 7507   7.137  36.988   2.333
35193W        W 7508  34.608   8.833   2.536
35194W        W 7509  19.751  26.173  13.620
35195W        W 7510  16.811  17.836  11.564
35196W        W 7511   0.490  38.957  14.582
35197W        W 7512  20.998  37.235  13.992
35198W        W 7513  31.012   7.451  10.978
35199W        W 7514   6.395  35.355   2.899
35200W        W 7515  14.863   0.433   0.863
35201W        W 7516  17.567  35.908  11.509
35202W        W 7517   1.550  12.073   9.703
35203W        W 7518  14.289  26.882   4.831
35204W        W 7519  29.419  27.610   3.308
35205W        W 7520   4.264  24.565   1.809
35206W        W 7521  34.651  18.694   3.667
35207W        W 7522  11.832  23.442   4.924
35208W        W 7523  21.534  44.066  12.789
35209W        W 7524  12.733  36.870  12.169
35210W        W 7525   5.183  43.952  10.638
35211W        W 7526  25.463  42.587   0.443
35212W        W 7527   1.383   5.593  14.199
35213W        W 7528  36.462  22.796  12.895
35214W        W 7529   4.906  36.281  12.701
35215W        W 7530  23.616   1.009   3.607
35216W        W 7531  17.209  31.795   4.575
35217W        W 7532  19.588   7.454   3.715
35218W        W 7533  13.206  14.247   0.276
35219W        W 7534  32.552  33.034  10.595
35220W        W 7535   8.653  37.295  10.931
35221W        W 7536   9.399  40.003  10.810
35222W        W 7537  13.775  17.393  14.947
35223W        W 7538  23.303  40.521   4.233
35224W        W 7539   1.490   0.854  10.639
35225W        W 7540   0.576  26.270  11.495
35226W        W 7541  44.908   0.276   1.402
35227W        W 7542  29.465  26.120  13.502
35228W        W 7543  11.176  17.823   3.226
35229W        W 7544  35.030  26.689  13.779
35230W        W 7545  15.936  27.429  12.542
35231W        W 7546   2.758   7.557   0.408
35232W        W 7547  35.957  40.409  10.583
35233W        W 7548  23.420  44.463   4.092
35234W        W 7549  10.825   9.796  13.417
35235W        W 7550  16.823  35.915  14.398
35236W        W 7551   8.910  26.645  13.514
35237W        W 7552   5.848  42.348   1.809
35238W        W 7553  15.759  25.360   2.299
35239W        W 7554   2.416  21.408  12.867
35240W        W 7555  34.969  12.116  13.026
35241W        W 7556  29.080  12.076  11.559
35242W        W 7557  43.233  19.700  12.875
35243W        W 7558  16.567  17.063   1.826
35244W        W 7559  30.682  15.134   1.868
35245W        W 7560  13.320  44.108   1.690
35246W        W 7561  34.490  25.685   0.695
35247W        W 7562  41.175  24.824   4.764
35248W        W 7563  36.621  23.000  11.592
35249W        W 7564  40.938  19.618   3.610
35250W        W 7565  37.054   7.168  11.663
35251W        W 7566  19.249   2.647   0.174
35252W        W 7567  18.564   5.238   0.176
35253W        W 7568  20.565  25.256   1.210
35254W        W 7569  32.050  30.984  14.287
35255W        W 7570  37.217   8.165  11.654
35256W        W 7571   2.526   5.267   2.248
35257W        W 7572   0.990  14.037  14.720
35258W        W 7573  14.908  22.241   4.671
35259W        W 7574  28.338  44.681   1.434
35260W        W 7575   1.025   4.953   1.613
35261W        W 7576  38.276  24.160   0.413
35262W        W 7577  32.929   6.619   0.043
35263W        W 7578   8.639  12.339  11.978
35264W        W 7579  26.556   9.459  10.392
35265W        W 7580  38.971  22.167   3.862
35266W        W 7581  43.879  37.245  12.440
35267W        W 7582  27.529  23.001   4.701
35268W        W 7583  36.937  26.726   4.967
35269W        W 7584  13.934  39.873   1.866
35270W        W 7585  13.820  13.409  11.541
35271W        W 7586  28.203  15.782   4.322
35272W        W 7587  29.617  44.891  13.806
35273W        W 7588  32.967   1.387   3.602
35274W        W 7589  23.181  30.834  13.285
35275W        W 7590  11.893  18.063  11.141
35276W        W 7591  43.917   2.945  10.515
35277W        W 7592   7.225  10.275   2.744
35278W        W 7593   7.746  11.166  12.175
35279W        W 7594   6.602  22.121  14.336
35280W        W 7595  23.621  32.022   1.464
35281W        W 7596  28.721  28.973   0.839
35282W        W 7597  12.675  35.562   4.523
35283W        W 7598  14.119  22.162  13.953
35284W        W 7599   8.464   0.513  11.062
35285W        W 7600  21.220  33.841  12.578
35286W        W 7601  38.506   6.331   2.404
35287W        W 7602   1.008  21.550   2.800
35288W        W 7603  14.659  14.632   0.512
35289W        W 7604  18.367   5.232  13.299
35290W        W 7605   1.457   8.187   3.707
35291W        W 7606  39.396  40.529   4.625
35292W        W 7607  28.058  15.275   4.502
35293W        W 7608  44.401  24.909  10.712
35294W        W 7609  24.983  41.559  12.604
35295W        W 7610  27.935   8.568  14.203
35296W        W 7611  25.254  23.391  11.549
35297W        W 7612  24.708   1.777  10.634
35298W        W 7613  14.224  18.240   0.544
35299W        W 7614  40.786  40.970   2.282
35300W        W 7615  30.901  17.126   0.897
35301W        W 7616  10.106  34.313   0.364
35302W        W 7617  29.160  22.549  12.925
35303W        W 7618  12.365   2.911  11.911
35304W        W 7619   9.550   5.214  10.696
35305W        W 7620  21.111  37.714  10.215
35306W        W 7621  30.432  12.642  14.822
35307W        W 7622  33.178   8.287   2.778
35308W        W 7623  36.090  12.123  13.800
35309W        W 7624  17.297  28.737  13.487
35310W        W 7625  11.910  41.410   3.462
35311W        W 7626  16.326  33.554  12.675
35312W        W 7627  14.166  17.271   3.279
35313W        W 7628  18.798   5.096   5.071
35314W        W 7629  33.689  15.623   2.270
35315W        W 7630  11.240  18.817   4.075
35316W        W 7631  35.798  19.329  13.416
35317W        W 7632  11.778  27.216   0.793
35318W        W 7633  35.965  24.452   3.231
35319W        W 7634  12.473   7.709  12.476
35320W        W 7635   3.489  35.535  10.772
35321W        W 7636   6.944  30.941   4.578
35322W        W 7637  44.976  28.734   3.125
35323W        W 7638  15.030  44.888  11.460
35324W        W 7639  44.951  23.023   4.759
35325W        W 7640  23.752   9.461  11.594
35326W        W 7641   6.496  24.673   2.331
35327W        W 7642  37.328  14.202  13.083
35328W        W 7643  12.612  40.820   3.282
35329W        W 7644  31.098  33.502  11.521
35330W        W 7645  44.450  37.942   2.698
35331W        W 7646  29.206  37.815  14.497
35332W        W 7647  43.604  11.418  12.965
35333W        W 7648  44.045   1.830   4.606
35334W        W 7649   0.967  10.876  13.876
35335W        W 7650   5.702   9.388   0.711
35336W        W 7651  16.635  27.654   1.700
35337W        W 7652   4.457  31.844  11.624
35338W        W 7653  14.081  29.977  12.009
35339W        W 7654  18.802  17.026  14.481
35340W        W 7655  11.130  13.935  13.434
35341W        W 7656  20.688  44.782  13.921
35342W        W 7657  38.398  23.433   3.231
35343W        W 7658  40.408   9.366  11.132
35344W        W 7659   9.201   3.229   3.385
35345W        W 7660   7.004   2.401  12.998
35346W        W 7661  41.942   5.300   4.696
35347W        W 7662  22.464  29.047  11.612
35348W        W 7663  35.063  23.618   4.536
35349W        W 7664  31.120   0.831   0.308
35350W        W 7665  13.727  44.077   4.890
35351W        W 7666  38.048  34.557  12.376
35352W        W 7667   4.927  44.335   3.382
35353W        W 7668  13.424  31.341  14.400
35354W        W 7669  28.084  37.105  13.901
35355W        W 7670  14.328  14.328  12.814
35356W        W 7671  13.442   7.799  11.102
35357W        W 7672  39.309  27.923   3.258
35358W        W 7673   8.920  33.372   2.174
35359W        W 7674  27.601  24.149   3.570
35360W        W 7675  29.650   1.161  11.287
35361W        W 7676  29.830  41.605   3.351
35362W        W 7677  29.107  15.894  12.134
35363W        W 7678  10.112   2.916  11.635
35364W        W 7679  42.405   4.765  10.969
35365W        W 7680  19.583  37.568   4.590
35366W        W 7681  22.573  29.452   0.666
35367W        W 7682  33.981  39.471   0.914
35368W        W 7683  35.933  36.082   1.446
35369W        W 7684  32.692   0.347   2.187
35370W        W 7685  28.123  29.725   0.021
35371W        W 7686  30.456  31.174  13.083
35372W        W 7687  41.784  40.492  14.929
35373W        W 7688   4.228  42.958   0.226
35374W        W 7689  26.764  13.249   2.564
35375W        W 7690  39.381   0.047   0.067
35376W        W 7691  21.360  23.074  13.541
35377W        W 7692   6.843  37.246  12.103
35378W        W 7693   0.323   8.021  10.624
35379W        W 7694   1.570  33.999   5.548
35380W        W 7695  39.306  35.563  13.879
35381W        W 7696  16.817  21.677  14.316
35382W        W 7697  17.324  17.344   4.517
35383W        W 7698  44.307   4.310   2.696
35384W        W 7699  19.174  17.054   2.183
35385W        W 7700  32.459  16.581   1.396
35386W        W 7701  36.017  14.862  14.476
35387W        W 7702  43.870   2.810   1.395
35388W        W 7703  31.403  18.234   0.809
35389W        W 7704  32.086  17.502  13.144
35390W        W 7705  12.720  32.043  10.683
35391W        W 7706  43.860  39.512   4.366
35392W        W 7707   5.162   4.949  11.852
35393W        W 7708  21.084  30.520   1.005
35394W        W 7709  30.036  34.130   0.257
35395W        W 7710  20.620  27.267   3.789
35396W        W 7711  26.674  13.823   0.950
35397W        W 7712  38.121  12.042  12.098
35398W        W 7713  21.353  35.313   4.960
35399W        W 7714  19.691   5.863   2.594
35400W        W 7715  23.094  24.800  13.867
35401W        W 7716   6.508  32.145   1.395
35402W        W 7717  17.054  21.167   5.165
35403W        W 7718   3.744  12.967   1.513
35404W        W 7719  25.207  24.145   2.118
35405W        W 7720  37.525  43.806  13.082
35406W        W 7721  35.533  35.552   3.143
35407W        W 7722  31.104  17.215   4.099
35408W        W 7723   7.230  41.123  14.431
35409W        W 7724  38.918  31.151  13.469
35410W        W 7725  34.798  34.552  13.155
35411W        W 7726  11.881   8.127  14.932
35412W        W 7727  32.981  43.565  14.904
35413W        W 7728  44.774  38.849  10.124
35414W        W 7729  36.423   1.491  12.081
35415W        W 7730  36.057  42.673   4.753
35416W        W 7731  22.619  19.640  10.985
35417W        W 7732  19.128  42.479  11.220
35418W        W 7733  18.620  38.017  13.427
35419W        W 7734  12.887  30.662  12.701
35420W        W 7735  30.624  22.085  11.943
35421W        W 7736   7.221  39.340   4.337
35422W        W 7737   5.877  20.523   0.880
35423W        W 7738  14.409  16.749   1.518
35424W        W 7739  25.516  34.366   0.867
35425W        W 7740   8.280  20.592   1.670
35426W        W 7741  38.316   1.237  12.868
35427W        W 7742  25.228  40.382  12.340
35428W        W 7743  34.614  21.060  13.038
35429W        W 7744  29.534  22.214   1.514
35430W        W 7745  37.118   2.049   0.906
35431W        W 7746  27.107  25.587  12.769
35432W        W 7747  40.863  42.174  13.872
35433W        W 7748   3.780  28.367  14.791
35434W        W 7749  40.007  18.270   0.566
35435W        W 7750  32.109  37.593  11.190
35436W        W 7751   7.705  33.638  11.991
35437W        W 7752   0.008  12.193   3.742
35438W        W 7753  18.584  27.317   3.106
35439W        W 7754  39.566  44.266  14.455
35440W        W 7755   0.331  41.297  12.767
35441W        W 7756  38.300  37.594   0.954
35442W        W 7757  20.025  34.496  10.636
35443W        W 7758  25.289  36.257  14.804
35444W        W 7759  38.552   9.736   1.273
35445W        W 7760  43.170   8.283  14.907
35446W        W 7761   3.981  32.094  14.562
35447W        W 7762   7.939   3.993  13.654
35448W        W 7763  35.542  14.034   1.335
35449W        W 7764  18.822  15.540   0.304
35450W        W 7765  21.481   9.316   2.408
35451W        W 7766  20.408   7.216  13.722
35452W        W 7767  40.411  42.249   4.143
35453W        W 7768  33.496  10.897   1.200
35454W        W 7769   1.268  10.890  14.454
35455W        W 7770  34.618   0.352  13.819
35456W        W 7771  27.063  30.552  10.035
35457W        W 7772   5.146  40.426   4.757
35458W        W 7773  10.611  26.043   1.966
35459W        W 7774  20.021  31.705  13.459
35460W        W 7775  31.988  19.244  13.812
35461W        W 7776  44.816  33.291   3.723
35462W        W 7777  10.840  21.078  10.441
35463W        W 7778  19.724  12.010  10.999
35464W        W 7779  27.904  26.878  12.409
35465W        W 7780  21.960   7.106   2.398
35466W        W 7781  34.870  44.968   3.276
35467W        W 7782   5.277  36.428  11.876
35468W        W 7783   8.399   0.710  14.828
35469W        W 7784  24.559   3.237  13.466
35470W        W 7785  43.462  14.062  11.136
35471W        W 7786   1.957   0.706   0.225
35472W        W 7787  27.099   6.299  12.405
35473W        W 7788   6.690  24.540   3.186
35474W        W 7789   2.234   8.398   4.083
35475W        W 7790  28.829  10.744   2.908
35476W        W 7791  42.067  32.050   3.495
35477W        W 7792  43.360  13.206   0.814
35478W        W 7793  15.596  24.736   0.069
35479W        W 7794  12.756  44.194  14.864
35480W        W 7795  42.348  12.023  14.831
35481W        W 7796   3.780   9.698  14.320
35482W        W 7797  33.091  13.826   0.554
35483W        W 7798  30.544   3.960  11.632
35484W        W 7799   7.387  16.328   3.998
35485W        W 7800  24.641  10.925   0.271
35486W        W 7801  13.323  42.589  13.475
35487W        W 7802  44.842   5.457  12.999
35488W        W 7803  24.148   0.005   4.224
35489W        W 7804  23.601  40.112  12.064
35490W        W 7805  32.483  36.085   1.348
35491W        W 7806  27.736  15.396  14.366
35492W        W 7807  14.071  12.372  12.898
35493W        W 7808  13.291  34.335   3.690
35494W        W 7809  26.543  44.248  14.381
35495W        W 7810  41.424  14.523  14.458
35496W        W 7811  32.891  18.519  13.394
35497W        W 7812  29.425   6.537  10.809
35498W        W 7813  34.913   7.836   5.127
35499W        W 7814  38.846  43.450  12.226
35500W        W 7815   3.863  32.888   3.659
35501W        W 7816   0.838   4.020  10.695
35502W        W 7817  26.667   4.379  12.096
35503W        W 7818  13.050  44.906  11.025
35504W        W 7819  22.075  22.729   5.038
35505W        W 7820  20.744  24.502  12.129
35506W        W 7821  31.537   2.839  12.409
35507W        W 7822  18.099   9.071   1.800
35508W        W 7823  43.663   9.651   5.455
35509W        W 7824   3.716   5.929   2.365
35510W        W 7825  21.170  15.090  12.162
35511W        W 7826   2.253  17.050   2.362
35512W        W 7827  39.930  39.439   1.675
35513W        W 7828  21.449  27.984  10.596
35514W        W 7829  17.708  20.622  13.495
35515W        W 7830   1.447   2.983   4.937
35516W        W 7831  27.421  26.035   4.866
35517W        W 7832  10.745  29.972   3.227
35518W        W 7833  39.156  30.483   1.816
35519W        W 7834  12.658  12.330  13.273
35520W        W 7835  44.040  21.221   0.412
35521W        W 7836  16.020  37.588   0.499
35522W        W 7837   7.201  31.639   1.149
35523W        W 7838  13.553   8.953  12.953
35524W        W 7839  22.302  22.311  14.734
35525W        W 7840  32.640  36.940   1.946
35526W        W 7841   7.216  34.590   0.625
35527W        W 7842  41.618  22.157   4.698
35528W        W 7843  20.366  13.319   0.299
35529W        W 7844  18.486   9.855  12.796
35530W        W 7845  30.390  11.348  10.987
35531W        W 7846  35.011  31.974  10.744
35532W        W 7847  36.622  24.029   2.434
35533W        W 7848  23.273  28.979  12.842
35534W        W 7849   4.490  18.387   1.645
35535W        W 7850  30.723  25.936   3.222
35536W        W 7851  23.169  29.044   4.538
35537W        W 7852   7.168  10.404  11.367
35538W        W 7853   5.782  12.941   4.194
35539W        W 7854  31.972  27.767   0.642
35540W        W 7855   6.287  25.501   4.429
35541W        W 7856  19.080  41.135  10.105
35542W        W 7857  31.939  19.043  12.108
35543W        W 7858  44.965  42.542  11.984
35544W        W 7859  22.501  11.394   2.731
35545W        W 7860  44.989   3.303  11.325
35546W        W 7861  14.281  41.927  11.935
35547W        W 7862  10.092  10.207  12.587
35548W        W 7863   6.314   0.612  11.710
35549W        W 7864   9.707  25.785  13.301
35550W        W 7865   7.892  44.730  10.643
35551W        W 7866   7.395   1.727  12.009
35552W        W 7867  27.211  21.744  12.430
35553W        W 7868   4.368   7.110  13.802
35554W        W 7869  10.225   6.590   2.351
35555W        W 7870  30.675  38.200  13.384
35556W        W 7871  24.722  19.876   0.398
35557W        W 7872  27.146  38.232   2.575
35558W        W 7873  31.542  31.485  13.009
35559W        W 7874  27.412  14.361   2.214
35560W        W 7875  21.031   6.305   5.109
35561W        W 7876  42.380  39.234  10.652
35562W        W 7877  14.519   7.175   1.717
35563W        W 7878  33.615  33.921  12.693
35564W        W 7879  27.815  16.718   2.631
35565W        W 7880  38.556  39.453   2.322
35566W        W 7881  20.606  40.321  13.836
35567W        W 7882  37.345  33.934   3.661
35568W        W 7883  42.035  37.491  13.889
35569W        W 7884  43.571  23.587  11.140
35570W        W 7885  18.115  28.500   4.561
35571W        W 7886  27.593   3.185   1.721
35572W        W 7887  26.576  39.987  13.056
35573W        W 7888  25.537  23.072  11.834
35574W        W 7889  34.972  20.009   0.862
35575W        W 7890  27.262   4.149  13.280
35576W        W 7891  38.398  24.907  11.951
35577W        W 7892   2.872  16.607  13.820
35578W        W 7893  30.066  29.722   1.264
35579W        W 7894  31.552  22.133  12.007
35580W        W 7895  34.409   8.368  13.563
35581W        W 7896  16.967  32.104   4.209
35582W        W 7897  11.733  35.041  13.505
35583W        W 7898   9.425  30.338   1.711
35584W        W 7899  26.599   3.876   5.345
35585W        W 7900  42.342  34.636  14.409
35586W        W 7901  17.540  22.778  10.569
35587W        W 7902   5.934  10.351   3.246
35588W        W 7903  43.249   7.846   2.261
35589W        W 7904  27.391  34.056   3.684
35590W        W 7905  22.166  23.436  10.764
35591W        W 7906  30.839   0.498   4.202
35592W        W 7907  34.118  12.221  13.980
35593W        W 7908  20.718  26.749  12.344
35594W        W 7909  39.902  35.526  11.270
35595W        W 7910  24.002  29.232  13.852
35596W        W 7911  22.943  18.298  14.056
35597W        W 7912  12.173   1.945   0.943
35598W        W 7913   8.104  24.621  13.344
35599W        W 7914  28.586   9.724  10.458
35600W        W 7915  28.172  36.565   1.354
35601W        W 7916  28.984  36.412   0.762
35602W        W 7917  12.757  25.456   0.884
35603W        W 7918  17.755  29.979   4.616
35604W        W 7919  18.267   4.987  14.302
35605W        W 7920  26.920  12.061   5.023
35606W        W 7921  17.692  40.699   4.325
35607W        W 7922  41.688   6.815   3.553
35608W        W 7923  30.509  36.171   3.510
35609W        W 7924  44.489  41.109  11.492
35610W        W 7925  23.582  10.237   2.289
35611W        W 7926   5.529   8.523   4.162
35612W        W 7927  31.878   5.964   2.488
35613W        W 7928  14.614  30.258   4.028
35614W        W 7929  37.389  35.829  13.307
35615W        W 7930  29.450   5.741   1.333
35616W        W 7931   6.569  11.414   2.658
35617W        W 7932  43.207  44.777  14.302
35618W        W 7933  40.991   3.301  13.884
35619W        W 7934   3.784  27.585  13.777
35620W        W 7935  17.081  22.670  13.006
35621W        W 7936  15.659   2.330  10.617
35622W        W 7937  33.189   1.220  11.132
35623W        W 7938   8.879  10.758  13.947
35624W        W 7939  33.776  16.846  10.936
35625W        W 7940  42.646   1.555  13.047
35626W        W 7941  26.911  42.895  12.554
35627W        W 7942   9.858   9.892   4.237
35628W        W 7943  26.637  20.022  12.584
35629W        W 7944  18.727  13.569  14.302
35630W        W 7945  43.121   7.173   1.826
35631W        W 7946  17.365   8.225  11.093
35632W        W 7947  43.500  30.616   0.546
35633W        W 7948   4.838  39.043  10.647
35634W        W 7949  21.959  12.343   2.409
35635W        W 7950  23.249  26.447  14.346
35636W        W 7951  14.684  15.458  11.106
35637W        W 7952  20.023  22.914   4.165
35638W        W 7953  29.720  43.526   1.323
35639W        W 7954  26.618  44.096   0.772
35640W        W 7955  31.105  42.003  14.468
35641W        W 7956   5.369  11.666  14.110
35642W        W 7957  44.705  41.580  14.461
35643W        W 7958  31.479  23.623   4.552
35644W        W 7959  23.005  26.083  11.916
35645W        W 7960  21.411  39.149   1.661
35646W        W 7961  14.745  17.291   2.378
35647W        W 7962  20.389  33.641   2.990
35648W        W 7963   4.315  20.581   2.225
35649W        W 7964  41.625   2.225   1.724
35650W        W 7965  21.508  21.163  12.595
35651W        W 7966  18.834  30.117  11.988
35652W        W 7967  29.577  36.931   0.681
35653W        W 7968  41.801  28.922  14.422
35654W        W 7969  10.832  16.834   9.719
35655W        W 7970  42.511  37.979  12.533
35656W        W 7971  42.991  29.541  14.799
35657W        W 7972   2.243  23.891   2.282
35658W        W 7973   4.792  40.081   2.120
35659W        W 7974  29.848  14.791  14.239
35660W        W 7975  39.363   4.209  11.953
35661W        W 7976   5.774   6.487   3.766
35662W        W 7977  22.795  23.625   4.626
35663W        W 7978  21.676  13.234   2.836
35664W        W 7979  21.227  26.028  12.186
35665W        W 7980   9.456   6.609  13.971
35666W        W 7981  20.365  38.837  10.977
35667W        W 7982  40.993  37.116   2.701
35668W        W 7983  11.118  30.917  11.338
35669W        W 7984   9.244  30.002   4.384
35670W        W 7985  12.253  19.675   2.196
35671W        W 7986  16.153  43.774   4.666
35672W        W 7987   0.126  34.228   2.294
35673W        W 7988  17.637  39.215   0.223
35674W        W 7989  30.692   4.059   1.786
35675W        W 7990  19.949   2.785   2.100
35676W        W 7991   4.226  13.291  12.524
35677W        W 7992   3.959  37.506   4.214
35678W        W 7993  39.917   4.344   0.696
35679W        W 7994  34.970  38.352   4.565
35680W        W 7995  27.227  31.928   2.787
35681W        W 7996  27.462  41.306   2.250
35682W        W 7997  37.352  40.462  10.468
35683W        W 7998  27.332  21.204   2.206
35684W        W 7999   2.063   1.814  12.379
35685W        W 8000   1.325   1.910   0.551
35686W        W 8001  11.414   5.354   2.974
35687W        W 8002  29.429  40.484   4.513
35688W        W 8003  43.031  40.381   3.783
35689W        W 8004  34.406  29.464   1.026
35690W        W 8005  38.467  27.663  13.493
35691W        W 8006  20.117  31.801   3.214
35692W        W 8007  13.750   7.390  12.064
35693W        W 8008  12.308  22.708  12.653
35694W        W 8009   3.330  25.397   3.691
35695W        W 8010  13.320  36.119   2.673
35696W        W 8011  29.772  35.429  10.878
35697W        W 8012  43.035  23.408   2.831
35698W        W 8013  22.141   8.634   4.525
35699W        W 8014  18.659  19.601  10.897
35700W        W 8015  19.342  40.448  14.581
35701W        W 8016  15.283   8.369  12.064
35702W        W 8017  15.032  20.268  14.243
35703W        W 8018  27.264  15.245   4.147
35704W        W 8019   9.893  29.051   3.594
35705W        W 8020  17.607   3.919   1.744
35706W        W 8021  20.665   3.185  11.474
35707W        W 8022  32.849  25.390  13.615
35708W        W 8023  42.461  35.573  14.352
35709W        W 8024  43.252  26.284   1.870
35710W        W 8025  33.482   4.219  14.746
35711W        W 8026  27.618  40.518  14.358
35712W        W 8027  27.191   6.989  14.518
35713W        W 8028   5.629  20.253   1.289
35714W        W 8029  13.281  15.791   0.321
35715W        W 8030  21.716  35.828  14.784
35716W        W 8031   2.070  29.020   4.567
35717W        W 8032  13.921   7.649   3.668
35718W        W 8033  22.929  12.500   2.310
35719W        W 8034   1.754   6.185  13.840
35720W        W 8035  39.527  44.927   0.995
35721W        W 8036  35.894  40.711   0.281
35722W        W 8037  23.527  36.931   3.285
35723W        W 8038  34.149   6.336  12.891
35724W        W 8039   4.273  30.854  11.482
35725W        W 8040  13.891   5.412  11.128
35726W        W 8041  31.094  34.580   3.725
35727W        W 8042  33.675  29.844   2.411
35728W        W 8043  23.480  13.200   1.197
35729W        W 8044  23.533  12.062  14.305
35730W        W 8045  26.107  32.125  10.672
35731W        W 8046  31.518  20.483   1.574
35732W        W 8047  12.331  44.641   3.332
35733W        W 8048  16.990  36.405  10.427
35734W        W 8049  32.331  25.583   2.397
35735W        W 8050  38.119  29.903  12.952
35736W        W 8051  11.590  33.109   2.791
35737W        W 8052  22.281  29.107   1.590
35738W        W 8053   0.372  42.133  11.207
35739W        W 8054  28.518  16.753   1.308
35740W        W 8055  12.740  30.382   1.478
35741W        W 8056  40.860   3.069  11.558
35742W        W 8057  10.817  37.768   1.206
35743W        W 8058   4.721  24.251  10.577
35744W        W 8059  43.439  36.461  12.547
35745W        W 8060   3.495  17.384   4.157
35746W        W 8061  38.832  22.102  14.754
35747W        W 8062  14.586  36.002   3.705
35748W        W 8063  18.197  40.600   2.250
35749W        W 8064  16.046  12.949  13.547
35750W        W 8065  40.808  42.716   3.709
35751W        W 8066  44.822  42.478   0.305
35752W        W 8067  20.225  38.417   2.591
35753W        W 8068   3.311  31.474   3.409
35754W        W 8069   8.403   8.477  11.111
35755W        W 8070  21.085  39.941  14.004
35756W        W 8071   8.767  43.361  11.250
35757W        W 8072   2.901  25.122   1.870
35758W        W 8073  41.360   8.841  13.508
35759W        W 8074  12.791  18.845   4.506
35760W        W 8075  10.890   0.195  14.478
35761W        W 8076  11.346   1.563   1.868
35762W        W 8077  31.450  42.021  11.169
35763W        W 8078   5.395  36.428  12.876
35764W        W 8079   5.920  11.263  11.845
35765W        W 8080  30.028  18.152  10.989
35766W        W 8081  40.851  33.039  11.130
35767W        W 8082   4.252  32.953   4.630
35768W        W 8083  42.077   2.154   4.413
35769W        W 8084   8.326  17.999   4.661
35770W        W 8085  15.324  39.925   1.846
35771W        W 8086  21.976  25.431  13.894
35772W        W 8087  20.261  24.437   3.179
35773W        W 8088  25.801  35.521  12.432
35774W        W 8089  35.984  33.054  10.755
35775W        W 8090  28.709  32.056  10.235
35776W        W 8091  16.198  26.918  13.839
35777W        W 8092  40.415  27.997   0.306
35778W        W 8093  21.282  29.073   1.882
35779W        W 8094  18.248  22.721   1.764
35780W        W 8095   6.103  37.448   1.782
35781W        W 8096   0.867   2.172   2.547
35782W        W 8097   3.529  16.608  11.545
35783W        W 8098   7.423  17.635   0.494
35784W        W 8099  38.543  16.842   1.742
35785W        W 8100   1.279  25.559   3.231
35786W        W 8101  36.582  22.588  14.957
35787W        W 8102  43.327   8.698   3.395
35788W        W 8103  34.187  26.219  14.098
35789W        W 8104  21.908  44.293  13.341
35790W        W 8105  39.821  37.311   2.322
35791W        W 8106  28.887  32.800  14.831
35792W        W 8107  36.362  31.796   5.328
35793W        W 8108  23.972   0.767   3.884
35794W        W 8109   1.476  44.309   0.096
35795W        W 8110  26.020  26.173  13.705
35796W        W 8111  24.982  27.639  14.793
35797W        W 8112   8.249  28.529   2.169
35798W        W 8113  13.020  18.274   4.133
35799W        W 8114  29.592  43.804   1.755
35800W        W 8115   5.942   8.202  12.688
35801W        W 8116  27.709   8.813   2.313
35802W        W 8117  33.031  10.893  12.978
35803W        W 8118  16.783  38.981   3.796
35804W        W 8119  11.472  11.564  11.316
35805W        W 8120  14.242  35.444   0.019
35806W        W 8121  16.635   7.418   3.291
35807W        W 8122  35.971  29.912  12.842
35808W        W 8123   8.181  38.618  14.136
35809W        W 8124  37.057   1.400  13.174
35810W        W 8125  34.979  15.671   4.478
35811W        W 8126   1.867  34.267  13.935
35812W        W 8127   6.943  43.941  10.439
35813W        W 8128   9.830  12.858   4.648
35814W        W 8129  22.222  12.256  12.072
35815W        W 8130  34.961   5.561  10.434
35816W        W 8131  37.881  13.211   5.131
35817W        W 8132   7.912  20.022   3.967
35818W        W 8133  23.856  38.581   0.968
35819W        W 8134  15.547  35.918   0.121
35820W        W 8135   3.723  40.765  13.533
35821W        W 8136  38.762  25.695   0.882
35822W        W 8137   0.409  17.502   0.282
35823W        W 8138  42.930  13.402  12.549
35824W        W 8139  17.573  21.174   5.040
35825W        W 8140  28.656   6.757  13.288
35826W        W 8141  12.950   0.372  11.362
35827W        W 8142  11.812  21.521   0.361
35828W        W 8143  16.709  34.175  11.851
35829W        W 8144  33.080  13.143  13.860
35830W        W 8145  21.967  28.557   3.694
35831W        W 8146   7.084  32.776   3.937
35832W        W 8147  43.942  10.031   0.898
35833W        W 8148  14.651   3.244   3.313
35834W        W 8149  24.026  10.856   1.839
35835W        W 8150  21.553  33.721   1.484
35836W        W 8151  39.887  37.302  10.504
35837W        W 8152  13.862  41.492   1.523
35838W        W 8153  35.996  33.571  14.850
35839W        W 8154  18.635  42.609   2.741
35840W        W 8155  10.682  32.437  13.922
35841W        W 8156  17.836   4.256  12.662
35842W        W 8157  23.186  36.470   0.585
35843W        W 8158   7.930  22.589  11.621
35844W        W 8159   6.892  14.778  12.536
35845W        W 8160  20.009  14.863   2.892
35846W        W 8161  14.495  31.574  12.436
35847W        W 8162  39.829  33.452   0.745
35848W        W 8163   3.078  38.488  13.345
35849W        W 8164  38.457  35.072   1.656
35850W        W 8165  23.899  28.749  13.811
35851W        W 8166  36.623  44.704   3.610
35852W        W 8167  37.472  42.180   3.382
35853W        W 8168   3.426  30.916   4.852
35854W        W 8169  39.579  37.573  11.449
35855W        W 8170  31.903  23.040  12.079
35856W        W 8171  27.380  37.243   4.302
35857W        W 8172  25.691  37.652   4.097
35858W        W 8173  18.091  20.453   0.289
35859W        W 8174   9.286  39.876   4.537
35860W        W 8175  17.178  27.319   2.467
35861W        W 8176  36.410  24.952  11.115
35862W        W 8177   9.145  37.970   0.298
35863W        W 8178  26.505  39.982   2.685
35864W        W 8179  31.904  35.639   3.299
35865W        W 8180  18.185  35.983   3.179
35866W        W 8181  43.294  40.094  12.428
35867W        W 8182  15.548  22.739   1.353
35868W        W 8183  17.130  34.370  13.431
35869W        W 8184  25.907  21.540   1.439
35870W        W 8185  20.964  33.394   1.806
35871W        W 8186  22.695  16.468  11.823
35872W        W 8187   2.787  19.129   1.812
35873W        W 8188  39.602  25.874  11.948
35874W        W 8189  30.139  38.931   4.536
35875W        W 8190  39.354  44.992  12.619
35876W        W 8191  42.755   6.884  14.877
35877W        W 8192  37.046  27.617  13.461
35878W        W 8193  23.052  23.221  13.922
35879W        W 8194  21.935   5.407   3.981
35880W        W 8195  32.885  11.621   2.077
35881W        W 8196  30.643   2.716  11.423
35882W        W 8197  38.520  44.564  14.830
35883W        W 8198  25.651  23.518  14.341
35884W        W 8199  12.779  11.672  14.402
35885W        W 8200  22.496  30.234  14.433
35886W        W 8201  27.669  35.419   1.465
35887W        W 8202  33.049   1.440  10.684
35888W        W 8203  31.838  26.509  13.839
35889W        W 8204  28.954  36.094   2.369
35890W        W 8205   1.137   2.956   0.399
35891W        W 8206  35.911  23.033   2.817
35892W        W 8207  15.111  17.014   0.746
35893W        W 8208   2.483  32.110  12.549
35894W        W 8209   9.394   3.862   4.050
35895W        W 8210  40.519   6.649  14.034
35896W        W 8211   6.778   0.701  11.491
35897W        W 8212  43.311   8.967  13.607
35898W        W 8213  20.509  40.008  12.052
35899W        W 8214  30.994  35.926  13.977
35900W        W 8215  20.131  13.611  11.080
35901W        W 8216  10.364  28.563   1.428
35902W        W 8217  33.229  41.976   0.481
35903W        W 8218   6.857   3.885   2.358
35904W        W 8219  39.593  38.877   1.791
35905W        W 8220  32.385  44.816   3.555
35906W        W 8221  34.674  38.520  14.844
35907W        W 8222  40.042  16.217   0.636
35908W        W 8223  41.059  20.133   0.758
35909W        W 8224  44.390   8.757   4.230
35910W        W 8225   3.763  36.838   3.202
35911W        W 8226  24.565  15.659  11.222
35912W        W 8227  30.533  40.607   3.105
35913W        W 8228   8.884   6.824   4.663
35914W        W 8229  23.497  36.474   1.929
35915W        W 8230   5.586  38.033   3.752
35916W        W 8231   1.604  42.245  10.819
35917W        W 8232  21.683  28.071  14.763
35918W        W 8233   8.167  18.620  11.470
35919W        W 8234   6.190  21.652  14.845
35920W        W 8235   2.248   6.950  12.412
35921W        W 8236  27.977  37.866   4.307
35922W        W 8237  29.724  28.596   4.169
35923W        W 8238  38.860  14.723   2.878
35924W        W 8239  38.771  21.255  12.960
35925W        W 8240  28.615  18.953  10.697
35926W        W 8241  36.280  12.799  10.686
35927W        W 8242  14.925  40.034   4.067
35928W        W 8243  43.311   5.717   4.134
35929W        W 8244   6.226  13.294   3.321
35930W        W 8245  13.356   4.178  12.519
35931W        W 8246  26.094  25.631  11.172
35932W        W 8247  40.479   3.468   9.912
35933W        W 8248  28.132  12.618  10.628
35934W        W 8249  36.853   7.151  13.769
35935W        W 8250  21.531   1.218   1.398
35936W        W 8251  17.255  32.980  14.906
35937W        W 8252  32.399   8.725   1.876
35938W        W 8253  31.514  16.977   1.364
35939W        W 8254  35.344   4.416   0.002
35940W        W 8255   2.268  14.086  12.360
35941W        W 8256  12.324  13.887  14.901
35942W        W 8257  36.301  29.479  12.541
35943W        W 8258  37.937  32.987  11.500
35944W        W 8259  36.028   4.399  10.630
35945W        W 8260  42.585  32.122   1.996
35946W        W 8261   9.228  26.150  13.857
35947W        W 8262  31.593  19.984  14.002
35948W        W 8263   3.166  44.394   0.843
35949W        W 8264   4.249  14.117   5.105
35950W        W 8265  25.007  16.777  11.565
35951W        W 8266  10.392   9.128  14.246
35952W        W 8267  39.996  19.677  12.516
35953W        W 8268  28.970   5.459  11.449
35954W        W 8269  23.121  17.333  13.372
35955W        W 8270  27.572  26.209   2.629
35956W        W 8271  17.828   0.990  14.578
35957W        W 8272  30.425  34.020   4.547
35958W        W 8273   2.947  15.866   4.060
35959W        W 8274  36.602   1.449  13.873
35960W        W 8275  22.582  43.884  14.216
35961W        W 8276  20.256   7.995  14.513
35962W        W 8277   6.980  20.035  14.886
35963W        W 8278  19.785  39.434   1.217
35964W        W 8279  30.820  43.456   0.304
35965W        W 8280   1.991  44.293   3.228
35966W        W 8281  38.751  38.398   2.674
35967W        W 8282  25.783  44.974   0.858
35968W        W 8283  29.957   7.345   4.185
35969W        W 8284  44.059  22.250   0.063
35970W        W 8285   2.931  44.607   0.377
35971W        W 8286  10.694   8.967  11.898
35972W        W 8287  31.523  12.855   0.333
35973W        W 8288  21.780  40.027  14.758
35974W        W 8289   9.881  26.967   3.421
35975W        W 8290  17.728  40.840   0.811
35976W        W 8291  21.259  30.050   1.769
35977W        W 8292  43.538  25.052  12.513
35978W        W 8293  39.387   3.006   3.305
35979W        W 8294  30.469  14.218  10.259
35980W        W 8295  30.737  26.128  10.696
35981W        W 8296  40.535  41.980  11.103
35982W        W 8297  17.779  29.578  12.722
35983W        W 8298  13.309   3.281  13.882
35984W        W 8299  18.187  24.985  10.509
35985W        W 8300   6.598  13.314  13.391
35986W        W 8301  37.958  44.244   3.732
35987W        W 8302  21.590   0.947  10.162
35988W        W 8303   0.022  24.143   0.236
35989W        W 8304  32.555  11.434   1.453
35990W        W 8305  33.458   3.050  11.495
35991W        W 8306  22.449   5.902  12.177
35992W        W 8307  26.133  13.253  10.477
35993W        W 8308   0.902  10.821   4.994
35994W        W 8309   1.679  30.966   3.808
35995W        W 8310  27.024  28.617  14.180
35996W        W 8311  13.617   9.741  10.592
35997W        W 8312  34.597  42.910   2.018
35998W        W 8313  39.913  11.988  10.785
35999W        W 8314   5.884  36.425   1.361
36000W        W 8315  27.338  25.531  12.156
36001W        W 8316  18.754  29.718   4.763
36002W        W 8317  26.755  34.247   0.349
36003W        W 8318  19.151   2.016  14.923
36004W        W 8319  14.163   8.610  11.527
36005W        W 8320  22.129  32.001  12.493
36006W        W 8321   5.327   8.308  14.874
36007W        W 8322  40.267  22.796   0.447
36008W        W 8323   7.283  14.464  11.655
36009W        W 8324  36.971  24.246   2.739
36010W        W 8325  22.116  10.427  13.420
36011W        W 8326  23.446  35.410  11.954
36012W        W 8327  43.451  36.971  12.489
36013W        W 8328   1.357  37.405  13.930
36014W        W 8329  22.552   1.326  11.933
36015W        W 8330  17.634  15.212   3.855
36016W        W 8331  20.214  20.783  12.840
36017W        W 8332  19.368   8.571   5.534
36018W        W 8333  32.871  38.769  14.205
36019W        W 8334  33.714  27.446  11.840
36020W        W 8335   6.635  36.454  12.504
36021W        W 8336  30.676  24.732   1.443
36022W        W 8337  21.346  44.492  11.970
36023W        W 8338  44.684  26.995   2.591
36024W        W 8339  34.780  25.217   1.843
36025W        W 8340  14.088   1.444   1.173
36026W        W 8341  10.583  17.967  10.672
36027W        W 8342   4.979  22.625  13.882
36028W        W 8343  24.856  38.540  11.451
36029W        W 8344  19.789  40.106  14.936
36030W        W 8345  21.060   2.305  13.627
36031W        W 8346   0.674  20.399   2.591
36032W        W 8347  23.248  30.162   0.914
36033W        W 8348  25.444  11.132  12.566
36034W        W 8349  13.587   0.180  14.007
36035W        W 8350  33.532  42.488  10.615
36036W        W 8351  37.103  22.911   1.019
36037W        W 8352   2.511  14.063   4.518
36038W        W 8353  13.889  29.185   4.285
36039W        W 8354  18.244  22.490   1.249
36040W        W 8355  18.207  40.858  11.526
36041W        W 8356  38.376   1.539   1.553
36042W        W 8357   2.079  38.519  13.511
36043W        W 8358  14.797  41.859  11.922
36044W        W 8359  21.849  31.487   2.794
36045W        W 8360  20.976  20.031   1.893
36046W        W 8361  31.402   0.918   4.002
36047W        W 8362  41.993  12.708   0.756
36048W        W 8363  34.670  22.324  11.273
36049W        W 8364  25.207  11.159  10.633
36050W        W 8365   6.910   2.740  13.424
36051W        W 8366  11.346  17.192  11.272
36052W        W 8367  11.671   1.637  14.701
36053W        W 8368  25.194  32.200  14.360
36054W        W 8369  10.888  23.479  13.965
36055W        W 8370  30.905  20.203   2.255
36056W        W 8371  17.253  35.511  11.396
36057W        W 8372  21.997   5.263  11.900
36058W        W 8373  40.423   3.866  13.419
36059W        W 8374  29.205  13.290  12.050
36060W        W 8375  21.661  41.560   3.320
36061W        W 8376   8.499  30.375   0.520
36062W        W 8377  14.100  30.466  10.703
36063W        W 8378   9.372  41.703  13.872
36064W        W 8379  39.879   0.346   0.939
36065W        W 8380  21.443  39.728   5.132
36066W        W 8381  26.119  17.151   2.401
36067W        W 8382  12.088  25.946   4.370
36068W        W 8383  39.336   3.298  11.866
36069W        W 8384  28.010  42.849   2.630
36070W        W 8385  10.091  25.467  11.961
36071W        W 8386  35.466   7.200   4.305
36072W        W 8387   3.123   5.021   4.068
36073W        W 8388  14.952   3.715   4.123
36074W        W 8389  13.841  29.078  13.218
36075W        W 8390  23.224  38.828  11.709
36076W        W 8391  42.480  42.372   2.226
36077W        W 8392  39.238   0.768   4.621
36078W        W 8393  24.509  42.769  13.008
36079W        W 8394  16.523  21.254  14.193
36080W        W 8395  10.496  31.402  13.991
36081W        W 8396   9.186   6.563  12.374
36082W        W 8397  21.659  41.561  12.962
36083W        W 8398  44.127  35.101  14.888
36084W        W 8399  42.625   4.665   5.024
36085W        W 8400  14.270   3.581   1.767
36086W        W 8401   1.785   8.889   1.716
36087W        W 8402  30.964  23.698   4.591
36088W        W 8403  28.520  43.711  10.512
36089W        W 8404  33.526  12.613  14.417
36090W        W 8405  23.428   2.456  10.741
36091W        W 8406   3.062  14.508  12.874
36092W        W 8407  32.486   6.959  12.508
36093W        W 8408  44.859  28.731  12.999
36094W        W 8409  34.453  39.509   0.482
36095W        W 8410  22.729   9.911  12.028
36096W        W 8411  10.383   0.764  12.465
36097W        W 8412  32.584  14.290  13.844
36098W        W 8413  34.340   4.906   2.243
36099W        W 8414  42.039  19.089   1.430
36100W        W 8415  13.076   0.529   0.422
36101W        W 8416  30.363  33.558   4.235
36102W        W 8417   6.981  39.985   1.729
36103W        W 8418  27.598  25.940   0.894
36104W        W 8419  11.688  42.025  11.327
36105W        W 8420  10.122   6.773   2.822
36106W        W 8421  32.165  36.542  11.526
36107W        W 8422  13.100   8.389  12.392
36108W        W 8423  20.330  38.539   5.014
36109W        W 8424   5.142  36.031  13.997
36110W        W 8425  17.639   7.746   4.831
36111W        W 8426  20.584  30.169  13.477
36112W        W 8427  37.716  25.957  13.624
36113W        W 8428  32.139   9.400  14.386
36114W        W 8429  14.574   0.729  11.088
36115W        W 8430  39.450  28.501  13.000
36116W        W 8431  37.617  25.861   5.161
36117W        W 8432  10.642  19.573  10.233
36118W        W 8433   5.445   0.776  12.942
36119W        W 8434   8.666  11.257  14.855
36120W        W 8435  27.911  14.009   0.443
36121W        W 8436  43.437  24.508  14.755
36122W        W 8437  25.230  25.003   2.341
36123W        W 8438  15.758  44.554   2.398
36124W        W 8439   4.448  17.576  12.584
36125W        W 8440  15.859  41.377  11.695
36126W        W 8441  23.035  32.030  11.094
36127W        W 8442  24.308  16.310   1.707
36128W        W 8443   1.547  25.630   2.786
36129W        W 8444   3.888  41.736   4.615
36130W        W 8445  40.251  28.105   4.666
36131W        W 8446  21.336   1.387  14.282
36132W        W 8447  20.732  27.156  13.331
36133W        W 8448  19.817  42.847   0.831
36134W        W 8449   6.684  27.190   0.319
36135W        W 8450  40.022  31.128   3.692
36136W        W 8451  16.239  28.186  11.552
36137W        W 8452  17.063  17.641  13.574
36138W        W 8453   3.057  31.924   0.334
36139W        W 8454  41.470  44.814   2.258
36140W        W 8455  42.420  11.826  12.315
36141W        W 8456  28.120  10.762   5.280
36142W        W 8457  20.083   0.720  10.644
36143W        W 8458   0.940  33.976   0.878
36144W        W 8459  25.538  29.030   0.122
36145W        W 8460  30.932  23.599   4.095
36146W        W 8461   4.201  32.036  10.967
36147W        W 8462  10.793   0.003   3.392
36148W        W 8463   2.665  15.030  12.093
36149W        W 8464  39.906  15.187   0.826
36150W        W 8465  20.604  24.903   0.006
36151W        W 8466  33.520  27.083  11.121
36152W        W 8467  13.692   7.175  14.973
36153W        W 8468  33.426  35.933  10.773
36154W        W 8469  17.673  43.233  13.971
36155W        W 8470  17.506  39.496   1.998
36156W        W 8471   0.706  10.126  11.282
36157W        W 8472  30.428  29.735   4.591
36158W        W 8473  20.545  11.275  11.767
36159W        W 8474  13.807  42.409  12.570
36160W        W 8475  24.167   0.835  10.695
36161W        W 8476  18.135  21.572   2.166
36162W        W 8477  42.257  23.531   2.907
36163W        W 8478   5.871  40.352   0.889
36164W        W 8479  20.280  36.988  12.904
36165W        W 8480  39.289  44.286   3.913
36166W        W 8481   5.398  30.516   0.469
36167W        W 8482  32.939  31.437  11.461
36168W        W 8483  29.419  42.434   2.868
36169W        W 8484  33.030  44.709  13.896
36170W        W 8485  36.872  38.449   3.136
36171W        W 8486   0.830  11.227  14.521
36172W        W 8487  26.400  33.410   5.433
36173W        W 8488  44.243  15.833  12.910
36174W        W 8489  32.545  35.087   0.732
36175W        W 8490   4.328  35.458   1.838
36176W        W 8491  24.172  35.624  12.436
36177W        W 8492  39.425  37.086   3.808
36178W        W 8493   0.405  20.694  14.278
36179W        W 8494  23.670  28.555   2.970
36180W        W 8495  41.593  25.412  11.986
36181W        W 8496  29.495   4.481  10.719
36182W        W 8497   0.049  39.949   3.382
36183W        W 8498   8.462  36.811  12.910
36184W        W 8499   7.427  20.792   4.106
36185W        W 8500  40.518  31.011  14.906
36186W        W 8501  11.202  44.933   4.708
36187W        W 8502  41.454   2.956   3.594
36188W        W 8503  39.863  39.401  14.374
36189W        W 8504  24.869  32.110  10.731
36190W        W 8505  38.423   9.657   4.510
36191W        W 8506   7.369   0.408   1.247
36192W        W 8507   4.013   8.908   3.328
36193W        W 8508  11.431   4.687   3.799
36194W        W 8509  20.578   4.020  14.324
36195W        W 8510  14.854  13.909   3.669
36196W        W 8511  38.868  16.115   3.151
36197W        W 8512  24.955  21.206   0.910
36198W        W 8513   2.364   6.426   2.646
36199W        W 8514  12.119  43.330  14.206
36200W        W 8515  24.958  27.268   0.185
36201W        W 8516   8.210   4.834   3.551
36202W        W 8517  13.595  19.271   1.303
36203W        W 8518  18.622  44.460   4.884
36204W        W 8519  18.118   9.427  13.775
36205W        W 8520  25.196  37.828  10.425
36206W        W 8521  39.656  37.967  12.347
36207W        W 8522  28.916  21.365   4.105
36208W        W 8523   3.132   5.945   3.239
36209W        W 8524  11.667  44.058  13.548
36210W        W 8525   6.447  36.886  10.560
36211W        W 8526   5.683  25.257   1.261
36212W        W 8527  21.088  24.174   1.216
36213W        W 8528   1.382  42.685   2.910
36214W        W 8529  25.717  20.937   1.818
36215W        W 8530  36.016  30.638   3.286
36216W        W 8531   3.669  32.968   0.293
36217W        W 8532  29.122  36.447   3.333
36218W        W 8533  42.278  43.724   2.105
36219W        W 8534  28.738  16.728  11.145
36220W        W 8535   2.571  35.138   2.296
36221W        W 8536  21.716  14.272   1.031
36222W        W 8537  22.531  31.960   3.514
36223W        W 8538  14.116   6.287  11.100
36224W        W 8539  30.640  27.690   3.750
36225W        W 8540   3.450   3.328  11.321
36226W        W 8541  13.277   9.339  10.761
36227W        W 8542  14.139   5.453   4.723
36228W        W 8543  17.119  36.588  13.990
36229W        W 8544   2.736  21.201  13.648
36230W        W 8545   3.958   3.539  13.880
36231W        W 8546   0.469  34.609   0.295
36232W        W 8547  19.344  13.717  11.504
36233W        W 8548  16.200   6.749   4.211
36234W        W 8549   6.766  10.666  12.400
36235W        W 8550  35.639  32.960   3.397
36236W        W 8551  41.301   8.490   4.187
36237W        W 8552  42.178  37.541   4.738
36238W        W 8553  17.242  20.151   0.785
36239W        W 8554  16.932  28.145   2.874
36240W        W 8555  13.117  41.906  13.851
36241W        W 8556  29.054  24.877   0.936
36242W        W 8557  27.511   0.003   4.617
36243W        W 8558  20.136  11.982  13.777
36244W        W 8559  14.908  41.356  11.947
36245W        W 8560  30.636   1.883   1.752
36246W        W 8561  32.040   4.786   0.961
36247W        W 8562  29.136  34.871   4.313
36248W        W 8563   7.796   7.591  14.121
36249W        W 8564  27.686  12.451   0.971
36250W        W 8565  17.051  40.618  11.979
36251W        W 8566  36.471  45.000   4.661
36252W        W 8567  25.178  12.814   2.796
36253W        W 8568  19.754  12.223  13.552
36254W        W 8569  11.633  18.106   3.276
36255W        W 8570  10.762  39.055   3.666
36256W        W 8571   5.276  12.248   3.764
36257W        W 8572  43.542  35.993   4.659
36258W        W 8573   3.987  25.618  10.997
36259W        W 8574   6.500  14.300   1.794
36260W        W 8575  29.563  17.750  12.258
36261W        W 8576  17.285  16.229  14.768
36262W        W 8577  18.049  14.160  12.002
36263W        W 8578   4.413  43.315  11.411
36264W        W 8579  35.775  37.974   0.503
36265W        W 8580  31.614  33.231   1.883
36266W        W 8581  11.152  23.061  11.362
36267W        W 8582  39.863   4.331  12.025
36268W        W 8583  13.623  19.341  11.908
36269W        W 8584  26.002  21.097   0.194
36270W        W 8585  33.475  43.956  12.048
36271W        W 8586   1.000  14.256   1.849
36272W        W 8587  26.039  41.804  14.529
36273W        W 8588  43.236  35.988  10.731
36274W        W 8589  26.802  31.019   1.781
36275W        W 8590  17.193  38.893  12.577
36276W        W 8591   7.501   9.158   1.217
36277W        W 8592  23.046  16.534  11.066
36278W        W 8593  27.096  43.430  11.934
36279W        W 8594  39.117  26.300   5.004
36280W        W 8595  37.157  26.441  11.490
36281W        W 8596  24.289  32.768  11.170
36282W        W 8597  11.211  19.712   1.256
36283W        W 8598   7.973  19.102  12.979
36284W        W 8599   4.067  27.950  14.665
36285W        W 8600  18.026  15.603   4.696
36286W        W 8601  44.209   9.708   4.545
36287W        W 8602  36.900   6.422  14.460
36288W        W 8603  28.607   3.370   4.529
36289W        W 8604  38.141   2.253   3.403
36290W        W 8605  13.177  41.323   3.621
36291W        W 8606   7.851  42.827  10.322
36292W        W 8607  34.024  40.114  10.055
36293W        W 8608  13.613  16.171   3.808
36294W        W 8609  40.868  36.762   4.041
36295W        W 8610  36.031   0.208  13.008
36296W        W 8611  13.264  25.986  11.324
36297W        W 8612  18.686   2.507   3.254
36298W        W 8613  22.361  44.335   3.745
36299W        W 8614  16.574  15.813   4.575
36300W        W 8615   0.889   4.269   3.631
36301W        W 8616   1.307  11.059   5.434
36302W        W 8617  24.515  18.466   3.413
36303W        W 8618   0.930  17.616  14.006
36304W        W 8619  41.581  34.513  12.563
36305W        W 8620  32.466  33.788   4.515
36306W        W 8621  17.055  37.181  12.061
36307W        W 8622  38.967  42.839   4.199
36308W        W 8623   5.928   9.367  12.963
36309W        W 8624   2.936  15.704  13.362
36310W        W 8625  29.412  22.082  14.128
36311W        W 8626   9.357  35.792   3.331
36312W        W 8627   6.714  10.159  12.108
36313W        W 8628  15.607   2.991   3.173
36314W        W 8629  35.893  27.097   1.841
36315W        W 8630  17.108  40.850  12.448
36316W        W 8631  18.587  13.091   0.227
36317W        W 8632   3.437  41.530   5.120
36318W        W 8633   8.868  18.272   1.214
36319W        W 8634   4.749  36.821  12.060
36320W        W 8635  38.973  16.236   4.164
36321W        W 8636  16.742   0.691   0.455
36322W        W 8637  24.755  33.367   2.885
36323W        W 8638  11.130  31.132   3.283
36324W        W 8639  10.938  18.786  13.392
36325W        W 8640  42.831  11.356   0.300
36326W        W 8641  30.588  37.550  11.040
36327W        W 8642  41.866  11.803   4.115
36328W        W 8643  44.492   0.826   0.304
36329W        W 8644  28.701  29.712   2.281
36330W        W 8645   1.276  34.540   1.746
36331W        W 8646  15.155   7.300  14.944
36332W        W 8647  17.823  31.563   2.744
36333W        W 8648  43.264  12.119   1.064
36334W        W 8649  38.994  33.442  12.437
36335W        W 8650  44.841   4.319   2.729
36336W        W 8651  31.552   4.387   3.685
36337W        W 8652  31.999  18.564  12.389
36338W        W 8653   7.138  33.515   3.848
36339W        W 8654  23.594  37.950   0.798
36340W        W 8655  37.086  21.066  13.373
36341W        W 8656  34.501  11.202   0.832
36342W        W 8657  18.691   0.039   0.801
36343W        W 8658  26.655  38.774  13.528
36344W        W 8659  16.845  37.883   2.805
36345W        W 8660  41.437  34.628   4.560
36346W        W 8661  42.533  21.057   0.502
36347W        W 8662  19.213  14.220  13.550
36348W        W 8663  30.226  37.480  10.687
36349W        W 8664  22.515  20.836   3.396
36350W        W 8665  34.857  32.573   3.236
36351W        W 8666  25.614  29.647   3.032
36352W        W 8667  41.739  31.636  14.576
36353W        W 8668  36.080  26.609   4.621
36354W        W 8669  27.318  34.509   1.683
36355W        W 8670  44.351  23.961  10.905
36356W        W 8671  38.897  39.635  12.078
36357W        W 8672  17.040  34.475   2.278
36358W        W 8673  23.470  29.596   2.240
36359W        W 8674  41.009  24.677   0.847
36360W        W 8675   6.384  31.916  14.274
36361W        W 8676   1.160  43.893   3.282
36362W        W 8677  18.142  21.579  13.011
36363W        W 8678  19.090  17.317   0.365
36364W        W 8679  39.878  28.430  10.701
36365W        W 8680  44.804  33.614   4.166
36366W        W 8681  10.713  27.880  10.585
36367W        W 8682   4.939   8.657  14.194
36368W        W 8683   6.602  20.317   3.684
36369W        W 8684  22.599  19.238   3.334
36370W        W 8685  16.897  20.324   2.360
36371W        W 8686  25.214  43.075   9.921
36372W        W 8687  25.678  10.341   0.289
36373W        W 8688  21.188  21.339  14.263
36374W        W 8689  36.884  14.861   1.374
36375W        W 8690  16.603  28.099   9.785
36376W        W 8691  34.369  42.569  12.423
36377W        W 8692   6.197  23.814  11.060
36378W        W 8693  26.713  10.808  10.508
36379W        W 8694  12.213  30.005   4.252
36380W        W 8695  42.245  38.393  13.279
36381W        W 8696  10.177  39.942   4.238
36382W        W 8697  24.142  19.093  14.250
36383W        W 8698   5.762  37.350   0.377
36384W        W 8699  22.641  39.136   1.360
36385W        W 8700  32.119  18.092  14.463
36386W        W 8701  16.015  42.614  12.844
36387W        W 8702  37.631  21.519  12.478
36388W        W 8703  36.053  11.095   0.363
36389W        W 8704  35.539   8.911  10.899
36390W        W 8705  42.238   9.876   2.906
36391W        W 8706   5.192   3.924   4.892
36392W        W 8707  36.296  27.120  10.801
36393W        W 8708  30.406  42.939  12.491
36394W        W 8709  15.791  28.418  11.572
36395W        W 8710  22.042  28.515  13.742
36396W        W 8711  38.920  15.365   2.315
36397W        W 8712   7.518   7.458   4.500
36398W        W 8713  34.505  24.627   3.175
36399W        W 8714  43.052  21.694  12.108
36400W        W 8715   5.452   7.813  12.944
36401W        W 8716  20.937  31.527  10.630
36402W        W 8717  18.811   7.891  11.035
36403W        W 8718  23.712  17.472   0.917
36404W        W 8719  28.849  18.814   1.626
36405W        W 8720  17.764  10.600  10.538
36406W        W 8721  14.230   4.853  11.558
36407W        W 8722  18.243   0.328  12.243
36408W        W 8723  43.532  30.717   3.305
36409W        W 8724  40.874  30.521  14.209
36410W        W 8725  28.367  23.226   2.790
36411W        W 8726  14.987   9.859   0.824
36412W        W 8727   3.979   4.359   3.142
36413W        W 8728  30.118  10.725  13.636
36414W        W 8729  28.398  41.122  11.420
36415W        W 8730  28.166  28.905  10.656
36416W        W 8731   2.724   4.233   3.758
36417W        W 8732  26.495  22.589  10.577
36418W        W 8733   5.162  34.842  11.785
36419W        W 8734  14.349  33.519   1.251
36420W        W 8735  37.631  31.148  14.833
36421W        W 8736  38.955  29.423   3.188
36422W        W 8737  37.396  17.892   3.203
36423W        W 8738  36.147   4.782  11.752
36424W        W 8739  20.161  22.498  13.439
36425W        W 8740   4.678  34.886   2.425
36426W        W 8741   9.915  25.268  11.077
36427W        W 8742  35.952   7.265   3.548
36428W        W 8743  41.798  41.894  12.090
36429W        W 8744  26.429  32.922  12.523
36430W        W 8745   4.408  13.380   0.303
36431W        W 8746   5.788  14.140  11.455
36432W        W 8747  43.220  25.459   0.784
36433W        W 8748  15.186  17.595   4.560
36434W        W 8749  26.204   7.737  10.581
36435W        W 8750  13.221  15.877   1.298
36436W        W 8751   8.375   8.721   4.572
36437W        W 8752  18.162  43.195   0.336
36438W        W 8753   5.976   0.457   1.867
36439W        W 8754  32.388  29.450  11.576
36440W        W 8755  15.522  42.291   1.811
36441W        W 8756  18.607   1.789  11.352
36442W        W 8757  35.729  18.109  12.561
36443W        W 8758  30.885  10.722   3.097
36444W        W 8759  20.031   1.295   3.629
36445W        W 8760   3.985  13.603  12.925
36446W        W 8761  13.088  12.868   2.316
36447W        W 8762  40.084   3.870  14.939
36448W        W 8763   6.873  13.526   4.222
36449W        W 8764  39.522  44.810  13.075
36450W        W 8765  27.487   0.380  13.058
36451W        W 8766  41.216  31.852   3.295
36452W        W 8767  17.145   7.806  11.663
36453W        W 8768  39.843   6.771   2.376
36454W        W 8769  27.272  18.134  13.412
36455W        W 8770   3.029  36.113   2.251
36456W        W 8771  10.382  41.723   4.626
36457W        W 8772   1.848  36.626   1.736
36458W        W 8773  44.885  28.725  13.892
36459W        W 8774   1.600  27.716  11.721
36460W        W 8775  23.487  41.426  14.989
36461W        W 8776   6.834   4.393   2.311
36462W        W 8777   3.631  15.771  12.521
36463W        W 8778  36.924   1.831  12.929
36464W        W 8779  20.683  30.383   2.252
36465W        W 8780  34.993  41.962  14.191
36466W        W 8781  30.943   0.383  14.988
36467W        W 8782  13.691   7.883   0.165
36468W        W 8783  16.646  25.438   2.736
36469W        W 8784   2.811  31.234  12.911
36470W        W 8785  28.299  30.667   2.261
36471W        W 8786   4.960  40.462  12.832
36472W        W 8787   9.058  27.907   2.900
36473W        W 8788  44.811  10.513  12.775
36474W        W 8789   7.183   6.438   2.798
36475W        W 8790   7.241  28.919   1.827
36476W        W 8791  12.271  22.171   3.666
36477W        W 8792  23.851  19.497   5.560
36478W        W 8793  21.660  43.742  14.774
36479W        W 8794  15.424  15.186  13.952
36480W        W 8795  21.319  23.640   4.781
36481W        W 8796   3.156  13.656   2.613
36482W        W 8797  23.547  12.071  11.531
36483W        W 8798   6.658  15.303  10.657
36484W        W 8799  44.007  44.389  10.564
36485W        W 8800  21.049  24.065   4.616
36486W        W 8801   0.690  24.192  11.069
36487W        W 8802  17.724  41.204   4.289
36488W        W 8803  22.107   1.797  13.244
36489W        W 8804   0.913   9.304  10.133
36490W        W 8805  21.049  17.514   3.197
36491W        W 8806  15.982  17.324   4.136
36492W        W 8807   1.005  14.948   2.466
36493W        W 8808   7.269   1.203  12.116
36494W        W 8809  10.378  29.353   2.159
36495W        W 8810  18.267  31.672  10.637
36496W        W 8811  32.054  19.096   1.621
36497W        W 8812  37.798  27.147   4.097
36498W        W 8813  43.010   2.672  12.200
36499W        W 8814   3.794  33.640   1.650
36500W        W 8815   5.041  26.319  10.847
36501W        W 8816  15.350   1.717  10.741
36502W        W 8817  27.618   9.889   4.565
36503W        W 8818  44.492   3.748  12.856
36504W        W 8819  11.392  25.734  12.994
36505W        W 8820  15.108   2.409  13.342
36506W        W 8821  11.151  23.022   1.156
36507W        W 8822  16.552  12.180   4.325
36508W        W 8823   1.527  16.692   4.129
36509W        W 8824   0.263  39.898  11.588
36510W        W 8825  26.197  33.889   2.170
36511W        W 8826  24.178  19.555   2.439
36512W        W 8827  44.089  30.423   4.565
36513W        W 8828  17.752   7.767  14.790
36514W        W 8829   9.699   6.329  10.674
36515W        W 8830  28.356   1.731  14.414
36516W        W 8831   3.253  16.431   1.006
36517W        W 8832  44.166   9.619   2.770
36518W        W 8833  25.953   8.316   1.031
36519W        W 8834   3.443  15.725   0.331
36520W        W 8835  27.022  19.826  12.889
36521W        W 8836  35.090  36.174  14.274
36522W        W 8837  14.131  28.677  13.555
36523W        W 8838  24.962  44.271   2.404
36524W        W 8839  19.895  30.532   4.143
36525W        W 8840  44.884   9.691  10.528
36526W        W 8841  21.697  37.247   0.512
36527W        W 8842  35.067  32.050  14.077
36528W        W 8843  22.021  15.781  14.256
36529W        W 8844  35.660  39.502   2.587
36530W        W 8845  15.331   8.330  14.441
36531W        W 8846  11.165   8.399   1.716
36532W        W 8847   2.493  24.918   3.286
36533W        W 8848  44.506   1.773   2.136
36534W        W 8849  18.615  10.203   3.755
36535W        W 8850  33.972  38.376  13.045
36536W        W 8851  42.855   8.628   1.431
36537W        W 8852  42.041  17.131   2.233
36538W        W 8853  21.703  23.160  12.008
36539W        W 8854  19.172  23.264  14.540
36540W        W 8855  36.275   4.427  14.985
36541W        W 8856  16.183  13.842  14.783
36542W        W 8857  34.800  28.110  14.814
36543W        W 8858  43.406  15.742  10.365
36544W        W 8859  37.617  43.694   0.810
36545W        W 8860  19.136  33.902  13.911
36546W        W 8861  17.545  41.820  10.713
36547W        W 8862  17.179  29.042  14.805
36548W        W 8863  35.336  19.066   2.757
36549W        W 8864  26.926  11.375   3.707
36550W        W 8865  29.262  31.911  14.937
36551W        W 8866   8.814  25.069  12.521
36552W        W 8867  37.686  39.534   2.666
36553W        W 8868  28.805  41.565  13.095
36554W        W 8869   2.959   8.855   2.273
36555W        W 8870  29.424  17.717   2.647
36556W        W 8871  20.650  23.986   1.911
36557W        W 8872   3.409   8.891  14.372
36558W        W 8873  23.081  21.762   0.664
36559W        W 8874   0.334  38.949   2.700
36560W        W 8875  15.865   7.027  12.204
36561W        W 8876  24.305  23.886   2.376
36562W        W 8877  22.197  43.055   4.058
36563W        W 8878  10.752  37.136   3.757
36564W        W 8879  37.268  27.108  13.442
36565W        W 8880  41.273   5.782   0.426
36566W        W 8881   1.843   0.565  11.971
36567W        W 8882  11.275   8.184   3.108
36568W        W 8883  10.116   0.443   1.921
36569W        W 8884   4.136  38.083  11.137
36570W        W 8885  14.753  18.009  14.748
36571W        W 8886  21.923  42.652   4.938
36572W        W 8887   6.242  24.657   4.103
36573W        W 8888  26.994  20.130  13.454
36574W        W 8889  25.184   5.282  11.070
36575W        W 8890  40.847  31.000  13.356
36576W        W 8891  19.541  33.324   0.446
36577W        W 8892  40.324  10.179  14.388
36578W        W 8893   6.817  38.901  12.145
36579W        W 8894   2.026  27.155   4.625
36580W        W 8895   6.882  23.079   0.033
36581W        W 8896  44.089  32.252  12.007
36582W        W 8897  21.227  42.480   1.332
36583W        W 8898   3.455  42.447  12.451
36584W        W 8899   6.927  16.078   4.094
36585W        W 8900   7.440   2.414   3.769
36586W        W 8901  15.324  39.246  14.313
36587W        W 8902   2.799  32.891   4.480
36588W        W 8903   4.657  31.755  10.929
36589W        W 8904  33.929   7.689  12.401
36590W        W 8905  33.085  36.881   1.648
36591W        W 8906  22.589  39.313  13.257
36592W        W 8907  12.409   9.316  11.618
36593W        W 8908  21.208  20.268  13.690
36594W        W 8909  44.927  39.460   0.758
36595W        W 8910  44.744  43.571  14.013
36596W        W 8911  43.429  37.403  12.791
36597W        W 8912  15.097  32.064  14.828
36598W        W 8913  24.500  34.017  13.812
36599W        W 8914  15.992  30.492  14.450
36600W        W 8915  30.644  27.498  11.920
36601W        W 8916  39.401  40.731  13.190
36602W        W 8917  24.108  18.676   1.534
36603W        W 8918  12.328  23.330   2.189
36604W        W 8919  42.049  13.631   2.285
36605W        W 8920   6.004  12.678  12.907
36606W        W 8921   9.256  44.828  12.567
36607W        W 8922   6.747   2.063  11.552
36608W        W 8923  35.979  44.313  10.669
36609W        W 8924   0.245  23.653  13.563
36610W        W 8925  26.841  21.161   0.346
36611W        W 8926   9.797  35.550  11.682
36612W        W 8927  21.174  22.751  11.013
36613W        W 8928  36.496  20.765  12.095
36614W        W 8929  13.582  34.984  11.382
36615W        W 8930   0.504  41.951  10.691
36616W        W 8931   8.445  21.686  14.524
36617W        W 8932  34.661   7.433  11.768
36618W        W 8933   1.951   0.594   1.978
36619W        W 8934  28.130  12.737  14.122
36620W        W 8935  42.036  26.035   0.313
36621W        W 8936  16.276   0.415   3.512
36622W        W 8937  30.910  15.308   4.559
36623W        W 8938  30.168  26.951  12.408
36624W        W 8939  41.784  18.965  10.958
36625W        W 8940  18.683  24.207   2.752
36626W        W 8941  30.206  33.516  14.979
36627W        W 8942  32.349  18.360   3.162
36628W        W 8943  21.633  21.227   4.882
36629W        W 8944   7.969  19.076  14.164
36630W        W 8945  36.466  13.678   2.239
36631W        W 8946  20.722   3.803   0.190
36632W        W 8947  24.546  39.035  12.034
36633W        W 8948  16.037  17.598   4.593
36634W        W 8949   7.149  43.905  11.413
36635W        W 8950  26.280   8.732   1.067
36636W        W 8951  35.347  24.027   4.747
36637W        W 8952  14.649  11.075   4.069
36638W        W 8953  38.354  19.783  10.777
36639W        W 8954  27.718  27.339   4.949
36640W        W 8955   1.344  33.661   0.817
36641W        W 8956  34.966  33.925  12.929
36642W        W 8957   9.290  23.199   4.575
36643W        W 8958   5.092   4.389   0.455
36644W        W 8959  43.080  26.894  12.666
36645W        W 8960   4.889  43.847   2.130
36646W        W 8961  17.777  19.247  12.185
36647W        W 8962  41.861  16.154   2.264
36648W        W 8963  23.996  25.021  11.192
36649W        W 8964   0.497  13.581   1.205
36650W        W 8965  37.254   3.969   0.752
36651W        W 8966  23.494  20.560   0.848
36652W        W 8967  40.111   1.479  10.219
36653W        W 8968  13.734   2.959   0.879
36654W        W 8969  35.948  12.156  12.887
36655W        W 8970  11.450   4.161   4.253
36656W        W 8971  28.431  25.967  12.438
36657W        W 8972   1.492  30.001  13.116
36658W        W 8973  25.426  33.924  10.269
36659W        W 8974   3.724  41.403   2.242
36660W        W 8975  35.377   6.815  13.947
36661W        W 8976  27.651  34.157   3.258
36662W        W 8977  26.932  27.881   3.655
36663W        W 8978   5.968  39.414   0.766
36664W        W 8979  21.242  29.883   2.414
36665W        W 8980  14.521  44.971  12.166
36666W        W 8981   1.792   9.758  13.445
36667W        W 8982  29.582  39.617  10.747
36668W        W 8983  35.873  13.638  14.817
36669W        W 8984  22.888  14.564  11.976
36670W        W 8985  43.426   3.179  13.562
36671W        W 8986  17.138  19.570  14.877
36672W        W 8987   6.428  37.922   0.118
36673W        W 8988  12.973  27.006   1.841
36674W        W 8989  30.812  26.996  14.381
36675W        W 8990  33.559  40.031   0.932
36676W        W 8991  16.238  30.179  14.117
36677W        W 8992  16.643  30.938  14.797
36678W        W 8993  33.822   9.867   2.866
36679W        W 8994   9.847   7.527   3.637
36680W        W 8995  43.526   3.499   4.204
36681W        W 8996  23.241  15.677  13.914
36682W        W 8997  24.932  21.955  12.556
36683W        W 8998  15.345   8.595  13.972
36684W        W 8999  39.292  12.853  13.894
36685W        W 9000  36.919  27.958   3.353
36686W        W 9001  36.892  20.146   2.438
36687W        W 9002  31.110   7.844  13.914
36688W        W 9003  30.238   7.409  13.893
36689W        W 9004  19.589  13.463   0.761
36690W        W 9005  21.009  43.930  13.848
36691W        W 9006   4.278   7.403   1.420
36692W        W 9007  11.154  22.740  11.855
36693W        W 9008   4.744  23.853  14.753
36694W        W 9009  20.297  36.188  11.950
36695W        W 9010   5.691  17.743   4.644
36696W        W 9011  10.503  21.679  14.286
36697W        W 9012  19.725  23.220   1.628
36698W        W 9013   5.812  15.634   3.276
36699W        W 9014  40.144  42.284   1.699
36700W        W 9015  18.177  35.926  14.823
36701W        W 9016  33.563  31.678  10.732
36702W        W 9017  20.776   9.690  11.007
36703W        W 9018   1.293  32.153   1.042
36704W        W 9019  34.773   0.532   1.887
36705W        W 9020  20.049  21.538  12.041
36706W        W 9021   2.914  31.331  14.901
36707W        W 9022  37.609  30.626   4.441
36708W        W 9023   4.957  42.418   1.845
36709W        W 9024   3.034  35.049  14.915
36710W        W 9025  22.545  10.631   0.986
36711W        W 9026  22.785  10.933   3.594
36712W        W 9027  30.691  21.628  13.473
36713W        W 9028  32.148  19.511   4.844
36714W        W 9029  40.537   2.312   3.348
36715W        W 9030  44.258  25.322  12.042
36716W        W 9031  34.415  43.021   0.338
36717W        W 9032   3.812   7.170   3.830
36718W        W 9033  11.366  16.730   1.897
36719W        W 9034  29.377   3.854  12.021
36720W        W 9035   7.613  32.124  11.160
36721W        W 9036  40.057  23.969  13.039
36722W        W 9037  37.259  23.727   3.549
36723W        W 9038  42.863  36.218  12.403
36724W        W 9039  35.631   6.774   0.426
36725W        W 9040   2.878  17.695  10.458
36726W        W 9041   9.072  31.399   2.829
36727W        W 9042  29.779  25.155  12.813
36728W        W 9043  11.140   2.978   2.705
36729W        W 9044  31.343   1.350   4.310
36730W        W 9045  30.341   8.247  11.922
36731W        W 9046   8.772  44.230   3.260
36732W        W 9047  44.556  27.235   3.747
36733W        W 9048  28.785   3.020   0.068
36734W        W 9049  32.923  22.486  12.518
36735W        W 9050   0.096  44.234  14.381
36736W        W 9051  34.662  27.657   2.284
36737W        W 9052  31.287   0.914   3.381
36738W        W 9053  32.042  36.640   0.460
36739W        W 9054  15.815  34.685  11.947
36740W        W 9055  22.521  30.964  14.846
36741W        W 9056  15.070  36.574  12.090
36742W        W 9057   5.441  38.408  14.860
36743W        W 9058  35.127  11.445  11.229
36744W        W 9059   1.385  26.513  13.471
36745W        W 9060  16.345  12.587  10.746
36746W        W 9061  25.111  24.410  11.484
36747W        W 9062  23.227   6.022   0.813
36748W        W 9063  33.930  29.059  13.510
36749W        W 9064  15.180   9.388  11.899
36750W        W 9065  41.257   8.295   0.398
36751W        W 9066  36.862  17.335   4.193
36752W        W 9067  13.789  30.875   3.886
36753W        W 9068  23.640  30.633  13.380
36754W        W 9069  26.054  10.377  14.438
36755W        W 9070  35.233  15.556   2.729
36756W        W 9071  23.593   5.876  10.703
36757W        W 9072   3.829  13.799   3.263
36758W        W 9073   0.742  36.634  11.995
36759W        W 9074  11.421  14.338  11.007
36760W        W 9075  24.149  31.244  13.992
36761W        W 9076  42.992  17.572  12.473
36762W        W 9077   0.500   4.713  12.823
36763W        W 9078  20.046  17.117  13.946
36764W        W 9079  21.248   2.144   1.581
36765W        W 9080  31.325  38.352  14.193
36766W        W 9081  37.024  10.420   1.692
36767W        W 9082  13.698  42.214  11.186
36768W        W 9083  39.934  32.592   3.887
36769W        W 9084  32.354  24.096   0.390
36770W        W 9085  21.586   9.816  14.224
36771W        W 9086  20.174   0.496  11.490
36772W        W 9087  27.642  33.253  12.002
36773W        W 9088  44.284  11.674   2.641
36774W        W 9089   9.616  10.857  11.000
36775W        W 9090   3.822  37.082  14.379
36776W        W 9091  13.533  25.568  13.116
36777W        W 9092  31.561   4.413  10.630
36778W        W 9093  14.329  37.471   5.189
36779W        W 9094  14.720  18.539  14.914
36780W        W 9095  39.814   3.856   0.419
36781W        W 9096  30.015  33.304  11.897
36782W        W 9097   4.940  14.140  13.924
36783W        W 9098  20.483   2.737   3.572
36784W        W 9099  42.709  30.445  11.131
36785W        W 9100  12.669  19.782  11.591
36786W        W 9101  30.461   3.911  14.573
36787W        W 9102  40.288  12.878   1.479
36788W        W 9103  26.806  37.916  11.043
36789W        W 9104  24.001   0.483   1.954
36790W        W 9105  44.282  11.316  10.476
36791W        W 9106  36.966   8.139  10.665
36792W        W 9107  38.841  25.511   1.360
36793W        W 9108  18.852   1.371  11.594
36794W        W 9109  42.941  23.580   0.484
36795W        W 9110   3.362  34.774  14.630
36796W        W 9111  41.480  34.618   0.529
36797W        W 9112   3.775  36.110  13.960
36798W        W 9113  11.649  22.118   1.947
36799W        W 9114  12.268  24.420  11.956
36800W        W 9115  30.936  21.945  13.107
36801W        W 9116   0.424  27.427   3.542
36802W        W 9117  14.272   2.346  10.477
36803W        W 9118  18.191  44.274   4.633
36804W        W 9119  24.607  17.092   3.385
36805W        W 9120  40.110  28.074  10.991
36806W        W 9121  34.046  39.860  11.046
36807W        W 9122   7.440  35.138   4.294
36808W        W 9123   7.607  10.500   0.819
36809W        W 9124  21.948  33.177   1.691
36810W        W 9125   1.932  43.040  13.970
36811W        W 9126  11.432  34.937   2.713
36812W        W 9127  22.427  14.674   3.354
36813W        W 9128  36.573  19.030  11.379
36814W        W 9129  28.991  31.440  11.925
36815W        W 9130  19.563  15.086  14.330
36816W        W 9131  36.770  26.682  11.238
36817W        W 9132   3.435  44.410   0.385
36818W        W 9133  41.911  19.596  12.856
36819W        W 9134  27.875  22.434  11.641
36820W        W 9135  30.973  36.321  12.181
36821W        W 9136  37.172  13.127  13.931
36822W        W 9137   1.889  19.556   3.126
36823W        W 9138  33.641  18.205  14.061
36824W        W 9139   9.700  18.086   1.862
36825W        W 9140  32.566  23.557   1.771
36826W        W 9141   5.309   3.743  11.034
36827W        W 9142  20.065  42.124  13.935
36828W        W 9143  33.543  41.321   1.165
36829W        W 9144  32.898  35.387   2.479
36830W        W 9145   1.783  44.792   3.643
36831W        W 9146  34.161   3.382   5.000
36832W        W 9147  42.856  12.521  12.857
36833W        W 9148   2.872  15.101   0.887
36834W        W 9149  43.306  34.324   3.629
36835W        W 9150  23.203   9.485  14.739
36836W        W 9151  34.049  13.633  11.576
36837W        W 9152   5.998  22.484   9.808
36838W        W 9153  25.504  14.271   4.164
36839W        W 9154   1.237  33.985  12.085
36840W        W 9155  23.704   7.796   2.265
36841W        W 9156   0.774  12.743   2.840
36842W        W 9157  42.687  19.775  12.898
36843W        W 9158  31.527  21.721   2.903
36844W        W 9159   7.417  16.160   4.481
36845W        W 9160   0.490  10.194   1.776
36846W        W 9161   4.811  19.372  11.986
36847W        W 9162  22.709  15.383   0.226
36848W        W 9163  17.509   3.973   2.756
36849W        W 9164  43.380  43.127  11.124
36850W        W 9165  32.549  17.273  10.147
36851W        W 9166  10.458  18.503   2.796
36852W        W 9167  20.693   3.273   2.501
36853W        W 9168   3.332  26.945  14.479
36854W        W 9169   0.177   1.970   3.893
36855W        W 9170   1.507  42.389  11.725
36856W        W 9171   6.194  32.359  14.067
36857W        W 9172  20.531   3.302  10.981
36858W        W 9173  19.325  38.214  11.637
36859W        W 9174  13.117  27.153  12.416
36860W        W 9175  41.794  40.842   2.179
36861W        W 9176  34.157  34.450  14.430
36862W        W 9177  15.466  27.339  12.393
36863W        W 9178   7.167  11.925  13.928
36864W        W 9179  24.182  34.837   3.761
36865W        W 9180  27.245  43.789  12.941
36866W        W 9181  36.383  20.795  14.016
36867W        W 9182  10.550  10.140  14.292
36868W        W 9183  36.407  31.624   1.931
36869W        W 9184   5.185  43.838  11.658
36870W        W 9185  28.196  28.038  11.149
36871W        W 9186  15.026  13.581   3.309
36872W        W 9187  25.605  37.681   0.540
36873W        W 9188  24.123  16.549   3.298
36874W        W 9189   0.790  15.200   3.048
36875W        W 9190  37.589  28.582  12.564
36876W        W 9191  15.371  27.229   3.285
36877W        W 9192  38.360  29.957  12.471
36878W        W 9193  17.348   6.378  12.408
36879W        W 9194  15.695  29.314   0.412
36880W        W 9195  18.528  32.537  12.013
36881W        W 9196   6.942  31.873  11.614
36882W        W 9197  23.609  19.587  10.636
36883W        W 9198  16.161  39.597  13.834
36884W        W 9199  11.601   7.746   2.246
36885W        W 9200  16.238  18.202  14.994
36886W        W 9201  39.793   5.117   1.859
36887W        W 9202  14.105  39.314  11.086
36888W        W 9203   6.357  28.433  11.531
36889W        W 9204  23.936  20.267   0.916
36890W        W 9205  35.553  19.828   1.874
36891W        W 9206  25.624  39.558   3.248
36892W        W 9207  15.204   5.689   2.639
36893W        W 9208   8.441  33.492   4.938
36894W        W 9209  40.876  27.133   3.898
36895W        W 9210   3.939  26.625   1.477
36896W        W 9211  38.563  25.188  11.507
36897W        W 9212  21.104  39.529  11.022
36898W        W 9213  35.615  17.152   2.852
36899W        W 9214  25.376  31.362   1.927
36900W        W 9215  32.441  21.500   3.828
36901W        W 9216  21.833  34.123   1.312
36902W        W 9217   4.381  35.812   0.368
36903W        W 9218  25.428   1.722  14.972
36904W        W 9219  35.338   0.707   1.094
36905W        W 9220  32.522  39.612   4.579
36906W        W 9221  19.312  36.547   1.574
36907W        W 9222  17.619  27.660   1.259
36908W        W 9223  33.913  28.245  11.630
36909W        W 9224   7.884   9.413   1.781
36910W        W 9225  26.790  15.395  10.131
36911W        W 9226  23.528  43.495  12.482
36912W        W 9227   4.950  41.507   0.737
36913W        W 9228  35.589  18.610   2.262
36914W        W 9229  16.569  20.034  11.695
36915W        W 9230   6.671   9.219   2.404
36916W        W 9231  10.134   5.691  13.408
36917W        W 9232  19.032  33.345   4.304
36918W        W 9233  28.849  17.377   0.833
36919W        W 9234  17.098  12.402   2.733
36920W        W 9235  37.007   9.570  14.276
36921W        W 9236   7.169  33.076  11.107
36922W        W 9237  23.992  44.410  12.567
36923W        W 9238  40.843  36.096  11.676
36924W        W 9239  18.206  44.819   3.712
36925W        W 9240  24.502  44.806   0.370
36926W        W 9241  13.865   3.904  10.710
36927W        W 9242  16.881  26.491  11.128
36928W        W 9243   7.237   6.733  14.016
36929W        W 9244  24.012  25.966  14.343
36930W        W 9245   9.496  15.841   2.519
36931W        W 9246  36.551  39.139  10.284
36932W        W 9247  35.073   0.926  12.637
36933W        W 9248   6.334   3.994   0.122
36934W        W 9249  29.443   9.815  14.571
36935W        W 9250  26.627  11.231  10.202
36936W        W 9251  37.078  23.995   4.756
36937W        W 9252  23.239  38.882   3.073
36938W        W 9253  30.573  21.794   4.234
36939W        W 9254   1.510  40.593   1.281
36940W        W 9255  41.967  24.252  12.124
36941W        W 9256  12.660  35.093   3.840
36942W        W 9257  42.299  31.088  14.982
36943W        W 9258  26.871   7.604  11.041
36944W        W 9259  36.332  35.693   3.689
36945W        W 9260  30.096  39.074   1.844
36946W        W 9261  28.982  42.273  12.125
36947W        W 9262  18.782   0.973   4.242
36948W        W 9263  32.494  23.302   4.083
36949W        W 9264  29.869  42.567  13.536
36950W        W 9265  27.086  41.989   3.751
36951W        W 9266  18.942  41.537  14.490
36952W        W 9267  22.108  32.775   2.451
36953W        W 9268  23.052   5.709  10.787
36954W        W 9269   8.167   8.423   0.305
36955W        W 9270  25.227  29.118  12.923
36956W        W 9271   0.333  29.788  14.958
36957W        W 9272  36.787  16.387   1.072
36958W        W 9273   8.093  33.882  10.949
36959W        W 9274  41.936  20.205  10.629
36960W        W 9275  21.921  44.574   0.878
36961W        W 9276  43.874  10.166  11.909
36962W        W 9277   7.138  27.650  13.030
36963W        W 9278  21.352  18.681  10.804
36964W        W 9279  20.631  40.411  12.923
36965W        W 9280  36.869  27.060   0.839
36966W        W 9281  34.627   3.298   0.831
36967W        W 9282  27.494   5.524  12.056
36968W        W 9283  42.990  44.749   1.225
36969W        W 9284  29.682  34.594   1.685
36970W        W 9285  39.018  42.785   0.937
36971W        W 9286  18.113   1.900   3.709
36972W        W 9287   2.464  24.011   0.808
36973W        W 9288   8.239  42.439   1.172
36974W        W 9289  28.821  37.353   0.971
36975W        W 9290   0.237   7.874  11.834
36976W        W 9291  14.209  35.557  12.384
36977W        W 9292  14.512  20.682  12.556
36978W        W 9293  23.659  12.287   3.180
36979W        W 9294  20.619   2.298  13.888
36980W        W 9295   5.944  35.743  11.217
36981W        W 9296  34.499  20.635   4.229
36982W        W 9297   1.455   3.617  13.842
36983W        W 9298   6.038  19.973   0.432
36984W        W 9299  28.121  31.413  10.441
36985W        W 9300  38.474   4.646  11.064
36986W        W 9301  23.181   0.865   3.120
36987W        W 9302   5.139  23.983   0.140
36988W        W 9303  31.432  15.281  14.763
36989W        W 9304   4.892  25.505   2.117
36990W        W 9305  24.909  38.601  14.075
36991W        W 9306  25.176  40.986  14.995
36992W        W 9307  15.394  23.528   0.287
36993W        W 9308  16.155   3.863  12.141
36994W        W 9309   5.728   1.683   2.786
36995W        W 9310  12.601  44.462  14.051
36996W        W 9311  28.375  41.706   3.671
36997W        W 9312  41.042  11.723  10.916
36998W        W 9313  37.463  24.674   0.054
36999W        W 9314   6.383  18.578   4.093
37000W        W 9315  41.198  26.144  13.027
37001W        W 9316  20.165  35.134  10.549
37002W        W 9317  11.288  25.892   1.269
37003W        W 9318   2.270   6.345  12.628
37004W        W 9319  28.572  31.124   1.344
37005W        W 9320  19.554  21.211   4.126
37006W        W 9321   5.765  15.560  11.466
37007W        W 9322  39.622  25.148   4.089
37008W        W 9323  29.934  16.619  13.614
37009W        W 9324  10.620   5.689   1.363
37010W        W 9325  10.117  39.924  12.311
37011W        W 9326  39.866  21.103   1.726
37012W        W 9327   6.254  15.546   3.533
37013W        W 9328  26.472   9.251   3.337
37014W        W 9329   3.659  39.720   4.541
37015W        W 9330   6.947  42.090  14.368
37016W        W 9331  42.769  27.015   2.765
37017W        W 9332  32.983  38.369  10.593
37018W        W 9333  27.907  37.353  11.628
37019W        W 9334  40.235   6.369   1.511
37020W        W 9335   8.245   8.163   4.606
37021W        W 9336   5.041  13.155   3.765
37022W        W 9337  10.288  39.535  11.997
37023W        W 9338  22.663   9.262  11.609
37024W        W 9339  22.572  24.450   1.829
37025W        W 9340  29.450  35.303   0.975
37026W        W 9341  15.603   1.299  14.450
37027W        W 9342  12.090   7.772   3.165
37028W        W 9343  28.964  37.001  11.076
37029W        W 9344  25.897  14.089   3.838
37030W        W 9345   8.390  29.032  14.014
37031W        W 9346  28.613  35.630   1.881
37032W        W 9347  19.215   8.370   3.099
37033W        W 9348  23.584  11.067   3.719
37034W        W 9349  13.086  24.669   0.721
37035W        W 9350   8.711  14.556  13.280
37036W        W 9351  33.325   7.756   3.787
37037W        W 9352  43.411  19.651   0.851
37038W        W 9353  41.741  41.294   1.893
37039W        W 9354  37.129  38.465   4.612
37040W        W 9355  43.821   6.958  14.818
37041W        W 9356  25.855   4.757   0.997
37042W        W 9357  19.086  27.991  11.508
37043W        W 9358  28.459  34.149  12.205
37044W        W 9359  10.608  29.528   3.450
37045W        W 9360  14.972  13.434  12.098
37046W        W 9361  36.043   7.699  13.756
37047W        W 9362  37.338  37.512   0.688
37048W        W 9363  31.839  17.696   1.780
37049W        W 9364  24.324  20.963  14.303
37050W        W 9365  42.652  42.373  13.403
37051W        W 9366  29.247  44.962  11.044
37052W        W 9367  16.248  40.757  12.966
37053W        W 9368  13.678   6.925   1.104
37054W        W 9369   2.420  15.842  12.762
37055W        W 9370  19.713  34.500   0.892
37056W        W 9371  22.447  43.169  12.951
37057W        W 9372  22.533   6.343   3.075
37058W        W 9373  16.033  35.924   2.315
37059W        W 9374   3.839  11.344  13.349
37060W        W 9375   2.773  25.533  14.485
37061W        W 9376  19.015  26.430   4.044
37062W        W 9377  33.749  25.134  10.000
37063W        W 9378  23.001  10.281  12.293
37064W        W 9379   1.909   7.693  14.020
37065W        W 9380   3.719  13.629  14.405
37066W        W 9381  43.056  42.318  11.389
37067W        W 9382   5.897  38.176   4.206
37068W        W 9383  22.801  37.215   4.286
37069W        W 9384  40.684  10.907  13.492
37070W        W 9385  15.761  37.493  13.078
37071W        W 9386  44.165  26.127  11.392
37072W        W 9387   6.822  12.632   4.527
37073W        W 9388  20.181  17.204   1.305
37074W        W 9389  34.526  38.979   0.743
37075W        W 9390  24.551   9.011   0.247
37076W        W 9391  13.715  31.841   3.310
37077W        W 9392  19.327  24.012  13.982
37078W        W 9393  42.800  15.403  13.087
37079W        W 9394   0.971  13.046  12.363
37080W        W 9395   5.888   6.636  13.011
37081W        W 9396  11.611  32.098   9.898
37082W        W 9397  38.052   1.942   1.168
37083W        W 9398  15.249  38.081   2.182
37084W        W 9399  19.114   6.157   1.608
37085W        W 9400  24.859  37.915   3.839
37086W        W 9401  12.947  40.276  12.829
37087W        W 9402  44.367  12.263   2.428
37088W        W 9403   8.036  28.351   1.732
37089W        W 9404  24.492   5.770  10.522
37090W        W 9405  12.725  26.136   0.440
37091W        W 9406  16.339  21.299   4.023
37092W        W 9407   9.197  36.333   1.795
37093W        W 9408  26.144  12.816   4.042
37094W        W 9409  21.239  36.428   2.156
37095W        W 9410  15.120  16.184   2.750
37096W        W 9411  26.029  21.163   2.183
37097W        W 9412  37.363  39.132   2.680
37098W        W 9413  21.621  15.663  12.252
37099W        W 9414  36.541  37.789  13.941
37100W        W 9415  42.060  21.709   1.305
37101W        W 9416  30.187  31.482  12.525
37102W        W 9417  22.983  13.156   1.380
37103W        W 9418   2.831  40.796   1.397
37104W        W 9419  31.840  12.184  13.505
37105W        W 9420  29.418  39.977   3.652
37106W        W 9421  34.761  43.161  13.059
37107W        W 9422  17.811  14.695  14.248
37108W        W 9423  18.752  19.265  12.701
37109W        W 9424   7.739  33.909  13.539
37110W        W 9425  36.911  34.383  11.576
37111W        W 9426  10.908  28.521  11.155
37112W        W 9427  29.132  15.296  11.071
37113W        W 9428  31.902  10.916  11.854
37114W        W 9429  36.482   3.451  14.823
37115W        W 9430  12.323  42.384  10.762
37116W        W 9431  26.000  31.303   4.588
37117W        W 9432  21.752  42.052  11.947
37118W        W 9433  28.427  31.906   0.944
37119W        W 9434  27.450  41.429   4.849
37120W        W 9435  21.034  16.668   3.693
37121W        W 9436  43.874  18.388  13.347
37122W        W 9437   8.314  15.302   3.226
37123W        W 9438  42.392  23.736  12.766
37124W        W 9439  25.895   1.259  14.006
37125W        W 9440   8.871  44.536   3.683
37126W        W 9441   4.514  40.946   4.492
37127W        W 9442  32.462   6.312  13.077
37128W        W 9443  39.223  27.185  14.479
37129W        W 9444  43.448  28.670  10.591
37130W        W 9445   5.137  16.875  12.474
37131W        W 9446  33.888  42.331   2.004
37132W        W 9447  18.339  28.602  11.067
37133W        W 9448  35.871  44.978   1.239
37134W        W 9449  34.003  12.530  15.000
37135W        W 9450   9.085  21.477   2.618
37136W        W 9451  25.170   5.953   2.094
37137W        W 9452  34.888  23.587  13.845
37138W        W 9453   1.245   5.405  13.063
37139W        W 9454   7.955  20.813  10.584
37140W        W 9455  18.845  42.398   2.293
37141W        W 9456  14.615  36.599  14.409
37142W        W 9457  42.772  42.363  12.591
37143W        W 9458  27.753   9.420  14.999
37144W        W 9459  10.235   9.595   0.048
37145W        W 9460  33.109  15.536  11.201
37146W        W 9461  11.348  24.771  13.776
37147W        W 9462   2.041   0.869  11.426
37148W        W 9463  29.409  35.957  13.974
37149W        W 9464  13.608  22.756   0.397
37150W        W 9465  39.822  34.646   0.491
37151W        W 9466  11.564  18.271   4.585
37152W        W 9467  44.971  27.084  10.403
37153W        W 9468   3.663   1.291  11.863
37154W        W 9469  28.038  35.565  12.841
37155W        W 9470  44.819   1.465  12.548
37156W        W 9471  44.494  14.127  11.089
37157W        W 9472  15.064  35.831   3.773
37158W        W 9473  38.474   6.921   1.642
37159W        W 9474   6.847   7.315  12.620
37160W        W 9475  37.233  39.888   3.314
37161W        W 9476  11.768   7.347  13.107
37162W        W 9477  24.022  10.830  10.932
37163W        W 9478  22.095   6.271  12.025
37164W        W 9479  36.276   4.351   4.338
37165W        W 9480  35.454   5.729  12.925
37166W        W 9481  21.543  18.220  13.909
37167W        W 9482  40.776   1.538  11.662
37168W        W 9483  36.031   6.801  14.760
37169W        W 9484   7.470  36.002   2.732
37170W        W 9485  44.463   7.207   1.850
37171W        W 9486  17.112  18.167   0.973
37172W        W 9487  26.741   4.147   4.626
37173W        W 9488  20.540  19.058   2.860
37174W        W 9489  10.977   8.150  13.894
37175W        W 9490  29.913  25.716   0.261
37176W        W 9491  14.762  38.274  11.310
37177W        W 9492   6.277  27.006   2.886
37178W        W 9493  43.163  18.111  11.057
37179W        W 9494  42.856   0.869   3.367
37180W        W 9495  17.166  24.650  14.217
37181W        W 9496  13.199  41.095   4.099
37182W        W 9497  19.554  26.002   2.568
37183W        W 9498  44.896  26.722   3.903
37184W        W 9499  40.041  38.612  11.989
37185W        W 9500  38.617  31.878  13.844
37186W        W 9501  23.057  15.293  10.646
37187W        W 9502  18.753   4.335   3.745
37188W        W 9503  26.033   7.236   1.942
37189W        W 9504  20.156  30.244  12.124
37190W        W 9505  43.221   9.605   0.483
37191W        W 9506  15.250  41.857  12.822
37192W        W 9507  23.614  36.835  14.804
37193W        W 9508  10.484  22.650  13.636
37194W        W 9509  29.716  21.317   1.477
37195W        W 9510   4.351  41.997   1.290
37196W        W 9511  22.535   3.680   2.275
37197W        W 9512  43.267  35.811  13.960
37198W        W 9513  23.621  31.460  14.029
37199W        W 9514  44.806  34.984  14.199
37200W        W 9515  12.027  27.669   2.134
37201W        W 9516  20.061   2.480  11.195
37202W        W 9517  40.744  26.235  10.695
37203W        W 9518   5.910  28.253  11.934
37204W        W 9519  26.260  20.981  13.790
37205W        W 9520   5.862  33.922  11.640
37206W        W 9521   6.453  20.486   3.180
37207W        W 9522   6.946  22.207   4.927
37208W        W 9523  43.096  16.814   3.241
37209W        W 9524  37.979   7.403  12.905
37210W        W 9525  10.784  39.866   0.252
37211W        W 9526  40.320   7.120  11.095
37212W        W 9527  34.040  14.125  12.164
37213W        W 9528  39.210   0.276   2.333
37214W        W 9529  25.614  36.868   3.693
37215W        W 9530   7.126  35.730  12.592
37216W        W 9531  32.070  21.161  14.366
37217W        W 9532  42.760   5.801   1.750
37218W        W 9533  43.967  38.838   2.394
37219W        W 9534  22.918  20.514  12.065
37220W        W 9535  20.826  27.562   0.440
37221W        W 9536  14.730  25.723   2.287
37222W        W 9537  39.050  36.533  12.989
37223W        W 9538   8.661  36.414  10.746
37224W        W 9539  32.877  36.090  12.018
37225W        W 9540  27.995  23.703   0.401
37226W        W 9541  34.093   7.859   0.426
37227W        W 9542   6.014  10.282   1.376
37228W        W 9543  24.699  19.668  14.681
37229W        W 9544  32.050   0.407  10.122
37230W        W 9545  26.510   8.711  13.382
37231W        W 9546  41.104  37.381   0.321
37232W        W 9547  42.495  27.478   3.275
37233W        W 9548  31.620  14.573   3.432
37234W        W 9549  44.805  44.920  10.593
37235W        W 9550  32.872  11.253  14.314
37236W        W 9551  27.442  33.069   1.729
37237W        W 9552  31.471  19.758  11.603
37238W        W 9553  26.221   4.141   3.192
37239W        W 9554  44.272  12.359   3.284
37240W        W 9555   9.720  23.548  10.399
37241W        W 9556  30.593   0.037  11.135
37242W        W 9557   2.901   5.012   1.735
37243W        W 9558  37.818   9.234  10.710
37244W        W 9559  41.465   6.322   3.238
37245W        W 9560  39.226   4.113  14.895
37246W        W 9561  27.661  20.482   0.482
37247W        W 9562   1.443  41.922   0.017
37248W        W 9563  38.585  41.807   4.689
37249W        W 9564  27.959  26.224  10.479
37250W        W 9565  40.247  39.613   3.335
37251W        W 9566  15.351   5.306  11.024
37252W        W 9567  40.702   9.883   2.931
37253W        W 9568   4.178   6.392  12.802
37254W        W 9569   1.834  33.414  10.682
37255W        W 9570  21.487  42.771  12.350
37256W        W 9571  39.838  40.242   4.730
37257W        W 9572  29.908  22.039  12.404
37258W        W 9573  29.542  41.870  12.460
37259W        W 9574   2.920  43.560   3.755
37260W        W 9575  18.011   2.261   2.648
37261W        W 9576  17.050   7.229   2.718
37262W        W 9577  30.641  39.527   4.017
37263W        W 9578   0.270  31.932   4.090
37264W        W 9579   5.223  28.681   2.651
37265W        W 9580  15.606  19.402   1.294
37266W        W 9581   2.185   6.235  13.122
37267W        W 9582  13.748   4.912   0.175
37268W        W 9583  32.044  24.288   4.108
37269W        W 9584  22.162  43.867  14.941
37270W        W 9585  34.642  37.953  11.838
37271W        W 9586  18.639  25.029   9.987
37272W        W 9587   4.791   3.183   3.347
37273W        W 9588   1.695  23.643  12.951
37274W        W 9589  28.138  32.648   4.528
37275W        W 9590  40.400  25.540   9.873
37276W        W 9591  26.225   0.852   0.954
37277W        W 9592   6.067  10.812   0.674
37278W        W 9593  16.707   0.089  11.489
37279W        W 9594   8.725  15.697   0.811
37280W        W 9595  22.657   3.886  11.989
37281W        W 9596  39.815  38.517  11.532
37282W        W 9597   9.913  12.848   1.798
37283W        W 9598  32.063  37.102   4.878
37284W        W 9599   0.203  32.616   0.355
37285W        W 9600  36.943  42.639   4.782
37286W        W 9601  38.943  16.403  12.357
37287W        W 9602  25.116  13.892   0.754
37288W        W 9603  31.090   8.745  11.577
37289W        W 9604  23.363  40.822   2.684
37290W        W 9605  32.415   5.504  11.092
37291W        W 9606  36.648  42.528  12.885
37292W        W 9607  33.361  12.768  10.656
37293W        W 9608  28.294  23.078   3.636
37294W        W 9609  33.121   6.651   1.344
37295W        W 9610  38.527   0.682   2.966
37296W        W 9611  37.368  12.555  10.629
37297W        W 9612  25.713  42.363   3.029
37298W        W 9613  35.576  13.760  12.504
37299W        W 9614  11.070  16.250   3.411
37300W        W 9615   0.936   4.686   4.578
37301W        W 9616  24.260  30.025   0.752
37302W        W 9617   3.410  11.504  12.459
37303W        W 9618  19.080  10.215  12.094
37304W        W 9619  24.422  37.438   4.724
37305W        W 9620  27.589  20.666  13.311
37306W        W 9621   4.328   6.853  12.646
37307W        W 9622  40.120   1.032  12.146
37308W        W 9623  39.984  38.268   3.767
37309W        W 9624  44.661  14.103  14.016
37310W        W 9625  31.878  31.128   1.898
37311W        W 9626   4.760  39.495  11.378
37312W        W 9627  12.389  23.190  12.935
37313W        W 9628  39.199  29.121   9.894
37314W        W 9629  14.476   0.287  14.447
37315W        W 9630  28.954   4.851   0.007
37316W        W 9631  13.120  40.080   4.171
37317W        W 9632  11.606  20.561   2.965
37318W        W 9633   7.859   7.344  13.485
37319W        W 9634  14.907  11.455   1.360
37320W        W 9635  36.501  29.532  13.523
37321W        W 9636  29.961  20.672  12.987
37322W        W 9637  24.497  42.410   1.046
37323W        W 9638   4.707   6.421  13.517
37324W        W 9639  15.563  39.724   1.395
37325W        W 9640   6.770  37.997  11.167
37326W        W 9641  13.370   9.178  14.616
37327W        W 9642  22.539  26.491   3.195
37328W        W 9643  25.693  12.918  12.937
37329W        W 9644  42.452  37.896   2.921
37330W        W 9645  32.783  28.898   4.082
37331W        W 9646  20.326  32.651  10.670
37332W        W 9647  37.983  29.351  11.007
37333W        W 9648  18.177   3.803  13.400
37334W        W 9649  18.981  10.971  10.687
37335W        W 9650  16.558   5.320   0.426
37336W        W 9651   2.063  34.236   1.403
37337W        W 9652  22.731  21.276   4.708
37338W        W 9653  10.256  30.679  11.526
37339W        W 9654  22.501  27.514  11.830
37340W        W 9655  12.507  28.073   2.713
37341W        W 9656   7.745  38.344   3.132
37342W        W 9657  18.717  13.064   1.880
37343W        W 9658  42.044  40.887  13.946
37344W        W 9659  35.484  39.560  13.475
37345W        W 9660   3.010  15.250   4.947
37346W        W 9661  26.362  28.954  14.826
37347W        W 9662  43.033   2.825   4.289
37348W        W 9663  24.969   1.189   1.104
37349W        W 9664  38.424  10.414  10.680
37350W        W 9665  34.995  33.843  13.861
37351W        W 9666  14.909  26.088  13.023
37352W        W 9667  43.302  39.334   1.382
37353W        W 9668   0.663  39.078  13.451
37354W        W 9669  44.332  19.717   0.095
37355W        W 9670  20.604  29.204  12.428
37356W        W 9671  11.294  24.559  14.252
37357W        W 9672  43.429  39.407  13.879
37358W        W 9673   7.307  32.595  13.517
37359W        W 9674  12.522  12.868  14.022
37360W        W 9675  24.696  10.080  12.923
37361W        W 9676   6.547  42.114   3.737
37362W        W 9677  16.267  21.285  14.804
37363W        W 9678   8.868  15.292  13.925
37364W        W 9679  43.432  10.128   2.393
37365W        W 9680  43.041   4.972   2.156
37366W        W 9681  14.171  35.389   1.402
37367W        W 9682  36.530  36.701   4.515
37368W        W 9683   3.738  17.340  14.416
37369W        W 9684  24.073   3.337   2.645
37370W        W 9685  44.625  25.750  14.324
37371W        W 9686  31.883  10.293  12.384
37372W        W 9687   4.751  39.531  13.577
37373W        W 9688  21.751   0.775   3.733
37374W        W 9689  20.424   0.240  12.133
37375W        W 9690  22.337  39.973   1.723
37376W        W 9691  22.526  11.638   3.175
37377W        W 9692   5.393  19.812  12.206
37378W        W 9693  28.473  15.067  11.246
37379W        W 9694  44.275  43.037  14.857
37380W        W 9695  32.090  19.234  13.220
37381W        W 9696  23.989   4.302   0.886
37382W        W 9697  26.563  17.375  10.534
37383W        W 9698   3.858  22.986  12.412
37384W        W 9699  11.614  16.606  13.034
37385W        W 9700  25.757  44.396  13.038
37386W        W 9701   0.414  12.065   1.276
37387W        W 9702   9.336  12.856   1.001
37388W        W 9703  29.424  25.418   1.621
37389W        W 9704   1.710  33.981  13.535
37390W        W 9705  40.464  12.953   1.008
37391W        W 9706  13.728  33.787   1.927
37392W        W 9707  44.506  29.230  14.719
37393W        W 9708   7.822   0.327  13.519
37394W        W 9709   5.242  44.974  10.797
37395W        W 9710  13.692  33.606  14.389
37396W        W 9711  27.003   6.692   1.473
37397W        W 9712  21.213  20.307   2.285
37398W        W 9713   4.959  29.410   3.205
37399W        W 9714  38.437   8.808  13.891
37400W        W 9715   8.246  38.011  11.105
37401W        W 9716  29.600  41.579   2.428
37402W        W 9717  19.324  38.352  14.783
37403W        W 9718  43.273  18.241   1.340
37404W        W 9719  27.688  21.722   4.679
37405W        W 9720  42.026  38.837  10.594
37406W        W 9721  18.843   4.991  11.116
37407W        W 9722  34.463  43.723   4.317
37408W        W 9723  29.056  35.535   1.626
37409W        W 9724   9.145  42.556  14.877
37410W        W 9725  26.893  42.898   4.121
37411W        W 9726   9.096  27.211  11.347
37412W        W 9727  35.890  30.471  11.949
37413W        W 9728  39.692   1.134  10.591
37414W        W 9729  29.364   6.795  11.623
37415W        W 9730  24.158  19.125  12.844
37416W        W 9731  23.615  23.366   1.173
37417W        W 9732  29.984  43.601  13.525
37418W        W 9733  38.376  23.966   2.327
37419W        W 9734  33.391   4.613   0.775
37420W        W 9735  11.188  41.420  13.409
37421W        W 9736  22.008  23.179   0.858
37422W        W 9737   3.873  43.234   3.578
37423W        W 9738  16.879   2.443   0.352
37424W        W 9739   0.123  42.847   1.756
37425W        W 9740  17.125   3.642   1.835
37426W        W 9741  33.249  14.961   1.443
37427W        W 9742   8.635  30.984  10.690
37428W        W 9743  21.289  12.419   0.011
37429W        W 9744  13.902  23.661  14.947
37430W        W 9745   5.068  44.798   3.196
37431W        W 9746  40.715  24.348   3.209
37432W        W 9747   2.010  14.267   4.394
37433W        W 9748  16.887  12.400   3.985
37434W        W 9749  26.908  32.988  13.477
37435W        W 9750   6.803  42.405  12.116
37436W        W 9751  26.689  24.519  11.247
37437W        W 9752   6.963  26.291   3.498
37438W        W 9753  36.412   9.215   3.818
37439W        W 9754  13.060  23.591  10.320
37440W        W 9755  10.807   3.953   0.718
37441W        W 9756  28.651  23.975   0.934
37442W        W 9757  22.116  28.601  14.286
37443W        W 9758  37.069   3.190   2.344
37444W        W 9759  23.682  28.859   1.140
37445W        W 9760  18.626  21.792  11.514
37446W        W 9761  43.066  19.307   4.181
37447W        W 9762  15.598  44.982   0.871
37448W        W 9763  36.503  44.839   0.260
37449W        W 9764   9.632   2.855  11.469
37450W        W 9765  21.549  20.675  11.837
37451W        W 9766   0.916  34.270  13.198
37452W        W 9767  38.864   2.927  11.188
37453W        W 9768   4.596  27.134   1.896
37454W        W 9769   6.680  23.683  10.594
37455W        W 9770  12.709  17.782   1.421
37456W        W 9771   0.784   7.798  10.638
37457W        W 9772   8.051  38.098  13.483
37458W        W 9773  29.650  27.405   0.873
37459W        W 9774  12.082  18.023  10.642
37460W        W 9775  43.597  27.133   2.413
37461W        W 9776   8.062  42.922   1.934
37462W        W 9777   0.505   0.129   1.635
37463W        W 9778   9.283  36.285   3.212
37464W        W 9779  10.886  42.288  12.481
37465W        W 9780  13.541  30.552  14.491
37466W        W 9781   5.766  24.972  12.931
37467W        W 9782  43.002  22.713   4.589
37468W        W 9783  14.270   6.112  12.917
37469W        W 9784  22.485  34.499  10.731
37470W        W 9785  11.799  38.240   1.498
37471W        W 9786  23.995  43.290   2.868
37472W        W 9787  42.434  19.094   2.700
37473W        W 9788  22.153  15.312  14.480
37474W        W 9789  41.999  43.616  13.816
37475W        W 9790  16.620  18.115   4.137
37476W        W 9791   2.703  42.934  13.317
37477W        W 9792  13.836   9.428   2.540
37478W        W 9793  20.463  38.946  13.397
37479W        W 9794  11.676   8.867  12.990
37480W        W 9795   9.213  42.257   0.311
37481W        W 9796  14.554  37.570   4.393
37482W        W 9797   7.208  38.825  11.797
37483W        W 9798  44.646  42.417   4.222
37484W        W 9799  23.525  16.755   0.370
37485W        W 9800  40.620  19.745  14.996
37486W        W 9801  16.580  26.682  13.612
37487W        W 9802  35.682  44.301   3.374
37488W        W 9803  35.893  20.952  13.858
37489W        W 9804  29.029  33.213  10.098
37490W        W 9805   4.229  12.164   3.452
37491W        W 9806  17.634  27.730   0.749
37492W        W 9807  34.451  17.668   2.662
37493W        W 9808   5.559  32.129   3.053
37494W        W 9809  35.467  38.722   0.765
37495W        W 9810  39.455  39.829  13.021
37496W        W 9811   5.137   7.870   2.317
37497W        W 9812  14.982   9.025  12.712
37498W        W 9813  15.374   7.137  12.575
37499W        W 9814  29.176  16.853   2.996
37500W        W 9815   3.045  17.682   0.834
37501W        W 9816  17.926  25.311  14.444
37502W        W 9817  16.121  32.779   4.091
37503W        W 9818  20.718  17.875  11.550
37504W        W 9819  24.000  33.126   1.884
37505W        W 9820  41.782   8.124  11.978
37506W        W 9821   8.350  11.181  13.481
37507W        W 9822  23.584  12.181  13.807
37508W        W 9823  29.566   7.251  13.384
37509W        W 9824  28.462  42.455  13.295
37510W        W 9825  37.101  28.032  14.984
37511W        W 9826  33.153  14.539   1.134
37512W        W 9827   8.247  19.773  12.426
37513W        W 9828   9.545   5.237  11.203
37514W        W 9829  12.949   7.772  12.682
37515W        W 9830  16.762   4.882   3.405
37516W        W 9831  24.872  35.040   4.652
37517W        W 9832   1.536  37.552  14.866
37518W        W 9833  16.666  17.000  14.474
37519W        W 9834  10.169  12.061   0.772
37520W        W 9835  32.906   8.213   1.437
37521W        W 9836  27.610  36.828   1.266
37522W        W 9837  27.168  14.051   3.278
37523W        W 9838   3.425  30.657  12.444
37524W        W 9839  41.779   6.982   2.599
37525W        W 9840  43.266  37.999  12.103
37526W        W 9841  15.084  23.130  12.684
37527W        W 9842  34.985  37.563   0.428
37528W        W 9843  22.659   9.684   4.193
37529W        W 9844  25.194   7.179   3.723
37530W        W 9845  29.931  19.211  13.815
37531W        W 9846  16.117  38.027   0.171
37532W        W 9847  24.391   4.719   2.373
37533W        W 9848  24.516  21.051   5.550
37534W        W 9849   5.203  35.357   0.995
37535W        W 9850   3.327   5.622   2.278
37536W        W 9851  28.537  36.434   1.036
37537W        W 9852  22.705  37.303   0.991
37538W        W 9853  28.642  30.946  14.536
37539W        W 9854  35.455  29.360   5.005
37540W        W 9855  35.832  28.920   1.911
37541W        W 9856  40.876  26.463   2.761
37542W        W 9857  41.049   6.343  12.656
37543W        W 9858  24.066  19.144   1.255
37544W        W 9859   1.352  14.053   0.946
37545W        W 9860  17.098  16.384   4.308
37546W        W 9861  38.506   6.771   4.598
37547W        W 9862  11.849  15.670   3.419
37548W        W 9863  19.042  41.446  14.986
37549W        W 9864   1.065   2.960   2.236
37550W        W 9865  16.523  37.403  11.077
37551W        W 9866   9.725  11.589   0.472
37552W        W 9867  22.319  33.484  13.469
37553W        W 9868  38.471  16.209   1.323
37554W        W 9869  12.783  24.555   1.856
37555W        W 9870   9.910  29.924   1.573
37556W        W 9871  37.269  26.677  11.038
37557W        W 9872  10.356  44.534   0.241
37558W        W 9873  23.364  26.648  14.823
37559W        W 9874  19.517  24.581   1.798
37560W        W 9875  19.541  27.013  12.592
37561W        W 9876  17.315  17.816   3.230
37562W        W 9877  26.541  24.472  12.467
37563W        W 9878  44.980   0.920  12.398
37564W        W 9879  26.044  29.165   1.602
37565W        W 9880  10.143  15.802   1.344
37566W        W 9881   9.522  21.710  14.424
37567W        W 9882   3.943  35.169   4.161
37568W        W 9883  35.022  20.230  12.348
37569W        W 9884  10.413  13.327  11.045
37570W        W 9885  17.260  36.408   2.502
37571W        W 9886  26.637  41.522   0.942
37572W        W 9887   0.329   9.319   5.064
37573W        W 9888   8.636  26.445   2.699
37574W        W 9889  25.905  33.351  13.037
37575W        W 9890  34.558   7.653  14.416
37576W        W 9891  17.481  31.704   0.570
37577W        W 9892  40.132  23.091   3.599
37578W        W 9893   6.395  36.403  13.955
37579W        W 9894  38.031   6.728   1.464
37580W        W 9895  42.480  29.333  12.126
37581W        W 9896  10.311  33.436   1.449
37582W        W 9897  39.854   5.744  13.924
37583W        W 9898  31.488  25.656  12.819
37584W        W 9899  17.081  27.664   3.684
37585W        W 9900   9.199  19.533   1.248
37586W        W 9901   0.736  25.551  10.686
37587W        W 9902  18.329  29.504  14.095
37588W        W 9903  34.497   1.383  14.925
37589W        W 9904   0.539  36.963   2.701
37590W        W 9905  23.426  11.860  12.515
37591W        W 9906  15.122  21.856  12.307
37592W        W 9907   4.571   4.840  13.246
37593W        W 9908  25.031   0.036   3.679
37594W        W 9909  17.886   6.251   3.600
37595W        W 9910   2.984  12.407   3.709
37596W        W 9911  43.332   5.853  12.082
37597W        W 9912  29.238  26.064  12.995
37598W        W 9913  36.285  42.721   0.259
37599W        W 9914  41.824  26.251   1.795
37600W        W 9915  40.566  22.833  10.808
37601W        W 9916  37.428   2.919  11.015
37602W        W 9917   0.704  29.397  13.336
37603W        W 9918  36.019   1.231   4.719
37604W        W 9919  28.040  25.667   2.371
37605W        W 9920  23.175  25.225   1.234
37606W        W 9921  42.914  33.572   0.257
37607W        W 9922  32.175  26.153   4.184
37608W        W 9923   6.782   1.953  12.873
37609W        W 9924  35.168  13.737  14.431
37610W        W 9925  10.808  44.036   1.887
37611W        W 9926  10.900  27.945  12.359
37612W        W 9927   1.047   2.883   4.641
37613W        W 9928   3.319  25.138   0.370
37614W        W 9929  17.382  10.994  11.956
37615W        W 9930  23.253  43.451   3.796
37616W        W 9931  41.525  29.500  13.017
37617W        W 9932   3.321  21.946  13.264
37618W        W 9933  13.146  37.019  13.966
37619W        W 9934  33.483   7.869   2.862
37620W        W 9935  15.062  30.194   9.797
37621W        W 9936  10.097  43.798   4.499
37622W        W 9937   2.985  12.031   0.881
37623W        W 9938  41.911   9.831  13.841
37624W        W 9939  40.585  23.121   0.726
37625W        W 9940  43.772  12.389  12.095
37626W        W 9941  40.921  41.529   4.352
37627W        W 9942   7.422  29.009  14.023
37628W        W 9943   7.119   3.702  11.552
37629W        W 9944  17.064   5.927   2.475
37630W        W 9945  44.760   9.723   4.605
37631W        W 9946  12.778  34.597  12.954
37632W        W 9947  37.760   9.228  14.004
37633W        W 9948  19.486  15.220   2.302
37634W        W 9949  10.309  35.231  11.090
37635W        W 9950  41.894   6.748   4.548
37636W        W 9951  36.053  22.008  12.893
37637W        W 9952  24.575  29.959  14.737
37638W        W 9953  24.455  15.293  12.632
37639W        W 9954   2.966   6.789  13.061
37640W        W 9955  26.010  12.546  12.745
37641W        W 9956   7.106  18.296  12.062
37642W        W 9957  12.798  32.401   1.506
37643W        W 9958  40.941  41.703   0.797
37644W        W 9959  28.812  19.844  13.594
37645W        W 9960  10.386   0.289  14.585
37646W        W 9961  22.195  19.674  13.906
37647W        W 9962   0.765  25.998   1.923
37648W        W 9963   3.818  25.986   1.802
37649W        W 9964  39.134   0.887   5.177
37650W        W 9965  11.661  14.805   3.484
37651W        W 9966  17.064  25.971  14.307
37652W        W 9967  14.284  34.647  12.901
37653W        W 9968  33.572  29.592  13.936
37654W        W 9969   8.394  41.902  11.500
37655W        W 9970  33.121  16.848  14.420
37656W        W 9971  21.444  32.637   0.291
37657W        W 9972  21.971  11.263   3.697
37658W        W 9973  11.068   0.644   2.199
37659W        W 9974  28.871   7.861   4.651
37660W        W 9975  32.002  42.319   1.659
37661W        W 9976  18.156  42.518   4.120
37662W        W 9977  43.543  18.226  14.906
37663W        W 9978  37.532   3.369  11.201
37664W        W 9979   8.164  20.841  13.538
37665W        W 9980   6.859  29.199  10.720
37666W        W 9981  23.685  27.261   2.405
37667W        W 9982  30.204   1.291   0.865
37668W        W 9983  33.570  20.120  10.982
37669W        W 9984  34.782  35.003   1.222
37670W        W 9985  43.937  21.049  14.709
37671W        W 9986   6.318  23.724  13.249
37672W        W 9987  28.408  38.974   1.324
37673W        W 9988   5.248  23.478  10.805
37674W        W 9989  36.264  18.256  14.277
37675W        W 9990  26.904  16.800   3.630
37676W        W 9991  15.828  37.402   0.977
37677W        W 9992  10.105  28.698   3.137
37678W        W 9993  13.571  22.031   1.940
37679W        W 9994  23.220  14.811  10.655
37680W        W 9995  44.055  28.588  12.159
37681W        W 9996  22.073   5.925  13.494
37682W        W 9997  27.501  29.092   3.698
37683W        W 9998  35.157  30.775   2.295
37684W        W 9999  22.085  40.937   3.784
37685W        W10000  35.598   2.817   4.056
37686W        W10001  44.234  34.014   4.064
37687W        W10002  37.543  25.240  10.202
37688W        W10003  40.766   5.247   3.934
37689W        W10004  12.173  13.621   0.325
37690W        W10005  40.447  44.475   3.778
37691W        W10006  22.830   2.453  14.572
37692W        W10007  19.650  15.792   0.955
37693W        W10008  27.275  26.286   1.182
37694W        W10009  23.950  35.430  13.876
37695W        W10010  44.867  18.547  12.863
37696W        W10011   7.721  38.303   0.912
37697W        W10012  25.106   2.994  11.174
37698W        W10013  29.609  14.869   3.250
37699W        W10014   8.789  13.733  12.194
37700W        W10015  10.063   5.251   0.305
37701W        W10016  10.847   5.201  13.342
37702W        W10017   6.437  30.219  12.927
37703W        W10018  37.664   9.835  14.291
37704W        W10019  35.040  32.441  14.935
37705W        W10020  35.257   8.214  11.704
37706W        W10021  23.554  31.304  12.560
37707W        W10022   6.823  42.381   3.347
37708W        W10023  14.534  42.727   2.616
37709W        W10024  23.669   3.850  14.905
37710W        W10025  40.566   4.842  10.714
37711W        W10026  32.559  41.088   2.818
37712W        W10027  29.897   0.761   1.333
37713W        W10028  41.992  33.358  14.367
37714W        W10029  43.516   2.152  12.519
37715W        W10030  28.954  33.932  11.936
37716W        W10031  21.450  36.628  14.221
37717W        W10032  30.164  28.974   3.870
37718W        W10033  42.987  43.133   2.861
37719W        W10034  15.115  39.980  10.660
37720W        W10035  42.941  23.569   4.819
37721W        W10036  14.568  31.487  12.937
37722W        W10037  12.645  43.548   4.151
37723W        W10038  28.677  21.244  13.370
37724W        W10039  42.355  24.970  11.006
37725W        W10040   4.318  17.699  13.493
37726W        W10041   9.825  24.709  14.867
37727W        W10042   6.167  29.623   1.460
37728W        W10043  38.295  15.432  12.125
37729W        W10044  44.438  37.258  13.819
37730W        W10045  26.244  38.921  11.489
37731W        W10046  39.164  30.983  13.898
37732W        W10047  41.179  15.852  10.330
37733W        W10048  41.569  26.899   4.256
37734W        W10049  28.193   7.552   3.135
37735W        W10050  34.291   8.704   3.513
37736W        W10051   6.205   5.501  13.539
37737W        W10052  10.265  36.027  10.652
37738W        W10053  23.285  23.120   2.375
37739W        W10054  25.746  29.983  13.097
37740W        W10055   5.207  38.000   4.496
37741W        W10056   6.980  41.937   4.538
37742W        W10057   4.457   2.211   4.324
37743W        W10058   8.819  37.764  10.715
37744W        W10059   5.698  16.520   2.373
37745W        W10060  26.843  21.308   2.093
37746W        W10061  32.394  38.457  11.593
37747W        W10062  17.937   8.146  10.252
37748W        W10063  17.196  38.845  13.499
37749W        W10064  14.013  38.587   3.313
37750W        W10065  36.525   3.704  10.919
37751W        W10066   3.273  24.497   1.218
37752W        W10067  16.125  14.107  12.009
37753W        W10068  38.688  18.338   3.126
37754W        W10069  30.559  13.265  10.653
37755W        W10070   3.292  39.827  12.444
37756W        W10071   3.636   2.584  12.964
37757W        W10072  10.970  29.842  14.805
37758W        W10073  21.208  27.054  12.063
37759W        W10074  15.470  42.566   3.787
37760W        W10075  11.272  21.316   1.870
37761W        W10076   7.639  34.367   4.065
37762W        W10077   5.261  21.145   0.771
37763W        W10078  14.375   0.827   2.659
37764W        W10079  34.475  32.971   1.222
37765W        W10080  12.871  40.820   1.319
37766W        W10081  14.310  21.036   1.300
37767W        W10082  29.665   8.248   2.891
37768W        W10083  43.666  32.789   4.215
37769W        W10084   4.249   6.683  13.532
37770W        W10085  42.990  33.839   0.710
37771W        W10086  18.647  24.230   4.793
37772W        W10087   8.470  27.719   2.792
37773W        W10088  26.657  11.310  11.878
37774W        W10089  16.799   9.873  13.004
37775W        W10090  20.797   0.774   2.829
37776W        W10091  24.246  35.649  11.756
37777W        W10092  24.456  13.816   0.530
37778W        W10093  44.621  15.499  14.333
37779W        W10094  17.414   0.030   0.523
37780W        W10095  26.916   5.486   0.560
37781W        W10096   2.847  26.116   2.860
37782W        W10097  17.220  34.129   0.442
37783W        W10098  17.262   0.386   1.854
37784W        W10099  30.723  21.099   3.416
37785W        W10100  38.930   2.435   1.301
37786W        W10101  19.180  12.604  14.851
37787W        W10102  29.503  22.203  13.122
37788W        W10103   7.722  19.621   3.179
37789W        W10104   7.811   3.349  13.494
37790W        W10105   4.354   1.438   1.273
37791W        W10106  14.592  10.746   0.880
37792W        W10107   7.893   1.898  11.921
37793W        W10108  39.124  37.880   0.910
37794W        W10109  20.304  40.359  12.524
37795W        W10110  17.219  22.516  13.936
37796W        W10111   2.078   2.248   2.795
37797W        W10112  15.053   4.431   3.673
37798W        W10113  33.593  44.435   3.212
37799W        W10114  36.271   9.458  11.365
37800W        W10115  37.043   3.355   1.492
37801W        W10116  31.096  17.618  14.455
37802W        W10117  13.746  43.226   3.713
37803W        W10118  19.139  26.007  10.480
37804W        W10119  36.321   3.823   3.051
37805W        W10120  23.020  29.546  11.116
37806W        W10121   5.907  39.019   3.914
37807W        W10122  14.063  17.821   0.263
37808W        W10123  34.038  33.456  11.459
37809W        W10124  16.643  35.274  13.795
37810W        W10125  18.376  29.968   1.757
37811W        W10126  35.522  43.734  11.953
37812W        W10127  38.844  24.002   3.811
37813W        W10128  17.544  35.449   0.219
37814W        W10129  44.558  30.610   1.927
37815W        W10130  24.666  33.953  11.941
37816W        W10131  12.760  16.146  11.106
37817W        W10132  41.025  30.909  10.683
37818W        W10133  36.868  20.559  13.958
37819W        W10134  26.402  21.984  14.258
37820W        W10135  33.654  35.370   3.372
37821W        W10136  25.119  26.145  13.491
37822W        W10137  36.954   4.785  12.657
37823W        W10138  17.899  44.264  13.147
37824W        W10139  23.588  32.641  10.735
37825W        W10140  39.502  23.469  13.983
37826W        W10141  26.318  13.335   3.326
37827W        W10142  40.606   7.176   1.976
37828W        W10143  13.856   3.818  12.119
37829W        W10144   1.839   8.684   4.907
37830W        W10145  14.512  25.364   1.340
37831W        W10146  31.056  40.880   0.640
37832W        W10147  38.370  16.086  11.111
37833W        W10148  31.689  36.873   1.794
37834W        W10149   9.634  17.072  10.954
37835W        W10150  35.911  29.412   3.976
37836W        W10151  21.205  15.764  11.176
37837W        W10152  40.012  20.995   0.956
37838W        W10153   5.903  40.073   1.760
37839W        W10154  29.150   4.656  11.995
37840W        W10155   5.219  26.681   2.428
37841W        W10156   6.159   1.242   0.859
37842W        W10157  10.952   7.901   0.173
37843W        W10158  13.320  14.527   2.894
37844W        W10159  43.401  12.765  13.491
37845W        W10160  18.035  31.401  11.043
37846W        W10161  36.063  28.884  12.068
37847W        W10162  13.652   0.548   2.827
37848W        W10163  40.169  41.829   2.361
37849W        W10164  34.770  44.400   2.186
37850W        W10165  32.778  32.996  11.345
37851W        W10166   7.664   3.195  14.574
37852W        W10167  41.548  24.692   1.823
37853W        W10168   0.805  39.928   4.134
37854W        W10169  13.107  20.602  10.487
37855W        W10170   6.393  31.570  12.959
37856W        W10171  20.542  36.956   0.656
37857W        W10172  16.995  33.121   3.632
37858W        W10173   1.385  41.041  13.522
37859W        W10174  29.522  25.000   0.715
37860W        W10175  41.066  23.526  12.069
37861W        W10176  23.806  11.063   4.810
37862W        W10177  10.652  31.893  14.740
37863W        W10178  17.351  41.956   4.316
37864W        W10179  40.360  43.497  13.043
37865W        W10180  12.951  23.750  12.117
37866W        W10181  11.826  25.638  12.665
37867W        W10182   1.023   4.429   4.130
37868W        W10183  38.272  35.394  13.846
37869W        W10184  34.792  15.688  14.794
37870W        W10185  27.120  23.504  12.038
37871W        W10186  15.347   8.158   1.221
37872W        W10187  43.481  37.608  10.258
37873W        W10188  26.710  12.144  10.649
37874W        W10189   8.616  22.706   2.796
37875W        W10190  34.958  24.715   1.700
37876W        W10191   1.310  30.545   3.432
37877W        W10192  31.777  21.198  10.510
37878W        W10193  44.874  18.836   3.925
37879W        W10194  18.644  10.306  11.012
37880W        W10195   5.215  36.725   3.240
37881W        W10196  12.396   6.360  11.798
37882W        W10197  11.310  41.867  13.631
37883W        W10198  11.280   5.695  12.862
37884W        W10199  16.790  21.152  13.744
37885W        W10200  14.748  39.117   3.851
37886W        W10201  43.276  24.159  11.796
37887W        W10202  18.381  23.511   4.506
37888W        W10203  25.468  24.102   1.675
37889W        W10204  16.327  15.994   2.079
37890W        W10205  33.122  13.261  10.663
37891W        W10206  37.341  16.138  11.226
37892W        W10207   0.422  32.810  13.067
37893W        W10208  36.393  20.681  11.102
37894W        W10209   2.339   7.869   5.001
37895W        W10210  14.731  11.143  14.489
37896W        W10211  32.410  16.330   4.190
37897W        W10212  13.679  24.292  13.390
37898W        W10213  22.240  19.364   9.777
37899W        W10214  15.308  14.577  12.913
37900W        W10215  26.156  13.634  11.888
37901W        W10216  33.413  33.484  12.946
37902W        W10217   1.448  10.365   0.727
37903W        W10218  41.418   7.955   1.209
37904W        W10219  39.388  37.515  13.890
37905W        W10220  36.016  12.611  11.980
37906W        W10221  28.227  23.570   3.537
37907W        W10222  31.071  13.871   1.665
37908W        W10223  23.558  13.214   4.759
37909W        W10224  16.519   9.136  10.319
37910W        W10225  43.061  28.609  14.869
37911W        W10226  44.975  23.145  12.940
37912W        W10227   7.557   0.803   3.657
37913W        W10228  13.455  14.148   4.828
37914W        W10229  38.327  13.254  10.745
37915W        W10230  39.303  19.008  13.097
37916W        W10231  14.237  11.969  14.276
37917W        W10232  26.094  31.535   3.161
37918W        W10233   0.259   1.823  14.780
37919W        W10234  37.431  16.578  14.531
37920W        W10235  15.630   7.276   0.886
37921W        W10236  43.551  21.629  13.785
37922W        W10237  41.431   6.600   4.312
37923W        W10238  38.557  21.715  14.953
37924W        W10239  28.664  21.705  14.512
37925W        W10240   0.470  38.160  13.429
37926W        W10241   1.722  35.394  13.403
37927W        W10242  15.678  36.120  10.031
37928W        W10243  33.009  23.736  14.972
37929W        W10244  38.454   9.816   2.136
37930W        W10245  14.833  21.828   2.364
37931W        W10246  42.266  17.485  14.583
37932W        W10247  11.575  29.977   2.403
37933W        W10248  21.616  21.656  14.403
37934W        W10249  43.936  20.543  11.155
37935W        W10250   8.166   2.504  10.487
37936W        W10251  33.514  25.635  11.384
37937W        W10252   8.779  10.841  10.721
37938W        W10253  40.297  27.127  11.965
37939W        W10254  26.577  17.296   2.643
37940W        W10255  26.015   3.451   0.993
37941W        W10256  39.752  23.952   0.895
37942W        W10257  44.821  44.272  11.043
37943W        W10258  12.207  43.809   0.532
37944W        W10259  23.711  24.273   1.149
37945W        W10260  27.648  10.701  12.615
37946W        W10261   1.320   3.723   1.185
37947W        W10262   4.957  25.792  10.670
37948W        W10263  28.756  39.842  11.083
37949W        W10264  14.560  17.027   1.952
37950W        W10265  34.855  26.760  10.248
37951W        W10266  43.427  14.389  11.676
37952W        W10267  41.495  41.921   4.656
37953W        W10268  43.061  10.839   1.356
37954W        W10269   9.602   7.423  10.630
37955W        W10270  18.572  33.579  13.861
37956W        W10271  17.984  35.385   0.502
37957W        W10272  44.489  36.529   2.315
37958W        W10273   2.068   0.890  12.442
37959W        W10274  17.658   7.237   4.094
37960W        W10275  42.829  37.523  11.512
37961W        W10276   6.764  42.006   1.844
37962W        W10277  26.014  20.706   4.810
37963W        W10278  19.068  32.432  11.105
37964W        W10279   7.183  30.595  12.495
37965W        W10280  27.986  17.664   1.484
37966W        W10281   3.933  17.661   4.123
37967W        W10282  41.927   1.343   3.159
37968W        W10283  22.027  39.471   1.403
37969W        W10284  28.276  21.986   3.890
37970W        W10285  15.317  30.550  13.872
37971W        W10286  15.092  10.078   3.160
37972W        W10287   8.315  17.254   3.574
37973W        W10288   5.345  24.874  11.570
37974W        W10289  27.608  42.289   0.786
37975W        W10290  25.182  18.527   1.171
37976W        W10291   0.664  29.019  14.395
37977W        W10292  22.031  43.285   3.302
37978W        W10293  29.497  42.887  10.235
37979W        W10294  37.065  43.975  13.501
37980W        W10295   5.091  34.131  14.010
37981W        W10296   8.242  20.331   0.782
37982W        W10297  35.026  37.610   2.269
37983W        W10298  37.464  14.624  12.370
37984W        W10299  15.830  30.093  12.543
37985W        W10300  19.972  44.803  11.117
37986W        W10301   3.318   2.334  11.756
37987W        W10302   8.196   0.579   2.144
37988W        W10303  34.711   6.676   3.704
37989W        W10304  16.235   0.186  11.290
37990W        W10305  14.243  40.791   2.795
37991W        W10306  37.945  12.644   3.736
37992W        W10307  16.676  29.126  14.966
37993W        W10308  41.225  27.074   4.653
37994W        W10309  12.533  31.850   2.342
37995W        W10310  12.685   0.283  10.935
37996W        W10311  28.626  20.637   4.824
37997W        W10312  32.159  22.133   2.815
37998W        W10313  31.586  16.462   1.349
37999W        W10314  10.256  24.970   0.467
38000W        W10315  35.487   0.315   1.389
38001W        W10316  14.877   4.825   1.247
38002W        W10317   1.335  25.515   4.866
38003W        W10318  30.125  39.952   4.598
38004W        W10319  12.471  36.455   3.236
38005W        W10320  12.480  10.908  10.764
38006W        W10321  29.465  10.212  14.916
38007W        W10322  26.713  33.403   1.358
38008W        W10323  36.554  28.636   1.046
38009W        W10324  30.391  28.831   0.352
38010W        W10325   3.723  16.537   2.187
38011W        W10326  34.111   5.596  10.661
38012W        W10327   9.733  16.586  12.046
38013W        W10328  21.867  15.020  12.984
38014W        W10329  35.628  42.057   0.951
38015W        W10330   0.873   5.469   4.035
38016W        W10331  44.658   8.146   3.242
38017W        W10332  15.288  35.511   0.318
38018W        W10333  25.243   0.398   1.159
38019W        W10334   8.319  25.651  13.061
38020W        W10335  38.632   8.822   0.045
38021W        W10336  33.393  43.327  14.685
38022W        W10337  18.157  33.353  12.830
38023W        W10338   5.358   0.850  10.993
38024W        W10339  44.438  13.209  10.558
38025W        W10340  33.021   3.636   1.472
38026W        W10341  29.578  25.904   2.199
38027W        W10342  30.999   0.364   0.515
38028W        W10343  12.068  26.081   2.773
38029W        W10344   0.309  34.760   4.352
38030W        W10345   0.026   3.359   1.214
38031W        W10346   6.991  18.683   2.759
38032W        W10347  44.486  14.144  14.973
38033W        W10348   3.537   6.417  11.031
38034W        W10349  34.358  25.490   2.591
38035W        W10350  44.262  37.538   2.937
38036W        W10351  25.229  13.241   3.114
38037W        W10352  28.613  36.813  14.712
38038W        W10353  15.124  39.117  10.438
38039W        W10354  24.635  22.832   1.697
38040W        W10355   3.397  34.180  11.093
38041W        W10356  23.577  27.013   4.319
38042W        W10357  23.501  19.553  13.050
38043W        W10358  21.422  32.520  10.647
38044W        W10359  39.315  23.226   0.469
38045W        W10360  40.315   9.713  14.688
38046W        W10361  10.367  11.038   2.933
38047W        W10362   3.585  10.277  11.843
38048W        W10363  25.196   4.050  11.598
38049W        W10364  20.775   3.531   2.955
38050W        W10365   4.385  34.102   0.990
38051W        W10366   8.731  21.037   3.360
38052W        W10367   6.190  14.255   5.359
38053W        W10368  23.224  12.921   4.103
38054W        W10369  23.085  13.723  14.510
38055W        W10370  18.122  18.737  10.566
38056W        W10371  43.251  21.723  14.198
38057W        W10372  28.899  22.722  13.560
38058W        W10373  24.078  31.992   1.204
38059W        W10374  22.730   0.780   1.869
38060W        W10375  10.089  36.137  12.926
38061W        W10376  23.263  34.518  12.932
38062W        W10377   4.238  40.797   4.078
38063W        W10378  23.943   3.941   0.342
38064W        W10379  33.859   3.393   2.377
38065W        W10380   8.621   7.791   2.858
38066W        W10381  26.499  13.331   4.578
38067W        W10382   0.549   0.206   3.585
38068W        W10383   2.799  22.676   1.196
38069W        W10384  39.873   8.844  13.029
38070W        W10385  23.635  18.737  12.141
38071W        W10386  14.754   7.920  11.246
38072W        W10387  41.760   1.027   1.215
38073W        W10388  30.050   9.588   0.346
38074W        W10389   5.818  25.759  14.463
38075W        W10390  33.594  44.957  12.479
38076W        W10391  42.450   0.459  14.934
38077W        W10392   8.399  39.054  12.501
38078W        W10393  10.728  29.920   4.829
38079W        W10394  13.146  35.289   1.379
38080W        W10395  14.764  43.310   4.248
38081W        W10396  25.711  37.899  10.389
38082W        W10397  33.809  41.105   4.495
38083W        W10398  30.832  25.546   1.797
38084W        W10399  25.067   3.727  13.042
38085W        W10400  23.985  24.560  13.943
38086W        W10401  40.242  37.299  12.987
38087W        W10402   6.681  27.109   4.168
38088W        W10403  31.377   5.640   4.101
38089W        W10404  35.238  13.606  11.026
38090W        W10405   1.325  29.355   2.336
38091W        W10406   7.851  34.768  10.193
38092W        W10407   7.289  23.733   4.171
38093W        W10408  25.460  33.840   5.205
38094W        W10409  26.572  39.609   3.090
38095W        W10410  10.678   0.370  13.059
38096W        W10411  37.894   0.016  13.958
38097W        W10412  18.184  13.562   3.699
38098W        W10413  19.616  43.103   3.706
38099W        W10414   9.135  32.464   1.321
38100W        W10415  23.413   1.360   3.299
38101W        W10416  26.967  38.578   2.239
38102W        W10417  16.038   4.581  11.129
38103W        W10418   4.250  21.687   0.221
38104W        W10419  39.272  35.542   1.742
38105W        W10420  33.550  32.838  10.782
38106W        W10421  28.315  17.296  10.641
38107W        W10422  40.456  15.217  10.754
38108W        W10423  12.644   8.730   0.867
38109W        W10424  30.279   0.362  13.856
38110W        W10425  26.384   5.307   4.040
38111W        W10426  13.185  43.833   2.650
38112W        W10427   6.222  22.531  10.540
38113W        W10428  40.961  33.884  13.070
38114W        W10429  18.786  15.398  13.091
38115W        W10430  25.750  28.045   0.738
38116W        W10431   8.264  17.280  14.733
38117W        W10432  40.487  26.057   2.800
38118W        W10433  10.749   9.476  11.959
38119W        W10434   2.291  27.952   3.650
38120W        W10435  20.581   9.243  12.870
38121W        W10436  20.629   5.367   3.932
38122W        W10437  40.929  22.512  14.296
38123W        W10438  36.506  32.846   1.523
38124W        W10439   1.849  35.312  11.680
38125W        W10440  18.784  14.075   4.170
38126W        W10441  44.962  34.334   2.848
38127W        W10442   0.775  17.587  14.920
38128W        W10443   2.012  36.014   2.202
38129W        W10444  21.194   8.220   3.102
38130W        W10445  23.540   1.287  14.767
38131W        W10446  29.417  13.437   4.342
38132W        W10447  35.934   7.642   1.972
38133W        W10448  19.568  12.126  11.845
38134W        W10449  40.615  33.677   2.279
38135W        W10450  31.042  38.835   1.457
38136W        W10451   7.153  34.957  11.228
38137W        W10452  20.097  37.156  13.489
38138W        W10453  25.965  41.854   0.464
38139W        W10454  11.103  35.332   2.847
38140W        W10455  18.249  16.068   0.199
38141W        W10456  41.456  38.797  13.940
38142W        W10457  22.947  36.398  11.711
38143W        W10458  30.127  15.096   3.646
38144W        W10459  31.206  19.662   4.568
38145W        W10460  39.083  33.547   2.327
38146W        W10461  40.160  24.213   4.772
38147W        W10462  44.850  42.780  13.683
38148W        W10463  10.964  25.535  12.764
38149W        W10464  25.067  21.640  11.077
38150W        W10465  30.048  15.218  10.890
38151W        W10466  13.148   6.399   0.007
38152W        W10467  33.930  33.526   4.671
38153W        W10468  20.855  42.809  13.839
38154W        W10469  32.621   6.632   4.131
38155W        W10470  43.142  10.921   3.570
38156W        W10471   5.382  25.618   4.395
38157W        W10472  29.878  25.635  12.092
38158W        W10473   3.485  15.690  13.420
38159W        W10474   5.210   4.084   0.883
38160W        W10475  41.505  13.412  12.880
38161W        W10476  25.072  37.575  13.264
38162W        W10477  37.426   3.927  12.382
38163W        W10478  10.269  13.093  13.074
38164W        W10479  26.276  39.905   3.430
38165W        W10480  37.496   2.065   0.259
38166W        W10481  24.064  34.631  11.510
38167W        W10482  13.886  13.861   3.987
38168W        W10483  11.299  18.100  10.295
38169W        W10484  12.538  15.074  11.409
38170W        W10485  23.329   0.741  12.002
38171W        W10486  11.775   7.042  14.093
38172W        W10487  13.716   2.826   2.239
38173W        W10488  41.882  30.260   1.944
38174W        W10489  39.559  18.059   2.844
38175W        W10490  22.042  15.415  11.110
38176W        W10491  30.590  35.888  14.906
38177W        W10492  27.402  30.885  10.989
38178W        W10493  43.528  43.421  10.652
38179W        W10494  18.312  11.764  13.951
38180W        W10495  20.261  22.228  13.875
38181W        W10496  15.277  40.467  13.065
38182W        W10497  14.031  14.614   2.485
38183W        W10498  18.728   1.053   5.093
38184W        W10499  21.859  25.463  11.186
38185W        W10500  31.990  23.476   4.572
38186W        W10501  37.059   8.577  14.578
38187W        W10502  40.758  41.162   3.319
38188W        W10503  13.910   8.498   4.078
38189W        W10504  37.922   3.771  13.692
38190W        W10505  32.379  37.999   3.263
38191W        W10506   4.234  38.508  13.765
38192W        W10507  32.009  31.315   4.329
38193W        W10508  25.740   8.834   3.180
38194W        W10509  44.921  16.737   4.589
38195W        W10510  12.222  11.913   2.764
38196W        W10511  39.833  36.337  12.518
38197W        W10512  25.064  31.404  12.519
38198W        W10513  37.308  24.138  14.345
38199W        W10514  43.783   2.428   2.236
38200W        W10515  33.155  10.313  14.380
38201W        W10516   4.735  34.299  10.263
38202W        W10517  25.386  43.086   0.381
38203W        W10518  35.184  17.236   2.585
38204W        W10519   7.394  31.305  13.784
38205W        W10520  31.141  18.143  14.365
38206W        W10521  28.906  43.021  13.875
38207W        W10522  28.951  28.591  12.022
38208W        W10523  11.404   7.340   2.514
38209W        W10524  12.665   2.346  14.684
38210W        W10525   9.179  14.198  14.315
38211W        W10526   3.835  29.343  12.573
38212W        W10527  15.888   2.240   1.688
38213W        W10528  24.561  12.693   0.954
38214W        W10529   4.396  27.021   1.402
38215W        W10530  14.054  21.138  14.460
38216W        W10531  34.622  28.759  14.396
38217W        W10532  38.446  27.181   0.385
38218W        W10533  11.338  33.057   0.433
38219W        W10534  41.924  42.259  12.999
38220W        W10535  42.683  18.622   0.121
38221W        W10536   7.222  26.764   4.208
38222W        W10537  13.020  41.362  12.210
38223W        W10538  34.337   7.406   0.311
38224W        W10539   4.417  36.490  14.945
38225W        W10540  37.989  19.117   3.898
38226W        W10541   5.342   4.352  13.569
38227W        W10542  41.610  38.022  11.888
38228W        W10543  38.524  36.708  10.982
38229W        W10544  44.434  13.330  11.492
38230W        W10545   0.230   6.254   2.881
38231W        W10546   6.138   7.192   1.913
38232W        W10547  27.105   7.198  10.384
38233W        W10548   2.364  33.516  14.243
38234W        W10549   8.013  35.334  11.067
38235W        W10550  18.512  27.970  12.340
38236W        W10551  39.109  38.900   1.986
38237W        W10552  25.599  11.215   4.598
38238W        W10553  24.765   5.431  11.342
38239W        W10554  20.240  27.209  11.133
38240W        W10555  22.131  17.878  13.406
38241W        W10556  20.150  41.579   4.576
38242W        W10557  10.768  13.103  11.871
38243W        W10558   6.221   8.402   4.704
38244W        W10559  29.553  22.394   2.756
38245W        W10560   8.473   1.945  11.950
38246W        W10561  34.395   2.920   2.912
38247W        W10562  18.708  22.053  14.992
38248W        W10563  17.255  38.286  11.607
38249W        W10564   7.795  15.621  14.385
38250W        W10565   1.316  20.975  14.392
38251W        W10566  29.487  34.093  10.251
38252W        W10567   9.267   4.666   4.599
38253W        W10568   8.631  21.027   2.447
38254W        W10569  24.572  35.139  13.382
38255W        W10570  44.266   8.810   4.714
38256W        W10571  34.809  37.107   3.107
38257W        W10572  14.413   9.829  14.454
38258W        W10573  42.987  35.170  13.344
38259W        W10574  16.358   1.846   2.639
38260W        W10575  22.584   8.358   1.196
38261W        W10576  21.051  44.157  10.828
38262W        W10577  33.973  23.948  11.362
38263W        W10578   6.685  37.090  13.436
38264W        W10579  25.273  31.066  12.900
38265W        W10580  18.658  36.627  14.914
38266W        W10581   0.852   4.174   4.540
38267W        W10582  19.736  34.909   2.275
38268W        W10583  13.055  41.828  11.490
38269W        W10584  42.570  28.574  12.201
38270W        W10585  14.586  44.940   1.758
38271W        W10586  21.416  20.055   0.542
38272W        W10587  21.210  22.085   4.298
38273W        W10588  28.875  33.514   9.725
38274W        W10589  27.556  35.441  10.677
38275W        W10590  26.247  38.421   1.443
38276W        W10591  39.437   7.481   1.002
38277W        W10592  13.488  42.819   3.149
38278W        W10593  16.624  32.109  14.012
38279W        W10594  23.799  42.208   0.277
38280W        W10595  22.156  31.855   0.040
38281W        W10596  34.490   7.155  12.963
38282W        W10597  27.647   6.466  12.369
38283W        W10598  11.866  34.602  13.831
38284W        W10599  16.761  28.133  13.028
38285W        W10600  18.134  38.499   4.752
38286W        W10601  16.619  20.033   3.642
38287W        W10602   1.051  11.668   2.427
38288W        W10603  15.284  33.157   3.950
38289W        W10604  29.468   9.465   4.576
38290W        W10605  11.121  31.987  14.037
38291W        W10606   1.918  39.647  13.967
38292W        W10607  27.189  29.511   4.513
38293W        W10608  20.477  32.037   2.852
38294W        W10609  15.607  10.385   4.892
38295W        W10610  14.619  16.577  14.272
38296W        W10611  44.486  28.755   3.842
38297W        W10612   2.413  28.478   1.852
38298W        W10613  21.232  13.644   4.734
38299W        W10614   4.313  34.961  11.545
38300W        W10615  29.905  12.223   1.328
38301W        W10616  35.914  24.054   1.245
38302W        W10617  25.400  17.564   0.288
38303W        W10618  33.911  18.252   4.139
38304W        W10619  35.814  14.645  12.459
38305W        W10620  37.698  42.726   0.437
38306W        W10621  22.096  31.582  13.906
38307W        W10622   2.408  38.731   1.880
38308W        W10623  40.411  36.091   2.216
38309W        W10624  17.495  25.524   4.035
38310W        W10625   3.379  39.459  14.514
38311W        W10626  18.214   5.244  14.768
38312W        W10627  16.427  21.538   3.122
38313W        W10628  29.646  16.323   2.337
38314W        W10629  16.693  40.641   4.088
38315W        W10630   2.664  36.348  14.326
38316W        W10631   3.240  28.236   3.658
38317W        W10632  27.113  39.410   3.347
38318W        W10633  19.706  37.979  12.442
38319W        W10634   7.894  21.075  11.065
38320W        W10635  36.053  22.247  13.746
38321W        W10636  24.220  39.213   0.468
38322W        W10637  41.551  30.587   3.177
38323W        W10638  34.104  24.744   1.320
38324W        W10639  29.110  28.111  13.747
38325W        W10640   8.315  39.812   0.349
38326W        W10641   7.667  15.572  13.496
38327W        W10642  30.467  39.636   0.400
38328W        W10643  11.379  21.764  12.172
38329W        W10644  35.381  32.466   3.189
38330W        W10645  24.466  16.370   0.737
38331W        W10646  29.594   2.300  11.572
38332W        W10647   2.649   5.217   4.162
38333W        W10648  11.700  36.476   0.951
38334W        W10649   6.469  17.570   4.126
38335W        W10650  38.149   3.470  12.851
38336W        W10651   2.206  42.966   0.801
38337W        W10652  27.098  14.763   2.238
38338W        W10653  25.097   3.383  14.344
38339W        W10654  36.597   8.690  13.940
38340W        W10655  25.506  31.151   2.777
38341W        W10656   3.548  12.594   4.221
38342W        W10657  44.428  20.736  12.494
38343W        W10658  16.730  27.039  14.476
38344W        W10659  33.411  32.515  11.201
38345W        W10660  28.103  34.922  10.525
38346W        W10661   6.002   3.828  14.189
38347W        W10662  36.815  23.038   3.666
38348W        W10663   1.942  16.582   3.623
38349W        W10664  16.693  11.322   3.362
38350W        W10665  33.854  26.447   0.406
38351W        W10666  10.121  32.960   2.660
38352W        W10667  25.742  24.018   0.208
38353W        W10668  12.914   6.239   0.445
38354W        W10669  31.597  10.180  11.107
38355W        W10670  28.705   0.853  11.988
38356W        W10671  18.794  16.073  11.225
38357W        W10672  11.125  23.520   2.574
38358W        W10673  29.055   8.241   1.740
38359W        W10674  12.785  12.691  14.450
38360W        W10675  11.804  20.765   4.412
38361W        W10676  14.917   6.952   0.516
38362W        W10677  21.152   6.311   2.664
38363W        W10678  42.763  33.343   0.720
38364W        W10679   3.433  32.938   1.330
38365W        W10680   5.714   0.366   2.319
38366W        W10681  23.468   3.251   3.259
38367W        W10682  29.496  34.296   5.019
38368W        W10683   0.257  23.123  13.377
38369W        W10684   0.452  18.599  10.793
38370W        W10685  42.611  21.591  11.879
38371W        W10686   6.139  33.415  11.161
38372W        W10687   2.036   5.245  14.975
38373W        W10688  33.519  10.750  13.943
38374W        W10689   1.580  12.257   0.817
38375W        W10690  34.370  18.545   1.880
38376W        W10691  17.290   8.186   1.538
38377W        W10692  27.189  33.914   0.892
38378W        W10693   1.951  13.524  14.866
38379W        W10694   3.731  19.001  10.920
38380W        W10695  27.436  20.980  14.856
38381W        W10696   3.504   8.020   3.278
38382W        W10697  11.595  18.461   0.327
38383W        W10698  14.789   1.430  14.972
38384W        W10699   8.909  18.620   4.160
38385W        W10700  18.631   2.285  10.721
38386W        W10701  40.491  40.316   1.250
38387W        W10702  13.646  43.013  10.538
38388W        W10703   3.130  32.405  12.092
38389W        W10704  31.489  13.384   0.262
38390W        W10705  38.978  10.648  14.078
38391W        W10706   0.413  38.286   3.272
38392W        W10707   1.325  12.659  12.375
38393W        W10708  38.529   1.056   1.709
38394W        W10709   8.033  27.129  14.831
38395W        W10710  25.568  34.940  14.445
38396W        W10711  14.571  37.763  13.843
38397W        W10712  23.074   8.888   4.222
38398W        W10713  13.459  30.962   2.201
38399W        W10714  33.641  13.656  14.299
38400W        W10715  25.654  24.629  11.141
38401W        W10716  43.614  13.051  13.113
38402W        W10717  13.650  24.014   4.161
38403W        W10718  36.510  32.183   0.843
38404W        W10719  24.682  10.652   1.346
38405W        W10720  37.987  40.878   1.097
38406W        W10721  13.143  38.066  10.722
38407W        W10722  39.486   5.064  12.953
38408W        W10723  16.574  17.572   3.652
38409W        W10724  36.993  16.870   0.786
38410W        W10725  41.564  21.295  12.705
38411W        W10726  32.418  16.126   3.720
38412W        W10727   1.300  18.713   1.794
38413W        W10728  25.400   4.943  11.446
38414W        W10729  18.668  26.225   2.505
38415W        W10730  18.753   6.156   1.243
38416W        W10731  39.582  35.120  13.975
38417W        W10732  14.251  15.183   1.881
38418W        W10733   2.748   2.766  11.448
38419W        W10734  10.052  26.536  12.649
38420W        W10735  43.345  29.021  12.921
38421W        W10736  37.731  10.868  14.356
38422W        W10737   5.909   9.736   4.020
38423W        W10738  35.862  31.681  12.473
38424W        W10739   7.289  10.394  12.863
38425W        W10740  12.867  42.308  10.638
38426W        W10741  10.570  30.999  13.158
38427W        W10742  24.042   5.388   0.169
38428W        W10743  14.848  36.514  14.932
38429W        W10744   5.943  33.603  14.983
38430W        W10745  39.851  17.660   2.982
38431W        W10746   5.174  10.289   1.938
38432W        W10747  25.170   9.320  11.511
38433W        W10748   0.639  38.277  12.335
38434W        W10749  24.754   9.296   2.732
38435W        W10750   3.811  39.747  11.648
38436W        W10751  17.763  40.387   1.146
38437W        W10752  26.052  28.589   4.643
38438W        W10753  17.215  28.024   0.696
38439W        W10754  18.201  14.669   4.399
38440W        W10755  21.388  12.417   1.488
38441W        W10756  31.431  28.665   2.809
38442W        W10757   4.485  10.372   3.274
38443W        W10758  44.439   9.660  12.125
38444W        W10759   2.572   6.751  11.478
38445W        W10760  13.733  24.427  14.461
38446W        W10761  37.922  42.954   1.867
38447W        W10762  25.120  32.845   4.345
38448W        W10763  25.170  44.292   4.616
38449W        W10764  10.373   9.905  13.594
38450W        W10765  29.894  32.538   1.434
38451W        W10766   8.162  17.832  11.122
38452W        W10767  21.196  41.631   2.259
38453W        W10768  15.757  11.611  11.560
38454W        W10769  27.440   0.810  12.804
38455W        W10770  34.022  43.866   4.628
38456W        W10771  28.412   0.234   4.508
38457W        W10772   0.689  22.369   2.193
38458W        W10773  27.490  19.669  14.723
38459W        W10774  24.406  28.511  10.452
38460W        W10775  30.715  17.524  13.515
38461W        W10776  38.292  30.543  14.756
38462W        W10777  27.730   8.199  14.512
38463W        W10778  17.122   3.412   4.561
38464W        W10779  34.423  22.601  14.261
38465W        W10780  14.796  29.663   5.185
38466W        W10781  31.486  23.890  10.754
38467W        W10782   7.643  30.347  12.443
38468W        W10783  15.390   3.394   2.825
38469W        W10784   1.373  36.649  11.598
38470W        W10785  38.011  37.383  12.718
38471W        W10786  44.526  20.057  13.933
38472W        W10787   2.241  28.885  12.116
38473W        W10788   0.812   5.418  12.796
38474W        W10789  29.030  14.677   3.169
38475W        W10790  30.246  28.152  11.307
38476W        W10791  16.303  11.073   3.135
38477W        W10792   3.415  10.275  14.858
38478W        W10793  29.337  33.884   2.344
38479W        W10794  14.324  13.604   3.868
38480W        W10795  35.057  12.353   2.384
38481W        W10796  30.003  27.019   4.917
38482W        W10797   3.307  21.417   1.764
38483W        W10798  16.108  25.161   2.666
38484W        W10799  32.448  32.977  14.907
38485W        W10800  33.050   3.675  11.473
38486W        W10801   5.000  40.796   4.442
38487W        W10802  30.761  28.874  14.351
38488W        W10803   3.681  40.240   4.617
38489W        W10804   2.595  16.629  11.530
38490W        W10805   9.886   9.098  13.068
38491W        W10806  36.275   8.889   3.202
38492W        W10807  25.497  30.343  14.434
38493W        W10808  21.965  40.918   1.302
38494W        W10809  21.554  25.711  13.944
38495W        W10810  34.841   9.387  12.044
38496W        W10811  19.684  17.571   4.240
38497W        W10812  25.882  37.764   1.932
38498W        W10813  32.408  18.848   3.337
38499W        W10814   1.830  41.587  14.912
38500W        W10815  24.032  22.037  10.021
38501W        W10816   8.393  14.934  11.621
38502W        W10817  34.653  13.444  12.921
38503W        W10818  30.631  40.826   1.939
38504W        W10819  18.699  41.048   3.565
38505W        W10820  21.236  32.066   2.237
38506W        W10821  34.524  41.289   0.359
38507W        W10822   2.377  38.878  14.856
38508W        W10823  17.693  14.730  13.379
38509W        W10824  25.132  39.448  12.778
38510W        W10825   7.388   0.158   2.757
38511W        W10826  27.995  12.720   0.663
38512W        W10827  28.011   8.897  14.595
38513W        W10828  44.709  11.710  13.811
38514W        W10829   1.755   6.294   4.749
38515W        W10830  10.741  13.769   4.819
38516W        W10831  33.555  31.163  14.788
38517W        W10832  28.040   3.141  10.642
38518W        W10833  12.429   8.596   3.757
38519W        W10834  28.433  33.267   5.003
38520W        W10835  44.478  32.100  14.846
38521W        W10836  43.293  39.960  14.712
38522W        W10837  19.782  22.384   2.286
38523W        W10838   5.670  14.316   1.444
38524W        W10839  27.169  32.032   1.396
38525W        W10840  27.787  15.523   3.167
38526W        W10841   6.649   5.840  13.836
38527W        W10842  44.964  28.135   0.397
38528W        W10843  10.196  39.305   1.822
38529W        W10844   4.422   8.129   3.648
38530W        W10845  36.078   6.878  13.413
38531W        W10846  25.229   0.168   4.976
38532W        W10847  37.957  36.458   2.126
38533W        W10848  28.469  25.063   3.761
38534W        W10849  18.589  38.859   0.359
38535W        W10850  38.782  42.542   4.605
38536W        W10851   1.989  34.371  12.410
38537W        W10852   7.185  22.661  14.349
38538W        W10853  23.074  41.250  11.567
38539W        W10854  41.375  44.669   4.806
38540W        W10855   2.240   9.235   0.509
38541W        W10856  36.603   1.748   4.119
38542W        W10857   2.867   1.430  12.552
38543W        W10858  24.761  34.584   0.389
38544W        W10859   8.670  14.187  14.354
38545W        W10860   4.922  27.238  13.041
38546W        W10861  21.494  29.458  14.987
38547W        W10862  27.575  41.005   3.610
38548W        W10863   6.260  26.205   2.535
38549W        W10864  19.767  39.778  12.859
38550W        W10865  42.426  25.897   4.016
38551W        W10866  43.435  24.571   1.173
38552W        W10867  22.804  21.103  14.444
38553W        W10868  37.819   7.546   1.258
38554W        W10869  14.867   9.717   1.322
38555W        W10870  23.764  17.610   3.690
38556W        W10871   6.706  25.750   0.312
38557W        W10872   8.723  28.096   0.043
38558W        W10873   0.893  28.531  14.723
38559W        W10874  21.322  34.118   1.204
38560W        W10875  18.536  43.283  14.729
38561W        W10876  44.293   4.519   0.764
38562W        W10877  20.169  38.620  14.288
38563W        W10878  26.952  32.415  13.841
38564W        W10879  20.605  24.097   3.403
38565W        W10880  44.437   1.255  11.019
38566W        W10881   4.411  24.139   4.045
38567W        W10882  40.487  29.214  12.365
38568W        W10883  30.965   9.259  11.621
38569W        W10884  18.595  33.095   4.221
38570W        W10885  43.900  38.112  10.664
38571W        W10886  16.256  27.469  11.243
38572W        W10887   3.763  28.578  11.486
38573W        W10888  44.770  27.405  14.875
38574W        W10889   3.652  32.171  10.949
38575W        W10890  10.901  20.168  11.411
38576W        W10891   9.350  34.256   4.995
38577W        W10892  18.152  18.034   4.499
38578W        W10893  19.632   6.113  13.094
38579W        W10894  34.338   7.863  13.484
38580W        W10895  17.157  17.664  12.660
38581W        W10896  26.622  35.687  12.977
38582W        W10897  26.036   3.881   4.561
38583W        W10898  21.691  36.817   0.180
38584W        W10899  30.400  20.688   3.244
38585W        W10900   3.834  23.071   4.398
38586W        W10901  12.818  10.289  11.511
38587W        W10902  26.380   7.761  11.074
38588W        W10903  24.111  26.237  13.902
38589W        W10904  34.048  17.311  13.661
38590W        W10905  11.305  43.260   2.708
38591W        W10906  23.030  43.096  10.529
38592W        W10907  28.391   1.499   2.308
38593W        W10908  16.723  24.069  14.903
38594W        W10909  34.904  41.246  12.025
38595W        W10910  44.375  15.390   4.706
38596W        W10911  15.726  10.376  13.774
38597W        W10912  40.351   8.450   0.436
38598W        W10913  35.565  39.831   0.823
38599W        W10914  39.433   8.890  11.364
38600W        W10915  28.539  39.838   4.618
38601W        W10916  22.678  20.121  11.170
38602W        W10917  14.027  19.045  10.802
38603W        W10918  18.973  44.975  12.590
38604W        W10919  32.038  18.792  13.501
38605W        W10920  43.847  16.634   4.725
38606W        W10921  44.499   3.299   4.166
38607W        W10922  36.015  27.972  10.657
38608W        W10923  36.071  16.081  11.951
38609W        W10924  38.942  15.704   1.002
38610W        W10925  11.775   7.646  14.079
38611W        W10926  13.930   9.396  13.827
38612W        W10927  21.274  21.115   9.787
38613W        W10928  24.125  14.634  13.818
38614W        W10929  20.547  27.523   2.442
38615W        W10930  38.990  31.684   2.671
38616W        W10931  18.025  27.462   3.869
38617W        W10932  10.253   0.906   3.151
38618W        W10933  20.012  26.115  10.298
38619W        W10934  11.830  24.975  12.015
38620W        W10935  31.669  12.243   0.336
38621W        W10936  13.088  15.665   2.211
38622W        W10937   7.360  10.355  10.897
38623W        W10938  30.172   7.225  10.717
38624W        W10939  19.777  39.780   2.828
38625W        W10940   7.721  27.921   1.819
38626W        W10941  30.714  33.222  12.898
38627W        W10942  37.501  27.936   2.884
38628W        W10943  34.579  11.147   3.706
38629W        W10944  12.524  24.634  11.569
38630W        W10945  20.935  30.741   4.203
38631W        W10946  31.504   2.904  11.504
38632W        W10947  10.790  15.756  10.240
38633W        W10948   1.842  41.302   2.658
38634W        W10949  21.596  19.527  11.143
38635W        W10950   5.855   9.072   1.337
38636W        W10951  39.450  31.369   1.848
38637W        W10952  23.763  20.630  12.037
38638W        W10953  31.017   6.388   1.143
38639W        W10954  23.979   2.529   1.049
38640W        W10955  28.251   9.769  12.069
38641W        W10956   3.418   5.679   3.634
38642W        W10957   1.691   8.920   0.853
38643W        W10958   2.879  33.421  12.098
38644W        W10959   3.208  38.868  12.408
38645W        W10960   2.837  24.423   4.681
38646W        W10961   8.655  33.962  13.752
38647W        W10962   6.281  16.572  13.355
38648W        W10963  41.260  10.588  14.288
38649W        W10964  39.677  40.058   1.400
38650W        W10965  12.185   8.686   4.604
38651W        W10966  26.045  21.975   3.231
38652W        W10967  15.731  17.351   1.358
38653W        W10968   5.283  42.997   4.534
38654W        W10969  20.208  35.800  12.271
38655W        W10970  17.209  14.616  10.890
38656W        W10971  11.243  44.208   0.450
38657W        W10972  19.061  34.048   1.319
38658W        W10973  21.457  31.587  10.595
38659W        W10974  26.431  31.914  11.610
38660W        W10975  30.236  27.487   0.262
38661W        W10976  40.438  32.435   4.592
38662W        W10977   5.791  42.549   2.312
38663W        W10978  35.799  36.035  11.530
38664W        W10979   7.736  25.375   2.828
38665W        W10980  30.414  44.705  12.912
38666W        W10981  37.654  18.701   3.974
38667W        W10982  44.448  28.674   1.887
38668W        W10983  29.210  10.854   1.512
38669W        W10984  13.556   0.423  13.511
38670W        W10985  28.545  11.391   1.370
38671W        W10986  25.138   9.393   1.265
38672W        W10987  17.661  29.684  13.562
38673W        W10988  41.627  14.733  13.380
38674W        W10989  22.004  34.709  10.840
38675W        W10990   3.235  11.620   2.721
38676W        W10991  39.871  37.381  13.741
38677W        W10992   2.847  25.474   2.309
38678W        W10993   4.681  42.248   5.050
38679W        W10994   2.486  25.664  13.654
38680W        W10995  24.865  17.593   0.279
38681W        W10996  12.836  41.728   3.692
38682W        W10997  25.082  34.405   3.641
38683W        W10998   1.716  11.860  14.674
38684W        W10999  43.351  12.213  10.911
38685W        W11000   6.515   3.408   0.496
38686W        W11001  25.900  20.731   3.841
38687W        W11002  40.291  34.459   0.335
38688W        W11003   2.258  11.209   4.971
38689W        W11004  43.526   9.296   0.781
38690W        W11005  44.830   7.337   3.469
38691W        W11006  36.505  12.147  14.759
38692W        W11007  22.190  14.516   0.952
38693W        W11008  13.908   6.886   0.562
38694W        W11009   9.853  26.692  10.721
38695W        W11010   3.762   5.834   0.826
38696W        W11011  31.110  14.812  10.612
38697W        W11012  11.161  16.103  10.558
38698W        W11013  21.105  27.890   3.162
38699W        W11014  31.452  19.199   2.929
38700W        W11015  44.453  33.529   1.821
38701W        W11016  25.061   8.890   1.980
38702W        W11017   0.707  39.909  12.385
38703W        W11018   0.057  12.616   5.091
38704W        W11019   5.919  44.049   4.518
38705W        W11020  25.833  26.340  14.189
38706W        W11021  29.375  32.010  13.905
38707W        W11022  10.965  21.115   4.318
38708W        W11023   6.347  18.060  11.049
38709W        W11024   6.736  31.529   0.157
38710W        W11025   2.651  17.693   4.428
38711W        W11026  13.665  43.514  13.453
38712W        W11027  31.561  37.959   2.461
38713W        W11028  31.907   1.408  14.531
38714W        W11029   7.383  44.420   0.471
38715W        W11030   4.767  40.051  13.422
38716W        W11031  27.603  17.070   4.219
38717W        W11032   7.319  26.961   1.896
38718W        W11033  27.717   7.362  11.778
38719W        W11034  25.583  18.398   1.879
38720W        W11035  15.685   1.769   4.575
38721W        W11036  21.667  20.726  12.851
38722W        W11037  16.698  34.919   2.896
38723W        W11038  25.655   8.150  13.966
38724W        W11039  12.223  39.824  13.780
38725W        W11040  35.317  17.680   0.792
38726W        W11041   2.304  21.765  10.691
38727W        W11042  41.509  25.192   0.335
38728W        W11043   3.704   2.035   1.763
38729W        W11044  36.048  10.845  12.561
38730W        W11045  44.402   3.083  11.956
38731W        W11046  38.041  38.593  11.709
38732W        W11047  27.454  39.309  12.477
38733W        W11048  13.099  29.572  10.799
38734W        W11049  25.272  24.449   0.854
38735W        W11050  15.986  23.093  12.072
38736W        W11051  21.858  30.274  12.092
38737W        W11052   3.849   9.483   0.497
38738W        W11053  37.694  25.135  10.673
38739W        W11054  29.935  41.530   1.850
38740W        W11055  10.334  21.229   0.469
38741W        W11056  25.432  36.462   0.679
38742W        W11057  10.265  11.351  11.079
38743W        W11058   8.180  30.697  14.620
38744W        W11059  25.491  10.325  11.055
38745W        W11060  16.274  17.761   3.260
38746W        W11061  15.375  39.899  11.181
38747W        W11062  18.002  32.930   3.712
38748W        W11063  24.075   6.112   0.707
38749W        W11064   9.871  25.189  13.466
38750W        W11065  41.197  25.540   2.928
38751W        W11066  33.528  13.937   2.599
38752W        W11067  18.945  22.569   4.673
38753W        W11068  12.211  19.760   4.692
38754W        W11069  27.084   3.052  14.486
38755W        W11070  26.769   3.308   4.221
38756W        W11071   4.418  21.276   4.746
38757W        W11072  10.431  43.463  10.603
38758W        W11073   7.373  42.855   4.763
38759W        W11074  25.434  27.675   2.929
38760W        W11075  29.387  39.487   3.771
38761W        W11076   5.821  37.384   1.306
38762W        W11077  34.939   0.661   1.422
38763W        W11078  31.846  13.675   0.506
38764W        W11079   2.744  24.562  10.582
38765W        W11080  22.692  18.746   3.510
38766W        W11081  36.934  11.250   1.370
38767W        W11082  13.355   9.887  13.415
38768W        W11083  22.996  36.369   1.973
38769W        W11084  41.481  23.237  13.514
38770W        W11085  41.046  13.052  12.214
38771W        W11086   2.103   6.691   3.997
38772W        W11087  42.645   2.989   3.098
38773W        W11088  25.527  34.313   2.069
38774W        W11089  44.531   7.805   0.903
38775W        W11090  16.513  43.986  11.467
38776W        W11091  19.776  14.648   2.447
38777W        W11092  23.579  18.557   0.036
38778W        W11093  12.939  28.206  13.484
38779W        W11094  24.696  36.015   1.839
38780W        W11095   4.336  18.933   0.882
38781W        W11096  30.086  44.648  11.168
38782W        W11097  35.191  27.489   4.075
38783W        W11098  22.289  23.251   0.420
38784W        W11099  38.989  20.983  13.392
38785W        W11100  23.070  24.265   3.204
38786W        W11101  32.770   6.183  12.373
38787W        W11102   5.258  16.900  13.765
38788W        W11103  42.321   9.349  10.707
38789W        W11104  32.054  11.484  11.049
38790W        W11105  37.885  11.203   4.328
38791W        W11106   8.450   4.821   4.181
38792W        W11107   5.810  36.487   4.596
38793W        W11108  44.409  15.901  11.171
38794W        W11109  36.350  44.719  11.560
38795W        W11110  39.578  26.596   4.275
38796W        W11111  32.250  14.147   5.084
38797W        W11112  18.557   7.754  13.967
38798W        W11113  14.026  41.720   4.479
38799W        W11114  26.450   8.148  14.104
38800W        W11115  22.575  33.600   1.338
38801W        W11116  25.667  14.006   2.734
38802W        W11117   9.327  27.018  11.791
38803W        W11118  39.133  25.557  13.133
38804W        W11119  20.157  37.080   1.392
38805W        W11120  23.480  28.048  13.750
38806W        W11121  24.899   3.409  13.850
38807W        W11122  37.843   1.647  12.052
38808W        W11123  37.307   9.838   0.992
38809W        W11124  16.176   7.666   3.290
38810W        W11125  38.931  16.232  11.882
38811W        W11126  34.891  39.497  12.901
38812W        W11127  12.293   5.944  13.658
38813W        W11128  12.225   1.928   4.368
38814W        W11129  34.020  38.882  14.474
38815W        W11130  25.035  14.000   4.239
38816W        W11131  27.630  18.116  13.000
38817W        W11132  25.104  30.936  13.865
38818W        W11133  21.111   9.375   1.219
38819W        W11134  39.288  34.021   1.278
38820W        W11135  25.306  23.077   0.805
38821W        W11136  35.079  11.177  14.345
38822W        W11137  27.478  36.947   4.710
38823W        W11138  23.006  36.262   2.993
38824W        W11139  42.842  31.556  11.637
38825W        W11140  37.039   6.108  12.473
38826W        W11141   8.782  30.970  12.917
38827W        W11142  17.073  42.395  13.318
38828W        W11143  32.070  38.903  14.342
38829W        W11144  30.145  20.258  13.296
38830W        W11145  37.973  19.585   3.673
38831W        W11146   5.512  25.710   0.459
38832W        W11147  30.895  11.991   4.627
38833W        W11148   6.017   1.845  14.179
38834W        W11149   5.811  11.294   4.201
38835W        W11150  26.215  39.250  14.348
38836W        W11151  43.762   4.791   2.874
38837W        W11152  40.451  44.044   4.097
38838W        W11153   2.490  26.578  10.175
38839W        W11154  28.167  36.653   3.697
38840W        W11155  14.651  32.602  11.168
38841W        W11156  30.568   3.023   1.251
38842W        W11157  28.696  43.506   1.414
38843W        W11158   6.746  21.669   0.243
38844W        W11159  41.866  44.426  13.579
38845W        W11160  20.729  38.917  13.896
38846W        W11161  42.155  12.171  11.520
38847W        W11162  14.699   5.037  11.524
38848W        W11163  37.416  44.064  10.696
38849W        W11164  26.418  11.083   2.387
38850W        W11165   8.848  22.112  11.911
38851W        W11166  18.657   2.728   4.655
38852W        W11167   2.656  15.583  13.804
38853W        W11168  28.436   1.724  11.222
38854W        W11169  38.590  43.835  10.695
38855W        W11170  10.267  24.871   2.186
38856W        W11171   5.616  38.493   2.500
38857W        W11172  31.785   1.275   4.545
38858W        W11173   3.610  23.478   4.155
38859W        W11174  43.829  34.531  11.772
38860W        W11175  42.987   8.299  13.138
38861W        W11176   4.426  18.242   2.145
38862W        W11177  26.110  16.356  12.570
38863W        W11178  34.469   5.351  13.443
38864W        W11179  17.471  44.005  14.421
38865W        W11180  25.589  16.200   2.446
38866W        W11181   8.836  37.811  12.065
38867W        W11182  44.772  19.110  14.599
38868W        W11183  42.710  21.444   0.812
38869W        W11184  24.219  18.196  10.947
38870W        W11185   5.921  43.470   2.763
38871W        W11186  24.739  40.499   2.627
38872W        W11187  28.868  16.267  14.455
38873W        W11188  38.589  11.641   1.898
38874W        W11189   3.407  26.864  10.541
38875W        W11190  19.618  22.962   1.165
38876W        W11191  33.001  18.954  10.717
38877W        W11192  20.231   5.735  12.341
38878W        W11193  37.980  41.182  14.277
38879W        W11194  10.125  41.487   0.377
38880W        W11195  10.124  19.629  10.200
38881W        W11196  14.267  18.692  14.514
38882W        W11197  22.186  20.123   0.869
38883W        W11198  12.886  26.033  10.888
38884W        W11199  21.760   9.167   4.089
38885W        W11200  30.085   4.518  11.059
38886W        W11201  35.822  22.785  12.448
38887W        W11202  41.500  31.441  12.903
38888W        W11203  10.692  23.270  10.553
38889W        W11204  44.964  37.041   1.807
38890W        W11205  37.001  37.882   0.865
38891W        W11206   3.660   1.189   2.194
38892W        W11207  27.198  36.295   3.256
38893W        W11208  21.626  38.805   4.688
38894W        W11209  25.560  12.616  12.485
38895W        W11210  41.327  32.163   1.380
38896W        W11211   8.885   1.523   1.226
38897W        W11212   5.608   4.841  10.383
38898W        W11213  20.718  43.802   3.132
38899W        W11214   1.256   1.217   2.235
38900W        W11215  15.816  13.281   1.902
38901W        W11216  28.006  30.775  14.943
38902W        W11217  39.633  37.835   0.837
38903W        W11218   6.836  40.215  14.333
38904W        W11219  13.210   2.384   0.370
38905W        W11220   9.587   8.365   0.165
38906W        W11221  17.683  44.976  13.572
38907W        W11222  19.322  10.000  12.534
38908W        W11223  32.995  25.619   1.006
38909W        W11224  15.640   0.443  13.337
38910W        W11225  33.470  30.137  11.623
38911W        W11226  37.961  37.887   4.147
38912W        W11227  38.058   1.952   1.688
38913W        W11228  12.754  40.041   0.898
38914W        W11229  31.867  17.215   3.797
38915W        W11230   7.682  41.115   0.680
38916W        W11231  37.417  26.412  14.676
38917W        W11232   6.509  25.978  14.193
38918W        W11233  19.196   8.252   3.605
38919W        W11234   0.914  32.966   1.011
38920W        W11235  23.532  40.904   2.179
38921W        W11236  14.169  18.601   2.866
38922W        W11237   3.249  23.611  13.410
38923W        W11238  44.541  29.751  12.951
38924W        W11239  41.312  37.964   1.399
38925W        W11240  32.764  33.903   4.118
38926W        W11241   3.654  19.719  14.363
38927W        W11242  27.180  41.861   1.784
38928W        W11243   5.455  26.099   0.826
38929W        W11244   0.574  23.886  11.460
38930W        W11245   3.279  35.334  11.337
38931W        W11246  21.272  21.052   3.180
38932W        W11247  28.980  17.100   4.765
38933W        W11248  39.451  39.580   2.617
38934W        W11249  42.415  43.587  13.496
38935W        W11250   0.211  35.610   3.232
38936W        W11251  16.535  29.528  10.211
38937W        W11252   9.360  38.587  12.401
38938W        W11253   3.408  44.375  14.340
38939W        W11254  17.525  29.934  10.184
38940W        W11255  35.259  11.231  12.170
38941W        W11256  41.112  14.715   4.210
38942W        W11257  23.598   1.514   3.776
38943W        W11258  23.362  23.224  13.450
38944W        W11259  14.582   3.716   0.330
38945W        W11260   5.891   4.862  14.251
38946W        W11261   4.428  25.712   2.199
38947W        W11262   3.503  14.321   3.194
38948W        W11263  13.653   5.148  11.544
38949W        W11264  42.420  22.807  13.060
38950W        W11265   4.208  35.109  14.581
38951W        W11266  44.813  16.746   0.120
38952W        W11267  17.551  42.725  11.635
38953W        W11268  29.679  21.640   2.429
38954W        W11269  16.608   9.433   2.375
38955W        W11270  30.103  26.918  12.931
38956W        W11271   4.535  18.126  12.532
38957W        W11272  26.656  30.530  12.020
38958W        W11273  35.021  35.667  13.388
38959W        W11274  44.425  33.578  14.755
38960W        W11275  30.440  14.404   3.644
38961W        W11276  39.003  24.069  12.911
38962W        W11277  33.717   4.293  12.431
38963W        W11278  40.816   8.960   3.972
38964W        W11279  22.642  29.637   1.169
38965W        W11280  19.496  13.336  14.729
38966W        W11281  32.898   7.666  13.301
38967W        W11282  38.558  36.526   3.312
38968W        W11283  24.594   6.079   2.809
38969W        W11284  14.045   8.237  10.715
38970W        W11285   2.158   2.227  14.130
38971W        W11286  24.065   6.233   2.755
38972W        W11287   2.086  14.581   0.878
38973W        W11288  19.770  35.603   1.696
38974W        W11289  12.326  10.872  12.181
38975W        W11290   5.696  35.076  11.993
38976W        W11291  35.774  44.847  14.708
38977W        W11292  43.800   6.481  12.842
38978W        W11293   2.726  10.824   0.524
38979W        W11294  32.557  21.537  10.431
38980W        W11295  29.235  23.308  10.865
38981W        W11296  14.623   4.836   1.693
38982W        W11297  43.388  42.177   3.799
38983W        W11298  15.334  33.104   2.348
38984W        W11299  10.854   1.298   2.720
38985W        W11300  33.097   5.451  14.427
38986W        W11301  22.337  43.696  11.976
38987W        W11302  41.967   7.245  14.253
38988W        W11303  43.289  14.369  10.753
38989W        W11304  42.850   5.479   2.262
38990W        W11305   9.182  38.506  13.894
38991W        W11306  26.479  37.607   1.329
38992W        W11307  26.956  22.471  14.042
38993W        W11308  38.907  16.121   3.664
38994W        W11309  25.586  15.340  14.876
38995W        W11310  10.672  12.630  11.093
38996W        W11311  16.834  16.282  12.320
38997W        W11312   3.965   3.759   2.892
38998W        W11313   2.035  33.788  13.924
38999W        W11314  21.019  17.045   2.945
39000W        W11315  22.533  43.205  10.433
39001W        W11316  43.291  25.986   4.081
39002W        W11317  32.109   2.438  10.613
39003W        W11318  22.621  34.853   2.799
39004W        W11319   6.416  34.116   2.237
39005W        W11320  19.759  19.623   4.227
39006W        W11321  22.831  21.738  12.267
39007W        W11322  18.686  33.356  12.543
39008W        W11323   4.454  11.733  14.580
39009W        W11324  44.057   8.867  13.150
39010W        W11325  44.525  40.023   4.576
39011W        W11326  23.447  41.590   0.999
39012W        W11327   5.159  10.393  10.392
39013W        W11328   9.675  40.983   4.695
39014W        W11329   0.243  33.900   4.101
39015W        W11330   8.049  38.520  10.722
39016W        W11331  35.608  19.006  12.589
39017W        W11332  15.082  27.199  14.559
39018W        W11333  24.455  33.532  14.032
39019W        W11334  42.909  39.351  13.779
39020W        W11335  36.387   7.447  14.624
39021W        W11336  43.011  43.851   0.449
39022W        W11337  35.714  37.847   4.677
39023W        W11338  31.521  31.668  11.509
39024W        W11339  38.792   3.946  10.903
39025W        W11340   0.470   5.702  11.891
39026W        W11341   4.371  17.260   2.132
39027W        W11342  15.428  23.802  11.383
39028W        W11343  30.179  10.117   2.638
39029W        W11344  22.289  27.545  13.457
39030W        W11345   5.720  29.606  12.219
39031W        W11346  34.698  13.985  14.386
39032W        W11347  25.723  42.925  11.825
39033W        W11348   1.884  31.048   3.319
39034W        W11349   7.165  40.732   3.230
39035W        W11350   0.035  10.780   1.433
39036W        W11351  17.888  14.479  13.789
39037W        W11352  28.718  34.823   4.921
39038W        W11353   9.265  19.525   4.132
39039W        W11354  43.870  33.581   3.209
39040W        W11355   5.269  37.358   2.165
39041W        W11356   4.396  28.050   1.484
39042W        W11357   3.340   2.189  12.248
39043W        W11358  44.374  43.491  11.621
39044W        W11359  41.968   4.488  14.920
39045W        W11360  16.046  17.027   1.855
39046W        W11361  39.790  35.559   1.734
39047W        W11362  38.960  41.292   3.624
39048W        W11363   4.852   8.622   2.394
39049W        W11364  42.018   3.809   4.865
39050W        W11365   7.893  24.891   4.178
39051W        W11366  40.111  19.138  13.530
39052W        W11367  24.524  12.032   1.811
39053W        W11368  44.915   7.229  14.077
39054W        W11369   5.961   7.836   3.964
39055W        W11370  24.290   4.337  14.522
39056W        W11371  24.998  21.187  10.842
39057W        W11372  12.016  13.052   4.187
39058W        W11373  43.580  19.475  12.446
39059W        W11374  43.144   7.344  10.661
39060W        W11375  32.282  36.813  11.991
39061W        W11376  40.539  34.894   4.357
39062W        W11377  36.401  23.594   1.018
39063W        W11378  41.341   1.744  12.171
39064W        W11379  36.139  43.255  11.966
39065W        W11380  40.377  30.144  10.720
39066W        W11381  41.406  15.788  14.098
39067W        W11382  19.057  28.475   3.769
39068W        W11383  14.750   0.349  11.410
39069W        W11384  31.444   7.816   2.789
39070W        W11385  18.221   4.970   0.863
39071W        W11386  17.061   9.550  10.693
39072W        W11387   2.271  26.690  12.934
39073W        W11388  35.522  13.232  12.566
39074W        W11389   1.318  11.589   1.323
39075W        W11390  37.021  15.377  13.446
39076W        W11391  21.298  35.821   4.867
39077W        W11392  29.669  31.596  11.009
39078W        W11393   6.778  18.586  10.394
39079W        W11394  40.406   4.660   2.250
39080W        W11395  25.665   0.264  14.779
39081W        W11396  38.531  10.356  13.921
39082W        W11397   4.454   2.498   3.856
39083W        W11398   5.444  43.956  12.100
39084W        W11399  23.643  16.531   1.702
39085W        W11400  27.008  42.006   0.480
39086W        W11401   9.039  44.851   2.696
39087W        W11402  39.807  28.067  13.852
39088W        W11403  30.552  20.451  14.706
39089W        W11404  33.417  20.623   4.132
39090W        W11405  24.124   8.504   3.664
39091W        W11406  34.952   8.211  10.582
39092W        W11407   3.422  15.111   1.325
39093W        W11408  17.996  40.267  12.358
39094W        W11409   2.589   8.721  12.049
39095W        W11410  13.373   9.349  12.625
39096W        W11411  44.090  32.335   3.595
39097W        W11412  33.065  36.781  11.613
39098W        W11413  35.568  31.239   1.437
39099W        W11414  16.229  29.524  13.356
39100W        W11415  25.682   7.637  14.076
39101W        W11416   7.913  13.787   2.872
39102W        W11417  16.636  30.351   2.278
39103W        W11418   8.250  39.571  11.872
39104W        W11419   9.177  28.425  14.861
39105W        W11420  36.828  13.338   1.060
39106W        W11421  15.102   5.199   2.837
39107W        W11422   0.292  36.644  13.390
39108W        W11423  21.708  32.123  14.412
39109W        W11424  25.912  44.796   2.316
39110W        W11425   4.001   2.337   0.324
39111W        W11426  10.083  44.724  13.303
39112W        W11427  14.767   6.241  12.801
39113W        W11428  19.505  19.387   0.449
39114W        W11429   7.676  24.035   2.594
39115W        W11430  34.850   9.568  14.477
39116W        W11431  20.704  10.309   9.968
39117W        W11432  17.594  33.375  11.159
39118W        W11433  35.169  24.033  13.972
39119W        W11434  33.896  19.990   4.554
39120W        W11435  20.906   4.718  13.948
39121W        W11436  17.365   4.641   0.433
39122W        W11437  38.355   2.458  11.973
39123W        W11438  38.410   0.476   4.002
39124W        W11439  37.859  37.352   2.405
39125W        W11440  20.998  30.577   3.331
39126W        W11441  42.988   9.231   2.202
39127W        W11442  39.802  10.864   3.110
39128W        W11443  14.962  30.270  13.637
39129W        W11444  30.473   5.977   2.777
39130W        W11445  23.737  18.544  13.608
39131W        W11446  32.966  29.129   0.484
39132W        W11447   7.239   6.375  12.071
39133W        W11448   8.180  26.370   1.863
39134W        W11449  20.457  21.675   4.610
39135W        W11450  27.050  36.816   1.371
39136W        W11451  35.565  12.760   0.218
39137W        W11452  10.859  11.962   3.217
39138W        W11453  16.077  38.403   4.073
39139W        W11454   6.432  35.689   4.921
39140W        W11455  15.350  33.654   1.188
39141W        W11456   7.217  25.787  12.983
39142W        W11457  24.381  37.817   0.105
39143W        W11458  14.085  10.266   4.108
39144W        W11459   1.824  13.593   1.900
39145W        W11460  31.833  12.726  11.724
39146W        W11461  42.979   2.848  12.697
39147W        W11462   1.989  26.228  10.685
39148W        W11463  31.454   6.466   4.232
39149W        W11464  15.412   2.213   0.277
39150W        W11465  24.690  24.700   0.845
39151W        W11466   6.724  30.151   0.151
39152W        W11467  27.192  16.849   0.539
39153W        W11468  16.261  43.429  10.646
39154W        W11469  11.744  18.592   5.465
39155W        W11470  23.967  34.311   0.495
39156W        W11471   7.695  21.739   4.643
39157W        W11472  43.929  10.655  12.867
39158W        W11473  38.497  16.328   1.828
39159W        W11474  17.473  24.136   2.482
39160W        W11475  28.998  39.801  11.903
39161W        W11476   6.367  18.253  11.538
39162W        W11477  30.733  43.594   1.048
39163W        W11478  12.247  30.111  11.409
39164W        W11479  40.538  17.727   3.628
39165W        W11480  39.533  34.476   1.408
39166W        W11481  41.919   5.939  11.647
39167W        W11482  39.372  32.534   2.793
39168W        W11483  15.820  36.620  10.934
39169W        W11484  42.854  12.150   3.712
39170W        W11485  39.836  12.868  14.760
39171W        W11486   2.975   3.369  11.523
39172W        W11487  33.441  31.419   1.194
39173W        W11488   8.694  13.702  14.950
39174W        W11489  34.826  31.637  11.111
39175W        W11490  14.419  30.271  12.445
39176W        W11491  15.791  38.848  12.241
39177W        W11492  35.944  14.354  11.094
39178W        W11493  37.505  23.312   1.067
39179W        W11494  26.669  32.985   4.075
39180W        W11495  44.848   9.964  12.048
39181W        W11496  36.366  38.039  12.049
39182W        W11497  22.625  28.535   2.236
39183W        W11498  37.519  21.181  14.657
39184W        W11499  35.790  20.053   3.209
39185W        W11500   5.184   1.890   1.916
39186W        W11501  28.607   6.288  13.085
39187W        W11502  21.537  21.138   1.393
39188W        W11503  18.481  30.534   0.858
39189W        W11504  30.476   4.265  10.705
39190W        W11505   3.333   8.320  13.534
39191W        W11506  32.319  22.054  13.003
39192W        W11507  37.466  36.838  13.432
39193W        W11508  41.035  31.980  13.806
39194W        W11509   4.945  27.527   3.173
39195W        W11510   9.627   8.918   3.324
39196W        W11511  37.449   4.741   4.508
39197W        W11512  24.021  10.628  14.880
39198W        W11513  32.275  40.263   3.067
39199W        W11514  35.955  16.306   0.198
39200W        W11515  23.791  29.025  11.114
39201W        W11516  34.847   7.819  12.794
39202W        W11517   4.547  31.186  13.437
39203W        W11518  24.601  32.250   4.946
39204W        W11519  19.963   8.179   1.346
39205W        W11520  44.890   4.599  10.052
39206W        W11521   9.220  11.554  12.403
39207W        W11522  17.314  37.132   1.952
39208W        W11523  18.688  36.432   0.391
39209W        W11524  38.950  29.488  10.404
39210W        W11525  32.760  29.753   1.719
39211W        W11526  11.041  30.431  10.536
39212W        W11527  24.085  23.615   2.010
39213W        W11528  10.111  21.448   4.515
39214W        W11529   9.634  33.144  14.784
39215W        W11530  11.698   5.999  11.068
39216W        W11531   1.189  29.627  12.442
39217W        W11532  35.022  38.959   0.980
39218W        W11533  29.564  29.667   3.436
39219W        W11534  43.900  35.022   2.657
39220W        W11535   7.688  26.775  12.698
39221W        W11536  21.874  22.246   5.086
39222W        W11537  20.001  26.123   0.805
39223W        W11538  20.791  37.404   0.420
39224W        W11539  39.075  41.747   3.353
39225W        W11540  25.687  26.679   2.817
39226W        W11541  27.005  43.351  12.799
39227W        W11542  31.051  31.408  12.213
39228W        W11543   8.203  26.777  12.027
39229W        W11544  24.512  20.677   1.985
39230W        W11545  17.180   5.039  13.756
39231W        W11546  17.297  33.991   3.690
39232W        W11547  41.114  36.160   3.662
39233W        W11548  31.852  37.402  11.598
39234W        W11549  38.941  38.864  11.343
39235W        W11550   7.728  37.453  14.427
39236W        W11551   1.903  11.713   2.855
39237W        W11552  32.957  17.091   3.153
39238W        W11553   7.423  17.186   4.651
39239W        W11554  43.370  19.320   2.245
39240W        W11555  11.355  29.132   3.387
39241W        W11556  19.649  15.544  11.964
39242W        W11557  37.984   3.464   1.663
39243W        W11558   8.956   4.717   4.166
39244W        W11559   4.709   2.967   0.456
39245W        W11560  33.461  18.539   1.228
39246W        W11561   5.782   6.674   2.725
39247W        W11562   2.030  18.171  12.906
39248W        W11563  10.886  10.803  11.080
39249W        W11564  16.175  42.768  11.650
39250W        W11565  21.718  41.571   1.868
39251W        W11566  40.446   6.432   4.568
39252W        W11567  31.914   8.765  12.034
39253W        W11568  17.129   1.005  12.152
39254W        W11569  31.934  30.439   1.071
39255W        W11570  15.520   6.687   1.347
39256W        W11571  36.026  15.267  13.524
39257W        W11572  14.915  34.721  11.228
39258W        W11573  33.417  28.398   3.635
39259W        W11574  29.523  31.774  14.499
39260W        W11575  22.650  25.790   1.458
39261W        W11576  43.337  18.025   1.913
39262W        W11577   2.966  18.874  14.400
39263W        W11578   2.718  10.854  11.900
39264W        W11579  42.528  38.820   4.385
39265W        W11580   7.725  29.096  11.704
39266W        W11581  28.480   4.821   0.943
39267W        W11582   6.589  30.796  13.319
39268W        W11583  24.697   7.742   2.297
39269W        W11584  38.453  33.591   3.576
39270W        W11585  40.495  27.514   2.243
39271W        W11586  36.142   9.629   0.273
39272W        W11587  26.669  17.354  13.784
39273W        W11588  28.228  33.199  13.695
39274W        W11589  39.105  39.970   5.091
39275W        W11590  38.866  15.802  12.150
39276W        W11591   3.042  27.428  14.386
39277W        W11592  41.916  11.704  11.567
39278W        W11593   9.676   7.668  11.083
39279W        W11594  36.052  27.410   3.196
39280W        W11595  44.134  19.922   2.524
39281W        W11596   1.176  30.051   3.262
39282W        W11597  36.121  30.075   0.679
39283W        W11598  30.504  11.850  14.336
39284W        W11599  11.620  27.313  10.761
39285W        W11600  11.813  29.921  11.173
39286W        W11601   4.247  10.394  11.075
39287W        W11602  39.376  11.653   2.938
39288W        W11603  33.300   7.368   2.769
39289W        W11604  26.482  11.679   3.618
39290W        W11605  23.146  25.655  11.654
39291W        W11606  42.030  18.588  11.176
39292W        W11607  28.791  26.563  11.520
39293W        W11608  22.200  28.880   3.336
39294W        W11609  27.871  37.830   2.888
39295W        W11610  33.095  27.010   4.125
39296W        W11611  26.144   1.029  13.290
39297W        W11612  20.607  25.081   3.202
39298W        W11613  31.577  23.108   4.502
39299W        W11614  33.275   7.845   1.413
39300W        W11615  14.996  21.491  11.341
39301W        W11616  21.461  38.543   0.830
39302W        W11617  21.048  25.718  13.999
39303W        W11618  42.018   0.416  14.628
39304W        W11619  31.137  32.967   3.317
39305W        W11620  18.109  44.653   2.285
39306W        W11621  27.727  16.624   1.734
39307W        W11622  15.681   3.875  10.931
39308W        W11623  33.126  16.276   4.629
39309W        W11624  21.207   0.856   0.965
39310W        W11625   4.950  19.608   1.436
39311W        W11626  32.184  14.722  12.972
39312W        W11627   0.426  36.574  10.195
39313W        W11628   5.153  15.275  12.004
39314W        W11629   2.667  27.637   0.943
39315W        W11630  43.922  35.188   4.078
39316W        W11631   5.510  39.577  12.334
39317W        W11632  42.004   5.354  12.100
39318W        W11633  35.039  39.987  13.107
39319W        W11634  22.608  21.521  14.726
39320W        W11635  21.153  36.120   3.408
39321W        W11636  14.959  20.021  12.879
39322W        W11637  35.032   2.376  11.851
39323W        W11638  19.840  43.083   0.327
39324W        W11639  16.871  27.674   9.885
39325W        W11640  28.692  18.211   2.961
39326W        W11641  33.963  16.786  12.863
39327W        W11642   5.423  27.942  11.731
39328W        W11643  31.892  42.170  12.387
39329W        W11644  34.152  35.928  12.461
39330W        W11645  14.549   9.323   4.178
39331W        W11646  11.308  10.144  11.094
39332W        W11647  19.584  22.791   4.364
39333W        W11648  36.148  42.374  14.888
39334W        W11649  28.847  16.537  12.433
39335W        W11650  12.669   0.483   2.931
39336W        W11651  14.059  34.463  11.117
39337W        W11652   0.396  20.068   1.823
39338W        W11653   7.268  20.532  12.179
39339W        W11654  35.234  23.702   3.620
39340W        W11655  28.063  44.899   3.757
39341W        W11656   9.083  36.503  12.544
39342W        W11657  27.695  43.277  14.548
39343W        W11658  36.605  27.427   1.372
39344W        W11659  37.519  11.843   2.824
39345W        W11660  28.199   9.715   3.813
39346W        W11661  12.761  20.464   3.718
39347W        W11662  17.048  38.846   4.213
39348W        W11663   1.904   5.376   4.909
39349W        W11664  11.162  29.921   0.312
39350W        W11665  29.894  42.884  13.965
39351W        W11666  27.251  36.962   2.385
39352W        W11667  43.113  33.903   2.804
39353W        W11668   4.574  36.130  11.318
39354W        W11669  40.419   7.153  10.238
39355W        W11670  18.568  40.519   2.653
39356W        W11671  30.193   9.823   1.706
39357W        W11672  39.448  32.012   4.815
39358W        W11673  10.487  26.541  13.542
39359W        W11674  12.575   8.868   2.274
39360W        W11675  19.164  42.937   3.524
39361W        W11676   1.287  18.501   1.324
39362W        W11677   4.307  17.344  12.096
39363W        W11678   5.721  31.353   3.936
39364W        W11679  33.432  16.284  14.866
39365W        W11680  19.441   0.656   1.685
39366W        W11681   7.493  27.552  10.546
39367W        W11682  39.978  39.114   0.786
39368W        W11683   4.884  25.263  10.672
39369W        W11684  43.712  40.585  11.261
39370W        W11685  27.014   2.146   1.476
39371W        W11686  18.232  27.988  14.519
39372W        W11687   8.607  37.631   0.709
39373W        W11688  20.867  44.527   1.687
39374W        W11689  29.964  42.554  12.054
39375W        W11690   0.205  29.218  11.233
39376W        W11691  25.492  39.529  14.236
39377W        W11692  31.877  15.211  11.298
39378W        W11693  37.506  28.639  14.374
39379W        W11694  28.082  15.228   0.006
39380W        W11695   1.433  29.695   0.950
39381W        W11696  14.883  38.452   2.830
39382W        W11697  20.311  14.712   2.493
39383W        W11698  14.284  29.685  13.352
39384W        W11699  36.322  12.294   0.198
39385W        W11700  36.534   0.274   2.373
39386W        W11701  17.016  32.061   3.380
39387W        W11702  18.130  17.542  12.044
39388W        W11703   9.746  25.035  12.549
39389W        W11704  25.818   5.588   4.874
39390W        W11705  22.633  15.783  12.580
39391W        W11706   3.213  18.845   0.020
39392W        W11707   8.296   6.429  12.804
39393W        W11708  12.166   2.453   0.884
39394W        W11709  43.386  35.960   0.616
39395W        W11710  19.238  44.919  11.648
39396W        W11711  44.428  25.488  12.495
39397W        W11712  27.268  40.852   3.197
39398W        W11713   2.345  23.395  14.110
39399W        W11714  33.890  34.390   0.820
39400W        W11715   2.701  18.024   0.367
39401W        W11716   2.079  15.813   2.666
39402W        W11717  28.735   0.908   1.820
39403W        W11718  20.069  36.792  11.195
39404W        W11719  13.408  26.092   0.809
39405W        W11720  26.993   5.671  10.602
39406W        W11721   7.074  16.308   0.985
39407W        W11722  14.856   9.004   0.913
39408W        W11723  40.966   7.832   0.437
39409W        W11724  30.245  43.697   0.856
39410W        W11725  10.130  40.138   2.939
39411W        W11726  25.670  16.952  14.510
39412W        W11727  40.193   0.776   4.613
39413W        W11728  32.518  16.038   2.828
39414W        W11729  20.766  44.376  12.106
39415W        W11730  32.874  32.591  12.956
39416W        W11731  19.549   6.758   2.165
39417W        W11732  44.507  26.713   0.378
39418W        W11733  35.594  20.582   0.709
39419W        W11734  33.965  34.520   4.091
39420W        W11735   5.938  17.613  13.130
39421W        W11736  37.364  39.846  12.589
39422W        W11737  35.362  34.091  12.615
39423W        W11738  27.138  38.931  13.502
39424W        W11739  18.745  15.592  11.404
39425W        W11740  22.266  29.949  13.054
39426W        W11741  12.692   2.235   0.203
39427W        W11742  42.855  17.530   3.729
39428W        W11743  41.680  43.020  14.356
39429W        W11744  21.481  18.326  12.966
39430W        W11745   6.697   8.545   4.552
39431W        W11746  42.368   8.178   2.690
39432W        W11747  39.144   2.358   3.170
39433W        W11748  14.021   7.271   0.892
39434W        W11749  24.613  22.508  14.429
39435W        W11750  32.147  15.852   2.421
39436W        W11751   8.429  22.091  14.060
39437W        W11752  42.934   1.427  14.906
39438W        W11753   5.590  31.637  14.357
39439W        W11754  28.682  29.483   4.357
39440W        W11755  35.988  32.016  13.875
39441W        W11756  32.396  26.869  12.913
39442W        W11757   3.326   9.857  12.551
39443W        W11758   1.897   8.327  13.365
39444W        W11759  41.909  42.478   3.262
39445W        W11760  26.971  30.488   2.900
39446W        W11761  15.745   4.212   0.836
39447W        W11762  21.993  36.586   0.928
39448W        W11763  38.977  32.351   1.451
39449W        W11764   4.428  16.645   0.461
39450W        W11765   9.927  14.269  12.044
39451W        W11766  29.931  28.527   1.449
39452W        W11767  12.243  24.496   1.860
39453W        W11768  30.372  24.442   0.920
39454W        W11769  29.239   7.753  11.519
39455W        W11770  40.439  17.248   2.498
39456W        W11771  16.709  33.129  12.944
39457W        W11772  27.496  12.657   2.852
39458W        W11773   5.521  21.059  12.486
39459W        W11774  22.944   2.514   0.843
39460W        W11775  19.275   9.358  11.124
39461W        W11776  42.875  16.047   2.445
39462W        W11777   9.030   9.384  14.145
39463W        W11778  17.955  21.781   0.802
39464W        W11779   3.832  18.176   4.105
39465W        W11780  27.953  10.523  10.644
39466W        W11781  38.827  18.155  12.602
39467W        W11782  17.823   7.809   0.825
39468W        W11783  34.477   7.385  13.932
39469W        W11784  29.006  18.974  13.490
39470W        W11785  35.986  33.163  11.279
39471W        W11786   7.328  10.149   5.019
39472W        W11787  37.296  43.360  12.876
39473W        W11788   5.298   1.524   1.179
39474W        W11789  25.516  30.783  13.528
39475W        W11790  24.046   0.828  14.477
39476W        W11791  15.816  28.835   4.572
39477W        W11792   5.737   1.247  12.044
39478W        W11793   5.512  44.445   4.485
39479W        W11794  33.177   3.718   4.103
39480W        W11795  11.918  11.981  13.073
39481W        W11796  37.005  21.474  11.132
39482W        W11797  29.734  33.949  12.475
39483W        W11798  34.310  41.744   2.806
39484W        W11799  35.535  25.990  10.682
39485W        W11800   4.902  39.943  11.176
39486W        W11801   1.174   4.680  14.166
39487W        W11802  31.369  36.694  12.062
39488W        W11803   7.292  39.088   0.898
39489W        W11804   1.456  23.465   0.531
39490W        W11805  13.711  41.932   0.522
39491W        W11806  20.959   2.212   0.723
39492W        W11807   9.417  33.517  12.885
39493W        W11808  38.366  31.613   0.557
39494W        W11809   2.754  40.795  12.887
39495W        W11810  39.390   2.741  12.595
39496W        W11811  43.370  42.812  14.822
39497W        W11812  43.699  35.074   0.796
39498W        W11813  28.160  18.163  13.055
39499W        W11814  42.940  28.957  12.366
39500W        W11815   1.580  35.921   0.466
39501W        W11816   3.517  18.577   0.364
39502W        W11817   9.299  40.858  11.117
39503W        W11818  28.876  39.721  14.793
39504W        W11819  20.173  40.993   0.510
39505W        W11820   1.482  35.445   1.950
39506W        W11821   1.499  16.529  11.150
39507W        W11822  36.518  23.563   0.512
39508W        W11823  33.031  29.007   4.890
39509W        W11824   2.844  13.642  12.384
39510W        W11825   2.165  36.330  11.568
39511W        W11826   2.003  12.662   2.699
39512W        W11827  13.767  28.113   4.164
39513W        W11828   5.882   1.802   4.075
39514W        W11829  10.331  35.114  12.598
39515W        W11830  12.591  39.058   0.865
39516W        W11831  30.820  14.794   2.230
39517W        W11832  24.717  42.947  11.148
39518W        W11833  13.643  16.041   0.664
39519W        W11834   7.291   4.567  13.379
39520W        W11835  13.865  39.348   4.331
39521W        W11836  26.193  24.666  11.214
39522W        W11837  33.775  33.695   4.197
39523W        W11838  33.472  43.115  11.002
39524W        W11839   4.805   5.745  12.037
39525W        W11840   4.213   9.654  14.983
39526W        W11841  16.391  30.246   2.749
39527W        W11842  37.585  15.066   0.444
39528W        W11843  21.746  30.546   2.808
39529W        W11844   2.248   9.666   1.929
39530W        W11845  36.411  20.015  13.403
39531W        W11846  24.975   0.934   3.822
39532W        W11847  22.232   4.212   1.337
39533W        W11848  39.323  15.661   0.674
39534W        W11849  10.155   8.609   4.133
39535W        W11850  30.876  14.915  11.446
39536W        W11851  25.579  25.673   2.734
39537W        W11852  43.822   8.549   4.243
39538W        W11853  26.001  43.572  14.456
39539W        W11854  42.506  39.409  12.832
39540W        W11855  16.222  35.828  10.927
39541W        W11856   5.226  36.366  10.881
39542W        W11857   9.164  10.626   4.723
39543W        W11858  26.556  11.117   1.877
39544W        W11859  39.486  44.014  14.943
39545W        W11860  10.299   1.664  12.143
39546W        W11861  37.000  35.782  14.566
39547W        W11862  23.082  17.035   2.843
39548W        W11863   6.781  28.177   0.512
39549W        W11864  12.111   1.015   4.096
39550W        W11865   1.693  41.501  13.916
39551W        W11866   5.600  35.568   0.673
39552W        W11867  15.508   4.776  11.061
39553W        W11868  12.884  21.186   0.748
39554W        W11869   4.375   5.665   2.747
39555W        W11870   9.126  25.514   4.696
39556W        W11871  43.908  19.544   0.893
39557W        W11872  19.024  21.077  10.966
39558W        W11873  38.419  11.594   4.135
39559W        W11874  19.735  26.906   2.399
39560W        W11875  37.369  24.704  12.039
39561W        W11876  22.207  41.057  11.163
39562W        W11877  30.662  38.887  10.519
39563W        W11878  24.969  16.928  12.895
39564W        W11879  32.072  15.125   2.926
39565W        W11880  29.620   3.447   2.709
39566W        W11881  37.035  23.728   2.756
39567W        W11882   7.965  40.722  11.160
39568W        W11883   7.038  43.785  14.899
39569W        W11884   1.218  18.103  10.660
39570W        W11885  26.446   6.450  10.638
39571W        W11886  16.862  19.249  12.360
39572W        W11887  16.066  40.338   1.673
39573W        W11888   9.845  14.906   2.842
39574W        W11889  20.567  21.206   0.949
39575W        W11890  18.718   7.454  10.296
39576W        W11891  11.765  42.835  10.738
39577W        W11892  21.372  34.446  11.574
39578W        W11893  29.429  21.719   1.717
39579W        W11894  23.149  16.877   2.325
39580W        W11895  42.533  38.490  12.453
39581W        W11896  15.304  15.758   0.442
39582W        W11897   1.924  10.586   1.545
39583W        W11898   2.726  33.507  13.865
39584W        W11899  18.122  34.127   1.427
39585W        W11900  35.414   7.273  10.848
39586W        W11901  26.524  39.631   4.630
39587W        W11902  26.603  13.137   4.088
39588W        W11903  30.073   4.714  12.847
39589W        W11904  18.371  21.707  11.034
39590W        W11905  30.162  30.701  12.109
39591W        W11906   9.255   1.249  12.961
39592W        W11907  24.517  36.932   0.886
39593W        W11908  41.081  40.323  12.042
39594W        W11909  23.620   5.165   0.452
39595W        W11910  38.997  40.002   1.971
39596W        W11911  26.180  34.558   5.038
39597W        W11912   9.150   2.215  12.516
39598W        W11913  15.903  41.990   2.460
39599W        W11914  25.473  31.348   1.398
39600W        W11915  26.125  40.187   1.200
39601W        W11916  14.389  26.135   2.325
39602W        W11917  13.646  17.696   1.298
39603W        W11918  26.822  34.994   4.999
39604W        W11919  40.466  10.558  13.148
39605W        W11920  25.984  10.645   0.755
39606W        W11921  43.887  34.981  12.442
39607W        W11922  18.581   4.603   2.140
39608W        W11923   5.934  29.949   4.672
39609W        W11924  20.808  29.071   2.808
39610W        W11925  39.760  41.097   4.280
39611W        W11926  19.082  42.025   4.429
39612W        W11927  36.141   3.390  13.028
39613W        W11928  11.249  35.665   3.322
39614W        W11929  34.620  33.025   3.214
39615W        W11930   3.393   9.391  12.342
39616W        W11931  36.514  23.260  11.163
39617W        W11932  21.200   5.606  11.644
39618W        W11933   3.281  22.966   3.566
39619W        W11934   1.210  20.602   3.363
39620W        W11935  26.508  26.095  12.331
39621W        W11936   2.608   8.249  14.246
39622W        W11937  17.246  26.698   4.539
39623W        W11938  44.858   2.996  13.792
39624W        W11939  42.445   9.289   2.202
39625W        W11940  16.358  30.466  11.060
39626W        W11941  30.985  24.686   3.654
39627W        W11942  19.661  10.934   1.848
39628W        W11943  39.320  13.384   4.834
39629W        W11944  16.448  31.958   4.228
39630W        W11945  12.036   8.313  13.364
39631W        W11946  40.825  32.476   2.227
39632W        W11947  32.984  41.981   0.034
39633W        W11948  43.293  32.889   2.354
39634W        W11949   6.333  26.681   5.331
39635W        W11950  43.748  34.876   1.813
39636W        W11951  40.264  25.473   2.500
39637W        W11952  20.053  24.552   1.750
39638W        W11953  27.106  26.054   2.447
39639W        W11954  36.865  25.908  11.881
39640W        W11955   8.483  30.826   0.253
39641W        W11956  42.906   4.822  10.584
39642W        W11957  37.460  21.683  12.023
39643W        W11958   5.287  12.609  14.433
39644W        W11959  37.872  24.998   0.834
39645W        W11960  10.937   0.783   2.797
39646W        W11961  41.351  16.831  10.691
39647W        W11962  43.792  38.617  14.531
39648W        W11963  32.559   9.826   4.798
39649W        W11964   0.937  33.712   4.615
39650W        W11965  28.241  16.737   1.750
39651W        W11966  11.607   9.897  12.394
39652W        W11967  18.727  21.801   4.242
39653W        W11968  33.655  41.609  10.737
39654W        W11969  11.379  32.540  10.645
39655W        W11970  19.213  15.588  11.656
39656W        W11971  16.397  16.451  13.110
39657W        W11972   0.032  17.692  14.332
39658W        W11973  40.531  24.793  12.362
39659W        W11974  11.835   6.679   2.606
39660W        W11975  16.659   8.308   0.731
39661W        W11976   6.750  30.158  11.191
39662W        W11977  22.610   7.768   0.349
39663W        W11978  24.732   7.649  13.449
39664W        W11979  36.317  42.346   1.180
39665W        W11980  34.540   1.461  10.694
39666W        W11981  30.955   4.102  13.448
39667W        W11982  26.395   3.028  11.827
39668W        W11983  29.206  24.144   2.180
39669W        W11984   4.025  23.880  10.078
39670W        W11985  14.426  28.374  11.646
39671W        W11986  31.346   5.103   4.104
39672W        W11987  38.713  38.407  10.662
39673W        W11988  22.255  38.906  10.675
39674W        W11989  16.653  22.115  14.493
39675W        W11990  16.193  14.200   1.118
39676W        W11991  35.435  26.084   2.704
39677W        W11992  39.501  36.053   0.895
39678W        W11993  28.379   3.156   2.044
39679W        W11994   7.837  39.670   0.585
39680W        W11995   5.444  17.575  12.969
39681W        W11996  12.547  26.475   1.825
39682W        W11997  29.920  31.635  10.554
39683W        W11998  17.703  22.991  14.545
39684W        W11999  31.021   6.252  10.987
39685W        W12000   2.463  15.855  11.116
39686W        W12001  24.469  35.354  12.097
39687W        W12002  28.506  23.778   3.053
39688W        W12003   2.452  44.790  10.555
39689W        W12004  34.047  21.343  11.040
39690W        W12005  20.116   7.794  12.522
39691W        W12006  17.633  22.678   0.526
39692W        W12007   9.253  42.736   0.501
39693W        W12008  15.687  40.345  13.976
39694W        W12009  37.364  29.867  11.090
39695W        W12010  29.038  22.249  13.381
39696W        W12011  33.402  37.867   3.194
39697W        W12012  35.609  10.356  14.937
39698W        W12013  23.756  10.861  12.556
39699W        W12014  17.242  44.004  12.905
39700W        W12015  33.318  17.635  10.967
39701W        W12016  21.940   9.837   3.758
39702W        W12017   9.327  20.332  14.308
39703W        W12018  36.379   9.455  13.540
39704W        W12019  30.411   1.506   1.300
39705W        W12020  26.663   8.227  12.170
39706W        W12021  22.651  24.253   3.639
39707W        W12022  28.521  19.980  10.574
39708W        W12023  13.754  12.089  13.208
39709W        W12024  25.174  30.554   2.793
39710W        W12025   0.928  21.178   0.231
39711W        W12026  29.172   7.713   1.735
39712W        W12027  16.244  24.946  11.670
39713W        W12028  13.637  27.271   0.321
39714W        W12029  37.598  16.547  11.051
39715W        W12030   3.495  34.827   4.225
39716W        W12031  33.473   2.628  14.408
39717W        W12032  23.916  16.534   3.776
39718W        W12033  40.100   2.539   3.504
39719W        W12034  44.305  32.048   4.022
39720W        W12035   0.324  20.538  12.458
39721W        W12036  34.504  15.111   1.694
39722W        W12037   8.749  39.114  12.961
39723W        W12038  19.725  42.219   0.364
39724W        W12039  36.557  12.260  11.616
39725W        W12040  40.955  43.108  11.594
39726W        W12041   3.251  25.993   0.861
39727W        W12042  33.878   8.133  13.425
39728W        W12043  26.440  19.065   0.491
39729W        W12044  38.907  10.278  13.083
39730W        W12045  23.286   4.242   3.623
39731W        W12046   4.856  43.174  14.621
39732W        W12047  38.906  34.788  14.470
39733W        W12048   8.969  22.117   0.503
39734W        W12049   9.426  31.828   3.610
39735W        W12050  12.935  18.511   4.861
39736W        W12051  40.634  15.256   4.935
39737W        W12052  27.954  12.246  11.095
39738W        W12053  17.167  27.122  10.588
39739W        W12054   1.422  16.270   0.062
39740W        W12055  41.285  35.910   2.403
39741W        W12056  11.912  36.884  14.451
39742W        W12057  12.898  29.594   2.175
39743W        W12058  19.171  44.424  13.667
39744W        W12059   1.844  23.987   3.497
39745W        W12060  20.785  35.441  10.929
39746W        W12061  33.587  27.621  10.334
39747W        W12062  44.307  11.116   4.107
39748W        W12063  30.894  17.037   9.759
39749W        W12064  27.578  42.104   2.639
39750W        W12065  22.977  10.097   0.393
39751W        W12066  39.778  38.797   4.416
39752W        W12067  13.779  36.664   0.385
39753W        W12068   9.787  10.409   3.123
39754W        W12069   3.204  13.623  11.984
39755W        W12070  11.659   8.169   0.862
39756W        W12071  23.846  37.329   3.214
39757W        W12072  25.387  33.058  11.187
39758W        W12073  23.720   5.712   4.139
39759W        W12074  21.238   0.833  13.423
39760W        W12075  35.055  36.678   0.744
39761W        W12076  36.909   8.869  11.657
39762W        W12077   6.932  23.139  11.508
39763W        W12078  19.318   5.319  13.507
39764W        W12079  15.593   3.421   1.264
39765W        W12080  42.407  43.209  13.923
39766W        W12081  18.298   5.332  10.625
39767W        W12082  38.965   3.672  10.523
39768W        W12083   6.862  30.131   1.811
39769W        W12084   7.513  31.985   1.472
39770W        W12085  16.779  44.950   2.380
39771W        W12086  17.619  14.759  10.608
39772W        W12087   4.800   6.853  10.855
39773W        W12088  40.105   4.248  13.855
39774W        W12089  35.564  20.459   2.668
39775W        W12090  36.280  36.600   5.172
39776W        W12091  43.796  44.432  13.940
39777W        W12092   5.229   4.706   4.181
39778W        W12093   5.971  40.327  12.112
39779W        W12094   3.024   1.925   1.014
39780W        W12095   3.719  37.490   2.037
39781W        W12096  11.412  35.525   1.220
39782W        W12097  30.917  43.763  12.270
39783W        W12098   0.527  25.014  12.907
39784W        W12099  40.308  12.459   3.384
39785W        W12100  21.676  21.448   0.742
39786W        W12101  43.867   6.300   3.907
39787W        W12102   4.015   4.317   2.228
39788W        W12103  12.623   1.198   2.423
39789W        W12104  24.551  30.361  10.522
39790W        W12105   1.034  22.465   3.684
39791W        W12106  15.300  12.050   3.269
39792W        W12107  36.738  21.289  10.742
39793W        W12108  34.517   1.180  12.040
39794W        W12109  41.906  11.201  10.325
39795W        W12110  32.618  44.313  11.867
39796W        W12111   0.433  15.075   4.628
39797W        W12112  18.513  41.245  14.367
39798W        W12113   8.148  22.759  10.620
39799W        W12114   0.698  14.260   5.051
39800W        W12115  24.633  27.085   1.138
39801W        W12116   1.392  39.683   1.754
39802W        W12117  33.695  31.212  10.951
39803W        W12118  34.058   2.260  13.526
39804W        W12119  16.315   0.717   3.075
39805W        W12120   9.845  20.033  13.976
39806W        W12121  17.563  28.884   1.323
39807W        W12122   6.659  10.175  14.634
39808W        W12123   5.727  40.791  13.976
39809W        W12124  35.932   9.293   3.112
39810W        W12125   8.679  38.245   4.634
39811W        W12126  26.026  28.925   0.217
39812W        W12127  40.428   9.436  12.650
39813W        W12128  41.206   8.336   1.802
39814W        W12129   8.936  35.557  14.881
39815W        W12130  34.412  12.735   1.426
39816W        W12131  29.606  22.623  14.774
39817W        W12132  37.894  37.152  10.538
39818W        W12133  38.393  18.627  13.651
39819W        W12134  17.553  27.678  11.390
39820W        W12135  22.059  16.337  12.292
39821W        W12136  29.035  24.686   3.750
39822W        W12137  17.247   6.915  11.610
39823W        W12138   2.337   2.492  12.031
39824W        W12139  32.992  31.653   3.615
39825W        W12140  14.577   5.540  11.427
39826W        W12141  23.325  34.314  14.212
39827W        W12142  43.384  42.902  12.319
39828W        W12143  40.292  26.931  11.494
39829W        W12144   3.075  43.983   4.183
39830W        W12145  35.819  29.197  13.355
39831W        W12146  27.002  29.482   2.596
39832W        W12147  22.930  15.543  11.076
39833W        W12148  12.883  29.336   2.666
39834W        W12149  15.753  12.382   4.586
39835W        W12150  32.961  30.549  13.521
39836W        W12151  17.005  10.569   1.327
39837W        W12152  31.338  22.683   0.798
39838W        W12153   0.719   5.685   2.135
39839W        W12154  14.055  42.879   2.769
39840W        W12155  43.270  40.304  13.815
39841W        W12156  24.634   8.633  13.776
39842W        W12157  40.973   4.400   4.067
39843W        W12158  31.161   5.304  10.614
39844W        W12159  41.098  16.713  11.118
39845W        W12160  12.133  42.938  12.031
39846W        W12161  28.448  15.046   1.610
39847W        W12162  24.788   2.063   4.624
39848W        W12163   9.745  39.876   2.135
39849W        W12164  21.086  16.162   4.051
39850W        W12165  16.676  25.522   0.696
39851W        W12166  21.211  30.688   3.769
39852W        W12167   8.462  19.246  12.952
39853W        W12168   6.325  13.389  14.764
39854W        W12169  13.818   6.647  14.737
39855W        W12170  25.047  16.443  13.028
39856W        W12171  42.341  10.397   4.659
39857W        W12172  42.843  34.071  12.374
39858W        W12173  15.063  44.959  12.342
39859W        W12174  43.755   8.033   4.169
39860W        W12175  33.033  14.286  12.009
39861W        W12176  27.381  25.023   2.467
39862W        W12177  41.540  35.385   3.606
39863W        W12178  43.414  13.845   1.160
39864W        W12179  11.850  16.871   2.660
39865W        W12180  44.022  14.811  14.508
39866W        W12181   9.729  38.344  11.701
39867W        W12182  19.269   2.936  13.864
39868W        W12183  16.359  14.302  11.577
39869W        W12184  22.074   7.519  14.439
39870W        W12185   6.746  30.643   3.443
39871W        W12186  16.642  36.855  13.914
39872W        W12187  20.150  44.319  14.900
39873W        W12188  35.941  13.128  11.964
39874W        W12189  37.002  15.549   4.563
39875W        W12190  21.168  26.901  12.574
39876W        W12191  37.075  20.199   4.680
39877W        W12192  40.295  19.033   1.887
39878W        W12193  15.290  43.921   0.275
39879W        W12194  22.777  12.909   2.631
39880W        W12195  26.062  12.873   3.232
39881W        W12196  29.547  24.246   4.615
39882W        W12197  43.932   2.202  11.894
39883W        W12198  24.315  39.877  12.917
39884W        W12199  20.650  21.763   4.094
39885W        W12200  25.513  28.906   2.440
39886W        W12201  36.301  14.716  10.490
39887W        W12202   7.224  44.683   4.532
39888W        W12203   1.841   5.462   0.403
39889W        W12204   0.764  27.948  10.591
39890W        W12205   3.259   9.107  14.887
39891W        W12206   3.777  10.649   1.482
39892W        W12207   4.793  43.935   1.119
39893W        W12208  27.091   5.992   4.123
39894W        W12209  17.642   8.825   1.846
39895W        W12210  21.698   9.118  14.804
39896W        W12211  22.730  43.402   2.146
39897W        W12212  30.551  11.924   3.388
39898W        W12213   8.716   7.695  14.035
39899W        W12214  34.035  21.281   0.421
39900W        W12215  23.747  32.870   0.853
39901W        W12216  21.171  31.448  11.522
39902W        W12217   3.848   7.571   1.164
39903W        W12218   5.857  44.264  11.011
39904W        W12219  42.083  36.344  12.961
39905W        W12220  43.570   7.004  13.355
39906W        W12221   3.750   5.023   0.915
39907W        W12222  23.108   8.437   1.041
39908W        W12223  40.570  43.579   3.859
39909W        W12224  22.581  24.030   2.675
39910W        W12225   6.628   4.384   4.187
39911W        W12226  11.854  18.775  13.959
39912W        W12227   0.377  40.486  13.461
39913W        W12228  29.344  42.394  12.556
39914W        W12229   8.528   2.234   0.661
39915W        W12230  42.839   3.364  14.072
39916W        W12231   7.708  42.903   3.893
39917W        W12232  13.865   8.529   3.076
39918W        W12233  22.829  26.223   0.241
39919W        W12234  32.538  23.429  13.463
39920W        W12235  30.640  10.632   1.584
39921W        W12236  25.996  21.253   0.723
39922W        W12237  34.678  25.147  13.471
39923W        W12238  37.062  17.257   4.996
39924W        W12239  36.366  32.845   4.804
39925W        W12240   0.780   3.235   4.380
39926W        W12241  16.260   7.189  11.914
39927W        W12242  13.888  29.175   2.759
39928W        W12243  10.158   1.924   3.863
39929W        W12244  37.463  15.054  12.096
39930W        W12245   5.775   5.440  12.435
39931W        W12246  22.554  35.324  11.952
39932W        W12247  12.879  32.596  11.955
39933W        W12248   7.768   5.294   4.480
39934W        W12249  15.553  42.056   3.759
39935W        W12250  37.299  22.529   1.664
39936W        W12251   7.148  27.434  14.554
39937W        W12252   1.481   2.788   1.370
39938W        W12253  31.155  39.633   3.907
39939W        W12254  11.787   7.081  11.826
39940W        W12255   7.662  22.611   1.308
39941W        W12256   9.340  37.147  12.473
39942W        W12257   4.308   3.395   3.133
39943W        W12258  15.666   9.794   3.551
39944W        W12259  44.678  18.517   1.432
39945W        W12260  12.458   8.794   0.388
39946W        W12261  15.086  14.599   2.880
39947W        W12262   6.696   2.332   2.325
39948W        W12263   4.704  28.679   1.264
39949W        W12264   0.013  16.277  14.998
39950W        W12265  14.197   1.776   1.614
39951W        W12266  30.626   6.242  14.311
39952W        W12267  19.985   6.795  12.527
39953W        W12268  12.375  28.712   2.447
39954W        W12269  21.653  29.974   2.107
39955W        W12270  31.126  24.193   3.701
39956W        W12271  13.805  35.400  12.679
39957W        W12272  43.972  31.307   2.660
39958W        W12273  19.093  15.755  14.877
39959W        W12274  24.621  32.463   1.879
39960W        W12275  30.563  37.818   1.955
39961W        W12276  21.941  41.564   4.345
39962W        W12277  38.861  40.498   3.094
39963W        W12278   3.771  12.846  11.346
39964W        W12279  23.766  32.588  13.026
39965W        W12280  23.035  42.962   2.174
39966W        W12281  40.861   3.204   0.969
39967W        W12282   3.760  31.853  13.625
39968W        W12283  11.218  18.977   3.019
39969W        W12284  15.099   8.779   3.901
39970W        W12285   9.108  34.421  13.511
39971W        W12286  10.137  38.238  14.510
39972W        W12287   6.742   2.606  10.442
39973W        W12288   2.727   2.062  14.809
39974W        W12289  29.576  10.780   0.222
39975W        W12290  10.413  36.274   1.152
39976W        W12291  33.605  20.802  13.033
39977W        W12292  17.224   0.361   9.940
39978W        W12293  22.062  34.836  13.328
39979W        W12294  11.742  39.376  14.383
39980W        W12295  16.039   9.762   0.906
39981W        W12296   6.609  16.070   0.830
39982W        W12297  42.473  37.276  13.105
39983W        W12298  19.948  30.149   1.419
39984W        W12299   5.132  36.395  13.319
39985W        W12300  34.593  26.635  13.508
39986W        W12301   2.879  11.393   3.883
39987W        W12302  24.341   0.454   2.783
39988W        W12303  18.241  26.667   9.865
39989W        W12304  16.760  29.572  12.466
39990W        W12305  13.725   2.173  12.124
39991W        W12306  15.195   4.172  11.525
39992W        W12307   3.831   0.511   4.332
39993W        W12308  11.655  35.610   1.793
39994W        W12309   6.815  17.748   1.180
39995W        W12310  38.846   6.328   3.267
39996W        W12311   2.737  20.198  11.989
39997W        W12312  44.006  17.197   3.671
39998W        W12313  38.050  33.443   2.307
39999W        W12314  43.414  44.543  11.978
40000W        W12315  25.550  24.510  13.427
40001W        W12316  18.054  44.422  14.478
40002W        W12317  36.017   2.980   3.236
40003W        W12318  31.753   4.896  10.758
40004W        W12319   5.752   1.779   3.307
40005W        W12320  16.519   0.079  12.357
40006W        W12321   9.193   9.581   3.130
40007W        W12322  17.216  42.588  14.493
40008W        W12323  25.155  40.016   4.238
40009W        W12324   9.718   1.480   1.922
40010W        W12325  10.787  43.540  13.562
40011W        W12326  27.556  12.649   4.411
40012W        W12327  44.383  27.125   1.654
40013W        W12328  12.750   7.599  14.941
40014W        W12329  20.921  29.673  11.082
40015W        W12330  20.700  17.627  11.106
40016W        W12331  13.045  29.703   3.451
40017W        W12332  35.922  15.308   1.390
40018W        W12333  38.759  29.636   1.481
40019W        W12334  31.337   3.512  11.632
40020W        W12335  43.029  36.013  11.607
40021W        W12336   6.092  42.829  11.657
40022W        W12337  39.323  16.554   0.512
40023W        W12338  39.759  43.978  14.029
40024W        W12339  36.970  18.839   0.301
40025W        W12340  42.724  42.775   1.422
40026W        W12341   1.308  36.333   2.431
40027W        W12342  11.860  18.032  13.054
40028W        W12343  37.583  37.344  13.420
40029W        W12344  35.635   4.605  13.393
40030W        W12345  41.940   9.130   4.135
40031W        W12346  25.792  37.264   1.832
40032W        W12347  37.421  21.793  12.873
40033W        W12348  27.011  34.793  10.652
40034W        W12349  32.136  22.433   3.672
40035W        W12350  37.929  26.447  14.532
40036W        W12351   9.708  31.432  12.951
40037W        W12352  17.058  36.957   0.798
40038W        W12353   8.828  33.605   2.619
40039W        W12354  44.895  43.824   4.459
40040W        W12355  40.340  33.572  13.331
40041W        W12356  34.447  43.892   0.004
40042W        W12357  15.582  27.338   1.429
40043W        W12358  41.906  19.859   3.043
40044W        W12359  30.091  17.597  11.001
40045W        W12360  17.265   2.839   4.712
40046W        W12361  12.910  16.434   4.144
40047W        W12362   7.849  29.965   0.789
40048W        W12363  38.008  10.287   4.223
40049W        W12364   5.813   3.458   4.416
40050W        W12365   6.690  27.702   0.799
40051W        W12366  41.965  15.520  12.089
40052W        W12367  19.674  23.811   4.285
40053W        W12368  44.786   5.896  14.823
40054W        W12369  14.717   7.331   0.220
40055W        W12370  37.818  26.133   0.452
40056W        W12371  13.294  24.955  12.958
40057W        W12372   9.992   6.213  12.450
40058W        W12373  30.000  11.435   2.370
40059W        W12374  43.057  20.717   4.651
40060W        W12375   9.965  44.894   1.751
40061W        W12376  36.054  16.433  14.696
40062W        W12377  30.514  11.074   3.651
40063W        W12378   7.341   6.207   3.728
40064W        W12379   8.822  23.109   1.829
40065W        W12380  18.158  29.000  13.921
40066W        W12381  15.380  28.518  12.884
40067W        W12382  24.576  17.232  10.609
40068W        W12383  36.017  11.619  13.904
40069W        W12384   3.728  15.738  11.635
40070W        W12385  27.775  13.001  14.398
40071W        W12386  28.050  30.969  11.642
40072W        W12387  11.607  34.487   0.366
40073W        W12388  14.372  39.446  10.668
40074W        W12389  35.550  11.188  14.979
40075W        W12390  11.677  31.895   1.243
40076W        W12391  23.334  21.524  12.984
40077W        W12392  23.017  28.220  13.983
40078W        W12393   2.776  38.991  13.982
40079W        W12394  33.665  22.862   2.798
40080W        W12395   8.760  40.805   0.975
40081W        W12396  29.000  28.929  11.173
40082W        W12397  24.235   9.897   1.248
40083W        W12398  37.290  22.239   3.019
40084W        W12399   4.848  31.161  13.929
40085W        W12400   8.694   4.464  12.456
40086W        W12401  23.833  30.612  12.019
40087W        W12402   8.786  27.613  14.729
40088W        W12403  12.035  30.030  13.309
40089W        W12404   2.899   3.245   2.695
40090W        W12405  34.446  40.353   1.269
40091W        W12406  25.944  33.911   4.687
40092W        W12407  13.871  31.257  11.599
40093W        W12408  40.088  44.198  11.115
40094W        W12409  33.382  26.530   4.013
40095W        W12410  22.099  19.177   5.361
40096W        W12411  25.130  25.556   5.075
40097W        W12412  30.929  33.351   2.974
40098W        W12413  30.018   3.906  14.298
40099W        W12414  13.197   6.359   4.493
40100W        W12415   3.797  21.803  13.105
40101W        W12416  34.510   1.785  13.541
40102W        W12417  31.167  11.721   0.940
40103W        W12418  10.910  27.173   1.933
40104W        W12419  36.163  33.658  10.118
40105W        W12420  41.898  40.527  10.752
40106W        W12421  17.098  28.435   4.271
40107W        W12422   5.204  20.253  11.086
40108W        W12423  44.417  13.301   3.124
40109W        W12424  23.060  43.871   4.665
40110W        W12425  18.630  44.566  12.532
40111W        W12426  12.526  14.113  14.482
40112W        W12427   5.345  44.616   3.610
40113W        W12428  15.308  33.078   3.424
40114W        W12429  26.558  26.976   2.608
40115W        W12430  30.078  22.291   3.741
40116W        W12431  29.671  33.034  13.804
40117W        W12432   5.317   3.921   4.356
40118W        W12433  23.572  40.324   3.220
40119W        W12434  44.703  12.644   3.706
40120W        W12435   4.323  36.175  10.736
40121W        W12436  20.480  33.999  13.073
40122W        W12437  41.925  16.175  11.289
40123W        W12438  32.582  20.233   0.242
40124W        W12439   4.013  43.896  12.561
40125W        W12440  15.078   5.396  11.449
40126W        W12441  15.706  32.852  12.880
40127W        W12442  12.935  26.615  12.484
40128W        W12443  22.734  37.581  14.285
40129W        W12444   8.764  39.363  14.301
40130W        W12445  36.498   7.929   0.935
40131W        W12446  17.336  14.241  14.361
40132W        W12447  44.934  30.919  14.429
40133W        W12448  25.710   9.529  11.550
40134W        W12449  12.994  44.862  13.165
40135W        W12450   4.507  32.093   2.237
40136W        W12451   1.479   2.415  11.888
40137W        W12452   9.698  34.717  11.025
40138W        W12453  32.578  25.162  14.772
40139W        W12454  23.178   0.349   1.426
40140W        W12455  33.402  21.267   2.906
40141W        W12456  25.575  32.736   1.767
40142W        W12457  34.686  11.368  13.433
40143W        W12458  10.631  22.964   1.925
40144W        W12459  38.810  37.921  11.918
40145W        W12460  32.617  25.661   4.787
40146W        W12461  22.457  22.235   3.737
40147W        W12462  31.065   8.249  14.316
40148W        W12463   0.352  27.001  12.882
40149W        W12464  14.002  40.020   0.481
40150W        W12465  42.741   8.676  11.673
40151W        W12466  39.428  19.592  13.774
40152W        W12467  12.589  38.542   0.875
40153W        W12468  39.058  21.627   4.595
40154W        W12469  23.598  14.767   0.264
40155W        W12470   3.365  10.583   1.793
40156W        W12471  31.280  28.598  11.697
40157W        W12472  36.070  36.703   1.788
40158W        W12473   4.818   9.346  13.528
40159W        W12474  22.627  35.838  14.012
40160W        W12475  32.124  19.677   2.699
40161W        W12476  39.340  26.707  11.914
40162W        W12477  40.241  27.946   0.821
40163W        W12478  37.014  39.601   2.854
40164W        W12479  26.549  26.035   1.695
40165W        W12480  36.117  34.569  11.179
40166W        W12481  28.018  38.317   3.111
40167W        W12482  29.645  38.373  12.057
40168W        W12483  31.559  25.039   2.459
40169W        W12484  21.031  27.589  12.047
40170W        W12485  36.622  25.001   0.216
40171W        W12486  33.488  33.985  11.653
40172W        W12487  35.423  44.913   2.736
40173W        W12488  39.440  23.327  11.637
40174W        W12489   5.751  32.169  12.080
40175W        W12490  16.719  43.980  12.845
40176W        W12491   8.575  42.927  11.467
40177W        W12492   0.956  27.557   0.463
40178W        W12493   5.568  21.502   1.707
40179W        W12494  41.032  21.798   0.018
40180W        W12495   7.029  11.829   1.902
40181W        W12496  20.986  41.553   4.556
40182W        W12497   2.291   7.165   3.841
40183W        W12498   5.473  23.277   4.211
40184W        W12499  12.923  41.538   0.948
40185W        W12500   8.743   1.205   0.836
40186W        W12501  26.005  18.462   2.210
40187W        W12502   8.360  18.346  12.377
40188W        W12503  18.731  16.254   3.693
40189W        W12504  12.103  11.185   1.416
40190W        W12505  25.489  24.995   1.489
40191W        W12506  35.497  42.242  12.100
40192W        W12507  41.929  11.296   4.064
40193W        W12508  39.849   3.044  12.550
40194W        W12509  18.328  31.586  12.480
40195W        W12510  20.131  27.108  14.960
40196W        W12511   6.396  44.677   2.886
40197W        W12512   0.933  30.953  14.474
40198W        W12513  14.171  34.404   0.295
40199W        W12514  28.178  21.299  10.677
40200W        W12515  24.156   5.598   0.741
40201W        W12516   0.566   0.951  11.467
40202W        W12517  20.055  29.220  13.041
40203W        W12518  24.557  44.929  11.143
40204W        W12519  41.474  21.374   1.315
40205W        W12520   0.939  43.569   2.407
40206W        W12521  36.497  19.483   2.219
40207W        W12522  28.181  39.131   5.117
40208W        W12523  12.825   9.875   4.475
40209W        W12524  38.497  38.840   3.614
40210W        W12525  31.034  38.116   0.610
40211W        W12526  24.229  16.954   1.407
40212W        W12527  17.659  10.913  11.491
40213W        W12528  32.469  18.432  14.965
40214W        W12529  42.810  15.202   3.132
40215W        W12530  38.654  13.640   0.169
40216W        W12531  17.330   1.373  12.994
40217W        W12532  34.922  31.052  14.747
40218W        W12533   7.383  38.589  14.039
40219W        W12534  30.092  15.600   0.351
40220W        W12535  28.971  32.717   3.169
40221W        W12536  14.248  10.815   1.316
40222W        W12537  27.919  25.177  12.256
40223W        W12538   8.534  44.132   1.749
40224W        W12539  18.769  43.682  10.849
40225W        W12540   4.405  43.265  14.313
40226W        W12541  36.025  22.522  12.883
40227W        W12542   9.858  43.744   3.960
40228W        W12543  11.229  40.674   4.672
40229W        W12544   2.876  24.071   0.218
40230W        W12545  31.739   0.873   3.128
40231W        W12546  12.330  10.330  13.501
40232W        W12547   6.238  44.209   1.894
40233W        W12548  14.020  14.343  11.906
40234W        W12549   9.482  27.453   2.444
40235W        W12550  40.600  13.595  14.810
40236W        W12551  32.568   7.777   0.206
40237W        W12552  21.161  11.786  10.908
40238W        W12553   4.208  12.214   1.928
40239W        W12554  14.818  15.641  14.463
40240W        W12555  39.949  44.902   4.145
40241W        W12556   2.712  13.434   5.188
40242W        W12557  11.439  36.442   4.342
40243W        W12558  40.564   9.113   4.525
40244W        W12559  40.977  10.734   0.869
40245W        W12560  16.479   6.409  11.191
40246W        W12561  15.023  17.060   1.680
40247W        W12562  16.148  21.113   4.481
40248W        W12563   1.406  43.277   0.265
40249W        W12564  25.489   0.773   4.336
40250W        W12565   2.069  31.131   2.851
40251W        W12566  41.559  16.689   1.412
40252W        W12567  19.934   7.606  14.414
40253W        W12568  11.118  11.350  11.610
40254W        W12569  40.870  32.559  14.630
40255W        W12570  12.716   3.070  13.534
40256W        W12571  36.806  12.638  12.457
40257W        W12572  20.495  23.119  10.944
40258W        W12573   9.097   5.785  14.031
40259W        W12574  10.804  40.923   3.760
40260W        W12575  29.524  37.607   4.556
40261W        W12576  41.024  38.464  14.450
40262W        W12577  10.708   4.368  10.884
40263W        W12578  20.707   3.844   4.405
40264W        W12579   1.874  10.530   3.684
40265W        W12580  35.594  28.982   0.846
40266W        W12581  11.254  41.817   1.906
40267W        W12582  13.853  36.631  11.568
40268W        W12583  17.717  24.751  10.526
40269W        W12584  22.524  19.997  11.667
40270W        W12585  23.172  17.006  14.690
40271W        W12586  36.553  12.769  14.891
40272W        W12587  42.072  43.203   3.694
40273W        W12588  22.120  40.009  14.344
40274W        W12589   0.631  39.004  11.661
40275W        W12590  18.585  41.903   4.503
40276W        W12591  24.117  11.351  13.165
40277W        W12592  41.408  37.871  13.825
40278W        W12593  19.565   5.910   1.569
40279W        W12594  39.881  19.952  10.782
40280W        W12595   2.706  14.871   2.428
40281W        W12596  13.439  35.491  14.568
40282W        W12597  12.941  25.646   4.158
40283W        W12598   9.850   2.341  13.073
40284W        W12599   7.498  18.755   4.553
40285W        W12600  22.208  43.332  14.058
40286W        W12601   5.184  19.966  14.049
40287W        W12602  41.525  37.819   2.712
40288W        W12603   4.912  25.051   4.334
40289W        W12604  44.533  31.176   4.255
40290W        W12605  13.635  19.307  12.989
40291W        W12606  27.727  28.467  13.822
40292W        W12607  10.619  19.863  13.583
40293W        W12608   1.794  13.668  11.208
40294W        W12609  36.925  26.140   0.709
40295W        W12610  21.830  17.813   3.718
40296W        W12611  39.776  37.920  11.071
40297W        W12612   2.017  24.646  12.404
40298W        W12613  16.128  37.037  13.280
40299W        W12614  31.198  21.716  13.493
40300W        W12615  33.402  22.721  11.688
40301W        W12616  10.032  33.607  13.969
40302W        W12617  32.010  30.214  13.711
40303W        W12618  31.376  14.580  13.497
40304W        W12619  15.757  26.903   3.173
40305W        W12620  25.366  26.752  11.500
40306W        W12621  43.806  30.901  10.509
40307W        W12622   6.283  22.541  12.429
40308W        W12623  33.441  37.337  12.055
40309W        W12624  39.069   3.443   3.254
40310W        W12625   4.707   5.264   2.674
40311W        W12626  20.813   1.681  12.034
40312W        W12627  33.920   4.289  14.441
40313W        W12628  15.289   6.879   0.906
40314W        W12629  37.346  43.420   2.168
40315W        W12630  39.875  30.185  12.952
40316W        W12631  30.581  15.880  13.747
40317W        W12632  16.790   7.654   2.851
40318W        W12633  17.559  30.496  11.353
40319W        W12634  18.141   0.551   4.272
40320W        W12635  39.457  14.078   0.309
40321W        W12636  11.834  10.270  11.108
40322W        W12637  32.807   7.781   3.896
40323W        W12638  13.351  43.934  13.652
40324W        W12639  26.117  12.150  11.501
40325W        W12640  19.668  39.868  13.843
40326W        W12641  39.527  43.462  14.996
40327W        W12642  40.056  29.103  11.500
40328W        W12643  27.738  14.014   4.254
40329W        W12644   2.022  12.202   2.932
40330W        W12645  37.864   2.857   4.537
40331W        W12646  39.006  18.201  13.117
40332W        W12647  15.045   1.960  11.072
40333W        W12648  38.411  17.757  12.642
40334W        W12649  35.390  30.821   4.089
40335W        W12650  28.595  39.287  14.677
40336W        W12651  12.655  17.263   5.015
40337W        W12652   6.698  12.752  11.193
40338W        W12653  23.280   4.702  11.181
40339W        W12654  15.953  24.873   3.730
40340W        W12655  16.079  35.635  13.417
40341W        W12656  26.970  39.077  10.765
40342W        W12657  40.003  35.617   4.642
40343W        W12658  29.442  33.470   4.144
40344W        W12659  41.894  26.563   0.345
40345W        W12660  33.195  22.664   4.526
40346W        W12661  29.947  14.120  12.031
40347W        W12662   5.461  29.582  12.976
40348W        W12663  27.567  43.568  13.535
40349W        W12664   6.710  42.047  12.523
40350W        W12665   8.182  24.715  11.676
40351W        W12666  18.111  43.280   4.550
40352W        W12667  32.547  38.669   2.419
40353W        W12668  28.481  40.015  13.083
40354W        W12669   6.757   9.641  11.920
40355W        W12670  27.053  21.791   3.361
40356W        W12671   3.990  22.528   0.458
40357W        W12672  10.721  39.799  10.262
40358W        W12673  40.317   5.394  14.532
40359W        W12674  34.150  19.126  12.386
40360W        W12675   8.695  22.796   2.264
40361W        W12676  44.218  40.020  14.786
40362W        W12677   8.176  36.490   0.916
40363W        W12678  26.004  17.165  12.427
40364W        W12679  38.902   8.028   2.713
40365W        W12680   6.437  18.036  13.969
40366W        W12681  44.943  43.354   4.652
40367W        W12682  13.865  18.297  13.730
40368W        W12683  28.004  32.173   0.778
40369W        W12684  11.566   1.302  14.280
40370W        W12685   5.312  36.570   4.736
40371W        W12686  11.203   3.808   4.580
40372W        W12687  20.313  21.699  12.537
40373W        W12688   1.174  12.848  12.837
40374W        W12689   4.698  36.588  13.057
40375W        W12690  29.936  27.554   3.233
40376W        W12691  16.442  34.992   4.807
40377W        W12692  36.369  30.868  14.698
40378W        W12693  38.884   4.979  11.093
40379W        W12694   0.225  15.077  11.010
40380W        W12695   6.488  42.448  13.496
40381W        W12696   8.205  42.560  12.026
40382W        W12697  34.613  41.095   1.787
40383W        W12698  11.626  32.083  14.727
40384W        W12699  10.287  32.764  13.846
40385W        W12700  41.022  17.034   0.011
40386W        W12701  29.656  20.263   1.820
40387W        W12702  24.947  21.464   1.375
40388W        W12703  39.823  14.144  14.032
40389W        W12704  42.186   5.704   3.268
40390W        W12705  14.809  13.727  11.710
40391W        W12706   2.666  20.152   2.707
40392W        W12707  20.300  18.637  13.887
40393W        W12708  25.811  31.408   3.587
40394W        W12709  31.973  12.849  10.836
40395W        W12710  41.405  44.292   3.502
40396W        W12711  36.597  17.235   3.317
40397W        W12712  16.063   9.921   2.723
40398W        W12713  10.549  21.450  10.641
40399W        W12714  33.761  42.485  14.800
40400W        W12715  33.847  15.891  12.405
40401W        W12716   2.649  44.911  11.187
40402W        W12717  17.536   9.166   3.213
40403W        W12718  35.273   3.440   2.807
40404W        W12719  42.970   4.703  11.872
40405W        W12720  26.065  15.820   2.735
40406W        W12721   1.904  35.480   0.392
40407W        W12722  33.336  22.269  10.710
40408W        W12723  33.285  38.131   2.768
40409W        W12724  12.897  44.818  10.539
40410W        W12725   2.114  23.088   0.186
40411W        W12726  11.724  18.255   2.196
40412W        W12727   5.746  22.973   3.854
40413W        W12728   9.184  30.109   2.111
40414W        W12729  21.743  23.876   3.669
40415W        W12730  16.105  18.280   1.892
40416W        W12731   7.377  35.675   1.331
40417W        W12732  12.783  24.031   2.679
40418W        W12733   3.249  16.209  13.861
40419W        W12734   9.282  15.260   1.252
40420W        W12735   5.719  24.639   4.143
40421W        W12736   4.743   6.806  12.328
40422W        W12737  43.375   1.691   2.387
40423W        W12738  31.862  22.213  13.165
40424W        W12739  10.832   2.778   1.438
40425W        W12740  25.342  20.179  10.504
40426W        W12741   2.800   7.243   3.664
40427W        W12742  17.093  19.815   3.750
40428W        W12743  42.517  11.639   1.317
40429W        W12744  36.937  24.724   5.104
40430W        W12745   7.079  35.439   0.953
40431W        W12746   4.366  15.813  12.062
40432W        W12747  27.106  31.358  12.194
40433W        W12748  13.300  22.475   4.951
40434W        W12749  38.865   7.950  12.925
40435W        W12750  18.249  12.044  13.477
40436W        W12751   7.494  41.945   4.529
40437W        W12752  12.754  24.908  12.221
40438W        W12753   5.934  23.916   2.985
40439W        W12754  33.377   9.971   1.451
40440W        W12755  37.912  41.270  13.449
40441W        W12756  11.604  37.674  10.817
40442W        W12757   2.458  17.541  13.866
40443W        W12758   3.066  33.089   4.091
40444W        W12759  12.144   7.222   3.732
40445W        W12760  40.983  28.539   4.180
40446W        W12761  33.556  21.532  14.812
40447W        W12762  44.094   9.308   4.852
40448W        W12763  25.502  31.576  11.540
40449W        W12764  36.891  15.228  13.943
40450W        W12765  14.719  24.667  11.125
40451W        W12766  32.012  30.387   0.042
40452W        W12767   8.729   1.419  14.675
40453W        W12768   0.881  24.085   0.255
40454W        W12769   8.821  32.205   0.904
40455W        W12770   5.406  11.707   1.700
40456W        W12771   7.892  41.434  14.861
40457W        W12772  36.308  43.966  14.757
40458W        W12773  25.181  23.565   4.600
40459W        W12774  16.553  16.938  11.119
40460W        W12775  32.552  29.971   0.531
40461W        W12776  20.500  36.850  14.314
40462W        W12777  23.448  43.339  14.529
40463W        W12778   5.616  12.509   3.285
40464W        W12779   9.434  28.203   3.307
40465W        W12780  44.848  24.562   0.933
40466W        W12781  15.820  12.881  11.903
40467W        W12782  10.099   9.876   1.003
40468W        W12783  24.454  34.266  14.785
40469W        W12784  13.606  28.079  13.998
40470W        W12785  15.188  17.128  10.794
40471W        W12786   2.751  43.550  11.173
40472W        W12787  15.845  33.968   1.842
40473W        W12788  31.092  21.603   3.149
40474W        W12789  19.864  23.031  13.944
40475W        W12790  41.952  17.680  12.697
40476W        W12791  28.194  34.298   1.818
40477W        W12792  13.111  34.825   3.807
40478W        W12793  24.243  34.108   1.835
40479W        W12794  34.144  31.333   0.885
40480W        W12795  16.048  40.690   2.826
40481W        W12796  35.138  41.004   4.249
40482W        W12797  10.889  42.377   0.745
40483W        W12798  23.950  43.726  13.758
40484W        W12799  17.913  30.792  11.582
40485W        W12800  38.377   4.805  11.568
40486W        W12801   7.643  32.526   2.328
40487W        W12802  17.720  36.854   1.847
40488W        W12803  13.688  34.074   1.467
40489W        W12804  40.588  31.005   0.704
40490W        W12805  10.819   1.901   2.572
40491W        W12806  15.085  40.320  11.079
40492W        W12807  37.291   0.784   2.374
40493W        W12808   2.875  44.226  11.724
40494W        W12809  37.075  33.665   3.236
40495W        W12810  30.922  31.351   4.164
40496W        W12811  23.371  16.564  14.867
40497W        W12812  29.206  16.211   4.288
40498W        W12813   9.395   3.878   2.133
40499W        W12814  22.074  25.471  12.038
40500W        W12815  34.140  27.128  13.915
40501W        W12816   3.975   6.639  10.765
40502W        W12817   1.282  22.634   4.277
40503W        W12818  26.988  40.755   2.774
40504W        W12819  28.421   7.882   3.559
40505W        W12820  31.113  15.425   3.712
40506W        W12821  13.358   5.221   4.226
40507W        W12822  26.246  22.459   2.323
40508W        W12823  28.166  43.449   3.144
40509W        W12824  18.800   6.233   0.344
40510W        W12825   3.585  43.475  14.102
40511W        W12826  10.409  26.582   4.441
40512W        W12827  14.370  42.454   0.239
40513W        W12828  42.700  44.827  14.378
40514W        W12829  40.204  37.865  12.465
40515W        W12830  41.423  31.624   2.797
40516W        W12831  30.546  13.345  12.619
40517W        W12832  38.535   7.472  12.952
40518W        W12833  34.491  33.628  14.855
40519W        W12834  29.633  13.582  12.095
40520W        W12835   3.856  35.550  13.869
40521W        W12836  44.372  33.495   3.919
40522W        W12837  32.854  26.984   2.301
40523W        W12838  12.652  38.871   3.438
40524W        W12839   6.326  10.720   3.257
40525W        W12840  30.864  27.490   1.275
40526W        W12841  33.933   5.240  11.864
40527W        W12842  16.701  29.030   2.981
40528W        W12843  10.454   3.222  11.378
40529W        W12844  21.599  14.626   2.291
40530W        W12845  26.467  38.024   4.521
40531W        W12846  29.731  28.703  12.762
40532W        W12847  16.050  35.512   2.951
40533W        W12848  28.892  22.734   4.074
40534W        W12849  28.144  19.967  13.977
40535W        W12850  36.241   1.293   1.458
40536W        W12851  18.352  17.614  11.574
40537W        W12852  29.879  36.583  13.469
40538W        W12853  29.497   2.993  12.552
40539W        W12854  32.797   6.367   2.806
40540W        W12855  11.761  11.266   3.171
40541W        W12856  31.340   6.773  13.210
40542W        W12857  20.223  30.480   1.123
40543W        W12858  38.008   4.037   4.662
40544W        W12859   3.059   6.658  11.515
40545W        W12860   1.213  30.671  14.828
40546W        W12861  38.681   0.311  14.155
40547W        W12862   2.268  11.649   3.617
40548W        W12863  30.949  40.102   1.310
40549W        W12864  20.175  30.497  13.585
40550W        W12865  16.473  34.760  13.795
40551W        W12866  16.602  39.942   4.744
40552W        W12867  38.258  17.776  11.679
40553W        W12868  39.365   7.207   2.786
40554W        W12869  19.688  33.792  12.533
40555W        W12870  25.372   6.284  12.009
40556W        W12871  21.613  38.378   2.111
40557W        W12872  33.980  23.641  14.347
40558W        W12873   0.875   4.400   0.389
40559W        W12874  26.940  41.486   0.493
40560W        W12875  36.679  19.564  10.099
40561W        W12876  37.870  12.206  12.898
40562W        W12877  17.630  14.885  12.078
40563W        W12878  17.642  14.993   2.782
40564W        W12879   6.887  10.114  10.690
40565W        W12880   7.563  43.003  11.625
40566W        W12881  44.354  26.583   2.424
40567W        W12882   9.163  14.318  13.421
40568W        W12883  15.382  16.648  13.637
40569W        W12884  39.336  21.034   2.660
40570W        W12885  28.388   5.846  10.866
40571W        W12886  42.759  32.266   1.482
40572W        W12887   5.839  34.204   4.359
40573W        W12888  39.847   0.086  14.296
40574W        W12889  18.643  34.083  11.536
40575W        W12890  14.154  42.358   2.789
40576W        W12891  13.552  36.719  14.166
40577W        W12892  25.565  30.660  10.024
40578W        W12893  13.842  36.292  10.684
40579W        W12894  42.067  39.595  14.085
40580W        W12895  16.693  10.876   2.343
40581W        W12896  26.023  21.442  13.817
40582W        W12897  21.099   8.505   3.517
40583W        W12898  43.961  12.159   3.889
40584W        W12899  32.674  42.452   0.742
40585W        W12900  28.137  20.798   4.128
40586W        W12901   3.449   1.533  13.999
40587W        W12902  38.595  30.150  12.933
40588W        W12903  39.850  36.385   3.645
40589W        W12904   2.047   6.510  13.554
40590W        W12905  44.868  40.565  12.662
40591W        W12906   0.171  35.403  11.995
40592W        W12907  24.086  43.066  13.047
40593W        W12908  24.739  41.103  12.435
40594W        W12909  18.597  17.910  14.861
40595W        W12910  33.613   8.602   1.431
40596W        W12911  22.663  41.853  14.421
40597W        W12912   3.834  37.426   5.017
40598W        W12913   5.482  41.783   1.340
40599W        W12914  27.617   0.102   3.568
40600W        W12915  42.447  34.024   3.367
40601W        W12916  14.750  29.910   0.099
40602W        W12917  32.165  31.620  14.956
40603W        W12918  31.569  18.296  12.475
40604W        W12919   0.214  39.948   2.423
40605W        W12920   1.499  24.759  11.133
40606W        W12921   9.169  17.095   4.504
40607W        W12922  19.238  39.071   2.396
40608W        W12923  44.013   7.704   2.834
40609W        W12924  39.388  25.606   5.829
40610W        W12925  21.310  16.813  12.901
40611W        W12926  10.401  13.049   0.751
40612W        W12927  27.696   5.445   2.881
40613W        W12928  26.015  33.038   2.399
40614W        W12929  34.541   8.794   0.086
40615W        W12930  19.712  21.093  12.167
40616W        W12931  12.275  23.087   4.178
40617W        W12932  29.600  23.164   3.199
40618W        W12933  25.012  34.649  14.172
40619W        W12934   1.736  39.116  10.794
40620W        W12935  17.535   2.718   0.861
40621W        W12936   7.670  19.302  13.827
40622W        W12937  43.744  20.729  10.594
40623W        W12938  36.530   4.501   1.024
40624W        W12939  27.991  12.684   2.146
40625W        W12940   3.585  33.419   3.241
40626W        W12941  26.951  32.377   2.857
40627W        W12942  22.227   7.121   3.350
40628W        W12943  40.607   9.832   3.818
40629W        W12944  18.456  15.105   2.202
40630W        W12945  36.142  26.047   2.337
40631W        W12946  13.289  42.961  14.036
40632W        W12947  30.883  43.530  10.990
40633W        W12948   6.126  14.263  12.250
40634W        W12949  25.928  33.113  11.621
40635W        W12950  18.254  33.127  12.372
40636W        W12951  21.723  44.974  13.110
40637W        W12952  39.818   9.036  12.093
40638W        W12953   7.762  22.586   3.709
40639W        W12954  15.143  30.711  12.876
40640W        W12955  15.034   6.888  13.428
40641W        W12956  30.470  20.575  13.062
40642W        W12957  12.315  17.416   2.313
40643W        W12958  16.841   1.421  13.100
40644W        W12959  35.417  12.745   3.896
40645W        W12960  27.929  35.854  11.551
40646W        W12961  10.777  17.222  10.138
40647W        W12962  22.694  32.862   4.749
40648W        W12963   9.815  27.220   2.961
40649W        W12964  30.658  24.484   2.332
40650W        W12965   1.484  29.578   4.690
40651W        W12966  15.732  22.894   0.858
40652W        W12967  13.799  13.779   2.233
40653W        W12968  41.991  32.047   0.413
40654W        W12969  26.975   3.430  11.422
40655W        W12970  10.251  29.310  12.570
40656W        W12971  41.879  28.070   2.832
40657W        W12972  11.607  27.444  12.933
40658W        W12973  39.740  18.105  10.446
40659W        W12974  25.218  31.523   4.934
40660W        W12975  11.104  38.788  14.862
40661W        W12976   2.680  16.637   1.787
40662W        W12977   1.428   1.985   4.821
40663W        W12978  16.627  30.532  11.493
40664W        W12979  23.541  19.791  12.070
40665W        W12980  23.979  17.039   4.497
40666W        W12981  35.024  12.186  11.446
40667W        W12982  43.932  16.858   2.916
40668W        W12983  27.085  38.371  14.296
40669W        W12984  37.586   0.781  12.563
40670W        W12985  28.392   4.184   2.665
40671W        W12986  26.826  14.195  11.382
40672W        W12987  41.721  18.106  11.979
40673W        W12988  27.197  36.554  13.940
40674W        W12989  12.889  38.102   4.069
40675W        W12990  22.226  44.424  12.970
40676W        W12991  43.233   0.369   4.391
40677W        W12992  31.100   6.921  13.964
40678W        W12993  29.707   1.752  10.607
40679W        W12994   1.800   5.824   1.336
40680W        W12995   2.773  19.830   2.329
40681W        W12996   7.434  20.642  13.038
40682W        W12997  37.901  24.656   2.184
40683W        W12998   4.981  42.323   4.622
40684W        W12999  27.639   5.333   4.845
40685W        W13000   8.457  26.604   0.405
40686W        W13001   6.365  24.632   0.976
40687W        W13002  36.284  18.438  13.779
40688W        W13003  28.482  32.384   4.256
40689W        W13004  34.931  27.097  14.543
40690W        W13005  17.162  17.554  10.724
40691W        W13006   1.941  42.729  14.413
40692W        W13007  24.256  31.994   3.174
40693W        W13008  34.639  26.138  11.643
40694W        W13009  38.512   3.231   4.024
40695W        W13010  17.100  36.429  10.923
40696W        W13011  21.227  32.139  13.975
40697W        W13012  28.918   7.748   3.635
40698W        W13013  22.801  16.578   4.066
40699W        W13014  44.245   3.464  13.787
40700W        W13015  27.370  35.390   3.116
40701W        W13016  20.070  20.515  13.683
40702W        W13017   8.769  18.021   3.613
40703W        W13018  14.178  35.905   2.268
40704W        W13019  23.496  17.039   1.752
40705W        W13020  12.961  18.630  13.815
40706W        W13021  15.594  14.185   0.327
40707W        W13022  26.639  23.820   5.132
40708W        W13023  37.398  25.551  10.723
40709W        W13024  14.823  30.604   2.673
40710W        W13025  18.064  18.456   4.772
40711W        W13026  41.444  38.163  10.615
40712W        W13027  16.762  27.557   2.763
40713W        W13028  19.550  33.586  13.905
40714W        W13029  10.966  29.101   1.112
40715W        W13030  23.628   6.477  12.092
40716W        W13031  26.788   5.366   1.806
40717W        W13032   2.867  42.507   1.824
40718W        W13033  33.122   5.837  12.562
40719W        W13034  31.917  42.517   3.558
40720W        W13035  17.447  10.822  10.193
40721W        W13036  36.921   1.346  14.562
40722W        W13037  28.532  17.313   4.565
40723W        W13038  13.297  16.977   2.348
40724W        W13039  20.095  34.491  12.155
40725W        W13040  14.777  42.761  11.930
40726W        W13041  18.699  38.971   2.617
40727W        W13042   2.817  21.596  10.623
40728W        W13043  20.993  33.708  13.880
40729W        W13044   1.273  24.429   0.230
40730W        W13045  40.594  17.706  11.128
40731W        W13046  20.519  22.081  13.359
40732W        W13047  24.828  37.672  14.883
40733W        W13048  10.529  35.415   3.726
40734W        W13049  32.497  36.643   2.343
40735W        W13050  39.625   8.733  14.787
40736W        W13051  35.321   6.253  11.540
40737W        W13052   4.223   0.992  12.574
40738W        W13053  20.576  37.634  14.805
40739W        W13054  40.794   2.326   2.093
40740W        W13055  40.483  11.355   4.738
40741W        W13056  21.637   8.389  12.936
40742W        W13057   0.777  41.106   0.438
40743W        W13058  41.485  10.889  10.607
40744W        W13059  40.771  24.649   2.318
40745W        W13060  14.232  22.602   1.542
40746W        W13061  30.054  21.680   3.163
40747W        W13062  35.461  27.187  12.098
40748W        W13063  39.950  30.135  11.025
40749W        W13064  30.176  15.540  13.452
40750W        W13065  40.490   9.141  14.783
40751W        W13066  42.232  29.606  11.142
40752W        W13067   6.217  40.902  14.152
40753W        W13068   7.910   7.859   2.402
40754W        W13069  25.568   7.186   2.218
40755W        W13070  14.304  15.208   0.953
40756W        W13071  33.074  19.539   3.361
40757W        W13072  42.059   9.709   1.672
40758W        W13073  22.928  36.537  10.712
40759W        W13074  43.058  26.353   4.667
40760W        W13075   1.186  32.210   3.979
40761W        W13076  31.219  13.697  11.946
40762W        W13077   1.685  21.998  12.724
40763W        W13078   9.660  36.616   3.141
40764W        W13079  20.007  41.781   3.551
40765W        W13080  35.997   8.866   3.640
40766W        W13081  20.515   4.685  12.357
40767W        W13082  29.595  12.155   3.770
40768W        W13083   8.197  39.925   3.104
40769W        W13084  40.280  35.869  13.858
40770W        W13085  25.234  44.266  13.915
40771W        W13086  44.809  15.851  11.481
40772W        W13087  42.692  41.783  11.721
40773W        W13088  13.737  19.108  12.421
40774W        W13089  27.229  28.659  11.544
40775W        W13090  32.481  42.983   4.174
40776W        W13091  15.161  23.634   1.172
40777W        W13092  29.919  25.880  14.362
40778W        W13093  10.348  19.316  13.369
40779W        W13094  41.293  29.482  11.188
40780W        W13095   8.759   7.937  10.742
40781W        W13096  36.046   4.749   2.413
40782W        W13097  27.613  14.716  13.829
40783W        W13098   9.312  22.430   0.927
40784W        W13099  10.954  25.660   2.066
40785W        W13100   6.358  35.665  13.440
40786W        W13101  38.530   8.201  10.571
40787W        W13102  23.713  38.562   3.733
40788W        W13103  18.148  34.648   2.864
40789W        W13104  34.707  12.342  10.593
40790W        W13105   8.387  32.457  14.222
40791W        W13106   8.657  20.502   3.320
40792W        W13107  15.721  20.185   4.546
40793W        W13108  43.854  44.003   4.545
40794W        W13109  26.663  34.992  10.985
40795W        W13110  44.565  44.072  13.719
40796W        W13111  16.245   7.694  11.715
40797W        W13112   7.345  36.095  11.225
40798W        W13113   8.819  14.789  13.765
40799W        W13114  31.932   8.408  14.431
40800W        W13115  30.637  35.316   4.143
40801W        W13116  42.277  29.728  14.032
40802W        W13117  25.176  38.510   4.058
40803W        W13118   4.609   2.198  12.099
40804W        W13119  26.960  37.115  12.064
40805W        W13120  26.284   4.021  12.411
40806W        W13121  44.812  10.354   9.811
40807W        W13122   8.152  16.717   2.465
40808W        W13123  28.026  44.081  14.823
40809W        W13124  41.854  34.668  11.746
40810W        W13125  23.515  30.108  10.663
40811W        W13126  33.448  40.787   2.301
40812W        W13127  13.332  14.782  14.532
40813W        W13128  25.994  12.847   2.230
40814W        W13129  44.112  33.390  12.660
40815W        W13130  12.513  27.084   1.536
40816W        W13131   3.000  32.035  11.591
40817W        W13132  44.367  20.125  13.374
40818W        W13133  17.679   7.811  11.529
40819W        W13134  38.985  14.683  12.665
40820W        W13135  31.633  21.642  11.222
40821W        W13136  33.545  37.073   2.786
40822W        W13137   3.197  17.714  13.536
40823W        W13138  15.204  13.606  11.384
40824W        W13139  44.773   0.068  11.886
40825W        W13140  37.340  15.591  12.536
40826W        W13141  20.691  14.624   2.149
40827W        W13142  35.554  29.680  13.459
40828W        W13143   8.893   3.806   2.251
40829W        W13144  26.534  33.820   4.520
40830W        W13145  28.004  29.096   4.314
40831W        W13146  39.997   5.036   1.398
40832W        W13147  11.648  13.186  14.900
40833W        W13148   1.987  38.315  14.292
40834W        W13149  26.728  14.562  14.389
40835W        W13150  38.850  18.036   1.336
40836W        W13151  31.012  44.978   2.897
40837W        W13152  44.520  14.097   2.761
40838W        W13153  15.236  31.519  10.360
40839W        W13154  12.116  23.451  13.326
40840W        W13155  17.675  12.640   2.293
40841W        W13156   1.750  11.017   1.747
40842W        W13157  10.238  33.445  12.187
40843W        W13158  41.874  26.634  14.815
40844W        W13159  39.049   7.840  14.781
40845W        W13160  16.589  39.856  13.894
40846W        W13161   1.838  26.135  11.155
40847W        W13162  44.777  42.905   4.823
40848W        W13163   1.704  36.172  14.523
40849W        W13164  42.964   8.856  14.874
40850W        W13165   6.706  41.509   1.704
40851W        W13166   7.725  42.527   1.121
40852W        W13167  43.720  41.832   4.473
40853W        W13168   3.354  38.293  11.580
40854W        W13169  32.637   7.271  14.469
40855W        W13170  13.203  13.272  12.586
40856W        W13171  39.886  41.859   1.933
40857W        W13172  36.893  13.318  12.122
40858W        W13173  15.675   1.601  11.127
40859W        W13174  35.016  25.813   3.266
40860W        W13175  17.236  35.301   4.061
40861W        W13176   3.612  35.736   0.842
40862W        W13177  19.491  31.942   1.783
40863W        W13178  11.395  36.081   0.805
40864W        W13179  25.237  32.919   4.839
40865W        W13180   8.372  12.800   2.931
40866W        W13181   8.206  21.899  12.643
40867W        W13182   8.392  13.305   1.685
40868W        W13183  13.408  42.429   4.208
40869W        W13184  32.528  20.680  13.947
40870W        W13185   4.715   0.980   3.767
40871W        W13186  43.718  16.869  13.766
40872W        W13187  19.137  15.545   4.680
40873W        W13188  31.946  26.787  12.301
40874W        W13189  12.375  40.171   1.649
40875W        W13190  30.184  33.088   4.918
40876W        W13191   6.820  25.577   0.791
40877W        W13192  12.212   0.992  10.904
40878W        W13193  41.522   8.329  14.153
40879W        W13194  16.143   8.419   3.629
40880W        W13195  26.663  33.859   5.350
40881W        W13196  13.100  11.198   0.313
40882W        W13197  13.846  38.467   2.816
40883W        W13198  24.174  15.325  10.466
40884W        W13199  33.976  12.774   4.507
40885W        W13200  17.129  18.100   4.102
40886W        W13201   9.427  31.035   0.233
40887W        W13202   2.684  21.044   0.757
40888W        W13203  17.622  16.257  10.619
40889W        W13204  20.368   7.375  12.391
40890W        W13205  39.048  31.175   3.755
40891W        W13206   9.167  17.202   2.739
40892W        W13207  11.392  18.605  10.219
40893W        W13208  28.506  44.072   2.864
40894W        W13209  42.022   2.474  11.789
40895W        W13210  17.633  27.263   2.201
40896W        W13211  36.854  43.613  14.455
40897W        W13212  40.566  25.555   1.919
40898W        W13213  44.278  26.315  12.793
40899W        W13214  21.489   3.505   0.963
40900W        W13215   9.112  34.053  14.860
40901W        W13216  22.676  26.124   2.272
40902W        W13217  16.588  26.504   0.888
40903W        W13218  13.425  17.656   1.779
40904W        W13219  28.752  34.006  10.528
40905W        W13220  38.279   3.724   3.951
40906W        W13221  40.996  41.519  11.552
40907W        W13222  18.224  14.253  10.595
40908W        W13223  23.568  22.790  12.341
40909W        W13224  41.702  19.700  11.528
40910W        W13225  22.242   0.946   3.761
40911W        W13226  20.148  41.965  10.776
40912W        W13227  16.305  26.131   2.684
40913W        W13228   1.217  42.820  13.325
40914W        W13229   5.798  26.943   0.695
40915W        W13230  11.651  14.808   4.464
40916W        W13231  30.952  12.461  14.053
40917W        W13232  31.032  32.451  10.720
40918W        W13233  42.866   9.490  12.848
40919W        W13234  43.404  33.908   4.589
40920W        W13235  43.537   4.477   0.829
40921W        W13236  19.717  40.387  13.561
40922W        W13237  42.467  10.721  13.998
40923W        W13238  12.167  25.543   0.335
40924W        W13239  18.760  26.654   2.213
40925W        W13240  26.974   6.288   9.780
40926W        W13241  42.039  12.718   2.134
40927W        W13242   8.743  29.956   4.259
40928W        W13243  17.838  33.827  14.350
40929W        W13244  14.275  13.325  11.068
40930W        W13245  14.372  29.593   4.872
40931W        W13246  43.376  22.418   0.002
40932W        W13247  37.304  38.375   2.315
40933W        W13248  23.902  13.606   2.309
40934W        W13249  27.842  13.917  12.902
40935W        W13250   5.808  22.590  13.504
40936W        W13251  43.424  41.588  13.485
40937W        W13252  33.013  13.900   3.876
40938W        W13253   5.265  39.621   3.703
40939W        W13254  33.585  22.951  12.091
40940W        W13255  19.108  13.375   2.827
40941W        W13256  28.516  29.160  11.504
40942W        W13257  21.118  34.315   2.709
40943W        W13258  22.622   9.916   1.865
40944W        W13259  39.364  13.097  11.588
40945W        W13260   7.479  11.592   0.739
40946W        W13261  36.572  21.688   4.158
40947W        W13262  35.101  13.795   1.159
40948W        W13263   8.869  15.112   0.976
40949W        W13264   0.544  37.466   4.234
40950W        W13265  19.331  27.109   3.736
40951W        W13266  30.698   1.747  11.586
40952W        W13267  13.738  34.044  10.408
40953W        W13268  17.670   0.441   0.326
40954W        W13269  17.521  15.603   4.705
40955W        W13270   9.267  29.827   0.888
40956W        W13271  23.471  42.922   3.791
40957W        W13272  23.639  30.299   1.676
40958W        W13273  43.081  20.778  12.342
40959W        W13274  16.621   8.867   4.595
40960W        W13275  39.051   1.841  13.197
40961W        W13276  13.193  12.852   3.174
40962W        W13277   5.681  17.360   3.800
40963W        W13278  44.453  12.877  13.436
40964W        W13279  44.537  19.349   1.945
40965W        W13280  14.871  20.749  14.753
40966W        W13281   9.481  11.363   2.371
40967W        W13282  15.295  17.108   1.224
40968W        W13283  35.573  14.554  14.319
40969W        W13284  27.259  31.987  13.831
40970W        W13285  37.258  31.905  14.460
40971W        W13286  30.557  16.294   4.528
40972W        W13287   3.876  10.883  14.179
40973W        W13288  38.150  14.307   0.986
40974W        W13289  43.464  26.951  13.059
40975W        W13290  26.539  16.052   1.987
40976W        W13291  42.347  24.681  13.909
40977W        W13292  34.487  16.656   3.538
40978W        W13293  25.172  26.721  12.471
40979W        W13294  39.023   4.873  11.933
40980W        W13295   5.332  12.712  13.331
40981W        W13296  20.588   3.028  13.365
40982W        W13297  27.071   3.950  11.009
40983W        W13298  41.442  36.911  14.247
40984W        W13299   0.586   0.343   2.101
40985W        W13300  17.750  23.346  12.048
40986W        W13301  16.596  21.222  11.871
40987W        W13302  36.664  41.358  10.739
40988W        W13303  13.391  17.544   3.638
40989W        W13304  36.012  27.916   3.360
40990W        W13305  42.795  26.744  13.053
40991W        W13306  34.158  40.323   2.577
40992W        W13307  25.511  22.679   1.088
40993W        W13308  40.136  40.034  13.502
40994W        W13309  36.117  19.486  12.052
40995W        W13310  15.787  22.578   1.874
40996W        W13311  37.978   1.504   2.347
40997W        W13312  26.458  30.029  11.585
40998W        W13313  32.790  17.312  14.420
40999W        W13314  15.740   1.417   2.227
41000W        W13315  34.856  41.541   5.147
41001W        W13316   9.851  42.817  11.161
41002W        W13317  29.950   7.222   4.688
41003W        W13318  37.440  32.998  12.917
41004W        W13319  23.600  10.259  11.517
41005W        W13320  12.383  15.596  11.681
41006W        W13321  20.148  41.143  12.937
41007W        W13322  34.187  19.583  13.940
41008W        W13323  17.418   9.918  11.445
41009W        W13324  33.147  39.928   4.174
41010W        W13325  34.886   8.735  10.603
41011W        W13326  11.974  36.296   3.251
41012W        W13327  19.978  14.828   0.485
41013W        W13328   3.837  37.061   0.454
41014W        W13329  40.077  35.758  12.846
41015W        W13330  11.652  41.870  14.382
41016W        W13331  36.856  15.875  14.399
41017W        W13332   8.656   4.229   2.402
41018W        W13333   3.026   9.906   4.483
41019W        W13334   8.463  20.705  11.464
41020W        W13335  15.341  28.650   4.546
41021W        W13336  23.333  14.381  12.803
41022W        W13337   3.626  42.570   1.257
41023W        W13338  21.940  26.447   1.074
41024W        W13339  34.554  33.767  10.618
41025W        W13340  42.883  10.855  11.431
41026W        W13341  26.527  39.492   1.709
41027W        W13342  30.316  28.669  14.134
41028W        W13343   5.000  22.897  12.927
41029W        W13344  15.600  42.174  11.134
41030W        W13345  29.029  13.909  11.180
41031W        W13346  19.568  40.302  12.082
41032W        W13347   1.472   7.684   3.628
41033W        W13348   1.882  19.620  11.206
41034W        W13349  33.727  43.446   4.670
41035W        W13350   3.790   2.987   4.199
41036W        W13351  42.273  34.446   3.610
41037W        W13352  14.197  13.774   2.962
41038W        W13353  42.947  19.869   0.046
41039W        W13354  24.628  35.857  12.083
41040W        W13355   7.973   8.200  11.053
41041W        W13356  15.391  25.008  10.610
41042W        W13357  27.224  39.541   2.434
41043W        W13358  44.604  39.271   2.887
41044W        W13359  31.989  19.763  13.275
41045W        W13360  16.199  24.946   0.121
41046W        W13361  30.650  18.063   3.849
41047W        W13362  18.212  44.885   0.922
41048W        W13363   1.249  44.456   2.739
41049W        W13364  28.850  23.589  14.784
41050W        W13365   6.275  43.317   3.104
41051W        W13366   0.782  21.730  10.679
41052W        W13367  14.562   1.336  10.611
41053W        W13368   4.817  44.072  11.917
41054W        W13369  36.318   6.386  13.695
41055W        W13370  26.169  36.082   3.263
41056W        W13371  37.330   6.462   4.122
41057W        W13372  41.958  44.005   4.844
41058W        W13373   2.515   3.277  12.788
41059W        W13374  41.450  28.638   0.807
41060W        W13375   3.291  15.560  10.718
41061W        W13376  11.768  34.457   4.140
41062W        W13377  24.119  31.819   0.313
41063W        W13378   0.350   6.783   1.028
41064W        W13379   7.632  23.604   0.398
41065W        W13380  19.803  40.027   0.448
41066W        W13381  38.925  28.547   0.725
41067W        W13382  15.795  19.561   0.832
41068W        W13383  44.294  15.680  12.145
41069W        W13384  22.684  12.415   2.761
41070W        W13385  41.121   0.520   0.385
41071W        W13386   0.245  27.887  12.928
41072W        W13387  11.788  18.546  12.964
41073W        W13388  27.946  18.173  12.572
41074W        W13389  29.916  19.920   4.168
41075W        W13390  25.185  38.235   3.606
41076W        W13391  20.927  14.328  11.192
41077W        W13392   0.274  37.802   1.335
41078W        W13393  21.254  33.583   5.102
41079W        W13394  37.620   5.737  14.504
41080W        W13395  12.941  10.909   4.577
41081W        W13396  10.472   5.345  13.679
41082W        W13397  40.831  10.150  12.126
41083W        W13398   1.794  34.462  10.551
41084W        W13399  27.900  40.423  13.932
41085W        W13400  14.339   9.782   1.418
41086W        W13401  15.095  34.342  10.918
41087W        W13402   2.017  39.547  14.793
41088W        W13403  39.322  40.528   2.839
41089W        W13404  11.862  38.782   3.264
41090W        W13405   3.983  30.052   3.301
41091W        W13406   4.916   5.253   3.189
41092W        W13407  35.914  28.912  12.924
41093W        W13408  29.587   5.635   3.160
41094W        W13409  37.490  34.723  14.370
41095W        W13410  32.161  41.918   0.427
41096W        W13411  24.102  25.466  13.477
41097W        W13412  13.969  14.246  13.201
41098W        W13413  24.717  33.327  12.119
41099W        W13414  34.814  17.834  11.290
41100W        W13415  20.645  10.607   4.723
41101W        W13416  36.812  32.511   2.823
41102W        W13417  16.830  29.694  11.978
41103W        W13418   4.618  21.775   1.975
41104W        W13419  30.874  17.271   3.614
41105W        W13420  42.834  42.866  12.263
41106W        W13421  41.813   2.758  11.409
41107W        W13422  22.522  39.973   0.912
41108W        W13423  43.221  10.673   4.429
41109W        W13424  15.797   6.969   0.493
41110W        W13425   7.863  25.304  10.625
41111W        W13426  12.725  28.125  14.410
41112W        W13427  24.747  42.224  14.562
41113W        W13428   6.421  22.322   2.411
41114W        W13429  39.050  20.103   3.948
41115W        W13430  23.781   6.351  12.998
41116W        W13431  31.192  19.454  10.208
41117W        W13432   4.597  11.227  12.013
41118W        W13433   2.742  43.957  14.911
41119W        W13434  31.979  15.393   1.422
41120W        W13435  24.750  14.780   3.908
41121W        W13436  15.708  38.929   1.795
41122W        W13437  35.593   9.447  14.951
41123W        W13438  18.738  24.447   0.826
41124W        W13439  39.029  43.279  14.903
41125W        W13440   7.431  24.783  11.238
41126W        W13441  41.476  44.762   3.761
41127W        W13442   7.444  13.799   3.145
41128W        W13443  39.910  42.743   1.871
41129W        W13444   5.336  19.260   1.558
41130W        W13445  26.675   3.285  12.585
41131W        W13446  17.257   7.570  14.831
41132W        W13447  34.900  36.632  11.543
41133W        W13448  39.375  41.597   2.263
41134W        W13449  36.362   7.274  13.611
41135W        W13450  10.367  39.851   3.402
41136W        W13451   0.636  11.755  11.874
41137W        W13452  42.558  30.351   4.643
41138W        W13453   2.057  27.141  13.056
41139W        W13454  39.948  31.562   1.507
41140W        W13455   9.135  21.877   4.496
41141W        W13456   6.792  34.375  13.520
41142W        W13457  24.035  28.897   2.255
41143W        W13458  13.830   0.999   2.694
41144W        W13459  12.830  24.608  13.302
41145W        W13460   5.222  26.928  13.326
41146W        W13461  23.911   3.207  13.916
41147W        W13462  38.968  41.519   1.638
41148W        W13463   8.495  41.028  11.918
41149W        W13464  16.287  22.189   4.801
41150W        W13465  36.867  20.443  10.910
41151W        W13466  10.338  16.223  14.273
41152W        W13467  11.664   9.860  10.368
41153W        W13468  21.968  37.899   4.592
41154W        W13469  25.153  15.142   2.350
41155W        W13470  12.711   8.105  12.176
41156W        W13471  43.827  35.994   2.485
41157W        W13472  12.812  11.578  11.843
41158W        W13473   1.767   5.654  11.658
41159W        W13474  12.038  40.870  10.561
41160W        W13475  17.542  40.901  10.700
41161W        W13476  27.271  29.744   3.505
41162W        W13477  29.532  35.679   3.823
41163W        W13478  41.404  43.284   4.331
41164W        W13479   0.036   9.572  14.626
41165W        W13480   6.801  11.838   2.379
41166W        W13481  12.781  41.517  12.672
41167W        W13482  27.803  24.794   2.685
41168W        W13483  10.847  27.436  12.394
41169W        W13484  39.801  39.593   3.052
41170W        W13485  20.761  25.685  13.282
41171W        W13486  43.350  24.228  14.300
41172W        W13487  32.600   0.304  14.284
41173W        W13488  19.362   8.602   9.825
41174W        W13489   4.740  43.273   1.294
41175W        W13490  20.986   3.840  11.932
41176W        W13491  42.769   2.151  14.521
41177W        W13492   5.258  31.500   1.969
41178W        W13493  35.416  42.808  14.454
41179W        W13494   6.131   5.689   3.479
41180W        W13495  27.263  17.587  14.892
41181W        W13496  18.314   7.165  13.883
41182W        W13497  34.624  29.737  11.902
41183W        W13498  13.867   4.984  12.460
41184W        W13499   2.968  34.631  11.570
41185W        W13500  26.726  26.468  14.413
41186W        W13501  21.823  34.968  12.113
41187W        W13502  12.336   7.904  13.432
41188W        W13503  37.964   4.009  11.505
41189W        W13504  30.711  17.612  12.997
41190W        W13505  16.776  21.284  14.663
41191W        W13506  14.868  36.412   2.624
41192W        W13507  38.357  35.969  12.980
41193W        W13508  14.189  25.190   0.990
41194W        W13509  37.441   4.171   0.285
41195W        W13510  17.106  39.445  11.871
41196W        W13511  13.779  35.955  12.842
41197W        W13512  35.542  15.191  10.687
41198W        W13513  21.876  36.400   0.471
41199W        W13514  29.538  35.161  11.261
41200W        W13515  16.900  33.753  11.582
41201W        W13516  10.946   5.890   1.711
41202W        W13517  33.841  41.874  11.213
41203W        W13518  29.024  38.561   4.303
41204W        W13519   8.678  11.396   0.400
41205W        W13520  17.155  21.232   4.207
41206W        W13521  29.152   2.822   4.394
41207W        W13522  13.274  41.933  11.945
41208W        W13523  44.392  11.233   3.570
41209W        W13524  44.394   6.248  13.966
41210W        W13525   4.304  14.110  10.711
41211W        W13526   3.917  17.000   2.214
41212W        W13527  31.695  15.612   4.624
41213W        W13528  23.445  10.640   0.772
41214W        W13529  41.584   9.778   4.713
41215W        W13530  16.822  16.621   1.735
41216W        W13531   0.503  23.726   0.423
41217W        W13532  18.547   8.848   1.901
41218W        W13533  11.249   2.341   0.895
41219W        W13534  37.277  29.349   5.036
41220W        W13535  19.036  43.507  12.065
41221W        W13536   3.800  17.047   1.246
41222W        W13537   0.919  33.029   3.734
41223W        W13538  35.773  40.902  10.619
41224W        W13539  13.381  19.019   3.763
41225W        W13540  28.635   6.348  12.563
41226W        W13541  13.712  20.491  13.791
41227W        W13542  21.048   8.152  12.082
41228W        W13543  43.669   0.440   4.673
41229W        W13544  13.897  38.333  13.845
41230W        W13545  41.322  40.747  12.407
41231W        W13546   7.225  27.538  11.599
41232W        W13547  38.128  16.351  13.367
41233W        W13548  20.829   2.321   5.050
41234W        W13549   2.447   3.190  11.529
41235W        W13550  28.717  34.807   4.032
41236W        W13551  16.125  38.809   3.179
41237W        W13552  17.226   4.797  12.831
41238W        W13553  42.734  34.750  14.811
41239W        W13554  11.360  14.072   2.362
41240W        W13555  17.802  29.486  12.223
41241W        W13556  18.745  12.092   3.078
41242W        W13557  42.565  33.552  11.517
41243W        W13558   5.688  26.568  12.952
41244W        W13559   5.228   9.036  14.379
41245W        W13560   2.655   1.555  11.967
41246W        W13561  44.650   3.385   2.702
41247W        W13562  37.349  15.150   4.627
41248W        W13563  33.015  42.364  13.801
41249W        W13564   7.291  40.496  12.945
41250W        W13565   4.962  34.504  14.360
41251W        W13566  44.349  16.173   3.216
41252W        W13567   8.785   4.505  14.138
41253W        W13568  17.201  27.049  14.237
41254W        W13569  26.491  16.881  10.644
41255W        W13570  39.080  36.433   0.322
41256W        W13571  35.092  12.338   4.622
41257W        W13572  28.461  37.590   3.399
41258W        W13573   5.979   3.226  13.736
41259W        W13574   4.198  25.004  12.727
41260W        W13575   5.308  37.528  12.429
41261W        W13576   0.829   3.200   0.826
41262W        W13577   1.738  28.802   3.199
41263W        W13578  11.105  17.068  14.960
41264W        W13579  23.638  12.300   0.598
41265W        W13580  15.567  15.382   1.461
41266W        W13581  14.198  26.389   4.090
41267W        W13582  39.328   5.734  14.072
41268W        W13583  23.354  29.986   4.799
41269W        W13584  26.420   1.526  14.935
41270W        W13585  31.205  10.887   2.722
41271W        W13586  16.213  38.258  14.289
41272W        W13587  28.509  22.418   0.534
41273W        W13588  43.889   5.407   4.967
41274W        W13589  16.123  40.430  11.070
41275W        W13590  30.588  38.835   1.756
41276W        W13591  11.640   8.116   1.794
41277W        W13592  16.292   6.939  13.946
41278W        W13593  42.656  41.919  10.626
41279W        W13594  16.556  24.645  11.003
41280W        W13595   9.456  36.455   4.320
41281W        W13596   5.712  16.061  14.934
41282W        W13597   0.287  33.472  13.580
41283W        W13598  17.655  28.989   3.235
41284W        W13599  22.555   6.228   0.012
41285W        W13600  44.223  24.966   2.676
41286W        W13601   9.568   3.800  14.101
41287W        W13602   8.437  29.985   1.699
41288W        W13603   9.883  19.758  12.884
41289W        W13604  37.024  20.667  12.333
41290W        W13605  25.762  15.624   4.986
41291W        W13606  31.393   5.167   2.326
41292W        W13607  30.486  44.719   3.688
41293W        W13608   1.960  24.584   0.123
41294W        W13609   2.748  15.385   4.147
41295W        W13610  33.528  20.276  13.321
41296W        W13611  41.677   1.949   3.620
41297W        W13612  25.187  21.554  12.369
41298W        W13613  14.223  25.699   1.613
41299W        W13614  20.907  34.569   0.355
41300W        W13615  31.869   7.911  10.442
41301W        W13616  41.544  13.203  12.015
41302W        W13617  25.791  21.183  14.218
41303W        W13618  22.289  42.537  13.449
41304W        W13619   2.745  43.785   1.988
41305W        W13620  22.927  36.354  13.013
41306W        W13621  15.906  42.304  14.649
41307W        W13622   6.003  35.653  12.914
41308W        W13623  20.532  24.717   2.815
41309W        W13624  11.304  32.545  13.344
41310W        W13625  18.004  15.085  10.481
41311W        W13626  32.966  40.793  13.864
41312W        W13627  23.995  13.109   3.131
41313W        W13628  31.928   9.302   2.192
41314W        W13629  44.063  22.965   1.668
41315W        W13630  32.701  27.985   4.132
41316W        W13631   7.939  43.823  14.409
41317W        W13632  25.093  35.550   4.731
41318W        W13633   2.450  37.082   1.263
41319W        W13634  38.205  32.634   0.966
41320W        W13635  29.714  10.141   0.385
41321W        W13636  44.537  21.917  12.948
41322W        W13637  34.054  40.167   0.916
41323W        W13638   6.206  38.437   3.494
41324W        W13639  44.544   6.740   0.310
41325W        W13640  12.062  15.633   5.188
41326W        W13641  16.570  12.332   3.562
41327W        W13642  41.047  34.954   2.690
41328W        W13643   7.466  22.073   4.137
41329W        W13644  19.782   9.015  14.836
41330W        W13645  27.822   6.252   2.978
41331W        W13646  25.945  40.189  11.014
41332W        W13647  26.914   9.142  10.682
41333W        W13648  38.987  30.551   4.682
41334W        W13649   3.156  29.958  14.199
41335W        W13650  13.190   8.819  11.107
41336W        W13651  41.855  18.683   1.692
41337W        W13652  14.686  39.646  11.538
41338W        W13653   6.473  41.907   4.481
41339W        W13654  21.510   5.378  14.771
41340W        W13655  24.462  24.554   4.531
41341W        W13656  28.076  11.168   4.465
41342W        W13657   6.692  10.633  14.887
41343W        W13658  25.636   2.916   1.712
41344W        W13659  23.266  11.700  10.700
41345W        W13660  22.699  14.904  10.641
41346W        W13661  29.090   9.357   2.261
41347W        W13662  36.371  25.110   0.650
41348W        W13663  29.083  15.612   1.373
41349W        W13664   8.256  42.744   0.067
41350W        W13665  34.061  18.736   0.434
41351W        W13666  16.106  26.128  13.458
41352W        W13667   9.961   3.989  12.910
41353W        W13668   2.697  44.243   0.734
41354W        W13669  43.028   3.327   4.124
41355W        W13670  10.589  10.043  12.586
41356W        W13671   6.889  28.235  14.546
41357W        W13672  13.758  28.048   2.399
41358W        W13673  32.906   4.451  12.856
41359W        W13674  36.754  23.536   2.336
41360W        W13675   3.398  20.780   4.764
41361W        W13676   4.141   1.796   4.132
41362W        W13677   7.839  31.060   1.146
41363W        W13678  13.525  17.782  11.098
41364W        W13679   5.600   8.570   0.267
41365W        W13680  25.265  14.641  11.293
41366W        W13681  32.900  30.371   1.374
41367W        W13682  17.674   3.047   2.238
41368W        W13683  38.410  43.453  11.035
41369W        W13684  18.111  14.527  11.344
41370W        W13685   7.324   0.462   3.313
41371W        W13686  40.047   6.162  11.200
41372W        W13687  43.890   7.366  12.466
41373W        W13688  42.940  31.866   0.282
41374W        W13689  11.269   2.885   3.577
41375W        W13690  38.258  34.072   0.276
41376W        W13691  35.051  23.635  11.162
41377W        W13692   4.999  39.122   0.412
41378W        W13693  33.956  41.645  12.207
41379W        W13694  13.868  32.558  13.024
41380W        W13695   8.930   8.038   1.872
41381W        W13696   7.914  34.487   4.511
41382W        W13697  44.063   7.258   1.482
41383W        W13698  25.893  33.067  12.570
41384W        W13699  40.059   0.963  11.167
41385W        W13700  19.714  34.578  13.935
41386W        W13701  15.379  25.058   3.876
41387W        W13702  22.702  14.743  12.958
41388W        W13703  30.080  11.704  11.225
41389W        W13704  26.178  29.495  10.568
41390W        W13705  15.811  17.161  12.551
41391W        W13706   6.800   8.731  13.232
41392W        W13707   9.843   5.914   4.686
41393W        W13708  14.369  10.295  14.181
41394W        W13709  33.987  24.520  13.634
41395W        W13710   3.736   2.920  11.504
41396W        W13711   0.766  10.356   2.228
41397W        W13712  44.209   9.922   1.340
41398W        W13713  21.610  36.267   4.174
41399W        W13714  32.593  30.598   4.311
41400W        W13715  21.246  39.413   3.413
41401W        W13716  19.076  34.403  12.877
41402W        W13717  35.427  24.282   1.175
41403W        W13718   7.970  36.096   2.747
41404W        W13719   1.452  30.789  14.400
41405W        W13720  20.652  30.631  13.818
41406W        W13721  27.738  12.829   1.307
41407W        W13722  26.550  29.006  12.462
41408W        W13723   0.967  28.686  12.041
41409W        W13724   7.678   5.871  14.818
41410W        W13725   8.051  42.310  14.243
41411W        W13726  25.668  33.426   3.635
41412W        W13727   4.321   4.827  11.605
41413W        W13728  12.974  12.383   1.456
41414W        W13729  30.399  15.582   3.767
41415W        W13730  17.871  34.292   1.885
41416W        W13731  26.478   6.261   0.801
41417W        W13732   8.903  44.456   1.645
41418W        W13733  18.731  40.829   4.042
41419W        W13734  31.105  32.958  10.490
41420W        W13735  17.621  33.349   0.042
41421W        W13736  14.275  12.768   1.862
41422W        W13737  19.246  22.716  10.732
41423W        W13738  41.405  11.640  11.482
41424W        W13739  44.962   8.189  12.609
41425W        W13740  42.538  29.502  12.983
41426W        W13741  33.479  16.009  13.303
41427W        W13742  33.514  19.309  12.106
41428W        W13743   2.799  44.717  11.633
41429W        W13744  20.193  44.631  13.875
41430W        W13745   8.749  37.031   3.317
41431W        W13746  28.683  21.135   2.682
41432W        W13747   3.170  36.441  11.718
41433W        W13748  39.674  31.528  12.861
41434W        W13749   3.928  40.995  11.578
41435W        W13750  12.706  13.333  13.435
41436W        W13751  22.802  42.991  12.260
41437W        W13752  28.418  43.240  14.986
41438W        W13753  10.399  10.790  13.476
41439W        W13754  13.368  39.611   1.004
41440W        W13755   2.837  23.249   2.901
41441W        W13756  25.996  17.342  14.402
41442W        W13757  36.095  43.805  10.689
41443W        W13758  38.957  27.734  13.296
41444W        W13759  28.499  38.928   0.013
41445W        W13760  11.933  12.713   1.162
41446W        W13761  15.740  40.918  14.270
41447W        W13762  18.196  27.923   3.731
41448W        W13763   8.836   6.646   2.166
41449W        W13764   8.134   2.481   3.191
41450W        W13765  17.313  33.770   2.746
41451W        W13766  26.732   3.712  13.852
41452W        W13767  44.875  17.516   2.229
41453W        W13768   1.081  44.556  14.332
41454W        W13769  16.833  13.117   1.776
41455W        W13770  31.312  11.613   3.536
41456W        W13771  22.546  22.771  14.755
41457W        W13772   9.239  16.100   5.020
41458W        W13773  19.303  32.201   3.159
41459W        W13774  20.131   9.898   4.667
41460W        W13775  41.795  10.687  10.963
41461W        W13776   5.884  33.915  14.487
41462W        W13777  31.073   3.301  14.051
41463W        W13778  19.562  20.163  13.393
41464W        W13779   4.932  21.608   0.925
41465W        W13780  10.576  15.066   0.509
41466W        W13781  36.824   2.163  10.751
41467W        W13782  19.272  43.894   4.518
41468W        W13783  27.602   3.857  13.528
41469W        W13784  36.976   8.257  13.372
41470W        W13785  43.961  29.746  12.886
41471W        W13786  33.093   6.669  10.427
41472W        W13787  44.319  24.455   1.195
41473W        W13788  14.747  38.561   0.870
41474W        W13789  29.063  43.564  14.940
41475W        W13790  16.720  39.788  12.400
41476W        W13791  19.798   6.873  11.927
41477W        W13792   2.675  36.799   0.887
41478W        W13793   6.659   5.946   4.334
41479W        W13794   6.510  20.658  13.534
41480W        W13795  24.489  43.897   4.640
41481W        W13796  28.614  10.746  13.054
41482W        W13797  18.917  14.274  11.830
41483W        W13798  24.265  36.539  12.585
41484W        W13799  35.110  23.014   3.241
41485W        W13800  35.707  42.994  13.488
41486W        W13801   0.495   4.195  12.851
41487W        W13802  39.586  26.233  14.333
41488W        W13803  44.841   0.035  12.386
41489W        W13804  39.560  11.171   2.184
41490W        W13805  13.304  22.176  14.825
41491W        W13806  17.298  27.815  10.146
41492W        W13807   0.211  12.767  14.932
41493W        W13808  43.598  12.290  10.209
41494W        W13809  25.956  22.591   0.290
41495W        W13810  12.791   7.399   0.430
41496W        W13811   4.860  14.789  12.638
41497W        W13812  10.904  19.238   3.858
41498W        W13813  36.634  26.902   1.294
41499W        W13814  39.540   5.815   3.368
41500W        W13815  34.880  18.332   3.327
41501W        W13816  31.634   2.957  13.728
41502W        W13817  27.681  15.400   2.257
41503W        W13818   8.607  18.647  14.831
41504W        W13819  43.217   8.750   4.630
41505W        W13820  28.507  44.931  11.866
41506W        W13821  44.538  29.867   2.351
41507W        W13822   9.790  23.337   0.893
41508W        W13823  17.284  16.694   1.977
41509W        W13824  30.585  29.869  14.362
41510W        W13825   4.817  19.886  11.978
41511W        W13826   2.692  14.820  13.889
41512W        W13827  37.035  21.020   4.604
41513W        W13828   6.680   7.891  11.085
41514W        W13829  40.965  10.264   2.664
41515W        W13830  39.895  24.701   4.064
41516W        W13831  18.320  42.440   2.307
41517W        W13832  23.035  19.541   1.423
41518W        W13833  39.567  44.478   2.175
41519W        W13834   7.000   6.313   4.688
41520W        W13835  37.752  10.863   1.536
41521W        W13836   4.842  26.385  12.220
41522W        W13837  19.814  32.003   2.182
41523W        W13838  25.453  29.459  14.791
41524W        W13839  21.325  18.667   3.725
41525W        W13840   6.883  11.825   1.217
41526W        W13841  16.697  27.043  11.323
41527W        W13842  31.907   6.234   4.218
41528W        W13843  16.360  23.082   1.472
41529W        W13844  42.342   9.626  14.024
41530W        W13845  22.800   8.867   3.338
41531W        W13846  32.341  42.032  14.014
41532W        W13847  38.621  21.482   3.384
41533W        W13848  41.613  39.897  13.989
41534W        W13849  11.219  31.632  12.940
41535W        W13850   7.700  17.218  13.837
41536W        W13851  12.103  33.490  14.083
41537W        W13852   5.820  21.687   2.117
41538W        W13853  20.638   7.500  13.347
41539W        W13854  36.629  23.075   0.793
41540W        W13855  39.297   8.825   2.923
41541W        W13856  36.172  38.087   3.759
41542W        W13857   0.847  31.005   2.387
41543W        W13858  38.950  11.722  11.827
41544W        W13859  42.765  17.885  13.810
41545W        W13860  32.182  37.466  13.496
41546W        W13861   3.540  36.021   4.769
41547W        W13862   2.686  18.239  13.566
41548W        W13863  19.513  29.421   2.200
41549W        W13864  35.078  20.509  10.579
41550W        W13865  21.776   0.704  13.646
41551W        W13866  30.351  31.383  10.737
41552W        W13867  15.919   5.380   1.658
41553W        W13868  17.895  31.293  13.884
41554W        W13869  19.561  41.301   4.478
41555W        W13870  38.021   4.983   1.895
41556W        W13871  25.084  24.437   3.803
41557W        W13872   7.350  11.331  12.469
41558W        W13873   9.156   3.981  10.638
41559W        W13874   5.226  39.928  13.604
41560W        W13875  37.908  13.927   4.438
41561W        W13876  26.389  11.266  14.917
41562W        W13877  31.564  37.344   4.198
41563W        W13878   2.532  38.091   3.140
41564W        W13879  30.441  23.905  13.963
41565W        W13880   3.814  17.373  12.560
41566W        W13881  35.612   9.150  14.482
41567W        W13882   5.298  15.086   0.294
41568W        W13883   9.725  33.068   3.621
41569W        W13884  32.406  35.440  10.677
41570W        W13885   3.273  13.599   3.652
41571W        W13886  27.255  23.270   1.745
41572W        W13887  28.015  30.126  11.135
41573W        W13888  40.935  38.587  13.938
41574W        W13889   5.853  38.696   4.303
41575W        W13890   2.162   4.548  13.500
41576W        W13891  24.579  32.573   1.004
41577W        W13892  40.941   3.364  10.775
41578W        W13893  12.792  21.129   4.491
41579W        W13894  29.017  20.150   3.322
41580W        W13895  15.295  14.215   3.677
41581W        W13896  34.436   3.419  13.753
41582W        W13897  42.394  33.147  10.689
41583W        W13898  10.217  25.932   4.227
41584W        W13899  14.214  11.095  14.666
41585W        W13900  28.056   2.408  12.529
41586W        W13901  29.163  33.494   3.722
41587W        W13902  23.922  21.323   2.832
41588W        W13903  11.703  43.743  14.381
41589W        W13904  28.055  39.923  12.775
41590W        W13905  13.722  10.367  14.910
41591W        W13906   3.700  18.761  13.273
41592W        W13907  30.898   1.228   0.542
41593W        W13908  29.550  20.701   2.102
41594W        W13909  34.389  13.775  12.003
41595W        W13910  20.554  38.943  14.475
41596W        W13911   6.727  24.044   3.056
41597W        W13912  39.042  14.324  14.361
41598W        W13913  31.568  22.244  14.868
41599W        W13914  34.758  30.819  11.539
41600W        W13915   4.899   8.461  13.565
41601W        W13916  35.029  20.493   2.692
41602W        W13917  22.479  33.612  11.624
41603W        W13918  16.090   0.664  11.193
41604W        W13919  30.084   2.788  10.668
41605W        W13920  27.703  17.483   3.888
41606W        W13921  13.696  39.719  13.344
41607W        W13922  36.757  21.687   3.190
41608W        W13923   9.979  43.496  12.466
41609W        W13924   3.452   1.454  10.719
41610W        W13925  35.331   5.794  14.985
41611W        W13926  24.574  10.407   3.770
41612W        W13927   9.944  31.095   0.195
41613W        W13928  42.295  26.074   0.947
41614W        W13929  19.118  28.339   2.788
41615W        W13930   7.245  12.132  14.409
41616W        W13931  20.251  36.169   2.286
41617W        W13932  31.826  28.207   0.396
41618W        W13933  29.022  39.081  12.417
41619W        W13934   6.256  13.141  13.021
41620W        W13935  39.451  22.138   0.490
41621W        W13936  11.598  21.529  14.894
41622W        W13937   0.249  40.417  10.618
41623W        W13938  28.194  42.383  11.511
41624W        W13939  38.312  13.152   4.826
41625W        W13940  28.584  41.752   1.866
41626W        W13941  19.044  36.405  14.131
41627W        W13942  43.479  18.238   0.779
41628W        W13943  22.731  15.075   4.534
41629W        W13944  43.532  40.339  12.949
41630W        W13945  33.057  14.698   4.860
41631W        W13946   8.218   1.413   2.410
41632W        W13947  29.207   3.155  14.791
41633W        W13948   4.213   9.663  12.006
41634W        W13949   2.400   0.897  12.840
41635W        W13950   9.437  10.382   1.947
41636W        W13951  25.026  30.843   3.253
41637W        W13952  34.430   8.216  12.144
41638W        W13953   1.776   6.254  12.779
41639W        W13954  10.822   1.777  12.140
41640W        W13955  44.674  19.038  10.510
41641W        W13956  14.484   6.220   9.843
41642W        W13957  22.263  12.077   3.313
41643W        W13958  33.229  40.834   1.730
41644W        W13959  42.305  41.267  10.889
41645W        W13960  30.360  37.550  11.494
41646W        W13961  18.703  44.578  13.466
41647W        W13962   8.268  22.783   0.908
41648W        W13963   4.638   2.914  11.645
41649W        W13964  19.793  24.918  11.954
41650W        W13965  17.229   9.972  10.277
41651W        W13966  37.306  44.065  10.178
41652W        W13967  15.226  22.246   4.068
41653W        W13968   6.704   7.237  12.119
41654W        W13969  33.626  40.027   1.771
41655W        W13970  35.620  24.261  11.971
41656W        W13971  15.114  30.977   3.365
41657W        W13972  19.701  26.579   4.701
41658W        W13973  44.564   5.950  14.352
41659W        W13974  35.399  16.889   1.722
41660W        W13975   0.619   8.875  10.246
41661W        W13976  23.505   4.917   4.750
41662W        W13977  12.971  28.542   3.842
41663W        W13978  19.802  22.958   3.392
41664W        W13979   2.686  42.281  13.075
41665W        W13980  25.287  43.912   1.715
41666W        W13981  11.996   0.409   1.394
41667W        W13982  36.673  26.217  11.445
41668W        W13983   3.420  20.762  12.105
41669W        W13984   0.912  43.330  12.506
41670W        W13985   9.125  20.477   0.880
41671W        W13986  26.129  38.343  14.853
41672W        W13987   3.330   5.899  11.300
41673W        W13988  36.326  39.046   4.650
41674W        W13989  23.775  10.713  11.677
41675W        W13990   5.297  44.014  14.908
41676W        W13991  24.688  43.366  10.489
41677W        W13992  32.746  41.986   4.117
41678W        W13993   2.700  43.199  11.600
41679W        W13994  39.789  24.771   0.488
41680W        W13995  17.775  32.164   3.845
41681W        W13996  16.166  38.612  11.508
41682W        W13997  22.551  23.613  13.281
41683W        W13998   9.932  34.566   3.235
41684W        W13999   0.231   1.777  11.989
41685W        W14000  26.733  35.604   4.328
41686W        W14001  43.995  18.092   3.610
41687W        W14002  19.438  36.953   1.896
41688W        W14003  11.718  33.699  13.806
41689W        W14004  34.040  30.015  14.021
41690W        W14005  16.259  21.000  10.758
41691W        W14006  13.842  39.402   1.677
41692W        W14007  14.989  27.671  12.421
41693W        W14008   1.026  10.417  10.629
41694W        W14009  40.345   1.849   1.330
41695W        W14010  21.295   6.715   2.979
41696W        W14011  11.430   6.686  11.868
41697W        W14012  35.889   0.971  11.219
41698W        W14013  36.910  10.519  14.515
41699W        W14014  41.880  34.463   2.736
41700W        W14015   0.207  12.045  13.465
41701W        W14016   4.716  22.082   1.028
41702W        W14017   4.132  41.141  10.215
41703W        W14018  23.595  44.360   2.151
41704W        W14019  28.163  21.997  12.881
41705W        W14020  34.722  38.431   2.115
41706W        W14021  32.051  27.560   1.147
41707W        W14022  42.277  18.233  10.941
41708W        W14023  14.081  25.527   2.587
41709W        W14024  24.755  35.890  13.829
41710W        W14025  29.042  39.810  13.828
41711W        W14026  26.508   9.461   1.281
41712W        W14027  12.594  43.866   4.587
41713W        W14028  36.163  40.587  14.844
41714W        W14029   6.763  26.505   2.277
41715W        W14030  41.070   8.262  12.890
41716W        W14031   0.730  39.232  10.955
41717W        W14032  41.282  14.419   0.470
41718W        W14033  26.915  23.233  12.454
41719W        W14034  29.476  44.216  13.134
41720W        W14035  38.593  26.399  10.795
41721W        W14036  40.730  38.882  14.640
41722W        W14037  24.449   5.641  14.319
41723W        W14038  10.338   3.445   1.351
41724W        W14039  22.014  19.951  13.513
41725W        W14040   0.338   4.119   2.836
41726W        W14041  43.146  24.699  12.639
41727W        W14042  29.469  26.058   2.669
41728W        W14043  18.094  21.040   2.137
41729W        W14044   7.931   0.429   0.409
41730W        W14045  39.870  21.138  14.990
41731W        W14046  16.525  43.901   4.301
41732W        W14047  35.324  20.292   1.859
41733W        W14048   9.676  30.865   3.202
41734W        W14049  35.504  18.079   1.515
41735W        W14050  42.079   9.662  14.840
41736W        W14051  27.282  12.134   0.979
41737W        W14052  33.859  11.819  11.383
41738W        W14053  33.006   6.639  12.408
41739W        W14054  20.071  41.821   4.138
41740W        W14055  12.743  26.594  14.540
41741W        W14056  16.210  40.661   4.274
41742W        W14057  32.491  28.188  13.507
41743W        W14058  39.323  39.320   1.757
41744W        W14059  10.382   1.808   1.665
41745W        W14060  14.995  11.509  12.044
41746W        W14061   8.106  21.633  14.985
41747W        W14062   2.730   8.640   2.714
41748W        W14063  33.645  11.047   0.343
41749W        W14064   6.052  36.102   4.883
41750W        W14065  22.923   1.753  11.159
41751W        W14066  28.418  26.748  11.215
41752W        W14067  14.971  34.320   3.006
41753W        W14068  41.351  21.798  14.556
41754W        W14069  40.927   5.451   2.634
41755W        W14070  28.872  17.886  11.108
41756W        W14071   9.090  11.138   0.174
41757W        W14072  43.377  17.659   1.544
41758W        W14073  43.190  23.115  10.379
41759W        W14074  20.991  33.530  10.701
41760W        W14075  37.059  33.936  14.216
41761W        W14076  15.247  28.517   4.062
41762W        W14077  23.020  14.092   2.562
41763W        W14078   1.262  26.064   2.841
41764W        W14079  13.315  33.460  12.055
41765W        W14080  24.701  29.492   0.216
41766W        W14081  13.936  27.697  13.857
41767W        W14082  39.712  34.502  13.854
41768W        W14083  37.326  21.458   4.617
41769W        W14084  16.036  34.836  10.643
41770W        W14085  12.298  11.575   0.293
41771W        W14086  40.437  21.122   2.516
41772W        W14087  15.079  12.244  10.700
41773W        W14088   9.769   3.364  12.133
41774W        W14089   7.105   8.368   4.258
41775W        W14090  42.424   6.157   3.327
41776W        W14091   6.762  44.305   1.919
41777W        W14092  42.809  37.701   3.315
41778W        W14093  37.142  12.773  13.397
41779W        W14094  19.826  40.396  10.214
41780W        W14095  22.667  25.277  11.807
41781W        W14096  10.901  39.273   1.283
41782W        W14097  27.090  42.242   4.750
41783W        W14098  41.180   6.846  12.718
41784W        W14099  39.630  27.208  11.065
41785W        W14100   8.154  12.998   4.341
41786W        W14101  16.613   3.373   4.539
41787W        W14102  31.472  44.709  11.164
41788W        W14103   3.593  14.572   2.725
41789W        W14104  33.021  24.037  10.283
41790W        W14105   6.476  40.424   4.195
41791W        W14106  41.504  32.062   3.665
41792W        W14107  33.080  36.452  12.563
41793W        W14108  17.091  14.502   0.420
41794W        W14109   4.082  11.162  12.062
41795W        W14110   8.660  14.617  11.906
41796W        W14111   7.086  27.181   0.010
41797W        W14112   1.591  28.234  12.412
41798W        W14113  41.246   9.315   0.292
41799W        W14114  36.227  42.364  11.461
41800W        W14115  16.972   7.163  14.935
41801W        W14116  36.342  36.820  11.569
41802W        W14117  35.277   8.825  13.980
41803W        W14118  40.498  34.099  11.866
41804W        W14119  33.430  40.533  11.522
41805W        W14120  28.435  39.404   3.535
41806W        W14121   5.837  12.332  14.436
41807W        W14122  11.769  34.379  12.298
41808W        W14123  15.237  31.378   4.624
41809W        W14124  14.181  27.470  11.092
41810W        W14125  22.584  19.246   0.326
41811W        W14126  34.503   4.832   3.158
41812W        W14127   2.733  31.615   2.211
41813W        W14128  21.249  11.366   1.338
41814W        W14129  33.398  30.932   1.442
41815W        W14130  29.404  18.705  14.381
41816W        W14131  32.505  16.260   1.820
41817W        W14132  13.780  35.380   2.857
41818W        W14133  18.494  40.252   3.108
41819W        W14134   7.119  41.089   4.412
41820W        W14135  41.800  42.029   0.246
41821W        W14136  37.530  25.394   2.734
41822W        W14137  31.920  14.214   3.730
41823W        W14138  42.575  31.469   0.211
41824W        W14139  39.474  23.767   5.400
41825W        W14140   4.478   1.818  14.980
41826W        W14141  29.913  40.507  10.720
41827W        W14142  41.783  16.786  14.541
41828W        W14143   3.296  36.615   3.216
41829W        W14144  11.278  30.982   0.177
41830W        W14145   0.847  32.896  12.787
41831W        W14146  43.162  34.785  11.932
41832W        W14147  14.855  30.593  11.164
41833W        W14148  42.791  38.211   3.181
41834W        W14149  13.097  28.835  14.465
41835W        W14150  32.213  12.338  13.122
41836W        W14151   2.063  13.190   4.249
41837W        W14152  19.594  20.668   2.884
41838W        W14153   7.136   6.557  13.563
41839W        W14154  32.438   4.236  12.857
41840W        W14155  26.207  23.219   0.971
41841W        W14156   9.053  39.992  11.203
41842W        W14157  43.421  33.241  12.593
41843W        W14158  18.742  12.106  13.453
41844W        W14159  10.699   8.154   1.741
41845W        W14160  13.061  28.063  11.475
41846W        W14161   5.378   6.307  12.932
41847W        W14162  21.004   5.833  10.434
41848W        W14163  28.107  16.355  12.941
41849W        W14164  32.828  43.313  12.896
41850W        W14165  11.792  38.601  14.968
41851W        W14166  10.718  12.179   3.682
41852W        W14167  40.242  33.637  11.939
41853W        W14168  32.555  13.348   1.864
41854W        W14169  39.390  18.816   0.416
41855W        W14170  29.149  43.620  12.505
41856W        W14171  13.344  35.155   0.409
41857W        W14172  27.871  22.775  12.524
41858W        W14173   3.416  10.299   1.346
41859W        W14174  27.909  30.498   1.353
41860W        W14175  12.329   1.836  13.461
41861W        W14176  34.155  11.721   2.855
41862W        W14177  26.898   3.254   5.104
41863W        W14178  33.006  12.610  13.855
41864W        W14179  33.722  30.951   3.725
41865W        W14180  21.189   4.278  13.928
41866W        W14181  27.044  37.389  13.450
41867W        W14182  44.912   3.939  14.263
41868W        W14183  36.566  44.986   0.785
41869W        W14184   5.274  13.705  10.499
41870W        W14185  27.047  31.661   2.335
41871W        W14186  26.212  16.136  13.493
41872W        W14187  16.194  27.441   1.461
41873W        W14188  20.735   3.849   3.880
41874W        W14189  27.732  10.593  11.643
41875W        W14190  34.141  29.103   0.265
41876W        W14191  27.323  13.077  11.047
41877W        W14192   4.212  17.232  11.563
41878W        W14193  15.969   5.390  13.139
41879W        W14194  26.078  14.257  10.356
41880W        W14195  43.327  16.609  13.534
41881W        W14196  22.042  18.237  12.065
41882W        W14197  14.754  43.522  10.659
41883W        W14198   8.255   5.899  11.220
41884W        W14199   3.323  40.291  14.853
41885W        W14200  42.235  42.805   4.027
41886W        W14201   8.201  42.079  14.899
41887W        W14202  42.832   3.776   1.670
41888W        W14203  27.363  27.738   1.788
41889W        W14204  26.771   7.196   3.709
41890W        W14205  18.664  18.254   4.390
41891W        W14206   7.936  36.567   1.455
41892W        W14207  42.890  44.793  12.332
41893W        W14208  43.921  13.197  11.638
41894W        W14209  27.555   9.115  12.345
41895W        W14210   7.897  25.549  11.585
41896W        W14211  11.801  31.697  13.402
41897W        W14212  18.378  24.855  14.865
41898W        W14213  21.847  35.806   4.166
41899W        W14214  15.843  35.392  12.950
41900W        W14215  29.601  23.954   1.863
41901W        W14216  30.370  27.631   2.703
41902W        W14217  17.468   9.657   3.339
41903W        W14218  19.026  43.857  14.421
41904W        W14219   8.286   8.716  10.664
41905W        W14220  26.636  25.699  11.103
41906W        W14221  23.753  30.487   4.615
41907W        W14222  21.069  25.082  14.867
41908W        W14223  37.210  25.679   5.457
41909W        W14224   2.483  32.031  11.642
41910W        W14225  40.283   6.354  10.722
41911W        W14226   5.957  14.712   2.460
41912W        W14227  27.121  14.804  14.072
41913W        W14228  20.891   7.718  13.766
41914W        W14229  18.223  40.026  11.940
41915W        W14230   4.651   7.507   0.117
41916W        W14231   7.806   9.954   4.060
41917W        W14232  18.226  10.667  12.119
41918W        W14233   3.075  33.026  14.562
41919W        W14234  42.794  21.237   1.782
41920W        W14235  40.000  32.072   1.659
41921W        W14236  20.743  22.754  12.172
41922W        W14237   9.317  30.095   3.482
41923W        W14238  44.391   3.693   3.840
41924W        W14239  29.575   2.232  13.876
41925W        W14240  10.665  23.057   1.360
41926W        W14241  35.374   6.776  12.122
41927W        W14242  34.477   8.430  14.078
41928W        W14243  18.078  27.616   0.228
41929W        W14244  13.923  12.121   1.231
41930W        W14245  10.925   2.075   3.570
41931W        W14246  28.731  38.837   2.741
41932W        W14247  38.034   4.201  14.023
41933W        W14248  32.899   4.743   4.616
41934W        W14249  18.543  17.262  11.927
41935W        W14250  34.504  38.316  13.422
41936W        W14251   3.740  11.693  11.560
41937W        W14252  11.604   0.725  13.068
41938W        W14253  23.324  44.397   0.192
41939W        W14254  35.549  13.090   0.929
41940W        W14255  13.047   0.192   1.210
41941W        W14256  21.453  14.343  11.112
41942W        W14257  19.513   4.455   2.222
41943W        W14258  31.425  26.743   1.291
41944W        W14259  38.014  13.040  13.958
41945W        W14260  31.520  17.300  14.311
41946W        W14261   4.527  30.621   2.741
41947W        W14262  12.252   9.577  14.083
41948W        W14263   9.203   6.160  10.657
41949W        W14264  21.903   0.428   1.804
41950W        W14265   0.491  23.101  12.899
41951W        W14266   1.628  20.039   2.801
41952W        W14267   8.126  29.238  14.488
41953W        W14268  16.291  41.145   2.820
41954W        W14269  27.579  14.570  14.747
41955W        W14270  31.440  38.709  13.023
41956W        W14271  28.892  10.609  14.080
41957W        W14272  42.463   3.890  10.662
41958W        W14273  33.158  13.949  12.364
41959W        W14274   6.455   9.775  11.514
41960W        W14275  21.563   8.938  13.937
41961W        W14276  15.202  20.060  11.981
41962W        W14277   8.863  36.378  12.089
41963W        W14278   8.892  39.354   4.273
41964W        W14279   8.917  23.132   3.172
41965W        W14280  24.229  10.646  12.487
41966W        W14281  42.359  41.408  12.756
41967W        W14282   8.887  17.229  13.116
41968W        W14283  19.603   0.601  10.810
41969W        W14284  32.038  22.294   1.258
41970W        W14285  11.312  32.169  12.551
41971W        W14286  21.979  33.603  11.582
41972W        W14287  13.423  43.463  13.908
41973W        W14288  35.512   0.372  12.823
41974W        W14289  39.101   1.911   1.915
41975W        W14290  17.463  35.521  11.842
41976W        W14291  23.107   2.083   3.968
41977W        W14292  39.248  20.578   3.300
41978W        W14293   3.132  30.408  13.914
41979W        W14294   3.439  11.391   2.200
41980W        W14295  12.594   1.212  14.997
41981W        W14296  29.602  12.299  14.283
41982W        W14297  13.155  23.621   5.014
41983W        W14298  28.982   4.319   2.465
41984W        W14299   1.839  32.844   4.568
41985W        W14300  43.506  24.806   0.152
41986W        W14301  10.772  11.416   3.170
41987W        W14302  40.373  18.539  13.013
41988W        W14303  25.616  37.186   2.322
41989W        W14304  40.853   1.753   4.254
41990W        W14305  13.567  39.150  12.731
41991W        W14306  17.642   4.438   2.945
41992W        W14307  34.628  42.887  12.060
41993W        W14308  21.555   2.502   3.396
41994W        W14309  10.920  44.724   2.534
41995W        W14310  39.961  21.593   3.589
41996W        W14311  20.164  39.648  10.633
41997W        W14312  19.082  17.226  11.997
41998W        W14313   9.659  28.515  11.086
41999W        W14314   9.985   7.392  11.397
42000W        W14315  22.477  12.192   2.299
42001W        W14316  36.822  16.318  14.062
42002W        W14317  27.956  24.196  12.487
42003W        W14318  36.391  34.796   4.870
42004W        W14319  41.216  25.562  11.003
42005W        W14320   9.155  18.431   5.308
42006W        W14321  11.947  33.932   1.797
42007W        W14322  25.195  37.824   1.272
42008W        W14323  18.575  41.374  13.862
42009W        W14324  16.258  38.837  10.155
42010W        W14325  42.037  31.095  11.859
42011W        W14326  10.650  12.206  12.357
42012W        W14327  15.638  34.949  11.538
42013W        W14328  35.028  13.931  13.425
42014W        W14329  21.701   9.442  13.867
42015W        W14330  29.453  33.232  13.349
42016W        W14331  12.058  30.681   1.153
42017W        W14332   2.999   4.188  11.077
42018W        W14333  35.320  21.055  13.574
42019W        W14334  41.550  31.638   2.280
42020W        W14335  40.509   6.866  10.694
42021W        W14336  37.020  23.212  13.946
42022W        W14337  26.573  17.289   3.654
42023W        W14338  13.050  29.446  13.885
42024W        W14339   5.363  26.468   0.050
42025W        W14340   6.845  26.813  12.557
42026W        W14341  36.402   2.968   4.615
42027W        W14342  27.573   7.870   0.870
42028W        W14343  17.170   9.665   9.864
42029W        W14344  19.681   2.404  14.286
42030W        W14345  44.993  28.200  13.934
42031W        W14346  42.307  32.361   1.210
42032W        W14347  25.192   9.930   1.189
42033W        W14348  23.635  38.163  14.301
42034W        W14349   7.866   3.307   3.528
42035W        W14350  11.132  10.066   3.286
42036W        W14351  18.199  37.837   3.748
42037W        W14352   0.414  10.862  14.736
42038W        W14353  44.043  26.460   0.371
42039W        W14354  19.118  35.638  11.072
42040W        W14355  23.127  16.387  13.398
42041W        W14356   2.006  16.635  11.190
42042W        W14357  42.389  38.525  13.774
42043W        W14358   8.655  10.292   3.150
42044W        W14359  23.612  15.643  12.367
42045W        W14360  10.207  17.400   0.561
42046W        W14361  36.219  19.051  11.798
42047W        W14362  42.894  31.006   3.334
42048W        W14363  16.560  38.462   3.855
42049W        W14364  16.349  21.580   0.345
42050W        W14365  36.311   0.588   2.747
42051W        W14366  33.099  31.903   1.182
42052W        W14367  44.391  21.478   3.203
42053W        W14368   4.988  30.005   2.494
42054W        W14369  30.118  18.157   1.711
42055W        W14370  31.700  15.357  12.360
42056W        W14371  39.474  24.947  10.697
42057W        W14372  44.956   2.509  13.781
42058W        W14373  17.490  16.265   1.273
42059W        W14374  32.894  38.560   3.785
42060W        W14375  11.163  22.033   0.789
42061W        W14376   8.741  10.864   4.911
42062W        W14377  32.124   9.255   3.753
42063W        W14378  36.293  10.382  13.328
42064W        W14379   4.418   6.482   1.459
42065W        W14380  12.731   4.178  10.615
42066W        W14381  36.974  22.567  12.065
42067W        W14382   1.401   7.250   3.341
42068W        W14383  28.092  16.827  12.049
42069W        W14384  36.672  36.698   1.208
42070W        W14385  13.162  25.710  13.447
42071W        W14386  15.290  19.760  10.745
42072W        W14387  33.238  23.664  12.996
42073W        W14388   7.672  19.878  11.561
42074W        W14389  36.561  25.096   3.087
42075W        W14390  18.994  44.105   3.696
42076W        W14391   3.754  29.712   3.623
42077W        W14392  39.863  11.214  13.955
42078W        W14393  41.951  29.583   0.795
42079W        W14394  34.307  39.855   1.262
42080W        W14395  14.566   8.871  10.982
42081W        W14396  33.459  40.782  12.881
42082W        W14397   6.920  35.694  13.091
42083W        W14398  36.202  11.052  12.105
42084W        W14399  21.804  40.995   0.824
42085W        W14400  22.939  32.991  14.060
42086W        W14401  15.863  32.964   0.003
42087W        W14402  36.646  14.290   4.787
42088W        W14403   4.564  33.078   0.041
42089W        W14404  20.784  29.871   2.135
42090W        W14405  26.028  32.451   3.092
42091W        W14406  43.959  21.945   4.022
42092W        W14407  40.515  18.241  13.748
42093W        W14408  30.271  17.687   0.188
42094W        W14409   5.876  19.248   3.593
42095W        W14410  20.252  31.998   0.225
42096W        W14411  12.592  21.290  14.478
42097W        W14412  38.074  30.478   4.683
42098W        W14413  40.475  41.791   3.918
42099W        W14414  38.217  26.651  11.036
42100W        W14415  32.991  26.678  14.578
42101W        W14416  21.842  22.535   4.608
42102W        W14417  39.351   5.406  13.388
42103W        W14418  26.874  16.827  13.283
42104W        W14419  33.379  19.128  11.634
42105W        W14420  37.314   8.138   3.526
42106W        W14421  19.101  36.482   4.719
42107W        W14422  16.375  36.886  11.575
42108W        W14423  36.327   4.773   2.864
42109W        W14424  28.969  36.589   2.501
42110W        W14425  30.853  25.280   0.325
42111W        W14426  40.863  25.620  14.073
42112W        W14427   9.962  36.801   4.077
42113W        W14428  17.671  37.148  14.761
42114W        W14429  17.800  26.135   0.891
42115W        W14430  36.395  22.045   3.113
42116W        W14431   9.787  19.541  13.371
42117W        W14432  31.095  29.674  11.911
42118W        W14433   0.079  35.678   3.726
42119W        W14434  15.414  34.545   3.223
42120W        W14435  21.015  18.044  13.779
42121W        W14436   5.419  33.953   3.123
42122W        W14437  44.874  40.906   0.797
42123W        W14438   3.694  26.213   0.716
42124W        W14439  30.982  29.606   0.358
42125W        W14440  16.199  36.406   3.913
42126W        W14441   5.423  42.253  11.088
42127W        W14442   2.338  14.124   0.305
42128W        W14443  15.258  39.814   4.381
42129W        W14444  14.371  10.099  11.905
42130W        W14445   2.412  40.636   2.972
42131W        W14446  19.480   5.176  13.035
42132W        W14447   8.471  28.987   4.181
42133W        W14448  13.084   9.128   4.039
42134W        W14449  24.007  44.011  12.917
42135W        W14450   5.771  13.254   0.503
42136W        W14451  26.030  11.256   1.897
42137W        W14452  17.767  41.580  12.557
42138W        W14453  22.615  19.050  13.527
42139W        W14454  40.523  16.460   4.197
42140W        W14455  38.438   3.444  10.552
42141W        W14456  14.987  20.851   4.435
42142W        W14457  27.983  23.227   0.148
42143W        W14458  43.294  33.397   2.414
42144W        W14459  23.305  39.859  12.886
42145W        W14460   5.384   2.979   3.932
42146W        W14461  22.354  19.602   3.662
42147W        W14462  43.935  11.728  10.218
42148W        W14463  26.829  26.092  11.466
42149W        W14464  23.217  33.529   0.717
42150W        W14465  25.926  40.658   3.284
42151W        W14466  29.237  31.023   4.734
42152W        W14467  10.735  17.570   2.914
42153W        W14468  19.161  37.213   4.228
42154W        W14469  44.333  14.503   3.692
42155W        W14470  18.283  35.149  12.116
42156W        W14471  18.097  29.889  12.436
42157W        W14472  36.476  19.602   0.763
42158W        W14473  24.474   0.508  11.939
42159W        W14474  26.088   8.610   4.425
42160W        W14475  29.490  11.256   2.395
42161W        W14476  29.012   8.189  11.666
42162W        W14477  42.084  16.533  10.927
42163W        W14478  39.948  44.941   1.281
42164W        W14479  41.754  36.385   2.746
42165W        W14480  32.930  34.922   3.965
42166W        W14481  17.640  36.580   2.795
42167W        W14482   7.825  31.881   3.723
42168W        W14483  34.074  22.201   1.811
42169W        W14484  33.524  37.642  13.810
42170W        W14485  34.837   8.686  10.086
42171W        W14486  43.328   6.357  14.732
42172W        W14487  20.208   5.192  12.096
42173W        W14488  42.263   7.183   0.011
42174W        W14489  33.379   2.804  11.050
42175W        W14490  25.743   3.815   0.722
42176W        W14491  33.578  23.987   4.472
42177W        W14492   9.539   3.586   3.221
42178W        W14493   1.308  33.658  11.401
42179W        W14494  30.972  38.734  12.554
42180W        W14495  17.269  27.511  14.993
42181W        W14496  21.579  19.570  14.317
42182W        W14497  29.118   5.872   3.351
42183W        W14498  43.028  44.449   2.868
42184W        W14499  41.995   8.646  11.877
42185W        W14500  40.482  10.100   3.379
42186W        W14501   2.483  24.484  11.011
42187W        W14502  34.015  44.798  10.392
42188W        W14503   3.371  16.112  11.542
42189W        W14504  30.842  33.089  12.432
42190W        W14505  19.539  22.498   3.371
42191W        W14506  34.625   2.742  11.943
42192W        W14507   7.894  25.721  13.348
42193W        W14508  16.568   7.174   1.960
42194W        W14509  27.773  24.042  14.350
42195W        W14510  18.778  13.926  10.704
42196W        W14511  36.312   1.243  11.609
42197W        W14512  24.249  31.461   2.660
42198W        W14513  36.316  36.355   4.132
42199W        W14514   8.028  29.349  12.657
42200W        W14515  43.832  24.477  14.440
42201W        W14516   0.251   3.959   2.323
42202W        W14517   6.345  10.173  12.489
42203W        W14518  27.057  16.049  11.620
42204W        W14519  32.421  15.125  11.337
42205W        W14520  31.200  26.510   4.600
42206W        W14521  23.767   7.788   4.673
42207W        W14522   1.013  40.725  11.805
42208W        W14523  22.462   9.437  12.954
42209W        W14524  21.993  34.709   0.843
42210W        W14525  34.593  15.071   3.318
42211W        W14526   9.782  44.722  11.095
42212W        W14527  29.799  22.978   1.929
42213W        W14528   2.728  15.616   3.662
42214W        W14529  14.792  31.700  14.398
42215W        W14530  26.205  38.988   1.027
42216W        W14531  17.559  16.599   0.734
42217W        W14532  44.798  15.293   2.688
42218W        W14533  15.903   2.588  13.506
42219W        W14534  20.344  30.014   2.385
42220W        W14535  31.109  10.399   3.683
42221W        W14536  39.901  24.081  14.499
42222W        W14537   7.826  33.482  13.805
42223W        W14538  15.275  29.696   4.909
42224W        W14539   0.239  29.012  11.712
42225W        W14540  13.778  17.508  12.426
42226W        W14541  13.021   5.626   4.005
42227W        W14542  19.133  11.477  13.793
42228W        W14543  31.122  35.021   2.005
42229W        W14544  24.239  24.691  11.562
42230W        W14545  12.234  27.524  12.598
42231W        W14546  18.690  44.546   3.842
42232W        W14547  44.426  12.331  14.993
42233W        W14548  36.441   3.313   3.215
42234W        W14549  37.594   3.951  12.870
42235W        W14550   8.954  23.516   0.932
42236W        W14551  10.523  11.853  11.116
42237W        W14552   1.294  29.786   0.056
42238W        W14553  30.753   0.918  11.987
42239W        W14554  19.535  40.889  10.516
42240W        W14555  31.450  26.802   2.187
42241W        W14556  10.329   2.878  12.112
42242W        W14557  12.862  21.588   3.186
42243W        W14558  27.258  28.651  10.658
42244W        W14559   1.112  44.530   5.037
42245W        W14560  20.249   0.128  13.762
42246W        W14561  29.043  10.145  13.930
42247W        W14562  25.649  41.592   3.575
42248W        W14563  31.944   6.130   2.968
42249W        W14564   9.855   2.168  11.546
42250W        W14565  28.095  26.510   2.787
42251W        W14566  43.560  14.376   5.109
42252W        W14567  13.736  28.809  11.183
42253W        W14568  33.904  39.411  13.968
42254W        W14569   3.964  24.105   2.850
42255W        W14570  17.658  35.821   3.214
42256W        W14571   9.663  31.159  12.502
42257W        W14572   1.944  21.635  13.475
42258W        W14573  32.621  43.996   4.055
42259W        W14574  42.291  12.099   1.263
42260W        W14575  19.687  14.060  13.408
42261W        W14576   4.027   2.236   3.885
42262W        W14577  41.444  26.641   1.306
42263W        W14578  11.363   6.884   2.812
42264W        W14579   8.768  15.779   5.091
42265W        W14580  18.834  30.964  12.890
42266W        W14581  30.390  43.048  14.007
42267W        W14582  41.408  37.009   3.347
42268W        W14583  38.619  17.771  14.792
42269W        W14584  44.008  29.492   0.183
42270W        W14585  23.238  26.606   1.725
42271W        W14586  24.222  34.035   4.406
42272W        W14587  36.480  15.662   3.708
42273W        W14588   7.589   5.754   4.297
42274W        W14589  37.560  42.801  12.326
42275W        W14590  13.375  41.813   0.908
42276W        W14591  34.053  14.013   0.950
42277W        W14592   0.144  34.757  10.915
42278W        W14593  25.378  15.739  13.442
42279W        W14594   8.195  11.566   0.246
42280W        W14595  37.596  36.116  12.013
42281W        W14596  12.014  31.887   4.129
42282W        W14597  17.675  14.658  11.609
42283W        W14598  13.133  30.417   1.882
42284W        W14599  41.412  13.489  14.455
42285W        W14600  27.551  34.369   1.231
42286W        W14601   0.341  29.357   3.239
42287W        W14602  43.278  15.686   3.818
42288W        W14603   1.705  29.670  12.461
42289W        W14604  33.049  25.424  10.498
42290W        W14605  24.189  41.235   1.627
42291W        W14606  38.470  26.154   2.599
42292W        W14607  12.741  34.070  12.964
42293W        W14608  22.701   6.768  14.984
42294W        W14609  35.685  18.662   2.772
42295W        W14610  31.930  34.616  11.688
42296W        W14611  29.520  36.290  14.853
42297W        W14612  39.767  22.990   0.476
42298W        W14613  40.358  44.672   1.846
42299W        W14614  15.542   7.920  11.871
42300W        W14615  33.808  30.485  13.932
42301W        W14616  36.183  10.013   2.644
42302W        W14617  25.604  38.575  13.311
42303W        W14618  21.233  38.026   4.578
42304W        W14619  40.913  33.500  10.715
42305W        W14620  42.474  35.482   4.312
42306W        W14621  10.670  13.136   2.748
42307W        W14622   3.342  34.707  11.207
42308W        W14623   4.697  37.969  14.999
42309W        W14624  35.890  24.328  10.714
42310W        W14625  26.467   8.270   0.977
42311W        W14626  25.690  32.409  14.371
42312W        W14627  19.525  17.599   0.520
42313W        W14628  37.338  31.994  13.599
42314W        W14629  42.085  16.629   2.376
42315W        W14630   6.174  12.261  14.035
42316W        W14631  30.629  21.773  11.136
42317W        W14632  30.034  30.024  11.394
42318W        W14633  43.178   9.805   2.703
42319W        W14634  26.053  39.768   2.968
42320W        W14635  29.109  44.030  10.655
42321W        W14636  29.452  25.089   3.339
42322W        W14637  42.692  20.978   2.745
42323W        W14638  15.648  19.079  14.952
42324W        W14639  33.561  18.086  14.592
42325W        W14640  25.401  15.607  10.896
42326W        W14641  40.049  37.306   2.776
42327W        W14642  39.943  27.256   2.700
42328W        W14643  21.473  33.346   1.876
42329W        W14644  41.408  41.816  11.514
42330W        W14645  26.955  32.422  12.355
42331W        W14646  37.803  33.813  14.438
42332W        W14647  23.499  21.816  11.212
42333W        W14648  31.734   8.374  13.664
42334W        W14649  31.598   4.916  13.701
42335W        W14650  36.034  16.829  13.432
42336W        W14651  15.242  11.618  13.882
42337W        W14652  19.750   3.927   0.531
42338W        W14653  19.093  26.426  14.884
42339W        W14654  30.057   0.883  10.792
42340W        W14655  12.725   2.078   4.055
42341W        W14656  17.759  37.337   4.351
42342W        W14657  14.741  30.085   2.998
42343W        W14658  18.652   6.398  13.293
42344W        W14659  34.337  35.864   4.651
42345W        W14660  13.754  15.653  13.074
42346W        W14661  24.660  32.367   2.619
42347W        W14662  12.664  24.136  13.462
42348W        W14663  44.305   6.795  12.307
42349W        W14664   1.243  11.847  14.881
42350W        W14665  39.563   9.187  14.526
42351W        W14666  40.383  35.490  12.055
42352W        W14667  30.443  16.989   2.708
42353W        W14668   3.516   2.910   3.523
42354W        W14669   7.125  10.240   0.945
42355W        W14670  14.523   0.281   4.840
42356W        W14671  28.608   1.759   1.491
42357W        W14672  19.814  27.000   4.970
42358W        W14673  18.737  12.300  14.808
42359W        W14674  41.594  31.978   0.976
42360W        W14675  42.365  14.855   3.709
42361W        W14676   3.641  10.801   4.433
42362W        W14677  43.331  10.381  11.201
42363W        W14678  13.614  12.563  11.082
42364W        W14679  27.115  17.193  13.584
42365W        W14680  37.025  30.465  14.352
42366W        W14681  16.856  38.432  12.456
42367W        W14682   1.913  43.937   0.857
42368W        W14683   8.404   0.015  11.972
42369W        W14684  36.614  28.641  11.056
42370W        W14685   8.126  27.561   0.843
42371W        W14686  43.770  35.820  12.497
42372W        W14687  10.980  18.729   4.968
42373W        W14688  37.508  34.328   2.417
42374W        W14689  27.141  40.885  14.000
42375W        W14690   7.826  17.815   0.928
42376W        W14691  36.327   2.311   3.793
42377W        W14692  33.502   3.730   1.854
42378W        W14693   8.154  39.367  10.464
42379W        W14694  20.557  31.964  13.485
42380W        W14695  40.782  24.492  14.250
42381W        W14696  21.146  20.713   4.577
42382W        W14697   4.870  33.171   2.424
42383W        W14698   9.812   8.879  11.468
42384W        W14699  11.410  39.350   1.209
42385W        W14700  22.613  11.608   3.993
42386W        W14701  40.903   6.968   3.639
42387W        W14702  31.661  14.274   4.179
42388W        W14703  10.091  27.688   3.844
42389W        W14704  11.238  25.705  11.058
42390W        W14705  12.645  15.109  11.917
42391W        W14706   1.908  33.997  13.063
42392W        W14707   0.499  11.362  14.901
42393W        W14708  40.031  10.849   0.832
42394W        W14709  35.520  32.320   4.586
42395W        W14710  39.407  11.396  13.802
42396W        W14711  38.939  19.522  13.612
42397W        W14712  22.736   7.941  14.886
42398W        W14713  15.594  19.178   3.083
42399W        W14714  16.371  30.518   3.693
42400W        W14715  16.751  12.814  12.562
42401W        W14716  21.726  32.522   2.731
42402W        W14717   0.237  26.184  12.363
42403W        W14718  31.741  41.605  11.253
42404W        W14719  26.396  15.718   2.367
42405W        W14720  40.026  26.601  12.769
42406W        W14721  27.868   3.999   0.945
42407W        W14722   8.236  10.114   4.649
42408W        W14723  23.776   5.380   4.573
42409W        W14724  12.550   4.698   0.497
42410W        W14725  23.105  16.920  14.169
42411W        W14726   3.952  30.455  14.291
42412W        W14727  23.968  19.821   5.162
42413W        W14728  30.129  37.864   3.565
42414W        W14729  29.152  23.682  11.960
42415W        W14730  17.396  15.377   3.409
42416W        W14731  20.762  20.002  14.234
42417W        W14732  37.837  24.691  13.827
42418W        W14733  12.436  36.110   0.789
42419W        W14734   1.410   1.547   4.075
42420W        W14735  20.521  10.474  12.852
42421W        W14736   2.557  33.351  13.403
42422W        W14737   5.335  16.579   4.125
42423W        W14738  34.412  25.713   1.607
42424W        W14739  29.810   1.979   0.408
42425W        W14740  39.406   7.941   3.688
42426W        W14741   9.138  30.911  14.367
42427W        W14742   0.317  42.502  11.598
42428W        W14743  36.566   7.826  10.581
42429W        W14744  32.957  31.070  12.379
42430W        W14745  35.367   3.494   3.665
42431W        W14746  30.105  21.167   1.796
42432W        W14747  38.338  20.310   2.201
42433W        W14748   3.320  41.891  14.382
42434W        W14749   4.224  37.731   3.389
42435W        W14750  32.926  38.074   1.151
42436W        W14751  10.631  10.225   1.709
42437W        W14752   1.525  24.535  14.758
42438W        W14753  21.741  32.168  10.432
42439W        W14754  14.712  20.506   1.862
42440W        W14755  40.467  28.174  14.301
42441W        W14756  37.759  23.669   3.692
42442W        W14757  24.654  34.386   1.700
42443W        W14758   3.751  43.878  11.502
42444W        W14759  36.878  33.473   0.829
42445W        W14760   1.468   1.431  13.117
42446W        W14761  36.967   8.228  12.504
42447W        W14762  34.104  43.178  11.315
42448W        W14763  25.621  39.115  10.099
42449W        W14764  16.795  11.833  11.935
42450W        W14765  37.597  38.887   3.072
42451W        W14766  36.571  30.235  12.971
42452W        W14767  32.421   1.240   1.897
42453W        W14768  12.273  28.373  12.695
42454W        W14769  33.266   8.907   3.117
42455W        W14770  13.768  11.696   3.734
42456W        W14771  24.138  25.287   4.220
42457W        W14772  11.777   1.416   0.170
42458W        W14773   4.602  16.953  11.396
42459W        W14774  33.325  13.502   1.115
42460W        W14775  31.619  18.617   3.768
42461W        W14776  33.844  38.647   0.422
42462W        W14777  24.997  30.062   2.807
42463W        W14778  41.864  31.332   2.802
42464W        W14779   8.585  23.591  14.298
42465W        W14780  34.165  15.131   1.286
42466W        W14781  23.539   4.888   2.889
42467W        W14782  25.628  20.442  13.470
42468W        W14783  26.863  25.028  13.324
42469W        W14784  34.435  18.267   1.271
42470W        W14785  19.932  26.498  10.979
42471W        W14786  16.050  20.002   0.885
42472W        W14787  27.659  26.959   3.113
42473W        W14788  37.989  30.914   3.286
42474W        W14789  10.682  24.681  10.659
42475W        W14790   3.279   2.672   3.144
42476W        W14791  24.960  13.685  10.701
42477W        W14792   9.661  24.359   3.660
42478W        W14793  33.273  32.020   5.041
42479W        W14794  11.381  27.008   3.867
42480W        W14795  30.038  37.292  12.917
42481W        W14796   3.827  39.095   3.754
42482W        W14797  29.587  21.683   3.360
42483W        W14798  34.495  13.476   3.988
42484W        W14799  19.033  33.416  12.939
42485W        W14800   5.818  15.227  13.518
42486W        W14801  31.901   7.916  12.948
42487W        W14802   1.202  41.467  13.735
42488W        W14803  14.106  37.894   2.712
42489W        W14804  22.788  38.840   3.962
42490W        W14805  31.905   1.827  13.921
42491W        W14806   9.135  35.941  11.994
42492W        W14807  15.951  22.034   4.430
42493W        W14808  18.782   1.636  12.999
42494W        W14809  19.739  37.804   3.736
42495W        W14810  23.571  41.401   4.374
42496W        W14811  17.040  14.146  13.924
42497W        W14812  31.048  33.392   4.933
42498W        W14813  24.493  33.934  12.895
42499W        W14814  43.973  15.379  12.453
42500W        W14815  25.005  16.684  12.069
42501W        W14816   2.214   4.842   2.194
42502W        W14817  10.867  15.689  11.648
42503W        W14818  20.747  40.879   2.295
42504W        W14819  30.109  10.782   4.211
42505W        W14820   6.162  18.809  14.780
42506W        W14821  36.041   3.852   1.926
42507W        W14822  43.326  11.690  10.816
42508W        W14823  20.513  31.532  14.284
42509W        W14824  36.443  32.692  11.962
42510W        W14825   3.870  24.783   1.286
42511W        W14826  14.040   8.038  14.814
42512W        W14827  43.940   6.052   1.984
42513W        W14828  13.008  33.382   1.491
42514W        W14829  37.388   7.281   1.441
42515W        W14830  30.253  34.119   2.149
42516W        W14831  42.112   1.467   0.354
42517W        W14832  41.778  40.417   0.904
42518W        W14833  20.029   4.362   4.623
42519W        W14834   6.856   3.076   1.806
42520W        W14835  33.527  25.095  13.945
42521W        W14836   3.654  14.561   3.672
42522W        W14837  25.150  32.518  10.660
42523W        W14838  23.426  25.750   2.618
42524W        W14839   4.852  10.215   4.701
42525W        W14840  37.029  13.302   1.586
42526W        W14841   3.742  11.725   3.909
42527W        W14842  17.086  33.449  12.023
42528W        W14843  35.149  37.849   4.714
42529W        W14844  40.828  11.264  12.650
42530W        W14845  10.674  36.641  11.241
42531W        W14846  28.659  13.122  11.003
42532W        W14847  29.101   6.193  14.407
42533W        W14848  37.890  40.321  12.458
42534W        W14849  35.845  34.513  11.642
42535W        W14850  22.015  13.976  13.791
42536W        W14851   9.483  21.044  13.746
42537W        W14852  28.377  23.253  11.761
42538W        W14853  28.142   4.407   1.820
42539W        W14854   5.284  29.716   4.161
42540W        W14855  26.968  39.048   1.513
42541W        W14856  36.033  20.147  10.783
42542W        W14857  39.967  36.558  13.392
42543W        W14858   4.169  39.011  12.029
42544W        W14859  37.440  43.776  11.116
42545W        W14860  27.470  30.378   4.694
42546W        W14861  35.183  24.531  11.690
42547W        W14862  17.115   4.361   3.654
42548W        W14863  30.197  23.214   3.808
42549W        W14864  33.630  42.220  12.952
42550W        W14865   3.290  22.575  14.246
42551W        W14866  33.340  41.750  11.138
42552W        W14867   1.262  20.980  11.100
42553W        W14868  10.856  31.934   4.553
42554W        W14869  37.980  38.382   1.422
42555W        W14870  38.067  30.389  12.807
42556W        W14871   0.245  13.108  10.202
42557W        W14872   8.702  20.544  11.018
42558W        W14873  44.031  17.361  12.351
42559W        W14874   6.931   2.430   3.674
42560W        W14875  43.244  10.732   2.664
42561W        W14876  10.893  20.096   1.267
42562W        W14877  19.240   6.284  13.916
42563W        W14878   9.269  12.719  11.318
42564W        W14879  44.023   6.177  10.981
42565W        W14880   1.744   9.232   3.259
42566W        W14881  17.816   4.911   3.238
42567W        W14882   9.412  37.815  14.887
42568W        W14883  12.700  36.592  13.154
42569W        W14884  27.501   2.705  14.373
42570W        W14885   1.361  30.911   1.589
42571W        W14886  23.749  17.755  10.286
42572W        W14887  41.059  32.135  11.496
42573W        W14888  20.796  29.256  10.199
42574W        W14889  12.770  31.830  13.430
42575W        W14890  32.124  39.000   0.283
42576W        W14891   6.259  27.726  13.653
42577W        W14892   5.775  30.392  14.843
42578W        W14893  34.335  23.814  13.035
42579W        W14894   8.788   9.012   4.459
42580W        W14895  19.313  16.164  13.785
42581W        W14896  32.920  35.059  13.949
42582W        W14897  24.674  29.620  14.341
42583W        W14898  41.939  39.925   2.627
42584W        W14899  35.952  34.970  11.458
42585W        W14900   0.635  34.111  10.805
42586W        W14901  19.679   0.333   0.431
42587W        W14902  35.415  37.024  12.481
42588W        W14903   1.003  34.119  11.648
42589W        W14904  39.974  27.372   0.928
42590W        W14905  33.340   1.736  11.121
42591W        W14906  30.179  41.508   1.394
42592W        W14907  44.534  44.244  14.479
42593W        W14908  32.388  19.456   1.461
42594W        W14909  22.992   3.930   2.317
42595W        W14910   8.196  23.706  13.724
42596W        W14911   5.876  26.592   1.648
42597W        W14912  33.524  18.077   0.958
42598W        W14913  31.882  13.667   1.251
42599W        W14914  38.497  43.325  10.552
42600W        W14915  16.129  11.418  13.508
42601W        W14916  28.273  26.421  11.575
42602W        W14917  25.889  33.622  12.486
42603W        W14918  32.510  37.866   0.907
42604W        W14919  17.011  33.228   4.278
42605W        W14920  33.714   7.129   3.310
42606W        W14921   1.439  10.689  11.596
42607W        W14922  38.813  39.096  14.462
42608W        W14923   2.714  23.575   1.602
42609W        W14924  22.932   1.009  10.704
42610W        W14925  44.343  20.697   2.770
42611W        W14926  34.240  34.852   2.957
42612W        W14927   1.101  44.304   3.661
42613W        W14928   2.204  38.736   3.656
42614W        W14929  42.749  37.332   3.667
42615W        W14930  38.360  18.120  10.742
42616W        W14931   9.862  16.652  11.548
42617W        W14932  43.078   2.237  13.483
42618W        W14933  15.886   0.310   1.479
42619W        W14934  12.366   9.350   2.771
42620W        W14935  13.668  31.198   2.942
42621W        W14936  16.677  16.110   1.711
42622W        W14937  23.590  37.348  10.660
42623W        W14938  32.090  26.144   1.886
42624W        W14939  30.597  12.894   0.257
42625W        W14940  43.455  23.463   0.032
42626W        W14941   0.887  32.669   4.662
42627W        W14942  18.024  23.033   0.002
42628W        W14943   7.882  12.882   3.168
42629W        W14944  16.280  34.873   0.138
42630W        W14945  22.708  44.556   4.809
42631W        W14946  26.866   6.369   5.494
42632W        W14947   9.795  38.517  13.173
42633W        W14948  28.488  14.789   0.226
42634W        W14949  15.769  35.623  11.059
42635W        W14950  20.867  18.494  12.983
42636W        W14951  38.194  36.778  12.246
42637W        W14952  34.884  33.615   1.220
42638W        W14953  27.924  43.035  13.807
42639W        W14954  22.360  42.810   0.801
42640W        W14955   0.841  17.842   2.712
42641W        W14956  40.861  12.727  13.528
42642W        W14957  27.176   4.328  14.170
42643W        W14958  16.771  28.219   3.717
42644W        W14959  31.693   1.284   0.944
42645W        W14960   4.695  28.992   1.877
42646W        W14961  10.261  33.555  13.476
42647W        W14962  41.587   8.692   2.382
42648W        W14963   9.573   5.500  11.643
42649W        W14964  36.770   5.312  11.409
42650W        W14965  18.090  34.331  11.097
42651W        W14966  32.024  21.586  13.818
42652W        W14967  13.559  38.027   0.497
42653W        W14968  32.232  37.552  14.521
42654W        W14969  28.207  11.220  10.083
42655W        W14970  19.206   3.283  12.108
42656W        W14971  11.506  12.133  14.068
42657W        W14972   9.297  19.850  14.135
42658W        W14973  29.364  23.670  14.154
42659W        W14974  35.175  18.491  14.511
42660W        W14975  29.383   5.919  13.939
42661W        W14976  27.038   4.175   2.577
42662W        W14977  37.291  11.043  13.937
42663W        W14978  21.480   2.475  12.895
42664W        W14979  16.379  14.835   3.180
42665W        W14980  42.023  27.024  11.437
42666W        W14981  25.608   2.525  12.359
42667W        W14982  27.084   5.915   0.280
42668W        W14983  43.934  23.104  13.012
42669W        W14984   9.264  35.348   1.834
42670W        W14985  35.999  32.622  11.188
42671W        W14986  14.276  37.305  11.461
42672W        W14987  12.183  20.430   1.625
42673W        W14988  11.923   9.074   2.826
42674W        W14989  16.600  32.068   0.499
42675W        W14990  27.650   7.200  13.466
42676W        W14991  11.229  29.337  14.593
42677W        W14992  36.969  33.110  12.746
42678W        W14993   7.906  31.882  11.533
42679W        W14994  34.856  42.185  12.427
42680W        W14995  17.269  18.057  10.690
42681W        W14996   7.920  19.583   3.640
42682W        W14997  19.599  22.973  14.809
42683W        W14998  33.825   6.889   0.862
42684W        W14999   3.703  41.752  13.814
42685W        W15000  25.763  29.186   3.827
42686W        W15001  35.414   1.786  14.080
42687W        W15002  22.572   3.203   3.329
42688W        W15003  40.389  44.276  12.453
42689W        W15004  33.522  24.938  12.951
42690W        W15005  40.899  14.053  11.904
42691W        W15006  16.542  23.686   0.737
42692W        W15007   2.063  14.108   4.890
42693W        W15008  16.817  42.014  11.168
42694W        W15009  33.796   2.846   1.620
42695W        W15010  18.496  26.563  14.303
42696W        W15011  18.544  18.689   4.758
42697W        W15012   7.280  42.900   2.576
42698W        W15013   4.310  39.906  12.474
42699W        W15014  28.983  44.772   4.102
42700W        W15015   8.610  22.657  10.813
42701W        W15016  43.769  43.949   3.670
42702W        W15017  40.821   4.849  11.718
42703W        W15018  22.229  15.184   0.488
42704W        W15019  30.973   1.884   4.547
42705W        W15020   3.494  14.694  13.064
42706W        W15021  20.671  42.714   1.534
42707W        W15022  36.863  37.789  14.497
42708W        W15023  32.534  24.221   3.845
42709W        W15024   6.257  31.398   1.824
42710W        W15025   7.157  43.396   0.998
42711W        W15026   4.269  38.474   0.318
42712W        W15027  36.902  42.191   4.099
42713W        W15028  35.166  17.336   3.111
42714W        W15029  18.870  18.720  11.094
42715W        W15030  22.296  43.559  10.743
42716W        W15031  37.820  33.332  14.627
42717W        W15032  11.755  15.613   3.919
42718W        W15033   3.356  19.429   1.627
42719W        W15034  16.146  16.558   4.652
42720W        W15035  37.507  44.034   3.787
42721W        W15036  40.441  15.377  12.630
42722W        W15037  20.677  35.993   4.105
42723W        W15038  17.397   4.079  14.008
42724W        W15039  21.437   3.811  13.975
42725W        W15040  26.882  25.518   2.616
42726W        W15041  15.551  21.164  14.453
42727W        W15042  29.485   6.715  14.921
42728W        W15043  19.722  11.658  14.027
42729W        W15044  38.923  38.840   2.974
42730W        W15045   7.379   4.143   1.356
42731W        W15046  38.126  18.263  13.394
42732W        W15047  15.170  32.267   3.083
42733W        W15048  24.473   5.325   0.456
42734W        W15049  33.950  40.575   2.177
42735W        W15050  12.722   6.067  12.260
42736W        W15051   5.651  40.142  13.315
42737W        W15052  13.798  18.524   1.788
42738W        W15053  27.965  25.974   1.867
42739W        W15054  44.873   9.633   3.260
42740W        W15055   8.399  34.331   4.684
42741W        W15056  26.684   4.940  12.072
42742W        W15057  10.350  40.373  11.431
42743W        W15058  22.109  20.785  10.134
42744W        W15059  27.512   9.433   3.205
42745W        W15060  31.955  32.070  14.813
42746W        W15061  18.467  15.867   4.612
42747W        W15062  43.484  31.641   0.453
42748W        W15063  37.529  28.744  12.074
42749W        W15064   8.413  22.297  11.652
42750W        W15065  15.116  26.765   4.232
42751W        W15066  32.958  11.712   1.160
42752W        W15067  33.941  17.601   2.696
42753W        W15068  34.290  11.200   2.220
42754W        W15069  14.631  14.040   2.248
42755W        W15070  38.684  40.020   3.182
42756W        W15071  25.265   4.937   4.595
42757W        W15072  14.362  40.334   1.005
42758W        W15073  33.884  40.332  11.849
42759W        W15074  18.257  17.709   4.864
42760W        W15075  17.314  33.133  12.386
42761W        W15076  27.434  14.981   0.737
42762W        W15077  25.619   4.244   0.432
42763W        W15078  26.181  27.261   3.278
42764W        W15079  41.762  11.119  13.870
42765W        W15080  27.490  30.917  12.923
42766W        W15081  33.959  44.682  11.413
42767W        W15082   8.963  40.874   1.445
42768W        W15083  30.167  36.869   3.221
42769W        W15084  10.241  25.531  14.304
42770W        W15085  41.820  44.469   4.099
42771W        W15086  19.082   4.698  13.736
42772W        W15087   8.903  29.014  10.613
42773W        W15088  19.281  37.053  11.015
42774W        W15089  42.414  24.018  12.310
42775W        W15090  19.574  31.538   2.078
42776W        W15091  32.657  33.189   1.302
42777W        W15092  43.921  43.448  12.797
42778W        W15093  22.778  12.854   0.293
42779W        W15094   5.934  38.378   1.520
42780W        W15095  28.027  36.109  10.672
42781W        W15096  26.745  43.531   4.222
42782W        W15097  24.328  14.315  11.179
42783W        W15098  19.011  43.952  10.482
42784W        W15099  16.972   6.437  12.951
42785W        W15100   2.266  19.221   4.599
42786W        W15101   3.744  32.421   2.280
42787W        W15102   2.314   7.157  13.064
42788W        W15103  26.568  12.183   3.699
42789W        W15104  12.633  15.512   1.327
42790W        W15105  16.540   1.492   4.178
42791W        W15106   3.618  35.581  11.652
42792W        W15107   4.870   5.855  14.435
42793W        W15108  36.046  31.168   3.297
42794W        W15109  36.891   0.662   1.324
42795W        W15110  41.596  15.398   4.565
42796W        W15111   8.906  27.958   1.065
42797W        W15112  25.703  39.808   2.333
42798W        W15113  34.375   9.821  12.709
42799W        W15114  15.204   9.227  13.134
42800W        W15115   4.312  15.093   1.323
42801W        W15116  21.461  44.390  14.845
42802W        W15117  38.424   4.169  13.060
42803W        W15118  34.948  19.716   4.482
42804W        W15119  35.448   2.680   0.936
42805W        W15120  16.216  33.274   4.205
42806W        W15121  11.382  36.543  11.838
42807W        W15122   4.882  36.269  14.897
42808W        W15123  33.040  34.356  11.014
42809W        W15124  29.682  41.430   3.812
42810W        W15125  15.336  41.784  14.317
42811W        W15126  42.973  43.252   1.384
42812W        W15127  40.177  29.874   2.294
42813W        W15128  39.020  11.740   1.627
42814W        W15129  39.453  39.746  11.994
42815W        W15130  11.638  26.920  12.815
42816W        W15131  27.402   1.366   2.121
42817W        W15132  36.089  37.357  11.082
42818W        W15133  39.462  44.960   1.981
42819W        W15134  32.626  20.085  14.403
42820W        W15135  33.733  35.087   2.946
42821W        W15136   7.826  23.734  12.458
42822W        W15137  15.731  36.113  10.928
42823W        W15138  41.574  21.724   3.163
42824W        W15139  27.944  12.430  11.964
42825W        W15140   7.311  23.956  12.486
42826W        W15141   3.235  20.287  12.026
42827W        W15142  29.405  21.726   0.853
42828W        W15143   8.767  24.025   4.134
42829W        W15144   8.114   0.211  11.608
42830W        W15145  15.784  43.319   1.223
42831W        W15146  25.510  20.481  11.892
42832W        W15147   7.987   1.915   1.958
42833W        W15148  43.363  17.973  12.498
42834W        W15149  41.522  38.002   3.214
42835W        W15150  26.036  27.074  12.210
42836W        W15151   4.304  28.374  11.212
42837W        W15152  19.401   7.425   2.463
42838W        W15153  23.304  22.536   1.316
42839W        W15154  34.454   9.892   1.330
42840W        W15155  18.529  28.744   0.250
42841W        W15156  43.485  32.315   4.436
42842W        W15157  37.547  37.155   3.741
42843W        W15158  23.017  39.307  11.525
42844W        W15159  19.719   5.657  14.483
42845W        W15160  19.600  28.631  14.388
42846W        W15161  27.627   5.029  12.002
42847W        W15162  15.173  27.514  13.805
42848W        W15163  20.004  28.373   0.691
42849W        W15164  26.911  10.846   1.141
42850W        W15165  37.547  12.623  13.127
42851W        W15166  41.242  38.534   0.853
42852W        W15167  31.153  26.666   3.119
42853W        W15168  18.603  31.876   2.304
42854W        W15169  29.409  34.155   3.712
42855W        W15170  36.235  29.139  10.352
42856W        W15171  26.318   0.384  12.000
42857W        W15172  28.706   7.494   1.124
42858W        W15173  43.329  23.330   4.071
42859W        W15174   7.791  30.737  14.284
42860W        W15175   2.077   4.256  12.167
42861W        W15176   5.957  32.725   2.646
42862W        W15177   1.151  23.259   2.562
42863W        W15178  22.806   6.784  10.466
42864W        W15179  39.055  17.281   2.689
42865W        W15180  32.843  13.414   0.320
42866W        W15181  41.346  37.786   3.783
42867W        W15182   2.082  30.096   1.969
42868W        W15183  17.196  10.794   2.199
42869W        W15184  19.045   1.469  13.398
42870W        W15185   0.060  11.264   4.801
42871W        W15186  13.550  16.328   2.616
42872W        W15187   0.889  24.176   4.194
42873W        W15188  32.505  44.972  13.009
42874W        W15189   3.834   2.696   4.665
42875W        W15190   7.094  37.952   2.357
42876W        W15191  14.641   4.821  12.793
42877W        W15192  21.459  12.516   2.372
42878W        W15193  31.113   4.716   0.224
42879W        W15194  35.464  35.557  12.501
42880W        W15195  14.571  16.528   0.293
42881W        W15196  13.285  40.802   3.672
42882W        W15197  38.923  11.633  14.383
42883W        W15198  23.961  31.530  14.396
42884W        W15199  38.464   7.694  12.093
42885W        W15200  14.663  21.925  14.212
42886W        W15201  19.540   1.827  11.581
42887W        W15202  21.660   8.024   3.096
42888W        W15203  36.044  29.609  11.047
42889W        W15204  14.880   9.730  13.111
42890W        W15205  19.019   5.567  10.982
42891W        W15206   2.941  17.057  12.037
42892W        W15207   8.742  15.525  14.394
42893W        W15208  43.535   8.892  13.148
42894W        W15209  39.600  17.228  13.343
42895W        W15210  42.390   8.682   2.837
42896W        W15211   9.312  29.299   0.948
42897W        W15212  36.050  21.593   4.099
42898W        W15213  36.431  28.549   3.916
42899W        W15214  37.906  13.118  11.030
42900W        W15215   0.885  35.522  14.525
42901W        W15216  40.597  44.466   2.287
42902W        W15217  12.048  29.587   1.966
42903W        W15218   6.663  30.661  14.990
42904W        W15219   6.461  17.454   0.886
42905W        W15220   0.425  31.748   0.505
42906W        W15221   4.184  29.090  14.341
42907W        W15222  21.545  20.432   3.784
42908W        W15223   0.482  43.318  13.551
42909W        W15224   4.304   9.280   0.369
42910W        W15225  13.370  20.775   1.235
42911W        W15226  23.628  34.055  11.145
42912W        W15227   4.333   9.169   4.824
42913W        W15228  12.081  19.880   3.189
42914W        W15229  37.530   0.345  11.828
42915W        W15230  22.067  23.259   2.858
42916W        W15231  44.027  12.798  11.961
42917W        W15232  28.475  31.101  14.060
42918W        W15233   6.628  37.781  12.947
42919W        W15234  25.638  11.084   4.107
42920W        W15235  29.137  34.364  10.519
42921W        W15236  14.559   8.133  13.973
42922W        W15237  28.537  35.607   4.621
42923W        W15238  22.484  30.922  13.958
42924W        W15239  40.708  21.540   0.940
42925W        W15240  34.870  43.652   2.523
42926W        W15241  22.485  29.330  10.817
42927W        W15242  35.098  24.212  14.856
42928W        W15243   0.988   0.924   0.286
42929W        W15244  30.164  33.588   4.745
42930W        W15245  14.381   6.696  14.040
42931W        W15246  12.693  25.520  13.517
42932W        W15247  30.360  15.966   2.795
42933W        W15248  17.632  31.361  10.278
42934W        W15249   0.828  43.833   4.236
42935W        W15250  11.230  10.604   2.271
42936W        W15251   8.190  15.621   1.358
42937W        W15252  17.593  20.127  13.538
42938W        W15253  39.982   2.252   3.108
42939W        W15254   2.296  10.578   0.356
42940W        W15255   6.436   8.866  12.883
42941W        W15256  34.981   5.785   4.317
42942W        W15257  43.500  33.005   0.908
42943W        W15258   1.844   0.431  12.459
42944W        W15259  31.514  26.741  12.008
42945W        W15260  42.018   8.603   3.651
42946W        W15261  22.486   7.271  13.392
42947W        W15262  12.145   3.671   4.073
42948W        W15263  15.567   5.165   2.010
42949W        W15264  42.616  30.570   3.206
42950W        W15265  32.441   7.805  12.928
42951W        W15266  11.813  43.063  13.167
42952W        W15267  31.547   4.863   2.757
42953W        W15268  44.913  31.136  12.169
42954W        W15269  11.709  38.529   4.299
42955W        W15270  25.023  34.820   4.217
42956W        W15271  17.732  15.216   4.376
42957W        W15272  15.742  24.512  13.540
42958W        W15273  36.973  15.649  12.998
42959W        W15274  17.718  26.372   0.426
42960W        W15275  30.032  22.056   2.815
42961W        W15276   0.994  42.560   3.747
42962W        W15277  22.653  42.936  11.264
42963W        W15278  43.879  22.477   1.719
42964W        W15279  33.779  31.860   5.086
42965W        W15280  15.176  42.375  12.893
42966W        W15281  29.117  22.595  14.947
42967W        W15282  13.595  11.840  14.777
42968W        W15283   2.793  34.390  10.526
42969W        W15284   0.703   2.016  13.862
42970W        W15285  37.328  40.460  10.984
42971W        W15286  38.870  34.783   0.371
42972W        W15287  26.704   2.517   2.247
42973W        W15288  23.255   5.365   4.694
42974W        W15289  35.768  26.375   3.228
42975W        W15290  35.024  35.509   0.341
42976W        W15291  39.129  20.774   2.202
42977W        W15292  39.786  34.934   1.313
42978W        W15293  11.909  25.462   4.497
42979W        W15294  34.373   3.841  14.062
42980W        W15295   9.856  17.222  12.863
42981W        W15296   8.265  40.918  10.617
42982W        W15297  39.149  33.806   9.958
42983W        W15298  19.761  33.840   3.658
42984W        W15299  31.292   0.421  13.960
42985W        W15300  32.588   9.852  11.948
42986W        W15301  14.617  31.347  14.767
42987W        W15302  33.667  38.638  12.724
42988W        W15303  12.118  19.672   1.352
42989W        W15304  19.162  19.671  11.623
42990W        W15305  11.014  36.442  10.596
42991W        W15306   6.180  23.065  12.521
42992W        W15307   1.684  36.050   2.645
42993W        W15308  34.145   2.523  11.962
42994W        W15309   2.663  12.471   4.105
42995W        W15310   1.385  14.916   2.799
42996W        W15311  34.224  14.919   4.262
42997W        W15312  18.134  33.134  14.992
42998W        W15313   8.702  28.559  11.002
42999W        W15314   5.435  16.738  11.525
43000W        W15315  34.871  36.565  13.365
43001W        W15316  38.668  12.836  10.726
43002W        W15317  34.903  30.334   2.445
43003W        W15318  27.389  10.316  12.928
43004W        W15319   3.885  19.800  13.906
43005W        W15320  31.373  26.892   0.317
43006W        W15321  20.662  43.226   0.407
43007W        W15322   0.585  14.588   3.305
43008W        W15323  32.441  31.334  14.307
43009W        W15324   4.749  22.034   3.223
43010W        W15325  32.871  11.186   2.321
43011W        W15326  11.663   9.011  14.520
43012W        W15327  24.585  22.717  14.880
43013W        W15328   2.529  30.589   1.606
43014W        W15329  32.554   9.424  12.562
43015W        W15330   9.412  17.841   2.213
43016W        W15331  36.009  20.134  14.406
43017W        W15332  36.299   5.703   0.936
43018W        W15333  12.612   0.400   1.383
43019W        W15334  10.069   5.337  10.721
43020W        W15335   5.640  35.998  12.988
43021W        W15336  41.746  34.528  13.062
43022W        W15337  10.253  29.276   4.737
43023W        W15338   5.264  18.695  14.139
43024W        W15339  35.995   2.805  13.713
43025W        W15340  16.247  25.060   4.166
43026W        W15341   8.443  24.850   0.328
43027W        W15342  41.041  31.009  14.251
43028W        W15343  26.386  12.164  12.803
43029W        W15344   2.832  25.230   2.945
43030W        W15345  36.873  14.223   0.289
43031W        W15346  15.896  19.535  14.946
43032W        W15347   0.494  34.638  12.979
43033W        W15348  12.693  31.487  14.822
43034W        W15349  26.172  10.735  11.365
43035W        W15350  14.519  17.312  11.513
43036W        W15351  27.691  18.109   1.486
43037W        W15352  38.093  13.344  12.444
43038W        W15353  11.915  41.302  11.819
43039W        W15354  36.426  17.176  13.477
43040W        W15355  16.590   1.847   4.814
43041W        W15356  44.100  29.132   0.527
43042W        W15357  33.778  39.735   1.320
43043W        W15358   4.517  38.026  14.500
43044W        W15359  24.963  21.243  12.028
43045W        W15360  44.421  15.063  10.694
43046W        W15361  43.496  26.751   4.145
43047W        W15362  22.206  12.159  14.072
43048W        W15363   8.905  30.557   2.291
43049W        W15364  17.233  10.260  12.547
43050W        W15365  31.715  15.543   0.797
43051W        W15366  34.850  22.612   0.296
43052W        W15367  17.019  15.577   4.656
43053W        W15368  30.101  31.004  14.467
43054W        W15369  15.203  32.504  14.374
43055W        W15370  15.383  44.894   2.372
43056W        W15371  27.992   4.876  10.321
43057W        W15372  10.254   8.630   0.490
43058W        W15373  30.126   8.660   3.286
43059W        W15374  13.825  38.104  14.403
43060W        W15375  16.267  31.160   0.403
43061W        W15376  37.358  19.034  12.610
43062W        W15377  26.595  27.450  10.662
43063W        W15378   2.485  16.716   1.290
43064W        W15379   4.704  39.935  12.143
43065W        W15380  40.899  36.793  13.441
43066W        W15381   3.174  39.978   4.583
43067W        W15382  26.045  34.117  12.474
43068W        W15383  16.267  18.551   2.342
43069W        W15384  21.461  44.242   1.012
43070W        W15385  40.566  11.171  14.780
43071W        W15386  15.406  35.619  12.836
43072W        W15387  19.603  17.655   4.742
43073W        W15388   3.936   9.153   2.541
43074W        W15389  19.327  25.647  14.322
43075W        W15390  18.662  25.714   2.608
43076W        W15391  35.554  19.687   0.273
43077W        W15392  40.426   3.919   1.424
43078W        W15393   0.075   7.626   3.998
43079W        W15394  23.706  20.339   0.441
43080W        W15395  33.853  10.050  12.085
43081W        W15396  33.499   9.239   0.747
43082W        W15397  43.319   0.037  13.477
43083W        W15398   1.189  40.339   3.623
43084W        W15399  38.287  23.154  14.515
43085W        W15400   9.347  13.204   4.171
43086W        W15401  10.415  44.776   0.703
43087W        W15402  29.874   4.346  14.998
43088W        W15403   0.495   2.292  11.059
43089W        W15404  24.451  29.715   3.629
43090W        W15405  22.030  10.997  14.525
43091W        W15406  40.490  24.895   4.157
43092W        W15407  10.531  41.184   4.566
43093W        W15408  42.907  12.160  13.675
43094W        W15409   5.002  33.118  10.359
43095W        W15410   3.018  18.669   2.487
43096W        W15411   3.025  10.975  13.876
43097W        W15412  28.085  14.229   0.912
43098W        W15413  37.132   2.293   3.330
43099W        W15414  32.333  19.163   0.622
43100W        W15415  10.274  42.293  12.004
43101W        W15416  32.122  14.105   1.820
43102W        W15417  18.659   0.451   4.220
43103W        W15418  29.517   2.159   3.179
43104W        W15419  23.912  43.404   1.822
43105W        W15420  19.104  38.817   5.703
43106W        W15421  16.112  42.551   4.261
43107W        W15422  41.749  19.483   1.566
43108W        W15423   5.910  14.147   1.015
43109W        W15424   1.284  27.824  12.142
43110W        W15425   5.891  16.637   4.213
43111W        W15426  28.966  32.694  14.260
43112W        W15427  17.218  26.175  14.755
43113W        W15428  14.053  34.583  12.447
43114W        W15429  39.916  17.727  12.715
43115W        W15430  19.370  11.263   5.490
43116W        W15431  21.026   8.827   3.103
43117W        W15432  42.908  11.380   2.237
43118W        W15433  43.267  21.223  13.989
43119W        W15434  40.310  33.574   1.846
43120W        W15435   3.063  26.686   0.333
43121W        W15436  10.864   4.180   1.761
43122W        W15437   7.794  16.845  11.644
43123W        W15438   5.986  22.187   1.253
43124W        W15439  23.157   6.569   1.867
43125W        W15440  26.002  20.932  11.062
43126W        W15441  29.114  26.421  11.136
43127W        W15442   0.905  17.652   4.579
43128W        W15443  15.765  36.105   1.723
43129W        W15444  20.635  22.189   2.284
43130W        W15445  31.773  40.289  14.247
43131W        W15446  13.315  36.917   1.500
43132W        W15447  33.510  25.553   3.178
43133W        W15448  12.833   1.217  10.372
43134W        W15449  17.105   8.210  14.474
43135W        W15450   8.161  44.570  13.206
43136W        W15451  26.243  34.320   0.347
43137W        W15452  17.442  12.915   1.258
43138W        W15453  30.607   8.130  10.733
43139W        W15454  37.054  26.951   2.104
43140W        W15455  27.067   9.591  10.489
43141W        W15456  24.076   6.630  11.749
43142W        W15457  20.399  36.059   1.362
43143W        W15458   8.820  35.021  14.881
43144W        W15459  30.575  23.426   3.206
43145W        W15460  38.831  13.170   4.805
43146W        W15461  41.141  25.149  11.639
43147W        W15462   4.131  41.056   2.851
43148W        W15463  39.955  43.006   2.317
43149W        W15464  14.720  32.740  14.394
43150W        W15465  28.603  15.850   1.381
43151W        W15466  41.325  25.821  11.826
43152W        W15467   5.967   9.299  13.751
43153W        W15468  40.543  17.303  14.971
43154W        W15469  38.837  33.385   0.634
43155W        W15470  14.333  31.563  10.438
43156W        W15471  16.392  11.754  11.065
43157W        W15472  40.255  40.511  14.816
43158W        W15473  34.108  31.415  14.118
43159W        W15474  29.052  21.531   2.670
43160W        W15475  37.042   0.858  14.412
43161W        W15476  21.610  35.545   1.653
43162W        W15477  33.597  39.549  12.611
43163W        W15478  23.790  28.254   4.120
43164W        W15479  17.119  23.538  12.988
43165W        W15480  38.436   7.931   4.138
43166W        W15481   6.243  39.282   1.444
43167W        W15482  31.355  18.952   4.094
43168W        W15483  24.146   2.443  14.507
43169W        W15484  39.616   7.108   3.239
43170W        W15485  10.929  10.428  13.937
43171W        W15486  29.004  13.187  12.984
43172W        W15487  26.673   0.882   1.267
43173W        W15488   2.956   5.054  11.154
43174W        W15489  10.250   0.441  10.427
43175W        W15490  40.209  38.843   4.699
43176W        W15491  37.699  22.193  14.602
43177W        W15492  31.189  26.511   4.106
43178W        W15493  32.367  28.681  13.354
43179W        W15494  27.206  14.780   0.078
43180W        W15495   2.943  29.344  14.458
43181W        W15496  39.202   1.792   2.740
43182W        W15497  26.452  39.097  13.901
43183W        W15498  34.873   9.160  13.888
43184W        W15499  17.073  11.264  13.897
43185W        W15500  29.094  28.379  14.174
43186W        W15501   0.907   5.211  12.019
43187W        W15502  36.820  16.789   4.126
43188W        W15503   6.526  43.123  11.545
43189W        W15504  23.093  19.336   5.132
43190W        W15505  12.835   4.290  12.587
43191W        W15506   0.854   8.827  11.496
43192W        W15507  12.863  43.861  11.832
43193W        W15508   8.647  22.177  14.506
43194W        W15509  14.137  12.336   2.099
43195W        W15510   2.201  10.697  11.993
43196W        W15511  30.899  33.490  11.995
43197W        W15512   6.243  27.524   2.779
43198W        W15513   7.557   7.943   1.435
43199W        W15514  43.428   2.979  12.943
43200W        W15515  40.818  14.078  13.093
43201W        W15516  36.133  42.440   2.897
43202W        W15517  16.934  20.682   4.269
43203W        W15518  30.953   5.513   0.698
43204W        W15519  41.505   3.635   2.788
43205W        W15520  12.295  19.207  14.845
43206W        W15521  29.180   9.118   2.705
43207W        W15522  32.893  23.094   3.247
43208W        W15523  20.681  38.319   1.235
43209W        W15524  40.840  16.707  12.466
43210W        W15525  25.006  35.409  13.788
43211W        W15526  18.100  19.496   1.313
43212W        W15527  20.335   3.723  10.516
43213W        W15528  29.359  40.941  11.000
43214W        W15529  43.363  10.492   3.772
43215W        W15530   8.918  41.504   2.901
43216W        W15531  43.426  18.182  11.484
43217W        W15532  26.649  18.330   2.279
43218W        W15533  14.787  22.852   4.696
43219W        W15534  25.945  28.018   3.776
43220W        W15535  28.454  11.779   1.028
43221W        W15536  44.256   7.691  12.644
43222W        W15537  29.730  32.540  12.002
43223W        W15538  36.414  18.466   1.782
43224W        W15539   3.490  11.183  13.959
43225W        W15540  25.609  12.119   4.232
43226W        W15541  30.540  33.440   5.110
43227W        W15542  32.200  11.727   0.871
43228W        W15543  22.927  22.095   5.081
43229W        W15544  28.889  39.278  10.227
43230W        W15545  19.562  34.365  12.050
43231W        W15546  44.523  30.030  13.431
43232W        W15547  17.965  17.295  14.709
43233W        W15548  30.945  23.802  11.987
43234W        W15549  22.505   0.455  13.503
43235W        W15550  24.930   6.070  12.103
43236W        W15551  31.970  44.127   0.708
43237W        W15552  17.825  15.825   2.518
43238W        W15553   2.406   2.184   3.171
43239W        W15554  34.865  21.206  12.592
43240W        W15555  37.945  29.977   4.689
43241W        W15556  31.916  26.944  11.757
43242W        W15557  11.228  28.581  12.131
43243W        W15558   0.539  41.568   2.288
43244W        W15559  20.856  26.955   4.123
43245W        W15560  31.653  44.235   5.395
43246W        W15561   6.793  37.948   1.920
43247W        W15562   5.630  29.196   0.276
43248W        W15563  18.641  11.222  12.199
43249W        W15564  38.730   3.471   0.692
43250W        W15565  44.192  43.091   4.208
43251W        W15566  22.076  43.052   1.451
43252W        W15567   6.551  22.954  12.204
43253W        W15568   6.720  15.560   0.924
43254W        W15569   1.895  41.038  10.867
43255W        W15570  33.687  34.563  13.900
43256W        W15571  38.421   1.304   4.156
43257W        W15572  40.418  31.426   3.607
43258W        W15573  18.212  39.711   0.773
43259W        W15574   9.604  27.159  11.394
43260W        W15575   6.459   6.710   1.939
43261W        W15576  13.855  32.594  10.439
43262W        W15577  17.659  13.258   0.488
43263W        W15578  28.114   0.395  13.344
43264W        W15579  42.795  22.919  11.569
43265W        W15580  32.555  24.991   2.160
43266W        W15581  43.316  27.810  13.986
43267W        W15582   9.675   3.608   1.363
43268W        W15583  44.770  21.445  12.844
43269W        W15584  22.476   1.231   2.197
43270W        W15585  14.528  15.768   3.199
43271W        W15586  43.313  34.617   4.085
43272W        W15587  29.193  43.504   1.288
43273W        W15588  22.067   7.736  10.358
43274W        W15589  42.463   8.400  13.321
43275W        W15590  15.700  14.674  13.391
43276W        W15591   4.873  23.525  14.372
43277W        W15592  24.229  12.165  10.683
43278W        W15593  34.100  20.478   0.192
43279W        W15594  27.658  30.989   2.255
43280W        W15595  36.500   0.798  10.684
43281W        W15596  37.797   6.931  11.928
43282W        W15597  21.957  30.967   2.359
43283W        W15598  33.961   9.709   4.265
43284W        W15599  20.132  44.847   1.273
43285W        W15600  15.258  18.034  10.780
43286W        W15601  42.984  40.889   4.323
43287W        W15602   7.947  18.693  12.045
43288W        W15603  35.154   8.664   2.323
43289W        W15604  12.206  11.420   3.461
43290W        W15605  12.210  13.787  10.689
43291W        W15606  19.935  42.629  14.046
43292W        W15607  12.581  35.256  13.461
43293W        W15608  10.781  36.849   4.845
43294W        W15609   0.821  24.719   2.197
43295W        W15610  19.688   9.280  11.411
43296W        W15611   6.913  31.868   0.506
43297W        W15612   8.397  17.100   0.676
43298W        W15613  42.471  41.805  14.811
43299W        W15614  20.750  44.693  12.929
43300W        W15615  20.206  13.396   1.831
43301W        W15616   2.915  27.954  14.394
43302W        W15617   3.231  21.217   5.038
43303W        W15618  17.483  28.385   1.487
43304W        W15619  24.655   0.011  13.577
43305W        W15620  13.136  35.857   3.616
43306W        W15621   5.459  35.583  11.190
43307W        W15622  36.899  11.365  13.963
43308W        W15623  32.519  10.816   3.836
43309W        W15624   1.089  27.457  12.823
43310W        W15625  27.299  10.132   2.767
43311W        W15626   1.354  10.222   2.382
43312W        W15627  24.013  44.057  10.034
43313W        W15628  37.974   6.293   0.792
43314W        W15629  39.815   3.505   2.258
43315W        W15630  31.493  39.407   2.887
43316W        W15631  12.823   1.354   3.384
43317W        W15632   1.838   1.024   1.193
43318W        W15633  27.280  31.598  12.618
43319W        W15634  36.058  18.320   2.660
43320W        W15635  28.910   3.647  11.995
43321W        W15636  39.543  37.989  13.273
43322W        W15637  34.286   9.208   0.344
43323W        W15638   7.863  36.464  12.051
43324W        W15639  11.973  38.266   3.308
43325W        W15640  11.393  26.439   1.298
43326W        W15641   9.213  16.216   1.782
43327W        W15642  41.829  24.069   3.215
43328W        W15643   7.887  34.640  11.625
43329W        W15644  19.586  13.030  14.318
43330W        W15645  34.463   2.512   3.641
43331W        W15646   2.351   6.508   3.588
43332W        W15647  38.905  36.848   1.618
43333W        W15648  40.328  31.280   0.345
43334W        W15649  33.345  16.433   4.171
43335W        W15650  11.260  34.677   4.051
43336W        W15651  21.484  26.486  11.062
43337W        W15652  19.709   7.443   4.600
43338W        W15653   6.895  31.554  12.936
43339W        W15654   8.448   0.026  11.261
43340W        W15655  10.745  25.841  11.407
43341W        W15656  23.174  26.593   3.631
43342W        W15657   4.381   9.909   2.306
43343W        W15658   1.366  19.881   3.799
43344W        W15659  26.623  24.607   2.795
43345W        W15660  33.790  22.655   4.445
43346W        W15661  34.162  22.679   0.976
43347W        W15662  11.855  32.192   5.043
43348W        W15663  21.610  21.618  12.987
43349W        W15664   7.916  41.853  14.546
43350W        W15665  42.020  11.299   0.868
43351W        W15666  35.819  15.566   0.497
43352W        W15667   5.638  29.629  11.181
43353W        W15668   4.341  22.753   2.143
43354W        W15669  14.109  40.927   0.369
43355W        W15670   7.152  14.762   3.238
43356W        W15671  42.931  42.012  14.677
43357W        W15672  12.743  14.689  12.632
43358W        W15673  11.960  38.112  14.168
43359W        W15674  22.736  26.498   9.809
43360W        W15675   7.691  30.588  14.772
43361W        W15676   1.775  32.423   3.247
43362W        W15677  42.054  23.741  12.017
43363W        W15678   2.375  21.106  14.580
43364W        W15679  42.835  14.323   3.155
43365W        W15680  38.780   3.237   2.852
43366W        W15681  33.970  20.326   1.625
43367W        W15682   0.056  29.719  13.092
43368W        W15683  43.810  25.191   0.013
43369W        W15684  17.034  34.610   0.436
43370W        W15685  33.210  12.710   2.173
43371W        W15686  31.344  19.132   0.933
43372W        W15687   7.561  44.307   4.639
43373W        W15688  19.143  33.524   2.279
43374W        W15689   6.640  36.374   2.790
43375W        W15690  40.055   7.214   1.841
43376W        W15691   3.012  25.031  14.381
43377W        W15692   1.390  34.166  10.686
43378W        W15693   0.079  15.348   1.674
43379W        W15694  37.045  26.482  12.353
43380W        W15695  28.119  40.412  13.046
43381W        W15696  40.414  27.974  11.421
43382W        W15697  43.960  35.544  10.795
43383W        W15698  21.132  16.577   2.666
43384W        W15699  37.318  15.842   0.280
43385W        W15700  21.550  22.126   4.702
43386W        W15701  31.077  23.286   3.715
43387W        W15702  17.908   9.365  10.687
43388W        W15703  39.132  28.564   0.245
43389W        W15704  21.359  21.414  14.762
43390W        W15705  29.052   4.858   3.218
43391W        W15706  31.709  29.426  14.034
43392W        W15707  24.730  34.645  14.586
43393W        W15708   9.910   9.875  13.421
43394W        W15709   1.263   4.247  11.611
43395W        W15710  16.685  12.654   0.058
43396W        W15711  27.390  15.631  10.721
43397W        W15712  43.431  37.483  12.296
43398W        W15713  14.123  29.832  14.737
43399W        W15714   6.944   2.881  11.272
43400W        W15715  41.976  10.212  10.258
43401W        W15716  24.506   5.509  11.783
43402W        W15717  41.866  18.450   2.970
43403W        W15718  18.580  14.397  13.004
43404W        W15719  27.998  35.620  10.477
43405W        W15720  26.641  43.936   3.294
43406W        W15721  26.704  21.184  13.939
43407W        W15722  15.582   5.381  12.330
43408W        W15723  11.886   4.305  14.004
43409W        W15724  25.728   2.376   3.240
43410W        W15725  30.796  39.686  14.833
43411W        W15726  40.558  21.114   0.220
43412W        W15727  32.956  19.031   3.288
43413W        W15728  14.089   3.999   0.428
43414W        W15729  40.973  26.167   0.016
43415W        W15730  18.516   1.275  12.537
43416W        W15731  41.933  32.975  14.016
43417W        W15732   2.013  11.761   2.332
43418W        W15733  13.664  33.982  13.912
43419W        W15734  42.592   0.610   1.655
43420W        W15735  21.969  23.695  12.576
43421W        W15736  10.942  15.499   2.960
43422W        W15737  38.887  23.913   2.112
43423W        W15738   9.757  43.007  12.500
43424W        W15739  29.223  28.594  11.577
43425W        W15740  25.460  31.807   1.664
43426W        W15741  13.845  42.406  11.647
43427W        W15742  12.731   6.702   1.759
43428W        W15743  38.582   6.327  12.605
43429W        W15744  34.866  23.469   3.194
43430W        W15745  32.388  26.130  13.396
43431W        W15746  30.108  30.248   3.040
43432W        W15747  22.059  13.528   0.779
43433W        W15748  28.415   2.282  10.495
43434W        W15749  40.427  23.532  10.286
43435W        W15750  22.019  41.873  11.525
43436W        W15751  31.742   0.056   4.081
43437W        W15752   9.897  27.684   2.710
43438W        W15753  41.419   9.404  12.315
43439W        W15754  30.611  30.286   2.868
43440W        W15755  28.747  30.142   3.131
43441W        W15756  35.887  10.125  10.935
43442W        W15757  32.413  20.059  13.176
43443W        W15758  43.902  31.412   3.656
43444W        W15759  30.452   6.280   4.091
43445W        W15760  31.212   7.329   2.773
43446W        W15761  25.125  29.217  11.628
43447W        W15762  24.504  28.567  11.455
43448W        W15763  40.850  33.536  13.468
43449W        W15764  29.433  33.524  13.793
43450W        W15765  23.487  14.278   1.043
43451W        W15766  24.096  26.796   0.295
43452W        W15767   1.920  26.028  12.993
43453W        W15768  24.907  10.778   0.702
43454W        W15769  39.332  30.065   4.091
43455W        W15770   1.178  11.295  14.114
43456W        W15771  12.809  30.395  13.741
43457W        W15772  26.169  30.255  13.085
43458W        W15773  14.222  43.499   3.138
43459W        W15774  41.898  43.072  12.488
43460W        W15775   7.665  10.546  12.551
43461W        W15776  38.554   7.827   1.788
43462W        W15777  30.062  35.909   3.242
43463W        W15778  43.369  35.594  14.801
43464W        W15779  40.817   2.661   1.718
43465W        W15780  17.467  12.217  11.549
43466W        W15781   5.495   0.513   2.773
43467W        W15782  10.088  32.959  10.506
43468W        W15783  25.760  27.110  14.832
43469W        W15784  15.023  16.203  11.115
43470W        W15785  10.818   9.958  12.094
43471W        W15786  31.133  39.876  11.499
43472W        W15787  19.808  20.224   3.617
43473W        W15788   2.329  37.588   3.126
43474W        W15789  20.881  39.318  11.424
43475W        W15790  36.884  26.427  12.944
43476W        W15791  27.238  21.714   2.865
43477W        W15792  39.080   9.821  11.125
43478W        W15793   9.822   5.994   3.667
43479W        W15794  22.208  35.072  14.821
43480W        W15795  32.560  33.912  10.641
43481W        W15796  27.678   2.658   3.173
43482W        W15797   5.898  19.743  14.985
43483W        W15798   5.568  11.200   2.764
43484W        W15799   2.634  23.599   5.026
43485W        W15800   7.598  36.405   1.824
43486W        W15801   8.877  40.002   1.878
43487W        W15802   6.939   0.843  11.959
43488W        W15803   9.767  38.507  13.666
43489W        W15804   3.228  26.704  11.496
43490W        W15805  10.570  26.783   1.839
43491W        W15806  38.418  19.530  13.618
43492W        W15807   0.347  33.082   3.572
43493W        W15808  21.044  16.522  11.613
43494W        W15809  20.083   8.680  11.178
43495W        W15810  29.442  19.773  13.103
43496W        W15811  27.533  37.822   1.308
43497W        W15812  43.874  22.754   2.145
43498W        W15813   8.175   1.081  12.330
43499W        W15814  43.087  21.527  11.617
43500W        W15815  11.457  32.712   0.820
43501W        W15816  19.592   7.260   2.021
43502W        W15817  24.055  40.528   0.789
43503W        W15818  25.422  11.883  12.900
43504W        W15819  33.872   9.001  12.056
43505W        W15820  35.971  29.801   3.634
43506W        W15821  36.029  15.117  14.007
43507W        W15822  31.976  18.338   4.137
43508W        W15823  44.997   5.947  12.897
43509W        W15824  38.799  18.793   2.665
43510W        W15825  26.024  20.245   1.768
43511W        W15826  28.512  12.853   3.246
43512W        W15827   0.649  16.064  10.851
43513W        W15828  36.303  29.251   4.499
43514W        W15829  18.720  35.088  12.920
43515W        W15830  38.233  37.946   3.711
43516W        W15831  11.785   1.915   4.081
43517W        W15832  25.121   9.390   4.168
43518W        W15833  22.171  31.385   4.670
43519W        W15834  31.424  29.979  10.769
43520W        W15835  19.665  18.316   3.744
43521W        W15836  32.488  30.074   1.366
43522W        W15837   8.344  29.004   0.822
43523W        W15838  20.235   5.586   4.931
43524W        W15839  21.291  15.182   1.192
43525W        W15840   1.019  44.985  12.013
43526W        W15841  41.100   8.898  14.072
43527W        W15842  29.027  14.774  13.162
43528W        W15843  20.229  39.834  12.482
43529W        W15844  21.671  22.921   1.179
43530W        W15845  32.746  39.243  10.587
43531W        W15846   0.353  14.760   3.727
43532W        W15847   0.769  16.834  11.504
43533W        W15848  29.844   7.281   3.311
43534W        W15849  25.090   1.803   2.317
43535W        W15850  37.864  19.340  14.377
43536W        W15851   4.979   0.827  12.116
43537W        W15852  43.438  29.693   2.376
43538W        W15853  26.961  14.318   2.495
43539W        W15854  31.853   6.220  12.513
43540W        W15855   5.218  14.243   0.302
43541W        W15856  13.282  37.953  12.914
43542W        W15857   6.329  10.564  11.131
43543W        W15858  44.556   2.749   0.544
43544W        W15859  12.048  14.149   4.687
43545W        W15860  32.480  38.044  14.474
43546W        W15861  44.889  44.446  13.883
43547W        W15862   4.657  44.374   2.364
43548W        W15863  33.956  10.980  11.030
43549W        W15864  36.325  18.721   0.863
43550W        W15865   5.902  28.673   2.254
43551W        W15866  43.814   9.995   3.890
43552W        W15867  23.641  29.607  13.510
43553W        W15868   5.833  43.376  10.760
43554W        W15869  42.860   4.996  11.059
43555W        W15870   8.337  40.391   1.763
43556W        W15871  10.139  33.001   1.186
43557W        W15872  14.311  11.360   0.673
43558W        W15873   5.019  25.294  14.213
43559W        W15874  11.894  39.875  14.365
43560W        W15875   1.155  43.172  12.941
43561W        W15876  35.890  33.966  13.870
43562W        W15877   6.315  18.869   4.568
43563W        W15878   4.761  22.932  11.966
43564W        W15879  17.666   8.105   4.018
43565W        W15880  17.072  35.646   0.412
43566W        W15881  33.172  20.529  12.110
43567W        W15882   5.920   5.062  10.750
43568W        W15883  33.633   2.007  10.780
43569W        W15884  20.745   3.999  13.449
43570W        W15885  26.512   4.904   3.573
43571W        W15886  28.953  41.588  14.915
43572W        W15887  12.902  27.949  14.888
43573W        W15888  40.220  19.258  12.128
43574W        W15889  38.395  22.066   4.227
43575W        W15890   3.396  28.221  10.884
43576W        W15891  38.152  17.738   2.485
43577W        W15892  37.058  10.442   4.250
43578W        W15893  34.202  28.419   2.343
43579W        W15894   7.657  36.504   2.740
43580W        W15895  27.505  30.336  10.196
43581W        W15896  40.656  30.026   3.201
43582W        W15897  31.901  19.101   4.676
43583W        W15898  39.302  41.849   2.703
43584W        W15899  17.018  10.332   3.753
43585W        W15900  20.662  23.562   0.981
43586W        W15901   9.702  13.820  10.947
43587W        W15902   9.175  18.786   4.560
43588W        W15903  12.868  44.709  14.967
43589W        W15904   7.280  16.035   3.595
43590W        W15905  39.527  16.129   0.792
43591W        W15906  42.310  40.903   0.306
43592W        W15907   5.419   9.790   2.851
43593W        W15908   2.307  40.902   1.438
43594W        W15909  19.080   2.487   3.635
43595W        W15910  23.498   7.838   3.738
43596W        W15911   7.882   3.844   4.366
43597W        W15912  29.765  19.858  11.687
43598W        W15913   7.596  21.565  14.886
43599W        W15914  25.061  36.725  11.556
43600W        W15915   8.445  11.873  12.079
43601W        W15916   0.504   9.915   0.928
43602W        W15917   2.056  25.651   3.714
43603W        W15918  20.267  28.923   4.129
43604W        W15919  29.032  25.617   4.355
43605W        W15920  26.324  10.044   4.504
43606W        W15921  10.153   2.401  10.809
43607W        W15922   8.903  13.289   1.717
43608W        W15923   4.218  30.365  12.093
43609W        W15924  34.319  42.521   2.231
43610W        W15925  25.120  21.471  13.979
43611W        W15926  22.240  26.481   2.771
43612W        W15927  13.853  44.825   0.133
43613W        W15928  21.477  37.143  14.224
43614W        W15929   7.342  39.097  14.027
43615W        W15930  16.120  15.958  13.126
43616W        W15931  21.120  31.051   1.826
43617W        W15932  31.417  22.292   4.140
43618W        W15933  20.870  37.401  10.678
43619W        W15934   5.156  27.988   3.377
43620W        W15935  12.943   7.653  13.233
43621W        W15936  27.261   9.208   2.757
43622W        W15937   6.846   5.959   2.333
43623W        W15938  14.537   2.997  13.789
43624W        W15939  14.622  23.541  11.446
43625W        W15940  32.113  11.807  10.636
43626W        W15941  19.431   4.340   0.920
43627W        W15942  32.467  18.716   2.223
43628W        W15943   9.821   5.227  12.051
43629W        W15944  15.526  30.556   1.705
43630W        W15945   1.397   9.421   2.868
43631W        W15946   6.887   9.717   1.311
43632W        W15947   6.590  16.299   2.638
43633W        W15948  29.076  27.345  14.228
43634W        W15949  37.327  32.374  10.556
43635W        W15950  41.104  41.049   2.673
43636W        W15951  24.542  33.084  10.750
43637W        W15952  27.628  36.829  13.823
43638W        W15953  38.580   8.684   1.341
43639W        W15954  30.365  14.780  14.339
43640W        W15955  22.793   6.846  12.102
43641W        W15956  43.455   1.582  10.631
43642W        W15957  12.285  41.049  14.180
43643W        W15958  29.643  15.303   3.703
43644W        W15959   9.324  11.659   4.607
43645W        W15960  28.540  12.269   1.231
43646W        W15961  23.738  28.452  12.523
43647W        W15962  43.903  12.727   1.919
43648W        W15963   3.809   6.698  12.551
43649W        W15964  40.674  28.778  10.267
43650W        W15965  32.484   0.258  10.834
43651W        W15966  28.975   2.697  14.704
43652W        W15967  16.895  35.358   3.687
43653W        W15968  12.339   3.425  14.903
43654W        W15969   0.819  27.106   3.538
43655W        W15970  15.691  37.354   1.474
43656W        W15971  14.275  39.578   4.139
43657W        W15972  27.489   0.243   0.426
43658W        W15973   6.775   8.270  13.495
43659W        W15974  17.003  13.503   2.616
43660W        W15975  11.111  32.696   3.265
43661W        W15976   2.130  28.015   9.888
43662W        W15977  24.242  12.772   9.850
43663W        W15978   6.860  25.577   2.699
43664W        W15979   8.685  23.770  14.883
43665W        W15980  22.147   9.300  11.716
43666W        W15981  25.621  14.287  14.999
43667W        W15982   1.923  26.588  14.454
43668W        W15983  31.500  12.743   4.938
43669W        W15984   2.595   9.935   3.303
43670W        W15985  27.817   9.882  14.135
43671W        W15986   2.354   8.553  13.877
43672W        W15987  40.638  44.926  13.875
43673W        W15988  25.829   6.685   9.976
43674W        W15989   7.028  41.882  13.881
43675W        W15990  44.402  26.775  12.514
43676W        W15991  44.041   4.944  11.495
43677W        W15992   4.823  13.256  14.861
43678W        W15993  18.041  25.731   3.182
43679W        W15994  43.917  13.651   4.731
43680W        W15995  29.423  10.915   1.038
43681W        W15996   3.946  21.387   3.357
43682W        W15997  43.634  44.428  11.484
43683W        W15998  15.725   8.686   1.904
43684W        W15999  11.233  29.313  14.095
43685W        W16000  39.838  25.444  11.032
43686W        W16001  28.897  18.232   4.129
43687W        W16002  22.041   8.904  12.637
43688W        W16003  35.930  31.584  13.532
43689W        W16004  40.385  25.007   9.825
43690W        W16005   9.824  33.600   3.753
43691W        W16006  11.774  27.196   4.226
43692W        W16007  28.103  11.640   0.202
43693W        W16008  33.512  24.016   3.967
43694W        W16009  28.490  19.107   2.551
43695W        W16010   6.235  38.063  11.957
43696W        W16011   9.702  33.474  11.448
43697W        W16012  44.991  33.092  10.575
43698W        W16013  44.869  20.027   1.706
43699W        W16014  39.391   9.742  12.959
43700W        W16015  14.275  42.769  14.380
43701W        W16016  32.093  11.282   0.067
43702W        W16017  26.923  17.646  14.509
43703W        W16018  42.387  27.029   1.349
43704W        W16019   8.637  18.850   4.535
43705W        W16020   6.429  21.734  12.955
43706W        W16021   7.781   8.514  13.155
43707W        W16022  23.883  20.971  12.457
43708W        W16023  36.325  23.948  14.284
43709W        W16024  29.240  32.631  11.823
43710W        W16025  19.422   2.585   4.278
43711W        W16026  37.960  25.186   2.882
43712W        W16027  39.809  12.272   4.593
43713W        W16028  22.987  40.237   3.919
43714W        W16029  11.836   7.361   1.305
43715W        W16030  13.005  31.857   4.994
43716W        W16031  12.338   2.769  14.563
43717W        W16032  19.102  17.836   1.705
43718W        W16033   1.467  17.738  12.131
43719W        W16034   5.101   5.931  13.969
43720W        W16035  28.598  21.032  10.532
43721W        W16036  12.848   0.470   2.410
43722W        W16037  21.114   1.468  10.894
43723W        W16038  23.560  13.310   4.248
43724W        W16039  25.135  12.099  14.099
43725W        W16040  30.038   7.293   2.829
43726W        W16041  38.521  42.435  12.904
43727W        W16042  29.514  28.090  14.054
43728W        W16043  32.301  14.483  13.425
43729W        W16044  10.258   3.709  11.474
43730W        W16045  32.127  41.740   4.610
43731W        W16046  21.641   0.205   1.406
43732W        W16047   1.513  10.318  10.745
43733W        W16048  10.745  29.152   0.292
43734W        W16049  39.453  29.063   0.208
43735W        W16050  42.378   0.217   3.858
43736W        W16051   3.122  14.598  14.991
43737W        W16052  43.324   7.680   2.753
43738W        W16053  23.051  41.595  12.480
43739W        W16054  12.832  26.198   2.184
43740W        W16055  18.725  27.968   2.871
43741W        W16056   2.150  43.498  12.795
43742W        W16057  36.357  40.928   3.758
43743W        W16058  42.287  24.693   0.274
43744W        W16059   3.429  36.493  13.838
43745W        W16060  23.534   7.064  11.027
43746W        W16061  30.637  19.210  13.310
43747W        W16062   1.204  24.026  12.428
43748W        W16063   3.944   5.227   1.346
43749W        W16064   9.116   1.821   4.507
43750W        W16065  40.496   5.938  12.811
43751W        W16066   4.435  12.108   2.957
43752W        W16067   0.474  30.891   1.766
43753W        W16068  39.992  40.540   0.282
43754W        W16069   5.935  28.030   3.765
43755W        W16070  22.570  22.735   3.677
43756W        W16071  26.579  27.080  12.543
43757W        W16072   2.330   5.361   2.720
43758W        W16073  42.894  34.247  11.015
43759W        W16074  22.535   3.726   0.055
43760W        W16075  38.281   1.954   0.674
43761W        W16076  35.422   3.191  11.205
43762W        W16077  43.918  29.380   3.583
43763W        W16078  43.293  16.738   4.697
43764W        W16079  17.608   2.379  11.964
43765W        W16080  40.379  28.498   1.672
43766W        W16081  44.264  12.246   1.450
43767W        W16082  37.899  10.382   0.248
43768W        W16083  16.833  42.954  13.153
43769W        W16084   1.290  21.079   2.944
43770W        W16085  34.645  32.732  11.561
43771W        W16086  10.255  16.902   1.915
43772W        W16087  43.289  29.267   1.472
43773W        W16088  14.806  24.780  11.683
43774W        W16089   5.122   3.342   1.576
43775W        W16090  10.644  35.894   1.534
43776W        W16091  10.683  10.387   2.209
43777W        W16092  37.108   9.403   2.238
43778W        W16093   9.241  24.252  12.345
43779W        W16094  19.151   6.881   3.148
43780W        W16095   0.750  39.440   4.316
43781W        W16096   3.983  16.922   0.252
43782W        W16097  13.643  32.372  14.835
43783W        W16098   9.346  21.469  12.946
43784W        W16099  27.342  36.935  13.400
43785W        W16100   7.599  39.888   1.012
43786W        W16101  20.659  19.664   1.673
43787W        W16102   9.813  17.152  14.303
43788W        W16103  13.764  11.745   0.585
43789W        W16104  19.549  23.566  13.056
43790W        W16105   0.890  14.276  13.531
43791W        W16106  26.647  34.490  10.839
43792W        W16107  31.251  30.832  14.612
43793W        W16108  27.619  21.981   1.222
43794W        W16109  18.610   8.720  10.802
43795W        W16110  12.772  17.778  14.654
43796W        W16111  29.565  13.766  14.911
43797W        W16112  40.534  23.922   4.599
43798W        W16113  43.361   6.614  12.487
43799W        W16114  43.002  44.362   0.856
43800W        W16115  14.251  11.238   3.106
43801W        W16116  31.096  40.809   3.323
43802W        W16117  24.917  36.653   2.478
43803W        W16118  40.929   8.779   0.944
43804W        W16119   8.742  32.895   1.338
43805W        W16120  26.801   5.856   2.007
43806W        W16121  13.748  26.193  11.188
43807W        W16122  44.702   1.483   2.785
43808W        W16123  30.911  12.052  12.627
43809W        W16124   7.294  12.845  10.549
43810W        W16125  33.094  27.943  14.253
43811W        W16126   1.781   0.130   2.189
43812W        W16127  23.108  29.944  13.508
43813W        W16128  37.633  20.459   0.774
43814W        W16129  26.701  11.377   4.663
43815W        W16130   8.894  42.682   5.100
43816W        W16131  26.654  32.838  14.461
43817W        W16132  43.293  40.912  11.295
43818W        W16133   2.858  30.849   3.301
43819W        W16134  35.157  18.730   1.378
43820W        W16135   7.210   1.121   1.144
43821W        W16136  29.460   5.383   2.251
43822W        W16137  17.561  16.206   4.176
43823W        W16138  16.338  35.509   3.383
43824W        W16139  41.356  16.529  12.997
43825W        W16140  31.651  12.167   2.172
43826W        W16141   8.439   5.185   3.219
43827W        W16142  39.405   1.135   3.233
43828W        W16143   5.717  23.432   1.725
43829W        W16144  12.718  28.023   0.746
43830W        W16145  25.093   7.938  14.699
43831W        W16146  10.354  18.360   0.183
43832W        W16147  17.321  28.160  10.518
43833W        W16148  36.473  39.520   3.586
43834W        W16149  11.060  29.385   4.546
43835W        W16150  31.091  43.814  10.222
43836W        W16151  33.502   7.076  13.910
43837W        W16152   0.938   5.388   1.350
43838W        W16153  20.097  31.918  11.623
43839W        W16154  15.701   3.944  12.947
43840W        W16155  13.716  14.179   0.204
43841W        W16156  20.156   9.393   4.597
43842W        W16157  22.248  34.417   1.437
43843W        W16158  32.702  35.377  11.627
43844W        W16159  31.117  39.021   0.528
43845W        W16160  33.172  21.059  12.868
43846W        W16161  24.200  18.715   0.987
43847W        W16162  35.314  32.865  11.463
43848W        W16163   4.371  10.841  10.844
43849W        W16164   8.699  41.056   1.849
43850W        W16165  34.880   4.374  14.758
43851W        W16166  15.674   7.596  13.591
43852W        W16167  30.916  35.827   9.967
43853W        W16168  41.552  32.935   0.098
43854W        W16169   8.471   1.254   2.848
43855W        W16170   1.522  25.100  11.582
43856W        W16171  34.541  10.252   3.208
43857W        W16172  31.567  36.910   3.908
43858W        W16173  21.209  37.036   0.426
43859W        W16174  36.940  30.093   4.519
43860W        W16175  33.517  21.052  14.577
43861W        W16176  13.607   6.838  12.753
43862W        W16177  33.143  36.259  11.626
43863W        W16178   1.441  14.690   3.255
43864W        W16179   2.917  17.033   3.253
43865W        W16180  36.333  34.271  11.571
43866W        W16181  39.801  14.287  14.982
43867W        W16182  28.431  43.829   0.024
43868W        W16183  29.691   6.318  11.190
43869W        W16184  44.209  34.088  14.872
43870W        W16185  25.766  40.176  10.079
43871W        W16186  11.723  11.788   4.372
43872W        W16187  19.724  26.154  11.609
43873W        W16188  44.009  15.092   1.571
43874W        W16189   0.449  24.402  11.524
43875W        W16190  11.489   2.059   0.298
43876W        W16191  43.923  42.831  10.531
43877W        W16192  30.448  19.323  13.778
43878W        W16193  13.099  39.808   4.603
43879W        W16194   6.505   7.243  14.036
43880W        W16195  34.516  22.036   1.503
43881W        W16196  35.082  25.637  13.066
43882W        W16197  30.560  28.735   4.511
43883W        W16198  36.895  42.081   4.656
43884W        W16199  31.867  14.495  11.926
43885W        W16200  26.238   1.489  13.462
43886W        W16201  11.157  36.927  14.695
43887W        W16202  38.921  11.515  13.872
43888W        W16203  33.992  35.314  11.201
43889W        W16204  41.731  27.704  13.544
43890W        W16205   5.947   0.301  13.543
43891W        W16206  29.469  18.682   4.504
43892W        W16207   6.199  37.952   4.598
43893W        W16208  23.366  14.058  14.020
43894W        W16209   6.335  38.937  13.542
43895W        W16210   5.787   7.608   1.338
43896W        W16211  44.884  33.079   0.735
43897W        W16212  23.722   5.670  12.443
43898W        W16213  10.212  18.149   2.146
43899W        W16214  11.743   4.464   0.353
43900W        W16215  27.814  30.859   1.771
43901W        W16216  31.431   2.907   2.750
43902W        W16217  38.830  30.130   3.387
43903W        W16218  15.208  20.969  12.155
43904W        W16219  44.551  12.795   3.157
43905W        W16220   2.964  40.827   3.685
43906W        W16221  17.158  42.057  14.478
43907W        W16222  25.484   7.832  12.596
43908W        W16223  18.845  28.012   2.367
43909W        W16224  26.238  32.933  13.038
43910W        W16225  14.321  31.032   0.450
43911W        W16226   1.711  29.658  11.573
43912W        W16227  33.946  43.739  13.469
43913W        W16228  17.257   9.147   1.265
43914W        W16229  11.399  28.456   1.550
43915W        W16230  14.262  27.667   3.129
43916W        W16231  38.407  21.025   3.214
43917W        W16232  39.153  15.351  13.464
43918W        W16233  29.264  36.885   3.101
43919W        W16234  25.806   8.955  12.021
43920W        W16235   8.220  23.893   0.531
43921W        W16236   1.145  36.407   3.410
43922W        W16237  26.151  27.674  13.940
43923W        W16238  37.473  25.934   9.780
43924W        W16239  17.605  15.272  10.736
43925W        W16240  18.478  26.008   4.745
43926W        W16241  43.221  35.477  12.474
43927W        W16242  36.284   1.551   2.370
43928W        W16243  28.188   0.882  12.092
43929W        W16244  32.495  36.817  13.529
43930W        W16245  44.478   8.914   2.291
43931W        W16246  29.350  32.940   0.801
43932W        W16247  27.104   2.442   1.888
43933W        W16248  16.634  13.578   0.008
43934W        W16249   6.682   5.167   2.747
43935W        W16250  31.414  12.179  11.169
43936W        W16251  34.155   5.746  13.583
43937W        W16252  37.549  15.927   0.863
43938W        W16253  11.635  44.918  14.993
43939W        W16254  39.952  15.141  14.770
43940W        W16255  26.958  28.186   1.906
43941W        W16256  14.064   8.901  12.875
43942W        W16257   6.200  36.678  12.687
43943W        W16258  37.965   8.332  12.467
43944W        W16259  37.958  13.146   0.568
43945W        W16260  19.686  33.409  13.443
43946W        W16261   7.703  44.447  11.319
43947W        W16262  16.252   8.992  13.764
43948W        W16263  25.717   2.461  13.395
43949W        W16264  24.987  33.930   9.997
43950W        W16265   4.533  33.980  14.041
43951W        W16266  16.137  18.552   3.688
43952W        W16267  43.388  12.593  12.954
43953W        W16268  15.544  30.082   1.207
43954W        W16269  33.490  28.711   4.981
43955W        W16270  37.295  26.245  11.945
43956W        W16271  19.648  20.318   4.557
43957W        W16272  38.836   1.345   5.144
43958W        W16273  43.800   7.216   4.351
43959W        W16274   4.441  32.201  12.483
43960W        W16275  17.160  14.717  11.381
43961W        W16276   5.227  29.701  11.528
43962W        W16277  33.314  29.980   4.727
43963W        W16278  26.674  15.728  13.831
43964W        W16279  43.123   3.527   5.030
43965W        W16280  41.466  20.343  10.388
43966W        W16281  11.783  19.282   3.793
43967W        W16282  42.476  44.998  10.927
43968W        W16283  38.017  41.463  14.953
43969W        W16284  20.067  28.629  13.027
43970W        W16285  25.610  38.805  12.476
43971W        W16286  34.861  34.462  12.158
43972W        W16287   6.295  18.659  10.223
43973W        W16288  15.334   8.367   1.691
43974W        W16289  26.928  33.418   4.153
43975W        W16290  29.960  44.563   3.656
43976W        W16291  29.696   4.208  14.009
43977W        W16292  18.245  32.092  12.386
43978W        W16293  16.760  42.927   1.608
43979W        W16294   9.647  39.849   2.652
43980W        W16295  18.616   0.106  13.425
43981W        W16296   8.821  31.675  11.182
43982W        W16297  33.196  37.563  11.152
43983W        W16298  31.110  10.337  12.873
43984W        W16299  22.608  22.785   2.366
43985W        W16300  24.169   1.686  11.650
43986W        W16301  29.898  32.070   4.972
43987W        W16302   4.773  20.918   4.610
43988W        W16303  17.034  24.733  14.698
43989W        W16304  32.460   7.760  12.069
43990W        W16305   7.224  42.953   3.781
43991W        W16306  11.096  34.049  10.801
43992W        W16307  36.910  29.527   0.684
43993W        W16308  44.049  17.195   1.247
43994W        W16309  33.218  22.635   2.657
43995W        W16310  17.436   4.341  14.781
43996W        W16311  44.947   8.848  13.486
43997W        W16312  29.156  39.330  14.059
43998W        W16313  17.208   7.150  13.467
43999W        W16314  15.747  33.218  11.966
44000W        W16315   2.757  43.166   4.069
44001W        W16316  29.727  42.805   0.792
44002W        W16317   2.652  36.424   3.466
44003W        W16318  18.264  19.456  14.355
44004W        W16319  14.147  18.667  12.021
44005W        W16320  26.654  20.893   1.822
44006W        W16321  23.548  21.454   5.464
44007W        W16322  43.393  16.678  14.892
44008W        W16323  16.880  20.319  14.032
44009W        W16324  36.867  10.152   1.286
44010W        W16325  19.657   7.898  11.805
44011W        W16326  38.319  16.960  11.050
44012W        W16327  37.129  40.439   1.643
44013W        W16328  42.924  13.131  14.678
44014W        W16329  40.968   8.202   1.346
44015W        W16330  11.109  20.623  13.575
44016W        W16331  26.037  11.412   0.378
44017W        W16332  28.436  22.299  11.634
44018W        W16333   0.999  13.851   0.620
44019W        W16334  38.350  10.264   4.643
44020W        W16335   6.896   4.887   1.682
44021W        W16336   2.168  40.956   3.310
44022W        W16337  43.197  22.130   0.432
44023W        W16338  44.330  15.055   2.648
44024W        W16339  13.015  41.406   4.519
44025W        W16340  11.580   7.785   3.237
44026W        W16341  41.662  44.332   0.269
44027W        W16342  11.989   5.778  14.489
44028W        W16343   3.023  43.214  14.975
44029W        W16344   0.785  23.486   2.854
44030W        W16345   4.524  32.465   0.314
44031W        W16346  23.973   3.036   1.154
44032W        W16347  17.139  26.213  12.385
44033W        W16348  40.065   3.891  10.736
44034W        W16349  27.849  31.014   5.229
44035W        W16350  19.039  38.500  11.011
44036W        W16351  38.113  38.352   4.508
44037W        W16352  37.439  28.455   2.852
44038W        W16353  42.079  40.454   0.471
44039W        W16354  41.002  14.354   0.036
44040W        W16355  25.799  39.502  11.500
44041W        W16356   0.578  31.557  12.984
44042W        W16357  27.070  23.717   2.242
44043W        W16358  16.632   8.129   0.249
44044W        W16359  35.294  40.872  10.811
44045W        W16360   1.238  12.633   0.951
44046W        W16361  36.603  10.199   4.404
44047W        W16362  17.252   8.630   1.244
44048W        W16363  19.815  29.938   3.103
44049W        W16364  41.100  20.805   1.379
44050W        W16365  35.524  23.164  12.674
44051W        W16366  16.671  19.800   1.457
44052W        W16367  17.737  31.477   2.239
44053W        W16368  37.210  15.864  13.423
44054W        W16369   1.344  41.956  13.533
44055W        W16370  32.542  37.351   0.823
44056W        W16371   2.481   2.588  13.929
44057W        W16372  28.378   0.935   3.761
44058W        W16373   2.416  35.507   0.505
44059W        W16374  43.471  29.408  11.524
44060W        W16375  15.895   9.466   1.316
44061W        W16376  31.342  20.631  13.274
44062W        W16377   6.410  17.296   1.633
44063W        W16378  12.142  28.958   2.849
44064W        W16379  16.310  27.631   3.333
44065W        W16380  37.794  11.206   3.822
44066W        W16381  30.421  13.244  13.857
44067W        W16382   3.193  11.892   5.075
44068W        W16383  30.914   3.780   2.661
44069W        W16384  34.138  29.573  13.319
44070W        W16385  11.319  11.872  10.769
44071W        W16386   2.391  32.466  10.896
44072W        W16387   1.668   2.890   1.835
44073W        W16388  11.594   5.310   2.494
44074W        W16389  23.051  32.816   3.178
44075W        W16390  37.080  16.039  10.787
44076W        W16391  11.241  12.086   1.969
44077W        W16392  16.006  33.955  12.823
44078W        W16393  23.701  24.359  13.387
44079W        W16394  31.282  43.588  13.988
44080W        W16395  10.477  40.829   2.251
44081W        W16396   0.044  41.348   2.298
44082W        W16397  26.410  15.674  13.369
44083W        W16398   8.453  43.958  14.030
44084W        W16399  37.791  43.228   0.430
44085W        W16400  43.999  37.128   2.755
44086W        W16401  39.243  19.630  11.916
44087W        W16402   1.866  26.974   4.151
44088W        W16403  28.623   6.729  11.067
44089W        W16404  44.198  31.636  10.758
44090W        W16405  14.852  12.313  14.825
44091W        W16406  43.412  11.942   5.024
44092W        W16407  24.889  18.833   3.262
44093W        W16408  30.060  39.963   0.493
44094W        W16409  33.078  44.250   4.132
44095W        W16410   3.257   2.359   1.240
44096W        W16411  30.980  39.803  12.420
44097W        W16412  10.088  15.469  13.210
44098W        W16413  26.071  33.787  13.906
44099W        W16414  28.626  20.122   4.650
44100W        W16415  21.934  29.289  14.413
44101W        W16416  34.140  38.640  12.451
44102W        W16417   7.414  35.537  13.972
44103W        W16418  30.955  26.923  10.908
44104W        W16419  13.177   2.713  12.851
44105W        W16420  23.713  16.713  14.484
44106W        W16421  23.444  30.789  12.837
44107W        W16422   5.252  38.484   3.103
44108W        W16423  38.659  18.615   4.957
44109W        W16424  25.935  12.701  13.732
44110W        W16425  11.222  37.236   0.990
44111W        W16426   7.215  30.498  10.720
44112W        W16427  36.001  18.391  13.319
44113W        W16428  32.472  12.477   1.327
44114W        W16429  23.149  33.132  11.583
44115W        W16430  33.820  20.128  11.489
44116W        W16431  23.879   1.195   2.419
44117W        W16432  21.718  16.681   3.225
44118W        W16433  24.633   7.137  11.242
44119W        W16434   7.988   2.374   3.790
44120W        W16435  14.868   5.964   3.625
44121W        W16436   1.542   2.759   2.324
44122W        W16437  35.412  37.971  14.673
44123W        W16438  20.456   3.416   4.633
44124W        W16439  16.165  24.605   1.903
44125W        W16440  39.347  26.191  10.118
44126W        W16441  31.043  17.102  14.424
44127W        W16442   1.921  40.970  10.338
44128W        W16443  17.120  26.801  10.147
44129W        W16444   8.527  26.555  12.441
44130W        W16445  10.709  11.891   4.121
44131W        W16446  10.851  26.056   2.410
44132W        W16447   6.223  32.635   3.625
44133W        W16448  18.954   8.328   2.186
44134W        W16449  41.952  13.660  12.793
44135W        W16450   6.969  37.334  13.807
44136W        W16451  31.310  34.559   3.251
44137W        W16452  17.149   1.901   3.664
44138W        W16453  40.410  22.991   3.157
44139W        W16454  26.199  26.687   4.143
44140W        W16455   6.981  14.622   0.624
44141W        W16456  29.286  23.403   4.517
44142W        W16457   0.513  35.958   1.337
44143W        W16458  21.209  10.676  11.915
44144W        W16459  17.949  30.231  10.176
44145W        W16460  42.342  34.632  10.405
44146W        W16461  27.965  33.211   0.982
44147W        W16462   7.306   0.995   4.871
44148W        W16463  11.755  32.630   4.590
44149W        W16464  10.408  34.339   0.917
44150W        W16465   3.178  31.323   4.568
44151W        W16466  22.468  11.842  13.759
44152W        W16467  44.366   0.829   2.182
44153W        W16468  17.265   6.884   3.621
44154W        W16469  28.105  17.347  13.161
44155W        W16470  16.619  36.767   2.787
44156W        W16471  41.574   8.923   0.081
44157W        W16472   6.133   8.845  13.961
44158W        W16473  12.850  15.732  10.753
44159W        W16474   0.536  16.756   3.246
44160W        W16475  25.466   8.236  13.483
44161W        W16476   3.359  14.901   0.833
44162W        W16477  39.006  37.024  11.916
44163W        W16478  16.787  23.598   1.180
44164W        W16479  36.629  18.488   0.505
44165W        W16480  42.284  26.827   2.614
44166W        W16481   6.402  19.604  13.740
44167W        W16482  39.959  11.347   3.214
44168W        W16483  39.337  19.204   3.989
44169W        W16484  22.687  16.395   3.256
44170W        W16485  12.584  16.600   0.254
44171W        W16486  42.443  12.838   1.713
44172W        W16487  25.125  35.076   1.867
44173W        W16488  27.953  14.377  13.605
44174W        W16489  19.949  29.446  11.163
44175W        W16490  31.681  14.641   2.525
44176W        W16491  21.141   4.941  13.377
44177W        W16492  43.028  41.397   2.300
44178W        W16493  42.388  23.518   2.370
44179W        W16494  32.507   6.019   0.957
44180W        W16495  44.060  10.197  10.226
44181W        W16496  32.091  17.036   3.364
44182W        W16497  16.117  31.226  11.437
44183W        W16498  17.576  35.290   4.949
44184W        W16499   8.818  14.792   3.707
44185W        W16500   4.782  37.401   4.609
44186W        W16501  19.038  42.819   3.036
44187W        W16502  30.347  22.777   1.716
44188W        W16503   4.643  21.488  11.230
44189W        W16504   3.289   4.619  13.385
44190W        W16505  17.830   0.756   0.804
44191W        W16506  27.296   4.842   1.721
44192W        W16507  28.959  37.481   0.244
44193W        W16508  37.466  36.050   2.169
44194W        W16509   2.215  39.862  14.332
44195W        W16510  26.446   9.327  10.876
44196W        W16511  31.645  25.525   0.861
44197W        W16512  39.424  38.321   1.871
44198W        W16513   0.743  23.448   0.791
44199W        W16514  11.564   0.261   3.235
44200W        W16515  25.093  39.218   1.462
44201W        W16516  14.809  33.486   4.396
44202W        W16517   7.500  20.145  13.977
44203W        W16518  12.528   3.360   0.907
44204W        W16519  10.596  21.510   2.892
44205W        W16520  33.339  32.598   3.390
44206W        W16521  22.718  19.200   4.737
44207W        W16522  17.269  26.615   0.510
44208W        W16523  13.454   1.426  12.891
44209W        W16524   6.961  19.728   4.586
44210W        W16525  44.891   9.356  13.596
44211W        W16526   7.719  25.031   2.413
44212W        W16527   9.980  34.850  12.323
44213W        W16528   4.400  27.059   2.405
44214W        W16529  32.563  41.050  14.823
44215W        W16530   9.189  31.700  14.786
44216W        W16531  32.076  30.260  10.614
44217W        W16532  26.406  13.806   1.962
44218W        W16533  32.443  17.168  10.647
44219W        W16534   5.747  19.070   0.738
44220W        W16535  18.254  16.976   4.229
44221W        W16536  39.282  11.612  14.821
44222W        W16537  14.207  44.019  11.775
44223W        W16538  19.130   3.298  11.159
44224W        W16539  25.084  40.919  12.025
44225W        W16540   4.142   9.409  11.560
44226W        W16541   7.752  36.815  13.846
44227W        W16542  42.228  38.117   1.575
44228W        W16543   0.057   8.703   1.506
44229W        W16544   6.179  38.910  12.076
44230W        W16545  15.097  44.771   3.270
44231W        W16546   9.512   5.770  12.584
44232W        W16547  25.538   4.228  12.511
44233W        W16548  19.910  32.434  12.376
44234W        W16549  35.447  29.116   4.432
44235W        W16550  15.241  22.185  13.110
44236W        W16551  12.843   2.482  11.542
44237W        W16552  35.094   4.513   4.720
44238W        W16553  19.855  26.184   1.323
44239W        W16554  30.064   6.751   2.933
44240W        W16555   5.794  41.263   3.186
44241W        W16556   7.715  15.454   3.855
44242W        W16557  35.314  20.606   0.274
44243W        W16558  28.947  38.517  12.856
44244W        W16559   5.352   5.697  13.592
44245W        W16560  38.616  38.337   3.713
44246W        W16561  30.408  29.543  13.511
44247W        W16562  42.405  18.723   1.333
44248W        W16563  28.998  32.675  13.242
44249W        W16564  34.459  40.072  14.801
44250W        W16565  11.327  35.581   4.233
44251W        W16566  44.943  31.525   0.475
44252W        W16567  36.338  15.656   1.453
44253W        W16568  17.203  29.098   1.664
44254W        W16569  42.225  14.244   0.494
44255W        W16570   7.134  43.807   3.870
44256W        W16571  14.354   9.796  12.863
44257W        W16572  35.564  43.029   0.976
44258W        W16573   0.904  28.457  11.586
44259W        W16574   1.332  30.377   2.412
44260W        W16575  44.252  40.099  12.427
44261W        W16576  42.189  41.678  12.366
44262W        W16577  14.505  40.072   0.596
44263W        W16578  39.442  10.152  11.832
44264W        W16579  21.855  34.258  12.118
44265W        W16580  17.021  39.526   2.787
44266W        W16581  36.301  21.298   2.574
44267W        W16582  41.047  34.981   4.258
44268W        W16583  22.242  24.985  11.974
44269W        W16584  13.845  29.541   1.014
44270W        W16585   5.779  26.076  13.518
44271W        W16586  21.467   8.815   3.796
44272W        W16587  14.240  30.077  12.937
44273W        W16588  34.357  12.704   4.885
44274W        W16589  36.544  21.270  12.824
44275W        W16590  13.132  20.819   1.688
44276W        W16591  29.641  39.845   4.115
44277W        W16592  28.024  36.476   0.848
44278W        W16593   2.308  18.303   2.250
44279W        W16594  42.494  17.735  12.553
44280W        W16595  20.940  21.447   3.203
44281W        W16596   7.858   9.112   3.769
44282W        W16597  42.716   6.484  14.523
44283W        W16598  38.582  21.786  13.434
44284W        W16599   1.709  15.563  13.480
44285W        W16600  21.118  39.901   0.856
44286W        W16601  27.182  34.969   1.906
44287W        W16602  37.840  14.860  10.592
44288W        W16603  41.797  36.858  14.673
44289W        W16604   7.739  11.950  14.375
44290W        W16605  13.525  18.136  10.722
44291W        W16606  19.238  33.653   0.697
44292W        W16607   7.610  26.037   1.885
44293W        W16608   5.589  20.171  14.402
44294W        W16609   5.283  42.943   3.664
44295W        W16610  23.088  32.962  13.465
44296W        W16611   6.901  19.819  12.070
44297W        W16612  12.267   2.414  12.065
44298W        W16613  38.942  31.152  12.512
44299W        W16614  10.363  12.075  11.587
44300W        W16615  31.099  20.381  11.049
44301W        W16616  20.737  38.529  13.544
44302W        W16617  16.208  10.648   2.333
44303W        W16618  37.109  14.179   4.550
44304W        W16619  36.089  19.452  13.818
44305W        W16620  16.349  10.070  11.274
44306W        W16621  43.292  41.067  13.426
44307W        W16622  41.008  32.201   3.623
44308W        W16623   3.040   5.316  14.833
44309W        W16624  36.591   3.214  10.738
44310W        W16625  44.676   9.799   2.781
44311W        W16626  34.020   0.826   1.414
44312W        W16627  26.435  33.582   4.958
44313W        W16628  10.142  31.662   3.243
44314W        W16629  32.398  31.092  11.398
44315W        W16630   5.842  15.120  14.538
44316W        W16631   2.319  31.980   1.873
44317W        W16632  44.387   6.982   0.712
44318W        W16633  37.868  18.867   1.045
44319W        W16634   1.919  44.249  13.659
44320W        W16635  37.935  44.764   1.360
44321W        W16636  16.375  17.608   0.888
44322W        W16637   8.729  31.103  12.011
44323W        W16638  10.556  39.890   3.886
44324W        W16639  19.220   9.117   1.765
44325W        W16640  30.957  44.907   4.402
44326W        W16641  28.896   0.351   3.129
44327W        W16642  12.602  29.163   2.278
44328W        W16643   8.660  21.711  10.994
44329W        W16644   1.463  20.613   0.744
44330W        W16645  25.966  10.854   2.235
44331W        W16646  37.335  19.041   1.126
44332W        W16647  43.667   1.813  12.126
44333W        W16648  11.187  41.774  12.024
44334W        W16649  28.645  27.660  14.485
44335W        W16650  19.329  39.432   1.449
44336W        W16651  19.103   8.665  10.653
44337W        W16652   6.030  40.383  11.099
44338W        W16653  22.822  18.570  11.873
44339W        W16654   4.203  15.371   0.884
44340W        W16655  31.993  12.748   3.078
44341W        W16656  23.289   1.781   3.013
44342W        W16657   1.754  30.975   1.922
44343W        W16658   0.313  40.150   0.964
44344W        W16659  40.632  41.933  14.295
44345W        W16660  17.257  27.609   2.029
44346W        W16661  18.088  22.235   1.683
44347W        W16662  42.998  29.588   0.708
44348W        W16663  44.502  23.685   1.932
44349W        W16664  38.626  34.814  14.914
44350W        W16665  38.884  30.081   0.378
44351W        W16666  31.660  27.615  14.431
44352W        W16667  25.782  16.888   0.818
44353W        W16668  15.848  40.733   2.336
44354W        W16669  11.190  39.634  13.745
44355W        W16670   9.172  17.678  12.919
44356W        W16671  13.639  44.576   4.655
44357W        W16672  18.662  35.276   3.788
44358W        W16673   2.714  31.151   3.710
44359W        W16674  37.200  44.028  14.422
44360W        W16675  22.469  22.561   2.831
44361W        W16676  43.043  36.389  11.969
44362W        W16677  10.343  12.273   4.057
44363W        W16678  14.844   5.430   0.690
44364W        W16679  30.971  26.237   2.884
44365W        W16680  31.171  29.428   3.194
44366W        W16681  15.052  36.538   0.417
44367W        W16682  21.579  36.111  13.438
44368W        W16683  41.397  18.360   2.158
44369W        W16684  12.131  33.458  13.552
44370W        W16685  24.169  24.155   1.929
44371W        W16686  24.703  32.155   4.442
44372W        W16687  37.063  27.071   0.352
44373W        W16688   9.114  29.329   1.851
44374W        W16689  42.504  40.005  11.120
44375W        W16690   4.434  38.674   3.322
44376W        W16691  44.192   6.372   0.358
44377W        W16692  36.305  10.599   4.089
44378W        W16693  39.987  18.884   4.211
44379W        W16694  33.237  18.850  12.875
44380W        W16695  28.597   7.927  12.373
44381W        W16696  27.716  26.524   1.317
44382W        W16697  41.927  11.220  11.760
44383W        W16698  39.772  20.235   0.326
44384W        W16699  15.497  36.572  14.473
44385W        W16700   1.881   7.149  10.680
44386W        W16701  43.228   5.199  12.525
44387W        W16702  44.444  19.805   4.856
44388W        W16703  41.459  35.345   0.026
44389W        W16704   0.164  27.176  11.474
44390W        W16705  35.918   5.866   4.918
44391W        W16706  39.477  42.540  13.985
44392W        W16707  11.261  34.800  14.011
44393W        W16708  19.355  14.618  11.968
44394W        W16709  28.734   2.982   2.393
44395W        W16710  37.940  41.229  11.184
44396W        W16711  30.024  11.252   1.824
44397W        W16712   4.671  19.767  10.552
44398W        W16713  42.819  23.193  11.147
44399W        W16714  27.174   2.694   2.347
44400W        W16715  37.372  10.716   1.956
44401W        W16716  22.032  17.492  13.021
44402W        W16717  14.694  27.556   4.324
44403W        W16718   2.436  41.407  14.489
44404W        W16719  20.731  44.574   0.787
44405W        W16720  29.022   0.847   3.288
44406W        W16721   7.763  23.903   4.283
44407W        W16722  11.817   3.391  14.979
44408W        W16723   0.817  14.379  14.367
44409W        W16724  30.191   2.872  12.927
44410W        W16725  16.243  26.946  11.588
44411W        W16726  27.697  34.058  11.739
44412W        W16727  40.122  24.521  12.186
44413W        W16728  38.908  24.573  12.082
44414W        W16729  25.272  18.564   2.944
44415W        W16730  16.627  42.494   4.395
44416W        W16731  25.969   9.832   1.725
44417W        W16732  23.696   0.791  14.876
44418W        W16733   5.336   2.474   0.308
44419W        W16734   3.846  20.209  14.273
44420W        W16735   3.268   7.026   1.645
44421W        W16736  36.644  14.675   2.559
44422W        W16737  25.054   8.555   3.795
44423W        W16738  35.344  34.643  12.970
44424W        W16739   4.084  18.361  12.395
44425W        W16740  41.292  10.842  14.731
44426W        W16741  42.881  22.454  12.864
44427W        W16742   8.012   1.980  14.864
44428W        W16743   3.715   1.176   2.754
44429W        W16744  15.188  21.507  10.387
44430W        W16745  21.990  15.787   1.314
44431W        W16746   4.914   3.461   2.908
44432W        W16747  23.765  15.018  13.855
44433W        W16748   9.156  17.380  14.977
44434W        W16749  14.340  40.678  14.465
44435W        W16750  24.100  15.943   0.004
44436W        W16751  32.476  38.806   1.324
44437W        W16752  19.875  32.382  11.559
44438W        W16753   4.317  21.481   2.655
44439W        W16754  12.321   6.935  13.519
44440W        W16755  37.407   9.127   1.891
44441W        W16756   4.745   8.210  13.137
44442W        W16757  32.529  14.386  10.743
44443W        W16758  20.602  29.555   2.826
44444W        W16759  27.978  44.378   1.127
44445W        W16760   2.524   3.311   0.403
44446W        W16761   7.747  21.552  11.152
44447W        W16762  39.371  37.540   3.533
44448W        W16763  23.254   8.321  12.909
44449W        W16764   3.410  20.066  12.854
44450W        W16765  11.296  27.414   4.226
44451W        W16766  32.877  27.713   3.736
44452W        W16767  28.633  12.212   0.729
44453W        W16768  14.772  24.588   0.646
44454W        W16769   2.398   5.771  13.303
44455W        W16770  25.524   1.935   2.058
44456W        W16771   3.015  16.751   3.711
44457W        W16772  18.946  40.125   0.865
44458W        W16773  23.771   3.081  12.019
44459W        W16774  16.557  11.252  13.762
44460W        W16775  29.936  11.616   0.448
44461W        W16776  29.262  17.875  12.860
44462W        W16777  30.155  29.527  14.278
44463W        W16778  37.513  18.723  13.933
44464W        W16779  20.123   4.453  14.895
44465W        W16780  17.628  32.717  12.014
44466W        W16781  12.164  35.181   3.934
44467W        W16782  16.098  34.361   0.411
44468W        W16783   3.540  11.317  11.259
44469W        W16784  27.727  27.541  12.174
44470W        W16785  33.900  24.001  10.500
44471W        W16786  14.232  24.044  12.637
44472W        W16787  17.067  24.627  10.968
44473W        W16788  23.116  26.203  14.810
44474W        W16789  26.940  35.839   1.390
44475W        W16790  36.340   1.002  12.922
44476W        W16791  22.003   5.607  14.557
44477W        W16792   8.067  25.089  12.012
44478W        W16793  34.847  32.927  14.968
44479W        W16794   1.467   9.396  14.524
44480W        W16795  32.229  30.176   3.166
44481W        W16796  14.155  20.067  14.537
44482W        W16797  33.938  40.413   0.430
44483W        W16798  27.818  15.316   0.795
44484W        W16799   9.617   8.698  14.764
44485W        W16800  41.044   2.490  14.252
44486W        W16801  31.007  40.153  11.074
44487W        W16802  15.450  38.594   0.526
44488W        W16803   9.055  16.687   1.508
44489W        W16804  23.988  27.964  14.469
44490W        W16805  23.964  21.278   0.713
44491W        W16806  15.680   9.347   4.744
44492W        W16807  18.748  40.813  14.579
44493W        W16808  10.398   7.886  13.501
44494W        W16809  38.115  32.547   0.069
44495W        W16810   4.299   9.227   2.886
44496W        W16811  27.436  32.084  12.465
44497W        W16812  34.308  25.649   2.105
44498W        W16813  27.204  38.363   4.110
44499W        W16814  14.599   0.718   4.131
44500W        W16815  17.282  11.718  14.174
44501W        W16816  36.957  13.869  14.274
44502W        W16817   1.520  22.986  10.965
44503W        W16818  19.871  25.648   3.795
44504W        W16819  34.555  34.081   4.608
44505W        W16820  23.676  23.212  12.604
44506W        W16821   0.237  36.959  12.069
44507W        W16822   2.708  38.937  12.448
44508W        W16823  40.831  40.121   1.836
44509W        W16824  31.388  35.029   0.653
44510W        W16825  11.484  15.327   0.399
44511W        W16826   7.678   3.114  11.206
44512W        W16827   5.756   1.267   0.369
44513W        W16828   6.788  24.445  13.826
44514W        W16829  33.307  33.592  11.967
44515W        W16830  17.117   3.769  11.541
44516W        W16831  38.973  25.164  14.057
44517W        W16832  23.701  28.461  13.448
44518W        W16833  29.069  16.351   0.795
44519W        W16834  21.044  11.007  13.905
44520W        W16835  25.167  28.688  12.467
44521W        W16836  28.412   0.766  11.595
44522W        W16837   0.280  44.748  14.502
44523W        W16838  16.169   4.891  13.146
44524W        W16839  10.358  21.005   3.665
44525W        W16840   7.626  34.131  11.945
44526W        W16841  29.060  15.071   1.381
44527W        W16842  19.684   1.518  10.964
44528W        W16843   4.627  22.045  13.092
44529W        W16844  12.648  17.052  11.595
44530W        W16845   2.449  38.977   1.399
44531W        W16846  24.847  30.664   1.275
44532W        W16847  23.075  44.806   2.728
44533W        W16848  16.679  14.457  13.029
44534W        W16849  14.740  35.750  11.041
44535W        W16850  38.503  26.643   2.761
44536W        W16851  44.783  29.259  13.006
44537W        W16852  41.892  16.712   0.443
44538W        W16853  22.783  12.074   4.112
44539W        W16854  34.613   6.282   2.335
44540W        W16855  19.496  43.535  13.522
44541W        W16856  33.435  14.254  10.621
44542W        W16857   9.756  30.108   2.045
44543W        W16858  28.911  38.016  13.041
44544W        W16859   8.944   9.490   3.627
44545W        W16860  25.887  20.184   4.742
44546W        W16861  34.329  27.973   2.053
44547W        W16862  41.965  26.924   3.288
44548W        W16863  33.141  32.374  14.711
44549W        W16864   0.270  44.967  14.961
44550W        W16865  30.177   7.941  11.542
44551W        W16866  38.341   6.304  13.633
44552W        W16867   3.267  16.686   2.409
44553W        W16868  44.704   3.923   2.342
44554W        W16869   5.642  38.455   0.771
44555W        W16870   9.497  35.968   5.099
44556W        W16871   3.356  30.955   3.125
44557W        W16872  32.208   8.938   3.098
44558W        W16873  25.966  41.260   4.224
44559W        W16874   1.934  11.734  12.411
44560W        W16875  42.671   8.714  12.541
44561W        W16876  39.400  25.773  11.042
44562W        W16877   4.455  40.240   3.267
44563W        W16878   6.074   0.002  13.952
44564W        W16879   4.221  31.973  12.061
44565W        W16880   6.848   4.925   2.226
44566W        W16881   6.974  42.155  10.717
44567W        W16882  17.799  17.993   2.850
44568W        W16883  21.780  31.212  14.407
44569W        W16884  17.566   9.951  13.831
44570W        W16885   1.055  37.457  13.518
44571W        W16886  44.299  18.215   0.355
44572W        W16887  17.493  19.770   5.070
44573W        W16888  25.429   9.318  11.973
44574W        W16889   6.180  20.574  11.131
44575W        W16890  35.560  40.020  11.405
44576W        W16891   7.219   2.779  13.932
44577W        W16892   9.501  44.855   0.879
44578W        W16893  20.030  25.676  11.487
44579W        W16894  43.771  38.347   2.417
44580W        W16895  41.019  44.629   3.543
44581W        W16896  32.196  21.096   1.677
44582W        W16897  39.132   1.552   4.335
44583W        W16898  10.728  19.880  14.367
44584W        W16899  10.362  40.542   2.713
44585W        W16900  38.903  23.325   3.321
44586W        W16901  40.265  44.497   4.268
44587W        W16902  20.201  13.096  11.122
44588W        W16903   5.913  38.010   0.766
44589W        W16904  44.058  35.414  12.636
44590W        W16905  23.106  19.529   4.660
44591W        W16906  36.093  23.510  13.248
44592W        W16907   1.928   4.944   4.599
44593W        W16908  26.134  42.227   1.369
44594W        W16909  34.534  17.175  14.832
44595W        W16910  33.408  16.294  13.953
44596W        W16911   4.788  17.065   1.263
44597W        W16912  26.573   5.453  13.538
44598W        W16913  36.364  11.795   4.678
44599W        W16914  44.737  18.993   4.576
44600W        W16915   0.820  40.099  14.517
44601W        W16916  13.193  24.996   2.800
44602W        W16917  34.846  42.077  11.478
44603W        W16918  15.112  13.900  14.444
44604W        W16919  22.088  12.374  12.572
44605W        W16920  33.644  15.628  13.632
44606W        W16921  42.017  20.080  13.027
44607W        W16922  21.011  33.728   1.413
44608W        W16923  25.987  18.680   1.723
44609W        W16924   0.237  43.249   3.057
44610W        W16925  44.833   2.525  10.651
44611W        W16926  41.079  17.049  11.544
44612W        W16927  34.136  34.120   1.758
44613W        W16928  18.127  19.964  14.278
44614W        W16929  40.096  18.293   1.059
44615W        W16930  33.955  23.474   3.203
44616W        W16931  17.531   9.695  10.605
44617W        W16932  19.837  10.348  10.131
44618W        W16933  37.651  24.775  12.894
44619W        W16934   1.234  41.477  10.608
44620W        W16935  15.274  24.560  14.366
44621W        W16936  18.787  37.109   2.486
44622W        W16937  15.786  35.438  11.524
44623W        W16938  17.048  44.434   5.042
44624W        W16939  19.040  26.979  11.548
44625W        W16940  38.582  22.750  10.462
44626W        W16941   1.242   6.328  12.919
44627W        W16942   2.387  19.934  10.407
44628W        W16943  22.035  25.945  13.905
44629W        W16944  41.047  40.328   2.278
44630W        W16945  41.977  37.064  11.222
44631W        W16946  10.851  16.597  11.032
44632W        W16947  38.337   1.806  13.877
44633W        W16948  17.129   2.770  14.062
44634W        W16949  19.721  12.163  10.429
44635W        W16950  32.619  26.159  10.748
44636W        W16951  28.956  35.347  10.663
44637W        W16952  33.150   7.500   1.036
44638W        W16953  24.100  20.986  14.810
44639W        W16954   9.132  13.455   1.223
44640W        W16955  27.108   9.131  14.053
44641W        W16956  17.028  31.525  10.079
44642W        W16957  39.589   6.366  11.078
44643W        W16958   3.334   7.913   4.108
44644W        W16959  33.071  27.512  14.789
44645W        W16960   7.798   3.330   4.493
44646W        W16961  16.095  17.878  11.096
44647W        W16962  12.859  36.638  10.661
44648W        W16963   9.682  21.173  14.504
44649W        W16964  21.608  12.010   2.269
44650W        W16965  35.683   1.849   4.243
44651W        W16966  18.680  33.037  14.916
44652W        W16967   2.240  36.447   3.880
44653W        W16968  36.990  28.887   3.684
44654W        W16969  34.968  44.966   0.756
44655W        W16970  13.618  16.562   3.049
44656W        W16971  36.393  29.190  12.942
44657W        W16972  35.707  37.241   0.742
44658W        W16973  21.297   9.354  13.408
44659W        W16974  26.935  15.135   3.695
44660W        W16975  10.817  26.863  13.830
44661W        W16976  26.123  27.754   0.935
44662W        W16977  39.308  19.152  14.488
44663W        W16978  21.719  41.324  14.353
44664W        W16979  13.068  21.693   0.853
44665W        W16980   8.385   9.486  11.043
44666W        W16981  26.142  25.951   3.563
44667W        W16982   0.160  19.449  14.825
44668W        W16983  36.488  22.230  11.007
44669W        W16984  37.061  35.076   2.704
44670W        W16985  22.139  24.020  12.067
44671W        W16986  20.275  14.447  10.304
44672W        W16987  30.688  20.577  13.934
44673W        W16988  30.962  39.002  13.013
44674W        W16989  39.048  26.329  13.594
44675W        W16990  28.607  15.190  12.517
44676W        W16991  32.624  24.724   3.617
44677W        W16992  19.546   2.748  11.548
44678W        W16993  38.500  44.536   4.140
44679W        W16994  36.848  33.980  14.683
44680W        W16995  41.403  14.930   3.752
44681W        W16996   5.900   6.393  14.886
44682W        W16997  44.461   8.443  10.331
44683W        W16998  30.530   6.879  14.881
44684W        W16999  35.000  26.039  10.727
44685W        W17000  13.714  16.491  13.440
44686W        W17001  22.546   9.280  10.119
44687W        W17002  25.553  20.423   3.105
44688W        W17003   4.285  20.729  14.775
44689W        W17004  16.242  14.211   0.153
44690W        W17005  29.964  24.306   1.788
44691W        W17006   3.799  24.971   0.240
44692W        W17007  39.312   4.194   0.403
44693W        W17008  27.031   7.584   4.380
44694W        W17009  44.775  13.091   5.222
44695W        W17010  27.668  31.335   4.689
44696W        W17011  14.757  35.415  14.930
44697W        W17012  15.121  19.265   5.078
44698W        W17013  31.902  16.793  14.938
44699W        W17014  39.972  30.420  13.418
44700W        W17015   3.474  25.993  10.613
44701W        W17016  36.332  16.470  13.913
44702W        W17017   2.709   8.574  10.838
44703W        W17018  16.297   7.280   1.296
44704W        W17019  37.452  12.666   1.427
44705W        W17020  27.116   1.668  11.041
44706W        W17021  31.125  26.601   3.625
44707W        W17022  12.603   8.215   2.694
44708W        W17023  17.078  24.044  13.275
44709W        W17024  26.736   9.460   3.708
44710W        W17025   6.419  36.297   3.647
44711W        W17026  28.277   4.933  11.210
44712W        W17027  38.629  27.741   1.447
44713W        W17028   9.021  26.177  11.985
44714W        W17029  41.738  28.959   4.091
44715W        W17030  21.047  27.496   1.292
44716W        W17031  38.516   3.216   1.786
44717W        W17032  29.017  12.160   4.118
44718W        W17033  35.798  19.318  11.685
44719W        W17034  25.493  10.530   1.342
44720W        W17035   4.751  27.031   4.251
44721W        W17036   4.791   8.284  14.516
44722W        W17037   6.942  25.844   1.221
44723W        W17038  34.206  11.197  13.507
44724W        W17039  19.800  36.474   1.722
44725W        W17040  20.557  12.233   4.561
44726W        W17041  28.555  18.593  11.876
44727W        W17042  31.471  14.164   0.716
44728W        W17043  30.958  38.298  13.825
44729W        W17044  26.760  28.069  13.547
44730W        W17045  11.355  33.925  12.970
44731W        W17046  44.249  32.218   1.596
44732W        W17047   6.910  25.773  12.567
44733W        W17048  43.151  17.114  12.680
44734W        W17049  43.968   9.585   1.788
44735W        W17050  23.339  25.260   3.263
44736W        W17051  19.446   1.945  12.463
44737W        W17052   6.242  41.248  11.651
44738W        W17053  29.108   1.285   3.533
44739W        W17054  30.822  32.434  13.828
44740W        W17055  44.398  44.315  12.204
44741W        W17056  43.534  22.202  10.706
44742W        W17057   3.863  39.858  13.569
44743W        W17058  11.730  28.896   3.690
44744W        W17059  18.729  26.520  10.173
44745W        W17060  10.665   6.912   3.819
44746W        W17061  25.170  14.671  11.779
44747W        W17062  12.300   5.345  10.723
44748W        W17063  32.101  16.351   2.637
44749W        W17064  10.706  11.648   3.653
44750W        W17065  38.784  11.306   1.501
44751W        W17066   2.290  37.007  14.076
44752W        W17067  20.638  23.032  14.757
44753W        W17068  40.650   0.861   3.685
44754W        W17069  28.967  25.754   3.257
44755W        W17070   6.965  31.594  14.700
44756W        W17071  32.711  32.128  12.086
44757W        W17072  36.262  41.419   1.313
44758W        W17073   1.206   1.449   3.612
44759W        W17074  40.847  33.260  14.009
44760W        W17075  23.267  27.006   0.872
44761W        W17076   4.360  25.100   1.789
44762W        W17077  34.148  23.587  13.463
44763W        W17078   6.559  43.558  11.817
44764W        W17079   2.217  11.270  14.383
44765W        W17080  26.070  21.719  13.348
44766W        W17081  20.164  22.608   3.227
44767W        W17082  16.909  32.294  12.539
44768W        W17083  19.609  24.290   0.898
44769W        W17084  18.338  36.134   4.380
44770W        W17085  24.015  11.795   1.914
44771W        W17086  20.261  23.103  11.836
44772W        W17087  34.515  14.222   3.667
44773W        W17088  14.852  29.536   4.682
44774W        W17089  18.800  37.797  10.670
44775W        W17090  22.842  33.686  11.992
44776W        W17091  24.469  30.871  11.108
44777W        W17092   4.081  18.699   4.563
44778W        W17093  17.068  29.160   4.566
44779W        W17094  18.495  27.787  11.519
44780W        W17095  43.998  44.804   3.582
44781W        W17096  23.137   3.366  14.009
44782W        W17097  31.429  30.637  12.537
44783W        W17098  14.122  28.568  14.907
44784W        W17099  32.074   9.793   5.104
44785W        W17100  44.519   1.359  12.967
44786W        W17101  22.227   5.700  12.626
44787W        W17102  21.416  14.747   4.274
44788W        W17103  40.930  14.681  14.258
44789W        W17104   1.478  13.688  12.726
44790W        W17105  35.487  22.062   3.109
44791W        W17106   1.281  31.013  12.131
44792W        W17107  36.517  26.366  14.575
44793W        W17108  44.796   7.261  14.596
44794W        W17109   0.460  36.600   4.242
44795W        W17110   1.857  16.032  13.063
44796W        W17111  23.996   2.983   2.054
44797W        W17112  23.164   3.640   1.858
44798W        W17113  23.277   1.087   3.981
44799W        W17114  37.622  28.200   2.390
44800W        W17115  33.489  30.113   4.174
44801W        W17116   5.208   5.249  13.401
44802W        W17117  15.510  17.066  13.957
44803W        W17118   8.850  35.543   0.795
44804W        W17119  22.151  11.414  11.097
44805W        W17120   1.568  34.599  10.993
44806W        W17121   8.377  25.211  14.398
44807W        W17122  35.439  37.542  14.317
44808W        W17123  44.453  21.213   3.639
44809W        W17124  22.654  14.827  12.391
44810W        W17125  44.088  21.464   1.731
44811W        W17126   3.736  18.892   3.654
44812W        W17127  32.614   3.321   1.816
44813W        W17128   1.402  35.122  12.392
44814W        W17129  12.989  30.889   3.622
44815W        W17130  21.593  44.040  12.108
44816W        W17131  30.308  13.369  13.063
44817W        W17132   9.695   0.654   2.267
44818W        W17133  15.708  24.726   3.310
44819W        W17134  30.559  13.240   5.185
44820W        W17135   3.271  14.373   0.435
44821W        W17136  42.329  12.690  13.486
44822W        W17137   3.221  29.916  12.877
44823W        W17138  34.613  44.013  12.962
44824W        W17139  11.864  36.258   3.793
44825W        W17140   7.148  35.843  14.303
44826W        W17141  19.851   3.226   3.784
44827W        W17142  15.117  24.733   1.728
44828W        W17143  31.929  17.313   1.424
44829W        W17144  18.214  44.731  13.466
44830W        W17145   1.899  21.990   3.476
44831W        W17146  39.086  44.554  13.124
44832W        W17147  25.980   7.721  12.416
44833W        W17148  18.693  32.107  13.679
44834W        W17149  12.558   6.258  11.269
44835W        W17150  28.627   2.190  11.979
44836W        W17151  16.676  20.722  10.972
44837W        W17152  16.118  29.523   0.638
44838W        W17153  41.579  40.827   2.670
44839W        W17154  28.959  13.669   3.062
44840W        W17155  12.262  14.317   3.191
44841W        W17156   0.179  20.721  11.694
44842W        W17157  40.302  30.440   4.645
44843W        W17158  14.122  33.761   2.267
44844W        W17159  43.000  14.813   0.700
44845W        W17160  28.074  22.180  10.877
44846W        W17161  31.050  17.400  14.919
44847W        W17162  16.351  41.554   4.144
44848W        W17163  42.984  23.251  13.443
44849W        W17164   1.757   5.469  14.556
44850W        W17165  27.739  28.362   4.344
44851W        W17166  34.509   7.404   1.204
44852W        W17167  18.049  33.950   0.631
44853W        W17168  34.996   4.897  10.036
44854W        W17169  44.069  30.945   1.192
44855W        W17170   3.915  37.094   2.788
44856W        W17171  21.685  34.928   0.509
44857W        W17172   0.943  40.918  12.266
44858W        W17173  16.032  29.647   2.660
44859W        W17174  33.291  27.013  14.862
44860W        W17175   0.680  27.740  10.103
44861W        W17176  28.618   4.438   5.235
44862W        W17177  43.072  33.508  11.396
44863W        W17178  17.944  22.075   2.180
44864W        W17179  12.728  33.610   2.401
44865W        W17180  25.612  10.191  10.046
44866W        W17181  15.826   8.131   1.405
44867W        W17182  36.521  17.713   0.050
44868W        W17183  31.405   8.749   2.356
44869W        W17184  42.314  43.528  14.947
44870W        W17185   9.178   1.333   1.989
44871W        W17186  11.668  12.023  12.150
44872W        W17187   6.099  24.347   1.976
44873W        W17188  41.029   9.151  12.072
44874W        W17189   9.155  11.317  13.945
44875W        W17190  44.880  35.375  14.554
44876W        W17191  26.312  16.130  12.117
44877W        W17192  10.693   1.305   0.345
44878W        W17193  12.424   0.023  13.829
44879W        W17194  20.880  24.666  10.349
44880W        W17195  32.543  31.980   3.771
44881W        W17196  19.228   9.898  11.572
44882W        W17197  14.709  27.190   4.712
44883W        W17198  14.586  28.573  14.366
44884W        W17199  15.596   8.571  13.418
44885W        W17200  11.867  31.554  14.418
44886W        W17201  21.640  41.890   4.052
44887W        W17202   9.665  10.772   4.563
44888W        W17203  41.968  42.456   2.343
44889W        W17204  21.876  43.884  10.763
44890W        W17205  39.859  23.620   1.545
44891W        W17206   8.169  27.096  13.929
44892W        W17207  17.234  40.903   1.867
44893W        W17208  41.106  25.417  12.099
44894W        W17209  42.837  22.715  14.300
44895W        W17210  17.139  18.065  13.958
44896W        W17211   8.705   6.337  10.643
44897W        W17212  34.005  15.213   4.676
44898W        W17213   5.455  33.620  13.372
44899W        W17214  38.661  34.532   3.570
44900W        W17215   0.155   8.321  12.136
44901W        W17216  33.450  39.884   3.453
44902W        W17217  38.110  29.520   4.811
44903W        W17218  40.932  19.160   3.101
44904W        W17219   5.189  17.301   4.661
44905W        W17220  11.860  27.477   1.292
44906W        W17221  20.640  41.713  12.560
44907W        W17222  15.914  15.508   4.980
44908W        W17223  40.085  15.590   4.615
44909W        W17224  16.829  43.762   3.875
44910W        W17225  11.613  22.763  11.408
44911W        W17226  44.031  17.074  14.870
44912W        W17227  21.125  16.901   0.811
44913W        W17228  33.952  35.832   3.682
44914W        W17229  11.554  38.080  10.507
44915W        W17230  43.536  39.767   4.887
44916W        W17231  44.273   2.789  13.096
44917W        W17232  17.547  19.057  13.930
44918W        W17233  33.913  29.278  11.639
44919W        W17234  25.351  20.999  11.793
44920W        W17235  29.338  41.432   3.420
44921W        W17236  13.386  40.419  12.523
44922W        W17237  32.356  13.840  14.766
44923W        W17238  20.690   1.495  11.183
44924W        W17239  39.321  36.541  12.549
44925W        W17240  16.757  29.029  10.265
44926W        W17241   1.342  21.734  10.600
44927W        W17242  34.416  34.679  14.982
44928W        W17243  16.186  14.632   0.510
44929W        W17244  30.051  29.906  10.503
44930W        W17245  13.447  36.807   3.428
44931W        W17246  23.795   5.289   2.623
44932W        W17247  23.249  35.160  12.598
44933W        W17248  22.980  20.897   4.467
44934W        W17249  43.453  43.610   1.085
44935W        W17250  15.221  41.056   0.503
44936W        W17251  22.659  31.911   4.003
44937W        W17252   5.641  33.615  11.984
44938W        W17253  32.024  31.466  10.213
44939W        W17254  13.679   5.291   3.713
44940W        W17255   1.027  21.117   2.168
44941W        W17256   7.398  19.720  10.837
44942W        W17257   0.778  43.014   3.863
44943W        W17258   5.475  33.937  12.940
44944W        W17259  35.784  31.023  11.742
44945W        W17260  16.579  25.118  11.202
44946W        W17261  31.500  44.866  14.533
44947W        W17262  26.147  24.516  12.102
44948W        W17263   9.398  15.053   3.394
44949W        W17264  39.606   8.429   3.738
44950W        W17265   5.409  43.407  14.512
44951W        W17266  26.718  17.819   2.181
44952W        W17267   8.524  25.841  11.162
44953W        W17268   3.837  42.154  11.056
44954W        W17269   3.404  42.394  14.261
44955W        W17270   2.240  28.032  13.018
44956W        W17271  15.844  15.851   1.213
44957W        W17272  40.345  23.923  13.894
44958W        W17273  31.103   5.243   1.120
44959W        W17274  41.029   3.310   3.627
44960W        W17275  20.976  20.209   4.571
44961W        W17276   9.950  41.023   1.607
44962W        W17277  41.190  39.902   1.525
44963W        W17278  31.485  37.860   2.964
44964W        W17279  20.007  43.150  11.906
44965W        W17280   2.839   4.797  14.046
44966W        W17281  25.610  24.521  12.073
44967W        W17282  40.557  21.744   1.395
44968W        W17283  16.605  14.442   1.806
44969W        W17284  34.858  15.516   4.958
44970W        W17285   5.023  33.839  12.716
44971W        W17286  30.458  43.981  12.357
44972W        W17287   1.197  22.026  13.828
44973W        W17288  15.277  29.070  12.298
44974W        W17289  18.614   1.706   3.701
44975W        W17290  11.162  14.700   4.635
44976W        W17291   4.782  18.522  11.402
44977W        W17292  14.719   5.525   2.710
44978W        W17293  39.833  35.688   4.150
44979W        W17294  11.108  19.775  10.183
44980W        W17295  16.568  15.327   3.745
44981W        W17296  13.847  15.285   3.970
44982W        W17297  31.042  30.410  11.704
44983W        W17298   0.935  31.806  13.968
44984W        W17299  21.480  15.023  13.383
44985W        W17300   4.780   8.928   4.529
44986W        W17301   4.311  44.019  12.106
44987W        W17302  12.842  11.866  13.524
44988W        W17303  27.110  15.114   4.628
44989W        W17304   0.900  30.072  12.498
44990W        W17305  14.877  35.679  13.570
44991W        W17306  14.083   6.850   3.316
44992W        W17307   7.443  13.895  14.828
44993W        W17308   0.211  10.624   1.913
44994W        W17309  22.515  39.483  11.927
44995W        W17310  35.697  39.794   0.308
44996W        W17311  11.920   3.267  11.571
44997W        W17312  25.137  13.798  14.852
44998W        W17313  27.818  10.195  10.257
44999W        W17314   9.371  39.073  10.662
45000W        W17315   3.651   6.702   0.801
45001W        W17316  13.224  28.230   2.273
45002W        W17317  37.342  34.955   1.272
45003W        W17318  24.741  35.902  12.934
45004W        W17319  18.571   1.303   2.771
45005W        W17320  31.670  43.914  13.929
45006W        W17321  25.211  36.071   1.825
45007W        W17322  42.849  42.332   0.452
45008W        W17323  27.865  33.326   1.833
45009W        W17324  23.953  19.024   3.825
45010W        W17325  12.142  14.835   3.257
45011W        W17326  12.340  24.434   4.569
45012W        W17327  43.217  22.022  13.776
45013W        W17328  37.003   6.093  10.414
45014W        W17329   3.783  32.505  12.711
45015W        W17330   6.116  35.495  14.212
45016W        W17331  35.178  25.125  10.590
45017W        W17332  40.264  23.934  14.835
45018W        W17333  34.842  20.569  13.183
45019W        W17334  20.272  18.751  10.788
45020W        W17335  27.538  11.120  13.749
45021W        W17336   2.664  44.996  12.836
45022W        W17337  12.951  34.561  11.968
45023W        W17338  28.122  37.516   5.035
45024W        W17339  42.421  17.784  10.706
45025W        W17340   5.964  24.714   4.587
45026W        W17341  33.901  19.559  12.515
45027W        W17342   9.687  28.555   2.221
45028W        W17343  34.417   3.500  13.219
45029W        W17344  19.870   8.509   3.754
45030W        W17345  44.938  10.221  14.114
45031W        W17346   0.344  42.336   0.204
45032W        W17347  13.343   3.278  14.889
45033W        W17348  32.398   6.399   1.707
45034W        W17349  28.012  34.135  14.545
45035W        W17350  33.366  26.007  13.571
45036W        W17351  15.256  32.173   1.621
45037W        W17352   5.014   7.224   2.095
45038W        W17353  36.580  39.990  14.389
45039W        W17354   3.876  24.243  11.007
45040W        W17355   6.361  19.488   1.469
45041W        W17356  19.709  18.923   0.520
45042W        W17357  29.187  11.788  10.707
45043W        W17358  12.163  44.460   4.963
45044W        W17359   9.728  40.479   4.629
45045W        W17360  19.666  35.411   4.341
45046W        W17361  18.562   5.103   2.291
45047W        W17362  16.084   1.777   1.775
45048W        W17363  30.160   5.138   0.362
45049W        W17364   0.608   7.739  12.925
45050W        W17365  17.026  38.465  11.164
45051W        W17366  44.865  31.092  11.630
45052W        W17367   4.980  38.853   4.155
45053W        W17368  31.616   0.938  11.981
45054W        W17369   1.971  23.043  10.664
45055W        W17370  39.380  33.293   0.524
45056W        W17371  42.514  17.155  12.912
45057W        W17372   3.731  32.384   1.344
45058W        W17373  44.387  43.282   0.311
45059W        W17374  21.975  28.436   1.053
45060W        W17375  42.591  17.555   1.442
45061W        W17376   2.259  41.429  11.695
45062W        W17377   5.485  33.124  12.598
45063W        W17378  43.714  32.033  12.957
45064W        W17379   3.869  38.109   0.333
45065W        W17380  40.855  13.495   1.750
45066W        W17381  30.846   9.153   1.281
45067W        W17382  39.259  12.328   4.723
45068W        W17383  28.074  18.055  13.872
45069W        W17384  40.959   0.500  12.416
45070W        W17385  28.848  15.707  13.041
45071W        W17386  15.854  34.178   2.647
45072W        W17387  23.496   7.286  11.511
45073W        W17388  43.484   3.965  12.010
45074W        W17389  43.752  26.164   1.855
45075W        W17390  32.104  28.181   1.796
45076W        W17391   8.851   7.211  13.930
45077W        W17392  32.047  22.942   3.685
45078W        W17393  38.054  33.975   3.212
45079W        W17394   9.178   2.808  14.076
45080W        W17395   7.736  17.344   1.804
45081W        W17396   6.103  18.619  13.923
45082W        W17397  10.363  19.164   1.760
45083W        W17398  27.820  41.522  10.255
45084W        W17399  22.149  32.208  14.122
45085W        W17400  17.495  43.193   0.760
45086W        W17401  26.554   5.450  11.620
45087W        W17402  19.109  17.121  14.888
45088W        W17403  35.448  16.255  13.920
45089W        W17404  15.984  15.302  12.354
45090W        W17405  13.421  25.204   1.391
45091W        W17406  12.254  18.799  11.228
45092W        W17407   4.508   7.308  10.377
45093W        W17408   1.036  34.012   2.213
45094W        W17409  37.852  30.008   1.311
45095W        W17410   8.312  37.075  10.607
45096W        W17411  27.418  40.031  14.578
45097W        W17412  12.745  34.455   0.381
45098W        W17413   7.297  17.283   3.741
45099W        W17414  41.343   8.706  14.549
45100W        W17415  32.932  36.425   2.610
45101W        W17416  15.141   4.999   1.763
45102W        W17417  21.694  33.063   0.431
45103W        W17418  36.000  31.504  11.659
45104W        W17419   9.706  24.135  13.640
45105W        W17420  44.712   3.471  10.924
45106W        W17421  37.690  37.345  11.489
45107W        W17422  20.833  26.214   0.452
45108W        W17423  43.123  31.567  11.191
45109W        W17424   6.389  23.150   0.795
45110W        W17425  37.275  34.097  12.714
45111W        W17426  40.986  36.839  10.954
45112W        W17427  34.860   3.377  13.452
45113W        W17428  23.617   3.223   4.652
45114W        W17429  10.215  15.609  14.951
45115W        W17430  35.631  17.256   0.872
45116W        W17431   5.479  14.736  14.470
45117W        W17432   7.400  15.360  14.711
45118W        W17433  15.709  32.484   2.921
45119W        W17434  32.201  17.691   2.165
45120W        W17435  16.489  21.657   1.246
45121W        W17436   4.261  26.463  13.006
45122W        W17437  26.499  16.653   0.264
45123W        W17438   0.797   9.131   4.152
45124W        W17439  40.610   3.059   4.960
45125W        W17440   9.838  44.443   0.238
45126W        W17441  20.126  43.354  12.341
45127W        W17442  29.145  12.662  12.868
45128W        W17443  29.910  13.299  13.880
45129W        W17444  20.791  38.830   3.604
45130W        W17445  21.911  21.517   1.216
45131W        W17446  37.024  20.844  10.630
45132W        W17447  39.259  12.867   4.766
45133W        W17448  39.490   0.741   0.470
45134W        W17449  10.819  35.378   3.293
45135W        W17450  34.803  40.939   3.385
45136W        W17451  13.732  35.404  11.136
45137W        W17452  44.878  38.067   2.437
45138W        W17453  37.177  33.956  13.291
45139W        W17454  44.445  36.078   5.250
45140W        W17455  28.953  10.296   4.969
45141W        W17456  34.810  27.141   4.275
45142W        W17457   3.738   1.348  14.416
45143W        W17458  42.058  25.489   3.864
45144W        W17459  28.540   3.273   1.437
45145W        W17460  25.517  33.383   0.754
45146W        W17461  20.634   4.766   1.669
45147W        W17462  26.872  14.378  13.932
45148W        W17463  34.428  31.857  13.283
45149W        W17464  18.086  24.961  13.063
45150W        W17465  27.001   7.127   2.716
45151W        W17466  15.700   2.610  11.043
45152W        W17467  10.641  31.463   4.722
45153W        W17468  18.658  29.417   1.327
45154W        W17469  24.047  39.468  13.087
45155W        W17470  15.370  44.754   0.468
45156W        W17471  35.375   1.334  13.825
45157W        W17472  29.650  25.153   2.889
45158W        W17473   5.468  36.810   4.172
45159W        W17474  22.037  11.601   1.449
45160W        W17475  33.246   2.728   1.348
45161W        W17476  40.357  22.110  11.991
45162W        W17477  43.000  21.275   0.419
45163W        W17478  13.605  28.313   4.620
45164W        W17479  40.751  42.466   3.255
45165W        W17480  23.147  19.380   0.077
45166W        W17481  18.709  12.784  13.874
45167W        W17482  14.691  30.988  13.017
45168W        W17483  29.791  10.346   5.108
45169W        W17484  10.770  23.574   1.285
45170W        W17485  18.807   9.211  14.047
45171W        W17486  12.501  38.401   3.271
45172W        W17487   8.601   5.709   4.224
45173W        W17488   5.259   7.282   0.664
45174W        W17489  38.436  41.309   3.771
45175W        W17490   0.343  35.272   4.247
45176W        W17491  43.998  15.493  11.566
45177W        W17492  12.824  43.025   0.971
45178W        W17493  13.370  38.521   4.107
45179W        W17494  22.032   6.835   1.810
45180W        W17495  15.125  35.057  11.584
45181W        W17496   8.687  29.978   5.291
45182W        W17497  31.039  41.810  12.352
45183W        W17498  42.319   7.673   2.662
45184W        W17499  31.962  36.359   2.916
45185W        W17500  27.529  14.058  14.719
45186W        W17501   1.246   9.681   0.426
45187W        W17502  33.149  22.625   0.751
45188W        W17503   3.878  20.559  10.994
45189W        W17504  11.749  15.216  13.133
45190W        W17505  13.592  11.702  13.975
45191W        W17506  39.832  10.779   1.898
45192W        W17507  26.697  44.443  11.252
45193W        W17508   0.142  31.368   1.823
45194W        W17509  10.721   5.930   0.050
45195W        W17510  12.555  18.684   1.314
45196W        W17511   5.264  14.430   3.211
45197W        W17512  21.018  27.113  10.681
45198W        W17513  18.663  21.049   4.574
45199W        W17514   4.802  41.759   2.810
45200W        W17515  38.556   0.027  14.582
45201W        W17516  25.240  11.669  11.432
45202W        W17517  29.356  36.671  11.041
45203W        W17518  12.766   6.681  11.012
45204W        W17519  15.612  23.319  11.401
45205W        W17520   9.889  20.677  13.388
45206W        W17521  11.264   6.957  11.098
45207W        W17522  19.562  38.311   1.792
45208W        W17523  35.445   9.422   4.773
45209W        W17524  27.998  25.654   3.361
45210W        W17525  10.765   6.812   3.298
45211W        W17526  14.926  25.242   2.300
45212W        W17527  31.567  23.052  13.999
45213W        W17528   9.529  23.439  13.880
45214W        W17529  29.437  21.130   4.199
45215W        W17530  16.138   4.439  12.148
45216W        W17531  27.554  16.127   3.732
45217W        W17532  16.108   9.439   1.805
45218W        W17533  12.943  39.374   1.149
45219W        W17534  12.429  30.715  12.929
45220W        W17535  18.711  30.896   4.163
45221W        W17536   3.302  37.328   3.722
45222W        W17537   4.771  31.916   2.667
45223W        W17538  22.203  13.620  10.733
45224W        W17539   5.459  21.273   1.237
45225W        W17540   6.219   6.892   2.945
45226W        W17541   6.797  14.693  11.622
45227W        W17542  19.724  24.798   0.798
45228W        W17543  36.873  13.086  10.773
45229W        W17544  26.234  39.531   0.964
45230W        W17545  20.901  39.207   4.030
45231W        W17546  32.059  43.866   2.268
45232W        W17547  39.485   3.346   3.680
45233W        W17548  38.349  12.888  12.482
45234W        W17549  41.392  12.779  13.511
45235W        W17550   4.046  38.864  12.545
45236W        W17551  23.266  25.787  13.893
45237W        W17552  17.226  25.603  12.331
45238W        W17553  10.301  25.640   1.216
45239W        W17554  28.210   1.128   4.562
45240W        W17555   3.300  39.551   3.329
45241W        W17556   3.242   5.478  11.044
45242W        W17557  42.604  37.569  11.060
45243W        W17558  14.052   9.382   4.255
45244W        W17559  20.137  34.017   1.265
45245W        W17560  40.524   9.181  12.217
45246W        W17561   0.917  11.848   3.823
45247W        W17562   7.146  29.523   2.629
45248W        W17563  14.757  26.445   0.542
45249W        W17564  36.548   6.134  11.246
45250W        W17565   8.327  41.777  13.344
45251W        W17566  44.025  11.687   4.147
45252W        W17567  13.805   6.443   0.853
45253W        W17568  41.864  12.423  13.543
45254W        W17569  23.693  37.674  14.473
45255W        W17570  43.568  41.487  10.823
45256W        W17571  29.567   5.624   4.030
45257W        W17572  18.655  19.246  12.204
45258W        W17573  12.266  16.323   1.401
45259W        W17574  26.696  28.997   0.835
45260W        W17575  15.116  15.285  10.874
45261W        W17576   5.810  22.022  12.235
45262W        W17577  27.644  16.049   0.002
45263W        W17578  19.718   2.643  12.914
45264W        W17579  23.442   5.417  14.793
45265W        W17580   8.181  17.801  14.402
45266W        W17581   1.278  37.846   1.322
45267W        W17582  29.153  34.941  11.585
45268W        W17583  26.333  32.562  10.411
45269W        W17584  30.756  27.995  11.198
45270W        W17585  44.334  16.234   1.224
45271W        W17586  41.332   0.164   4.621
45272W        W17587  42.921  25.655  12.623
45273W        W17588  36.789  26.446  11.874
45274W        W17589  24.071  18.977  11.961
45275W        W17590  13.608  15.260  10.366
45276W        W17591  24.022  28.407   2.409
45277W        W17592  29.383  27.606   1.298
45278W        W17593  13.650  12.516   1.954
45279W        W17594  17.289  29.988  13.832
45280W        W17595   6.273  37.083  14.916
45281W        W17596  10.775  43.588   0.274
45282W        W17597  35.175  19.956   4.031
45283W        W17598  37.499  42.434   2.277
45284W        W17599  42.581   9.912  14.378
45285W        W17600  28.939  29.494  10.909
45286W        W17601  36.371  41.369  13.002
45287W        W17602  20.594   7.881   4.629
45288W        W17603   9.240  39.459  14.492
45289W        W17604  40.580   4.131  14.867
45290W        W17605   6.513  36.150  13.500
45291W        W17606  26.252  35.587  12.163
45292W        W17607   8.513   5.701   1.378
45293W        W17608  23.775  13.101  10.654
45294W        W17609  42.961  20.136   4.071
45295W        W17610  18.844   4.983  11.913
45296W        W17611  17.657  15.596   2.031
45297W        W17612  41.396   5.791  10.647
45298W        W17613  16.749  27.066  12.793
45299W        W17614  29.675  34.501   0.227
45300W        W17615   3.785  22.327   0.025
45301W        W17616  26.768   3.432   1.386
45302W        W17617  14.722  42.311   3.960
45303W        W17618  17.053  16.717   3.923
45304W        W17619  26.249  19.058   4.652
45305W        W17620  37.521  16.780   3.717
45306W        W17621  30.492  25.279  12.493
45307W        W17622  12.428   7.080  10.878
45308W        W17623  25.983  11.516   3.719
45309W        W17624   4.301  14.622  13.523
45310W        W17625  10.729  13.579   1.336
45311W        W17626   6.472  38.498  12.101
45312W        W17627  14.592  40.439   3.909
45313W        W17628  31.272  21.079   1.967
45314W        W17629  30.624  39.896  13.059
45315W        W17630  21.753  39.331   3.137
45316W        W17631  39.930   9.727  13.958
45317W        W17632  10.726  16.195   5.089
45318W        W17633   4.409   7.685   4.799
45319W        W17634   5.553  20.233   0.350
45320W        W17635  30.221  35.514  14.095
45321W        W17636  20.564  11.249   2.722
45322W        W17637  25.982  23.436   1.532
45323W        W17638  28.586  13.887  12.988
45324W        W17639  33.375  35.582  14.843
45325W        W17640  37.998   1.778   3.671
45326W        W17641   6.779  36.902  14.853
45327W        W17642   2.710  12.280   1.957
45328W        W17643   4.442   3.942  14.995
45329W        W17644   9.866  10.358   4.038
45330W        W17645  41.554  24.486  11.939
45331W        W17646  36.912   1.993   1.804
45332W        W17647  26.594  21.408   1.657
45333W        W17648  19.806   1.330   0.448
45334W        W17649  21.792  41.079  10.847
45335W        W17650  24.581  29.177   2.305
45336W        W17651  29.696  19.310   3.144
45337W        W17652   1.752  35.467  13.947
45338W        W17653   7.990  32.034   4.637
45339W        W17654  41.614  20.657  13.516
45340W        W17655  36.829  11.064   3.771
45341W        W17656  40.338   6.950  12.680
45342W        W17657  40.784  39.521  10.696
45343W        W17658  39.537  25.726  14.314
45344W        W17659   2.018  26.485   0.350
45345W        W17660  18.220  21.234   1.681
45346W        W17661   5.763  24.918  14.857
45347W        W17662   9.904  23.022   2.880
45348W        W17663  11.565  33.018  11.694
45349W        W17664  32.383  24.032  10.919
45350W        W17665  11.643  17.647   5.079
45351W        W17666  37.382   5.141   4.198
45352W        W17667   2.777  28.370  13.441
45353W        W17668  19.282  23.243   2.716
45354W        W17669   7.680  29.911  13.286
45355W        W17670  27.715  38.936  11.827
45356W        W17671   2.509  11.257  13.008
45357W        W17672  42.067  29.236   1.730
45358W        W17673  34.541  13.309   2.751
45359W        W17674  10.185  16.316   1.300
45360W        W17675  35.543  29.421  10.973
45361W        W17676  34.946  44.010   0.007
45362W        W17677  19.416  13.040   0.545
45363W        W17678  11.380  31.828   4.571
45364W        W17679  17.091  41.175   1.451
45365W        W17680  41.004  41.245  11.108
45366W        W17681   2.212  29.625  13.398
45367W        W17682   3.223  37.874   3.881
45368W        W17683   1.890  24.492  13.348
45369W        W17684  16.526  41.223  10.781
45370W        W17685  26.951  23.757  12.462
45371W        W17686  17.308  41.330  12.560
45372W        W17687  26.721  35.875   3.735
45373W        W17688  19.738  12.079  14.578
45374W        W17689  21.496  15.751  13.533
45375W        W17690  36.644  34.668   0.906
45376W        W17691  20.815   6.616  10.984
45377W        W17692  19.612  30.501  13.110
45378W        W17693  32.055  32.157  13.418
45379W        W17694  37.472  38.458   4.211
45380W        W17695   5.825  11.129  13.775
45381W        W17696  22.030  27.634  11.641
45382W        W17697  33.840  21.879  12.794
45383W        W17698   3.545  28.380  11.953
45384W        W17699  33.866  37.951   4.124
45385W        W17700  24.430  16.095  13.428
45386W        W17701  17.266  38.396   0.692
45387W        W17702   8.116  35.593   4.558
45388W        W17703  12.633  40.418   0.390
45389W        W17704  24.509  24.799  12.162
45390W        W17705  42.512  16.803  14.839
45391W        W17706  10.724  14.860  14.532
45392W        W17707  20.486  23.022  14.256
45393W        W17708  13.316   7.334  14.539
45394W        W17709  27.505  35.289  14.001
45395W        W17710  15.761  24.047   1.939
45396W        W17711  38.859  25.516  12.248
45397W        W17712  29.143  21.762   3.134
45398W        W17713  41.864  41.365  14.593
45399W        W17714   7.309  23.788   5.056
45400W        W17715  40.486  12.359   2.370
45401W        W17716  17.655  15.802   3.297
45402W        W17717   4.656  16.119   2.560
45403W        W17718  29.595   8.368   4.696
45404W        W17719   1.285  26.054  14.389
45405W        W17720  20.189   6.134  11.994
45406W        W17721  20.153   2.251  14.465
45407W        W17722  13.619   4.271  14.737
45408W        W17723  35.422   5.293   3.239
45409W        W17724  20.489  29.958  14.450
45410W        W17725   0.935  13.322  12.809
45411W        W17726  34.371  22.991   3.843
45412W        W17727   4.737  28.418   4.533
45413W        W17728  31.571  34.806  10.487
45414W        W17729   3.401  43.497   1.815
45415W        W17730  40.256  20.557   1.838
45416W        W17731  39.529   7.458   1.893
45417W        W17732  29.362   0.484   4.405
45418W        W17733   6.326  28.456  12.837
45419W        W17734  20.316  18.205  13.593
45420W        W17735  16.576  32.903   3.863
45421W        W17736  28.111  21.405   4.560
45422W        W17737  44.847  43.833   1.027
45423W        W17738   5.197   8.193   3.284
45424W        W17739   8.699   8.719  13.551
45425W        W17740  13.924  29.382  14.939
45426W        W17741  16.218   5.416  10.687
45427W        W17742   9.818   4.628   4.065
45428W        W17743  29.012  35.124  11.126
45429W        W17744  11.788  19.035  10.974
45430W        W17745  33.518  23.274  13.856
45431W        W17746  12.105  18.429   5.115
45432W        W17747  20.087  10.261  14.087
45433W        W17748  36.473  17.446  13.909
45434W        W17749  36.507  37.937   4.174
45435W        W17750   9.880  25.706   3.048
45436W        W17751   3.754   4.449   2.697
45437W        W17752   7.787  38.545   2.170
45438W        W17753  22.254   9.297  13.428
45439W        W17754  40.550  17.433   4.090
45440W        W17755  12.302  34.693   3.749
45441W        W17756  32.433   2.319  12.018
45442W        W17757  18.313  33.088   3.279
45443W        W17758  43.746  17.541  11.578
45444W        W17759  38.936  36.575   2.467
45445W        W17760   8.754  35.890  10.866
45446W        W17761  18.777  43.603   2.853
45447W        W17762  12.684  37.165  14.848
45448W        W17763  36.587  12.634  13.493
45449W        W17764  37.829  14.683  13.420
45450W        W17765  20.032  41.104   9.922
45451W        W17766  12.350   8.254  11.829
45452W        W17767  27.747   5.749  13.547
45453W        W17768  40.815  38.397  11.621
45454W        W17769  33.889  33.062  11.135
45455W        W17770   9.689  37.434   1.716
45456W        W17771   3.420  24.583   3.269
45457W        W17772  19.664  39.939   3.682
45458W        W17773  21.012   7.889   2.714
45459W        W17774  16.240   5.633  14.427
45460W        W17775  30.720  36.100   2.032
45461W        W17776  32.420  16.352  13.901
45462W        W17777  15.310   1.067   3.803
45463W        W17778  39.261   4.187  12.897
45464W        W17779   0.569  19.935  11.506
45465W        W17780   8.760  15.363  12.938
45466W        W17781  17.564  40.041  12.551
45467W        W17782  28.084  12.098  12.342
45468W        W17783  32.493  18.597  13.737
45469W        W17784  15.591  12.656   3.677
45470W        W17785   4.413  15.860   4.168
45471W        W17786  10.796  39.244  12.180
45472W        W17787  29.251  42.184  10.882
45473W        W17788  41.246  18.656  12.405
45474W        W17789  24.177   4.220   1.782
45475W        W17790  25.204  24.232  13.105
45476W        W17791  34.894   0.688   2.638
45477W        W17792  36.772  35.635   1.802
45478W        W17793  10.280  28.886   0.331
45479W        W17794  41.800  34.771  14.209
45480W        W17795   0.942  25.203   4.162
45481W        W17796   7.702   3.404   2.567
45482W        W17797   0.951  34.898   0.214
45483W        W17798   2.996  31.351   1.862
45484W        W17799  26.363  32.058   5.116
45485W        W17800  31.016   5.304  11.583
45486W        W17801  41.871  40.702  13.050
45487W        W17802   4.481  36.645  14.460
45488W        W17803  30.676  36.606   3.254
45489W        W17804  40.360  24.013  11.065
45490W        W17805  14.634  28.059   3.314
45491W        W17806  35.665  40.395  12.747
45492W        W17807  24.286  17.055  12.835
45493W        W17808  31.921  12.387   2.632
45494W        W17809  10.900  44.886   4.294
45495W        W17810  25.087  36.988   4.359
45496W        W17811   9.238  14.060   3.353
45497W        W17812  34.510   1.718   0.918
45498W        W17813   3.725  10.812   3.726
45499W        W17814  24.982  25.910   3.841
45500W        W17815  41.100  27.114  12.324
45501W        W17816   8.630  37.463  14.789
45502W        W17817  15.850  38.955  11.736
45503W        W17818   6.546  18.155  10.189
45504W        W17819  25.115   3.391  10.416
45505W        W17820  11.732  33.392   5.092
45506W        W17821  19.296   5.281   3.227
45507W        W17822  40.227  26.016   9.967
45508W        W17823  37.274  12.871  12.425
45509W        W17824  13.548   5.278  13.425
45510W        W17825  33.868  27.031   3.133
45511W        W17826  31.036   0.794   0.822
45512W        W17827  32.678   0.974   3.809
45513W        W17828  35.933  11.177  10.940
45514W        W17829  19.556  36.890  11.497
45515W        W17830  37.720  35.361  12.549
45516W        W17831  33.900  40.022  13.441
45517W        W17832  10.221   2.368   3.255
45518W        W17833  37.208  20.729   2.152
45519W        W17834  19.562  37.052   4.535
45520W        W17835  36.527  12.800  12.036
45521W        W17836  22.096  16.677  11.540
45522W        W17837  10.662  23.619  14.443
45523W        W17838  14.047  10.076  10.482
45524W        W17839  19.012   6.376  11.982
45525W        W17840  10.452  34.042  13.430
45526W        W17841  40.535  26.831   3.210
45527W        W17842  14.134  34.344   1.437
45528W        W17843  15.672   6.311  14.236
45529W        W17844  11.254  25.596  11.549
45530W        W17845  34.841  30.121   0.451
45531W        W17846  17.798  17.334   4.223
45532W        W17847  23.513  39.644  13.316
45533W        W17848  28.049  27.720   0.898
45534W        W17849  15.975  32.960  11.561
45535W        W17850  36.972   8.393   1.898
45536W        W17851  22.769  38.906  14.045
45537W        W17852  34.539  39.826  11.339
45538W        W17853  36.004  42.770   2.185
45539W        W17854  16.878  28.163  12.153
45540W        W17855   4.958  23.765  13.507
45541W        W17856  29.065  12.355  14.977
45542W        W17857   2.581  14.716  12.884
45543W        W17858  10.136  32.439  11.213
45544W        W17859  20.152  12.031   2.238
45545W        W17860  41.957   0.786   4.221
45546W        W17861  19.730  37.270   3.622
45547W        W17862  12.786  29.124  11.583
45548W        W17863  37.851   0.665  12.137
45549W        W17864  28.114   9.410  13.070
45550W        W17865   2.536   6.337   0.896
45551W        W17866  16.911   9.348   1.576
45552W        W17867  17.831  37.351   3.178
45553W        W17868  24.339  28.076   0.874
45554W        W17869  34.608  12.695   0.687
45555W        W17870  32.566  10.616   1.001
45556W        W17871  24.099   4.980   0.506
45557W        W17872   2.698  35.848  12.391
45558W        W17873   0.278  21.721   0.377
45559W        W17874  44.391  11.622  14.227
45560W        W17875  34.681   7.219   0.726
45561W        W17876   5.816  17.760  14.970
45562W        W17877  17.013  19.244  11.871
45563W        W17878  33.909   6.184   4.077
45564W        W17879   2.661   1.185   3.551
45565W        W17880  32.572  44.258  10.599
45566W        W17881   2.187  14.867  14.761
45567W        W17882   9.350  31.664   1.825
45568W        W17883  43.498  22.980  12.272
45569W        W17884  32.451  42.042   1.823
45570W        W17885  19.357  20.096  13.875
45571W        W17886  40.209   9.260   4.895
45572W        W17887  39.112   3.711   3.691
45573W        W17888  24.146  36.366   2.468
45574W        W17889   9.727   4.338   4.554
45575W        W17890  36.304   5.374  10.656
45576W        W17891   2.536  11.369  12.083
45577W        W17892  22.681  42.285   4.324
45578W        W17893  17.613  31.612  13.515
45579W        W17894  38.553  12.235  13.654
45580W        W17895  34.599   6.972  13.620
45581W        W17896   3.492  21.725   3.244
45582W        W17897   0.428  36.062  14.522
45583W        W17898  11.890  20.124  13.764
45584W        W17899  22.878  36.291   3.493
45585W        W17900  23.672   9.092   2.868
45586W        W17901  29.669  32.283   4.561
45587W        W17902  28.176  18.618  12.789
45588W        W17903  19.320  34.895  13.985
45589W        W17904  39.706  38.788   2.805
45590W        W17905  31.722  30.644  10.661
45591W        W17906   9.368  23.357   1.219
45592W        W17907  25.145  27.385   4.440
45593W        W17908   8.107   9.717  10.610
45594W        W17909  21.122  40.312  10.681
45595W        W17910  12.594   4.257   2.160
45596W        W17911  42.259  32.837   3.297
45597W        W17912  33.734  10.921  14.374
45598W        W17913  37.198  25.862  13.534
45599W        W17914  30.350  39.885  12.085
45600W        W17915  41.963   9.507   2.683
45601W        W17916  42.893  36.029   2.090
45602W        W17917  10.820  22.104  10.564
45603W        W17918  21.144   2.909   4.909
45604W        W17919  11.499  27.858  13.256
45605W        W17920  15.745  24.623  14.069
45606W        W17921  37.851  25.240  13.076
45607W        W17922   2.783  27.506   2.485
45608W        W17923  35.646  25.912   2.258
45609W        W17924   2.920  11.209   1.269
45610W        W17925  16.383  39.990   3.655
45611W        W17926  33.010  23.217  14.325
45612W        W17927   4.641  14.218   1.513
45613W        W17928  31.203  34.436   4.526
45614W        W17929   7.899  35.043   2.758
45615W        W17930  43.779  12.269   4.999
45616W        W17931  26.235  40.032   0.308
45617W        W17932  22.231   7.555   2.406
45618W        W17933  43.008  26.530   4.128
45619W        W17934  39.252   8.385  13.904
45620W        W17935   6.254  25.011   3.703
45621W        W17936  29.745   0.696   3.204
45622W        W17937  41.567   2.975  11.019
45623W        W17938  12.192  44.739   4.455
45624W        W17939   0.873   4.487  14.535
45625W        W17940   9.367  36.800  12.844
45626W        W17941   3.440   1.201  14.836
45627W        W17942  31.233  31.522  13.989
45628W        W17943  30.219  28.490  14.994
45629W        W17944  33.158  14.188  11.048
45630W        W17945  34.116   6.310  14.272
45631W        W17946   4.410  17.827  14.873
45632W        W17947  18.703  20.066  11.592
45633W        W17948  35.886  34.083  11.368
45634W        W17949  20.111  19.546  11.926
45635W        W17950  39.347   2.855   4.583
45636W        W17951   4.668   7.175  12.906
45637W        W17952  37.956  27.228   1.692
45638W        W17953   4.898  36.934  14.349
45639W        W17954  12.194   8.877  14.920
45640W        W17955   4.450   9.244   1.809
45641W        W17956  12.203   4.950  11.628
45642W        W17957  37.474  20.510   1.744
45643W        W17958  40.129   5.162  13.740
45644W        W17959   5.344  30.202  10.643
45645W        W17960  43.891  22.661  12.257
45646W        W17961   8.287   9.750  12.517
45647W        W17962  37.548  35.885   4.155
45648W        W17963  15.861  43.540  14.759
45649W        W17964  11.339  20.781   4.164
45650W        W17965  42.564  21.494   2.306
45651W        W17966   2.904  25.946   4.283
45652W        W17967   3.853   4.533   0.789
45653W        W17968  32.575   6.475   4.628
45654W        W17969   5.820   3.336  14.232
45655W        W17970   2.923  12.593   1.608
45656W        W17971  32.442  13.283  12.425
45657W        W17972  43.221   8.155   3.149
45658W        W17973  29.191  18.157   2.870
45659W        W17974  31.015  37.165  11.839
45660W        W17975  33.116  13.825   4.380
45661W        W17976  18.119   9.857  14.983
45662W        W17977  34.382  21.009  12.562
45663W        W17978  19.572  40.351  14.086
45664W        W17979  42.012  41.045   4.625
45665W        W17980   1.983   8.774  14.154
45666W        W17981  36.504   3.426  13.939
45667W        W17982  39.880  34.510  11.871
45668W        W17983  44.415  17.854  10.617
45669W        W17984   4.356  29.977  14.840
45670W        W17985  26.320  36.827  13.500
45671W        W17986  13.872  37.429  13.274
45672W        W17987  11.848  16.196   3.346
45673W        W17988  18.543   5.465  14.245
45674W        W17989  39.276  25.582   1.015
45675W        W17990   3.142   2.432  14.473
45676W        W17991   2.012  37.336   2.787
45677W        W17992   6.237  32.246   3.131
45678W        W17993  19.115   7.723   5.708
45679W        W17994  31.137  18.147   2.091
45680W        W17995  13.809   8.390   1.399
45681W        W17996  25.460  13.763  13.952
45682W        W17997  44.233   6.628  14.908
45683W        W17998  39.584   6.966   1.737
45684W        W17999  41.590  21.890   1.290
45685W        W18000  26.741  13.033   0.249
45686W        W18001  42.847  23.430  10.690
45687W        W18002   5.394  14.721   4.206
45688W        W18003  16.327  27.706   2.429
45689W        W18004  41.728  38.409  13.304
45690W        W18005  11.469  12.631   3.417
45691W        W18006  35.413  42.122  11.100
45692W        W18007   3.914  29.113  13.861
45693W        W18008  32.052  34.455  13.892
45694W        W18009  37.928   9.746   2.240
45695W        W18010  16.853  31.130   9.746
45696W        W18011   3.734  35.393   1.367
45697W        W18012  36.064  31.407   4.076
45698W        W18013  14.748  21.410  14.102
45699W        W18014  25.626  34.179   1.489
45700W        W18015  25.494  26.903   2.375
45701W        W18016   1.330  11.424  14.594
45702W        W18017  29.540  11.825   0.202
45703W        W18018   1.503  11.680  10.444
45704W        W18019  28.394  36.092   1.456
45705W        W18020  39.845  18.702  13.356
45706W        W18021  15.279   4.555   5.024
45707W        W18022  40.477   9.328   4.020
45708W        W18023  42.751  33.089  11.521
45709W        W18024  31.510  17.809   3.124
45710W        W18025  11.324  17.299   2.330
45711W        W18026  15.046  15.751  14.973
45712W        W18027   5.073  34.535  11.027
45713W        W18028  14.317  16.034   4.562
45714W        W18029  10.860   4.374  12.984
45715W        W18030  11.909  25.693  14.903
45716W        W18031  23.998  44.220   2.464
45717W        W18032  25.343  19.248  12.488
45718W        W18033   6.437  25.613  11.267
45719W        W18034   0.989  23.577   0.339
45720W        W18035  29.964  15.625   4.460
45721W        W18036  26.622  34.267  14.827
45722W        W18037  23.186  34.443   1.231
45723W        W18038  44.285  36.780  10.624
45724W        W18039  11.091  23.553  13.391
45725W        W18040  41.952  12.686  13.096
45726W        W18041  41.051   9.803   1.409
45727W        W18042  40.013   1.016  14.094
45728W        W18043  18.041  37.836  11.584
45729W        W18044  19.623  22.740  14.330
45730W        W18045  23.504  34.569  11.546
45731W        W18046  19.539   9.797  11.085
45732W        W18047   9.144   5.287  13.860
45733W        W18048   9.232  36.718   3.491
45734W        W18049  15.310  16.675  10.590
45735W        W18050  44.257  42.446  10.759
45736W        W18051  26.582  41.309   3.609
45737W        W18052  29.926  35.974   1.459
45738W        W18053  31.545  18.801  12.399
45739W        W18054  23.192  44.286   4.938
45740W        W18055  12.675  38.799  11.973
45741W        W18056   3.397  31.465   2.888
45742W        W18057  23.895  29.847  10.881
45743W        W18058   6.765  20.452  12.348
45744W        W18059   3.709  39.656   1.592
45745W        W18060   9.243  37.309  12.954
45746W        W18061  33.063  33.424  12.573
45747W        W18062  30.508  40.165   0.289
45748W        W18063  33.326  35.797  12.946
45749W        W18064  23.745   7.268   4.571
45750W        W18065  44.395  34.740   2.763
45751W        W18066  31.609  19.621   2.703
45752W        W18067   8.648  11.110  13.009
45753W        W18068  28.094  30.227  14.813
45754W        W18069  27.375  33.855  13.922
45755W        W18070  12.175  30.044   3.182
45756W        W18071   8.886   5.442   3.180
45757W        W18072  38.960  26.937  11.617
45758W        W18073  24.130   4.356   4.095
45759W        W18074  11.105  35.827   2.871
45760W        W18075  37.147   5.886  13.605
45761W        W18076   2.854  38.980  13.424
45762W        W18077  20.637   6.905   1.261
45763W        W18078  37.836   4.466   1.785
45764W        W18079  11.834  30.681   1.922
45765W        W18080  26.692  26.892   0.792
45766W        W18081  34.538  36.589  11.978
45767W        W18082  11.875   6.309   3.329
45768W        W18083  18.373   6.435  14.506
45769W        W18084   3.644   7.920  13.459
45770W        W18085  42.842   6.391   0.025
45771W        W18086   3.777  30.635  12.038
45772W        W18087  18.255  16.750  13.975
45773W        W18088  29.147  10.229  11.998
45774W        W18089  13.159  24.111  10.964
45775W        W18090  19.761  21.150  11.192
45776W        W18091   6.801  37.902  12.088
45777W        W18092   8.784  43.960   4.676
45778W        W18093  20.205  28.915  11.711
45779W        W18094  33.393   5.248  14.049
45780W        W18095  17.560  37.542  12.524
45781W        W18096   5.886  16.936   0.407
45782W        W18097  28.059   1.449  11.430
45783W        W18098  26.721  28.549  13.751
45784W        W18099  16.762  10.302   3.307
45785W        W18100  37.933   3.766   2.411
45786W        W18101   5.580  15.217   1.754
45787W        W18102  36.163  10.524  12.182
45788W        W18103  30.903  42.326  12.423
45789W        W18104  31.355  37.842  12.343
45790W        W18105  34.918  30.130   4.304
45791W        W18106  14.762   5.654   4.033
45792W        W18107   3.263  12.418   3.286
45793W        W18108  12.863  23.054  11.940
45794W        W18109   3.261  11.528  11.644
45795W        W18110  35.133  20.772   4.668
45796W        W18111  12.349   0.811   2.667
45797W        W18112   0.311   2.576  14.487
45798W        W18113   4.526   6.666  13.081
45799W        W18114  37.070   9.156   1.480
45800W        W18115  31.811  27.644  10.730
45801W        W18116   0.717  12.758  14.936
45802W        W18117   4.514  40.355   0.921
45803W        W18118  34.976  28.997   3.135
45804W        W18119  27.707  13.221   2.115
45805W        W18120  34.295  29.993  13.568
45806W        W18121   0.920  26.353   4.777
45807W        W18122   3.785  39.015   0.079
45808W        W18123  37.469  31.063   5.005
45809W        W18124   6.608  41.902   3.254
45810W        W18125  38.442  18.282  11.685
45811W        W18126   1.800  10.103   4.624
45812W        W18127  36.032  22.997  11.129
45813W        W18128  14.563  42.738  11.049
45814W        W18129  34.039  19.481   4.575
45815W        W18130  19.647   3.880  12.500
45816W        W18131   3.927  12.138  12.917
45817W        W18132  13.219  16.740   3.311
45818W        W18133  24.300  18.604   2.949
45819W        W18134   1.276  36.408  11.080
45820W        W18135  25.261  40.566  13.377
45821W        W18136   2.257  31.240   0.392
45822W        W18137  38.822  39.516   1.863
45823W        W18138   6.823  19.632  13.397
45824W        W18139  34.537   8.939   4.875
45825W        W18140   0.235  33.932  12.520
45826W        W18141   0.272  38.087  11.083
45827W        W18142  34.349  11.927   0.268
45828W        W18143  17.094  13.255   3.233
45829W        W18144  18.845  33.755  11.182
45830W        W18145   0.753  36.931  12.397
45831W        W18146  26.081  30.849  11.437
45832W        W18147   9.682   5.412   4.546
45833W        W18148  23.932  41.978   3.206
45834W        W18149  17.714   0.788   2.891
45835W        W18150  26.449  36.468   0.719
45836W        W18151   7.919  16.058  11.422
45837W        W18152  40.865   7.977  12.500
45838W        W18153  28.374  26.997   3.642
45839W        W18154   5.473   2.898   1.820
45840W        W18155  14.788   9.885   2.244
45841W        W18156  27.167  38.313  11.036
45842W        W18157  27.179  11.880  14.790
45843W        W18158   9.763  17.234   2.271
45844W        W18159  17.731  21.472  10.499
45845W        W18160  28.949  11.786  12.992
45846W        W18161  44.003  43.456   3.665
45847W        W18162   3.548  34.436   0.459
45848W        W18163  27.629  32.996   4.776
45849W        W18164  18.078  34.618   4.247
45850W        W18165   5.741  28.207   0.382
45851W        W18166  33.044  24.139   4.188
45852W        W18167   4.998   8.196   1.835
45853W        W18168  36.446  14.535  10.949
45854W        W18169  15.592  42.766  14.492
45855W        W18170   2.989   7.397  13.802
45856W        W18171  44.321   0.495   2.783
45857W        W18172  41.854  22.269   0.358
45858W        W18173  11.695  15.577   2.228
45859W        W18174  24.205  40.787   1.381
45860W        W18175  30.175   4.358  14.550
45861W        W18176  44.506   3.760  12.354
45862W        W18177  39.863  18.810  13.870
45863W        W18178  10.274  26.038  11.502
45864W        W18179  42.137   8.791   5.209
45865W        W18180  29.571  11.929  11.539
45866W        W18181  30.435   1.368   0.395
45867W        W18182   2.781  16.765  10.709
45868W        W18183  23.570  24.223   3.711
45869W        W18184  25.291  23.003   1.802
45870W        W18185  33.629   0.472  12.440
45871W        W18186  12.236  13.801   3.216
45872W        W18187  39.167  18.120   4.907
45873W        W18188  19.600   5.880   2.083
45874W        W18189  37.091  15.675   0.740
45875W        W18190  40.899  30.549  13.065
45876W        W18191  29.648  26.001  10.573
45877W        W18192   9.985  15.809   2.749
45878W        W18193   6.969   7.809  10.661
45879W        W18194  22.540  18.765  10.353
45880W        W18195   7.760   2.835   3.733
45881W        W18196  25.454  43.058   4.321
45882W        W18197  18.843  32.132   4.671
45883W        W18198  32.447  38.465  14.040
45884W        W18199   2.473  10.983   4.583
45885W        W18200  19.856  40.806  11.151
45886W        W18201  18.676  41.380  12.809
45887W        W18202  34.047   1.793  14.804
45888W        W18203  13.148  32.589  13.769
45889W        W18204  16.991   6.374  11.035
45890W        W18205   1.490   4.941  13.024
45891W        W18206   5.164  15.589  11.506
45892W        W18207  35.400  37.385   1.809
45893W        W18208   5.972  44.766  14.809
45894W        W18209   3.620  30.497  13.893
45895W        W18210  20.325  41.722   0.688
45896W        W18211  16.344  19.156  14.366
45897W        W18212  20.871  38.837  11.086
45898W        W18213  37.264   5.024   3.705
45899W        W18214  23.520  34.601  13.822
45900W        W18215  21.677  10.471  11.964
45901W        W18216  25.963   6.203   3.673
45902W        W18217   9.405  23.217  13.380
45903W        W18218   8.747  17.214   3.298
45904W        W18219   5.000  36.425   3.628
45905W        W18220  44.755  30.824   4.585
45906W        W18221  11.211   2.020  10.969
45907W        W18222  27.643   7.458   3.189
45908W        W18223   5.401  18.849   1.220
45909W        W18224  42.545  12.179  14.040
45910W        W18225   4.364  32.109   3.624
45911W        W18226  10.085  16.836   1.406
45912W        W18227  11.775  26.154  10.688
45913W        W18228  30.393  19.062   3.793
45914W        W18229  43.902  28.061   2.663
45915W        W18230  37.509   5.149  11.001
45916W        W18231  34.079  44.016   0.371
45917W        W18232  19.195  32.036  13.940
45918W        W18233  22.154  30.098   2.338
45919W        W18234  20.238   9.658   0.222
45920W        W18235   8.790  17.152  10.281
45921W        W18236   8.310  30.202   4.418
45922W        W18237  10.685  22.469   1.813
45923W        W18238  21.669   7.446   1.422
45924W        W18239  31.441  29.725  12.448
45925W        W18240  36.706  37.420   2.718
45926W        W18241  12.349  13.911   0.754
45927W        W18242  23.196  14.785   3.750
45928W        W18243  28.172  24.670   0.407
45929W        W18244   9.610  39.820  13.888
45930W        W18245  17.578   9.741   1.343
45931W        W18246  17.555  14.059  13.887
45932W        W18247  44.446  29.571   4.182
45933W        W18248  38.945  36.091   0.774
45934W        W18249  25.290   5.192  12.042
45935W        W18250  38.150  26.152   2.178
45936W        W18251  14.281  20.064  12.302
45937W        W18252  19.073  26.711  11.115
45938W        W18253  15.701  37.943  14.847
45939W        W18254   6.743  34.251   4.236
45940W        W18255  13.031   9.302  14.015
45941W        W18256   0.213  23.756   4.348
45942W        W18257  30.296  38.571  14.316
45943W        W18258   5.425  34.690  14.432
45944W        W18259  21.114  16.437   4.560
45945W        W18260  38.015  31.373  10.579
45946W        W18261  11.334  26.369   3.122
45947W        W18262  20.667  17.335  10.682
45948W        W18263  20.106  35.408  12.574
45949W        W18264  21.963  28.659  12.813
45950W        W18265   0.532   9.666   3.359
45951W        W18266  23.284  33.682   4.072
45952W        W18267  34.423  21.214   4.089
45953W        W18268   7.774  42.877  11.193
45954W        W18269  22.208  19.774   4.146
45955W        W18270  31.180  35.522  13.733
45956W        W18271   6.622  42.430   0.495
45957W        W18272  25.028  30.405  13.331
45958W        W18273  17.848  12.551   1.276
45959W        W18274   6.147  39.220  10.113
45960W        W18275  21.117  38.609  11.875
45961W        W18276  30.454  12.391  14.371
45962W        W18277  33.330   2.262  11.124
45963W        W18278  44.270  10.713  11.940
45964W        W18279  44.904  43.323  13.573
45965W        W18280  31.117  41.822   2.910
45966W        W18281   0.533  11.808  10.363
45967W        W18282   7.216  39.377   3.810
45968W        W18283  17.813   0.313  11.922
45969W        W18284  40.651  18.853  11.731
45970W        W18285  14.190  23.230  14.897
45971W        W18286   2.093  31.959  10.485
45972W        W18287  39.862   5.502  13.460
45973W        W18288  24.686  24.457   0.366
45974W        W18289  28.051   1.889   0.487
45975W        W18290   4.533  32.131   3.131
45976W        W18291  20.313  13.629   0.896
45977W        W18292  30.952  12.219   4.143
45978W        W18293  18.607   3.195   3.732
45979W        W18294  31.950  13.141  12.440
45980W        W18295  27.061   8.405   3.182
45981W        W18296  29.077  39.064  11.239
45982W        W18297  22.481  35.484  12.842
45983W        W18298  12.821   8.403   2.252
45984W        W18299  33.886   3.502  12.010
45985W        W18300  15.705  34.615   2.384
45986W        W18301  23.063  35.446   2.372
45987W        W18302  26.506  27.908   2.255
45988W        W18303  19.174   2.762  11.194
45989W        W18304  17.161  43.293   3.625
45990W        W18305  15.562  18.727   1.281
45991W        W18306  22.649  38.935   0.062
45992W        W18307  43.872  31.569   1.108
45993W        W18308  22.495   6.688  12.492
45994W        W18309  43.447  11.327   3.633
45995W        W18310   4.783  41.763   4.136
45996W        W18311  36.581  16.075  11.525
45997W        W18312  30.149  26.565   3.237
45998W        W18313  16.044  35.654   0.451
45999W        W18314   4.023  32.601  14.434
46000W        W18315   1.868  27.492   4.266
46001W        W18316  20.656  27.651   0.964
46002W        W18317  37.841  28.003   0.943
46003W        W18318   0.783  38.727  10.758
46004W        W18319   0.192   9.170   1.678
46005W        W18320  12.084  24.522   3.685
46006W        W18321  37.851   8.373   1.789
46007W        W18322   6.258  10.689  12.559
46008W        W18323   4.711  34.551   3.621
46009W        W18324   5.384  20.157   1.737
46010W        W18325  26.391  13.589  12.388
46011W        W18326  23.186  43.324  13.194
46012W        W18327  33.892  17.924  14.997
46013W        W18328  39.386  30.867  12.531
46014W        W18329  34.084  17.085   0.083
46015W        W18330  41.275  39.562   4.109
46016W        W18331   8.251  35.879   3.434
46017W        W18332   6.392   8.819  10.611
46018W        W18333  20.397  23.120  12.337
46019W        W18334   3.794  15.269   0.109
46020W        W18335  13.372   8.156  12.797
46021W        W18336  19.976  15.793  13.446
46022W        W18337   8.148  33.027  10.675
46023W        W18338   3.947  16.776   4.614
46024W        W18339   3.340  30.362  12.004
46025W        W18340  42.053  15.724   4.316
46026W        W18341  23.211  38.064   1.209
46027W        W18342   7.005  30.849  11.645
46028W        W18343  12.231  33.209   3.880
46029W        W18344  15.704  17.384   0.403
46030W        W18345  36.329   2.287  12.515
46031W        W18346   8.086  28.633   4.143
46032W        W18347  28.215  33.680  12.360
46033W        W18348  44.115  18.272   5.025
46034W        W18349  29.602  33.505   0.725
46035W        W18350  27.005  26.471  11.163
46036W        W18351  36.494  41.436   0.323
46037W        W18352  33.862  32.484  12.101
46038W        W18353   4.831  16.704   4.206
46039W        W18354  39.438  30.803  11.540
46040W        W18355   5.343  14.406   4.623
46041W        W18356   0.181  24.306  11.109
46042W        W18357  31.560  35.399   1.305
46043W        W18358  13.619  13.572   2.662
46044W        W18359   0.318  28.649   4.749
46045W        W18360  23.551  42.529  11.536
46046W        W18361   4.322  40.997   1.362
46047W        W18362  13.612  28.106   0.454
46048W        W18363  35.364  18.398   4.156
46049W        W18364  14.640  43.826  12.512
46050W        W18365  19.851  43.938  13.986
46051W        W18366   0.563  23.928   3.584
46052W        W18367   6.733  30.402   3.924
46053W        W18368  17.131  24.155   4.772
46054W        W18369  17.482  27.156   1.307
46055W        W18370  20.448   8.919   1.876
46056W        W18371   5.948   8.630  14.469
46057W        W18372  26.764  14.552   0.239
46058W        W18373  17.806  21.742   1.464
46059W        W18374  36.537  43.976  10.441
46060W        W18375  17.566  14.345  12.039
46061W        W18376  10.598  24.954  13.944
46062W        W18377   2.784   3.933  14.902
46063W        W18378  15.817   7.963   3.559
46064W        W18379  15.291  41.633   4.163
46065W        W18380  30.728  32.161   1.725
46066W        W18381  30.502   3.341  12.706
46067W        W18382  16.505  42.811  14.579
46068W        W18383  20.134   1.094   1.345
46069W        W18384   2.453  36.005  13.375
46070W        W18385  40.092  15.858   0.255
46071W        W18386  22.030  12.088   1.022
46072W        W18387  21.143  11.706  10.381
46073W        W18388   7.389  21.114   1.894
46074W        W18389  35.403  35.619   1.481
46075W        W18390   6.823  34.157  13.050
46076W        W18391  40.318  14.883  14.488
46077W        W18392  12.710  36.633  11.164
46078W        W18393  43.012  27.715  13.075
46079W        W18394  31.839  37.093  13.686
46080W        W18395  26.940  39.250  12.546
46081W        W18396  36.422  27.080  11.312
46082W        W18397  25.982   6.001   2.127
46083W        W18398  19.268  26.459   5.057
46084W        W18399   3.335  10.272   0.398
46085W        W18400  37.975  35.985  13.993
46086W        W18401  22.941   7.739   3.731
46087W        W18402  21.297  15.119   2.723
46088W        W18403  11.584   3.438  14.504
46089W        W18404  39.673  40.997  14.251
46090W        W18405  28.348  32.470  10.241
46091W        W18406   6.424  24.200  13.543
46092W        W18407  26.283   5.460   1.417
46093W        W18408  43.826  24.600  13.542
46094W        W18409  14.207   5.928   3.221
46095W        W18410   4.173  34.479   0.689
46096W        W18411  33.055  36.946   2.731
46097W        W18412  10.593   0.038  12.474
46098W        W18413  44.065   2.874   2.345
46099W        W18414  16.599   7.213  11.172
46100W        W18415  42.770   0.264   1.315
46101W        W18416   0.279  27.372   4.564
46102W        W18417  24.664  24.989   0.410
46103W        W18418  38.754  32.553   0.963
46104W        W18419  23.713  31.978  14.279
46105W        W18420  30.116  16.161   0.323
46106W        W18421  20.588   0.789   1.193
46107W        W18422  18.123  31.877  14.480
46108W        W18423   4.211  44.144  13.071
46109W        W18424  12.693  39.912   2.788
46110W        W18425  27.422  22.922  11.663
46111W        W18426   9.138  44.531   3.083
46112W        W18427   7.423  18.632  13.517
46113W        W18428  13.541  13.930   3.587
46114W        W18429   9.296  39.052  11.607
46115W        W18430  31.369  17.101   3.668
46116W        W18431  20.842  15.729   3.871
46117W        W18432  38.794  22.743  11.467
46118W        W18433  31.893  12.868  14.919
46119W        W18434   6.339  24.437  14.462
46120W        W18435  40.605   2.731   0.951
46121W        W18436  26.666  39.929   3.749
46122W        W18437  43.595  11.923   4.196
46123W        W18438  38.419   4.413   4.529
46124W        W18439   2.299  44.859   2.223
46125W        W18440  35.789   9.698   1.749
46126W        W18441  27.924  40.999   0.763
46127W        W18442  19.598  10.360  12.829
46128W        W18443   4.169  21.251  12.201
46129W        W18444  24.125  19.073   4.670
46130W        W18445  29.530   9.281  10.283
46131W        W18446  10.803  35.251  11.044
46132W        W18447  35.011  17.374  12.524
46133W        W18448  30.262  26.660   4.612
46134W        W18449  26.194   4.717  13.911
46135W        W18450   2.813  20.802  14.780
46136W        W18451  34.105  34.945  14.235
46137W        W18452  25.341  43.952  14.934
46138W        W18453   8.927  43.244   4.174
46139W        W18454  25.369  38.407  11.476
46140W        W18455  18.091   9.860   1.448
46141W        W18456  20.998  11.829   2.728
46142W        W18457   6.358  16.264   1.282
46143W        W18458   4.888  13.107   0.383
46144W        W18459   7.709  28.657  14.992
46145W        W18460   3.132  42.310   0.019
46146W        W18461  35.159  20.667   2.210
46147W        W18462  15.324   6.941   1.734
46148W        W18463   2.644  27.564  11.327
46149W        W18464   7.312   5.307  11.960
46150W        W18465   9.644  37.396  10.719
46151W        W18466  22.478   9.282   3.262
46152W        W18467  26.152   1.939   4.759
46153W        W18468   6.635  26.426   2.800
46154W        W18469  17.623  37.811  13.036
46155W        W18470  40.839  12.055   3.739
46156W        W18471  40.121  40.038  14.991
46157W        W18472  27.568   8.509   3.299
46158W        W18473   4.273  44.559  12.004
46159W        W18474   0.876  28.105   0.344
46160W        W18475  10.807  32.349  12.620
46161W        W18476   1.780  30.065   2.403
46162W        W18477  24.203  10.719   4.835
46163W        W18478  17.585   6.333   1.683
46164W        W18479  29.233  35.490  13.807
46165W        W18480  15.244  37.961  11.960
46166W        W18481  42.606  16.327   4.675
46167W        W18482  29.816   2.287  11.092
46168W        W18483  39.672   5.699  11.094
46169W        W18484   0.982  20.218   3.598
46170W        W18485  11.627   2.786  11.463
46171W        W18486   8.006  12.215   1.300
46172W        W18487  39.763  15.588  11.456
46173W        W18488   9.911  13.874  12.898
46174W        W18489   4.263   7.545  14.105
46175W        W18490   3.334  23.237   4.559
46176W        W18491   9.916  14.666   4.199
46177W        W18492  24.994   6.786  11.064
46178W        W18493   5.361   7.637  10.704
46179W        W18494   2.197  12.668   3.182
46180W        W18495  40.494  36.854  14.859
46181W        W18496  34.239  19.794  12.217
46182W        W18497  28.437  21.763  11.849
46183W        W18498   1.513  33.579  14.860
46184W        W18499  30.662  29.144   1.537
46185W        W18500  43.545  10.923  13.082
46186W        W18501   6.834  21.830  12.169
46187W        W18502   5.367  29.914  11.983
46188W        W18503  36.991  15.282  12.083
46189W        W18504  27.456  14.270   0.191
46190W        W18505   3.659  33.713  11.043
46191W        W18506  28.610   9.330  11.700
46192W        W18507  18.631  33.188   2.874
46193W        W18508  37.243  13.025  12.956
46194W        W18509  41.804  43.540   4.538
46195W        W18510   7.787  32.135  11.982
46196W        W18511   6.467  26.637  11.195
46197W        W18512  24.732  26.465  12.578
46198W        W18513  39.681  41.358  13.852
46199W        W18514  25.969  14.042  13.065
46200W        W18515  26.478   8.848  10.676
46201W        W18516   0.086  18.521  11.151
46202W        W18517   8.845  15.513   2.626
46203W        W18518  33.387  44.969   2.583
46204W        W18519   3.431   5.904   1.835
46205W        W18520  29.760   7.481  13.794
46206W        W18521  42.459   9.850  10.693
46207W        W18522  44.923  12.047   0.874
46208W        W18523  18.409  41.585   0.753
46209W        W18524   3.527  33.905   4.211
46210W        W18525  23.262  25.044   0.717
46211W        W18526  40.466  15.235   2.888
46212W        W18527   7.770  12.820   1.549
46213W        W18528  22.572  42.054   0.369
46214W        W18529   5.242  41.895   3.099
46215W        W18530   9.859   6.931   0.787
46216W        W18531  17.239  30.539   4.944
46217W        W18532  42.253  14.145   2.281
46218W        W18533  21.089  15.654  13.850
46219W        W18534  44.530  31.462  12.049
46220W        W18535  28.224  12.929  10.203
46221W        W18536  24.526  38.078  11.571
46222W        W18537  40.959  11.768  13.090
46223W        W18538  33.414  25.097  13.435
46224W        W18539  40.035  24.957   3.316
46225W        W18540  38.784  35.988   0.266
46226W        W18541  28.087   6.824  14.039
46227W        W18542  19.788  34.859   0.322
46228W        W18543  15.241  23.389   2.217
46229W        W18544   7.292  26.526  12.524
46230W        W18545  15.707  18.788   0.414
46231W        W18546   2.502  19.576   1.778
46232W        W18547  39.117   5.854  13.578
46233W        W18548   6.292  32.921  14.716
46234W        W18549  21.912  15.137   3.494
46235W        W18550  34.375  15.372  11.658
46236W        W18551  34.079  37.168   2.230
46237W        W18552  34.892  44.186   2.632
46238W        W18553  24.534  42.120   1.994
46239W        W18554  32.002  28.902   1.199
46240W        W18555   0.800  28.180   3.091
46241W        W18556  13.732  21.522  13.843
46242W        W18557  40.815  34.155  12.642
46243W        W18558   6.430  16.509  14.984
46244W        W18559   5.109  16.843   3.220
46245W        W18560  34.124  19.085  13.836
46246W        W18561  41.900  12.623  10.510
46247W        W18562  44.962  36.905  11.038
46248W        W18563   5.130   2.191  12.109
46249W        W18564  36.567   1.945  10.295
46250W        W18565  44.111  29.006   1.366
46251W        W18566  33.859  18.575   1.934
46252W        W18567  19.049  40.481  14.177
46253W        W18568  27.910  24.521  10.652
46254W        W18569  42.267   7.927  11.173
46255W        W18570  11.226  38.239   4.316
46256W        W18571  21.032  36.017  10.289
46257W        W18572  27.038  41.724   4.744
46258W        W18573  35.348   2.034   4.616
46259W        W18574  18.467  28.041   1.434
46260W        W18575   0.546   2.875   4.704
46261W        W18576  10.576  15.339   4.689
46262W        W18577   9.688  34.148  14.042
46263W        W18578  32.849  38.058   3.987
46264W        W18579  17.059   1.547   4.102
46265W        W18580  28.505   2.789   3.739
46266W        W18581   0.437  24.004  11.948
46267W        W18582   2.831  22.601  10.590
46268W        W18583  18.612  27.776  10.657
46269W        W18584  29.517  22.213  13.637
46270W        W18585  10.736  17.609  12.910
46271W        W18586  26.309  29.173  11.629
46272W        W18587   6.917   9.667  12.821
46273W        W18588   2.686  14.178   2.625
46274W        W18589   8.607  43.877  13.413
46275W        W18590  23.923  20.279  10.677
46276W        W18591  34.179  26.612  12.192
46277W        W18592  23.716  35.318   3.670
46278W        W18593  11.262  40.954   3.527
46279W        W18594   9.179  39.575   0.976
46280W        W18595  17.607  34.005   4.095
46281W        W18596  28.907   8.899   0.363
46282W        W18597  29.180  17.012  11.116
46283W        W18598  39.904  19.468  14.462
46284W        W18599   5.318   0.316  11.176
46285W        W18600   0.895   3.658  12.027
46286W        W18601   0.515  17.994  12.959
46287W        W18602  13.824  26.867   1.239
46288W        W18603   2.467  13.079   0.289
46289W        W18604  26.061  27.061   2.828
46290W        W18605   5.807  18.047  13.447
46291W        W18606  27.463  11.565  11.896
46292W        W18607  38.109  40.389   1.267
46293W        W18608  34.917  35.149   3.622
46294W        W18609   3.386  27.496   3.171
46295W        W18610  28.919  35.400   3.660
46296W        W18611   0.408  28.407   0.336
46297W        W18612  19.276  11.191   4.174
46298W        W18613  41.866  28.374  10.779
46299W        W18614  44.822  25.652  10.908
46300W        W18615  11.234  40.779   1.689
46301W        W18616  21.170  16.191   0.270
46302W        W18617  14.239  26.161   1.407
46303W        W18618  18.613   3.743  10.638
46304W        W18619   2.806   0.431   2.824
46305W        W18620  44.292  21.508  14.419
46306W        W18621   0.782  43.633   1.487
46307W        W18622  44.761  35.475   4.578
46308W        W18623   6.317  25.769   3.442
46309W        W18624  14.149  14.730   3.336
46310W        W18625  10.112  32.555   0.924
46311W        W18626  26.950   0.003  14.311
46312W        W18627  42.408   3.782  12.778
46313W        W18628  18.117  37.504  11.958
46314W        W18629  18.697  34.059   4.494
46315W        W18630  18.883  38.645  14.936
46316W        W18631  30.981  36.477   4.487
46317W        W18632  31.465  44.744   2.783
46318W        W18633  39.456  27.396   3.215
46319W        W18634  30.472   6.936   0.880
46320W        W18635   1.953  39.289  12.153
46321W        W18636  43.980  14.779   0.572
46322W        W18637   9.185  16.979   3.194
46323W        W18638  42.438   8.408   4.345
46324W        W18639  12.605  15.706  13.551
46325W        W18640   0.695  25.176  13.812
46326W        W18641  31.978  26.362   9.987
46327W        W18642   8.217   8.172  11.491
46328W        W18643   8.912  23.152   1.313
46329W        W18644  35.524  19.720   0.788
46330W        W18645  18.644  19.181   4.573
46331W        W18646  30.651  41.783  14.329
46332W        W18647  24.082  25.779   4.113
46333W        W18648  18.787  15.247  12.192
46334W        W18649   9.823  17.733   0.458
46335W        W18650  43.961  25.083   3.181
46336W        W18651  15.782   1.674  13.310
46337W        W18652  30.494  41.106   1.491
46338W        W18653  13.320  34.618   4.698
46339W        W18654  43.893  29.918   1.173
46340W        W18655  17.845  44.912   0.268
46341W        W18656   1.856  24.524   2.105
46342W        W18657  14.528  16.696   3.202
46343W        W18658  34.341   6.446  12.433
46344W        W18659  17.076  22.940  10.713
46345W        W18660  32.854  11.899  14.368
46346W        W18661  31.510  19.002  13.783
46347W        W18662   7.749  39.050  13.234
46348W        W18663  26.236  17.800   4.679
46349W        W18664  31.842  44.840   3.594
46350W        W18665  23.282  14.390   4.070
46351W        W18666   9.879  19.081   0.817
46352W        W18667  20.541  13.075   3.748
46353W        W18668  18.624  11.578   2.353
46354W        W18669  44.510  18.762  14.934
46355W        W18670  27.740  15.571  14.848
46356W        W18671  16.771  40.539  10.267
46357W        W18672  12.060   8.687  14.453
46358W        W18673  44.758  36.056   0.878
46359W        W18674  32.971  31.903  14.790
46360W        W18675  35.482   0.770  10.938
46361W        W18676  14.712  42.961  14.562
46362W        W18677  43.074  14.476  14.738
46363W        W18678   1.898  26.243  14.888
46364W        W18679   5.726  32.424  11.263
46365W        W18680  23.023  39.520  13.455
46366W        W18681  13.005   1.853   4.920
46367W        W18682  21.229  16.606   1.215
46368W        W18683  36.023  14.625  12.933
46369W        W18684  18.025   6.219   4.936
46370W        W18685  17.043   6.710  14.450
46371W        W18686  43.812  28.039  10.731
46372W        W18687   7.329  13.692   4.068
46373W        W18688  30.891  17.193   4.564
46374W        W18689  22.255  11.604  10.629
46375W        W18690  16.805   0.766   2.893
46376W        W18691  12.370   9.309  13.459
46377W        W18692  32.512  28.595   3.754
46378W        W18693   0.478  11.823  11.376
46379W        W18694  43.914  21.189  10.420
46380W        W18695  37.911  10.373   1.637
46381W        W18696  14.259  25.610   4.678
46382W        W18697   4.324  20.220  11.179
46383W        W18698  25.233  38.880  11.599
46384W        W18699  23.524  17.226  10.716
46385W        W18700   1.810   1.696  12.835
46386W        W18701  10.367   3.345   4.453
46387W        W18702  28.626  15.506   4.388
46388W        W18703   7.030  13.598   3.342
46389W        W18704  19.704  22.037   3.206
46390W        W18705  18.086   5.486   3.129
46391W        W18706   5.787  41.976   2.349
46392W        W18707  30.504  15.817   1.244
46393W        W18708   8.315  22.092  14.876
46394W        W18709  29.185  20.586  11.727
46395W        W18710  36.843  36.855  12.279
46396W        W18711   0.056  41.959   1.976
46397W        W18712  25.737  15.742   1.152
46398W        W18713  38.758  14.129   0.021
46399W        W18714   6.918  24.434  10.990
46400W        W18715  40.147   4.397  14.803
46401W        W18716  43.070  38.336  11.571
46402W        W18717  36.359  37.418   2.310
46403W        W18718  25.190  41.792  11.811
46404W        W18719  37.798   5.838   4.591
46405W        W18720  31.938  17.625   0.391
46406W        W18721   2.937   8.175  14.650
46407W        W18722  42.204  39.915  13.289
46408W        W18723   6.971   6.759  14.476
46409W        W18724  24.594  21.680  10.395
46410W        W18725  32.678   7.810   4.379
46411W        W18726  44.526  25.644   0.414
46412W        W18727  34.451  28.124  11.258
46413W        W18728  25.249   4.708   1.838
46414W        W18729   8.922  18.749   1.857
46415W        W18730  10.658  42.373   2.248
46416W        W18731  13.739   1.991  11.277
46417W        W18732   2.668  31.468   4.617
46418W        W18733  31.311  34.052  12.678
46419W        W18734  11.254  41.281   1.795
46420W        W18735   1.043  35.943  11.090
46421W        W18736  34.448  42.520   1.213
46422W        W18737  37.471  18.673  12.988
46423W        W18738  41.542  23.757   4.203
46424W        W18739  15.392   4.374  13.026
46425W        W18740  12.116  40.281   2.755
46426W        W18741   9.353  15.505  13.961
46427W        W18742   3.283  44.685   5.119
46428W        W18743  11.740  29.506  13.495
46429W        W18744   5.435   2.355   1.786
46430W        W18745  39.975  43.507  14.745
46431W        W18746  37.218   3.404  13.590
46432W        W18747  14.777  15.081  13.062
46433W        W18748  26.877  43.950  11.474
46434W        W18749   5.278  29.848   3.626
46435W        W18750  12.133   6.736   3.939
46436W        W18751   0.309  10.976   3.245
46437W        W18752  23.623  13.092   2.742
46438W        W18753  33.668  34.614  14.414
46439W        W18754  26.426  21.732   1.133
46440W        W18755   6.220  28.107   3.347
46441W        W18756   0.474  15.887  13.889
46442W        W18757  22.459   6.939   0.930
46443W        W18758  40.426  29.572   4.383
46444W        W18759  22.526  13.203  14.934
46445W        W18760  44.356  38.861  11.917
46446W        W18761  11.616  32.866   3.263
46447W        W18762  12.575  31.512   1.020
46448W        W18763  37.389  41.780   0.503
46449W        W18764  13.563  29.474  13.016
46450W        W18765  39.894  31.368   1.033
46451W        W18766  40.786  16.296   2.291
46452W        W18767  17.216  13.696  12.986
46453W        W18768  40.836  16.771  13.364
46454W        W18769  32.143  32.143  11.119
46455W        W18770  40.496   7.774  12.164
46456W        W18771  32.344  18.909  12.908
46457W        W18772  17.858  10.701   0.255
46458W        W18773  19.405  36.840  11.985
46459W        W18774  42.925  13.611  10.625
46460W        W18775  32.001  16.792   1.382
46461W        W18776  19.246   6.798  14.045
46462W        W18777  27.860   3.280   9.775
46463W        W18778  13.411  29.156   0.354
46464W        W18779  19.272   7.443  10.260
46465W        W18780  14.241  30.760   1.298
46466W        W18781  31.170  13.998  12.505
46467W        W18782   2.780  43.527   2.864
46468W        W18783  27.741  32.188  10.219
46469W        W18784  43.553   3.173  11.567
46470W        W18785   1.111  27.963  11.675
46471W        W18786   0.903  44.922  10.487
46472W        W18787  39.285  19.184   5.060
46473W        W18788  18.124  33.873  12.845
46474W        W18789  12.574  29.191  11.136
46475W        W18790  20.406  30.744   4.152
46476W        W18791   6.140   7.909   2.324
46477W        W18792  16.133   8.688   3.161
46478W        W18793  22.660  31.392   1.234
46479W        W18794   3.369  31.367   3.981
46480W        W18795   4.062  38.873  11.170
46481W        W18796  20.064  12.393   3.110
46482W        W18797  23.221  24.761   3.196
46483W        W18798  29.950  31.904   0.935
46484W        W18799  28.994  19.761  10.731
46485W        W18800  32.155  16.102  12.054
46486W        W18801  28.118  16.461  10.590
46487W        W18802  21.193   9.341  14.816
46488W        W18803  38.388  11.210   0.254
46489W        W18804  21.552   8.937  12.014
46490W        W18805  21.747  10.317  13.844
46491W        W18806  28.018  35.458  14.283
46492W        W18807  18.034   9.196   3.328
46493W        W18808  10.762  11.372   4.138
46494W        W18809  44.443  31.522   3.903
46495W        W18810  28.870  27.080   2.248
46496W        W18811  34.682  19.731  13.033
46497W        W18812   1.970  18.971   0.294
46498W        W18813  39.611   4.815   0.459
46499W        W18814   3.507   9.720   2.839
46500W        W18815  32.978  13.969   3.256
46501W        W18816  14.098  17.845   1.478
46502W        W18817  40.016  36.531  14.962
46503W        W18818  29.141  15.413  11.979
46504W        W18819  34.090   8.712   0.788
46505W        W18820  37.474  12.713  14.020
46506W        W18821   0.282  14.006  10.634
46507W        W18822  41.065  36.344  12.116
46508W        W18823  13.601  44.344  13.822
46509W        W18824   4.456  21.940  11.026
46510W        W18825  34.439  21.661   4.722
46511W        W18826  35.579  32.513   3.672
46512W        W18827  34.662  13.213   0.657
46513W        W18828  14.638  30.390   4.539
46514W        W18829  11.744   1.312  10.399
46515W        W18830  13.943  23.184  14.256
46516W        W18831  26.878  37.845   2.781
46517W        W18832   5.513   1.958   0.961
46518W        W18833  33.559  42.272  11.090
46519W        W18834  21.627  35.121   1.968
46520W        W18835   1.922  34.867  13.008
46521W        W18836   4.850  19.303   4.391
46522W        W18837  12.354  29.829  14.886
46523W        W18838  15.821   6.335   3.640
46524W        W18839  26.093  41.596   2.266
46525W        W18840  14.676  14.769   2.617
46526W        W18841  29.940  42.502   2.868
46527W        W18842  12.107   1.684   1.400
46528W        W18843  29.123  18.617  14.818
46529W        W18844  44.723  26.894  14.907
46530W        W18845   5.408  40.538   3.456
46531W        W18846  34.872   9.976   4.840
46532W        W18847  43.037  39.855  10.256
46533W        W18848  42.840  17.634   0.207
46534W        W18849  12.388  28.007   1.986
46535W        W18850  37.475   1.660  10.222
46536W        W18851  30.601  36.817   2.765
46537W        W18852  21.724  32.632  14.496
46538W        W18853  29.767  15.228   2.708
46539W        W18854  23.214  19.217  14.046
46540W        W18855  17.140  40.899   0.896
46541W        W18856  24.286  38.668  14.302
46542W        W18857  20.050  10.413  14.598
46543W        W18858  27.486  20.027  11.473
46544W        W18859  35.454   9.616  13.529
46545W        W18860  20.808  33.204   1.331
46546W        W18861  38.533  21.782  12.219
46547W        W18862  26.171  33.949  10.903
46548W        W18863  22.025   2.694   2.772
46549W        W18864  24.267   1.482  11.172
46550W        W18865  26.555  14.673   2.484
46551W        W18866  24.222  36.606   3.623
46552W        W18867  35.386   1.739   0.509
46553W        W18868  11.793  18.561  11.155
46554W        W18869  20.651  32.167   4.536
46555W        W18870  37.237  38.672  14.434
46556W        W18871  36.499  27.657   3.282
46557W        W18872  36.842  21.504   3.759
46558W        W18873  32.623  29.013  11.627
46559W        W18874  26.562  25.475  13.387
46560W        W18875  44.939   4.465  14.411
46561W        W18876  13.590  12.080  10.866
46562W        W18877  20.242  42.488  13.294
46563W        W18878  33.382   0.192   0.293
46564W        W18879  27.412  33.050  13.345
46565W        W18880  17.550   8.250  14.725
46566W        W18881  33.152  35.434  12.066
46567W        W18882   6.676  20.277  14.535
46568W        W18883   7.783   9.440   2.311
46569W        W18884  14.198  15.313   0.453
46570W        W18885  10.904   4.926   3.195
46571W        W18886  12.213  12.792  13.599
46572W        W18887  19.092   7.839   5.199
46573W        W18888  38.846   4.643  11.513
46574W        W18889  19.023  14.621  13.218
46575W        W18890   8.283  27.962  12.713
46576W        W18891  31.166   8.412   1.740
46577W        W18892  37.465  22.267   9.627
46578W        W18893   6.708  27.229   3.086
46579W        W18894  24.567  23.853  10.988
46580W        W18895  17.040  28.586  13.062
46581W        W18896  35.474  39.848  10.941
46582W        W18897  26.484  34.615   4.186
46583W        W18898  40.204  17.397   3.320
46584W        W18899  22.155  25.915   0.673
46585W        W18900  44.133  44.550   4.959
46586W        W18901  22.161   2.117   1.799
46587W        W18902  39.602  42.027   3.646
46588W        W18903  20.085  27.456  14.546
46589W        W18904   1.341  23.054  14.750
46590W        W18905  17.555  21.094   2.171
46591W        W18906   2.841  21.143  14.364
46592W        W18907  29.539  13.939   4.285
46593W        W18908  20.645  20.189   3.384
46594W        W18909  10.748   0.949  14.265
46595W        W18910  21.254  12.632  13.842
46596W        W18911  12.087  23.042   0.833
46597W        W18912  20.679  30.186  12.647
46598W        W18913  31.839  30.832   4.259
46599W        W18914   3.278  27.677   4.529
46600W        W18915  34.645  31.598  12.877
46601W        W18916   0.733   9.228   0.010
46602W        W18917  38.377  11.434  14.764
46603W        W18918   9.139  16.327  10.503
46604W        W18919  27.743  37.107   2.363
46605W        W18920  39.568  41.927  14.493
46606W        W18921  31.871  12.234  14.378
46607W        W18922   1.740   4.025  14.298
46608W        W18923  12.842   9.143   2.771
46609W        W18924  42.035   7.676  12.039
46610W        W18925  41.914  40.832  11.194
46611W        W18926  42.962  30.602  14.877
46612W        W18927   5.361   3.295  11.300
46613W        W18928   6.927   8.769  12.747
46614W        W18929  40.554  32.902   0.767
46615W        W18930  27.489   6.559   1.542
46616W        W18931  12.617  14.202  11.876
46617W        W18932  27.610  26.797   5.021
46618W        W18933  16.689  21.952   3.625
46619W        W18934  34.116   1.303  13.583
46620W        W18935  19.179  15.763  12.168
46621W        W18936  36.972  19.586  11.472
46622W        W18937  23.245   8.827   2.501
46623W        W18938  36.887  40.885   0.015
46624W        W18939  34.198  20.188   4.128
46625W        W18940   7.357  34.902  12.954
46626W        W18941  20.078   4.365  11.220
46627W        W18942  29.200  44.340  11.916
46628W        W18943  25.501   5.786  12.776
46629W        W18944  31.357  17.690  11.502
46630W        W18945  26.744   1.534   0.942
46631W        W18946  17.855  16.199  13.883
46632W        W18947  11.869   0.198  10.483
46633W        W18948  35.435  26.421  14.523
46634W        W18949  15.564  27.618  10.604
46635W        W18950  38.814   1.332  12.024
46636W        W18951  10.196   8.095   2.270
46637W        W18952   5.211  10.310   3.698
46638W        W18953  18.870  28.491  11.115
46639W        W18954  34.625  17.078   0.868
46640W        W18955   7.568   2.797   1.314
46641W        W18956  44.025  26.527  13.427
46642W        W18957  29.967   8.273   2.438
46643W        W18958  13.099  18.783   4.107
46644W        W18959  29.085   7.153   0.425
46645W        W18960  30.092   1.246  14.991
46646W        W18961  44.761  43.033  12.014
46647W        W18962   1.187  41.328  13.030
46648W        W18963   6.608  42.291   1.014
46649W        W18964  32.200  10.223  10.550
46650W        W18965  34.114  43.015   2.272
46651W        W18966  38.461   9.149  14.292
46652W        W18967   5.438  23.576  13.452
46653W        W18968   7.175  36.921  13.568
46654W        W18969   7.633  28.240   1.431
46655W        W18970  18.043   4.868   3.710
46656W        W18971  38.119  23.217   2.770
46657W        W18972  31.162  37.092   0.121
46658W        W18973  36.951   3.881  10.697
46659W        W18974  19.851  36.547  12.021
46660W        W18975  16.042  13.195   1.443
46661W        W18976  35.666  14.256  11.627
46662W        W18977  19.518  24.582   0.357
46663W        W18978  18.173  20.199   1.797
46664W        W18979  33.514   8.161  13.044
46665W        W18980   3.346   0.788  12.990
46666W        W18981   4.516   7.827   0.943
46667W        W18982  21.141   2.523  10.754
46668W        W18983  14.590  23.640   4.270
46669W        W18984   2.921  17.224   1.152
46670W        W18985  18.636   3.264   1.219
46671W        W18986  15.897  33.928   4.531
46672W        W18987  22.820  40.534   1.271
46673W        W18988  19.082  44.520  11.245
46674W        W18989  34.964   7.360  12.970
46675W        W18990  21.302  24.675   3.356
46676W        W18991   9.119  14.396  11.620
46677W        W18992  14.018  15.632   0.886
46678W        W18993  22.099   2.803   1.327
46679W        W18994  36.567  39.921   2.159
46680W        W18995  19.506  32.417  14.861
46681W        W18996  32.480  10.184   0.722
46682W        W18997  12.621   9.631   3.170
46683W        W18998  37.818  37.411  10.045
46684W        W18999  12.397  35.234   4.842
46685W        W19000   0.208  15.075  14.862
46686W        W19001  31.473  17.075  14.790
46687W        W19002  34.795  18.343   4.845
46688W        W19003  28.143  19.581   0.779
46689W        W19004  29.493   2.468  12.501
46690W        W19005  20.904  33.874  12.155
46691W        W19006  38.412   9.834  14.928
46692W        W19007   6.471  10.412   4.450
46693W        W19008   1.714  44.620  10.914
46694W        W19009  28.724  10.939  13.544
46695W        W19010  42.366   3.874   4.457
46696W        W19011  18.821  41.950  12.039
46697W        W19012  39.572   1.201  13.402
46698W        W19013  42.012   4.257   4.597
46699W        W19014  37.537  33.430   2.354
46700W        W19015  33.188   0.773   2.008
46701W        W19016  13.864   5.290   4.208
46702W        W19017  22.741   9.231   0.207
46703W        W19018   1.725   4.916   2.333
46704W        W19019  31.441  13.072   2.223
46705W        W19020  21.970   1.261   2.209
46706W        W19021  13.090  15.114   4.260
46707W        W19022   0.670  29.725  10.735
46708W        W19023   3.328   5.967   4.199
46709W        W19024  27.648   4.690  11.151
46710W        W19025  37.148  24.269   0.110
46711W        W19026  12.852   0.020  11.707
46712W        W19027  44.828  44.706   3.076
46713W        W19028   0.183  43.825   1.897
46714W        W19029  25.456  35.598   3.157
46715W        W19030  28.743  21.212   1.257
46716W        W19031   6.728  13.168   3.239
46717W        W19032  16.834   8.700   5.034
46718W        W19033  36.379  21.230   3.928
46719W        W19034  19.156  28.490  11.531
46720W        W19035  34.240  33.133  12.863
46721W        W19036  28.948   6.712  10.633
46722W        W19037  37.583  27.718   0.527
46723W        W19038  21.787  34.865  14.050
46724W        W19039   9.268  24.379   1.227
46725W        W19040  30.010  18.042  13.918
46726W        W19041  32.359  44.276  14.274
46727W        W19042   9.607  18.534  13.894
46728W        W19043  17.695   8.299   1.882
46729W        W19044  16.259  42.539   1.367
46730W        W19045  11.811   8.215   2.295
46731W        W19046   6.645  15.664   4.777
46732W        W19047   5.773  34.019   1.418
46733W        W19048  27.983  10.645   0.584
46734W        W19049  19.952  29.519  14.979
46735W        W19050  24.472  17.101   1.873
46736W        W19051  42.032   1.871   9.957
46737W        W19052   8.165  33.965  13.152
46738W        W19053  19.704   0.013   4.737
46739W        W19054  39.864   0.015  14.826
46740W        W19055  13.609  43.845   4.416
46741W        W19056  40.570  33.461   4.047
46742W        W19057   5.234  23.693   2.790
46743W        W19058  38.467  31.837  11.882
46744W        W19059   6.696  40.251   1.398
46745W        W19060   9.850   1.218   2.952
46746W        W19061  40.962  24.004   2.217
46747W        W19062  36.057  35.358   0.310
46748W        W19063   7.340   1.502   3.595
46749W        W19064  38.883  14.717  13.553
46750W        W19065  30.303  44.761   0.211
46751W        W19066  19.874  11.116   2.291
46752W        W19067   9.909  33.921  14.444
46753W        W19068   9.432  16.727  10.635
46754W        W19069  26.133  38.086   2.262
46755W        W19070  26.716  37.794  13.485
46756W        W19071  15.297  23.544   4.804
46757W        W19072  11.131   7.719   2.902
46758W        W19073  40.897  32.654   3.868
46759W        W19074  19.719   1.924   2.815
46760W        W19075   1.451   2.848   0.822
46761W        W19076  29.060   4.745  10.685
46762W        W19077   8.203  20.439   4.113
46763W        W19078  17.797  21.734  13.955
46764W        W19079   7.659  35.347   0.844
46765W        W19080  14.561   0.333   0.416
46766W        W19081  43.012  43.792   1.300
46767W        W19082  19.580  26.675  11.623
46768W        W19083   0.215  11.571  13.662
46769W        W19084  29.571  32.606  11.142
46770W        W19085  35.029   1.997   0.794
46771W        W19086  30.486  31.677  13.326
46772W        W19087  11.844  17.818   4.646
46773W        W19088  12.516  32.244   3.298
46774W        W19089  12.480  41.375   4.600
46775W        W19090   0.805  41.824  11.164
46776W        W19091  34.380  41.553   1.137
46777W        W19092  14.779  31.603   4.754
46778W        W19093  35.301  32.460   4.097
46779W        W19094  28.523  34.355   3.895
46780W        W19095  13.847  34.367  13.017
46781W        W19096  43.059  33.622  12.539
46782W        W19097  28.031  13.631   3.130
46783W        W19098  44.442  24.114  13.988
46784W        W19099  32.104  37.999   1.262
46785W        W19100  20.122  23.243  10.576
46786W        W19101  24.002   6.346  13.469
46787W        W19102  29.995  30.388  12.510
46788W        W19103  43.595  25.727  14.222
46789W        W19104  35.417   3.934  14.428
46790W        W19105  19.794  31.624  12.384
46791W        W19106  30.511  18.135  10.736
46792W        W19107  32.501  31.628   2.973
46793W        W19108  21.221  19.131   0.493
46794W        W19109  35.447  27.367  11.002
46795W        W19110  28.179  36.411   2.785
46796W        W19111  30.593   1.327   2.749
46797W        W19112  17.036  37.244   3.667
46798W        W19113  33.040  34.557  11.875
46799W        W19114  20.924  17.449   4.697
46800W        W19115   0.900  42.419   0.852
46801W        W19116  39.555  30.839   1.824
46802W        W19117   7.772  16.648  10.730
46803W        W19118  42.154   5.234   2.942
46804W        W19119   8.036  39.888   1.267
46805W        W19120  15.288  14.423  14.985
46806W        W19121   2.443   8.812   2.297
46807W        W19122  30.293  11.093  14.394
46808W        W19123  28.157   1.596  12.151
46809W        W19124   5.753  23.774  13.980
46810W        W19125   2.346   8.766   0.998
46811W        W19126  10.102  43.530   1.228
46812W        W19127  39.068   7.493  13.053
46813W        W19128  10.682   7.671   2.629
46814W        W19129  35.865  25.732   1.131
46815W        W19130   8.260  26.554   3.853
46816W        W19131  39.980  42.845   3.318
46817W        W19132   6.647  31.829   4.611
46818W        W19133  27.057  22.435  13.125
46819W        W19134   9.184  37.375   4.826
46820W        W19135  25.587  22.779   3.710
46821W        W19136  13.824  15.500   1.841
46822W        W19137  26.161  14.706   1.139
46823W        W19138   5.299  38.827   0.112
46824W        W19139  24.591  23.402   1.208
46825W        W19140  36.586   1.450  12.920
46826W        W19141  21.015   5.596   2.255
46827W        W19142   6.330  26.612   1.936
46828W        W19143  10.640  20.407  13.760
46829W        W19144  18.137  20.213  11.360
46830W        W19145  17.643  38.814  12.893
46831W        W19146  18.852   3.939  11.138
46832W        W19147  11.340  44.288   1.839
46833W        W19148  21.595   1.134  11.657
46834W        W19149  21.584  18.244   3.174
46835W        W19150  22.018  43.561   1.551
46836W        W19151   9.637  17.999   4.442
46837W        W19152  16.337  36.095  13.363
46838W        W19153  17.591  13.345  12.842
46839W        W19154  32.471  16.657  12.999
46840W        W19155   4.516  16.695   1.523
46841W        W19156  32.130  36.603  10.998
46842W        W19157  30.684  40.504   3.573
46843W        W19158   9.120  25.978   0.388
46844W        W19159  12.772  11.390   1.232
46845W        W19160  32.665  21.071  10.695
46846W        W19161  31.225  23.802  14.277
46847W        W19162   7.175  14.872  11.360
46848W        W19163  31.925  32.625  11.043
46849W        W19164  28.976  40.802   2.716
46850W        W19165   4.742  39.559   3.708
46851W        W19166  17.881  28.761  10.130
46852W        W19167  26.477   6.732   2.456
46853W        W19168  13.837  38.945   0.516
46854W        W19169  26.451  22.073  10.685
46855W        W19170  24.049  25.776   0.415
46856W        W19171  27.934   9.916   2.519
46857W        W19172  26.067  29.357  13.507
46858W        W19173  19.469  33.117   4.148
46859W        W19174  44.535  26.635  13.526
46860W        W19175  39.569  19.247  12.709
46861W        W19176  16.598  37.511  12.461
46862W        W19177  28.488  27.519  14.005
46863W        W19178  13.739   8.056   3.352
46864W        W19179   8.441   4.257  10.515
46865W        W19180  29.981   7.269   0.936
46866W        W19181  40.506  38.947  12.481
46867W        W19182   5.823   9.214  11.005
46868W        W19183  11.084  18.263   4.783
46869W        W19184   7.925  15.773  10.637
46870W        W19185   3.539  28.569  12.927
46871W        W19186  17.727  34.107   0.282
46872W        W19187  40.726  38.451  12.951
46873W        W19188   7.796  14.358  11.979
46874W        W19189   7.857  27.250  14.333
46875W        W19190  39.483  14.051   3.860
46876W        W19191  25.464  19.587  13.992
46877W        W19192  43.708  29.226   4.060
46878W        W19193  19.927  11.660   4.746
46879W        W19194  30.467  44.736   4.522
46880W        W19195  35.334  36.681  13.905
46881W        W19196  24.961  33.337  10.982
46882W        W19197   6.656  37.735   2.530
46883W        W19198   3.799  44.509  12.244
46884W        W19199  37.883  31.697  12.312
46885W        W19200  20.981  14.782   1.297
46886W        W19201   1.951   8.783  12.650
46887W        W19202  18.456  37.100  11.876
46888W        W19203  43.865  21.442   4.026
46889W        W19204  38.551  31.420   3.909
46890W        W19205  40.328   3.199   0.834
46891W        W19206  17.509  26.648  11.843
46892W        W19207  34.035  20.588  11.630
46893W        W19208  43.000  32.864   2.797
46894W        W19209  34.151  13.691  12.481
46895W        W19210   4.442  25.965   4.562
46896W        W19211   0.879  11.853   1.447
46897W        W19212  34.496   4.484   2.752
46898W        W19213  26.783   9.455  12.932
46899W        W19214  20.845  26.974  13.935
46900W        W19215   2.231  40.220   3.801
46901W        W19216  33.500  36.660  11.384
46902W        W19217  27.884   9.117  10.569
46903W        W19218  25.522   0.112   2.233
46904W        W19219  19.039  31.003  12.054
46905W        W19220  40.360  33.837  11.448
46906W        W19221   9.503   7.323  11.542
46907W        W19222  14.715  33.390  10.756
46908W        W19223  33.054   8.444  12.370
46909W        W19224  29.752  16.763  14.488
46910W        W19225  17.954   5.076  11.543
46911W        W19226   4.662  24.626  13.553
46912W        W19227  17.597   8.199   4.526
46913W        W19228  31.983  41.123   3.579
46914W        W19229   3.797  36.575   0.221
46915W        W19230  30.713  31.533  14.054
46916W        W19231  18.202  13.392   2.222
46917W        W19232  28.262  41.468  14.325
46918W        W19233   0.759  13.686  10.945
46919W        W19234  38.569   0.826  10.791
46920W        W19235  16.617  14.774  13.565
46921W        W19236  19.481  44.797  14.536
46922W        W19237  42.250  26.634  12.303
46923W        W19238  33.907  18.644  14.939
46924W        W19239  16.774   3.744  10.884
46925W        W19240  19.693   3.885   2.860
46926W        W19241  37.937  37.196   0.431
46927W        W19242   0.224   2.462   1.277
46928W        W19243  44.865  32.506  12.542
46929W        W19244  14.235  29.895   1.722
46930W        W19245  41.882   6.245  13.379
46931W        W19246  42.985  19.370  10.745
46932W        W19247   2.594  22.402  13.881
46933W        W19248  18.489  15.712  13.542
46934W        W19249  43.085  40.517  12.656
46935W        W19250  35.919  25.062   1.858
46936W        W19251  13.831  38.341  13.333
46937W        W19252   5.270  22.433   2.646
46938W        W19253   5.151  40.014  13.071
46939W        W19254   9.441  17.542   4.267
46940W        W19255  12.253  30.147   2.687
46941W        W19256  38.262   5.716  13.867
46942W        W19257  21.403  15.853  14.944
46943W        W19258  26.852   7.194  11.351
46944W        W19259  15.578  14.869   4.138
46945W        W19260   2.811   6.324   3.466
46946W        W19261  42.293   6.926   4.188
46947W        W19262  19.764   0.120  10.724
46948W        W19263  26.132  42.841   3.690
46949W        W19264  37.381  20.744   2.644
46950W        W19265   4.839  32.155   4.817
46951W        W19266   7.840  41.657   2.717
46952W        W19267  31.386  35.982  13.541
46953W        W19268  16.525  31.412   1.326
46954W        W19269  38.859  36.286  12.452
46955W        W19270  22.765  44.519   1.483
46956W        W19271  41.714  17.276   1.823
46957W        W19272   5.666  25.235   5.211
46958W        W19273  42.696  22.784  12.491
46959W        W19274  39.395  10.697  11.143
46960W        W19275  20.533  12.128   1.423
46961W        W19276   5.036  23.244   1.953
46962W        W19277  26.573  34.689   0.129
46963W        W19278  18.369  17.647  12.957
46964W        W19279  31.570  19.184   1.778
46965W        W19280  38.559   3.674  13.085
46966W        W19281  18.250  16.643  12.564
46967W        W19282  36.323  34.951   2.193
46968W        W19283  16.376   3.273   2.812
46969W        W19284  42.042   0.370   1.823
46970W        W19285  38.558  27.152  14.080
46971W        W19286   6.623  17.484  13.432
46972W        W19287  28.974  23.087  14.872
46973W        W19288  19.742  44.367  14.405
46974W        W19289  23.998  40.796   0.341
46975W        W19290   2.936  42.358  12.503
46976W        W19291  31.267  10.093   1.363
46977W        W19292   7.756  32.931   0.505
46978W        W19293  24.690   8.746  12.005
46979W        W19294  41.762   4.404   1.246
46980W        W19295  18.022  20.998  12.961
46981W        W19296  28.206   7.323   4.435
46982W        W19297  27.850  18.109  14.749
46983W        W19298   8.623  25.211  12.987
46984W        W19299  32.753   2.366  13.953
46985W        W19300  44.414   5.741  10.787
46986W        W19301  25.490   6.251  12.501
46987W        W19302  18.641   6.952   0.866
46988W        W19303  29.674  30.068  12.820
46989W        W19304  12.212   0.303   2.730
46990W        W19305  42.855  27.070   3.615
46991W        W19306   3.536  11.179  12.934
46992W        W19307  41.317  13.764   1.286
46993W        W19308  40.016  39.269   3.668
46994W        W19309  21.283  42.389  10.819
46995W        W19310  43.932  44.482  14.457
46996W        W19311   0.144  16.457   0.916
46997W        W19312  36.704   1.331   3.772
46998W        W19313  42.495   7.661  12.656
46999W        W19314   6.328  42.676   2.354
47000W        W19315  16.527  28.498  11.937
47001W        W19316  21.519   6.318   2.303
47002W        W19317  26.234   5.310   2.693
47003W        W19318  18.310  30.267   2.858
47004W        W19319  35.128  27.965   3.154
47005W        W19320  31.598  43.238  14.882
47006W        W19321  17.479  39.479   2.512
47007W        W19322  16.577  21.728  14.847
47008W        W19323  12.248  30.153   3.683
47009W        W19324   3.135  36.915  13.810
47010W        W19325  42.223  17.125   3.213
47011W        W19326  35.865  21.505   0.327
47012W        W19327  44.921  24.186   4.214
47013W        W19328  25.162  28.696  11.558
47014W        W19329  33.762   9.708   0.742
47015W        W19330  36.428  38.073  14.368
47016W        W19331  28.119  29.005   0.208
47017W        W19332   1.533  13.712   1.347
47018W        W19333  28.687   5.469  10.614
47019W        W19334  21.179  40.594   2.277
47020W        W19335  44.418   1.516  13.451
47021W        W19336  39.054  31.988  12.038
47022W        W19337  19.259  22.595  12.430
47023W        W19338  33.884  39.435  11.299
47024W        W19339  32.839  32.933   4.838
47025W        W19340  19.002  26.601  14.402
47026W        W19341  19.808  14.279   3.244
47027W        W19342  18.767  31.241  13.345
47028W        W19343  24.120  32.255  11.185
47029W        W19344  35.289  16.595  11.175
47030W        W19345   9.841  29.444   1.806
47031W        W19346  14.402  44.801   4.281
47032W        W19347  44.481  25.616   4.423
47033W        W19348  22.943   5.776   1.866
47034W        W19349   8.662  23.667   1.338
47035W        W19350  14.554  40.539  13.808
47036W        W19351  34.661  16.242   0.914
47037W        W19352  43.135  36.352   2.915
47038W        W19353   2.847  37.763   4.295
47039W        W19354  13.848  34.931   3.134
47040W        W19355   8.677  19.784  14.260
47041W        W19356  19.796  38.827  13.953
47042W        W19357  41.981   8.632   1.486
47043W        W19358  15.765  35.200  11.976
47044W        W19359   4.410  13.213  10.731
47045W        W19360  29.853   0.363   4.227
47046W        W19361  40.052  32.989  12.449
47047W        W19362  27.127   5.856   4.862
47048W        W19363  34.087   1.300   0.730
47049W        W19364  10.656  30.443  11.928
47050W        W19365  22.334  13.626  12.949
47051W        W19366  41.292  29.636   4.461
47052W        W19367  35.568  35.457   0.423
47053W        W19368  37.039  18.326  12.963
47054W        W19369  21.531   3.215  10.442
47055W        W19370  13.272  17.101  13.868
47056W        W19371  23.773  41.833  14.783
47057W        W19372  24.034   5.611  13.956
47058W        W19373   7.948   4.929   4.106
47059W        W19374  11.143  33.142   1.301
47060W        W19375  42.969  38.693  12.618
47061W        W19376  19.527  38.009   3.258
47062W        W19377   9.376  18.293  11.153
47063W        W19378  19.012  38.315  13.558
47064W        W19379  10.811  20.048   3.477
47065W        W19380  15.181  18.215   1.008
47066W        W19381  23.775  35.495  11.587
47067W        W19382  18.651   1.899  13.482
47068W        W19383   9.665   4.715   1.390
47069W        W19384   2.626  18.287  12.124
47070W        W19385  20.997  27.888   4.158
47071W        W19386  38.646  21.293   3.867
47072W        W19387   9.949  36.647   2.316
47073W        W19388  26.720  40.866   1.304
47074W        W19389  38.529  19.604   1.802
47075W        W19390   5.470  41.393  11.111
47076W        W19391  31.118  22.558  14.906
47077W        W19392  14.323  27.187   3.383
47078W        W19393  25.060  24.729   1.237
47079W        W19394  10.720  24.733   2.481
47080W        W19395  14.293  30.554   4.927
47081W        W19396  37.938  44.745  10.339
47082W        W19397  28.092  19.083  12.574
47083W        W19398  24.629  35.816   3.718
47084W        W19399  23.462  30.662  11.211
47085W        W19400  23.716   8.364  13.724
47086W        W19401  24.755   3.355   4.272
47087W        W19402  38.928   1.867   3.175
47088W        W19403   3.764  43.382   1.272
47089W        W19404  21.662  39.404  13.392
47090W        W19405  20.165   4.321   3.167
47091W        W19406  17.281  44.851  10.704
47092W        W19407  32.078  18.574   4.619
47093W        W19408   5.596  13.304   1.023
47094W        W19409  38.390  42.118  12.479
47095W        W19410  40.114  31.988  11.507
47096W        W19411  11.713  23.085   1.311
47097W        W19412  11.809  21.115   1.932
47098W        W19413  32.499   1.503   3.402
47099W        W19414   5.959  26.772   1.168
47100W        W19415  26.610  41.334  10.377
47101W        W19416  33.330  27.526   1.127
47102W        W19417  19.117  22.925  11.193
47103W        W19418  26.469  44.999   1.544
47104W        W19419  30.483  39.874   1.792
47105W        W19420  21.584  38.122  13.232
47106W        W19421  23.998  15.537   1.815
47107W        W19422  40.753  15.866   3.175
47108W        W19423  41.346  40.981   4.992
47109W        W19424  40.846  33.178   4.711
47110W        W19425  43.429   6.341  12.045
47111W        W19426  44.781   4.820  14.069
47112W        W19427  32.922  10.079   3.599
47113W        W19428   4.927  26.682   3.752
47114W        W19429   5.758  28.273  11.436
47115W        W19430  33.388   5.388  13.561
47116W        W19431  39.301  40.591   2.303
47117W        W19432  20.315  35.528  11.470
47118W        W19433  21.298  25.549  14.912
47119W        W19434   0.829  12.347   3.162
47120W        W19435  15.653  40.306   0.324
47121W        W19436  42.435   3.402   4.219
47122W        W19437  43.101   7.308   0.237
47123W        W19438   6.660   2.973   1.345
47124W        W19439  29.124  21.475  11.185
47125W        W19440  27.150  40.364   3.218
47126W        W19441  21.984  43.008   4.568
47127W        W19442  20.077  12.353   1.309
47128W        W19443   5.880   8.291  14.890
47129W        W19444  26.905  31.182  13.984
47130W        W19445  42.960  27.842   4.647
47131W        W19446  19.847  39.908   1.011
47132W        W19447  31.570  20.272  11.620
47133W        W19448   2.953  24.056  14.700
47134W        W19449  11.581  41.333  10.090
47135W        W19450  31.633  17.583   2.683
47136W        W19451   9.906   2.463   0.461
47137W        W19452  13.117  26.974   2.621
47138W        W19453  14.582  42.302  12.112
47139W        W19454   0.921  23.968   5.117
47140W        W19455  42.508  14.516  13.120
47141W        W19456  21.092  20.528   4.096
47142W        W19457  32.665  36.435  13.212
47143W        W19458  39.568  27.072   2.385
47144W        W19459   1.847  37.644  10.372
47145W        W19460  34.004  17.761   4.368
47146W        W19461  18.035  28.518   0.231
47147W        W19462  44.754  15.814  10.433
47148W        W19463  26.712   6.400  10.221
47149W        W19464   0.455   9.738  12.394
47150W        W19465  26.701   6.680   2.924
47151W        W19466  26.254  13.264  14.372
47152W        W19467  32.601   8.147   1.018
47153W        W19468  40.550   3.672   0.097
47154W        W19469  12.376  35.355  12.822
47155W        W19470  22.481   3.481   0.725
47156W        W19471  33.000  33.116   2.725
47157W        W19472   3.278   7.925  12.546
47158W        W19473  12.477  37.441   1.993
47159W        W19474  10.015  13.865  14.261
47160W        W19475  33.690   5.143   4.731
47161W        W19476  13.689  21.526  12.941
47162W        W19477  18.677  10.310   0.287
47163W        W19478  27.354   8.933  11.884
47164W        W19479   8.789  15.505   1.320
47165W        W19480  21.935   9.736  11.878
47166W        W19481   5.471  42.783  13.908
47167W        W19482  34.486  24.056   3.934
47168W        W19483  13.417  39.012  11.550
47169W        W19484  28.193  20.118   3.747
47170W        W19485   3.981  14.646  11.121
47171W        W19486   6.590  25.465  14.719
47172W        W19487   7.341  41.540   2.843
47173W        W19488  18.788  25.592   4.656
47174W        W19489  21.178   8.239  12.642
47175W        W19490  37.895  34.529  14.661
47176W        W19491  31.911  35.149  11.662
47177W        W19492  28.059  13.317  12.633
47178W        W19493  37.488   3.859   4.589
47179W        W19494  30.215  27.097  11.477
47180W        W19495  28.832  13.204  14.471
47181W        W19496  18.863  17.461  11.587
47182W        W19497  43.321   1.639  11.531
47183W        W19498  37.164  13.722   0.304
47184W        W19499  22.991  21.323  14.010
47185W        W19500  16.304  35.937  14.326
47186W        W19501  23.334  32.214  11.536
47187W        W19502  32.104  28.964  11.694
47188W        W19503  16.248  22.677   3.912
47189W        W19504  21.359  22.603   4.430
47190W        W19505   8.176  23.340  13.360
47191W        W19506  33.076  16.136  10.449
47192W        W19507   8.993  44.813   0.750
47193W        W19508  26.011  38.347  12.757
47194W        W19509  35.309  27.996   1.782
47195W        W19510  44.866  30.623   5.059
47196W        W19511  25.057  28.939   1.390
47197W        W19512  41.624   5.432   3.718
47198W        W19513  28.637  17.652   4.942
47199W        W19514  12.711  17.992   0.726
47200W        W19515  17.418  24.694   2.969
47201W        W19516  19.477  24.739   4.607
47202W        W19517  33.076   8.933   0.724
47203W        W19518   9.623   7.097  12.008
47204W        W19519  31.830  25.505   2.562
47205W        W19520  20.918   0.418   1.706
47206W        W19521  44.513   3.720   3.329
47207W        W19522  10.420  29.925  14.035
47208W        W19523  19.665  29.430   3.886
47209W        W19524  36.968   0.585   4.153
47210W        W19525  27.624  33.306  14.609
47211W        W19526   3.605  44.387   4.776
47212W        W19527  30.825  41.456   3.136
47213W        W19528   6.376  32.913  13.758
47214W        W19529  38.834  20.347   1.990
47215W        W19530  20.813  41.544   3.757
47216W        W19531   0.876  12.882   3.338
47217W        W19532  14.117   3.229   2.135
47218W        W19533  16.772  39.831  14.901
47219W        W19534   6.447  39.473   0.537
47220W        W19535  28.776  32.496   4.659
47221W        W19536  10.209  24.263  12.383
47222W        W19537  39.069  13.781  13.111
47223W        W19538  23.924   5.145  12.904
47224W        W19539   3.888  36.040  14.474
47225W        W19540  27.974  30.582   3.067
47226W        W19541  27.015  37.440  11.188
47227W        W19542  34.990  23.940   4.050
47228W        W19543  29.044  35.477   4.570
47229W        W19544  30.495   5.440   1.896
47230W        W19545   2.421  28.709  12.565
47231W        W19546  31.521  23.139  12.988
47232W        W19547  25.714  44.014   0.369
47233W        W19548  15.016  31.723   4.292
47234W        W19549   5.345   6.905   2.886
47235W        W19550  21.508   6.140   0.264
47236W        W19551  11.375  38.397   1.237
47237W        W19552  25.644  23.741  14.799
47238W        W19553   9.862   4.707  12.025
47239W        W19554  39.675  12.168  10.286
47240W        W19555  31.315  36.885   3.473
47241W        W19556  36.903  40.067   1.352
47242W        W19557  39.040  32.945  10.712
47243W        W19558  39.082  42.029  14.339
47244W        W19559  44.665  19.560  10.396
47245W        W19560  41.335  25.899  13.983
47246W        W19561  11.283  10.477   4.195
47247W        W19562   8.129   0.867   2.849
47248W        W19563  14.562  40.905   4.142
47249W        W19564  29.449  43.299   1.708
47250W        W19565  35.357  39.532  11.386
47251W        W19566   6.096  30.635  13.108
47252W        W19567  43.916  15.366  13.327
47253W        W19568  44.084  19.941   1.163
47254W        W19569  17.083  31.173   5.725
47255W        W19570  28.219   4.806   2.762
47256W        W19571   9.359   3.962  14.553
47257W        W19572  31.697   4.930  11.497
47258W        W19573  20.010   0.274  13.283
47259W        W19574  31.384  38.485  11.585
47260W        W19575   8.463   5.682  14.577
47261W        W19576  34.300   0.711   1.841
47262W        W19577  28.891  17.514  12.888
47263W        W19578  10.946  33.413   1.680
47264W        W19579   8.321  26.166  14.756
47265W        W19580  12.643  41.212  13.070
47266W        W19581  19.709  15.258   2.783
47267W        W19582  40.573  44.405  14.453
47268W        W19583  15.698  43.895  13.044
47269W        W19584   1.733  40.388  11.144
47270W        W19585  13.218  12.938   4.099
47271W        W19586  27.746   0.578  12.082
47272W        W19587  30.642   0.324  14.564
47273W        W19588   0.688   2.798  13.001
47274W        W19589  37.026  10.285  14.964
47275W        W19590  26.422   8.196   2.391
47276W        W19591  34.231  17.313   2.352
47277W        W19592  22.126  43.053   2.825
47278W        W19593   2.440  10.645  10.093
47279W        W19594  15.465  21.461  11.561
47280W        W19595   4.474  33.013   2.122
47281W        W19596   2.553  34.112   2.329
47282W        W19597  41.906   9.445  11.989
47283W        W19598   2.761  30.066   2.334
47284W        W19599   3.268  16.627  13.486
47285W        W19600  11.168  38.380   0.247
47286W        W19601  11.262   7.197   1.131
47287W        W19602   1.960  23.568   3.147
47288W        W19603  36.064  22.262   1.162
47289W        W19604  23.691  32.352  10.309
47290W        W19605  10.317   1.945  14.903
47291W        W19606   2.485  10.441   2.431
47292W        W19607  42.982   7.379   2.291
47293W        W19608  14.344  35.315   0.507
47294W        W19609  10.416  33.960  14.328
47295W        W19610   9.664  20.521  13.852
47296W        W19611  19.969  36.791   4.302
47297W        W19612  14.777  43.530   2.461
47298W        W19613   1.939   2.446  11.685
47299W        W19614  10.325  43.550   4.110
47300W        W19615  36.825  44.550   4.082
47301W        W19616  25.481  43.799   0.812
47302W        W19617  24.931  23.491   0.815
47303W        W19618   8.896   8.583  14.557
47304W        W19619  26.767   0.838  10.688
47305W        W19620  13.230  15.302  14.495
47306W        W19621   8.149  20.010  13.293
47307W        W19622  34.433  15.716  12.390
47308W        W19623  19.046  12.402  13.937
47309W        W19624   7.267   4.273  13.831
47310W        W19625  30.405   4.474   2.419
47311W        W19626  44.261  38.502  10.695
47312W        W19627  25.554  42.285   0.028
47313W        W19628  37.443   4.828  11.876
47314W        W19629  18.987   9.818  12.886
47315W        W19630  18.101  26.973  10.548
47316W        W19631  31.020   8.923   3.159
47317W        W19632  40.460   8.182   3.344
47318W        W19633  10.316  12.593   4.452
47319W        W19634  31.416  22.064  12.961
47320W        W19635   7.059  39.957  14.882
47321W        W19636  31.597  35.108   2.178
47322W        W19637  34.885  29.717  12.786
47323W        W19638   5.424  42.634   1.839
47324W        W19639  26.061  16.374   3.655
47325W        W19640  19.212  20.278  11.890
47326W        W19641  30.723   1.810  10.370
47327W        W19642  15.847  28.381  10.222
47328W        W19643  27.572  31.369   1.931
47329W        W19644   8.711   4.877   3.740
47330W        W19645  22.526   8.212  13.290
47331W        W19646  43.948  18.692  12.911
47332W        W19647  33.727  26.485  12.869
47333W        W19648  20.870  35.898  11.120
47334W        W19649   1.588   7.225  12.333
47335W        W19650   6.992  32.488  14.379
47336W        W19651   2.823  32.387   0.917
47337W        W19652  21.503  27.687   2.247
47338W        W19653   0.970  13.077   0.961
47339W        W19654  18.785  40.770  13.547
47340W        W19655  41.432   9.339   0.798
47341W        W19656  30.958  22.299  10.486
47342W        W19657  15.827  14.974  11.990
47343W        W19658  36.106  13.177   1.746
47344W        W19659  35.507   3.968   0.398
47345W        W19660  21.700   2.166   1.326
47346W        W19661  11.662   7.699  10.724
47347W        W19662  20.136  35.932   4.989
47348W        W19663  32.521  37.657   2.288
47349W        W19664  20.077  15.553  11.496
47350W        W19665  20.306  10.209  10.291
47351W        W19666   0.695   8.113  11.071
47352W        W19667  17.625  26.636   3.302
47353W        W19668   0.701  16.630  12.531
47354W        W19669  27.272   8.925   3.198
47355W        W19670  13.109  16.752   1.923
47356W        W19671   5.306  42.551   0.713
47357W        W19672  25.209  20.964  13.950
47358W        W19673   3.271  16.901   4.152
47359W        W19674  24.175  17.345  14.696
47360W        W19675  38.386  34.580   0.363
47361W        W19676  37.544   7.934   4.655
47362W        W19677  39.034  39.465  14.789
47363W        W19678  32.222  29.967   3.934
47364W        W19679  17.319  33.683   1.827
47365W        W19680  25.439   1.337  12.868
47366W        W19681  41.164   4.820   3.835
47367W        W19682  15.561  10.761  14.447
47368W        W19683  33.085  32.922  13.879
47369W        W19684  34.889  15.966  10.692
47370W        W19685  23.955   1.853   4.610
47371W        W19686  28.937  19.182   2.804
47372W        W19687   7.937  44.769   0.827
47373W        W19688  20.355  21.571  14.555
47374W        W19689   4.993  24.231   0.591
47375W        W19690  42.596  24.251   0.883
47376W        W19691  22.759  34.598  12.953
47377W        W19692  28.941   0.398  11.974
47378W        W19693  26.183  16.560   4.119
47379W        W19694  37.464  27.555  11.210
47380W        W19695  33.477  15.220   1.043
47381W        W19696  14.819  16.702   4.718
47382W        W19697  16.549  10.460  11.560
47383W        W19698   7.169  14.705  10.859
47384W        W19699   4.366  16.271  11.139
47385W        W19700  22.630  36.406  13.993
47386W        W19701   1.561  38.650   1.685
47387W        W19702  38.041  18.504   1.401
47388W        W19703  23.186  24.754  12.433
47389W        W19704   3.694  33.198   2.759
47390W        W19705   7.974  38.537   1.307
47391W        W19706  21.830   4.797  13.065
47392W        W19707  33.543  36.824  11.900
47393W        W19708  38.436  31.048   4.723
47394W        W19709  21.478  22.026   2.470
47395W        W19710   4.275  23.597  14.834
47396W        W19711   3.256  35.446   1.178
47397W        W19712  33.412  29.362   0.293
47398W        W19713   5.261   4.190  11.291
47399W        W19714  34.166  28.995   1.154
47400W        W19715   3.228  44.786   3.175
47401W        W19716  15.535  11.346   1.756
47402W        W19717  39.270  34.574   0.051
47403W        W19718  14.854  40.849   1.440
47404W        W19719  27.561  42.478   4.654
47405W        W19720  22.448  16.006   1.194
47406W        W19721  21.293  34.493   4.088
47407W        W19722  17.210  33.425   0.909
47408W        W19723  15.270  34.461   2.152
47409W        W19724  19.182  10.836   0.790
47410W        W19725  37.893  27.124  12.342
47411W        W19726   8.140   3.160   1.302
47412W        W19727  12.192  28.889   4.039
47413W        W19728  17.719  35.516   3.907
47414W        W19729  28.905   9.746   1.195
47415W        W19730  27.907   6.986  11.483
47416W        W19731  38.323   5.293   0.209
47417W        W19732  40.067   7.383   3.148
47418W        W19733  42.307  43.120  10.956
47419W        W19734  39.547   6.773  13.258
47420W        W19735  37.281  17.320   0.851
47421W        W19736   0.242  34.107   9.891
47422W        W19737  34.136   9.913   3.293
47423W        W19738  16.603  22.364  12.614
47424W        W19739   6.742  21.575   4.231
47425W        W19740  21.019   5.225   0.906
47426W        W19741  13.722   2.910  13.406
47427W        W19742  12.203  28.749   3.337
47428W        W19743   1.282  17.301   4.476
47429W        W19744  39.961  16.796   0.410
47430W        W19745  11.301  13.753  12.083
47431W        W19746  35.303  44.667   3.241
47432W        W19747  15.383  19.661  11.230
47433W        W19748  12.225  18.148   0.878
47434W        W19749  22.148   9.539  10.358
47435W        W19750  38.650  18.182  13.522
47436W        W19751  16.968  36.985   1.333
47437W        W19752   6.919  23.954   2.039
47438W        W19753  22.170  28.166   2.803
47439W        W19754  13.355  43.428  10.647
47440W        W19755   5.221  24.165   4.702
47441W        W19756  31.377  33.615   1.656
47442W        W19757  31.328   3.445  10.629
47443W        W19758   5.661  12.117  14.001
47444W        W19759  29.133  13.148  11.561
47445W        W19760   7.755  21.554   3.096
47446W        W19761  43.086  13.102  12.118
47447W        W19762  25.541  15.074  11.590
47448W        W19763  19.575  43.216  11.140
47449W        W19764   3.743  11.788   3.394
47450W        W19765  44.803  25.910   0.052
47451W        W19766  34.677  35.016   2.742
47452W        W19767   1.998  32.898   1.325
47453W        W19768  18.731  36.104  13.882
47454W        W19769  13.608  12.729  14.010
47455W        W19770  20.783  19.666  10.572
47456W        W19771  31.833  19.732  14.726
47457W        W19772  11.151  43.910   2.768
47458W        W19773  37.548  40.015  10.693
47459W        W19774  29.750  42.096  13.805
47460W        W19775   2.396  44.548   4.109
47461W        W19776  35.516  29.542  11.475
47462W        W19777  12.117  10.252   0.311
47463W        W19778  17.049  35.078  11.654
47464W        W19779  22.509  40.005  11.943
47465W        W19780  23.438  27.551  11.552
47466W        W19781   0.060  43.960  13.914
47467W        W19782   4.204  11.703   3.158
47468W        W19783  35.915  29.113   4.833
47469W        W19784  29.895  28.494   2.779
47470W        W19785  44.795   2.277   4.122
47471W        W19786  43.916  37.074  14.968
47472W        W19787  32.817  36.407  14.815
47473W        W19788  29.145  44.521  12.386
47474W        W19789  26.110   9.127   1.344
47475W        W19790  35.049  39.483   0.247
47476W        W19791  27.640   1.444  14.871
47477W        W19792  11.249  27.228  12.625
47478W        W19793  23.627  22.027  11.686
47479W        W19794  22.775   1.745   0.792
47480W        W19795  39.125  44.333  12.652
47481W        W19796  18.441   3.489   4.115
47482W        W19797  28.575  42.742   0.057
47483W        W19798  26.012  33.917  11.972
47484W        W19799  11.696  29.425   3.633
47485W        W19800  16.342  35.397  11.206
47486W        W19801   1.680  23.013   0.480
47487W        W19802   4.184  37.120   0.831
47488W        W19803   3.865  22.661  12.014
47489W        W19804   1.689  20.098  12.903
47490W        W19805  14.634  13.906   4.156
47491W        W19806  27.969   4.480   3.976
47492W        W19807  43.766  21.549   0.823
47493W        W19808   8.855  36.902  10.691
47494W        W19809  33.066  23.605   0.969
47495W        W19810  26.411  13.612   4.155
47496W        W19811   8.290   6.020   1.754
47497W        W19812  23.212  42.867  12.921
47498W        W19813   6.041  30.132   3.341
47499W        W19814  33.013  43.880  11.821
47500W        W19815  26.629  35.445   2.548
47501W        W19816  21.798  34.182   3.737
47502W        W19817  14.029  30.147  11.108
47503W        W19818   0.672  17.586  13.517
47504W        W19819  14.159  29.883  13.815
47505W        W19820  28.102  33.156   4.613
47506W        W19821   9.650  28.578  13.377
47507W        W19822   5.983  29.569  13.154
47508W        W19823  14.836   7.290   4.790
47509W        W19824  15.667  32.865   1.317
47510W        W19825   3.745  13.621   3.854
47511W        W19826   5.442  22.598   3.642
47512W        W19827   1.645  38.117   1.657
47513W        W19828  25.653  16.709   4.663
47514W        W19829  20.769  41.041  13.314
47515W        W19830  14.828  44.243  14.501
47516W        W19831  13.780  38.929  14.487
47517W        W19832  16.241  43.253  14.513
47518W        W19833  15.040  24.089   3.629
47519W        W19834  13.606  42.862   9.692
47520W        W19835   9.448   4.696  12.978
47521W        W19836  12.101   2.946  14.992
47522W        W19837  28.809  21.222  14.354
47523W        W19838  13.710  20.080   2.660
47524W        W19839   0.708  35.489   3.355
47525W        W19840  18.861  35.875   3.161
47526W        W19841  25.153  14.991   4.159
47527W        W19842  36.417  42.851  12.085
47528W        W19843  21.634  31.380   0.347
47529W        W19844  30.667  44.328   2.310
47530W        W19845  39.582  39.551   3.533
47531W        W19846  10.342  10.363  11.301
47532W        W19847   6.924  29.952   3.712
47533W        W19848  44.516  28.265   3.716
47534W        W19849  12.863   7.266   4.382
47535W        W19850  42.011   4.950  13.807
47536W        W19851  23.479  15.620  13.452
47537W        W19852  15.662  30.071  14.364
47538W        W19853  30.574  33.661  13.141
47539W        W19854  13.837  40.496   4.546
47540W        W19855  30.962  39.845   3.072
47541W        W19856  34.023   3.780   3.815
47542W        W19857  25.498   7.480   5.005
47543W        W19858  33.084  26.398  10.651
47544W        W19859   8.438  18.164  14.934
47545W        W19860  19.362  30.134   2.751
47546W        W19861   2.715  24.627  11.728
47547W        W19862  22.806  10.265   3.304
47548W        W19863  30.620  19.833   0.779
47549W        W19864  44.705  29.465  12.530
47550W        W19865  23.001  27.356  12.938
47551W        W19866  28.837   0.079  14.476
47552W        W19867  44.950   1.232  11.032
47553W        W19868  34.831  16.741  14.886
47554W        W19869  23.945  13.551  13.958
47555W        W19870  10.686   0.837   1.256
47556W        W19871  15.484  17.805   1.250
47557W        W19872  21.598  43.977   2.168
47558W        W19873  17.218  24.752   3.437
47559W        W19874  10.565   5.643  12.527
47560W        W19875  36.327  19.163   1.204
47561W        W19876  32.518   2.820   2.599
47562W        W19877  23.323  12.866  11.171
47563W        W19878  16.577  20.762   1.222
47564W        W19879  34.853  24.065  14.418
47565W        W19880   7.725  12.640  10.328
47566W        W19881  22.349  44.444   1.164
47567W        W19882  43.965  36.370   2.867
47568W        W19883  17.578  36.400  14.346
47569W        W19884  12.372   3.427   4.846
47570W        W19885  33.137  26.797   3.636
47571W        W19886   6.894  16.610   3.203
47572W        W19887  33.323  24.623  14.936
47573W        W19888  18.678  32.468   3.570
47574W        W19889  39.371  31.599   2.318
47575W        W19890  21.394   0.318   1.849
47576W        W19891  35.567  36.006  12.229
47577W        W19892  16.819  10.779  13.944
47578W        W19893  25.931  10.261  10.667
47579W        W19894  39.338   6.519   1.752
47580W        W19895   6.255  11.653   0.281
47581W        W19896  33.177  35.478  13.812
47582W        W19897  16.753  10.142   4.160
47583W        W19898  10.290  34.375  10.918
47584W        W19899  27.760  35.870   3.792
47585W        W19900  24.105   4.430  13.602
47586W        W19901  14.728  19.910   0.809
47587W        W19902   2.688  19.836  14.455
47588W        W19903  22.562   5.430   1.736
47589W        W19904  43.017  38.560   0.496
47590W        W19905   5.878  25.890   2.375
47591W        W19906  12.690  15.657   4.036
47592W        W19907  37.962  42.864   4.997
47593W        W19908  23.008  14.162   1.228
47594W        W19909  10.218   7.179   3.722
47595W        W19910  11.834   0.270  11.496
47596W        W19911  29.721  34.493   1.182
47597W        W19912   3.330   9.823   2.341
47598W        W19913  14.858  18.817  11.547
47599W        W19914  20.785  31.704  11.300
47600W        W19915  29.965  26.105  11.831
47601W        W19916  24.435  13.667   2.344
47602W        W19917  41.372  11.388   1.733
47603W        W19918  43.045  14.585   0.247
47604W        W19919  34.512   3.052  12.425
47605W        W19920  23.014   6.706   4.824
47606W        W19921  21.125  31.631  13.874
47607W        W19922  40.500  32.327  11.460
47608W        W19923  30.112  36.099   0.960
47609W        W19924   8.392  25.530   2.256
47610W        W19925  28.965  14.207  11.988
47611W        W19926   0.140  38.857  11.646
47612W        W19927  38.035  27.186   3.162
47613W        W19928   4.965   6.331   2.358
47614W        W19929  18.643  18.553   2.853
47615W        W19930  40.524  41.773   4.936
47616W        W19931  22.872   4.955  13.043
47617W        W19932  26.620  31.979   4.080
47618W        W19933  42.005   4.926  14.669
47619W        W19934  23.904  15.349  13.467
47620W        W19935  42.064  41.918   3.159
47621W        W19936  23.448  24.799  13.409
47622W        W19937  11.899  37.328   1.252
47623W        W19938  25.925  17.722   0.219
47624W        W19939  15.097   2.238  14.878
47625W        W19940  22.074  24.017  14.549
47626W        W19941   2.763  37.391  11.627
47627W        W19942  44.591  23.640  11.207
47628W        W19943  19.784  24.695  12.479
47629W        W19944  28.668  14.288   3.086
47630W        W19945  14.558  14.344  11.141
47631W        W19946   7.094   8.904   1.000
47632W        W19947  34.107  24.214   1.244
47633W        W19948  35.127  44.291  14.604
47634W        W19949   5.755  38.460  13.806
47635W        W19950  38.127  37.839   4.641
47636W        W19951  27.177  33.205   4.591
47637W        W19952  37.612  24.046   4.716
47638W        W19953  29.957  29.644  13.189
47639W        W19954  39.107   2.357  14.246
47640W        W19955  44.785  32.320  10.772
47641W        W19956  38.076   9.836   0.321
47642W        W19957  29.059   3.867  12.438
47643W        W19958  20.493  27.264  14.271
47644W        W19959   8.654   8.462   3.714
47645W        W19960  42.460  33.097   4.754
47646W        W19961  39.472   0.274   4.574
47647W        W19962  11.157  24.445  10.516
47648W        W19963  33.337  41.535   2.935
47649W        W19964  18.021  28.907   3.588
47650W        W19965   7.135   6.826  10.916
47651W        W19966  28.160  21.111  12.679
47652W        W19967   3.375  34.369   3.291
47653W        W19968  19.025  37.440  13.273
47654W        W19969   3.660  36.920   0.924
47655W        W19970  34.030  24.252  11.797
47656W        W19971  25.429  20.911  13.393
47657W        W19972  43.764  25.252   4.297
47658W        W19973  31.592  29.012  11.644
47659W        W19974  44.348  30.589   4.953
47660W        W19975   2.911  36.575  12.928
47661W        W19976  39.882  25.891   1.900
47662W        W19977  38.617   9.228   2.293
47663W        W19978  35.481  29.631  13.962
47664W        W19979  13.202   2.290   4.700
47665W        W19980  22.198  13.914  14.891
47666W        W19981  34.436  42.313   2.698
47667W        W19982  20.989  34.101  13.017
47668W        W19983  25.968   4.835  11.572
47669W        W19984  19.542   6.719  10.636
47670W        W19985  32.449  34.865   4.638
47671W        W19986  13.901  12.212   3.813
47672W        W19987  15.704  24.862   2.519
47673W        W19988  28.267  19.972   5.020
47674W        W19989  16.087  34.396   2.062
47675W        W19990  27.749  36.211   1.830
47676W        W19991  43.820  35.554   4.493
47677W        W19992  19.291  25.792   2.150
47678W        W19993  22.328   7.489  12.553
47679W        W19994  36.388  38.536  13.422
47680W        W19995  23.440  29.504   3.825
47681W        W19996  10.450   8.333   2.647
47682W        W19997  29.454  27.599  13.887
47683W        W19998  18.893   2.519  12.078
47684W        W19999  40.098  13.041  10.685
47685W        W20000  31.328  12.259   3.179
47686W        W20001   7.339  21.423  10.439
47687W        W20002   7.748  18.396   1.691
47688W        W20003  35.440  24.763   1.407
47689W        W20004  11.756  35.718  14.893
47690W        W20005  23.236  26.140   3.871
47691W        W20006   7.828  34.643  14.761
47692W        W20007  24.349  17.572   0.140
47693W        W20008  14.781   0.827  10.641
47694W        W20009   1.422  40.481  12.088
47695W        W20010  41.791  12.102  11.891
47696W        W20011  24.507  30.871  11.963
47697W        W20012   1.967   4.381   2.173
47698W        W20013  34.457  18.705  13.970
47699W        W20014  42.494  37.628   2.071
47700W        W20015  27.684  26.756   1.781
47701W        W20016  24.295   0.183   4.684
47702W        W20017  16.228  43.473   4.218
47703W        W20018   7.700   8.288  11.470
47704W        W20019  44.949  26.058  14.587
47705W        W20020  34.986  23.621  10.097
47706W        W20021  40.929  42.650   0.471
47707W        W20022  30.702  22.499   3.470
47708W        W20023   3.999  35.821   1.242
47709W        W20024   5.312   5.901  12.168
47710W        W20025  16.236  28.579   4.828
47711W        W20026  23.740  29.148   3.608
47712W        W20027   0.687  39.555   1.194
47713W        W20028  24.303  21.858  12.488
47714W        W20029  41.786  15.778   1.872
47715W        W20030  37.656   6.808  13.343
47716W        W20031   7.626  33.381  12.417
47717W        W20032  37.974  20.121  13.935
47718W        W20033  29.322  17.744   3.163
47719W        W20034  38.516  16.667  12.511
47720W        W20035  10.157  41.562   2.214
47721W        W20036  30.059  22.797  12.000
47722W        W20037  20.553  41.987  13.848
47723W        W20038  14.008  37.354  12.717
47724W        W20039   0.940  43.027  12.045
47725W        W20040  18.111  19.027   1.131
47726W        W20041   8.386  39.880  13.120
47727W        W20042   7.876   6.206  11.355
47728W        W20043   4.007  44.026   2.605
47729W        W20044  33.629  36.765  12.805
47730W        W20045  38.595  19.470  14.113
47731W        W20046  12.172  32.473  13.271
47732W        W20047  30.329   7.946  13.078
47733W        W20048  43.502  16.256   4.552
47734W        W20049  40.409  41.490  12.709
47735W        W20050  11.631  35.033   1.293
47736W        W20051   3.404  25.126   3.226
47737W        W20052   5.752  43.512  11.245
47738W        W20053  30.019  35.421   3.106
47739W        W20054  14.188  23.894  11.485
47740W        W20055  17.993  35.949   1.235
47741W        W20056  30.109  44.890  13.939
47742W        W20057  11.759  43.254   2.469
47743W        W20058  37.256  35.946   0.006
47744W        W20059  29.961  22.966   1.426
47745W        W20060  35.966  21.758   0.771
47746W        W20061  16.851   5.685  14.089
47747W        W20062  32.046  43.834  11.173
47748W        W20063  12.866  23.203  14.292
47749W        W20064  18.465  26.107   1.510
47750W        W20065  30.427   3.773   4.188
47751W        W20066   8.703  24.591  10.409
47752W        W20067  43.805   9.197  12.811
47753W        W20068  34.668  12.327   1.632
47754W        W20069  18.693  35.093   4.692
47755W        W20070  18.957  37.112  11.950
47756W        W20071   5.150  36.352   1.823
47757W        W20072  24.590  19.990  10.139
47758W        W20073   2.950   2.930   0.855
47759W        W20074  15.599   2.273  11.806
47760W        W20075  11.432  43.246  10.638
47761W        W20076  15.818  33.515  13.476
47762W        W20077  17.479  37.074   2.845
47763W        W20078  39.294   6.331  13.337
47764W        W20079   2.070  10.957   9.914
47765W        W20080   3.583   6.253   1.057
47766W        W20081  21.165  28.598   0.318
47767W        W20082  39.072  44.702   1.763
47768W        W20083  19.992  23.219   2.087
47769W        W20084  29.115  33.459  11.445
47770W        W20085  27.623   4.268  11.503
47771W        W20086   3.633  41.663  11.045
47772W        W20087  17.742  21.995  14.404
47773W        W20088   9.826   7.622   1.598
47774W        W20089   2.206  26.656  14.896
47775W        W20090  31.197  12.974   1.595
47776W        W20091   2.843  42.696  11.606
47777W        W20092  12.668  22.681   4.241
47778W        W20093  40.754  39.022   2.690
47779W        W20094  18.594  23.543  14.565
47780W        W20095  31.421   7.806  14.331
47781W        W20096  12.174  36.550   0.827
47782W        W20097   4.858   1.463   1.458
47783W        W20098  16.114  40.166   2.786
47784W        W20099  29.115  30.755  13.780
47785W        W20100  20.175  29.192  10.777
47786W        W20101   2.759  30.506  13.305
47787W        W20102  16.699  36.943   3.305
47788W        W20103  31.554  14.363  14.310
47789W        W20104  43.065  34.050  10.559
47790W        W20105  18.733  42.484   9.925
47791W        W20106  15.607  39.455   0.489
47792W        W20107  21.222  25.693   3.249
47793W        W20108  35.649  11.714   0.712
47794W        W20109  14.791  40.442  14.278
47795W        W20110   3.496  24.611  11.919
47796W        W20111  36.313   1.895  14.233
47797W        W20112  27.569   7.025   9.498
47798W        W20113  33.996  10.096   0.991
47799W        W20114  41.499  12.921  13.025
47800W        W20115  37.175  35.200  14.819
47801W        W20116  13.878  26.625  11.456
47802W        W20117   7.479  18.734  10.838
47803W        W20118  17.557  39.338  10.862
47804W        W20119  17.217   0.975  11.121
47805W        W20120  11.106  14.507  13.669
47806W        W20121  22.524   9.850  10.549
47807W        W20122   1.887  10.015   3.708
47808W        W20123  33.200  18.724  11.969
47809W        W20124  25.072   5.939   2.585
47810W        W20125  18.957  35.453  14.543
47811W        W20126  39.218  14.807   0.819
47812W        W20127  20.646   0.375  11.696
47813W        W20128  31.802  19.218   3.899
47814W        W20129   9.771  36.096   3.204
47815W        W20130  22.532   3.253  14.853
47816W        W20131  31.973  42.033  14.422
47817W        W20132  43.948  27.543   2.297
47818W        W20133  22.383  40.425   5.163
47819W        W20134  10.937  32.333   0.443
47820W        W20135   7.485  19.051  14.413
47821W        W20136  12.648  11.853  10.856
47822W        W20137  43.193  10.271   0.980
47823W        W20138   9.649  38.082   2.361
47824W        W20139   6.293   8.336  10.452
47825W        W20140   7.256  33.360  12.000
47826W        W20141  43.413  23.361  13.182
47827W        W20142  33.154  28.958   0.026
47828W        W20143  31.846   6.827  14.461
47829W        W20144  19.043  40.137  10.207
47830W        W20145  32.589  28.956  14.982
47831W        W20146   3.498   1.990  11.424
47832W        W20147  43.582  43.336   2.350
47833W        W20148  13.924  26.619   1.689
47834W        W20149  35.040   4.703   1.410
47835W        W20150  37.224  38.168   3.669
47836W        W20151  44.904  27.450  12.284
47837W        W20152  32.456  26.065  12.469
47838W        W20153  30.336  22.000  11.514
47839W        W20154  10.789  33.815  12.273
47840W        W20155   5.466  42.432  13.408
47841W        W20156  19.296  38.126  14.024
47842W        W20157  16.780   3.853   4.674
47843W        W20158   7.167  42.348   1.785
47844W        W20159  37.267  29.179   3.313
47845W        W20160  25.478   8.405   4.565
47846W        W20161  23.425  20.613  14.007
47847W        W20162   6.805  22.634  12.563
47848W        W20163  31.356  37.549  10.601
47849W        W20164  36.115  15.122   4.480
47850W        W20165   0.442  18.548  12.156
47851W        W20166  44.797   1.510  13.871
47852W        W20167  38.539   1.764   1.081
47853W        W20168  13.581  31.221   0.881
47854W        W20169  39.548  12.555   2.571
47855W        W20170  34.990   7.963  14.235
47856W        W20171  14.159  28.245  14.488
47857W        W20172  44.444  20.692  14.789
47858W        W20173  28.927  22.566  11.259
47859W        W20174   5.826  33.879   4.767
47860W        W20175  15.634  14.720   0.505
47861W        W20176   5.196  43.475   4.695
47862W        W20177  22.643  20.786  12.810
47863W        W20178  18.473   6.674   4.291
47864W        W20179   3.948  12.859  13.343
47865W        W20180  33.014   3.420  10.624
47866W        W20181  13.250  12.131  13.073
47867W        W20182   3.287  21.751  11.973
47868W        W20183   5.587   0.401  10.746
47869W        W20184  22.376   1.901   3.423
47870W        W20185  41.473   1.418  10.489
47871W        W20186   9.221  10.792   4.227
47872W        W20187   6.661  43.362  12.324
47873W        W20188  11.413  21.836  10.661
47874W        W20189  26.277  27.658  14.529
47875W        W20190  33.813  35.269   1.054
47876W        W20191  16.343   8.965  11.588
47877W        W20192  25.757   5.327  14.434
47878W        W20193  24.662  24.265   3.311
47879W        W20194  30.023   5.734   2.877
47880W        W20195   9.607  23.541   0.389
47881W        W20196   2.216  37.817  13.423
47882W        W20197   9.670  23.688   4.894
47883W        W20198  19.958  28.647   3.811
47884W        W20199   9.197  41.883  13.428
47885W        W20200  35.484   9.313   1.488
47886W        W20201  44.611  15.339   0.773
47887W        W20202  39.915  43.413   2.667
47888W        W20203   2.534  30.880   2.804
47889W        W20204  29.404  18.237  12.211
47890W        W20205   0.038  32.174   3.194
47891W        W20206  11.204   4.650   0.380
47892W        W20207  14.767   8.926   0.421
47893W        W20208  37.109  33.313   0.359
47894W        W20209   3.171  40.358  10.719
47895W        W20210   1.765  40.949   4.131
47896W        W20211  20.680  26.699   0.633
47897W        W20212  17.236  39.830   4.048
47898W        W20213  14.615  35.696   1.274
47899W        W20214  30.877  34.387   4.141
47900W        W20215   4.162  23.595  12.039
47901W        W20216  42.282   2.064   1.662
47902W        W20217  30.488   0.490  12.043
47903W        W20218  44.829   2.944   2.876
47904W        W20219   7.055   3.355   0.433
47905W        W20220  12.475  20.627   3.213
47906W        W20221  28.403   6.197  12.118
47907W        W20222  30.048  22.606   2.802
47908W        W20223  24.933  40.115  13.380
47909W        W20224  27.105  35.472  14.315
47910W        W20225  25.112   0.396   2.104
47911W        W20226  36.428  13.872  12.199
47912W        W20227  19.312  42.013  12.154
47913W        W20228  23.688  18.243   0.420
47914W        W20229  19.078  14.536   4.431
47915W        W20230  32.655   0.019   3.138
47916W        W20231  11.063   6.138  11.656
47917W        W20232   1.160   5.408   1.852
47918W        W20233  24.672   0.791  14.885
47919W        W20234  16.371   0.061  14.081
47920W        W20235  24.156  41.546  14.450
47921W        W20236  35.127  27.039   4.721
47922W        W20237   5.909   7.453   2.289
47923W        W20238  42.414  13.321  14.406
47924W        W20239   8.358  24.660   4.113
47925W        W20240  26.492   3.328   0.043
47926W        W20241   3.412   1.937  14.354
47927W        W20242  41.898  21.063  14.361
47928W        W20243  29.942   4.272   1.495
47929W        W20244  34.510  44.201   1.768
47930W        W20245  15.036  34.472  14.209
47931W        W20246  35.425  19.175   1.207
47932W        W20247   2.078  32.207  14.319
47933W        W20248   4.355  41.790   1.741
47934W        W20249  43.789   0.309   1.405
47935W        W20250   0.468  44.804   3.914
47936W        W20251  37.021  30.172  14.827
47937W        W20252  34.880  14.626   1.685
47938W        W20253   8.678   6.209   3.842
47939W        W20254  33.666  41.967  13.417
47940W        W20255  29.483  12.141  13.381
47941W        W20256  12.255  10.315   1.774
47942W        W20257  11.023  36.883   1.371
47943W        W20258   5.102  39.880  10.165
47944W        W20259  16.181   4.449   0.734
47945W        W20260   9.863  18.508  11.072
47946W        W20261  44.277  29.197  12.408
47947W        W20262  43.376   6.215  13.025
47948W        W20263  25.806   3.338   0.526
47949W        W20264  12.782   7.230  10.520
47950W        W20265  39.880  33.104   4.144
47951W        W20266  38.149  44.317  13.431
47952W        W20267  24.795  26.599  13.426
47953W        W20268  19.000  24.516   1.807
47954W        W20269   6.763  13.616  12.381
47955W        W20270   6.383   4.781  14.413
47956W        W20271  11.903  36.899   3.147
47957W        W20272  10.709  43.896  12.171
47958W        W20273   0.749  26.054   0.998
47959W        W20274  10.179  36.040   0.031
47960W        W20275  20.569  10.683  11.058
47961W        W20276   4.031  44.399   3.276
47962W        W20277  16.671  39.348  13.855
47963W        W20278   7.282   7.899   4.617
47964W        W20279  29.478  31.355  10.562
47965W        W20280  25.476  11.352   0.275
47966W        W20281   6.414  43.340  12.878
47967W        W20282   5.654  23.157  11.122
47968W        W20283  35.064  27.517  12.172
47969W        W20284  24.917  27.001  13.740
47970W        W20285  31.568  34.201  13.956
47971W        W20286   9.421  19.067  12.977
47972W        W20287  33.046  31.070   0.804
47973W        W20288  31.083  10.087  14.436
47974W        W20289  19.515  40.466   4.065
47975W        W20290  35.287   5.214  10.640
47976W        W20291  39.524   9.708  13.451
47977W        W20292  17.262   5.980  11.256
47978W        W20293  24.437  34.739  14.986
47979W        W20294  42.984  37.971  14.295
47980W        W20295  14.240  27.414   4.611
47981W        W20296  32.028  23.567  14.855
47982W        W20297  22.127  21.571  14.506
47983W        W20298  17.126   7.322  11.886
47984W        W20299  30.244  15.457   2.730
47985W        W20300   4.359  22.485   4.084
47986W        W20301  27.469   6.279  11.473
47987W        W20302   9.695  30.872  14.784
47988W        W20303  28.072   7.329  12.653
47989W        W20304  27.911  17.932  11.083
47990W        W20305   6.602  38.242   2.336
47991W        W20306  28.420  18.761  11.433
47992W        W20307  26.025  20.923   3.352
47993W        W20308   2.710  26.758  14.939
47994W        W20309  23.619  24.713   3.562
47995W        W20310  19.785  11.856   0.034
47996W        W20311  26.601  22.112  14.738
47997W        W20312  21.288  34.062   3.686
47998W        W20313   4.938   7.772  12.942
47999W        W20314  23.505  33.821   3.289
48000W        W20315  20.201  41.607  13.924
48001W        W20316  25.479  21.999  14.439
48002W        W20317  38.658  32.494  14.980
48003W        W20318   3.798  31.685  11.035
48004W        W20319  22.466  40.886   1.376
48005W        W20320  31.641  35.893  12.491
48006W        W20321  44.186   7.424  11.452
48007W        W20322   9.757  26.605  12.240
48008W        W20323  11.424  38.965  10.712
48009W        W20324  13.451  25.538  14.786
48010W        W20325  22.486  41.256  11.618
48011W        W20326   8.510   3.706  11.572
48012W        W20327   7.336   2.733  12.457
48013W        W20328  44.817   5.700  13.899
48014W        W20329  36.398   4.591   5.175
48015W        W20330  29.376  38.412  11.604
48016W        W20331  33.740  21.932  11.998
48017W        W20332  15.700  27.604  11.110
48018W        W20333  38.625  44.288   4.579
48019W        W20334  29.651  16.852   1.229
48020W        W20335  17.380  17.642   2.745
48021W        W20336  41.040   0.495  14.528
48022W        W20337  21.287  28.101  12.884
48023W        W20338  22.676  29.535   2.728
48024W        W20339  20.320   3.214   2.843
48025W        W20340  19.288  34.421   2.772
48026W        W20341  27.898   0.970   5.126
48027W        W20342   0.526  24.178   1.003
48028W        W20343   4.610  10.912  11.612
48029W        W20344  35.169  12.216  10.419
48030W        W20345  31.846  21.291  11.643
48031W        W20346  42.978  43.383  12.337
48032W        W20347  30.685  18.988   1.678
48033W        W20348  15.491  21.414   2.833
48034W        W20349  33.152  14.099  13.241
48035W        W20350   6.931  26.220  14.379
48036W        W20351  37.591  11.759   5.042
48037W        W20352  15.692   9.360   2.179
48038W        W20353  10.693   9.317   0.099
48039W        W20354   0.260  30.057  11.838
48040W        W20355   4.667  16.246  10.324
48041W        W20356  22.946  30.632   4.319
48042W        W20357  44.776   4.693  12.513
48043W        W20358   3.632  23.570  14.487
48044W        W20359  20.113  33.076   3.554
48045W        W20360  14.585  35.056  12.935
48046W        W20361   9.854  34.769   0.414
48047W        W20362  10.370  25.515  10.984
48048W        W20363   5.853  33.136  13.050
48049W        W20364  13.116  11.306  11.489
48050W        W20365  14.271   0.802  11.477
48051W        W20366  34.546   3.919   0.499
48052W        W20367   1.447  30.504  10.678
48053W        W20368  44.787  22.294   0.590
48054W        W20369  38.974   3.081   5.373
48055W        W20370  35.339  22.297  10.790
48056W        W20371   3.443   9.617   4.402
48057W        W20372  24.090  33.948  12.560
48058W        W20373  24.924  10.897  13.246
48059W        W20374  25.897   5.388  12.878
48060W        W20375  35.069  21.303  12.135
48061W        W20376  26.684  37.033  11.278
48062W        W20377  19.045   1.864  11.579
48063W        W20378  42.019  16.199   0.827
48064W        W20379  43.328  22.694  14.522
48065W        W20380  26.744  29.335  12.111
48066W        W20381  36.519  43.440   4.937
48067W        W20382  18.650  17.775  11.970
48068W        W20383   5.431  23.157  14.582
48069W        W20384   0.796  18.855  11.076
48070W        W20385  30.242  40.473  14.484
48071W        W20386  37.302  11.241   3.696
48072W        W20387  36.522  19.836   3.879
48073W        W20388  35.140  18.670   4.558
48074W        W20389   6.754  42.296   4.238
48075W        W20390  44.665   1.318   0.252
48076W        W20391   0.246  30.862   2.785
48077W        W20392   6.851   3.297  11.985
48078W        W20393  40.557  11.275   4.192
48079W        W20394   8.037  32.281   1.623
48080W        W20395  34.047  42.528  12.840
48081W        W20396  26.840  22.072  11.021
48082W        W20397  32.959   9.086  14.864
48083W        W20398  21.436   8.151   2.625
48084W        W20399  23.120  34.977   1.209
48085W        W20400   1.841  12.700  14.119
48086W        W20401   3.312  38.573  12.014
48087W        W20402  20.104   9.160  12.582
48088W        W20403  17.677   5.743  11.059
48089W        W20404   2.874   9.518  11.040
48090W        W20405  24.028   0.383   1.057
48091W        W20406  11.379   9.424   2.694
48092W        W20407  29.961  37.809   1.285
48093W        W20408  44.879  10.047   0.899
48094W        W20409  15.195   0.816  12.444
48095W        W20410  37.848   5.723  12.057
48096W        W20411  18.530   1.397  13.468
48097W        W20412  26.290  43.757   0.081
48098W        W20413   7.637  17.837   0.046
48099W        W20414  15.108  31.974  10.592
48100W        W20415  42.446  24.664   3.300
48101W        W20416   7.490   9.127  12.011
48102W        W20417  14.843  35.473  14.042
48103W        W20418   7.130  25.266  13.827
48104W        W20419   2.979  19.296  13.042
48105W        W20420  20.799  34.744   9.933
48106W        W20421  32.267  11.710  12.315
48107W        W20422  18.359  16.295   0.830
48108W        W20423  30.050  38.300  12.522
48109W        W20424  37.130  19.132  13.969
48110W        W20425  36.535  18.968   2.182
48111W        W20426  16.219  19.611  11.881
48112W        W20427  29.667  40.324   0.823
48113W        W20428   3.583  25.142   4.993
48114W        W20429  20.687  17.107   1.642
48115W        W20430  16.773  19.539   1.012
48116W        W20431  21.567  22.778   3.663
48117W        W20432  10.621  41.874  12.284
48118W        W20433  21.644  43.891   0.661
48119W        W20434  31.506  29.208   2.843
48120W        W20435  17.155  35.787   3.915
48121W        W20436  26.147  44.692  12.912
48122W        W20437  32.307   9.310   0.350
48123W        W20438  12.775  37.477  14.409
48124W        W20439  38.986  34.339  10.890
48125W        W20440  31.605  27.246   4.590
48126W        W20441  15.376  27.883  14.959
48127W        W20442   9.424  18.487   4.215
48128W        W20443  40.637   7.940  14.457
48129W        W20444  13.306  18.536   2.319
48130W        W20445   0.748  27.945  12.894
48131W        W20446  32.049  38.485   4.053
48132W        W20447   1.732  14.122   2.706
48133W        W20448  23.729   8.879  13.464
48134W        W20449  38.042  35.894   3.441
48135W        W20450   3.399  12.800   4.670
48136W        W20451  33.611  30.001   1.645
48137W        W20452  33.985  23.637  12.707
48138W        W20453  36.044  44.048   0.214
48139W        W20454   6.163  36.448  11.231
48140W        W20455  17.305  44.164   2.254
48141W        W20456  37.849  41.566  13.953
48142W        W20457  43.257  33.024  11.559
48143W        W20458   7.329   5.692   3.854
48144W        W20459  15.373  28.751  14.254
48145W        W20460   3.095  34.504   4.270
48146W        W20461  34.129  36.023   3.190
48147W        W20462  35.834  35.373   4.057
48148W        W20463  18.060  41.361  13.820
48149W        W20464  15.261  16.298   3.257
48150W        W20465   9.878  34.475  10.595
48151W        W20466  44.798  27.985  11.173
48152W        W20467  18.684   4.249   1.310
48153W        W20468  29.929  23.602   2.559
48154W        W20469  25.669  21.329  11.014
48155W        W20470   8.853  24.909   2.986
48156W        W20471  30.621   9.791   2.079
48157W        W20472  21.109  17.285   1.394
48158W        W20473   9.200  33.067   1.750
48159W        W20474   7.762   2.031  10.274
48160W        W20475  25.229  33.714  14.417
48161W        W20476  42.365   9.908  13.508
48162W        W20477  27.767  15.152   4.046
48163W        W20478  22.696  14.323   3.643
48164W        W20479  15.929  21.121   5.310
48165W        W20480  17.870  41.497   1.389
48166W        W20481  20.122  28.029  14.780
48167W        W20482  35.104  20.519  13.619
48168W        W20483  13.635  20.251  13.342
48169W        W20484  12.690  29.653   3.078
48170W        W20485  30.723   0.281  11.580
48171W        W20486  30.440  25.210  14.333
48172W        W20487   8.641   2.866   5.099
48173W        W20488  10.378   6.759   0.516
48174W        W20489  24.131   8.333   0.822
48175W        W20490   4.053  11.640  14.920
48176W        W20491  22.435   3.689   4.069
48177W        W20492  29.544  11.746  11.076
48178W        W20493  22.903   0.481  12.069
48179W        W20494   2.046  32.870  13.948
48180W        W20495   0.998  20.596   2.175
48181W        W20496  11.664   9.656   4.116
48182W        W20497   4.064  43.731   3.943
48183W        W20498  22.145  30.634  10.744
48184W        W20499  27.662  18.917   1.870
48185W        W20500  15.640  43.593  11.922
48186W        W20501  21.135  32.559   2.428
48187W        W20502  10.727  23.913  14.967
48188W        W20503  43.246  24.154  12.656
48189W        W20504  30.322   9.423  14.490
48190W        W20505  34.025  33.364  14.851
48191W        W20506  32.650  24.168  11.650
48192W        W20507  19.288   0.354  11.143
48193W        W20508  27.879  21.678  13.249
48194W        W20509  40.320  36.484   0.926
48195W        W20510  17.057  19.337   3.565
48196W        W20511  31.752  18.711  11.039
48197W        W20512   2.022  38.884  12.950
48198W        W20513  10.236   1.895  14.034
48199W        W20514  14.198  33.944   0.059
48200W        W20515   1.976   9.897  14.891
48201W        W20516  15.740  42.289   1.341
48202W        W20517  13.594  19.800  10.970
48203W        W20518   8.164   0.941  11.022
48204W        W20519  37.111   6.236  11.943
48205W        W20520  37.552  10.858   2.904
48206W        W20521  33.652  16.909   4.275
48207W        W20522  20.419  34.521   3.695
48208W        W20523  33.908  36.133   4.595
48209W        W20524  21.083  14.335  14.779
48210W        W20525  42.590  16.599   1.472
48211W        W20526  22.775   8.890   4.659
48212W        W20527  42.350  17.605  11.599
48213W        W20528  24.735  40.151  12.482
48214W        W20529  14.549  21.062  12.921
48215W        W20530   4.917   8.298  11.169
48216W        W20531  19.654  12.609  14.629
48217W        W20532  10.834  28.161   2.761
48218W        W20533  31.632  38.006  10.735
48219W        W20534  33.004   3.553  14.949
48220W        W20535  36.000  26.707   0.320
48221W        W20536  18.871  16.367  13.947
48222W        W20537  15.624  12.714   1.187
48223W        W20538  29.626   3.702   4.982
48224W        W20539  39.295  30.353  12.445
48225W        W20540   3.477   8.667   4.766
48226W        W20541  32.039  23.758   5.001
48227W        W20542   4.933   3.900   0.266
48228W        W20543   0.508  13.069   1.237
48229W        W20544  10.881  35.493  11.516
48230W        W20545  20.477  11.735  13.391
48231W        W20546   7.711  33.442  13.300
48232W        W20547  27.493  31.273   0.898
48233W        W20548  20.677  34.066   2.845
48234W        W20549  44.849  22.767   2.319
48235W        W20550  26.175  15.302  14.425
48236W        W20551  29.914  37.478   4.958
48237W        W20552  32.038  27.840  14.834
48238W        W20553  27.136   6.445  11.074
48239W        W20554   9.665  12.612   1.388
48240W        W20555  19.096  15.451  12.590
48241W        W20556  21.524   3.150  11.686
48242W        W20557  43.257  41.524   1.830
48243W        W20558  16.234  41.974   0.648
48244W        W20559   8.780  11.463  13.400
48245W        W20560   1.508  26.164   2.381
48246W        W20561  29.720  24.563  10.992
48247W        W20562  33.667  19.265   4.263
48248W        W20563  29.436  42.007   2.180
48249W        W20564  20.163   3.234  12.608
48250W        W20565  13.269  12.514  14.393
48251W        W20566  32.537  36.530   0.288
48252W        W20567  35.434   9.152  12.652
48253W        W20568   0.297  32.999   5.583
48254W        W20569  16.478  16.154  11.417
48255W        W20570  19.492  30.963  10.431
48256W        W20571  20.285  39.545   1.120
48257W        W20572  40.806  16.462  12.927
48258W        W20573  10.707  39.943  11.986
48259W        W20574   7.136  20.544  14.870
48260W        W20575  14.752  12.656  10.592
48261W        W20576  14.530  13.102   3.209
48262W        W20577   6.362  14.688  14.519
48263W        W20578  20.276  33.803  14.823
48264W        W20579  36.462  14.661  14.335
48265W        W20580  31.421  17.876  11.018
48266W        W20581  21.757  35.496   2.809
48267W        W20582  29.481  38.777  12.958
48268W        W20583   9.388  27.564  13.988
48269W        W20584   1.301  22.145   4.071
48270W        W20585  44.440  39.819   3.724
48271W        W20586  14.221  20.280   1.831
48272W        W20587  30.575   4.730  12.944
48273W        W20588  12.770  24.282  11.259
48274W        W20589  23.016  33.880   3.104
48275W        W20590  29.073  18.055  11.531
48276W        W20591  19.973  37.781   0.321
48277W        W20592  28.136  39.059  13.479
48278W        W20593   0.410  43.243  12.653
48279W        W20594  21.000   2.473  14.523
48280W        W20595  30.887   3.391   1.455
48281W        W20596   1.237  19.962  13.178
48282W        W20597   6.937  22.394  13.002
48283W        W20598   9.181   4.991  12.469
48284W        W20599   9.808  40.775  11.099
48285W        W20600  20.173  23.691   5.078
48286W        W20601  24.200   8.808   2.328
48287W        W20602  35.369   2.882   2.842
48288W        W20603  39.518  20.060   3.716
48289W        W20604  12.350  32.411   0.682
48290W        W20605  31.256  37.637  11.888
48291W        W20606  19.095   6.952  12.663
48292W        W20607  20.506   5.382  14.913
48293W        W20608  12.396  20.728   1.260
48294W        W20609   7.070   7.498  11.188
48295W        W20610  20.573   9.636   3.907
48296W        W20611   8.668  43.500   2.855
48297W        W20612  13.238  37.306   4.115
48298W        W20613  36.471  14.109  14.376
48299W        W20614  20.081  21.376  11.519
48300W        W20615  19.525  11.242  14.270
48301W        W20616  35.374   8.977  14.893
48302W        W20617  34.809  26.382   2.212
48303W        W20618   6.628  27.196   3.661
48304W        W20619  13.998  37.569   0.430
48305W        W20620  19.312  11.744   0.192
48306W        W20621  29.072  39.909  14.345
48307W        W20622  34.843  10.862  11.126
48308W        W20623  41.735  34.843   3.714
48309W        W20624  25.296   4.271  12.964
48310W        W20625  26.411   7.601   1.770
48311W        W20626  42.895  30.155   3.464
48312W        W20627  16.316  13.632  12.897
48313W        W20628  20.820   4.606  11.565
48314W        W20629  28.760  32.075   0.007
48315W        W20630  41.438  35.795  12.844
48316W        W20631  39.411  36.283   2.270
48317W        W20632  39.998  16.359  14.234
48318W        W20633  34.095  31.369   1.735
48319W        W20634   5.928  28.519  13.157
48320W        W20635  31.654  35.375   0.414
48321W        W20636  31.110  14.114  14.441
48322W        W20637  10.171  32.054   1.797
48323W        W20638  27.987  25.597   0.863
48324W        W20639  43.854  29.542   2.064
48325W        W20640  30.558  11.768   1.764
48326W        W20641   4.108  26.957   1.836
48327W        W20642  34.428  21.530  10.715
48328W        W20643  12.881   8.615  13.375
48329W        W20644  32.171   6.678  10.775
48330W        W20645  14.672   9.777   3.233
48331W        W20646   8.109  18.205   5.062
48332W        W20647  26.519   1.553   2.329
48333W        W20648   3.326   6.957   3.114
48334W        W20649  36.593  24.477   0.346
48335W        W20650   9.899   0.995   3.674
48336W        W20651  23.461  33.056  13.979
48337W        W20652  30.936  28.101  13.953
48338W        W20653   1.443   8.898  13.442
48339W        W20654  11.668  37.894   0.527
48340W        W20655  24.576  33.635   4.902
48341W        W20656   5.718   4.370  11.167
48342W        W20657  30.426  18.659  11.627
48343W        W20658   0.111  33.468   4.557
48344W        W20659  17.075  39.289  14.523
48345W        W20660  32.043  30.956   3.805
48346W        W20661   8.050  37.382  11.573
48347W        W20662  15.095  25.955   3.914
48348W        W20663   5.231  33.991   1.318
48349W        W20664   5.285  43.405  11.960
48350W        W20665  39.451  30.641  10.522
48351W        W20666  42.742   7.862   2.307
48352W        W20667  44.766   8.791  10.572
48353W        W20668  11.693  37.551   3.779
48354W        W20669   4.756  18.266   5.069
48355W        W20670   1.606  41.478   1.309
48356W        W20671  26.622  25.250   3.123
48357W        W20672  12.324  37.207  14.446
48358W        W20673  27.548  20.213   0.918
48359W        W20674  19.168  43.943  10.988
48360W        W20675  31.401   2.078  11.135
48361W        W20676  29.469  11.663   4.627
48362W        W20677  21.215  17.548  12.768
48363W        W20678  26.962   4.231  13.687
48364W        W20679  23.580   0.410  13.348
48365W        W20680   5.913  21.135   1.888
48366W        W20681  44.650  21.724  12.436
48367W        W20682  27.535  28.861  12.787
48368W        W20683   0.703  41.298  13.637
48369W        W20684  42.914  33.158  14.733
48370W        W20685  20.272  44.633   3.117
48371W        W20686  20.615  26.426  12.767
48372W        W20687  40.209   1.109   3.711
48373W        W20688  12.657  44.251   3.331
48374W        W20689  41.437   6.247  11.981
48375W        W20690  13.697  35.856  13.807
48376W        W20691  13.887  31.147   2.446
48377W        W20692  37.099  13.500  11.013
48378W        W20693  35.853  32.090   3.555
48379W        W20694   0.458  36.539   2.391
48380W        W20695  12.139  23.820  13.902
48381W        W20696  13.452  40.379  13.040
48382W        W20697  11.854  22.784  10.955
48383W        W20698  37.130  15.126  12.541
48384W        W20699  23.081  34.962  14.777
48385W        W20700  17.281  23.595  13.484
48386W        W20701  40.928  15.346  12.444
48387W        W20702   7.267  27.058  11.807
48388W        W20703  33.790  27.185   0.764
48389W        W20704  44.940  30.239  12.217
48390W        W20705  38.945  33.944  12.522
48391W        W20706  33.686  33.631  13.554
48392W        W20707  26.449   2.355  12.972
48393W        W20708  14.675  20.909   0.332
48394W        W20709  19.210  25.150   2.952
48395W        W20710  37.297  33.411   3.632
48396W        W20711  10.654  38.377   0.326
48397W        W20712  44.964  30.662  13.981
48398W        W20713  22.983   8.791  12.641
48399W        W20714  37.425  13.843   0.788
48400W        W20715  22.006  34.624  12.438
48401W        W20716  26.680  40.377   4.500
48402W        W20717   0.492  10.669   4.080
48403W        W20718  18.055  12.754   3.318
48404W        W20719  30.196  18.070   3.597
48405W        W20720  17.211   7.831   2.610
48406W        W20721  31.208  27.435   1.661
48407W        W20722  40.442  10.375   1.964
48408W        W20723  11.206  40.692   3.978
48409W        W20724  33.324  33.926  11.160
48410W        W20725  43.172  39.062  13.340
48411W        W20726  29.666   5.439  11.000
48412W        W20727  42.776  17.080  11.906
48413W        W20728  32.652  29.903  11.591
48414W        W20729  34.578  18.070   1.779
48415W        W20730  34.486   9.185   3.328
48416W        W20731   5.646   9.787  13.926
48417W        W20732  37.009  20.706   4.174
48418W        W20733  28.565  28.235   0.389
48419W        W20734  13.861  30.419   3.099
48420W        W20735  13.706  26.140  13.985
48421W        W20736   6.123  35.155   4.692
48422W        W20737  40.087  41.658  11.076
48423W        W20738   5.967  30.975  11.473
48424W        W20739  31.982  19.672   4.112
48425W        W20740  42.918  37.053  11.285
48426W        W20741   5.350  11.260   0.026
48427W        W20742  28.287  39.569  13.470
48428W        W20743  31.090  29.010  13.954
48429W        W20744  11.321  29.124  10.337
48430W        W20745  21.838  42.491  10.623
48431W        W20746  35.052  35.345  12.062
48432W        W20747  16.760  22.691   4.230
48433W        W20748   4.989  25.954  14.239
48434W        W20749  42.869  13.109   1.593
48435W        W20750  24.264  43.310   3.853
48436W        W20751  25.608   0.347  12.357
48437W        W20752   3.652  39.402   2.896
48438W        W20753  16.180  19.167  11.598
48439W        W20754  31.291  11.392   9.956
48440W        W20755   9.658  15.854   4.856
48441W        W20756  12.269  27.769  13.601
48442W        W20757  14.589  16.229   2.623
48443W        W20758  15.561  28.357  14.909
48444W        W20759  13.173  20.314  12.396
48445W        W20760  27.391  13.608   1.897
48446W        W20761  20.930  44.209  12.584
48447W        W20762  22.551  13.842  10.415
48448W        W20763   3.576  32.644  12.094
48449W        W20764  37.147  29.370  10.854
48450W        W20765  12.585  21.912  10.906
48451W        W20766  35.052  12.760   0.393
48452W        W20767  12.897  10.200   0.709
48453W        W20768  30.567  18.653   4.651
48454W        W20769  43.346  30.666   4.100
48455W        W20770  36.250  37.666   2.833
48456W        W20771   5.805  39.012  13.426
48457W        W20772  40.880  30.663   0.197
48458W        W20773  19.744  15.360  13.873
48459W        W20774   2.843  26.687   4.704
48460W        W20775  27.531  23.729  12.933
48461W        W20776  34.998   8.641  11.491
48462W        W20777  32.320  14.530   3.777
48463W        W20778   0.887   9.891   4.577
48464W        W20779  10.587  31.540   1.008
48465W        W20780  44.909  18.559  10.664
48466W        W20781  40.890  13.982   1.944
48467W        W20782  31.349  28.263   0.171
48468W        W20783  32.129  34.128   1.667
48469W        W20784  38.954   7.516   2.736
48470W        W20785  31.372  12.139  14.264
48471W        W20786  41.256   6.958  14.521
48472W        W20787  41.502  28.141   3.151
48473W        W20788  18.914  15.980  11.750
48474W        W20789  41.853  23.536   3.252
48475W        W20790   0.379  15.241  12.507
48476W        W20791  43.495  16.243  11.612
48477W        W20792  17.661  17.197   2.418
48478W        W20793  41.282  11.777   2.852
48479W        W20794   8.309   4.522   4.745
48480W        W20795  43.527  34.153  14.343
48481W        W20796  26.151  18.198  10.832
48482W        W20797  12.052   7.123  11.233
48483W        W20798  16.249  16.654  11.595
48484W        W20799  23.723  39.409   4.629
48485W        W20800  27.014  10.409   0.854
48486W        W20801  12.231  32.143   0.236
48487W        W20802  17.100   5.519  11.101
48488W        W20803   9.289  20.962  12.968
48489W        W20804  13.135  15.445   2.723
48490W        W20805  33.287  12.142   4.071
48491W        W20806  12.364  18.160   5.470
48492W        W20807   3.351  25.564  14.782
48493W        W20808  37.505  42.085  13.405
48494W        W20809   2.753   9.706   2.047
48495W        W20810  40.798  11.803  12.583
48496W        W20811  42.880  42.093   3.741
48497W        W20812  26.334  25.396   5.159
48498W        W20813  25.675  37.646   3.250
48499W        W20814  23.276  10.954   4.124
48500W        W20815  37.882  28.218   1.444
48501W        W20816  14.674  17.161   0.106
48502W        W20817  38.442  27.657   3.486
48503W        W20818  37.647  13.993  11.186
48504W        W20819   2.883  37.570  13.555
48505W        W20820   3.199  20.705  14.471
48506W        W20821  21.058  24.768   2.910
48507W        W20822  35.537  11.340   1.818
48508W        W20823  24.743  40.330  14.546
48509W        W20824  44.878  31.141   0.836
48510W        W20825  12.324   8.295  14.252
48511W        W20826  34.981  41.499   2.415
48512W        W20827   8.212  25.036   2.234
48513W        W20828  15.993  36.148   0.250
48514W        W20829   9.282  15.348  13.460
48515W        W20830  30.106  23.531   4.813
48516W        W20831  44.865  29.953  10.801
48517W        W20832  18.320  35.978   0.841
48518W        W20833  19.459   8.954  10.893
48519W        W20834  22.097  25.245   3.508
48520W        W20835  40.055  15.882  11.152
48521W        W20836  14.803  29.031  12.535
48522W        W20837  11.348  44.453   0.008
48523W        W20838  37.861  20.657   0.279
48524W        W20839  27.551  11.840   3.254
48525W        W20840   2.649  17.166   3.679
48526W        W20841   4.119  13.237  11.143
48527W        W20842  36.614  34.526   4.053
48528W        W20843  16.233  37.160  12.415
48529W        W20844   3.025  13.768   1.186
48530W        W20845  41.249   7.979  13.884
48531W        W20846  25.606  15.975   1.970
48532W        W20847   7.317  18.099  11.578
48533W        W20848  38.266  14.376  14.970
48534W        W20849  30.510   3.970   2.324
48535W        W20850  40.472  33.922   4.259
48536W        W20851  36.144  40.176   2.871
48537W        W20852  17.966  23.401  11.575
48538W        W20853   2.861  33.904  12.291
48539W        W20854   1.964  33.857   1.846
48540W        W20855  23.464  41.460  13.980
48541W        W20856  21.704  12.157  14.791
48542W        W20857  14.626  36.756   1.367
48543W        W20858   0.454  13.084   3.110
48544W        W20859  24.177  38.303   2.222
48545W        W20860  22.909  22.002   3.737
48546W        W20861  30.669   5.520   0.205
48547W        W20862   2.708  20.857   4.162
48548W        W20863  38.808  19.023  14.407
48549W        W20864   1.817  21.710   2.522
48550W        W20865   5.863  37.544  12.213
48551W        W20866   6.321  24.442  11.649
48552W        W20867   7.193   3.334   2.696
48553W        W20868  24.426   0.355  13.276
48554W        W20869  36.971   6.371  13.091
48555W        W20870  19.987  26.956  10.746
48556W        W20871  22.506   4.803  13.493
48557W        W20872  18.528  21.007  13.075
48558W        W20873  37.849  16.159   0.243
48559W        W20874  32.707  33.822  12.620
48560W        W20875   8.722   5.914   2.904
48561W        W20876  18.291  28.767   2.787
48562W        W20877  44.964  42.046   4.048
48563W        W20878  38.104  40.072  10.659
48564W        W20879  20.998   0.936  12.023
48565W        W20880   2.682  11.698  14.959
48566W        W20881  30.102   1.593   3.630
48567W        W20882  27.043  27.855  10.084
48568W        W20883  10.893  33.239   4.128
48569W        W20884  38.655   2.293   3.331
48570W        W20885   0.866  14.615   3.794
48571W        W20886   6.226   7.427   2.847
48572W        W20887  36.357  30.982  12.554
48573W        W20888  32.993  20.606   3.353
48574W        W20889  15.798  26.241   4.353
48575W        W20890  35.319   2.893   4.965
48576W        W20891   0.001  38.125   0.466
48577W        W20892   5.152  17.042  10.501
48578W        W20893  11.947  22.627  13.650
48579W        W20894  34.106   2.942   2.490
48580W        W20895   0.557  11.083  11.926
48581W        W20896  29.508  29.376   4.453
48582W        W20897  34.380  21.295   0.818
48583W        W20898  22.836  23.272   3.279
48584W        W20899   0.528   0.358  13.358
48585W        W20900  29.945  24.600  10.505
48586W        W20901  39.869  26.636  14.198
48587W        W20902  18.502   0.519  10.669
48588W        W20903  12.351  39.062   2.602
48589W        W20904  30.444  19.848   4.133
48590W        W20905  29.654   3.643   4.432
48591W        W20906  41.896  21.574  13.295
48592W        W20907  15.496  31.007  10.814
48593W        W20908  14.619  11.917   0.060
48594W        W20909  38.452  23.453  11.993
48595W        W20910  31.655  44.529   4.119
48596W        W20911   3.782   2.342  12.448
48597W        W20912  41.737  42.230  14.268
48598W        W20913  24.253   7.621   3.450
48599W        W20914  33.867  29.990   4.817
48600W        W20915  35.780  21.259  12.552
48601W        W20916  36.145  18.996  14.032
48602W        W20917   2.492  12.116  11.202
48603W        W20918  34.050  14.149   3.983
48604W        W20919   7.968  38.017   1.318
48605W        W20920  22.936   3.235  12.572
48606W        W20921  42.262  32.611   4.940
48607W        W20922  35.809  40.285   4.169
48608W        W20923  13.565  42.117  10.683
48609W        W20924  15.232  20.668  10.869
48610W        W20925  28.414   0.863  13.119
48611W        W20926  31.395  39.859   2.293
48612W        W20927  36.400  39.947   1.277
48613W        W20928  11.394  13.093   3.150
48614W        W20929  36.502  31.468  13.500
48615W        W20930  11.129  11.705  14.023
48616W        W20931  31.131  19.819  13.824
48617W        W20932  25.107  12.347  12.539
48618W        W20933  40.369   5.640  13.826
48619W        W20934  40.829  38.287   4.329
48620W        W20935  40.045  43.971  12.208
48621W        W20936   3.939  13.182   2.920
48622W        W20937  12.008  25.466  12.030
48623W        W20938  41.524  40.925   4.488
48624W        W20939  33.596  29.051  13.937
48625W        W20940  44.552  22.698   1.491
48626W        W20941  11.161  36.860   3.574
48627W        W20942  30.065   6.590   2.409
48628W        W20943  19.978   1.753   0.706
48629W        W20944   4.561  26.169   2.912
48630W        W20945   2.808  25.964  13.318
48631W        W20946  40.520  12.101  12.929
48632W        W20947  15.752  28.728   2.793
48633W        W20948  44.969   1.224   4.120
48634W        W20949   8.731  18.288  10.575
48635W        W20950  12.457  10.056  13.936
48636W        W20951  24.125  39.340   4.971
48637W        W20952  43.387  29.982   1.920
48638W        W20953  28.074  35.544  13.785
48639W        W20954  17.753   3.079  12.551
48640W        W20955  22.926  27.412  10.796
48641W        W20956  17.342  30.886   1.902
48642W        W20957  24.504  17.643   0.642
48643W        W20958  38.333  17.326   0.712
48644W        W20959  34.629  42.971  13.935
48645W        W20960  32.654  15.106   4.121
48646W        W20961  43.951  21.535  11.318
48647W        W20962   2.827  20.052   3.190
48648W        W20963  34.304  13.725   3.581
48649W        W20964   8.416  34.613   0.784
48650W        W20965  32.609  17.489   2.923
48651W        W20966  30.226   1.598  11.805
48652W        W20967  34.181  30.963  11.060
48653W        W20968  30.314  14.256   5.172
48654W        W20969  24.081  34.189  14.087
48655W        W20970  22.608  26.098  11.142
48656W        W20971  33.664  20.215   0.311
48657W        W20972  25.146  10.845   2.191
48658W        W20973  17.513  10.283   3.844
48659W        W20974   4.445  20.806  11.979
48660W        W20975   2.682  43.767  10.395
48661W        W20976  39.126  41.247   0.862
48662W        W20977  43.312   5.358  14.319
48663W        W20978  23.193  18.804  14.789
48664W        W20979  43.833  42.910   1.199
48665W        W20980  29.052  33.826  10.130
48666W        W20981   0.109   4.534   1.747
48667W        W20982  28.956  19.120  14.875
48668W        W20983   3.392   8.733  10.626
48669W        W20984  29.422  38.050   2.213
48670W        W20985  33.935  35.488  14.994
48671W        W20986  13.916   5.753  14.922
48672W        W20987  10.706  17.033  12.387
48673W        W20988   3.749  11.472   1.781
48674W        W20989  10.197  26.368   1.792
48675W        W20990  19.795   0.297  11.201
48676W        W20991  12.204  28.081   0.661
48677W        W20992  38.460  40.056   4.053
48678W        W20993  30.353   1.938   3.337
48679W        W20994  41.702  28.168   0.800
48680W        W20995  23.458   9.012   1.843
48681W        W20996  22.222  32.254   1.789
48682W        W20997  15.089  36.482   1.329
48683W        W20998  25.152  13.698   1.804
48684W        W20999   6.933  30.228   2.673
48685W        W21000  39.152   9.295  12.965
48686W        W21001  40.948  37.949  11.843
48687W        W21002   2.468  12.424   2.789
48688W        W21003   7.075  19.664  12.934
48689W        W21004  39.744  41.542   0.297
48690W        W21005  31.573   7.424  10.732
48691W        W21006   0.247  26.201  11.105
48692W        W21007  30.947  18.624   3.363
48693W        W21008  15.760  40.658  12.826
48694W        W21009   7.535  30.079  11.608
48695W        W21010  35.185  16.895  12.526
48696W        W21011  32.703  12.101   2.163
48697W        W21012  19.313  15.268  10.846
48698W        W21013  26.590  44.463   4.666
48699W        W21014  10.384  27.338  11.022
48700W        W21015   0.486  24.618   1.698
48701W        W21016   2.938  20.604   2.698
48702W        W21017  40.055  11.811  12.861
48703W        W21018  12.394  41.724   0.482
48704W        W21019   8.773  24.264  12.100
48705W        W21020  23.405  28.384   4.851
48706W        W21021  24.255  17.208  11.907
48707W        W21022  36.644   9.317  13.097
48708W        W21023  43.096  35.900   0.179
48709W        W21024  36.523  14.110   1.919
48710W        W21025  26.947  14.160   3.756
48711W        W21026  44.323   1.512   1.204
48712W        W21027   2.668  12.181   1.407
48713W        W21028  10.362  14.666   0.775
48714W        W21029   6.778   2.217   3.228
48715W        W21030  38.923  10.331  11.149
48716W        W21031  14.351  44.361   3.512
48717W        W21032  15.767   8.126  11.158
48718W        W21033  20.653  28.386  10.954
48719W        W21034  14.776  34.501   4.837
48720W        W21035  18.060  22.981   2.251
48721W        W21036  30.836   1.710   0.347
48722W        W21037  27.228  33.288  12.836
48723W        W21038  25.651  44.396  10.706
48724W        W21039  27.974   5.230   2.191
48725W        W21040  39.072  40.858   0.111
48726W        W21041  16.446  23.625   3.700
48727W        W21042   3.756   6.849   4.913
48728W        W21043  31.402  37.311  12.922
48729W        W21044  26.659  25.304  12.883
48730W        W21045  31.987  35.362  12.181
48731W        W21046  22.128   0.344   1.246
48732W        W21047  34.437  23.933  11.704
48733W        W21048  32.985   1.297   4.113
48734W        W21049  11.828   3.011   0.434
48735W        W21050  19.712  30.495  12.199
48736W        W21051  10.438   2.408   4.611
48737W        W21052  22.139  35.967  13.361
48738W        W21053  34.386  22.812  12.828
48739W        W21054  27.407   3.429   9.990
48740W        W21055  23.037  30.435   0.272
48741W        W21056  44.048  17.158  12.826
48742W        W21057   6.745  41.305   3.100
48743W        W21058  28.598   4.019   3.708
48744W        W21059  42.227   7.498   0.469
48745W        W21060  31.866   2.351  11.054
48746W        W21061   0.546  33.477   4.871
48747W        W21062  44.330   5.317  11.095
48748W        W21063  39.031   0.539  14.547
48749W        W21064   2.648  17.366   2.266
48750W        W21065   6.797  11.325   1.250
48751W        W21066  25.790  24.554   1.728
48752W        W21067   0.727   2.372  14.249
48753W        W21068  35.598  25.105  14.882
48754W        W21069   5.020  16.532  14.928
48755W        W21070  41.805  38.903  12.535
48756W        W21071  42.465  44.025   3.103
48757W        W21072  38.560  12.607  13.284
48758W        W21073   0.080  35.918   0.497
48759W        W21074  36.455   1.360   3.320
48760W        W21075  42.175  34.896   5.040
48761W        W21076   4.607  18.628  14.490
48762W        W21077   1.777  26.468  12.449
48763W        W21078  31.617   2.464  14.521
48764W        W21079  39.399  22.866  11.367
48765W        W21080  14.217   9.716   2.856
48766W        W21081  33.327  32.233   4.245
48767W        W21082  11.293  35.986   4.568
48768W        W21083  14.995  35.918   2.520
48769W        W21084   4.974   8.692   3.254
48770W        W21085  33.004  38.043   0.230
48771W        W21086  21.887  24.665  14.565
48772W        W21087  25.456  38.462   2.736
48773W        W21088   0.181  18.312   1.416
48774W        W21089  43.412  38.861   4.819
48775W        W21090  22.109  22.705  12.527
48776W        W21091  34.060  29.182  13.004
48777W        W21092  11.984  39.328   2.184
48778W        W21093  25.176   0.218  12.637
48779W        W21094  16.610  35.631  13.413
48780W        W21095  44.447  23.028  14.323
48781W        W21096  17.844  29.966  11.962
48782W        W21097  23.628  41.484  11.621
48783W        W21098  31.225  17.634   2.315
48784W        W21099  17.859  25.501  11.024
48785W        W21100   8.614  33.509   0.623
48786W        W21101   0.949   5.434  14.431
48787W        W21102  44.244  34.968   1.686
48788W        W21103  21.039  20.708   0.319
48789W        W21104  11.833  34.139  14.087
48790W        W21105   3.780  20.796  13.840
48791W        W21106  42.383   6.626   1.889
48792W        W21107  38.130  23.829  11.402
48793W        W21108   7.920  40.622  13.101
48794W        W21109   3.648  43.566  14.599
48795W        W21110  20.524  31.662   1.459
48796W        W21111   2.921  36.094  11.410
48797W        W21112  15.167  18.231  13.466
48798W        W21113  24.596  15.088  10.644
48799W        W21114   1.525  33.082   4.222
48800W        W21115  21.568  38.805   2.835
48801W        W21116  12.298  27.656  10.957
48802W        W21117  28.007  40.703   0.335
48803W        W21118  43.348  42.387   2.183
48804W        W21119  16.241  16.830  13.425
48805W        W21120  23.184  23.300   4.190
48806W        W21121  38.192  15.340  13.331
48807W        W21122  34.932  44.388  10.749
48808W        W21123  16.686  14.210   1.333
48809W        W21124  30.114  37.507   3.953
48810W        W21125  18.689  16.777   3.678
48811W        W21126  13.274  34.482   4.193
48812W        W21127   1.427   8.247  13.598
48813W        W21128  35.280  18.644  10.960
48814W        W21129  20.434  31.175  11.929
48815W        W21130   0.372  21.401  11.149
48816W        W21131  13.514  22.551   4.481
48817W        W21132  43.817  43.943  12.974
48818W        W21133  19.258  36.281   1.120
48819W        W21134  15.105   4.872   4.636
48820W        W21135  27.059  22.260  14.554
48821W        W21136  18.572  12.358  13.017
48822W        W21137   4.602  44.892  11.393
48823W        W21138  29.391  17.760  13.737
48824W        W21139   9.740  23.046   0.364
48825W        W21140   1.932   0.178  13.857
48826W        W21141  38.395  17.140   3.271
48827W        W21142  30.931   4.302   1.377
48828W        W21143   3.363  28.653  14.979
48829W        W21144  36.161  15.373   3.083
48830W        W21145  34.141  24.435   1.738
48831W        W21146  29.887  37.136  14.814
48832W        W21147  30.080   6.749  12.820
48833W        W21148  32.046  30.975   2.903
48834W        W21149  15.187  40.067   1.301
48835W        W21150  10.269  32.946   1.688
48836W        W21151  17.690   3.044   2.812
48837W        W21152  42.962   4.294   4.352
48838W        W21153  13.336  39.830  11.079
48839W        W21154  27.868  10.929   3.473
48840W        W21155  32.969  26.532   4.291
48841W        W21156  23.828   6.920  14.002
48842W        W21157  25.617   7.241   0.283
48843W        W21158  23.807  24.973   2.488
48844W        W21159   6.186   7.201  14.451
48845W        W21160  15.323  35.477  14.267
48846W        W21161  18.279  22.764  13.292
48847W        W21162  34.979  25.154   3.151
48848W        W21163  32.010   8.897   0.292
48849W        W21164  29.273  19.829   4.150
48850W        W21165   0.863  42.350   1.781
48851W        W21166   5.451  17.289   1.993
48852W        W21167  39.139  12.123   2.711
48853W        W21168   9.118  38.368   4.349
48854W        W21169  39.984  14.774   4.535
48855W        W21170  18.811  19.546   2.081
48856W        W21171  37.961  25.959   3.521
48857W        W21172  31.347  37.359  11.475
48858W        W21173   1.285   4.937  11.227
48859W        W21174  41.685  43.396   1.533
48860W        W21175   9.784  15.097   2.346
48861W        W21176  32.720  23.796  11.206
48862W        W21177  36.607   5.012  12.359
48863W        W21178   7.927  43.793  10.712
48864W        W21179   1.349   6.473  13.754
48865W        W21180  14.629  37.635  11.610
48866W        W21181  43.428   6.785   3.194
48867W        W21182  11.925  36.116   0.629
48868W        W21183  16.870  39.154  11.366
48869W        W21184  41.819   6.796   4.041
48870W        W21185  15.322   0.270  13.690
48871W        W21186  41.594  34.971   1.833
48872W        W21187  22.585  41.013   3.737
48873W        W21188  37.588  30.507  13.398
48874W        W21189  41.343  16.602  14.161
48875W        W21190   3.824  33.109   0.767
48876W        W21191  42.785   4.664  14.261
48877W        W21192  29.700  27.014  13.573
48878W        W21193  10.322  44.534   1.939
48879W        W21194  20.203  19.754   1.937
48880W        W21195  22.239  35.566   0.464
48881W        W21196   9.268  25.989  11.585
48882W        W21197  43.333  30.386  14.569
48883W        W21198  35.173  30.597  10.623
48884W        W21199  35.030  29.631  14.804
48885W        W21200  24.832  13.418  14.323
48886W        W21201  30.509   5.962   1.920
48887W        W21202   7.410  23.434  12.438
48888W        W21203  19.661   3.927  13.404
48889W        W21204  34.887  36.416  13.858
48890W        W21205  23.235  32.172   2.196
48891W        W21206  18.770  17.706  13.830
48892W        W21207  33.974  33.495  13.979
48893W        W21208  27.236  23.972  10.764
48894W        W21209  11.153  21.491   0.771
48895W        W21210  30.445  41.511   0.038
48896W        W21211  31.813  31.144   2.459
48897W        W21212  25.293  39.306  13.243
48898W        W21213  32.547  43.852  11.578
48899W        W21214  19.606  15.772   4.551
48900W        W21215  41.545   3.625  12.574
48901W        W21216   5.888  39.181   3.108
48902W        W21217   9.022  19.953   0.897
48903W        W21218  21.576   7.277  14.472
48904W        W21219   5.976  37.706  11.701
48905W        W21220  11.381  24.670   4.349
48906W        W21221  34.049   1.810  14.277
48907W        W21222  38.378  32.856   3.015
48908W        W21223  13.752  10.874  14.809
48909W        W21224  25.161  29.374  13.373
48910W        W21225  41.839  29.692   4.587
48911W        W21226  12.289  42.380   3.658
48912W        W21227   7.186  35.230  14.350
48913W        W21228  36.472   1.029   4.927
48914W        W21229  40.158  25.332  13.404
48915W        W21230  23.291  32.986  14.484
48916W        W21231  44.900  31.079  12.696
48917W        W21232  42.507  10.289   3.181
48918W        W21233  21.984  30.482   0.869
48919W        W21234  14.208  34.542   4.155
48920W        W21235  14.044   4.438   1.291
48921W        W21236  34.025  16.638   0.329
48922W        W21237  40.505  34.272  14.501
48923W        W21238  13.285   0.550   3.708
48924W        W21239  41.428  22.232   2.913
48925W        W21240  23.076  26.041  10.904
48926W        W21241  19.775   2.989   3.102
48927W        W21242  35.428   4.230  13.082
48928W        W21243  12.171  22.832   2.356
48929W        W21244   6.117  33.659   3.777
48930W        W21245  26.163  13.265   3.836
48931W        W21246  29.002  24.784   4.700
48932W        W21247  20.592   2.748   4.135
48933W        W21248  34.109   0.013   0.506
48934W        W21249  11.210  42.706   0.283
48935W        W21250  12.373   0.311   2.240
48936W        W21251   4.508  11.796   2.128
48937W        W21252   1.971  17.584  12.088
48938W        W21253  24.284  35.542  14.334
48939W        W21254  42.919  33.150  13.292
48940W        W21255  34.471  35.690   3.684
48941W        W21256   2.360  29.607   5.018
48942W        W21257  12.852   8.819  10.710
48943W        W21258  43.077  18.006  14.947
48944W        W21259   4.531  12.105   4.555
48945W        W21260  23.753  29.758  14.504
48946W        W21261  26.134  43.185  12.000
48947W        W21262   9.646  23.966   4.003
48948W        W21263  27.313  37.820  10.975
48949W        W21264  21.049   2.846   2.821
48950W        W21265  35.673  27.570   3.893
48951W        W21266   0.515  17.555  10.869
48952W        W21267  25.910   5.023  14.844
48953W        W21268  11.929  32.405   4.133
48954W        W21269   0.287  13.677   4.391
48955W        W21270  33.152  34.599   3.646
48956W        W21271  36.828   2.322  12.942
48957W        W21272  21.720  35.305  14.928
48958W        W21273  33.845  37.876   0.904
48959W        W21274  13.248  17.281   4.138
48960W        W21275  25.657  12.560  11.580
48961W        W21276  34.978   2.537   0.697
48962W        W21277  38.491  13.915   0.859
48963W        W21278  24.703  19.080  10.955
48964W        W21279  18.566   5.734   0.428
48965W        W21280  40.624  43.231   4.212
48966W        W21281   4.871  33.458  12.393
48967W        W21282   7.877  29.730   2.861
48968W        W21283   1.418  19.596   3.389
48969W        W21284  12.220  30.511   2.202
48970W        W21285  24.141  41.498   3.170
48971W        W21286  37.362  33.354  12.470
48972W        W21287  38.945   4.908  13.048
48973W        W21288  38.514  31.692   1.069
48974W        W21289  13.463  22.175  11.941
48975W        W21290   7.377  43.476  11.546
48976W        W21291  11.747  28.646  12.029
48977W        W21292  40.998  29.737  14.708
48978W        W21293  25.794   9.994  11.346
48979W        W21294  34.084  19.972  12.803
48980W        W21295  36.502  22.285  12.897
48981W        W21296  17.669  11.827  10.874
48982W        W21297  33.612  32.178  13.837
48983W        W21298  16.539   9.554   5.459
48984W        W21299  14.634  25.581   3.830
48985W        W21300  37.863  17.077   2.108
48986W        W21301  43.095   1.924  14.840
48987W        W21302  26.619  33.140  12.045
48988W        W21303  23.341  38.396   4.283
48989W        W21304  18.534   6.106  14.900
48990W        W21305  11.219  25.125  14.567
48991W        W21306  33.572  20.292  12.812
48992W        W21307  28.588  43.057   0.521
48993W        W21308  12.797   6.691  13.358
48994W        W21309   0.000  14.047   0.001
48995W        W21310   2.813   0.798  13.171
48996W        W21311   3.726  40.079   1.872
48997W        W21312   2.714  44.935   4.051
48998W        W21313  32.905  11.207  13.363
48999W        W21314  44.868  44.291   4.252
49000W        W21315  12.248  18.112   3.640
49001W        W21316   2.681  32.271   3.233
49002W        W21317  22.662  40.627   3.414
49003W        W21318  15.737  22.250  11.822
49004W        W21319   3.512  30.090   1.031
49005W        W21320  15.154  31.032  13.964
49006W        W21321  16.589  13.560   4.066
49007W        W21322  34.840  41.779  12.784
49008W        W21323  16.278  17.375  11.104
49009W        W21324  36.569  30.579  13.408
49010W        W21325  23.974  39.238   1.369
49011W        W21326  29.163  31.162   3.190
49012W        W21327   1.908  24.130  12.948
49013W        W21328   4.144   2.457  12.101
49014W        W21329  28.509  38.563  10.719
49015W        W21330  14.816  17.477   0.519
49016W        W21331  30.850   9.386  13.767
49017W        W21332  24.046   4.835   2.755
49018W        W21333  15.348   4.681  11.548
49019W        W21334   8.959  38.989  13.895
49020W        W21335  27.133  44.437   2.862
49021W        W21336  29.435   6.770   0.467
49022W        W21337  10.099  31.169   3.147
49023W        W21338  13.389  29.137  13.463
49024W        W21339   9.334  22.693  12.483
49025W        W21340   9.186   1.977  10.653
49026W        W21341  34.415   8.937  12.424
49027W        W21342  10.249   1.734   2.938
49028W        W21343   4.733  15.404  10.488
49029W        W21344   3.832  26.640   3.311
49030W        W21345  20.572  16.671   4.585
49031W        W21346  23.472   7.408   1.771
49032W        W21347  29.616  25.602   4.527
49033W        W21348   8.311  42.979  14.449
49034W        W21349  37.164  29.370   0.218
49035W        W21350  26.013  44.558  12.431
49036W        W21351  38.440  35.475   3.389
49037W        W21352  14.730   9.762   4.803
49038W        W21353  35.362   4.484   2.720
49039W        W21354  33.372   4.196   1.714
49040W        W21355  18.492   3.993  12.072
49041W        W21356  12.157  12.645   4.492
49042W        W21357  27.991   1.638  13.028
49043W        W21358  28.868  28.917   3.710
49044W        W21359  36.830  17.836  11.889
49045W        W21360  40.425  11.776   2.247
49046W        W21361  16.806   2.553   3.352
49047W        W21362  15.728  20.900  13.934
49048W        W21363  31.555   8.271  14.126
49049W        W21364  21.554  36.133  14.321
49050W        W21365  29.675   3.892   1.771
49051W        W21366  29.214  38.767   0.751
49052W        W21367   2.044  24.169  14.190
49053W        W21368  20.609  43.882  11.903
49054W        W21369   5.298  26.742   5.080
49055W        W21370  35.459   3.503  14.747
49056W        W21371  40.229  40.336  12.440
49057W        W21372  27.140  40.527   1.219
49058W        W21373   4.249  37.444   1.860
49059W        W21374  32.085   0.455   4.258
49060W        W21375  10.331  18.807   0.782
49061W        W21376  19.554   7.238  10.645
49062W        W21377  31.009   7.958  11.901
49063W        W21378  43.304  30.984  12.018
49064W        W21379   0.001  12.817   1.359
49065W        W21380  34.466  35.551  11.154
49066W        W21381  26.052  42.322   3.969
49067W        W21382  25.221  40.896  14.442
49068W        W21383  13.196   9.618   4.734
49069W        W21384   8.908  30.506   2.825
49070W        W21385   6.399   7.281   0.840
49071W        W21386  15.319  24.137  12.127
49072W        W21387   7.505  42.022  14.274
49073W        W21388  15.199  40.558   0.288
49074W        W21389   8.691   6.337   0.032
49075W        W21390  13.168   2.775   3.120
49076W        W21391   1.266   5.683  12.570
49077W        W21392  43.025  12.164   2.773
49078W        W21393  34.033  29.429  10.232
49079W        W21394  15.863  19.329   2.131
49080W        W21395   1.203  17.064   3.878
49081W        W21396  42.540  21.262  11.117
49082W        W21397  21.631  33.137  11.397
49083W        W21398  43.980  35.807  12.036
49084W        W21399  16.163  22.174   3.708
49085W        W21400  38.836  22.569   2.661
49086W        W21401  25.210  21.655   3.624
49087W        W21402  42.959  18.828  12.822
49088W        W21403  23.962  12.604  10.634
49089W        W21404  11.809  38.319   5.036
49090W        W21405  10.634  15.373  14.486
49091W        W21406   5.375  31.222   0.789
49092W        W21407  32.368  25.178  14.266
49093W        W21408  12.716  26.033  13.820
49094W        W21409   4.785  24.055  13.917
49095W        W21410   7.938  32.098   2.396
49096W        W21411  24.599  40.316  12.978
49097W        W21412   3.904  31.936  10.549
49098W        W21413   9.383  24.529  13.050
49099W        W21414  18.502  42.828  12.927
49100W        W21415   2.919   0.478   1.382
49101W        W21416  15.025  18.193   2.372
49102W        W21417  17.161  10.816  10.607
49103W        W21418  14.593  12.338   0.357
49104W        W21419  31.927  17.060   4.701
49105W        W21420  36.784  32.341   0.423
49106W        W21421  29.183  24.716   0.375
49107W        W21422  37.615  27.705  14.986
49108W        W21423  15.693   9.479  14.772
49109W        W21424  14.637  39.909  14.359
49110W        W21425   9.625  32.599   3.825
49111W        W21426  10.332  15.312   1.365
49112W        W21427  10.713  23.151  11.651
49113W        W21428  13.227  26.026  13.849
49114W        W21429  27.410  21.286  11.014
49115W        W21430  29.515   2.757   4.036
49116W        W21431  26.871  27.918   2.888
49117W        W21432   1.862   6.717  14.923
49118W        W21433   9.746  26.631   1.745
49119W        W21434  17.901  31.328  12.504
49120W        W21435  29.642  22.984   0.616
49121W        W21436  25.339   9.995   5.020
49122W        W21437  28.902  27.451  11.105
49123W        W21438   5.018  39.623   0.343
49124W        W21439   2.544  29.544  10.759
49125W        W21440  44.223  31.000  13.385
49126W        W21441  12.802  21.655  12.387
49127W        W21442  17.775  30.532  12.039
49128W        W21443  23.650  20.265  11.132
49129W        W21444  15.831  35.794  10.547
49130W        W21445  31.974  28.665  10.927
49131W        W21446  18.819   5.905  12.941
49132W        W21447  24.598  26.912  11.761
49133W        W21448  35.545   4.778   4.621
49134W        W21449  35.264  22.644  13.916
49135W        W21450   6.945  36.841  10.641
49136W        W21451   4.346  44.088   0.009
49137W        W21452   6.756  24.475  11.927
49138W        W21453  26.431  24.014  13.399
49139W        W21454  37.118   3.087  11.429
49140W        W21455  43.483  35.479   4.098
49141W        W21456  22.664  37.905  10.335
49142W        W21457  39.263  26.467  11.451
49143W        W21458  26.989  15.867  12.471
49144W        W21459  39.866  10.872  14.835
49145W        W21460  35.927  37.350  14.375
49146W        W21461  15.531   3.172   0.288
49147W        W21462  35.010   0.882  11.202
49148W        W21463  34.497  32.645   4.482
49149W        W21464  39.568   1.224  14.329
49150W        W21465  11.682  32.545  11.504
49151W        W21466  12.683   7.893   4.631
49152W        W21467  29.977  39.835   2.372
49153W        W21468  30.204   7.436  11.537
49154W        W21469  43.377  18.414  14.419
49155W        W21470   1.192  20.952   5.128
49156W        W21471  24.107  17.768   1.827
49157W        W21472  14.350   2.522   0.342
49158W        W21473   0.409   9.637  10.698
49159W        W21474   5.970  13.238  12.011
49160W        W21475  15.690  20.217  12.041
49161W        W21476   6.453  13.492   4.526
49162W        W21477  16.726  44.383   0.664
49163W        W21478  12.381  40.328  12.961
49164W        W21479  42.510  11.246  11.036
49165W        W21480   8.912  21.595   0.852
49166W        W21481  22.657  17.864  10.169
49167W        W21482  22.059  10.170   2.196
49168W        W21483  18.038  28.582   1.392
49169W        W21484  19.130  33.842   4.301
49170W        W21485  21.654  11.652  14.828
49171W        W21486   0.201  14.259   3.557
49172W        W21487  16.798  38.073  13.372
49173W        W21488   7.233   7.626   4.077
49174W        W21489  35.863  10.192   1.332
49175W        W21490  32.545   4.331  10.515
49176W        W21491   1.526  12.713  14.545
49177W        W21492  22.977  24.261  13.835
49178W        W21493   4.758  35.156   1.960
49179W        W21494   4.980  31.468  10.666
49180W        W21495  28.941  31.772  13.703
49181W        W21496   2.440  32.646   0.248
49182W        W21497  26.428  31.554  13.451
49183W        W21498   4.859   4.675   0.075
49184W        W21499  40.899  14.552  12.816
49185W        W21500  24.087  43.544  12.718
49186W        W21501  32.397  40.805  14.395
49187W        W21502   1.180   1.863   1.101
49188W        W21503  14.092  31.940   0.776
49189W        W21504  21.087  12.071  12.194
49190W        W21505  27.616  20.491  12.423
49191W        W21506  37.140  29.573   4.525
49192W        W21507  42.070  29.414  10.648
49193W        W21508  40.231  32.488  12.424
49194W        W21509  33.523  21.728  11.552
49195W        W21510  20.169  16.449  12.415
49196W        W21511  37.646  21.258  11.221
49197W        W21512  17.915  24.274  12.180
49198W        W21513  32.189  22.566  12.939
49199W        W21514  30.367  26.497  13.068
49200W        W21515  29.411  41.889   3.652
49201W        W21516   1.411  33.619   2.098
49202W        W21517   2.513  31.071  12.512
49203W        W21518  34.560  35.122  14.075
49204W        W21519  10.214   0.076   5.021
49205W        W21520  17.496   5.313   4.533
49206W        W21521  15.809  40.746   1.428
49207W        W21522  35.842  34.089  14.770
49208W        W21523  43.469  14.140  14.644
49209W        W21524  15.083  16.617  14.528
49210W        W21525  29.580  11.262   3.216
49211W        W21526  17.360  16.191  12.436
49212W        W21527  27.024  10.859   0.624
49213W        W21528  16.746   0.285   4.682
49214W        W21529  17.498   0.236  10.406
49215W        W21530  13.888  36.442   2.733
49216W        W21531  18.768  34.790   3.682
49217W        W21532  17.050  20.603  11.609
49218W        W21533  19.839  30.076  12.944
49219W        W21534  18.524   7.591   2.320
49220W        W21535  23.987  11.746   2.818
49221W        W21536  39.287  32.672  13.431
49222W        W21537  13.238  40.853   0.521
49223W        W21538  12.715  19.790  10.671
49224W        W21539   9.691   2.544   2.490
49225W        W21540  44.967  25.634   2.708
49226W        W21541  15.080  42.657   4.199
49227W        W21542  23.513  15.664   1.761
49228W        W21543   1.001  28.970  11.125
49229W        W21544  27.706  36.937  12.475
49230W        W21545  11.140   3.028  14.819
49231W        W21546  32.525  35.582   0.466
49232W        W21547  12.757  30.593  14.702
49233W        W21548   1.705   6.255   3.271
49234W        W21549   0.263  22.386   3.499
49235W        W21550   5.318   4.595   0.887
49236W        W21551  28.868  16.540  11.601
49237W        W21552  44.300  39.800  11.005
49238W        W21553   3.285  16.250  14.837
49239W        W21554  35.509  24.762  13.274
49240W        W21555  23.235   9.237   0.610
49241W        W21556   2.456  35.891  11.545
49242W        W21557  20.056  35.104  11.439
49243W        W21558  12.764  31.934   4.325
49244W        W21559   9.512  41.630  14.870
49245W        W21560  35.519  23.948   0.776
49246W        W21561  32.388  27.104   3.229
49247W        W21562  26.896  21.493  13.453
49248W        W21563  25.731   3.125   3.807
49249W        W21564   7.792  43.400   4.274
49250W        W21565   2.041  44.229  11.120
49251W        W21566  31.343  41.410   3.095
49252W        W21567  11.614   3.185   0.886
49253W        W21568   4.582  40.039   1.347
49254W        W21569  11.697  28.572  14.507
49255W        W21570  44.421   5.159   1.653
49256W        W21571  34.884   0.252  11.997
49257W        W21572  29.828  17.554  13.917
49258W        W21573   8.303  22.215   1.674
49259W        W21574   0.254   2.245  11.529
49260W        W21575  24.088  30.689  13.847
49261W        W21576  27.739  36.832  14.718
49262W        W21577   9.288  31.701  13.117
49263W        W21578  28.395  24.114  12.199
49264W        W21579  32.468  22.414   0.955
49265W        W21580  31.164  43.568   3.357
49266W        W21581  29.138   4.358  14.396
49267W        W21582  41.564  26.971  11.200
49268W        W21583  17.054  31.951   0.820
49269W        W21584   7.878  27.688  12.299
49270W        W21585   9.686  31.253   1.131
49271W        W21586  19.065  20.705   2.935
49272W        W21587  31.089  38.941  14.474
49273W        W21588  30.528  35.927  10.519
49274W        W21589  14.763  18.046   3.627
49275W        W21590  31.884  40.335   1.764
49276W        W21591  33.183  40.069  11.461
49277W        W21592  32.687  25.656   2.806
49278W        W21593   4.658  35.565  13.308
49279W        W21594  28.386  28.310  13.063
49280W        W21595  34.469  25.771  13.086
49281W        W21596  28.534   3.854   0.304
49282W        W21597  23.547   5.424  13.891
49283W        W21598   5.708  33.117  12.128
49284W        W21599  44.011  41.106   1.631
49285W        W21600  26.885  24.723   0.019
49286W        W21601   5.106   8.719  10.970
49287W        W21602  22.046  18.310   4.496
49288W        W21603  13.484  41.587  10.675
49289W        W21604  43.208   7.218   3.033
49290W        W21605  11.247   9.421   1.794
49291W        W21606  18.228   3.304  13.369
49292W        W21607  29.687   3.223  13.039
49293W        W21608  10.885  33.588   4.666
49294W        W21609   0.075  41.900   3.240
49295W        W21610   5.164   8.284   0.389
49296W        W21611  21.238  32.338  12.723
49297W        W21612  15.654  25.549   4.729
49298W        W21613  40.631  10.732   2.380
49299W        W21614  20.725  15.598  14.744
49300W        W21615  19.739  39.939  11.459
49301W        W21616   3.148   8.605   0.766
49302W        W21617   3.698  21.707   1.976
49303W        W21618  36.778  44.870  10.061
49304W        W21619  29.097  44.689   0.815
49305W        W21620  36.530  21.136   1.110
49306W        W21621  27.663  18.501   3.749
49307W        W21622  25.271  44.902   3.199
49308W        W21623  31.933  24.146   1.855
49309W        W21624  18.685  42.076   3.612
49310W        W21625  34.271  44.546   4.630
49311W        W21626   5.408   7.344   2.407
49312W        W21627  42.030  30.743  13.432
49313W        W21628  41.028  33.888  14.888
49314W        W21629   1.310   3.200   1.678
49315W        W21630   8.448   8.903   4.087
49316W        W21631  27.007  20.243  11.936
49317W        W21632   6.281  29.102   4.368
49318W        W21633  28.172  41.093  12.598
49319W        W21634  44.029  39.878   4.697
49320W        W21635  24.193  37.366   0.321
49321W        W21636  32.572  32.338  14.417
49322W        W21637  25.130  17.077   3.307
49323W        W21638   2.890  21.660  12.950
49324W        W21639  20.763   7.912   3.187
49325W        W21640   7.652  14.737   3.344
49326W        W21641  38.274  35.896   0.350
49327W        W21642  28.580  37.259  13.931
49328W        W21643   8.703  27.962  12.403
49329W        W21644  19.572  40.861  11.561
49330W        W21645  16.208  43.475  14.033
49331W        W21646  11.154  36.486  11.393
49332W        W21647  41.083  43.565  13.353
49333W        W21648  18.980  26.162   3.411
49334W        W21649  15.317  24.926   2.187
49335W        W21650   1.482   6.531  12.031
49336W        W21651  17.557   4.338   1.420
49337W        W21652  44.351  23.535   2.446
49338W        W21653   9.553  13.932   3.777
49339W        W21654  30.351  40.977  14.628
49340W        W21655  29.520  36.881   1.199
49341W        W21656  25.264  40.156   1.216
49342W        W21657  31.962  41.742  12.838
49343W        W21658  16.095  44.864  11.651
49344W        W21659  34.682  39.927   0.268
49345W        W21660  21.214  16.071   2.635
49346W        W21661  20.572  38.008  12.441
49347W        W21662  26.198  21.662   4.603
49348W        W21663  12.679  13.262  12.451
49349W        W21664  37.425  19.537  11.707
49350W        W21665  14.204  10.536   4.979
49351W        W21666   1.243  25.646  11.566
49352W        W21667   5.768   7.819  13.999
49353W        W21668  26.123  24.321   0.419
49354W        W21669  38.530  16.797  13.889
49355W        W21670  32.736   6.270   1.347
49356W        W21671  25.030  44.293   1.424
49357W        W21672  40.938   8.952   2.334
49358W        W21673  41.697  15.226  14.419
49359W        W21674  26.883  17.706   1.235
49360W        W21675  29.383  13.621   3.853
49361W        W21676  23.455  40.444   1.933
49362W        W21677  21.534  43.205  14.839
49363W        W21678   3.401  14.148  10.674
49364W        W21679  23.791  44.333   3.746
49365W        W21680   9.878  18.641   5.106
49366W        W21681  25.999  10.805  12.955
49367W        W21682  21.915  19.665   0.726
49368W        W21683  31.467  43.933  12.100
49369W        W21684  26.056  23.783  10.820
49370W        W21685  35.593  12.306   4.779
49371W        W21686  32.311  38.806   4.378
49372W        W21687  30.782   8.684  14.768
49373W        W21688  16.474  42.986  13.561
49374W        W21689   5.957  33.044   1.348
49375W        W21690  11.665  30.870   1.465
49376W        W21691  27.331   4.924   3.148
49377W        W21692   5.710  26.940  13.442
49378W        W21693  17.006  34.060  12.498
49379W        W21694  11.990  30.942  11.120
49380W        W21695  31.755   5.883  11.506
49381W        W21696  42.315  30.129   3.330
49382W        W21697  17.162  27.038  14.767
49383W        W21698  26.840  34.924  10.149
49384W        W21699  40.425  23.137   1.231
49385W        W21700  41.700   5.181   2.335
49386W        W21701  28.649   5.904   3.610
49387W        W21702  44.292   7.369   1.026
49388W        W21703  25.099  17.442   2.757
49389W        W21704  31.944   9.626  11.445
49390W        W21705  20.310  29.896  13.816
49391W        W21706  38.639  26.975   4.615
49392W        W21707  28.084  15.783   3.780
49393W        W21708  17.441  33.471   3.429
49394W        W21709  15.284   2.254   1.992
49395W        W21710  35.883   5.131   2.805
49396W        W21711  14.494  41.346   4.573
49397W        W21712  32.363  36.886   0.978
49398W        W21713  35.302   2.988  14.774
49399W        W21714  43.600  35.744   1.474
49400W        W21715  15.731   9.152   2.865
49401W        W21716  20.744  39.946   0.406
49402W        W21717  14.598  41.100   1.811
49403W        W21718  24.623  23.571   2.105
49404W        W21719   5.004  32.066  11.615
49405W        W21720  21.984  38.070  14.390
49406W        W21721   2.025  42.241  13.549
49407W        W21722  13.353   1.010   2.884
49408W        W21723  36.322   8.207  13.923
49409W        W21724  17.695  39.828   2.826
49410W        W21725  34.438  41.784  12.446
49411W        W21726  11.883  28.467   1.353
49412W        W21727  42.701  36.639  11.046
49413W        W21728   2.496   8.148  11.031
49414W        W21729  11.790  16.264   0.502
49415W        W21730  18.265  27.676   4.271
49416W        W21731  40.830  22.483  13.756
49417W        W21732  16.818  18.609   4.904
49418W        W21733  42.318  27.327   4.124
49419W        W21734  41.310  13.446  12.422
49420W        W21735  24.035  36.798   4.069
49421W        W21736  30.162  39.028  14.601
49422W        W21737  16.371  40.868  11.182
49423W        W21738  13.191  19.574   2.343
49424W        W21739   3.150   8.411   4.170
49425W        W21740  26.382  42.404  12.964
49426W        W21741  12.596  33.478  13.774
49427W        W21742  26.109  34.855  11.645
49428W        W21743   4.026  13.623   2.008
49429W        W21744  40.039   7.305  13.025
49430W        W21745  33.660  32.094  11.363
49431W        W21746  43.296  19.585  14.675
49432W        W21747  31.482  12.538  13.333
49433W        W21748  13.591  17.655   0.362
49434W        W21749  30.024  17.557   3.643
49435W        W21750  14.760  26.638   1.017
49436W        W21751  23.230  19.847   5.049
49437W        W21752  16.647   0.195   0.295
49438W        W21753  38.280  16.804   0.725
49439W        W21754  36.910   9.609   1.307
49440W        W21755  26.563  11.028  13.924
49441W        W21756  38.289   3.232   0.763
49442W        W21757  40.640  41.314   0.548
49443W        W21758  18.144  28.048   0.491
49444W        W21759   2.118  36.497  10.942
49445W        W21760  24.552  24.968   1.277
49446W        W21761  11.895  15.740  11.457
49447W        W21762  25.099  33.614   4.122
49448W        W21763   4.683  44.680   4.180
49449W        W21764  40.360  28.230   1.235
49450W        W21765  26.008  23.466   3.189
49451W        W21766   4.393   7.217   2.338
49452W        W21767  37.394  33.539  11.891
49453W        W21768  25.589   4.481   2.812
49454W        W21769  11.276  32.337   4.575
49455W        W21770  44.290   2.246  11.491
49456W        W21771   7.842  43.336  10.475
49457W        W21772  27.582   7.427   1.167
49458W        W21773   9.911  37.259  14.396
49459W        W21774  15.156  36.471   4.354
49460W        W21775  25.164   2.320  12.006
49461W        W21776   9.119  17.811  13.408
49462W        W21777   7.671  28.712  10.951
49463W        W21778   1.565  34.909  14.691
49464W        W21779  30.432   9.546   4.076
49465W        W21780  18.628  10.178  13.727
49466W        W21781   0.429  35.063   0.011
49467W        W21782  39.189  29.917   1.300
49468W        W21783  41.860  17.236   0.356
49469W        W21784  31.275  30.893   4.963
49470W        W21785  31.645   1.489   0.015
49471W        W21786  43.418  17.116  13.444
49472W        W21787  26.397  25.121   1.351
49473W        W21788  37.835  14.198  14.042
49474W        W21789  36.275  38.479  10.717
49475W        W21790   5.792  31.044  13.003
49476W        W21791  38.005  18.247   4.029
49477W        W21792  19.933  37.682  10.451
49478W        W21793  29.326   2.142  11.167
49479W        W21794   2.310  10.230   3.957
49480W        W21795  39.835  19.221   0.323
49481W        W21796   1.169  18.015   1.215
49482W        W21797  25.080  20.592  14.312
49483W        W21798  30.673  42.913   3.712
49484W        W21799  13.576  14.218  12.854
49485W        W21800  29.870  29.088   4.262
49486W        W21801  25.507   5.831   5.254
49487W        W21802  23.137  21.832   5.475
49488W        W21803  20.634   0.309   2.635
49489W        W21804  42.806   0.401   4.688
49490W        W21805   4.177   1.279   4.203
49491W        W21806   2.494  43.142  12.912
49492W        W21807   3.957  26.251   2.900
49493W        W21808   8.983  32.836  10.255
49494W        W21809  21.514   1.229   4.504
49495W        W21810   9.315  18.583  14.430
49496W        W21811  23.000  19.575   2.436
49497W        W21812   6.158   2.780   3.932
49498W        W21813  11.742  27.284   3.297
49499W        W21814  42.528   5.710  14.847
49500W        W21815  41.886  44.694   4.590
49501W        W21816  43.225  15.314  10.634
49502W        W21817  25.161  34.545   1.771
49503W        W21818  38.617   5.684  11.624
49504W        W21819  22.325  30.401  12.544
49505W        W21820  40.290   8.243   4.958
49506W        W21821   2.466  15.208  11.658
49507W        W21822  29.129   1.988  13.794
49508W        W21823  35.090   5.848   3.759
49509W        W21824  23.498   2.451   1.610
49510W        W21825   5.253  16.409  13.957
49511W        W21826  19.333   5.166  11.016
49512W        W21827   6.399   0.997   3.267
49513W        W21828  43.460  17.440  10.735
49514W        W21829  25.819   3.779  12.374
49515W        W21830  25.267   1.448  11.135
49516W        W21831  14.678  15.338  12.612
49517W        W21832  34.428  33.181  11.639
49518W        W21833   9.932  13.632   0.256
49519W        W21834   1.053   6.412   3.372
49520W        W21835  23.667  43.946   3.377
49521W        W21836   4.664   8.133   4.104
49522W        W21837  44.418  18.582  13.105
49523W        W21838  23.911  43.860  10.511
49524W        W21839  44.381  17.194   4.169
49525W        W21840  18.589  12.178   1.652
49526W        W21841  41.914  20.569  14.531
49527W        W21842  33.464  41.030  11.540
49528W        W21843   7.783   2.653  12.688
49529W        W21844  24.991   6.855   3.376
49530W        W21845  36.632  32.748   4.342
49531W        W21846  21.260  22.967   3.126
49532W        W21847  21.315  13.623  11.525
49533W        W21848  32.195  23.266  12.461
49534W        W21849  30.328  19.113   4.708
49535W        W21850   3.689  36.430  13.387
49536W        W21851  43.021  19.370   0.073
49537W        W21852  42.881   4.692   0.172
49538W        W21853  29.205  26.202   0.492
49539W        W21854  12.746  33.589  12.050
49540W        W21855  21.086  15.299   1.658
49541W        W21856  26.448   8.773  14.415
49542W        W21857  33.583  14.911  13.845
49543W        W21858  32.156  32.142   3.453
49544W        W21859  28.611  39.938   0.318
49545W        W21860  13.949  37.642   2.267
49546W        W21861  30.495  40.865   0.879
49547W        W21862  31.975  11.661  11.522
49548W        W21863  37.526   8.249  12.056
49549W        W21864  13.617   6.422  11.172
49550W        W21865  34.888  40.498   2.428
49551W        W21866  23.247   9.847  14.037
49552W        W21867  42.480  30.048  11.609
49553W        W21868  30.949   9.067   2.198
49554W        W21869  20.221  25.331   4.622
49555W        W21870  26.548   0.257  14.511
49556W        W21871  10.220  12.578   0.786
49557W        W21872  23.262  10.514   2.607
49558W        W21873  38.432  26.570   2.230
49559W        W21874  20.112  27.989   4.644
49560W        W21875  14.858  11.084   3.604
49561W        W21876  19.373  14.080  11.975
49562W        W21877  33.638  29.733  12.571
49563W        W21878  20.167  14.199   0.303
49564W        W21879  27.535   5.722   4.067
49565W        W21880   6.405  25.459  12.570
49566W        W21881  12.667  38.892  13.063
49567W        W21882   3.200   0.418  13.555
49568W        W21883  30.035  34.539  12.539
49569W        W21884  31.409  33.127  11.642
49570W        W21885   2.403   4.717   4.777
49571W        W21886  19.059   2.466  13.922
49572W        W21887   9.675  33.974  12.904
49573W        W21888   8.564  35.497   2.234
49574W        W21889   5.804  15.322   3.735
49575W        W21890  34.089  22.981   3.074
49576W        W21891  39.007   7.114   0.493
49577W        W21892  37.072  11.874   4.109
49578W        W21893  43.296   6.962   3.914
49579W        W21894  13.393  23.550  14.903
49580W        W21895   7.176  13.848  14.085
49581W        W21896   8.819   6.438  12.713
49582W        W21897  17.801  33.842   3.640
49583W        W21898  26.960   8.569  12.947
49584W        W21899  17.144  37.504   0.520
49585W        W21900  17.052  14.594   0.946
49586W        W21901  33.056  13.146  14.831
49587W        W21902  39.038  21.829  12.377
49588W        W21903  32.391  29.436  10.710
49589W        W21904  38.861   9.765  12.974
49590W        W21905  12.442  35.591   4.046
49591W        W21906  11.840  21.582  14.385
49592W        W21907   7.705   0.203  10.741
49593W        W21908   5.424  35.556  12.895
49594W        W21909   2.306  26.485  11.018
49595W        W21910  10.326  24.600  11.998
49596W        W21911  10.735  26.705   0.307
49597W        W21912  39.603  34.136   0.886
49598W        W21913  27.930  17.587  10.139
49599W        W21914  31.760  37.691  12.041
49600W        W21915  16.947  12.202  13.859
49601W        W21916  43.535  36.436   2.607
49602W        W21917  10.134  24.240   1.577
49603W        W21918  22.612  26.996  13.564
49604W        W21919  34.352  31.922   1.235
49605W        W21920  16.792  21.497  10.485
49606W        W21921   4.534  41.056  12.851
49607W        W21922   7.165  17.594  14.430
49608W        W21923  33.639   8.763   4.720
49609W        W21924  18.580   0.409   2.741
49610W        W21925  38.096  19.526  14.935
49611W        W21926  13.004  38.366   1.121
49612W        W21927  39.553  30.952  12.036
49613W        W21928   1.440  28.897   1.407
49614W        W21929  24.611   3.171  14.425
49615W        W21930  21.208  11.821   5.056
49616W        W21931  10.236  44.034   1.257
49617W        W21932  16.643  38.822  13.831
49618W        W21933  43.508  36.884   0.268
49619W        W21934  27.453  28.502  11.992
49620W        W21935   2.994  26.481  12.219
49621W        W21936  28.567   2.247   1.846
49622W        W21937  32.330  24.722  12.509
49623W        W21938  36.098  22.216   1.679
49624W        W21939  28.703  16.572   3.035
49625W        W21940   3.021  18.588   1.160
49626W        W21941  20.954  21.039   1.822
49627W        W21942   1.839  35.957   0.914
49628W        W21943   5.609  40.841  14.842
49629W        W21944  14.697  38.736  13.373
49630W        W21945  13.634  33.125   2.610
49631W        W21946   8.342  37.783   1.692
49632W        W21947   0.234  38.437   2.811
49633W        W21948  11.640  18.206   5.078
49634W        W21949  11.877  32.916   4.161
49635W        W21950  34.050  33.017  11.980
49636W        W21951   5.725  17.610   2.531
49637W        W21952   3.030  30.134   3.696
49638W        W21953  38.756   0.522  13.665
49639W        W21954  41.488  43.849   4.260
49640W        W21955  37.863  37.669  10.510
49641W        W21956  26.154  10.698  13.967
49642W        W21957  15.507   1.413   0.688
49643W        W21958  36.068  31.450   5.071
49644W        W21959  34.008  18.277   2.339
49645W        W21960  38.065  30.572  14.283
49646W        W21961  28.355  42.413  12.792
49647W        W21962   4.163   6.735   4.626
49648W        W21963   7.698   1.768  11.055
49649W        W21964  32.826  13.218   1.181
49650W        W21965  20.435  31.894   1.923
49651W        W21966   7.692  43.892  11.552
49652W        W21967   8.634  24.831  14.765
49653W        W21968  36.203   6.368   5.141
49654W        W21969  20.597  16.800   3.408
49655W        W21970  34.139   6.317  14.787
49656W        W21971  22.012  43.929  12.973
49657W        W21972  17.262   7.098   5.284
49658W        W21973   3.326  19.447   0.685
49659W        W21974  31.933  23.795   0.342
49660W        W21975   4.742  26.173   2.250
49661W        W21976  25.939  15.326   2.807
49662W        W21977   6.842  23.712  13.497
49663W        W21978   5.211  21.965   1.837
49664W        W21979  24.178  11.586   4.144
49665W        W21980  10.932  10.767   0.380
49666W        W21981  17.164   4.026  11.995
49667W        W21982  12.195   9.788  13.595
49668W        W21983  39.605   7.657  11.997
49669W        W21984  41.979   8.317   2.179
49670W        W21985   2.842   8.424   0.135
49671W        W21986   6.496  34.630   2.289
49672W        W21987   4.991   7.673   1.834
49673W        W21988  39.005  20.590   3.755
49674W        W21989  10.326  10.737   2.400
49675W        W21990  16.291  13.124  10.775
49676W        W21991  17.935  19.172  10.821
49677W        W21992  12.680  13.728   0.261
49678W        W21993  42.930  13.478   1.936
49679W        W21994  34.263  40.714   4.328
49680W        W21995   4.877  32.278   3.609
49681W        W21996  36.941  41.316  11.173
49682W        W21997  44.187  26.069   4.249
49683W        W21998  12.541  28.003  11.746
49684W        W21999  38.466  13.288   2.183
49685W        W22000  39.536  13.992   4.390
49686W        W22001  39.471  28.403  11.511
49687W        W22002  40.811  12.340  11.008
49688W        W22003  35.332  24.086   2.645
49689W        W22004  18.410   2.461   4.157
49690W        W22005  14.181  26.526  12.056
49691W        W22006   0.886  38.084   1.571
49692W        W22007  34.431  34.152   0.784
49693W        W22008  36.519  16.679  14.369
49694W        W22009  32.134  14.531  13.916
49695W        W22010  21.110  28.651  13.307
49696W        W22011  20.575  32.265   5.025
49697W        W22012  10.362  28.817   2.285
49698W        W22013  30.850  36.738  14.905
49699W        W22014  29.029  38.611   3.769
49700W        W22015  35.873  39.043   1.911
49701W        W22016   9.517   6.167  12.259
49702W        W22017  18.831  28.959  13.352
49703W        W22018  14.562  22.862  13.966
49704W        W22019  32.613   1.502   1.464
49705W        W22020   3.242   6.412  12.584
49706W        W22021  16.778  28.476   0.774
49707W        W22022   0.400   3.878   3.671
49708W        W22023  21.031  29.520  13.174
49709W        W22024  27.427  28.216   2.671
49710W        W22025  16.071  34.538   3.938
49711W        W22026  24.268  10.997  14.338
49712W        W22027  35.951  25.515   4.726
49713W        W22028  17.534  17.192  12.944
49714W        W22029  21.108  26.536   3.841
49715W        W22030  17.640  12.350  13.046
49716W        W22031  40.020  27.645  11.240
49717W        W22032   4.796  24.455   1.981
49718W        W22033  35.830  32.823  11.646
49719W        W22034  16.671   7.541   0.135
49720W        W22035  26.647  32.014  13.529
49721W        W22036  43.922  19.583  14.337
49722W        W22037  34.642  42.609   3.090
49723W        W22038  26.550  22.109  12.000
49724W        W22039   6.231  13.636  14.286
49725W        W22040  42.317  19.493   3.730
49726W        W22041  27.511  15.534   4.596
49727W        W22042  27.520  33.514   0.807
49728W        W22043  19.653  16.139   2.688
49729W        W22044  35.907  38.113   1.402
49730W        W22045  25.942  39.971  11.686
49731W        W22046  43.987   7.445   3.342
49732W        W22047  17.520  38.421  11.104
49733W        W22048  40.650  21.151   5.104
49734W        W22049  41.287   8.171  12.031
49735W        W22050  21.066  17.793   2.722
49736W        W22051  41.295   6.182   4.071
49737W        W22052  32.035  40.990  14.935
49738W        W22053  24.767   6.293   1.341
49739W        W22054  26.833   5.013   0.779
49740W        W22055  34.456  23.992  11.195
49741W        W22056  40.851   3.923  11.241
49742W        W22057  20.688  10.789   0.120
49743W        W22058  17.329  32.630   1.920
49744W        W22059  11.119  32.929  14.973
49745W        W22060  23.306  19.889  10.220
49746W        W22061   5.179   6.625  13.427
49747W        W22062  35.155   3.057   0.704
49748W        W22063  30.416  25.592   0.272
49749W        W22064  22.049  15.593   3.704
49750W        W22065  29.596  29.045  12.402
49751W        W22066  18.432  34.589   2.126
49752W        W22067  44.248  34.617  10.588
49753W        W22068   3.467   2.970   4.964
49754W        W22069  15.539   2.946  10.683
49755W        W22070  31.978   5.218  11.175
49756W        W22071  14.657   3.435  13.537
49757W        W22072  28.553   7.666   2.249
49758W        W22073  19.293   0.938   2.643
49759W        W22074   6.483  33.612   1.205
49760W        W22075   2.355  38.368  10.725
49761W        W22076   6.376  28.887  10.703
49762W        W22077  31.513  13.837  14.268
49763W        W22078  43.917  13.067   3.741
49764W        W22079  15.725   5.188   0.750
49765W        W22080  14.460  25.760  11.465
49766W        W22081  17.783  11.747  14.075
49767W        W22082  24.032  32.274  13.969
49768W        W22083   7.390  28.259   2.269
49769W        W22084  10.435  36.425  12.116
49770W        W22085  41.841   1.039   0.311
49771W        W22086  32.151  43.231   3.351
49772W        W22087  30.564  21.625   3.262
49773W        W22088  31.845   9.157  11.261
49774W        W22089  22.707  26.239   1.175
49775W        W22090  36.032  11.616  11.196
49776W        W22091   5.217  37.619  13.361
49777W        W22092  21.132  25.977  11.687
49778W        W22093  13.859  35.428  14.123
49779W        W22094  21.408  16.119  11.534
49780W        W22095  29.722   6.881   2.033
49781W        W22096  39.775  20.674   3.319
49782W        W22097  31.758  11.359   4.131
49783W        W22098  13.693  30.737   2.717
49784W        W22099   2.178   0.523   3.781
49785W        W22100  27.887   3.493  10.988
49786W        W22101   4.307  30.396   1.042
49787W        W22102  36.482  18.979   0.388
49788W        W22103  10.946  24.688  12.894
49789W        W22104   3.356  16.325   3.596
49790W        W22105  29.997  38.970  13.589
49791W        W22106  25.700  21.087   5.002
49792W        W22107  19.727  36.097  14.903
49793W        W22108   6.154   5.926  14.844
49794W        W22109  11.132   1.126   1.286
49795W        W22110  20.167   9.437  10.494
49796W        W22111   9.216  16.010   3.241
49797W        W22112  39.358   6.795  14.747
49798W        W22113  17.115  35.488   0.906
49799W        W22114  31.422  33.571  14.317
49800W        W22115  13.651   1.364  10.977
49801W        W22116  18.098  19.261   2.654
49802W        W22117  33.879  36.926   3.195
49803W        W22118  43.167  29.606  11.165
49804W        W22119  14.832  39.950   2.071
49805W        W22120  30.351  22.575   0.772
49806W        W22121  42.440   1.368  11.113
49807W        W22122  11.619  12.867  14.344
49808W        W22123   6.702   6.384   3.663
49809W        W22124   3.809   3.007   0.910
49810W        W22125  41.925  38.840  12.014
49811W        W22126  38.304  20.515  14.018
49812W        W22127  21.501  42.794   4.637
49813W        W22128  15.531  37.608   4.033
49814W        W22129  20.558   8.168   2.749
49815W        W22130  37.967  18.201  11.545
49816W        W22131  37.851  39.055  10.717
49817W        W22132  15.776  11.674  13.857
49818W        W22133  40.481   8.390   1.268
49819W        W22134  41.891  18.630   1.181
49820W        W22135   6.101  40.059   1.271
49821W        W22136  30.073   1.867  10.956
49822W        W22137  40.353  42.680  10.030
49823W        W22138   9.212  20.148  12.542
49824W        W22139  39.344  11.505  11.536
49825W        W22140  11.770  43.471   0.359
49826W        W22141  33.852   4.491  13.569
49827W        W22142  19.491   2.869   2.700
49828W        W22143   7.180  17.781   2.000
49829W        W22144   4.338  14.917   3.258
49830W        W22145  10.155   3.993  11.058
49831W        W22146   4.168  33.698   2.834
49832W        W22147   3.996  33.103  14.314
49833W        W22148  22.023  40.723   0.440
49834W        W22149  40.599  17.389  10.700
49835W        W22150   1.065  12.725  11.078
49836W        W22151   8.239  16.892   3.090
49837W        W22152  40.103   1.396   1.256
49838W        W22153  41.622  24.146   0.591
49839W        W22154  38.571  16.082  12.518
49840W        W22155  37.389  30.609  12.946
49841W        W22156  19.141  31.538   1.801
49842W        W22157  32.919  39.181   0.070
49843W        W22158  33.616   6.845   1.343
49844W        W22159  44.854  38.858  12.101
49845W        W22160  28.469   7.850   4.097
49846W        W22161  26.048   2.367  11.416
49847W        W22162  29.534  28.192   0.449
49848W        W22163  26.234  41.881   1.784
49849W        W22164  18.244  37.321  11.467
49850W        W22165  35.811  30.410   2.826
49851W        W22166   3.438  21.146  10.102
49852W        W22167  30.045  37.786  12.532
49853W        W22168  32.064  10.816  14.769
49854W        W22169  44.092  28.043   0.290
49855W        W22170  28.435  20.170  14.346
49856W        W22171   1.676   4.967   4.145
49857W        W22172   3.856  23.918  11.494
49858W        W22173  23.136  42.333   3.629
49859W        W22174  37.588   9.712  10.835
49860W        W22175   7.856  11.487  12.881
49861W        W22176   6.711  34.288  11.638
49862W        W22177  11.311  23.280  13.759
49863W        W22178   5.526  44.337   1.399
49864W        W22179  27.215  20.366   2.334
49865W        W22180  13.734  30.438   4.153
49866W        W22181   5.192  37.385  11.405
49867W        W22182   8.250  36.847  11.884
49868W        W22183  44.420  25.163   2.227
49869W        W22184  18.462  21.255  14.480
49870W        W22185  16.430  39.832   0.340
49871W        W22186  13.125  39.042  11.977
49872W        W22187  21.656  44.212   4.666
49873W        W22188  34.483  12.948  12.916
49874W        W22189  38.423  27.593   1.901
49875W        W22190  34.941  19.063  13.266
49876W        W22191  23.944   1.449  13.045
49877W        W22192  19.693  35.459   2.213
49878W        W22193  20.515  13.153  13.036
49879W        W22194  16.219  43.031   1.255
49880W        W22195  40.526  16.282  12.357
49881W        W22196   3.247   3.194   3.141
49882W        W22197  18.166  36.543  12.869
49883W        W22198  33.087  26.214  12.057
49884W        W22199   0.520   7.888  14.524
49885W        W22200  19.462  19.692   0.017
49886W        W22201  39.017  30.470  10.751
49887W        W22202  31.551   1.781  12.369
49888W        W22203  31.535  31.654   3.050
49889W        W22204   1.797   4.930  13.444
49890W        W22205   1.336  43.422   3.422
49891W        W22206  32.506  19.002  14.692
49892W        W22207  34.163  25.005  13.396
49893W        W22208  16.501  26.807  12.119
49894W        W22209   9.591  20.883   4.124
49895W        W22210  44.028   7.962   3.287
49896W        W22211  22.559  44.776   3.928
49897W        W22212   0.374  43.728   0.301
49898W        W22213   1.822  16.330  14.066
49899W        W22214  13.153   3.801   3.636
49900W        W22215  16.552  25.461   1.738
49901W        W22216  21.077  24.234  10.631
49902W        W22217  19.771  12.643   0.447
49903W        W22218  18.280  12.714  10.588
49904W        W22219   7.259  24.287   1.260
49905W        W22220   1.405  24.536   4.560
49906W        W22221   3.980  19.965   4.991
49907W        W22222  24.215  23.555   3.020
49908W        W22223  13.185  38.792  10.069
49909W        W22224  41.362  22.164   0.465
49910W        W22225   8.510   2.863   2.232
49911W        W22226  24.965  25.638  11.895
49912W        W22227  14.571  43.946  12.994
49913W        W22228   7.523  29.337  12.802
49914W        W22229  11.104   0.227  13.919
49915W        W22230   8.826   3.521   3.202
49916W        W22231  32.323  41.282   4.752
49917W        W22232  20.119  13.835   1.351
49918W        W22233   6.408   5.464  14.874
49919W        W22234   7.179  21.675   3.965
49920W        W22235   5.970   5.475   2.220
49921W        W22236   5.499  27.704  10.786
49922W        W22237  21.765  35.877   0.840
49923W        W22238  24.197  44.882  13.313
49924W        W22239  34.997   3.740  11.199
49925W        W22240   3.687  22.602  11.115
49926W        W22241  25.689   1.292   4.353
49927W        W22242  11.932  12.876  11.638
49928W        W22243  35.631  18.774   0.342
49929W        W22244  25.691   2.610   4.520
49930W        W22245  14.659  16.257  13.861
49931W        W22246  43.242  37.968   1.152
49932W        W22247  22.203  38.841   3.827
49933W        W22248  36.928  44.461  14.221
49934W        W22249  18.335   0.408   0.897
49935W        W22250  26.959  34.135  11.856
49936W        W22251  32.636  14.697   0.913
49937W        W22252  23.806  22.717  10.523
49938W        W22253   5.609   8.045   0.280
49939W        W22254  28.527  12.890  11.518
49940W        W22255   0.761   4.396   3.100
49941W        W22256  26.519  38.081   4.021
49942W        W22257   8.301  29.673  14.963
49943W        W22258  41.816  21.957  14.086
49944W        W22259  19.122  29.928  12.616
49945W        W22260   7.175  35.597   4.236
49946W        W22261  37.299   7.118  11.164
49947W        W22262  13.691   6.144   4.244
49948W        W22263  39.543   9.168   3.216
49949W        W22264  43.395  27.109   1.432
49950W        W22265  34.853  22.383   2.417
49951W        W22266   4.702   1.439  10.736
49952W        W22267  43.928  11.334  13.355
49953W        W22268  43.758  31.808  14.381
49954W        W22269  30.509   3.742  10.696
49955W        W22270  12.162  15.085   2.801
49956W        W22271   0.831   2.763  14.579
49957W        W22272  36.574  43.902   4.680
49958W        W22273  23.016  23.922   1.837
49959W        W22274  15.151  18.185   0.039
49960W        W22275  40.613  30.194   0.310
49961W        W22276  12.169   4.157  12.513
49962W        W22277  28.051   2.709  14.388
49963W        W22278  31.021  38.225  12.516
49964W        W22279  31.969  42.948   2.698
49965W        W22280  30.123  13.345   0.659
49966W        W22281  35.837  41.712   1.299
49967W        W22282   1.560  40.362   2.108
49968W        W22283  38.074  13.597  11.060
49969W        W22284   0.351   6.199   1.965
49970W        W22285  21.449  44.555  10.213
49971W        W22286   4.268  16.545  10.551
49972W        W22287  20.062  14.549  11.483
49973W        W22288  39.862  10.939  10.394
49974W        W22289   6.458   6.777   1.372
49975W        W22290   2.420  15.763  13.308
49976W        W22291  34.857  41.587  11.286
49977W        W22292  40.083  17.735  14.903
49978W        W22293  21.015  12.223   2.354
49979W        W22294  30.293   0.644  14.343
49980W        W22295  37.752  33.885   2.333
49981W        W22296  42.298  30.664  10.269
49982W        W22297  27.844  21.132   2.378
49983W        W22298  18.123   4.234   3.125
49984W        W22299  26.638  33.182  10.967
49985W        W22300  18.331   8.843  14.985
49986W        W22301  39.261  11.196  11.132
49987W        W22302  31.947   4.316  14.909
49988W        W22303  11.836  17.778  14.693
49989W        W22304  42.066  14.235  14.682
49990W        W22305   8.383  39.070   1.751
49991W        W22306  20.212   0.306  10.914
49992W        W22307  10.990   7.622  12.407
49993W        W22308   6.008   2.292   3.941
49994W        W22309  26.004  43.312   4.347
49995W        W22310  12.836  13.248  12.954
49996W        W22311  33.390  38.855   1.375
49997W        W22312  17.038  41.762  12.451
49998W        W22313  33.836   8.264   0.224
49999W        W22314  39.508  38.087  11.487
50000W        W22315  42.553  17.024   2.240
50001W        W22316  24.998  42.020   2.593
50002W        W22317  15.898   0.792   4.697
50003W        W22318  14.300  26.660   1.319
50004W        W22319  29.572  31.088   2.446
50005W        W22320  41.008  18.213   3.163
50006W        W22321  33.104  33.913  10.685
50007W        W22322  27.235  41.460   4.354
50008W        W22323  29.513  25.089  13.737
50009W        W22324  38.067  39.344   3.623
50010W        W22325  37.053  24.149   9.639
50011W        W22326  44.384  38.871  14.465
50012W        W22327  22.237  16.235   0.415
50013W        W22328  27.517  27.406  12.635
50014W        W22329  30.417  25.539   4.073
50015W        W22330  38.412  28.143   0.692
50016W        W22331  40.710   7.912   2.638
50017W        W22332  43.319  43.103   3.285
50018W        W22333   2.560   3.723   1.218
50019W        W22334   0.839  27.600  11.435
50020W        W22335  31.513  31.066   1.134
50021W        W22336  32.014  16.637  12.773
50022W        W22337   9.073  38.743   3.656
50023W        W22338  41.315  21.426   4.146
50024W        W22339   9.390   8.292   1.809
50025W        W22340  31.896   6.487   2.339
50026W        W22341  40.321  38.321  11.653
50027W        W22342   8.879   7.059   4.123
50028W        W22343  33.594  17.209   0.029
50029W        W22344  15.245  30.179   2.774
50030W        W22345  30.596  33.558  12.466
50031W        W22346  17.461  19.139  11.685
50032W        W22347   7.266  29.315   2.159
50033W        W22348  11.374  12.990   0.306
50034W        W22349  16.361  35.284   1.409
50035W        W22350  14.205  13.216  13.524
50036W        W22351   4.807  13.878  12.575
50037W        W22352  16.508  12.111  10.675
50038W        W22353  18.061  11.319  13.957
50039W        W22354  16.763  42.356  14.647
50040W        W22355  29.740   8.833  14.963
50041W        W22356  23.745  28.652   0.561
50042W        W22357  37.905  43.587  11.057
50043W        W22358  25.532   8.169  10.672
50044W        W22359  31.082  10.607   2.262
50045W        W22360  22.561  17.059   3.987
50046W        W22361  34.870   3.650  11.697
50047W        W22362  24.103  35.237   0.318
50048W        W22363  14.521  34.013   1.338
50049W        W22364  12.743  16.867   2.654
50050W        W22365  36.504  20.002  10.412
50051W        W22366  38.729  35.280   4.308
50052W        W22367  33.653  39.129   0.423
50053W        W22368  42.828  40.942   2.097
50054W        W22369   1.510  38.342  14.466
50055W        W22370  38.193  32.007   4.829
50056W        W22371  41.752  16.529  10.539
50057W        W22372   0.705  30.734  14.887
50058W        W22373  20.855  36.958   2.338
50059W        W22374  13.756  16.005   0.166
50060W        W22375  39.340  29.681   2.379
50061W        W22376  36.089   0.960   4.071
50062W        W22377  16.752  14.121   0.294
50063W        W22378   8.442  32.056   2.361
50064W        W22379  20.207  10.117   5.184
50065W        W22380  40.779  35.863   3.409
50066W        W22381  20.732   5.409  11.684
50067W        W22382  18.059  11.143   5.007
50068W        W22383  23.803  28.992  11.973
50069W        W22384  20.560   7.169   3.718
50070W        W22385  13.794  13.021   1.846
50071W        W22386  38.020   1.261   3.736
50072W        W22387  23.735  25.821  13.658
50073W        W22388  18.104  41.832  11.558
50074W        W22389  33.034   7.913   1.876
50075W        W22390  23.968  38.520  14.703
50076W        W22391  33.047  17.587   3.182
50077W        W22392  27.424  35.203  13.070
50078W        W22393  41.656   2.999   1.410
50079W        W22394  41.760   0.683  11.576
50080W        W22395  39.298   0.846   2.789
50081W        W22396  22.993   6.962   0.944
50082W        W22397  35.928  37.871   0.019
50083W        W22398  31.326   1.599  14.472
50084W        W22399  13.129  43.389  14.332
50085W        W22400  37.521   9.676   1.428
50086W        W22401   8.323  13.685   0.317
50087W        W22402  10.812  29.164  12.340
50088W        W22403  36.552  33.399  12.374
50089W        W22404  27.703  32.394   4.604
50090W        W22405   5.388  10.214  13.781
50091W        W22406  44.535  34.876  11.588
50092W        W22407   0.900  43.828   1.945
50093W        W22408  31.946   0.962   2.657
50094W        W22409  40.177  35.869  13.345
50095W        W22410  33.967  35.591   1.403
50096W        W22411   3.757  24.669   1.812
50097W        W22412  12.815  13.830   1.991
50098W        W22413  26.534  18.867  10.898
50099W        W22414  43.406  38.508  12.063
50100W        W22415  24.067  37.349   2.222
50101W        W22416  37.451   4.847   5.016
50102W        W22417  25.303  41.578  13.008
50103W        W22418  20.555  36.939  11.536
50104W        W22419  11.219   5.241  11.589
50105W        W22420  40.336  36.362  11.514
50106W        W22421  23.463   8.662  12.501
50107W        W22422  16.656  38.228   9.753
50108W        W22423   6.574  39.811   0.026
50109W        W22424  11.718  16.867  11.491
50110W        W22425  34.509  40.622  12.949
50111W        W22426  14.835  33.006  14.849
50112W        W22427  40.243   3.272   0.260
50113W        W22428   7.222   0.199  12.049
50114W        W22429  19.153  10.402   3.546
50115W        W22430  44.314  16.880   4.687
50116W        W22431  24.104   5.858  10.895
50117W        W22432  26.976  39.920   4.725
50118W        W22433  19.535   2.249   4.670
50119W        W22434  21.682   6.598  11.018
50120W        W22435   0.701  40.573   3.351
50121W        W22436  44.835  17.209  14.458
50122W        W22437  43.329   9.323  12.928
50123W        W22438  25.287   6.898   0.072
50124W        W22439   0.300  22.793   0.382
50125W        W22440   1.497  10.563  14.831
50126W        W22441  11.137  43.464   1.255
50127W        W22442  25.203  33.199  14.434
50128W        W22443  11.121  15.204  12.424
50129W        W22444   3.074  22.589   4.817
50130W        W22445  26.525  36.996   4.255
50131W        W22446  14.435  36.963  11.035
50132W        W22447   3.508  23.063  14.501
50133W        W22448  30.021  29.199  13.457
50134W        W22449   5.361  34.584   4.608
50135W        W22450  29.435  25.640   3.023
50136W        W22451  36.900  44.448  13.702
50137W        W22452   6.944  15.088   0.815
50138W        W22453  31.618  44.589   1.416
50139W        W22454  23.211  12.913  14.948
50140W        W22455  28.078   4.804  13.328
50141W        W22456  14.246  28.032   2.753
50142W        W22457   6.158  37.614  14.814
50143W        W22458  14.326  20.503   1.353
50144W        W22459  37.657  25.046   1.932
50145W        W22460   9.178  39.020   2.299
50146W        W22461  17.730  28.174  14.581
50147W        W22462  32.968  11.048  14.800
50148W        W22463  38.140  26.163  14.954
50149W        W22464  16.696   2.900  13.213
50150W        W22465  15.234   9.316   2.681
50151W        W22466  25.785   8.623  13.377
50152W        W22467  17.129  27.946   5.518
50153W        W22468  42.280  44.191   1.869
50154W        W22469  18.827   3.358  12.624
50155W        W22470  26.970  22.133   2.714
50156W        W22471  32.130  31.616  11.114
50157W        W22472   2.433  32.733   4.087
50158W        W22473   1.445  16.172   3.877
50159W        W22474  43.777  18.666   1.956
50160W        W22475  10.334  16.586   3.655
50161W        W22476  35.352  16.257   3.827
50162W        W22477  28.038  10.178   4.624
50163W        W22478  14.080   8.965   3.285
50164W        W22479  34.549  42.094   0.102
50165W        W22480  20.572  26.500   3.104
50166W        W22481  28.151  33.029  12.839
50167W        W22482   2.901  22.693   3.074
50168W        W22483  10.837  32.526  10.633
50169W        W22484  21.201  40.437  12.617
50170W        W22485  36.974   3.415  10.444
50171W        W22486   5.789  29.834   3.680
50172W        W22487  27.965   1.220   2.161
50173W        W22488  26.258  21.242   1.174
50174W        W22489  16.682  13.228   2.909
50175W        W22490  19.229  41.764   1.284
50176W        W22491   4.729  28.449  11.529
50177W        W22492  24.648  32.095   3.479
50178W        W22493   6.384  35.132   4.213
50179W        W22494  39.017  19.764  14.052
50180W        W22495  28.967  25.727   0.600
50181W        W22496  19.316  18.691  12.829
50182W        W22497  36.579  13.295  13.980
50183W        W22498   3.777  22.957  10.740
50184W        W22499   7.751  30.881   0.666
50185W        W22500  11.816   2.936  13.108
50186W        W22501  17.707  21.135   1.667
50187W        W22502  31.078   2.899  14.892
50188W        W22503   9.518  19.256  10.880
50189W        W22504  31.558  12.533  10.715
50190W        W22505  24.674   2.262   2.361
50191W        W22506  31.317  44.392  13.152
50192W        W22507   2.677   4.433  13.503
50193W        W22508  43.235  40.076   3.442
50194W        W22509  13.052   1.244  14.739
50195W        W22510   3.948  35.494   0.438
50196W        W22511   7.668  14.754   2.357
50197W        W22512  17.202  14.388   1.410
50198W        W22513  41.646  20.117   4.813
50199W        W22514  10.099   0.262   2.925
50200W        W22515  44.346  22.524  10.440
50201W        W22516  18.610  44.796   2.294
50202W        W22517  43.926   4.225  12.156
50203W        W22518  27.727  35.158   0.995
50204W        W22519   2.295  28.216  13.491
50205W        W22520  37.497  21.018  12.619
50206W        W22521  43.968  30.569  12.058
50207W        W22522  29.190  24.146   4.254
50208W        W22523  36.368  22.016  13.345
50209W        W22524  43.476  32.458   0.889
50210W        W22525  11.838  12.779   2.296
50211W        W22526  28.725  17.635   0.269
50212W        W22527  39.047  35.290  11.450
50213W        W22528  18.498  33.389   0.260
50214W        W22529  12.210  32.398   4.713
50215W        W22530  19.292  19.533  13.979
50216W        W22531  21.765  31.164   4.240
50217W        W22532  40.081  20.799   2.290
50218W        W22533  31.339   4.640   2.341
50219W        W22534  34.463  34.694   2.379
50220W        W22535  35.008   8.400   1.908
50221W        W22536  17.764  19.318   4.283
50222W        W22537   7.860  25.121  13.423
50223W        W22538  35.877  15.563   4.342
50224W        W22539  25.435   5.185   1.698
50225W        W22540  24.002   8.674   1.844
50226W        W22541  18.271  15.261   1.751
50227W        W22542  37.857   1.877   3.168
50228W        W22543   9.850   0.291  14.576
50229W        W22544  12.863   7.924   0.479
50230W        W22545  42.367  16.163  12.048
50231W        W22546  23.682  24.567   4.066
50232W        W22547  10.163  13.823   3.173
50233W        W22548  12.307   7.652   1.344
50234W        W22549   6.923   7.216   0.847
50235W        W22550  16.649  34.088  10.680
50236W        W22551  42.105  20.167   2.669
50237W        W22552  10.583  22.203  14.421
50238W        W22553   5.763  35.480   3.660
50239W        W22554  26.024  24.312  13.472
50240W        W22555  17.234  19.857   4.629
50241W        W22556  41.539  12.399   1.482
50242W        W22557  22.293  24.030  13.474
50243W        W22558  41.912  44.599  14.907
50244W        W22559  43.674  11.954   9.828
50245W        W22560  42.508  20.483   2.651
50246W        W22561  13.759  26.762   2.873
50247W        W22562  21.958   0.324  11.140
50248W        W22563  27.498  33.505  10.647
50249W        W22564  28.046  23.592   3.041
50250W        W22565  15.603   3.369   2.338
50251W        W22566  31.659   7.242   0.422
50252W        W22567  35.024  38.033   0.818
50253W        W22568  18.349   8.766   5.030
50254W        W22569  43.914  41.765   0.745
50255W        W22570  32.526   6.252  10.583
50256W        W22571  44.204  28.556  13.536
50257W        W22572  34.027  26.184  10.436
50258W        W22573  20.018   4.339   2.204
50259W        W22574   3.075   5.875   4.676
50260W        W22575  35.322  41.583   1.250
50261W        W22576   9.916  20.589  10.600
50262W        W22577   0.879  19.370  11.126
50263W        W22578  17.997   2.857  11.556
50264W        W22579  39.893  25.462   3.378
50265W        W22580   5.430  11.390  11.689
50266W        W22581  44.917  18.317   1.867
50267W        W22582   1.022  11.638  10.270
50268W        W22583  26.765  11.121   0.258
50269W        W22584  24.972  24.740   4.221
50270W        W22585  35.506  21.160  11.225
50271W        W22586  10.738  21.096   3.200
50272W        W22587  34.850   6.712  12.146
50273W        W22588  10.110  44.878  14.813
50274W        W22589   2.663  14.849   0.000
50275W        W22590  12.270  21.744   0.255
50276W        W22591  42.265  30.601   0.755
50277W        W22592  16.828  12.778   3.623
50278W        W22593  37.175  33.072  14.427
50279W        W22594  25.041  27.447   1.132
50280W        W22595  41.880  41.034  10.726
50281W        W22596   3.696   1.888   3.583
50282W        W22597  17.439  31.609  12.472
50283W        W22598  28.001  28.167  12.039
50284W        W22599  24.047  39.508  11.576
50285W        W22600  41.035  12.209   4.214
50286W        W22601  13.482  29.457   3.312
50287W        W22602  42.511  28.554  11.693
50288W        W22603  21.946  13.437  11.130
50289W        W22604  27.110  39.802  14.173
50290W        W22605  14.762  22.667  13.539
50291W        W22606   9.128  21.065  11.572
50292W        W22607  36.843   7.346  11.232
50293W        W22608  19.027   0.687  13.971
50294W        W22609   7.446  27.637   4.475
50295W        W22610  44.052  20.122   4.435
50296W        W22611  11.665   0.914   3.873
50297W        W22612  17.294  32.918   0.840
50298W        W22613  31.604  17.283  12.431
50299W        W22614   1.819   0.100  14.901
50300W        W22615   4.286   3.906   4.653
50301W        W22616  30.183  34.736   0.928
50302W        W22617  21.589  20.117   9.746
50303W        W22618  38.906  29.970  14.373
50304W        W22619  16.790  44.964  13.764
50305W        W22620  18.532  13.766   2.184
50306W        W22621  29.169   1.769  12.010
50307W        W22622  17.930  35.863   0.278
50308W        W22623  21.644   5.508   2.888
50309W        W22624  17.767  37.025  13.426
50310W        W22625  39.809  31.374  11.934
50311W        W22626   0.965  32.438  10.976
50312W        W22627  36.380  38.595   3.274
50313W        W22628   3.189  44.520   1.367
50314W        W22629  25.896   1.929  13.452
50315W        W22630  13.785  41.481   0.989
50316W        W22631  20.616  44.301   4.471
50317W        W22632  38.396  11.100   4.253
50318W        W22633  29.540   3.832  11.512
50319W        W22634  25.180   0.195  13.949
50320W        W22635  35.239   4.416  12.623
50321W        W22636  14.153  28.704   2.839
50322W        W22637   2.488   5.090   3.685
50323W        W22638  20.927  14.379  12.479
50324W        W22639  28.955   3.602  14.941
50325W        W22640  38.172  24.131  13.265
50326W        W22641  42.502  17.482  12.071
50327W        W22642  33.700  15.217   1.509
50328W        W22643  26.118   0.910   3.172
50329W        W22644  18.207  13.047   4.576
50330W        W22645  23.626  11.209   2.605
50331W        W22646  32.659  15.394  10.963
50332W        W22647  25.154  38.921  10.682
50333W        W22648  30.185   7.648  12.000
50334W        W22649  14.662   8.123   2.767
50335W        W22650  15.245  39.534  12.473
50336W        W22651  35.018  18.056  10.876
50337W        W22652   4.160  15.397   4.147
50338W        W22653  25.830   3.869  11.018
50339W        W22654  17.755  32.643   4.048
50340W        W22655  15.601  40.539  11.951
50341W        W22656  12.392  24.750   2.310
50342W        W22657  41.941  17.160   4.531
50343W        W22658   9.343   5.711   1.927
50344W        W22659   9.360  22.705   0.019
50345W        W22660   5.794  16.345   0.393
50346W        W22661  10.183   0.800   2.312
50347W        W22662   2.703   7.672  14.620
50348W        W22663  39.829  10.473   0.175
50349W        W22664  38.853  29.870   2.933
50350W        W22665   5.032  13.734  14.926
50351W        W22666   9.932  17.533   4.483
50352W        W22667  24.566   7.792   3.824
50353W        W22668  17.357  32.634  13.978
50354W        W22669  19.924  35.870   3.538
50355W        W22670  21.221  41.886   0.883
50356W        W22671   8.373  16.738  12.515
50357W        W22672  32.891  28.694   2.784
50358W        W22673  38.548  41.847  11.400
50359W        W22674  31.419  40.365   4.198
50360W        W22675   9.638  13.036  12.478
50361W        W22676  36.596  25.036  14.693
50362W        W22677  40.597  24.229  11.486
50363W        W22678  33.167  36.410   0.747
50364W        W22679  13.648  33.774   0.760
50365W        W22680  44.320  14.331  12.909
50366W        W22681  35.498  43.778  11.267
50367W        W22682  17.137  39.791  11.492
50368W        W22683  31.065  38.059   1.819
50369W        W22684   1.732  31.407   0.313
50370W        W22685   3.940  44.933  12.605
50371W        W22686  31.528  18.682  13.379
50372W        W22687  42.358  15.703  11.820
50373W        W22688  33.892  25.737  11.032
50374W        W22689  13.359  10.046  10.245
50375W        W22690  14.935  36.844  13.021
50376W        W22691  23.035  15.368  13.551
50377W        W22692  12.990  24.002  13.034
50378W        W22693  17.317  42.470   0.486
50379W        W22694  32.646  34.847  14.724
50380W        W22695  44.773  25.254  13.762
50381W        W22696  35.021   3.227   1.444
50382W        W22697  15.205  14.831  13.339
50383W        W22698  40.827  38.621   3.917
50384W        W22699  22.712  40.069   1.402
50385W        W22700  34.381  12.191  13.515
50386W        W22701   6.824  23.563   4.299
50387W        W22702  12.135  36.900  10.608
50388W        W22703  37.367  19.326   2.103
50389W        W22704  41.925  41.393  14.071
50390W        W22705  22.126  20.040  12.491
50391W        W22706  34.495  14.251   2.710
50392W        W22707  26.029  32.577  12.371
50393W        W22708  30.922  20.802  13.537
50394W        W22709  24.077  34.624   2.560
50395W        W22710  38.470  17.620  10.946
50396W        W22711  40.708  15.641  10.396
50397W        W22712  28.867  15.376   2.671
50398W        W22713  29.634  16.366   3.211
50399W        W22714  10.747  27.131   2.826
50400W        W22715  25.454   7.621   1.351
50401W        W22716  43.211  17.109   1.818
50402W        W22717   9.214  24.224   3.883
50403W        W22718   0.731   7.360   1.631
50404W        W22719   7.300  29.962   3.355
50405W        W22720   1.756  44.760   3.098
50406W        W22721  24.200   8.713  13.501
50407W        W22722  27.031  17.271  11.171
50408W        W22723  34.645  36.222   3.231
50409W        W22724   9.622  30.488  10.128
50410W        W22725  34.300  35.889   1.646
50411W        W22726   8.207   8.318   1.255
50412W        W22727  36.300  26.940  12.475
50413W        W22728  14.715  18.476  13.087
50414W        W22729   0.942  40.012  12.819
50415W        W22730   2.507  11.641  13.363
50416W        W22731  29.265  44.810  14.554
50417W        W22732  35.343  25.173  12.031
50418W        W22733  10.057   6.308   4.020
50419W        W22734  32.557   8.283  10.646
50420W        W22735  33.653  33.031   3.346
50421W        W22736  37.570  22.613  14.858
50422W        W22737  40.550   8.660  14.961
50423W        W22738  13.843   3.917  13.330
50424W        W22739  31.809  10.276  13.464
50425W        W22740  36.874  10.225  12.033
50426W        W22741  44.507  30.221  12.565
50427W        W22742  37.538   2.548  11.957
50428W        W22743  19.242  43.773  12.442
50429W        W22744   9.858  12.253  13.159
50430W        W22745  13.001  18.286  11.555
50431W        W22746  36.970  20.004   3.648
50432W        W22747  33.908  35.484  12.550
50433W        W22748  25.358   2.193   4.685
50434W        W22749  25.092  15.026  13.944
50435W        W22750  34.899   9.418   3.688
50436W        W22751  43.555  24.017  14.926
50437W        W22752  30.857  13.695   0.816
50438W        W22753  14.504  43.886   3.336
50439W        W22754  30.008  31.483  14.720
50440W        W22755  16.863  33.192   4.794
50441W        W22756  29.081  44.433   3.514
50442W        W22757  28.218  19.992  11.114
50443W        W22758  16.789  10.903  12.952
50444W        W22759   0.600  12.231   5.573
50445W        W22760  11.605  20.098   3.198
50446W        W22761  35.393  31.355  12.438
50447W        W22762  29.437  37.405  10.077
50448W        W22763  15.988  39.848  10.144
50449W        W22764  10.780  23.176   4.510
50450W        W22765  27.017  26.946   0.388
50451W        W22766  20.784   1.242  12.986
50452W        W22767  33.168   9.435  12.979
50453W        W22768  21.114  30.570  14.046
50454W        W22769  43.939   7.254  14.025
50455W        W22770  40.340  16.060   4.521
50456W        W22771  10.364  34.562  10.428
50457W        W22772  11.358  32.389   2.834
50458W        W22773  28.213  43.980   0.917
50459W        W22774  37.919  18.871  12.819
50460W        W22775   0.007  33.757   3.656
50461W        W22776   4.781  16.999   0.006
50462W        W22777  31.078  19.529  12.560
50463W        W22778  30.483   2.010   1.274
50464W        W22779  42.379   0.055  13.361
50465W        W22780   2.235   2.415   4.483
50466W        W22781  18.911  20.280  14.588
50467W        W22782  33.975  19.148   1.068
50468W        W22783  17.507   9.033  14.080
50469W        W22784   9.840  25.168   2.097
50470W        W22785   6.390  20.831   0.291
50471W        W22786  33.327  38.868   2.315
50472W        W22787  21.136   6.818   1.130
50473W        W22788  21.628  16.160  11.005
50474W        W22789  11.510  39.963   3.555
50475W        W22790  12.855   0.263   0.012
50476W        W22791  38.920  27.679   0.632
50477W        W22792  20.661  17.604   1.829
50478W        W22793  35.939   9.444   4.623
50479W        W22794   8.125  16.605  14.338
50480W        W22795   0.844   7.853   1.778
50481W        W22796  19.763  27.820   4.255
50482W        W22797  16.436  20.660   4.439
50483W        W22798  34.820   6.257  12.453
50484W        W22799   2.264  14.473   2.710
50485W        W22800  10.606   0.458  14.123
50486W        W22801  11.765  33.407   0.443
50487W        W22802  34.010   4.263  12.866
50488W        W22803  43.547  33.625   2.814
50489W        W22804   1.523   8.981  13.995
50490W        W22805  30.911   4.327   2.357
50491W        W22806  31.242  12.403   4.540
50492W        W22807  23.142  15.647  12.606
50493W        W22808   9.961   4.748  14.488
50494W        W22809  11.227  40.004  14.948
50495W        W22810  21.409  21.154  12.031
50496W        W22811  41.670  29.896   2.220
50497W        W22812  40.939  18.904  14.736
50498W        W22813  29.032   2.157  11.619
50499W        W22814  33.850  27.963   2.222
50500W        W22815  31.239  33.565   0.288
50501W        W22816   7.801  11.876   2.278
50502W        W22817  35.154  11.623   1.266
50503W        W22818  15.321  35.050   3.250
50504W        W22819  17.905  12.181   2.343
50505W        W22820  22.140  38.956   1.340
50506W        W22821  34.868  42.517   4.265
50507W        W22822   7.772  43.727   3.593
50508W        W22823  24.405  16.362  13.862
50509W        W22824  44.240  42.501   2.934
50510W        W22825  32.105  29.541  11.144
50511W        W22826  20.673  25.243  11.948
50512W        W22827  13.512  31.802  13.946
50513W        W22828  18.913  40.389  10.675
50514W        W22829  10.809  29.371  13.326
50515W        W22830  44.462  26.732  14.500
50516W        W22831  19.587   0.145  12.072
50517W        W22832  15.828  12.687  10.662
50518W        W22833   2.983  42.518  13.413
50519W        W22834  29.897  30.693   3.186
50520W        W22835  21.573  14.761  11.392
50521W        W22836   8.294  22.725   3.821
50522W        W22837   6.764  33.906  12.601
50523W        W22838   0.089   3.484  14.508
50524W        W22839  37.510   6.177   2.719
50525W        W22840  35.948  24.935   4.739
50526W        W22841  11.066  26.186  11.150
50527W        W22842  14.029  15.154  11.524
50528W        W22843  37.665  38.080   4.540
50529W        W22844   1.623  22.753  13.828
50530W        W22845  33.965   7.957  11.925
50531W        W22846  25.557  42.352  13.550
50532W        W22847  44.957  20.312   1.245
50533W        W22848  22.996  19.110   4.295
50534W        W22849  20.891  17.180  12.601
50535W        W22850  31.973  27.342  14.763
50536W        W22851   4.879   2.421  11.650
50537W        W22852  34.623   7.245   2.298
50538W        W22853   3.233  38.819   4.944
50539W        W22854   9.818  30.566   0.896
50540W        W22855   9.847  33.600  10.962
50541W        W22856  30.948   0.759   2.385
50542W        W22857  40.979  15.676   5.015
50543W        W22858  39.381   3.406  10.402
50544W        W22859  42.291  31.420   3.784
50545W        W22860  38.624  20.553  14.443
50546W        W22861  10.367  18.515  11.142
50547W        W22862  22.583  40.908  13.343
50548W        W22863  44.627   8.772   1.819
50549W        W22864  16.215  16.436   2.372
50550W        W22865  25.178  33.127  11.990
50551W        W22866  25.875  41.924   4.305
50552W        W22867  29.102   9.545  10.402
50553W        W22868  22.658  43.075   2.662
50554W        W22869   8.742  22.614  11.895
50555W        W22870  18.857  28.288  14.869
50556W        W22871  32.146  14.110  12.636
50557W        W22872  41.089  27.599  13.007
50558W        W22873  29.897   3.560   3.982
50559W        W22874  33.401  10.269  12.015
50560W        W22875  32.054  27.220  10.887
50561W        W22876   4.797  15.445  14.261
50562W        W22877   1.359  29.068  11.984
50563W        W22878  11.307  42.314  13.287
50564W        W22879   4.697   0.287  13.863
50565W        W22880   3.435  12.288   0.837
50566W        W22881   4.783   4.776   1.896
50567W        W22882  35.290  41.069   2.387
50568W        W22883  16.713   4.327  13.471
50569W        W22884  38.117  31.507   4.637
50570W        W22885  41.066  17.708  14.509
50571W        W22886  44.870  39.838   4.223
50572W        W22887   9.820  30.462   2.439
50573W        W22888  20.092  23.810  11.436
50574W        W22889  33.905   4.698   4.898
50575W        W22890   4.441  40.944  11.524
50576W        W22891  34.556  33.351  12.499
50577W        W22892   5.665  14.669   1.063
50578W        W22893  29.537  24.615  14.533
50579W        W22894  25.290  14.227   4.623
50580W        W22895  18.573  20.266  14.969
50581W        W22896   5.220   0.335  12.088
50582W        W22897  19.375   0.486   3.796
50583W        W22898  16.760   9.792  11.079
50584W        W22899  41.871  22.681  12.950
50585W        W22900   4.311  37.368  11.487
50586W        W22901   9.637  31.400   3.249
50587W        W22902  43.267  41.550   3.167
50588W        W22903  40.453   0.568   1.783
50589W        W22904  41.783  39.954   2.146
50590W        W22905  22.587  27.650  12.864
50591W        W22906  32.921  11.884  11.144
50592W        W22907  34.172  17.568  11.990
50593W        W22908  33.803  38.324   3.776
50594W        W22909  34.950  17.504  11.711
50595W        W22910  37.152  30.537   3.156
50596W        W22911  42.439   7.926   0.137
50597W        W22912  42.242  29.231   3.345
50598W        W22913  28.673  21.724  13.589
50599W        W22914  14.079  19.139   2.629
50600W        W22915   8.286  13.693  12.077
50601W        W22916  31.348  44.940  12.145
50602W        W22917  30.359  27.170   0.706
50603W        W22918  27.654  23.200   1.391
50604W        W22919  35.529  19.178   3.701
50605W        W22920  11.395   7.331   3.063
50606W        W22921  33.967  25.557   0.720
50607W        W22922  21.408  15.594   2.634
50608W        W22923  15.710  22.242  10.513
50609W        W22924  29.525   0.430   0.192
50610W        W22925  33.478  41.288   3.958
50611W        W22926  44.955  34.039  10.313
50612W        W22927  17.171  42.811   3.787
50613W        W22928  29.439  10.796   2.956
50614W        W22929   1.839  34.454  13.326
50615W        W22930  39.858  25.564  14.716
50616W        W22931  31.682  37.185  11.146
50617W        W22932  22.733   3.897   0.934
50618W        W22933   1.193  25.923   4.530
50619W        W22934   9.884  34.920  12.825
50620W        W22935   5.391  12.079   1.306
50621W        W22936   4.438  40.548  12.829
50622W        W22937   2.548  20.068  14.899
50623W        W22938  35.962   1.915  12.770
50624W        W22939  18.376  10.631  14.477
50625W        W22940   7.962  19.579   4.622
50626W        W22941  43.473  18.217   2.735
50627W        W22942  35.365   4.998  11.467
50628W        W22943  38.016  31.630  13.321
50629W        W22944  38.996  36.149  13.799
50630W        W22945   3.024  17.078   0.173
50631W        W22946  43.553  40.716  13.960
50632W        W22947  12.696  42.123   4.022
50633W        W22948  43.917  33.520  12.120
50634W        W22949  34.390   6.703  13.195
50635W        W22950  18.883   9.174   2.159
50636W        W22951  22.049  22.003  10.654
50637W        W22952  25.811  38.424  10.589
50638W        W22953   2.697  42.054  11.135
50639W        W22954   1.352   4.980  12.119
50640W        W22955  16.818  40.039   3.385
50641W        W22956  37.603  25.373  11.528
50642W        W22957  42.527  33.623   3.683
50643W        W22958  24.201  32.198   4.618
50644W        W22959  40.382   9.421   2.053
50645W        W22960  42.290  36.793  13.119
50646W        W22961  23.729   5.932   1.421
50647W        W22962  13.314  25.521  13.900
50648W        W22963  36.329  32.100   2.192
50649W        W22964  10.462   7.359  11.514
50650W        W22965   4.908   6.484   0.635
50651W        W22966  15.576  26.311  10.604
50652W        W22967  41.351   0.710  12.102
50653W        W22968  31.246  12.134  11.669
50654W        W22969  16.064  13.259  13.137
50655W        W22970  11.565   1.389   1.434
50656W        W22971  38.535  18.763  14.778
50657W        W22972  30.073  36.836   4.256
50658W        W22973  24.944  26.381  14.348
50659W        W22974  18.713  11.745  10.287
50660W        W22975  20.925  20.293  11.101
50661W        W22976  25.188  26.203  11.133
50662W        W22977   2.011  20.735   0.093
50663W        W22978   9.606   4.465   0.809
50664W        W22979  13.715  10.524   0.736
50665W        W22980  14.035  11.829   4.210
50666W        W22981  37.424  20.140   3.866
50667W        W22982   2.521  35.841  12.871
50668W        W22983  15.675   1.943   3.277
50669W        W22984  41.656   7.352   3.725
50670W        W22985  34.337  23.015  14.566
50671W        W22986   4.934  14.803   2.320
50672W        W22987  14.236  34.136   4.506
50673W        W22988  24.632   5.845  12.842
50674W        W22989   5.272   3.790  12.060
50675W        W22990  36.642  25.986   1.481
50676W        W22991  25.440   7.194   0.778
50677W        W22992   4.936  17.584  12.864
50678W        W22993  41.503   7.867   0.171
50679W        W22994  29.565   4.771   2.903
50680W        W22995  34.142  27.549   2.349
50681W        W22996  31.096   9.354   2.888
50682W        W22997  16.201  29.511   4.415
50683W        W22998   9.293  23.072  10.592
50684W        W22999  40.020  15.272  13.342
50685W        W23000   2.288  34.041   0.540
50686W        W23001   3.786  38.451  11.080
50687W        W23002  24.598   4.470  10.945
50688W        W23003  10.779  34.963  12.351
50689W        W23004  21.025   4.364   2.610
50690W        W23005  23.536  39.519   1.428
50691W        W23006  44.383  31.429   0.904
50692W        W23007  33.471  32.714   4.246
50693W        W23008  23.520  26.565   2.185
50694W        W23009  18.807  37.619  14.874
50695W        W23010  35.645  17.138  12.464
50696W        W23011  29.943  21.653   1.836
50697W        W23012  28.588  26.561  13.075
50698W        W23013   3.085   8.704  12.165
50699W        W23014  32.995  28.256   1.857
50700W        W23015  31.144  20.852  11.951
50701W        W23016  19.975  19.153  10.683
50702W        W23017  18.166  33.566   4.547
50703W        W23018  31.980  36.634  14.939
50704W        W23019  21.969  44.079   2.929
50705W        W23020  26.222  13.129  13.831
50706W        W23021  44.905  27.482  13.483
50707W        W23022   6.685   2.593   2.781
50708W        W23023  40.353  26.621   4.946
50709W        W23024  11.069  14.510   2.325
50710W        W23025  15.522  19.117   2.572
50711W        W23026  42.043  15.638  10.803
50712W        W23027  28.903  39.306   1.532
50713W        W23028  20.761  21.620  13.503
50714W        W23029  34.937  10.080  10.659
50715W        W23030  35.401  29.986  12.473
50716W        W23031  32.104  23.276  14.251
50717W        W23032  24.911  13.184   0.052
50718W        W23033  41.038  24.569  14.730
50719W        W23034  12.852  30.942   0.493
50720W        W23035  17.144  18.854   4.579
50721W        W23036  40.621  11.840  12.086
50722W        W23037  27.033   4.038   0.640
50723W        W23038  32.538  34.281  12.465
50724W        W23039  29.582  15.384   3.177
50725W        W23040  38.877  32.684  14.427
50726W        W23041   7.950  19.100   1.105
50727W        W23042  16.335  27.765  14.695
50728W        W23043   5.898  18.094  11.658
50729W        W23044   1.012  19.274   3.255
50730W        W23045   4.421   2.948   3.627
50731W        W23046  20.931  21.826  10.137
50732W        W23047  31.055  41.000  14.367
50733W        W23048  21.602  43.806  14.260
50734W        W23049  44.490  41.994  14.853
50735W        W23050  12.513  11.541   0.779
50736W        W23051  27.910  17.865   2.784
50737W        W23052  31.678  26.234  12.032
50738W        W23053  11.342  42.889   1.880
50739W        W23054  26.099  23.319  10.557
50740W        W23055  18.531  12.819   1.020
50741W        W23056  25.506  16.873   0.375
50742W        W23057  33.021   4.977   0.253
50743W        W23058   2.683   1.253   0.228
50744W        W23059  13.240  23.564   0.402
50745W        W23060  23.574  26.112  14.563
50746W        W23061  23.030  25.155  10.395
50747W        W23062  39.493  21.394  11.746
50748W        W23063  35.109   1.047   5.241
50749W        W23064   8.674   9.913  10.950
50750W        W23065  38.323  25.785   3.863
50751W        W23066  19.715   9.161   4.516
50752W        W23067  32.046   5.058   0.508
50753W        W23068   7.253  41.615   4.230
50754W        W23069   8.849  35.418  13.631
50755W        W23070  24.996  43.269   1.208
50756W        W23071  33.208  38.382  14.898
50757W        W23072   5.194  30.784   3.250
50758W        W23073  37.924   6.918   2.414
50759W        W23074  40.001   2.753   2.223
50760W        W23075  29.418   2.885  13.338
50761W        W23076  34.075   7.128   1.278
50762W        W23077   8.256   0.530  11.993
50763W        W23078  41.962   2.515   1.472
50764W        W23079   0.479  40.527  14.523
50765W        W23080   6.897   5.950   3.863
50766W        W23081  19.270  41.347  10.575
50767W        W23082  26.010  41.355   0.285
50768W        W23083   4.349  35.572   4.849
50769W        W23084  17.042   8.179   1.060
50770W        W23085  16.714  11.384   2.360
50771W        W23086  42.986  33.665   1.891
50772W        W23087   1.281   4.147   1.481
50773W        W23088  29.205   9.411  12.933
50774W        W23089   3.397  28.663   4.409
50775W        W23090  33.897  30.876   1.778
50776W        W23091  35.518  16.133   0.788
50777W        W23092   7.452   6.372   1.749
50778W        W23093  32.211   4.599  13.792
50779W        W23094  20.473  19.381   3.807
50780W        W23095  13.725  38.022  10.596
50781W        W23096  43.338   7.372   0.752
50782W        W23097   1.519  19.114   3.268
50783W        W23098  36.052   6.123  11.145
50784W        W23099  12.045  43.981  10.387
50785W        W23100  40.340  21.521   2.831
50786W        W23101   7.699  37.408  12.011
50787W        W23102  36.832  30.682  14.855
50788W        W23103  43.385  10.224   9.804
50789W        W23104  11.185  17.292   3.229
50790W        W23105   4.327   5.608  11.958
50791W        W23106  17.738   7.644   3.819
50792W        W23107  34.070  44.792   2.432
50793W        W23108  33.644  44.447  11.954
50794W        W23109   1.523  18.218  11.642
50795W        W23110  26.739  15.155   4.176
50796W        W23111  26.121   8.926  13.120
50797W        W23112  13.477   3.782  14.931
50798W        W23113  36.372  26.458   1.357
50799W        W23114   9.891  22.285   4.224
50800W        W23115  35.949  41.094  13.953
50801W        W23116  36.949  35.846  12.509
50802W        W23117  27.029  43.974  11.991
50803W        W23118  20.908  42.512  12.092
50804W        W23119  40.109  29.872  11.989
50805W        W23120  44.961  16.618  13.799
50806W        W23121  10.274   0.313   9.706
50807W        W23122  18.175   0.171   1.362
50808W        W23123  34.476   4.017   1.450
50809W        W23124  26.104   5.730  11.159
50810W        W23125   5.198  23.917   2.302
50811W        W23126  44.357  23.529   3.826
50812W        W23127  28.467  40.595   4.132
50813W        W23128  35.893  27.901  11.674
50814W        W23129  10.114   3.637   4.776
50815W        W23130  38.805  15.731   2.733
50816W        W23131  32.830  20.197   4.621
50817W        W23132  38.817   8.879  14.548
50818W        W23133  36.506  27.664  12.768
50819W        W23134  22.635  25.818  14.302
50820W        W23135   2.582   9.458   1.576
50821W        W23136  31.031  16.608  11.276
50822W        W23137  25.272  36.002   9.946
50823W        W23138  36.896  23.518   3.204
50824W        W23139  21.064   9.450   4.559
50825W        W23140  39.390  26.898  13.645
50826W        W23141  27.896  39.572   1.734
50827W        W23142  26.075  21.000  14.657
50828W        W23143  21.857   0.487   4.151
50829W        W23144  20.374  29.089   9.923
50830W        W23145  24.627   9.555   0.339
50831W        W23146  39.937  30.636   3.706
50832W        W23147  18.572  29.412   2.262
50833W        W23148  11.332  21.765   0.357
50834W        W23149   0.232  44.678  13.572
50835W        W23150   9.085  38.467   0.949
50836W        W23151   9.410  29.891  12.051
50837W        W23152   4.451  41.413  14.408
50838W        W23153   8.873  22.300  13.900
50839W        W23154  30.879  33.017  11.477
50840W        W23155  33.513   9.757   1.920
50841W        W23156  12.892   9.293   0.906
50842W        W23157  24.316  19.219   0.802
50843W        W23158  43.069  21.018  13.091
50844W        W23159   1.814  14.837  12.480
50845W        W23160   1.537  44.849  13.905
50846W        W23161  22.464  38.823  13.414
50847W        W23162   3.227  39.003  14.278
50848W        W23163  20.127  20.792   2.847
50849W        W23164  19.563  43.371  12.110
50850W        W23165  32.901  24.129  10.832
50851W        W23166  36.943  31.408   1.400
50852W        W23167  44.393  23.551   3.295
50853W        W23168  31.035  40.626   1.450
50854W        W23169  14.895  27.572   0.403
50855W        W23170  41.371  13.809   1.799
50856W        W23171  44.507  42.631   2.496
50857W        W23172  39.915   2.539   4.522
50858W        W23173   9.928  31.667  11.533
50859W        W23174  34.426  21.741  14.295
50860W        W23175  14.707   4.673   4.307
50861W        W23176  21.508  30.180  11.716
50862W        W23177  21.005   9.734  13.625
50863W        W23178  32.810  17.729  11.121
50864W        W23179  25.690  27.484  11.045
50865W        W23180  17.645  25.879   0.463
50866W        W23181  39.480  25.467  10.623
50867W        W23182   0.784  17.292   3.710
50868W        W23183  11.086  30.481  11.636
50869W        W23184  33.341  41.360   4.500
50870W        W23185   4.983  44.720  14.569
50871W        W23186  24.530  18.147   4.710
50872W        W23187  25.065  33.875   2.635
50873W        W23188  33.854  10.669   4.136
50874W        W23189   1.718   2.694   2.833
50875W        W23190   4.452   9.431  12.410
50876W        W23191   8.341  26.854   1.790
50877W        W23192  13.496  44.463   5.159
50878W        W23193  40.043  13.595   2.973
50879W        W23194  40.372  20.563  12.516
50880W        W23195  28.412  20.105   0.456
50881W        W23196  38.578  30.922   2.170
50882W        W23197   6.231  25.192  12.131
50883W        W23198  11.328  27.675  11.660
50884W        W23199  39.599  28.436  13.523
50885W        W23200  31.168  31.644   4.553
50886W        W23201  23.098  30.310   1.803
50887W        W23202  16.383   7.895  14.858
50888W        W23203  39.821  16.163   3.686
50889W        W23204   4.187  24.289  11.505
50890W        W23205   8.760  17.160  14.767
50891W        W23206  29.918   8.663  14.354
50892W        W23207  35.562  11.132  13.537
50893W        W23208   2.910  33.355  14.935
50894W        W23209   2.361   2.709   3.044
50895W        W23210  17.876  22.304   0.252
50896W        W23211  15.363   8.303   4.755
50897W        W23212  35.079   7.184   3.098
50898W        W23213  17.739  38.314   0.455
50899W        W23214  21.131  26.933  14.853
50900W        W23215  13.216   2.118  11.522
50901W        W23216  13.210   9.643  14.422
50902W        W23217  18.559  41.805  13.047
50903W        W23218  16.610   9.165   5.067
50904W        W23219   4.738  28.477   4.018
50905W        W23220   0.945   8.370   1.752
50906W        W23221  40.280  14.673   3.141
50907W        W23222  16.854  19.732   3.302
50908W        W23223  38.860  28.016  10.628
50909W        W23224  24.021  29.461  11.199
50910W        W23225  29.424  37.447   0.516
50911W        W23226  27.688   9.799  10.645
50912W        W23227   2.970  26.251  11.507
50913W        W23228  21.822  28.437   1.788
50914W        W23229  13.813   5.742   1.360
50915W        W23230  14.173  23.676   3.310
50916W        W23231  39.863  18.713  11.385
50917W        W23232  18.141  35.977  10.848
50918W        W23233  20.475  20.216   1.970
50919W        W23234  19.885  33.163  12.972
50920W        W23235  24.541  29.876   4.862
50921W        W23236  13.188  13.018  14.452
50922W        W23237  41.912  38.055  11.478
50923W        W23238  43.589  26.723   0.434
50924W        W23239  28.950  33.425   5.042
50925W        W23240   0.870  12.308   2.235
50926W        W23241  25.461  23.974  12.392
50927W        W23242   0.192  39.827  12.386
50928W        W23243  34.112  40.315   1.750
50929W        W23244  40.932  21.664   3.696
50930W        W23245  32.424   3.370  12.329
50931W        W23246  11.531  13.304  12.557
50932W        W23247  36.176   3.380  11.102
50933W        W23248  35.294  43.522  12.368
50934W        W23249   9.193  21.270   1.137
50935W        W23250   8.336  26.113  14.254
50936W        W23251  29.442  33.554   5.041
50937W        W23252  42.143  13.148  10.429
50938W        W23253  36.169   1.451  13.578
50939W        W23254  30.188   3.164   3.092
50940W        W23255  36.015  29.409   2.696
50941W        W23256  32.486  12.739   3.250
50942W        W23257  37.539  43.816  13.601
50943W        W23258  22.254  28.588   1.486
50944W        W23259   9.374  33.905  13.352
50945W        W23260  19.203  26.533   4.557
50946W        W23261  24.500   4.907   1.388
50947W        W23262  40.338  12.778  10.312
50948W        W23263  25.495  34.057  12.577
50949W        W23264   5.633  35.698   1.825
50950W        W23265   0.391  26.985   3.250
50951W        W23266  12.377  19.090  11.641
50952W        W23267  16.598  19.268  10.985
50953W        W23268  19.430   3.984   3.309
50954W        W23269  37.841   3.509   4.714
50955W        W23270  38.472  20.689   4.536
50956W        W23271  15.047   7.394  13.486
50957W        W23272  31.861  24.791   4.146
50958W        W23273   3.723  43.155  10.964
50959W        W23274  32.593  39.425   3.660
50960W        W23275  37.943   8.316  13.400
50961W        W23276  24.501  37.047   3.653
50962W        W23277  11.595   9.736   0.695
50963W        W23278  16.692  11.657   2.942
50964W        W23279  15.310  36.006  10.612
50965W        W23280  26.054  19.861   3.565
50966W        W23281   4.329  25.114   2.790
50967W        W23282   3.149  10.574  11.860
50968W        W23283  10.233  28.500  12.874
50969W        W23284  36.971  20.079  14.176
50970W        W23285  37.815  39.737   3.890
50971W        W23286  28.104   0.323   2.673
50972W        W23287  12.755  31.365   3.628
50973W        W23288  39.848  31.902   4.065
50974W        W23289  37.955  38.379   4.020
50975W        W23290  21.192  26.570   2.781
50976W        W23291  13.219  23.452   1.869
50977W        W23292  41.807  35.656  13.764
50978W        W23293  15.789  11.845   4.503
50979W        W23294  36.923   3.847  12.542
50980W        W23295   1.544  22.699  11.489
50981W        W23296   7.672  24.746   1.556
50982W        W23297  27.734   8.229  13.378
50983W        W23298  15.580   0.907   1.818
50984W        W23299  42.834  15.728   1.857
50985W        W23300   4.343  13.641  11.939
50986W        W23301   6.879  35.686   1.503
50987W        W23302  24.155   4.769   3.721
50988W        W23303  33.513  12.376  14.970
50989W        W23304  25.496  22.733  13.913
50990W        W23305  28.928  39.051   1.075
50991W        W23306  22.169   7.820  10.916
50992W        W23307  38.873  13.776  12.091
50993W        W23308  20.641  21.029   0.380
50994W        W23309  44.485  27.461   2.501
50995W        W23310   3.946  41.544  14.440
50996W        W23311   1.732   0.285   3.830
50997W        W23312   1.952  11.793   4.009
50998W        W23313  43.874  21.108  13.102
50999W        W23314  24.205  42.590  11.099
51000W        W23315   3.743  24.475  13.782
51001W        W23316  20.119   9.227  13.090
51002W        W23317   6.673   6.927  10.738
51003W        W23318   7.584   3.254   0.433
51004W        W23319  22.542  20.169  14.249
51005W        W23320  28.129  17.361  12.111
51006W        W23321  35.566   2.815  13.416
51007W        W23322  18.063  35.023  14.323
51008W        W23323  24.942   3.778  12.096
51009W        W23324  44.506  36.001  11.042
51010W        W23325  14.246  24.798  12.862
51011W        W23326  19.805  17.386   2.117
51012W        W23327  40.222  28.816   4.159
51013W        W23328   7.190  31.978   1.922
51014W        W23329   3.734   9.832  14.804
51015W        W23330  21.034  34.314   0.792
51016W        W23331  10.169  18.261  13.449
51017W        W23332   7.228  21.560  11.910
51018W        W23333  44.874  42.187   0.749
51019W        W23334  26.487  20.240  12.088
51020W        W23335  34.675   4.503   2.246
51021W        W23336  17.259  22.693   4.076
51022W        W23337   8.910  24.501  14.432
51023W        W23338  41.950  13.815  10.894
51024W        W23339  33.303  37.336   1.441
51025W        W23340  15.801  24.215   1.390
51026W        W23341  12.115  31.036   2.362
51027W        W23342  24.099   5.718   2.670
51028W        W23343  13.304  35.363   2.229
51029W        W23344  15.568  26.388   5.022
51030W        W23345  14.822  37.526   0.882
51031W        W23346  37.584  29.545  12.534
51032W        W23347  44.220  13.648  12.644
51033W        W23348  18.338  44.009  11.997
51034W        W23349  42.127  34.729   3.201
51035W        W23350   1.842  23.167  14.745
51036W        W23351   9.470  20.675   3.681
51037W        W23352  27.460   5.726  14.030
51038W        W23353   5.724  28.744  13.985
51039W        W23354  40.085  40.072   0.518
51040W        W23355  11.246  30.102   0.828
51041W        W23356   3.596  17.393  10.101
51042W        W23357  33.056  43.735   3.146
51043W        W23358  37.095   7.757   3.961
51044W        W23359   7.664  15.209   0.497
51045W        W23360  14.367  32.551  13.081
51046W        W23361  43.901  37.504  12.959
51047W        W23362  22.722  11.656  11.610
51048W        W23363  43.431  41.735  13.988
51049W        W23364  38.316  39.228   1.759
51050W        W23365  26.008  15.619  14.812
51051W        W23366   4.917   4.879   3.817
51052W        W23367   8.235   3.135  13.270
51053W        W23368  12.427  34.540  10.723
51054W        W23369  16.511  43.442   0.386
51055W        W23370  13.317  33.349  11.196
51056W        W23371  17.652   8.963   0.983
51057W        W23372  40.365  32.110  13.116
51058W        W23373  11.627  37.783  11.707
51059W        W23374   4.472  43.424   0.394
51060W        W23375  35.474  22.175  13.821
51061W        W23376  15.666  21.601   1.041
51062W        W23377  40.267  23.473   5.535
51063W        W23378   0.321  43.487   4.328
51064W        W23379  25.184  13.799   2.785
51065W        W23380  33.564   9.435   4.716
51066W        W23381  39.430  42.909  11.135
51067W        W23382  39.066  23.634  10.709
51068W        W23383  13.282  22.086   3.046
51069W        W23384  21.971   0.802  11.426
51070W        W23385   7.292  22.705  10.704
51071W        W23386  24.187   4.818   0.041
51072W        W23387  29.325  44.876   1.349
51073W        W23388  22.935  36.076   0.317
51074W        W23389   1.332  33.446  12.875
51075W        W23390   7.397   2.694  11.445
51076W        W23391  18.737  31.967   0.662
51077W        W23392   6.323   1.381   2.269
51078W        W23393   1.590  22.103   0.760
51079W        W23394   4.736  18.210   2.887
51080W        W23395   3.895   2.241   5.019
51081W        W23396  42.919  20.629  13.381
51082W        W23397  41.320  17.168   0.422
51083W        W23398  34.996  39.019   1.503
51084W        W23399  27.459  29.019   2.217
51085W        W23400  42.742  16.246   4.168
51086W        W23401  10.416  28.528   2.754
51087W        W23402   8.749   9.885   3.887
51088W        W23403  31.425  35.988   1.451
51089W        W23404  42.773  12.678   5.029
51090W        W23405  35.482   5.345  12.010
51091W        W23406  35.417   5.803   4.686
51092W        W23407  18.147   6.894   3.257
51093W        W23408  33.438  15.357   2.661
51094W        W23409  38.555  35.044  14.119
51095W        W23410  42.807  32.002   3.861
51096W        W23411  10.169  29.921   0.357
51097W        W23412   9.810   1.323   1.423
51098W        W23413  33.389   8.206  14.958
51099W        W23414  17.836  26.131   2.628
51100W        W23415  34.211  26.715  14.948
51101W        W23416  15.483  26.613   2.140
51102W        W23417  12.691  34.640   4.077
51103W        W23418  12.724  13.803  13.202
51104W        W23419  28.664   8.649  13.293
51105W        W23420   9.194  23.605  10.521
51106W        W23421  29.036  31.944   9.825
51107W        W23422  10.338  42.579   1.246
51108W        W23423  20.622   0.391  11.193
51109W        W23424  29.167  23.178  13.483
51110W        W23425  39.645  11.729   3.950
51111W        W23426  42.780  26.619  12.322
51112W        W23427  34.329  10.266  11.482
51113W        W23428  32.384  28.608  12.624
51114W        W23429  40.414   8.799   0.836
51115W        W23430  28.817  31.009   0.879
51116W        W23431  14.650  25.475   1.834
51117W        W23432  25.424  14.735   4.551
51118W        W23433  19.129   1.964   1.805
51119W        W23434  24.214  31.136   1.689
51120W        W23435  11.004  10.905   4.201
51121W        W23436  22.589   2.387   1.653
51122W        W23437  29.983  22.128  12.918
51123W        W23438  23.172   7.177   1.398
51124W        W23439  19.708  36.536   1.182
51125W        W23440   7.734   1.262  10.975
51126W        W23441  35.381  18.730   0.884
51127W        W23442  35.346  31.947  11.621
51128W        W23443  36.594  31.611  14.394
51129W        W23444   6.958  30.876   1.307
51130W        W23445  21.140   5.442  12.534
51131W        W23446  11.756  27.981   3.733
51132W        W23447  17.469  37.521  11.084
51133W        W23448  25.021  35.132   2.398
51134W        W23449  14.926  34.574  12.099
51135W        W23450  42.369  26.494  14.688
51136W        W23451  24.165  24.626  14.577
51137W        W23452  37.235   7.583  14.913
51138W        W23453  37.090  30.193  12.968
51139W        W23454   5.758  13.260   2.005
51140W        W23455  31.083  36.846   2.505
51141W        W23456  10.483  17.779   2.432
51142W        W23457  12.233   6.852   0.724
51143W        W23458  32.128  44.999  11.125
51144W        W23459  15.598  16.518  10.994
51145W        W23460  21.176  13.841  14.911
51146W        W23461  42.897   5.931   1.237
51147W        W23462  19.361  19.058  13.523
51148W        W23463   8.750  36.204   2.743
51149W        W23464   9.837  37.906  11.466
51150W        W23465  28.992  18.994   4.545
51151W        W23466  10.244   7.867   2.821
51152W        W23467  42.000  29.447   9.926
51153W        W23468  27.686  41.237  12.440
51154W        W23469  33.338  35.571  14.314
51155W        W23470   3.346  31.417  11.991
51156W        W23471   9.257  26.402   1.801
51157W        W23472  22.223  27.654   1.919
51158W        W23473  37.881   6.876  12.877
51159W        W23474  24.719  13.216   2.379
51160W        W23475   7.999   1.713  13.040
51161W        W23476  42.879  14.878  12.974
51162W        W23477  32.623  38.173   2.302
51163W        W23478   9.875  34.084   2.408
51164W        W23479   4.964   7.158   2.606
51165W        W23480   5.643   5.952  14.853
51166W        W23481   2.326  39.817   4.103
51167W        W23482  13.510  28.920   3.929
51168W        W23483  23.457  37.679   4.480
51169W        W23484  12.539   9.851   0.571
51170W        W23485  25.213  17.850  12.577
51171W        W23486  18.748  13.689   1.188
51172W        W23487  37.149  26.616   0.775
51173W        W23488  22.480   9.285   2.241
51174W        W23489   9.168   3.453   1.336
51175W        W23490  24.273   3.278   3.577
51176W        W23491  37.925  32.959   3.215
51177W        W23492   2.570  25.636   2.722
51178W        W23493   0.823  43.895   3.723
51179W        W23494  20.272  10.867  14.799
51180W        W23495  37.580  17.076  12.536
51181W        W23496   9.267  12.762   4.599
51182W        W23497  35.395  13.371  13.055
51183W        W23498  42.394  39.627  11.800
51184W        W23499  11.984  32.299  11.155
51185W        W23500   2.488  26.235  10.582
51186W        W23501   9.674   2.408   1.983
51187W        W23502  33.025  35.391   1.263
51188W        W23503  10.840  16.261  10.164
51189W        W23504  35.069  23.126  14.051
51190W        W23505  40.411  19.595   1.024
51191W        W23506  23.581  23.229  12.048
51192W        W23507  28.103  38.003   4.791
51193W        W23508  30.381  28.774   1.298
51194W        W23509  19.000  10.136   1.802
51195W        W23510  37.119  16.959   3.283
51196W        W23511   0.671  41.813   2.901
51197W        W23512  25.292  31.825   4.144
51198W        W23513  40.521  40.417  13.423
51199W        W23514   7.322  35.568   1.862
51200W        W23515  39.502  25.785   4.819
51201W        W23516   8.775   3.898  12.930
51202W        W23517  28.344  28.225  11.606
51203W        W23518   7.442  12.910  14.107
51204W        W23519  29.871  21.216   3.312
51205W        W23520   1.721  17.332  11.651
51206W        W23521  12.800  41.917   0.193
51207W        W23522   0.376  35.480   1.323
51208W        W23523  32.245  40.022   0.938
51209W        W23524  14.066  13.331   3.201
51210W        W23525  13.095   7.844  14.415
51211W        W23526  43.721  35.803   3.362
51212W        W23527  33.963  44.288   2.639
51213W        W23528   9.299   6.182  13.733
51214W        W23529  18.634   4.768  13.018
51215W        W23530  21.495  43.979  11.110
51216W        W23531  34.554  20.931  11.397
51217W        W23532  36.855  29.494   2.297
51218W        W23533  12.317   6.606  13.905
51219W        W23534  14.384  24.182  13.908
51220W        W23535   4.132  42.401  10.690
51221W        W23536  33.185  42.909   2.122
51222W        W23537  33.553  17.347  13.897
51223W        W23538   3.256  22.630  11.397
51224W        W23539   5.218  12.572   4.145
51225W        W23540  28.598   4.280  14.389
51226W        W23541  22.935  38.989  13.555
51227W        W23542  19.842  21.913  11.695
51228W        W23543  43.538  42.088  13.594
51229W        W23544  25.628  17.269   2.573
51230W        W23545  12.247  42.528   0.312
51231W        W23546   1.435  18.980   4.423
51232W        W23547  28.345  10.197   1.807
51233W        W23548  12.459  17.553   0.578
51234W        W23549   8.074  35.711   2.361
51235W        W23550  30.642  39.299   2.669
51236W        W23551  28.649  24.276   1.701
51237W        W23552  18.363   8.399   4.657
51238W        W23553  27.812  18.487  11.107
51239W        W23554  28.081  13.207   3.406
51240W        W23555   0.771  43.065   4.710
51241W        W23556  42.433  42.676  13.823
51242W        W23557   6.369  19.538   0.483
51243W        W23558  27.059  28.896  11.974
51244W        W23559   6.336  29.378   5.201
51245W        W23560   7.371  13.399  13.943
51246W        W23561  15.158   3.402  14.401
51247W        W23562   4.863   7.375   4.538
51248W        W23563  16.743  33.636  12.998
51249W        W23564  19.546  20.009   2.361
51250W        W23565  30.002  27.714  11.192
51251W        W23566  27.655   8.264   3.989
51252W        W23567  23.089   7.176   0.483
51253W        W23568   4.254  23.605   1.670
51254W        W23569  33.480   1.482  11.547
51255W        W23570  34.799  31.099   4.608
51256W        W23571  23.004   7.178   2.746
51257W        W23572  35.660  10.556  11.693
51258W        W23573  42.785  22.701   1.578
51259W        W23574  36.368  15.678  14.317
51260W        W23575  13.711  37.455  14.799
51261W        W23576   1.000  16.723   2.327
51262W        W23577  18.267  14.847  13.983
51263W        W23578  37.576   1.650   2.652
51264W        W23579  42.367  35.044   4.566
51265W        W23580  36.070  11.242  11.611
51266W        W23581  13.847  17.061   5.268
51267W        W23582  37.044   1.698   2.699
51268W        W23583  16.338  33.031   1.806
51269W        W23584  16.965  12.256  11.406
51270W        W23585  30.165  30.684  13.856
51271W        W23586  39.258   0.874  13.153
51272W        W23587  17.283   5.615   0.064
51273W        W23588  13.722  18.217   1.376
51274W        W23589  38.713  25.657   2.361
51275W        W23590  32.021  22.966   4.722
51276W        W23591  34.060  10.888  13.951
51277W        W23592  18.119   0.275  13.551
51278W        W23593  39.624  10.990  12.118
51279W        W23594  32.062   9.255   0.792
51280W        W23595  37.078  42.622  12.391
51281W        W23596  22.594  36.201  10.467
51282W        W23597  25.981  24.123  12.453
51283W        W23598  19.209  19.228   0.001
51284W        W23599  36.459   3.101   5.115
51285W        W23600  37.339  26.603   3.613
51286W        W23601  12.097  15.170  11.638
51287W        W23602  22.727   5.534  12.403
51288W        W23603  29.662  38.588  13.444
51289W        W23604  14.176   8.123  11.663
51290W        W23605   9.166  43.140   5.123
51291W        W23606   0.095  28.518   0.734
51292W        W23607   5.672  22.598  11.633
51293W        W23608  34.394   7.875   2.827
51294W        W23609  42.085  12.707   3.801
51295W        W23610  34.882  19.479  11.447
51296W        W23611  43.074  43.240   2.315
51297W        W23612  42.106  21.580  10.668
51298W        W23613  32.991   9.627   1.302
51299W        W23614  30.462  22.064   4.652
51300W        W23615  25.062  39.912  12.152
51301W        W23616  34.560  22.155  14.007
51302W        W23617  16.229  30.198  12.885
51303W        W23618  25.054  27.802   2.031
51304W        W23619  19.765  40.928  13.613
51305W        W23620  33.431  40.993  14.443
51306W        W23621   8.443  24.687  12.116
51307W        W23622  33.170  25.190   4.241
51308W        W23623  26.288  37.415   1.816
51309W        W23624   6.318  41.351   2.667
51310W        W23625   0.979   1.350   2.869
51311W        W23626   6.365   4.170   2.405
51312W        W23627   8.729  43.313   2.367
51313W        W23628   7.319  33.076   2.917
51314W        W23629  13.367  14.218  14.775
51315W        W23630  44.759   3.183   0.262
51316W        W23631  17.626  11.501  14.563
51317W        W23632  43.953   3.009  13.864
51318W        W23633  28.112   9.742  10.202
51319W        W23634  44.063  12.187  10.978
51320W        W23635  25.670  25.949   2.268
51321W        W23636  40.443  42.916  13.471
51322W        W23637  25.628  35.722  13.327
51323W        W23638  37.005   3.192  14.014
51324W        W23639  43.477   3.162   1.730
51325W        W23640  23.097  17.289   1.972
51326W        W23641  18.368  34.164   0.942
51327W        W23642  22.061  35.076  12.713
51328W        W23643  14.246  33.084  12.053
51329W        W23644   1.051  20.270   4.611
51330W        W23645  33.590   4.988   5.235
51331W        W23646  31.687  17.843   2.240
51332W        W23647  43.510  28.444  12.997
51333W        W23648  33.602  38.528  13.373
51334W        W23649   7.634  22.329   0.828
51335W        W23650  30.464  30.141  11.159
51336W        W23651  20.070  28.009  13.434
51337W        W23652  41.757  42.495   0.495
51338W        W23653  23.587  18.591   1.713
51339W        W23654  37.998  36.396  14.452
51340W        W23655   7.586   6.752   2.877
51341W        W23656  33.635   6.161  12.012
51342W        W23657  17.225   0.304  12.426
51343W        W23658   5.945  21.214   1.387
51344W        W23659  10.773  26.184  12.032
51345W        W23660   9.543  44.815   2.874
51346W        W23661  37.045  36.293  10.997
51347W        W23662  12.740  19.783  13.497
51348W        W23663  33.593   9.974  13.549
51349W        W23664  10.400  19.668  10.659
51350W        W23665  36.872  10.857   0.878
51351W        W23666  27.014  36.895   1.903
51352W        W23667  29.906   4.748  14.232
51353W        W23668  10.176  32.002   2.759
51354W        W23669  24.013   3.856   4.144
51355W        W23670  10.288  15.819  11.962
51356W        W23671  31.558  18.783   2.126
51357W        W23672  24.306  16.396   0.102
51358W        W23673   4.892  21.134  10.500
51359W        W23674  22.238  30.426  14.909
51360W        W23675   4.697   2.763   1.498
51361W        W23676  10.788  25.981   4.960
51362W        W23677  10.425  14.639  12.457
51363W        W23678  42.324  13.605  14.818
51364W        W23679  34.973  23.171  12.919
51365W        W23680  11.669   8.541   4.110
51366W        W23681  18.588   3.658   1.949
51367W        W23682  40.370  32.293   3.202
51368W        W23683  40.886   9.702   0.372
51369W        W23684  41.019  11.458  13.584
51370W        W23685  25.006  12.503   1.195
51371W        W23686  34.831  17.560   0.924
51372W        W23687  43.396  21.307   2.461
51373W        W23688  27.109  35.609  13.830
51374W        W23689  14.273  35.402   3.657
51375W        W23690  42.750  19.763   4.334
51376W        W23691  18.480  13.553   3.268
51377W        W23692  43.239  36.986   0.712
51378W        W23693  29.150  19.338  14.433
51379W        W23694  23.265  38.919   4.184
51380W        W23695  19.545  27.661  12.913
51381W        W23696  39.526  14.752  12.797
51382W        W23697  40.278  40.574  11.114
51383W        W23698  23.645   9.243  12.500
51384W        W23699   1.502  22.276   3.607
51385W        W23700  43.453  30.586   0.030
51386W        W23701  41.348   5.848   2.839
51387W        W23702   4.049  43.423   3.119
51388W        W23703  10.878   2.744  12.945
51389W        W23704  27.530  44.248   1.402
51390W        W23705  29.317  39.466  12.571
51391W        W23706  15.671   1.993  12.741
51392W        W23707  21.563  43.718   3.688
51393W        W23708   3.966  32.134  13.183
51394W        W23709  24.633   6.516   3.524
51395W        W23710   3.563   0.716  10.779
51396W        W23711  12.338  44.003  14.035
51397W        W23712  24.066  14.183   4.013
51398W        W23713  21.979  22.763   2.907
51399W        W23714  21.147  42.989  14.339
51400W        W23715  22.695   4.960  12.464
51401W        W23716  27.225   3.858  13.923
51402W        W23717  35.934   7.429  10.738
51403W        W23718  16.270  37.433  12.962
51404W        W23719   7.397  18.283   2.056
51405W        W23720  20.107   6.938   3.072
51406W        W23721  26.465  23.113  12.182
51407W        W23722  16.197  27.010  11.040
51408W        W23723   8.452  38.760   1.338
51409W        W23724  35.649  29.154  14.102
51410W        W23725   0.722   3.365  10.238
51411W        W23726   1.057  42.518  11.945
51412W        W23727  33.124   7.459   4.170
51413W        W23728   1.848  10.312   4.160
51414W        W23729  12.755  12.815  13.521
51415W        W23730  23.113  38.749  12.238
51416W        W23731  23.179  31.939   1.718
51417W        W23732   0.474  42.461   4.641
51418W        W23733  33.425  32.420  13.428
51419W        W23734  32.968  31.946   4.040
51420W        W23735  11.763   3.909  12.800
51421W        W23736   2.230  12.686  11.919
51422W        W23737  26.622  28.010  10.846
51423W        W23738  26.532  17.785  12.923
51424W        W23739  16.365   4.728  14.546
51425W        W23740  33.089  34.062  11.954
51426W        W23741  27.360  21.003   3.166
51427W        W23742  38.973   0.311  12.117
51428W        W23743   7.826  25.252  12.493
51429W        W23744  11.798  29.971  10.648
51430W        W23745  27.055  14.559   4.976
51431W        W23746  44.184   0.703   5.231
51432W        W23747   0.515  37.963  11.519
51433W        W23748  25.718  33.052   0.089
51434W        W23749  26.887  34.902   2.363
51435W        W23750  22.645  34.839  14.008
51436W        W23751  15.475  33.938  11.619
51437W        W23752   7.274  15.674  11.213
51438W        W23753  15.954  35.933  12.992
51439W        W23754  30.508  34.904   0.158
51440W        W23755  11.236  14.125  14.023
51441W        W23756  32.631  15.348   0.859
51442W        W23757  22.131  31.091   0.259
51443W        W23758   2.931  33.635  13.169
51444W        W23759  21.725  44.304   2.523
51445W        W23760  10.777  26.883   4.632
51446W        W23761  38.912  26.907   0.391
51447W        W23762  21.953  34.301   4.224
51448W        W23763  28.600  35.036  10.402
51449W        W23764  32.138  24.943  12.978
51450W        W23765  31.706   0.399   3.375
51451W        W23766  17.559  28.369  13.815
51452W        W23767   1.668  21.084  12.462
51453W        W23768   4.494  25.208   2.303
51454W        W23769  32.891  30.894   1.305
51455W        W23770   3.626  15.510  13.877
51456W        W23771   8.422   2.808  14.535
51457W        W23772  34.105  32.822  10.730
51458W        W23773  41.393  22.489  12.849
51459W        W23774   9.323  30.576  11.669
51460W        W23775  33.801   6.639  14.993
51461W        W23776  34.858  34.570   4.665
51462W        W23777  18.284  24.244   0.708
51463W        W23778  28.458  40.991  14.450
51464W        W23779   0.456  26.498   1.302
51465W        W23780  34.041  27.097  14.451
51466W        W23781  37.815  44.195  10.399
51467W        W23782  17.166  11.198   2.509
51468W        W23783   9.824  24.632   1.997
51469W        W23784  13.966  43.518  13.973
51470W        W23785  40.747  18.451  14.893
51471W        W23786   6.794  21.165   0.948
51472W        W23787  27.778   8.635  11.833
51473W        W23788  20.809  24.783   2.363
51474W        W23789  10.643  30.351  11.408
51475W        W23790  18.069  21.937  10.680
51476W        W23791  28.235  39.025  12.984
51477W        W23792  28.658  14.856  14.279
51478W        W23793  28.015  24.983   5.041
51479W        W23794  21.706  16.055  14.555
51480W        W23795   1.365  30.515   1.930
51481W        W23796   8.880  38.834  12.528
51482W        W23797  15.154  29.251   2.146
51483W        W23798   2.002  20.210  12.433
51484W        W23799  29.942   9.748   0.839
51485W        W23800  39.354  34.520   4.658
51486W        W23801  27.448  17.581  11.007
51487W        W23802   0.263  40.320  12.441
51488W        W23803  44.257  30.474  14.348
51489W        W23804  22.432  13.301  11.069
51490W        W23805  24.817  14.384  11.069
51491W        W23806  14.845  40.028   4.638
51492W        W23807   2.742  23.230   4.218
51493W        W23808  31.782  22.464   4.983
51494W        W23809  23.065   1.200  13.580
51495W        W23810  17.180  23.118   3.809
51496W        W23811  12.596  20.580  12.561
51497W        W23812  31.035  10.820   4.640
51498W        W23813  34.664  33.282  13.462
51499W        W23814  28.212  38.022  13.499
51500W        W23815   5.066   3.408  12.417
51501W        W23816   7.800  41.576   2.148
51502W        W23817  24.052  38.225   0.672
51503W        W23818  22.793   9.335   2.658
51504W        W23819   6.660  29.315  12.447
51505W        W23820  41.648  30.177  10.740
51506W        W23821  23.036  36.871  11.518
51507W        W23822  17.790   0.917   4.182
51508W        W23823  35.814  32.593  13.646
51509W        W23824   9.876  44.507   4.580
51510W        W23825  10.676   1.358   1.282
51511W        W23826  14.282  44.100  12.284
51512W        W23827  14.082   1.679  11.019
51513W        W23828  41.128  16.523  11.581
51514W        W23829  39.210   1.084   1.409
51515W        W23830   6.912  25.093   1.774
51516W        W23831  34.010  32.899   1.851
51517W        W23832  39.657  21.200  11.068
51518W        W23833  35.631   8.717  13.571
51519W        W23834  18.758  15.579   4.295
51520W        W23835  29.454  15.573  12.377
51521W        W23836   8.986  16.089   3.703
51522W        W23837  35.289  38.442  14.040
51523W        W23838  35.572  36.663  12.836
51524W        W23839  26.222   9.830  14.398
51525W        W23840   1.299  38.004  14.785
51526W        W23841  19.560  27.889  13.378
51527W        W23842   4.018  27.420   4.624
51528W        W23843  32.939  19.520   1.522
51529W        W23844  15.156   3.833  14.672
51530W        W23845  20.641  13.223   2.805
51531W        W23846  32.157  17.544   4.678
51532W        W23847  38.561  36.972   2.386
51533W        W23848   9.651  20.035   2.713
51534W        W23849  18.095  13.677  11.560
51535W        W23850   5.058  40.042  12.544
51536W        W23851  18.799  37.572   0.721
51537W        W23852  29.835  12.678  11.923
51538W        W23853  33.200  22.470  12.954
51539W        W23854   2.403  28.189   0.463
51540W        W23855  11.760   6.769   3.120
51541W        W23856   1.877   8.936  10.647
51542W        W23857   8.305  20.963   4.182
51543W        W23858  17.481  33.505  14.106
51544W        W23859   4.260  43.315   4.211
51545W        W23860   8.303  36.480   0.395
51546W        W23861  42.037   3.023  13.022
51547W        W23862  16.297   8.714   4.987
51548W        W23863  42.005  12.183   2.835
51549W        W23864   3.711  23.024   3.897
51550W        W23865  12.180  33.578   1.466
51551W        W23866   6.181  17.198  12.608
51552W        W23867  41.010  15.336   2.822
51553W        W23868  44.369  37.687  13.103
51554W        W23869   7.879  10.778  10.406
51555W        W23870   0.668  36.023  12.820
51556W        W23871  20.844   6.755  14.794
51557W        W23872   5.926  37.941   1.839
51558W        W23873  37.900  10.642  14.789
51559W        W23874  15.250   2.735   0.163
51560W        W23875  16.665  40.417   4.984
51561W        W23876   3.765  35.654  11.178
51562W        W23877   0.019  23.978  14.717
51563W        W23878   7.617   1.943   4.603
51564W        W23879  10.371  17.794   3.200
51565W        W23880   5.033  44.341   1.335
51566W        W23881  11.741  33.148   3.701
51567W        W23882  18.311  16.995   2.073
51568W        W23883  33.224  41.954   1.899
51569W        W23884  33.620  17.574  11.928
51570W        W23885  23.565  25.643  14.309
51571W        W23886  27.564   5.455   2.375
51572W        W23887  17.768   0.987   1.316
51573W        W23888  12.507   5.197   4.566
51574W        W23889  18.504  23.968   2.299
51575W        W23890  24.777  29.589  11.622
51576W        W23891  33.670  42.011   1.658
51577W        W23892   6.296   2.458   1.150
51578W        W23893  37.095  21.953   4.652
51579W        W23894  24.304  11.726  10.378
51580W        W23895  43.274  30.917   4.541
51581W        W23896  24.901   7.165   0.857
51582W        W23897  40.375  29.923   4.786
51583W        W23898   1.740  30.883  10.897
51584W        W23899  26.390  31.791  12.428
51585W        W23900   7.315   2.263  13.948
51586W        W23901  13.362  31.104   4.567
51587W        W23902  27.529  33.634   3.110
51588W        W23903  37.398   0.408   4.950
51589W        W23904  11.391  40.926  14.760
51590W        W23905  11.750  21.981   2.437
51591W        W23906  19.507  26.287   0.932
51592W        W23907   9.592  33.392   0.242
51593W        W23908  38.164  26.983   2.377
51594W        W23909   6.245  38.549   3.996
51595W        W23910  44.673  25.071   4.676
51596W        W23911   5.689   8.842   3.780
51597W        W23912  24.374  11.342   0.444
51598W        W23913  17.639  34.066  11.505
51599W        W23914  27.408  27.622  11.184
51600W        W23915  26.518  13.126  12.543
51601W        W23916  43.340  18.830   3.696
51602W        W23917  22.221  39.439  14.517
51603W        W23918  17.774  12.853  10.627
51604W        W23919  33.132  44.841  10.818
51605W        W23920  30.059  26.612  14.975
51606W        W23921  29.709  23.165  12.594
51607W        W23922   1.059  11.145   2.385
51608W        W23923   5.244  38.436   0.440
51609W        W23924  13.320  38.035  14.262
51610W        W23925  17.309   1.897  11.613
51611W        W23926  30.073  40.344   3.275
51612W        W23927  12.129  37.826  13.766
51613W        W23928  26.568  14.106  10.514
51614W        W23929   2.404  44.054   3.946
51615W        W23930  28.637  36.098   5.051
51616W        W23931   5.380  35.081  12.740
51617W        W23932   0.772  37.332   3.361
51618W        W23933  44.170  22.736  13.978
51619W        W23934   7.989  16.198  10.932
51620W        W23935  11.779  18.000   4.185
51621W        W23936  10.747  30.419   4.904
51622W        W23937   7.241   7.370   1.712
51623W        W23938  11.406  11.621   1.765
51624W        W23939  24.789  42.108   3.869
51625W        W23940  17.116  26.554   3.653
51626W        W23941  26.605  22.213   1.257
51627W        W23942   4.976  15.131  11.307
51628W        W23943   4.305  28.215  10.733
51629W        W23944  26.641  17.311   1.496
51630W        W23945  42.525  38.479   1.274
51631W        W23946  33.426   0.226  12.876
51632W        W23947  30.416  42.342  13.420
51633W        W23948  30.533   1.497  12.680
51634W        W23949  11.275  10.824   3.781
51635W        W23950   4.954  28.935  11.551
51636W        W23951  23.044  26.122  11.403
51637W        W23952  16.693  42.890   3.573
51638W        W23953  23.235  25.578  11.164
51639W        W23954   3.390  26.070  14.892
51640W        W23955  18.609  24.177   1.250
51641W        W23956  15.058  23.062  10.788
51642W        W23957  33.616   2.896  13.985
51643W        W23958  26.330  27.922  11.698
51644W        W23959   5.649  25.210   3.276
51645W        W23960  24.194  18.298   1.892
51646W        W23961  14.779  44.070   3.723
51647W        W23962  37.838  12.849  10.591
51648W        W23963  41.779  25.102   2.813
51649W        W23964  17.126  26.604   3.134
51650W        W23965  32.642  35.619  12.940
51651W        W23966   7.710  26.748  10.705
51652W        W23967  22.574  39.830  14.522
51653W        W23968  24.885  41.885   4.900
51654W        W23969  12.019  41.778  12.567
51655W        W23970  12.183  40.373  13.500
51656W        W23971   3.480  19.028  13.833
51657W        W23972  37.346  33.892   4.457
51658W        W23973  20.370  18.382   1.313
51659W        W23974  34.334  14.799  14.825
51660W        W23975  23.432  25.312   1.902
51661W        W23976  43.060  25.772   3.539
51662W        W23977  14.809  39.241   2.423
51663W        W23978  11.695   1.104  14.751
51664W        W23979   0.122  13.854  13.852
51665W        W23980  25.685  20.206   1.380
51666W        W23981  44.659  38.850   4.140
51667W        W23982  36.175  15.683   2.383
51668W        W23983   8.821  28.911   4.557
51669W        W23984   5.073  39.074  14.219
51670W        W23985  35.433  38.290   4.790
51671W        W23986  39.765   6.334  13.054
51672W        W23987  41.862  26.387   3.353
51673W        W23988  17.292  15.138   4.688
51674W        W23989  36.619  13.255   1.927
51675W        W23990  23.229   4.441  10.747
51676W        W23991  40.140  42.794   0.423
51677W        W23992  30.959  19.631  14.280
51678W        W23993   6.446  22.514  11.005
51679W        W23994  16.626  39.348  14.784
51680W        W23995  38.494  14.175  10.659
51681W        W23996  28.791  31.499   3.336
51682W        W23997   7.258  42.903  12.021
51683W        W23998  36.157  20.220   1.426
51684W        W23999  18.532  25.229   3.762
51685W        W24000   1.476  26.323  12.987
51686W        W24001   4.643  34.806  11.158
51687W        W24002  30.685  27.968  14.415
51688W        W24003  20.898  26.536  13.490
51689W        W24004  26.719  22.650   2.253
51690W        W24005  44.813  17.610  12.867
51691W        W24006  21.488  35.076   1.485
51692W        W24007  21.839   6.239  11.584
51693W        W24008  11.499  22.508  13.432
51694W        W24009  34.175  37.451  13.109
51695W        W24010  12.620  43.900   1.836
51696W        W24011  25.010  38.103  13.976
51697W        W24012  21.975  13.652  12.130
51698W        W24013   9.463  39.872   1.311
51699W        W24014  13.769  38.293  12.830
51700W        W24015  11.135   5.300  10.702
51701W        W24016  20.672  28.267   4.005
51702W        W24017  38.767   2.702  14.069
51703W        W24018  43.014  25.421   0.321
51704W        W24019  12.296  30.520  11.061
51705W        W24020  15.141  27.435  11.131
51706W        W24021  40.560  17.952   4.910
51707W        W24022   1.407  13.369   2.756
51708W        W24023  17.706  42.514   1.371
51709W        W24024  24.701  13.306   4.672
51710W        W24025  30.560  18.884  11.166
51711W        W24026  18.259  24.422   2.226
51712W        W24027  20.094   9.266   1.453
51713W        W24028   0.426   9.628  14.953
51714W        W24029  18.767  39.349   0.367
51715W        W24030  15.127  38.606   0.035
51716W        W24031   6.163  12.246   4.989
51717W        W24032  13.779  18.556  12.394
51718W        W24033  41.321  41.049  12.882
51719W        W24034  22.492  18.167  11.482
51720W        W24035   3.284  27.413   2.666
51721W        W24036  40.816   2.458  14.713
51722W        W24037  17.173  39.298  10.520
51723W        W24038  24.245   0.325  10.622
51724W        W24039  20.260  26.490  12.390
51725W        W24040  27.070  40.571  11.711
51726W        W24041   4.563   5.780  11.508
51727W        W24042  21.837  23.129  13.341
51728W        W24043  12.168   0.280   4.532
51729W        W24044   7.753   9.168  12.451
51730W        W24045   1.794   9.945   5.121
51731W        W24046  44.578   8.583  12.728
51732W        W24047   6.139  31.565  13.412
51733W        W24048  21.654  35.602   2.176
51734W        W24049  17.644  24.143   0.001
51735W        W24050   6.410  10.374  12.967
51736W        W24051  21.481  23.211  11.381
51737W        W24052   8.679  23.671  10.582
51738W        W24053  35.651  15.227   1.830
51739W        W24054  13.797   2.232  14.513
51740W        W24055  43.797  11.332   1.362
51741W        W24056   2.822  23.110  14.954
51742W        W24057   7.760  32.839   2.806
51743W        W24058   6.208   3.730   4.591
51744W        W24059   9.702  22.805   0.835
51745W        W24060  19.044  44.581  14.966
51746W        W24061   2.676  38.074  14.759
51747W        W24062  33.646  13.280  11.430
51748W        W24063  20.769  10.882   0.610
51749W        W24064  26.234  18.191   5.009
51750W        W24065  27.182  24.526  12.055
51751W        W24066  15.551  22.273   0.284
51752W        W24067  26.743  35.426  12.024
51753W        W24068   7.235  42.512   1.284
51754W        W24069  24.929  29.598   2.222
51755W        W24070  24.723  21.044   3.045
51756W        W24071  14.884  27.011   2.465
51757W        W24072   8.784  10.850   3.877
51758W        W24073  24.142  35.909  10.802
51759W        W24074  20.773  13.889   0.908
51760W        W24075  33.328   8.627   3.546
51761W        W24076   8.159  10.631  12.734
51762W        W24077  11.181  13.312   1.279
51763W        W24078  39.953  30.083  11.542
51764W        W24079  32.093  11.916   2.767
51765W        W24080   9.049  26.615   2.387
51766W        W24081  42.525  24.727   0.753
51767W        W24082   4.687  16.536  13.110
51768W        W24083  13.567  21.805  13.389
51769W        W24084  30.622  15.273   4.128
51770W        W24085  22.012  19.100   2.399
51771W        W24086   6.829  12.342   0.315
51772W        W24087  44.503  41.326   2.211
51773W        W24088  18.180  44.532   4.157
51774W        W24089  35.816  36.601   0.784
51775W        W24090   9.495  43.728  12.471
51776W        W24091   8.129   4.666   2.141
51777W        W24092   1.110  13.794   4.187
51778W        W24093  36.556  32.979  13.575
51779W        W24094  22.018  21.818  12.660
51780W        W24095   7.036  13.355   2.860
51781W        W24096  40.163  20.591  10.936
51782W        W24097  32.746   2.388  13.034
51783W        W24098   5.297   0.379   1.399
51784W        W24099  37.091  30.894  10.672
51785W        W24100  36.930  35.879  13.035
51786W        W24101   4.606  19.940   1.243
51787W        W24102  18.184  12.775  11.594
51788W        W24103  26.194  41.374   1.815
51789W        W24104  33.870   0.363  14.557
51790W        W24105  40.335  31.181   2.242
51791W        W24106  17.695   0.198  14.866
51792W        W24107  28.817  11.879  12.059
51793W        W24108  18.618  29.878  12.417
51794W        W24109  41.066   6.228  14.014
51795W        W24110  28.666  26.155   0.517
51796W        W24111  40.301  28.496   3.418
51797W        W24112   4.956  35.514  11.050
51798W        W24113  24.028  16.559   4.682
51799W        W24114  39.044  14.374   0.414
51800W        W24115   3.035  11.255  13.008
51801W        W24116   6.410   6.165  10.973
51802W        W24117   2.160   6.160   5.045
51803W        W24118  25.789  38.984   4.976
51804W        W24119  17.012  21.526  12.035
51805W        W24120  20.969  31.101  12.024
51806W        W24121  39.273  34.923   1.331
51807W        W24122  19.307   5.886   3.419
51808W        W24123  28.083  11.745  14.699
51809W        W24124  25.387  39.230  14.949
51810W        W24125  35.799   7.719   1.476
51811W        W24126   8.760  17.119   1.483
51812W        W24127  32.926   1.870  14.058
51813W        W24128  25.463  23.777  12.999
51814W        W24129  10.953  20.252   2.252
51815W        W24130  37.021  16.187  13.050
51816W        W24131  22.085  40.053   4.624
51817W        W24132   6.375  12.641   0.324
51818W        W24133  28.880   3.855   0.859
51819W        W24134   0.411  13.833  14.284
51820W        W24135  26.396  41.869  14.113
51821W        W24136   1.675  29.771   3.130
51822W        W24137  25.057   0.410  11.225
51823W        W24138  24.533  27.593   1.301
51824W        W24139  22.678  29.409  13.873
51825W        W24140  39.116   7.087  11.562
51826W        W24141  27.091  34.271   5.406
51827W        W24142  35.439  34.246   3.476
51828W        W24143  44.940  25.723   4.148
51829W        W24144  41.293  34.929  14.341
51830W        W24145  10.024  16.681  12.905
51831W        W24146   1.289  14.684   1.270
51832W        W24147  27.450  16.706  12.425
51833W        W24148  27.215  32.395   3.312
51834W        W24149  41.594  25.528   4.116
51835W        W24150  13.642  23.200   2.096
51836W        W24151  11.906  34.555  11.485
51837W        W24152  30.572  19.275  14.282
51838W        W24153  32.468  44.436   2.720
51839W        W24154  27.229  16.752   4.033
51840W        W24155  25.759  44.275  13.955
51841W        W24156  27.764   5.703   3.628
51842W        W24157  34.446   1.010  13.865
51843W        W24158   2.252  16.015  14.033
51844W        W24159   7.964  11.635  11.366
51845W        W24160  22.676  11.338  10.405
51846W        W24161  27.533  14.789   1.253
51847W        W24162  15.748  13.555  14.737
51848W        W24163  36.300   1.281  10.674
51849W        W24164   1.772  20.973   3.119
51850W        W24165   1.833  43.540  14.018
51851W        W24166   1.386  30.222   0.983
51852W        W24167  39.142   4.982   2.249
51853W        W24168  31.022  16.043   4.993
51854W        W24169  19.908  28.386   4.324
51855W        W24170  44.220   8.385  13.550
51856W        W24171  32.986  35.928   1.311
51857W        W24172  39.267   0.453  11.206
51858W        W24173  40.576  13.216  12.028
51859W        W24174   3.030  14.512   1.733
51860W        W24175  39.463  30.557   3.909
51861W        W24176  15.343  13.876  13.827
51862W        W24177  25.102  22.720  10.875
51863W        W24178  43.586  21.614   1.699
51864W        W24179   7.100   4.826   0.983
51865W        W24180  15.210  25.064   2.703
51866W        W24181  39.947   2.841   0.354
51867W        W24182  18.471  35.248   0.851
51868W        W24183  22.461  40.786  10.283
51869W        W24184  14.251   5.350   2.784
51870W        W24185  12.641  34.201   4.836
51871W        W24186  25.516  33.601  12.829
51872W        W24187  34.129   9.124  10.685
51873W        W24188  29.569  35.247   2.918
51874W        W24189  28.669  25.019  10.772
51875W        W24190  36.302  33.580   3.702
51876W        W24191  19.884  43.356   2.359
51877W        W24192  29.539  12.397  12.451
51878W        W24193  40.793  27.471   2.660
51879W        W24194   8.634   4.326   4.292
51880W        W24195  19.664  21.446   1.294
51881W        W24196  13.150  27.482  14.910
51882W        W24197  33.683  43.671   0.433
51883W        W24198  27.747   0.856   4.623
51884W        W24199  36.230   8.802   4.098
51885W        W24200  17.706   6.866  11.350
51886W        W24201  41.572   2.674  14.792
51887W        W24202   7.686  44.939  11.609
51888W        W24203  40.958   2.937  14.524
51889W        W24204  13.760   5.402  12.000
51890W        W24205   9.931   6.880   1.762
51891W        W24206  32.865  40.447   0.373
51892W        W24207   3.950   9.711   2.548
51893W        W24208  21.650  19.630   0.261
51894W        W24209   1.882  22.258   4.474
51895W        W24210   3.672  37.978   0.801
51896W        W24211  32.658  24.076   3.345
51897W        W24212  42.344   2.357  13.051
51898W        W24213  26.708  12.059   1.737
51899W        W24214  42.292  29.503   5.095
51900W        W24215   4.594  39.019  14.451
51901W        W24216  21.620  43.032  11.187
51902W        W24217  29.941  34.019  14.293
51903W        W24218  18.548  26.476   3.546
51904W        W24219  34.168   1.804  12.768
51905W        W24220   0.725  21.496   2.353
51906W        W24221  43.010   2.055   2.465
51907W        W24222  10.299  37.678   4.101
51908W        W24223  14.603  41.598   5.049
51909W        W24224  17.726  16.099   0.378
51910W        W24225   3.111  36.512   3.697
51911W        W24226   4.915   2.295   4.562
51912W        W24227  23.594  33.347   2.228
51913W        W24228  37.790  44.386   0.706
51914W        W24229  39.019  31.705   4.644
51915W        W24230  21.201   2.273   2.073
51916W        W24231  11.809  44.874  10.010
51917W        W24232   4.707  29.178  14.297
51918W        W24233  36.527  16.605   3.715
51919W        W24234  23.599   2.451  11.666
51920W        W24235   2.199  36.478   0.226
51921W        W24236   6.202  40.014   2.184
51922W        W24237   8.259  15.497  14.906
51923W        W24238  10.409  26.020   3.720
51924W        W24239   1.691  40.262   3.783
51925W        W24240  23.232  30.871  11.647
51926W        W24241   1.842  14.245  13.137
51927W        W24242  19.547   4.257  10.406
51928W        W24243  38.857  33.293  13.164
51929W        W24244  36.588  18.618  13.421
51930W        W24245  42.407  31.909   1.536
51931W        W24246  16.901  23.152   2.900
51932W        W24247  35.433  20.209  14.544
51933W        W24248  27.116  30.559  10.558
51934W        W24249  43.859  20.142   2.140
51935W        W24250  27.460  28.633   0.437
51936W        W24251  16.827   7.153   3.692
51937W        W24252  35.024  21.089   4.267
51938W        W24253  26.535  29.105   1.799
51939W        W24254  34.728  39.257   4.087
51940W        W24255  12.252   0.701  11.800
51941W        W24256  22.096  18.595   1.900
51942W        W24257  23.778   9.033   0.513
51943W        W24258  35.114  24.079  11.931
51944W        W24259   4.694  40.406   1.705
51945W        W24260  38.855  14.291   4.582
51946W        W24261  20.564  30.642  13.299
51947W        W24262  44.020  36.163   1.442
51948W        W24263  14.247  18.107   3.627
51949W        W24264   2.602  21.908   2.152
51950W        W24265  28.717  38.792  10.298
51951W        W24266  12.258  19.173   4.034
51952W        W24267  17.526   5.235  11.175
51953W        W24268  26.090  27.646  13.062
51954W        W24269  37.312  34.075  10.751
51955W        W24270  41.917   3.971  14.959
51956W        W24271  19.252  41.321   0.441
51957W        W24272  35.018  20.655   3.339
51958W        W24273  40.293  14.704  13.180
51959W        W24274  38.094   8.366  11.965
51960W        W24275   3.855  26.727  14.583
51961W        W24276  40.598  34.128  13.998
51962W        W24277  22.669  28.580  12.550
51963W        W24278  14.580  17.605  13.240
51964W        W24279  15.298  37.805   3.206
51965W        W24280  42.941  23.392  11.611
51966W        W24281  25.633  15.756  13.903
51967W        W24282   3.331  44.828   4.623
51968W        W24283  32.681  25.145  11.409
51969W        W24284   4.847  14.261   1.002
51970W        W24285  17.855  34.634  13.325
51971W        W24286  43.660   9.396  14.343
51972W        W24287  24.071   8.718  14.570
51973W        W24288  29.613  40.075   4.752
51974W        W24289  22.355  14.629  12.029
51975W        W24290  33.447   5.225  12.105
51976W        W24291  20.050  31.671  10.875
51977W        W24292  22.821  40.008   0.494
51978W        W24293  33.161  21.277   1.785
51979W        W24294   1.410  25.425  12.011
51980W        W24295  25.582  25.688  14.705
51981W        W24296   8.161  40.069   0.773
51982W        W24297  15.893  15.720  10.980
51983W        W24298  37.947  32.513   4.169
51984W        W24299  43.855  38.640   3.734
51985W        W24300  43.481  23.978   3.290
51986W        W24301  15.636  20.309   1.751
51987W        W24302  35.872  44.394   2.471
51988W        W24303  19.148  14.269  10.875
51989W        W24304  14.724  19.827  12.449
51990W        W24305  10.180  33.661  12.656
51991W        W24306  33.955   1.718  11.565
51992W        W24307  20.832  31.394   1.132
51993W        W24308   3.935   9.460   4.568
51994W        W24309   8.395  38.365  13.151
51995W        W24310  30.012  32.427  12.510
51996W        W24311  28.198  24.188  10.349
51997W        W24312   6.859  23.953  13.946
51998W        W24313  26.447  19.190   2.252
51999W        W24314  37.022   1.697  10.952
52000W        W24315  20.708  21.522  14.141
52001W        W24316  14.263   8.779  14.529
52002W        W24317  25.246   1.136   4.649
52003W        W24318   1.682   1.515   2.210
52004W        W24319  36.816   8.620   1.042
52005W        W24320  11.356  20.972   3.702
52006W        W24321  40.359  26.646   3.671
52007W        W24322  15.697  10.615  11.438
52008W        W24323   6.458  32.116  11.522
52009W        W24324   3.559   0.299   0.778
52010W        W24325  39.045  44.532   2.669
52011W        W24326   9.822  32.996   3.107
52012W        W24327  10.687  22.712  14.456
52013W        W24328  35.001  37.940  11.044
52014W        W24329  22.035  14.394  14.736
52015W        W24330   8.905  44.515   0.346
52016W        W24331  17.135  20.845  10.121
52017W        W24332  25.225  34.369   0.425
52018W        W24333  19.300  20.485   4.198
52019W        W24334  40.438  29.237   1.377
52020W        W24335  39.824   1.326   2.222
52021W        W24336  21.083  26.393   0.860
52022W        W24337  17.275   7.936   2.093
52023W        W24338  18.024  35.841   3.636
52024W        W24339  18.024  43.493  11.218
52025W        W24340   4.922  11.449   2.262
52026W        W24341  42.771  12.645  14.881
52027W        W24342  26.637  10.417   1.213
52028W        W24343   5.047  31.468   0.299
52029W        W24344  21.471  42.520  11.919
52030W        W24345  21.093  20.421  11.607
52031W        W24346  15.325   5.378  13.973
52032W        W24347  10.204   6.206  13.373
52033W        W24348  11.526  16.730  13.903
52034W        W24349  30.937  25.970  12.393
52035W        W24350   6.259  22.962   3.747
52036W        W24351  31.143   9.312   4.383
52037W        W24352  22.700  26.934  10.650
52038W        W24353  38.365  29.383  14.761
52039W        W24354  17.281  42.307   3.271
52040W        W24355  24.592  31.466   0.876
52041W        W24356  32.013  12.130   1.311
52042W        W24357  16.190   3.429   2.169
52043W        W24358   2.965  41.535  12.367
52044W        W24359  24.772   8.899  13.351
52045W        W24360  33.298   7.937  10.671
52046W        W24361  34.052  26.539   4.561
52047W        W24362  17.327  10.767   3.679
52048W        W24363  23.783  11.396  12.000
52049W        W24364  27.028   6.292  14.871
52050W        W24365   8.318  17.411   3.090
52051W        W24366  22.719  25.108  13.069
52052W        W24367  20.312  14.721  14.428
52053W        W24368   1.816  25.481   3.266
52054W        W24369  34.782   8.196   2.342
52055W        W24370   6.796  15.948   1.290
52056W        W24371   6.972  11.589   0.731
52057W        W24372  24.527  25.796   0.892
52058W        W24373  24.772  18.393   2.943
52059W        W24374  19.508  28.956   3.731
52060W        W24375  12.899  32.404  11.478
52061W        W24376  34.818  17.007   3.319
52062W        W24377   6.312  13.287   1.907
52063W        W24378  22.118  40.844  11.639
52064W        W24379  19.202   2.530   0.834
52065W        W24380  43.357  21.026   4.941
52066W        W24381  16.497  27.635  13.778
52067W        W24382  14.860   7.737  14.926
52068W        W24383  20.299  42.790   1.137
52069W        W24384   4.556   6.575   3.177
52070W        W24385   1.581  30.051   1.885
52071W        W24386   3.745  18.873  11.794
52072W        W24387  44.397  28.711   2.838
52073W        W24388   3.658   4.485   4.436
52074W        W24389   0.937  27.028   0.739
52075W        W24390  38.856  42.253   3.277
52076W        W24391  23.089   1.874   4.450
52077W        W24392   4.459   8.925   1.371
52078W        W24393  12.149  10.916   3.324
52079W        W24394  38.541  36.446  13.078
52080W        W24395  10.705  42.577   0.290
52081W        W24396   3.683  40.961  13.052
52082W        W24397  29.596  21.101   0.018
52083W        W24398  38.100  29.578   3.111
52084W        W24399   6.451  20.286  12.736
52085W        W24400  41.966  19.268  10.575
52086W        W24401  38.168   2.768   2.223
52087W        W24402  22.599  38.525  12.832
52088W        W24403  28.077  22.109  11.964
52089W        W24404  12.170   1.483  14.840
52090W        W24405  44.225   3.359   2.426
52091W        W24406  40.106  25.991  12.699
52092W        W24407   1.743  35.521   5.508
52093W        W24408   4.389  35.348  13.866
52094W        W24409  10.156   3.207  10.599
52095W        W24410  44.758   1.280   1.466
52096W        W24411  10.859  41.503  11.002
52097W        W24412  11.211  18.220  12.402
52098W        W24413  33.548   1.755   0.488
52099W        W24414  41.499   8.154   2.243
52100W        W24415   5.973  27.502  10.743
52101W        W24416  20.267  11.148  11.002
52102W        W24417  40.454  30.641  13.462
52103W        W24418   0.383  28.356   3.412
52104W        W24419  20.125  33.165  13.439
52105W        W24420  29.073  12.629  11.510
52106W        W24421  42.879  31.366   2.740
52107W        W24422   0.222  17.276  14.084
52108W        W24423  38.207  22.531   0.842
52109W        W24424  32.742  23.054   1.721
52110W        W24425  42.262  15.262   1.259
52111W        W24426  14.637  23.169  12.390
52112W        W24427  33.842  40.752   2.660
52113W        W24428   6.670   4.847   0.707
52114W        W24429  36.039  43.274   0.903
52115W        W24430  40.130   7.589  11.013
52116W        W24431  22.731   0.249   4.123
52117W        W24432  20.813  25.934  12.527
52118W        W24433   4.244  38.793   3.777
52119W        W24434   6.354  24.988  14.464
52120W        W24435  40.527  42.483   1.237
52121W        W24436  24.527  14.807   0.324
52122W        W24437  27.346  11.802   4.353
52123W        W24438  35.525  11.122   3.632
52124W        W24439  35.926  36.882  12.490
52125W        W24440  42.861  11.669  10.528
52126W        W24441  21.133   6.255   3.730
52127W        W24442  26.138  44.103   3.363
52128W        W24443  24.226   1.422   2.771
52129W        W24444   0.970  30.526   1.131
52130W        W24445  17.200  37.034  12.982
52131W        W24446   8.150  39.052   2.218
52132W        W24447  14.155  41.754  14.286
52133W        W24448  37.077  35.379   3.150
52134W        W24449  39.589  16.231   2.382
52135W        W24450   8.409  20.719   3.721
52136W        W24451  32.808  31.145   3.614
52137W        W24452  21.183  10.318   3.964
52138W        W24453  27.603  21.481   4.188
52139W        W24454  17.642  39.907  10.790
52140W        W24455  22.140  11.452   4.139
52141W        W24456  31.226  11.622  12.633
52142W        W24457  30.018  13.330   1.265
52143W        W24458  23.654  33.369  10.818
52144W        W24459  40.345  24.231  14.322
52145W        W24460  14.658  20.475  13.601
52146W        W24461  13.434  22.544   3.237
52147W        W24462  25.179   9.899  10.911
52148W        W24463  33.150  37.853  10.680
52149W        W24464  28.938  19.700  11.252
52150W        W24465   3.890  15.333  13.448
52151W        W24466  44.412  17.675   4.882
52152W        W24467  38.454  38.989   4.525
52153W        W24468  15.073  32.239   4.122
52154W        W24469  28.908  36.291  10.355
52155W        W24470  15.786  22.617  13.649
52156W        W24471   2.058  41.810   3.312
52157W        W24472  11.940  28.143  13.354
52158W        W24473  33.831   2.649   0.267
52159W        W24474  32.274  21.526   4.692
52160W        W24475   1.376  21.659   4.285
52161W        W24476  42.294  15.767   0.981
52162W        W24477  19.101  26.558  10.556
52163W        W24478   0.064  44.440  10.619
52164W        W24479  40.999  26.190  12.555
52165W        W24480  13.683  39.875  14.477
52166W        W24481  34.537  40.543   3.663
52167W        W24482  37.440  14.811   0.000
52168W        W24483  22.239   5.366   3.554
52169W        W24484   2.984   8.890   3.112
52170W        W24485  17.789   4.643   0.971
52171W        W24486  18.576  29.569  11.115
52172W        W24487  14.321  21.785   2.400
52173W        W24488  13.674   0.451  10.656
52174W        W24489  14.318   5.887   2.733
52175W        W24490  33.981  32.894   2.777
52176W        W24491  41.416   6.631  14.960
52177W        W24492  31.077   7.452  11.897
52178W        W24493  25.759   0.603  10.201
52179W        W24494  42.860  11.377  11.494
52180W        W24495  19.169   6.386   4.092
52181W        W24496  17.215  10.612   3.172
52182W        W24497  12.348  15.167  14.355
52183W        W24498  19.260   9.457  14.036
52184W        W24499  35.872  34.119  10.860
52185W        W24500  31.658  26.233   4.249
52186W        W24501  24.551  12.315   1.333
52187W        W24502  38.366   8.433   1.818
52188W        W24503  17.404  39.526  12.685
52189W        W24504  41.828  23.969  13.459
52190W        W24505  28.946  18.303  12.431
52191W        W24506   7.985  25.893   4.305
52192W        W24507   7.631  40.920   4.500
52193W        W24508  11.681  42.540  12.022
52194W        W24509  37.561   5.244   4.670
52195W        W24510  38.553  13.386  14.454
52196W        W24511  30.419  13.688  10.966
52197W        W24512  10.728   2.219   1.612
52198W        W24513  27.131  35.401   4.047
52199W        W24514  37.731  12.952  14.779
52200W        W24515  24.261  23.961   4.241
52201W        W24516  33.111  39.974   0.422
52202W        W24517  16.403  14.299  10.669
52203W        W24518  26.163   8.842  12.607
52204W        W24519  13.632  23.012   3.274
52205W        W24520  21.523  24.651   2.664
52206W        W24521   8.565  40.010  12.622
52207W        W24522   5.465  39.968  10.523
52208W        W24523  40.049  30.696   1.711
52209W        W24524  21.113  40.428  13.851
52210W        W24525  14.589  17.586  11.927
52211W        W24526  22.730  15.760  13.891
52212W        W24527  25.461   3.704   2.808
52213W        W24528  37.610  44.349   2.474
52214W        W24529  36.637  18.329  11.939
52215W        W24530  44.360  32.565   0.052
52216W        W24531  12.904   2.777  11.088
52217W        W24532  41.242  20.213   0.269
52218W        W24533  35.794  30.121  10.492
52219W        W24534  41.288  35.445   4.178
52220W        W24535   3.442  38.504  14.457
52221W        W24536  12.236  32.357  14.747
52222W        W24537  41.755   7.234  11.937
52223W        W24538  26.659  44.443  10.716
52224W        W24539  39.616  31.674  14.493
52225W        W24540   9.741  36.128  11.140
52226W        W24541  16.625   1.421  14.443
52227W        W24542  24.017  30.486  11.504
52228W        W24543  24.562  42.926   2.663
52229W        W24544  42.124  26.844   0.929
52230W        W24545  17.993  24.109  12.989
52231W        W24546   2.235  21.957  12.471
52232W        W24547  34.655  15.667   2.273
52233W        W24548  13.750  14.056  12.381
52234W        W24549  20.891  10.908   2.335
52235W        W24550  36.544  23.993  13.797
52236W        W24551   1.376  26.494   4.582
52237W        W24552  35.032   7.215  11.462
52238W        W24553  42.757  16.609  13.934
52239W        W24554  14.189  36.308   4.570
52240W        W24555  28.596   0.085   2.759
52241W        W24556   7.517  29.560  11.454
52242W        W24557  35.423   1.804  13.558
52243W        W24558  38.094  37.015  10.996
52244W        W24559  30.663  21.603  11.657
52245W        W24560  31.034   1.787  13.504
52246W        W24561  27.437  11.167   3.755
52247W        W24562  27.851  26.292  14.934
52248W        W24563  31.119   5.176   3.647
52249W        W24564  13.165   4.546   1.921
52250W        W24565   2.353  28.611   0.961
52251W        W24566  36.908  43.440  11.709
52252W        W24567  32.432  42.374   0.261
52253W        W24568   8.725   6.144   2.001
52254W        W24569  10.369   6.018   3.381
52255W        W24570  16.467  15.155   1.377
52256W        W24571  12.244  17.071  13.560
52257W        W24572  38.145   0.364  14.881
52258W        W24573   6.442   6.751  14.434
52259W        W24574  23.100  18.481   5.553
52260W        W24575   2.265  12.130  10.210
52261W        W24576  17.166  30.071  11.958
52262W        W24577   4.481  12.545   1.229
52263W        W24578  41.519  40.091  10.725
52264W        W24579   2.773   3.239   4.625
52265W        W24580  29.544  30.195  14.500
52266W        W24581  41.585  27.445  13.070
52267W        W24582   8.874  29.907  12.018
52268W        W24583   9.148  41.860   2.589
52269W        W24584  11.211  28.336  14.518
52270W        W24585  37.170  16.691  12.778
52271W        W24586  38.522  27.533  13.001
52272W        W24587  44.436   1.831   0.219
52273W        W24588  18.834   7.439  12.701
52274W        W24589  13.248  30.974   3.172
52275W        W24590   6.335   6.345   0.879
52276W        W24591  14.333  14.277  10.683
52277W        W24592  32.565  12.148  10.703
52278W        W24593  30.640  20.348   1.809
52279W        W24594   7.374   9.588   1.466
52280W        W24595  32.034  38.028   0.740
52281W        W24596   9.131   5.834   0.964
52282W        W24597  43.762  18.332   3.185
52283W        W24598  12.265  31.127   0.284
52284W        W24599  27.522  33.670   1.693
52285W        W24600  23.094  42.574   4.083
52286W        W24601  38.741  25.488   9.830
52287W        W24602  20.763  35.183   2.947
52288W        W24603  18.289  24.633   4.865
52289W        W24604  37.571  15.279  10.719
52290W        W24605   8.460  39.206   5.044
52291W        W24606  14.327  29.614   0.751
52292W        W24607  44.401  24.502  12.218
52293W        W24608  32.008  40.839   1.756
52294W        W24609  30.386  11.877   0.339
52295W        W24610  12.710  20.859  10.714
52296W        W24611  37.336  38.158  14.461
52297W        W24612  19.107  40.301  11.140
52298W        W24613  32.460  28.042  14.528
52299W        W24614   4.255  17.099  12.582
52300W        W24615  13.070  14.611   4.166
52301W        W24616  21.034  16.101  11.995
52302W        W24617  33.538  33.216  13.894
52303W        W24618   7.824  39.015  10.672
52304W        W24619  33.223  27.170  12.922
52305W        W24620  38.835  40.236  10.445
52306W        W24621  13.597  25.114  13.843
52307W        W24622  15.027   8.012   0.816
52308W        W24623  31.199  42.873   3.753
52309W        W24624  38.534  17.211  12.321
52310W        W24625  19.624  18.194  12.978
52311W        W24626  12.306  11.421  14.528
52312W        W24627  30.888  31.855   4.141
52313W        W24628  14.771   9.416   0.613
52314W        W24629  17.791  38.463  12.346
52315W        W24630  39.356  22.349  13.451
52316W        W24631  30.235  11.817   1.357
52317W        W24632  24.480   7.815   1.350
52318W        W24633  16.730  10.059  12.453
52319W        W24634   5.908  18.599   1.925
52320W        W24635  28.980  32.187   3.177
52321W        W24636  38.950  43.504   4.778
52322W        W24637  31.805   3.909  12.385
52323W        W24638   8.884  12.167  11.533
52324W        W24639  13.201  10.876   1.287
52325W        W24640   3.659  37.918  11.368
52326W        W24641  22.528  15.051  14.240
52327W        W24642  36.041  36.016  11.991
52328W        W24643  27.119  33.219  12.039
52329W        W24644  27.458  10.908   4.269
52330W        W24645  26.770  31.437  12.617
52331W        W24646   1.527  39.392   2.181
52332W        W24647   6.326  22.550  11.908
52333W        W24648   5.116  15.663  12.551
52334W        W24649  28.659  33.299   1.441
52335W        W24650   8.631  14.546  14.737
52336W        W24651  35.864  40.217  11.044
52337W        W24652  22.746   0.252   0.767
52338W        W24653  14.280  40.286   1.859
52339W        W24654  42.873  44.894   2.618
52340W        W24655  17.784  26.277  13.976
52341W        W24656  42.109  33.901   2.787
52342W        W24657  23.537  40.425  12.996
52343W        W24658  35.650  18.660   4.509
52344W        W24659  12.054  12.207   1.322
52345W        W24660  28.489  31.940   9.786
52346W        W24661  14.667   1.441   2.314
52347W        W24662   8.569  12.641  14.387
52348W        W24663  44.245  12.178  12.079
52349W        W24664  23.575  35.461   2.704
52350W        W24665  33.053   6.274   0.402
52351W        W24666  17.722   7.697   4.329
52352W        W24667  23.207   1.943  11.564
52353W        W24668   8.858   6.536   1.608
52354W        W24669  21.415  17.661   4.608
52355W        W24670  35.118  39.001   0.470
52356W        W24671  25.500  22.647   0.567
52357W        W24672  21.704   7.881  10.697
52358W        W24673  26.671  37.271  10.376
52359W        W24674  14.563  32.251   1.028
52360W        W24675  16.775  31.891  13.491
52361W        W24676  26.834   9.949   3.710
52362W        W24677  22.562  20.551  13.811
52363W        W24678  15.285   0.779  10.556
52364W        W24679  10.137  40.981  12.279
52365W        W24680   8.935  14.579   4.153
52366W        W24681  30.852   5.814   4.080
52367W        W24682  22.554  13.163  13.112
52368W        W24683   2.881  17.135  13.898
52369W        W24684  35.115  44.837   4.434
52370W        W24685  43.718  36.910   4.065
52371W        W24686   1.490  21.261   4.842
52372W        W24687  39.815  36.327  14.470
52373W        W24688   4.778  20.992   3.372
52374W        W24689  30.165   2.049  14.555
52375W        W24690  42.920  32.006  14.761
52376W        W24691  43.390   7.182   2.558
52377W        W24692  33.525  14.044   3.807
52378W        W24693  21.699  43.052  12.970
52379W        W24694  10.316   1.807  12.661
52380W        W24695   7.971  22.046   0.320
52381W        W24696  14.325  41.386  13.447
52382W        W24697  19.121  33.418  12.052
52383W        W24698  37.669  32.827   0.835
52384W        W24699  44.953  39.001   1.007
52385W        W24700  44.501   3.124   3.262
52386W        W24701   0.553  33.560  10.666
52387W        W24702  34.548   9.061   3.828
52388W        W24703  37.990  36.325   0.393
52389W        W24704  17.307  18.112  11.535
52390W        W24705  27.953  38.984   0.050
52391W        W24706   1.463   5.301  10.871
52392W        W24707   6.827   6.392   4.151
52393W        W24708  13.090  10.830   3.554
52394W        W24709  12.424  19.675   0.022
52395W        W24710  33.280  30.682  12.539
52396W        W24711  34.326   9.296  11.134
52397W        W24712  41.878  13.765  14.572
52398W        W24713  33.649  28.505  12.886
52399W        W24714  19.232  44.661   2.329
52400W        W24715  37.576  13.729  13.427
52401W        W24716   9.555  31.697   0.864
52402W        W24717  24.491  31.464   0.374
52403W        W24718  26.496   7.230   2.751
52404W        W24719  43.250  26.633   0.025
52405W        W24720  29.246  21.063  11.956
52406W        W24721  21.675  25.489   3.377
52407W        W24722  37.939  19.147   4.922
52408W        W24723  28.870   1.317   2.200
52409W        W24724   2.518  38.468   1.443
52410W        W24725  24.782  12.457  13.967
52411W        W24726  41.274  28.170   2.167
52412W        W24727  21.716  30.444   4.594
52413W        W24728  33.330  18.795  11.117
52414W        W24729  22.186   1.271   1.207
52415W        W24730  30.168   1.916   2.469
52416W        W24731  11.301  16.749   3.360
52417W        W24732  24.410  29.449  14.784
52418W        W24733  21.336  32.881  14.752
52419W        W24734  26.536  44.370  13.031
52420W        W24735   8.189   8.177  13.090
52421W        W24736  15.207  18.715  11.973
52422W        W24737   7.953  34.835   0.712
52423W        W24738  23.433  13.626  11.876
52424W        W24739  39.425  12.723  13.371
52425W        W24740  41.890  40.326   3.838
52426W        W24741  15.836  34.089   4.040
52427W        W24742  15.826  11.798   1.975
52428W        W24743   1.869  27.666   4.762
52429W        W24744   2.460  16.660   3.769
52430W        W24745  12.122   6.749  10.613
52431W        W24746  29.165   3.423  11.595
52432W        W24747  13.308   7.900  12.348
52433W        W24748  13.403   0.897   0.631
52434W        W24749   2.374  34.274   0.990
52435W        W24750  19.754  23.880  12.175
52436W        W24751  19.952   5.206   0.817
52437W        W24752  23.530  22.392  10.246
52438W        W24753  15.876  12.769  14.377
52439W        W24754  16.332   6.795  11.555
52440W        W24755  25.342  23.670   2.852
52441W        W24756  29.664  14.706   4.679
52442W        W24757  35.467  35.755   4.159
52443W        W24758  43.274  32.627   3.215
52444W        W24759   4.852   8.891  13.258
52445W        W24760  40.533  35.625   3.806
52446W        W24761  42.147   8.565  12.447
52447W        W24762  22.523  21.453   0.230
52448W        W24763  23.728  27.509   1.556
52449W        W24764  12.560  34.400  11.635
52450W        W24765  27.169  39.260  11.196
52451W        W24766   4.820  36.009   2.362
52452W        W24767   5.682  15.187   2.265
52453W        W24768  24.140  30.466  12.454
52454W        W24769  37.475  44.667  12.069
52455W        W24770  42.279  43.766   2.631
52456W        W24771  30.854  22.304  14.093
52457W        W24772  41.023  25.032   0.462
52458W        W24773  29.127  22.431   1.277
52459W        W24774  25.146  26.425  10.665
52460W        W24775  40.263  23.293  11.675
52461W        W24776  22.168  39.230  14.985
52462W        W24777  22.517  36.915  11.487
52463W        W24778  37.372  10.251   4.934
52464W        W24779  26.366  17.648   1.177
52465W        W24780  26.635  42.028   4.600
52466W        W24781   5.319  26.156  13.790
52467W        W24782   8.811  21.477  11.426
52468W        W24783   3.444  37.821   5.036
52469W        W24784  26.287   7.276   4.525
52470W        W24785  14.386  11.129  12.996
52471W        W24786  22.016  28.130  11.475
52472W        W24787  17.532  27.006   4.255
52473W        W24788   8.756  17.510   3.724
52474W        W24789  18.611  25.732   1.884
52475W        W24790   1.996  33.942   3.766
52476W        W24791   1.184  41.945  14.556
52477W        W24792  26.873  11.259   1.466
52478W        W24793   6.937   8.792   3.134
52479W        W24794  44.515  13.820  11.679
52480W        W24795  42.858   7.966   2.805
52481W        W24796  44.766   0.883  11.844
52482W        W24797  22.458  21.457   1.218
52483W        W24798  36.081  20.776   0.729
52484W        W24799  30.945  20.628   3.271
52485W        W24800  11.909  35.916   2.183
52486W        W24801   2.395  29.380  11.996
52487W        W24802  13.621  44.554   2.754
52488W        W24803  35.041  10.688  13.739
52489W        W24804  27.068  30.606   0.038
52490W        W24805  12.274  25.209   2.863
52491W        W24806  18.136   0.560  14.001
52492W        W24807   2.875  25.478   3.943
52493W        W24808  11.956  37.593  13.317
52494W        W24809  19.714  38.231  11.973
52495W        W24810  24.654  13.385   3.709
52496W        W24811  19.912  20.972  13.841
52497W        W24812   7.708  22.359   2.754
52498W        W24813  39.104  44.544  10.987
52499W        W24814  18.111   5.372   2.291
52500W        W24815   0.784   6.448  13.414
52501W        W24816  37.896  16.832  10.750
52502W        W24817   4.481  29.746  10.462
52503W        W24818  20.423  39.055  12.894
52504W        W24819  14.110  15.535   2.280
52505W        W24820  18.055  30.536  13.119
52506W        W24821  16.365   5.132   3.666
52507W        W24822  26.892  10.719  13.377
52508W        W24823   3.707   3.745   4.689
52509W        W24824   6.217  42.568   0.784
52510W        W24825   8.392  27.600  10.710
52511W        W24826  25.081  28.426   1.267
52512W        W24827  16.834  28.036  10.264
52513W        W24828  41.922   2.242   0.508
52514W        W24829   5.616  44.007  11.396
52515W        W24830   6.774  23.131   4.654
52516W        W24831  27.291   5.783   0.745
52517W        W24832  10.572  42.879  10.613
52518W        W24833   7.956  24.734  11.212
52519W        W24834   9.837  37.593   2.227
52520W        W24835  21.864  25.167   4.329
52521W        W24836  19.085  25.489   1.750
52522W        W24837  41.023  29.194  13.807
52523W        W24838   3.460  24.571  12.441
52524W        W24839  19.175  33.195  13.384
52525W        W24840   9.087   5.316  10.455
52526W        W24841  35.598   5.983  13.335
52527W        W24842  35.691  26.483  10.878
52528W        W24843  35.350   3.060  14.258
52529W        W24844  24.705  18.801   0.807
52530W        W24845  22.465  13.243   1.229
52531W        W24846   4.847  27.092   0.445
52532W        W24847  16.762  16.838   1.260
52533W        W24848  33.615   8.148   1.680
52534W        W24849   9.015  35.311   3.475
52535W        W24850  15.136  32.947   4.955
52536W        W24851  18.016  24.736   1.835
52537W        W24852  27.771   0.146  11.203
52538W        W24853   2.440  40.674   2.466
52539W        W24854  23.180   9.743  13.541
52540W        W24855  30.491  43.471  14.907
52541W        W24856  36.067   7.354   4.556
52542W        W24857  19.712  15.018  11.076
52543W        W24858   2.054  37.440  14.759
52544W        W24859  23.218   0.819   1.724
52545W        W24860  17.093   7.948  14.008
52546W        W24861   3.348  29.823  11.986
52547W        W24862  10.784  10.404   4.077
52548W        W24863  33.407  18.508  12.507
52549W        W24864   9.099  16.805  11.436
52550W        W24865   5.192   0.515  11.618
52551W        W24866  18.153  36.493   1.107
52552W        W24867  27.865  20.563   3.737
52553W        W24868  25.913  15.627   2.189
52554W        W24869  39.617  42.668  11.551
52555W        W24870  30.761  28.596  13.894
52556W        W24871  24.170  38.298   1.259
52557W        W24872  36.957   2.687  14.003
52558W        W24873  34.787  25.662  13.494
52559W        W24874  43.372  31.891   0.002
52560W        W24875  18.223  12.532  12.045
52561W        W24876  14.057  44.429   0.412
52562W        W24877  19.234  11.144  11.093
52563W        W24878  44.485  20.003   0.845
52564W        W24879  22.338  19.213   2.792
52565W        W24880  19.154  23.750   2.800
52566W        W24881   4.929  13.404  10.784
52567W        W24882  38.947  15.384  10.900
52568W        W24883  11.259  14.327   0.041
52569W        W24884  12.306   1.512   3.327
52570W        W24885  31.440  40.045   3.145
52571W        W24886  34.943  26.162  13.628
52572W        W24887  35.676   9.907   2.701
52573W        W24888  43.406  16.112   1.658
52574W        W24889  23.199  35.572  10.451
52575W        W24890  35.587  20.164   0.041
52576W        W24891  13.431   8.613   2.802
52577W        W24892  20.521   7.821  14.106
52578W        W24893  43.515  26.563   2.686
52579W        W24894   5.312  24.628   0.760
52580W        W24895  13.046  18.641   1.497
52581W        W24896  13.098  15.327   3.269
52582W        W24897  15.376   3.455  11.094
52583W        W24898  27.122  32.962   5.039
52584W        W24899  24.442  27.426   2.732
52585W        W24900  18.694  31.380   1.258
52586W        W24901  33.465   5.818  11.455
52587W        W24902   6.462  16.987   4.865
52588W        W24903  44.316  43.321  12.100
52589W        W24904  21.983   9.493  14.358
52590W        W24905  17.037  41.860   4.736
52591W        W24906  22.206  16.423  11.066
52592W        W24907  31.133  43.234  13.491
52593W        W24908  12.648  33.520   4.149
52594W        W24909   6.407  43.671   2.753
52595W        W24910  38.259   6.851   4.151
52596W        W24911  11.770   5.760   2.309
52597W        W24912  34.428   2.534  11.535
52598W        W24913  34.196  33.486  13.519
52599W        W24914  41.077   7.643   3.277
52600W        W24915  17.042   1.938  12.047
52601W        W24916   3.134  12.280   4.172
52602W        W24917   6.322  43.782  13.142
52603W        W24918  31.210  44.478   0.251
52604W        W24919  13.569   7.278   2.675
52605W        W24920  18.488   2.750  11.686
52606W        W24921  35.766   8.809   3.175
52607W        W24922   6.913  23.220   2.452
52608W        W24923  16.193  40.838  14.511
52609W        W24924  29.985  24.766  15.000
52610W        W24925  10.312  34.131   4.160
52611W        W24926   7.204   0.929  13.366
52612W        W24927  37.880  39.052   2.680
52613W        W24928  21.348   8.161  11.656
52614W        W24929   4.440  31.875  14.591
52615W        W24930  44.780  10.861   3.568
52616W        W24931  39.067  23.118   9.761
52617W        W24932  28.887   9.646  11.402
52618W        W24933  17.995   1.256  14.965
52619W        W24934   7.434  19.580   4.752
52620W        W24935   2.887  31.694   3.683
52621W        W24936  25.905   3.992   2.738
52622W        W24937  29.640  44.491   2.255
52623W        W24938  41.768  13.154   2.112
52624W        W24939  26.583  21.895  13.348
52625W        W24940   4.236   5.491   1.685
52626W        W24941   9.666  39.952  12.574
52627W        W24942  32.832  28.158   0.403
52628W        W24943  44.550  10.972   3.132
52629W        W24944  28.517  19.893  14.971
52630W        W24945  29.164  30.835   3.715
52631W        W24946   4.465  17.658   1.249
52632W        W24947  22.661  10.240   1.444
52633W        W24948  41.449  37.130  11.999
52634W        W24949  13.131   7.744   1.814
52635W        W24950  11.814  20.233  13.254
52636W        W24951  39.713  33.710  12.010
52637W        W24952  32.568   0.840  14.241
52638W        W24953  21.794  31.156  13.503
52639W        W24954  28.570  27.431   4.316
52640W        W24955  27.762  20.230  11.080
52641W        W24956   0.504  16.268   0.219
52642W        W24957  32.531  34.342  11.133
52643W        W24958  23.286  30.550  12.107
52644W        W24959  21.178  42.807   4.217
52645W        W24960  32.595  37.933  13.970
52646W        W24961  23.848  30.048   4.933
52647W        W24962  24.516   1.295  14.798
52648W        W24963  36.852   7.836  11.088
52649W        W24964  36.446   7.474   4.146
52650W        W24965   6.635  28.140   0.012
52651W        W24966   1.378  34.432  14.430
52652W        W24967  30.715  10.120   2.780
52653W        W24968  24.116  19.750   3.307
52654W        W24969  44.743  18.673   0.392
52655W        W24970  39.633  13.078   3.883
52656W        W24971   3.897  13.400  10.687
52657W        W24972  17.805  14.060   2.855
52658W        W24973  28.972  12.181  11.003
52659W        W24974  30.913  36.858  12.288
52660W        W24975  25.915  36.498  13.383
52661W        W24976  18.379  33.862   3.688
52662W        W24977  14.011   1.885  11.801
52663W        W24978   8.339  26.129   3.521
52664W        W24979   6.748  18.587  13.442
52665W        W24980  22.974  30.556   1.303
52666W        W24981  38.631   2.385  14.445
52667W        W24982  12.214  35.839   3.113
52668W        W24983  18.718  11.121   4.110
52669W        W24984  15.634  13.158   0.366
52670W        W24985  24.485  32.614  14.995
52671W        W24986  37.393  21.695  14.798
52672W        W24987  13.145  20.528  11.556
52673W        W24988  38.510  38.747   1.669
52674W        W24989  12.624   3.150  10.323
52675W        W24990   2.312  27.639   2.270
52676W        W24991  26.435  13.205  14.860
52677W        W24992  41.096  43.076  10.253
52678W        W24993   2.380  23.873  13.898
52679W        W24994  20.977  10.160  13.038
52680W        W24995  42.374  37.989  13.560
52681W        W24996  22.147  16.682   1.512
52682W        W24997  18.894  17.704  12.822
52683W        W24998   9.652  35.831  12.810
52684W        W24999  39.488  39.072   3.734
52685W        W25000   1.234  18.815  11.911
52686W        W25001   5.694  10.505   1.017
52687W        W25002  36.088   3.333   0.432
52688W        W25003   4.486   9.323  10.632
52689W        W25004  43.876  32.749  14.887
52690W        W25005  33.400  38.342   1.354
52691W        W25006   0.208  15.644  11.715
52692W        W25007  15.952  13.420   4.524
52693W        W25008   5.395   0.812  10.481
52694W        W25009  43.322  25.474   4.214
52695W        W25010  17.074   0.779  12.604
52696W        W25011  11.417  20.043   2.207
52697W        W25012  37.028  23.457   5.026
52698W        W25013  32.604  28.580   3.244
52699W        W25014  12.956  45.000   4.256
52700W        W25015  23.131  40.429   0.497
52701W        W25016  37.994  36.732   4.934
52702W        W25017  31.498  10.570  13.131
52703W        W25018   6.035  25.692   0.397
52704W        W25019  21.612  14.242  10.613
52705W        W25020  13.517   1.018  14.910
52706W        W25021  22.916  37.299   0.117
52707W        W25022  26.601  40.811   2.232
52708W        W25023   9.196  27.997  10.709
52709W        W25024  37.869  25.800  10.111
52710W        W25025  37.659   2.266  14.492
52711W        W25026  35.882  19.196  14.418
52712W        W25027  24.992  33.122  11.505
52713W        W25028   6.875  16.828   4.578
52714W        W25029  12.436  22.522  14.820
52715W        W25030  13.270   0.995   1.516
52716W        W25031  41.439  31.797  11.490
52717W        W25032   0.980  16.263  13.250
52718W        W25033  38.373  34.068   1.733
52719W        W25034  11.597  14.744  12.992
52720W        W25035  17.075   9.667   2.159
52721W        W25036   6.308   4.689  13.473
52722W        W25037  25.214   0.219   0.337
52723W        W25038  24.775  32.059  13.459
52724W        W25039  22.345  36.402   1.251
52725W        W25040  22.483  35.935  12.358
52726W        W25041   5.574  26.213  11.355
52727W        W25042   1.958  13.632  13.852
52728W        W25043  30.923  42.317   4.248
52729W        W25044   7.810  24.020  12.038
52730W        W25045  18.059  30.093   4.208
52731W        W25046  41.158  44.968  13.843
52732W        W25047   6.330  23.723   4.150
52733W        W25048  29.706   9.600  12.059
52734W        W25049  24.303  10.756   2.782
52735W        W25050  32.905   6.011  11.571
52736W        W25051  34.354   2.428   4.653
52737W        W25052  41.850  33.199   0.471
52738W        W25053  17.171  35.976   2.255
52739W        W25054  44.318  13.871   1.786
52740W        W25055  38.827   2.288  14.924
52741W        W25056  10.675  38.069   2.755
52742W        W25057  34.406  19.523  12.642
52743W        W25058  11.143  34.069   4.568
52744W        W25059  19.102   9.150   2.623
52745W        W25060  35.681  14.657   2.885
52746W        W25061  15.120   9.235  10.576
52747W        W25062   3.387   5.159   3.612
52748W        W25063  34.344  22.160  10.539
52749W        W25064   3.451  25.639  11.006
52750W        W25065  38.960  12.368  11.626
52751W        W25066  32.153  30.830   0.295
52752W        W25067  43.785  23.017   3.787
52753W        W25068  38.846  18.119  10.498
52754W        W25069  21.639  32.459  14.018
52755W        W25070  19.508  39.954  14.517
52756W        W25071  36.446  36.521  14.307
52757W        W25072  42.177  40.015   1.774
52758W        W25073  38.341  21.548  13.053
52759W        W25074  17.647  15.677   0.815
52760W        W25075  32.939  40.882  12.919
52761W        W25076  32.033   7.985  13.497
52762W        W25077  29.760  31.637   1.350
52763W        W25078   9.631  38.055  13.424
52764W        W25079  24.259  44.430  13.040
52765W        W25080  38.821   8.379   4.806
52766W        W25081  20.754  40.462  11.869
52767W        W25082  26.540  21.049  11.044
52768W        W25083  28.504  36.791   2.677
52769W        W25084  18.584  22.839  12.089
52770W        W25085  32.409  17.461  14.732
52771W        W25086   0.807  36.138  12.015
52772W        W25087   6.800  27.763  14.350
52773W        W25088  39.526  20.158  11.096
52774W        W25089  12.423  37.263  11.994
52775W        W25090  44.895  22.806   4.265
52776W        W25091  38.328  39.344  14.433
52777W        W25092  15.361  39.519  10.653
52778W        W25093  32.082  37.539  12.507
52779W        W25094  18.026  13.825   1.907
52780W        W25095  42.370   5.698  11.368
52781W        W25096  23.942  28.465  10.751
52782W        W25097  40.412  36.573   4.169
52783W        W25098  29.142   3.515  13.874
52784W        W25099  32.144  24.316  14.389
52785W        W25100  10.358  19.983  12.805
52786W        W25101  36.376   6.602   1.726
52787W        W25102  20.454  35.419  12.956
52788W        W25103  29.114  27.865  14.298
52789W        W25104  18.730  18.270   3.844
52790W        W25105   2.647   8.580   0.613
52791W        W25106  10.262  33.414   2.437
52792W        W25107  28.572  26.917  11.813
52793W        W25108   4.192  34.062   3.204
52794W        W25109   5.927  14.196  14.027
52795W        W25110  22.560   2.578   1.167
52796W        W25111   3.546  39.359  12.381
52797W        W25112  38.302  12.251   3.766
52798W        W25113  13.569  23.273  12.527
52799W        W25114  19.983   4.365   4.101
52800W        W25115  10.935  36.004  11.526
52801W        W25116  20.128  10.162  13.577
52802W        W25117  37.333  25.613   3.673
52803W        W25118  23.922  10.860   3.338
52804W        W25119   2.283  17.631   0.292
52805W        W25120  14.427   8.226   1.811
52806W        W25121  13.174  37.837   4.823
52807W        W25122  11.944  10.187  13.855
52808W        W25123   9.201   6.995   2.442
52809W        W25124  39.918  35.826  12.340
52810W        W25125  17.316   3.876   4.709
52811W        W25126  34.539  19.317   4.513
52812W        W25127  17.056  12.163   1.745
52813W        W25128  42.275  36.482   1.028
52814W        W25129  15.235   4.412  11.989
52815W        W25130  39.644   8.674   1.200
52816W        W25131  24.697   8.500   0.180
52817W        W25132  23.096   5.230   0.533
52818W        W25133  42.950  27.200  11.662
52819W        W25134  40.964   1.990  12.400
52820W        W25135  40.929   5.180  12.972
52821W        W25136  21.716   1.849  12.832
52822W        W25137  21.551   0.389  12.364
52823W        W25138  39.387  38.018   1.453
52824W        W25139  28.570  32.459   3.363
52825W        W25140  13.804  24.892   1.179
52826W        W25141  12.587  24.138   4.116
52827W        W25142   5.083  39.918   2.887
52828W        W25143  14.178  43.349  13.516
52829W        W25144  33.510   6.938  10.658
52830W        W25145  26.221  42.966   0.787
52831W        W25146  14.867  27.501  11.554
52832W        W25147  14.843  30.996   0.491
52833W        W25148  18.200  11.849  11.613
52834W        W25149   3.479  19.746   2.825
52835W        W25150   5.244  20.611   4.632
52836W        W25151   2.455  25.361   1.963
52837W        W25152   9.862  16.186   2.425
52838W        W25153  13.635  22.751  14.235
52839W        W25154  40.099  16.841  11.057
52840W        W25155  43.773   3.459  10.576
52841W        W25156  28.979  37.431  14.727
52842W        W25157  22.274   6.299   4.242
52843W        W25158  13.227  43.410   0.278
52844W        W25159   7.452   4.744   4.105
52845W        W25160  37.803  28.856  13.047
52846W        W25161  38.314   2.295   2.042
52847W        W25162  42.959  20.773   0.320
52848W        W25163  20.021  21.066   2.172
52849W        W25164  11.962   8.760   5.069
52850W        W25165   2.200  44.997   3.889
52851W        W25166  24.980   6.745   1.424
52852W        W25167   8.771  44.599  12.689
52853W        W25168  44.934  20.737   0.001
52854W        W25169  22.280  38.889  12.377
52855W        W25170  11.724   5.846   0.538
52856W        W25171  34.952  25.260   5.118
52857W        W25172  38.940  25.292  13.558
52858W        W25173  20.253   7.803   2.335
52859W        W25174  41.343   5.716  13.376
52860W        W25175  28.430  16.700  14.938
52861W        W25176  33.824  11.307   1.309
52862W        W25177  38.478  37.381  13.510
52863W        W25178  14.461  28.269  13.535
52864W        W25179  27.414  16.277   4.211
52865W        W25180  19.079  17.634   0.784
52866W        W25181  10.437  37.337  13.501
52867W        W25182  14.361  19.142   1.144
52868W        W25183   1.754  26.774  11.955
52869W        W25184  16.829  30.452  14.973
52870W        W25185  34.158   3.111   3.324
52871W        W25186  16.974  31.241  12.504
52872W        W25187   5.473  20.108  11.531
52873W        W25188  31.255  26.017   0.063
52874W        W25189  25.677  16.099  14.417
52875W        W25190  41.683  21.708  12.343
52876W        W25191   0.684  31.442   2.170
52877W        W25192  20.794  37.324   1.991
52878W        W25193  26.816  31.174  10.192
52879W        W25194  14.949  19.537   3.800
52880W        W25195  26.458  17.663   0.283
52881W        W25196  38.292   2.783  13.879
52882W        W25197  17.220  44.339  10.510
52883W        W25198  26.939   1.848   4.564
52884W        W25199  10.098  17.542  11.113
52885W        W25200   1.011   0.208  13.870
52886W        W25201  34.118   9.246   1.503
52887W        W25202  13.700  30.833  14.908
52888W        W25203  41.258   0.356   4.102
52889W        W25204   6.132   9.300   0.954
52890W        W25205  10.843  39.574   3.577
52891W        W25206  34.526  38.765   5.124
52892W        W25207  14.044  36.085  14.556
52893W        W25208  10.078  24.010   3.691
52894W        W25209  42.012  33.379   2.864
52895W        W25210  29.404   9.952  12.372
52896W        W25211   9.264  41.871  14.355
52897W        W25212  21.291   7.772   2.271
52898W        W25213   6.721  12.847  13.575
52899W        W25214   4.083   5.425   0.846
52900W        W25215   9.726  15.627   0.187
52901W        W25216  34.412  38.534  11.096
52902W        W25217  26.173  16.551  14.847
52903W        W25218  28.572  44.567   2.765
52904W        W25219  12.789  31.472  11.990
52905W        W25220  25.546  17.192  14.960
52906W        W25221  43.186  41.678   3.698
52907W        W25222  23.761  39.141   4.185
52908W        W25223   5.180   9.648  11.951
52909W        W25224  44.770  30.554   0.556
52910W        W25225  43.972  27.753   1.282
52911W        W25226  44.696  44.588   4.640
52912W        W25227  13.089   9.374   3.168
52913W        W25228   7.940  23.069   1.625
52914W        W25229  25.097   7.688   3.590
52915W        W25230  24.523  42.993   0.265
52916W        W25231  38.462  20.122   2.690
52917W        W25232  38.884  25.081  11.942
52918W        W25233  33.543  24.422  14.502
52919W        W25234  15.311  26.790  12.620
52920W        W25235   3.100   0.643  14.009
52921W        W25236  12.117  27.601   0.858
52922W        W25237   9.239  36.475   2.710
52923W        W25238  18.696   2.815   0.027
52924W        W25239  28.150  34.327   0.021
52925W        W25240  27.482  28.960   3.179
52926W        W25241   2.878  27.178   1.041
52927W        W25242  41.742  32.076   4.185
52928W        W25243  19.837  43.793   4.126
52929W        W25244   9.356   8.731  11.688
52930W        W25245  18.183  41.360  10.146
52931W        W25246  16.802  17.989  14.400
52932W        W25247  14.314  11.282   3.693
52933W        W25248  14.817  33.350   1.135
52934W        W25249   0.021  35.555  10.645
52935W        W25250  17.022  11.789  14.629
52936W        W25251   3.226  22.500   0.920
52937W        W25252   6.773  15.544  11.182
52938W        W25253   1.987   6.244  11.086
52939W        W25254  31.082  36.961   4.096
52940W        W25255   6.476  24.216   4.113
52941W        W25256  28.725   3.895  11.142
52942W        W25257  15.756  25.181   0.313
52943W        W25258  16.863   1.834  10.690
52944W        W25259  22.357  22.595   4.598
52945W        W25260  17.877  19.080   3.706
52946W        W25261  38.338   8.661  13.396
52947W        W25262  39.005  21.510  13.340
52948W        W25263  29.405  14.775   1.883
52949W        W25264  33.780  38.655   2.199
52950W        W25265  37.906  40.814  12.523
52951W        W25266  39.811  20.876  10.674
52952W        W25267  27.415  32.644   2.889
52953W        W25268  28.162  23.244  12.614
52954W        W25269  21.727  37.757   0.509
52955W        W25270  26.913  10.885   2.346
52956W        W25271   9.664   8.963   0.803
52957W        W25272  18.905  32.553   1.334
52958W        W25273  33.617  17.076  12.629
52959W        W25274  26.624  30.705  10.237
52960W        W25275  30.944  26.441  11.661
52961W        W25276  30.123  36.573   2.756
52962W        W25277  37.903   4.034  12.224
52963W        W25278  22.046  25.220  12.521
52964W        W25279  17.624   7.329   0.083
52965W        W25280  26.900  18.811  12.130
52966W        W25281  33.561   7.155   1.958
52967W        W25282  35.582  42.831  14.977
52968W        W25283  19.548  29.116   4.780
52969W        W25284   8.451  19.530  14.779
52970W        W25285  43.752  37.484   4.548
52971W        W25286   1.263  17.049   2.785
52972W        W25287  26.928  34.352   0.826
52973W        W25288  34.587  34.611  14.129
52974W        W25289  26.935  30.968   9.733
52975W        W25290  21.501   5.298  10.715
52976W        W25291   3.113   6.961   2.141
52977W        W25292  42.327  42.282   1.275
52978W        W25293  13.622  29.955   3.858
52979W        W25294  12.619  22.795  10.568
52980W        W25295   5.970   7.768  14.991
52981W        W25296   6.769  36.028   2.439
52982W        W25297   4.622  35.817  14.899
52983W        W25298   3.467  44.679  12.618
52984W        W25299  15.037   9.191   1.352
52985W        W25300  42.652  32.358  11.136
52986W        W25301  37.018  14.199   1.678
52987W        W25302  31.150  32.454   2.663
52988W        W25303  26.045  18.599   4.745
52989W        W25304  14.066   2.498  12.384
52990W        W25305  11.181  37.998   1.512
52991W        W25306  30.367  13.504   4.002
52992W        W25307  27.530  13.871  10.593
52993W        W25308   1.779  41.257  11.799
52994W        W25309  24.662  21.033   4.597
52995W        W25310  34.876  10.630  12.797
52996W        W25311  22.566  31.221  11.141
52997W        W25312  29.928   8.748   2.745
52998W        W25313  27.446   7.628   0.426
52999W        W25314  37.627  40.387   4.690
53000W        W25315  41.829  33.155   1.437
53001W        W25316   8.677  36.465   1.798
53002W        W25317  18.791  10.796   1.790
53003W        W25318  29.640  14.872  11.611
53004W        W25319   2.908  15.238  14.112
53005W        W25320  31.429   9.346  12.522
53006W        W25321  44.732   3.000  10.437
53007W        W25322  24.480   8.837  12.462
53008W        W25323  38.120  33.459   3.188
53009W        W25324  37.262   1.681   0.571
53010W        W25325   0.199  19.781   4.258
53011W        W25326  13.157  33.865   2.308
53012W        W25327  35.352  31.957   4.258
53013W        W25328  18.546  27.557   3.809
53014W        W25329  22.485  15.534  11.855
53015W        W25330   8.477   0.898  10.610
53016W        W25331  37.531  38.388  13.363
53017W        W25332  40.348  25.738  10.384
53018W        W25333   8.180  43.842  11.697
53019W        W25334   4.832  30.913  12.522
53020W        W25335  37.973  42.211  14.281
53021W        W25336  44.931  25.221   4.259
53022W        W25337   5.601  17.257   2.887
53023W        W25338  35.371  14.630   2.464
53024W        W25339  42.507   0.440  10.650
53025W        W25340  27.995  34.219  10.039
53026W        W25341   2.909  40.342   0.742
53027W        W25342  16.280  38.481   1.435
53028W        W25343  37.561   8.911  11.047
53029W        W25344   4.494  23.221   1.949
53030W        W25345   7.853  17.774  10.703
53031W        W25346  18.589   9.767  12.308
53032W        W25347  34.335  13.792  10.591
53033W        W25348   7.441  12.804   2.375
53034W        W25349  18.586  36.259   3.359
53035W        W25350   3.887   4.672  14.951
53036W        W25351  26.599  44.590  13.492
53037W        W25352  20.099   2.827   4.010
53038W        W25353  30.416  24.091   0.385
53039W        W25354  27.778   8.770   0.855
53040W        W25355  11.674   0.000   0.518
53041W        W25356  25.787  25.975   1.200
53042W        W25357  15.629  14.150   4.539
53043W        W25358  39.549   6.501   0.813
53044W        W25359  35.292  40.510   4.179
53045W        W25360   8.641   4.640   2.005
53046W        W25361  40.755  24.562  13.755
53047W        W25362  13.201   9.316  12.149
53048W        W25363  10.252  38.395  12.935
53049W        W25364  44.786  23.612  13.005
53050W        W25365  33.324  18.181  10.334
53051W        W25366  31.507  40.720  14.273
53052W        W25367  28.188  43.330  14.346
53053W        W25368  30.093   9.207  10.728
53054W        W25369  16.727  34.317  13.714
53055W        W25370  24.140  15.082   1.985
53056W        W25371   0.839  43.736  14.340
53057W        W25372  22.216   9.185  14.732
53058W        W25373  37.617  22.958  12.487
53059W        W25374  11.919  14.480  11.046
53060W        W25375  44.549  10.824   1.281
53061W        W25376  36.045  15.841   3.319
53062W        W25377  14.160   1.457  12.584
53063W        W25378  26.149  41.342   2.856
53064W        W25379  11.784  10.154   3.710
53065W        W25380  21.206  30.113  10.923
53066W        W25381  33.125  13.197   2.648
53067W        W25382  22.008  30.386   1.378
53068W        W25383  23.126  39.136  14.926
53069W        W25384  42.505  43.184  11.431
53070W        W25385  19.905  22.529  14.750
53071W        W25386   8.257  41.929   1.367
53072W        W25387  17.083  30.118   2.398
53073W        W25388  18.782  30.047  11.068
53074W        W25389  19.802  42.043   2.109
53075W        W25390  19.559  19.186   2.443
53076W        W25391  32.131  21.441  11.210
53077W        W25392  34.961  39.854   4.614
53078W        W25393   7.818  37.337  13.923
53079W        W25394  32.578  11.733   3.120
53080W        W25395  34.311  29.202  10.861
53081W        W25396  36.973  19.704   2.166
53082W        W25397  41.929  23.477  13.386
53083W        W25398   1.447  43.413   4.735
53084W        W25399  29.686  20.104  14.428
53085W        W25400  34.214  35.439   1.884
53086W        W25401  28.734  42.522   0.498
53087W        W25402  37.948  33.441  11.236
53088W        W25403  43.340  29.459   1.942
53089W        W25404  37.252  39.329  12.477
53090W        W25405  41.068  15.214  11.577
53091W        W25406  36.501  10.457  11.146
53092W        W25407  16.729   2.555   2.080
53093W        W25408  10.271  11.657   4.363
53094W        W25409   5.919  40.296  14.027
53095W        W25410  22.667  44.872  14.274
53096W        W25411  17.656  21.090  13.311
53097W        W25412  16.690   5.969  14.487
53098W        W25413  22.402  21.541   5.505
53099W        W25414   3.354   4.268  11.621
53100W        W25415  33.379  33.007  12.557
53101W        W25416  18.683  38.994   3.698
53102W        W25417  42.884  14.636   1.170
53103W        W25418  41.318   1.839  14.242
53104W        W25419  29.581  23.962   2.816
53105W        W25420  37.003  25.468  12.130
53106W        W25421   7.894  43.410  11.561
53107W        W25422  24.505  21.300  11.770
53108W        W25423  17.682  27.290  10.616
53109W        W25424   3.262  24.017  14.158
53110W        W25425  42.761  18.343  10.789
53111W        W25426  41.770  37.320   2.338
53112W        W25427   6.420  24.826   2.832
53113W        W25428  13.345  10.078   4.525
53114W        W25429  35.557  23.312   1.983
53115W        W25430   4.796   7.769  10.423
53116W        W25431  21.598   1.179  13.585
53117W        W25432   4.436   6.937   2.770
53118W        W25433  42.853  24.442  11.596
53119W        W25434   3.279   1.658  12.852
53120W        W25435  11.144  26.735  14.514
53121W        W25436  38.805  39.850   0.998
53122W        W25437  11.597  17.867  10.693
53123W        W25438  36.162  27.518   1.682
53124W        W25439  30.476   2.400  12.172
53125W        W25440   6.266  22.741   4.202
53126W        W25441  37.603  42.356  12.620
53127W        W25442  14.784  40.903   4.605
53128W        W25443  11.369  22.947  12.826
53129W        W25444  41.836  13.460  13.711
53130W        W25445   3.233   1.036   4.956
53131W        W25446  22.939  10.367  13.146
53132W        W25447  11.227  14.806   1.179
53133W        W25448  34.313  33.183   4.535
53134W        W25449  36.017  16.733   3.730
53135W        W25450   8.829  11.613  12.883
53136W        W25451  31.557  41.135  11.072
53137W        W25452  40.737  15.182  14.424
53138W        W25453  35.092  43.848  10.966
53139W        W25454  14.843  40.417   1.158
53140W        W25455  31.497  36.526  12.972
53141W        W25456  30.133  12.339  13.101
53142W        W25457  11.215  39.517  11.465
53143W        W25458  16.131  14.948  13.314
53144W        W25459   7.946  32.610  11.070
53145W        W25460   2.316  41.172   2.797
53146W        W25461  30.710   1.061   0.073
53147W        W25462  28.951  27.095   4.691
53148W        W25463  24.352  30.508   1.499
53149W        W25464  33.147  27.468   2.284
53150W        W25465  33.124  38.425   4.268
53151W        W25466  24.698  40.157   4.006
53152W        W25467  19.730  37.383   1.788
53153W        W25468  34.119   5.894   3.642
53154W        W25469  15.157  34.484   1.114
53155W        W25470  33.639  43.073  13.980
53156W        W25471  41.818  18.226   0.414
53157W        W25472  12.587   6.932   4.752
53158W        W25473  43.211  19.767  13.757
53159W        W25474  26.225   2.362   3.389
53160W        W25475  33.137  31.634  14.359
53161W        W25476  41.066  38.418   1.318
53162W        W25477  11.643   3.126   2.741
53163W        W25478  35.812  42.494   0.294
53164W        W25479  37.490  28.236  14.725
53165W        W25480  24.581  40.531   3.150
53166W        W25481  33.587   2.136   3.221
53167W        W25482  18.249   1.236   1.389
53168W        W25483  11.623   8.449  11.201
53169W        W25484  24.655  30.378   4.691
53170W        W25485  17.209  10.677  11.607
53171W        W25486  10.323  44.782   4.614
53172W        W25487  19.348  29.684  14.312
53173W        W25488  42.987   0.730   1.313
53174W        W25489   6.806  31.731   2.847
53175W        W25490  36.696  23.843   5.189
53176W        W25491  42.303  13.143  13.909
53177W        W25492  18.759  23.665   1.344
53178W        W25493  40.646  43.197   1.829
53179W        W25494  28.989   8.388   0.297
53180W        W25495   9.684  11.675  13.349
53181W        W25496  16.130  35.205   0.716
53182W        W25497   3.775  31.508  14.725
53183W        W25498  36.967   0.738   5.011
53184W        W25499  13.835  12.641   0.543
53185W        W25500   6.238  32.023  12.798
53186W        W25501  27.782   2.497  13.984
53187W        W25502   5.352  13.627   2.917
53188W        W25503  31.914  39.053  11.079
53189W        W25504  26.077   9.628  14.862
53190W        W25505  16.805  41.494   3.164
53191W        W25506  18.884  27.726   0.303
53192W        W25507  32.078   4.719  11.132
53193W        W25508  10.447   1.981   4.302
53194W        W25509   6.759   4.486  10.624
53195W        W25510  30.799  29.093   0.529
53196W        W25511   9.625  38.386   4.332
53197W        W25512  13.432  16.200   9.670
53198W        W25513  39.545  12.602   0.622
53199W        W25514  12.453  15.334  13.848
53200W        W25515   3.857  14.874   1.430
53201W        W25516  17.678  27.050  11.560
53202W        W25517  22.446   0.232   3.122
53203W        W25518  24.590  18.911   9.929
53204W        W25519   3.814  15.072   0.977
53205W        W25520  11.203  15.100  12.956
53206W        W25521  24.500  21.206  10.640
53207W        W25522   2.771  34.871   4.617
53208W        W25523  10.699  31.564  10.462
53209W        W25524  15.121  29.561   1.693
53210W        W25525  37.790   6.765   4.411
53211W        W25526  14.058  29.506  12.925
53212W        W25527   9.668  42.938  10.406
53213W        W25528  15.870  17.677  14.340
53214W        W25529  44.474  28.048   0.631
53215W        W25530  29.583  21.891   2.894
53216W        W25531  41.028   4.379  14.872
53217W        W25532  12.298  30.481   0.725
53218W        W25533  28.485   8.821  10.591
53219W        W25534  31.814  11.687   2.244
53220W        W25535  19.097   4.561   1.271
53221W        W25536  14.242  33.355   3.213
53222W        W25537  43.454   5.664  12.684
53223W        W25538   7.357  13.307  10.789
53224W        W25539  32.327  24.500   1.946
53225W        W25540   8.860  15.058  13.336
53226W        W25541  14.261  32.768  12.575
53227W        W25542  24.850  28.451  14.063
53228W        W25543   0.091  25.236  11.112
53229W        W25544  10.448  34.863   1.688
53230W        W25545   5.537  29.188  10.822
53231W        W25546  41.783  23.109  10.364
53232W        W25547  14.755  43.793  11.091
53233W        W25548  25.264  16.305  14.971
53234W        W25549   1.470  42.527  14.333
53235W        W25550  27.931   4.689   2.235
53236W        W25551  31.695  29.176   4.636
53237W        W25552   5.735  22.277  12.649
53238W        W25553  20.515   9.951   4.316
53239W        W25554  29.858  31.392   3.757
53240W        W25555   1.954  25.620  11.107
53241W        W25556  22.238  15.875   2.829
53242W        W25557  33.654  39.134   3.759
53243W        W25558  14.217   7.625  12.376
53244W        W25559  26.225  30.727  10.562
53245W        W25560  16.147  29.698  14.252
53246W        W25561  13.327  36.429  10.645
53247W        W25562  32.125   0.470  12.577
53248W        W25563  44.234  38.257   3.746
53249W        W25564  38.289  22.572  13.802
53250W        W25565   7.897  13.836   3.383
53251W        W25566  34.440   4.411   4.300
53252W        W25567  43.958  31.444   3.146
53253W        W25568  11.308   7.638  11.467
53254W        W25569  25.732  42.816   0.817
53255W        W25570  15.739   7.201  10.638
53256W        W25571  27.006  41.592   2.228
53257W        W25572   5.148  18.210  11.181
53258W        W25573  36.891  26.475   2.321
53259W        W25574  18.322   0.957  14.662
53260W        W25575  40.299  12.280  10.968
53261W        W25576  25.264   4.536   3.262
53262W        W25577  29.397  29.544  13.968
53263W        W25578   6.443  15.555   1.374
53264W        W25579  42.345   2.469   3.715
53265W        W25580  44.173  28.492  12.636
53266W        W25581  37.891  10.674  12.338
53267W        W25582  23.632  22.905  13.077
53268W        W25583  24.730  31.855  11.900
53269W        W25584  27.682  31.239  10.664
53270W        W25585   4.722   2.168  11.186
53271W        W25586  20.539  18.050  14.034
53272W        W25587  25.696  25.421  13.779
53273W        W25588  21.891  19.675  14.796
53274W        W25589  40.405  21.485   4.344
53275W        W25590  34.135  16.607   1.764
53276W        W25591  33.328  11.345  13.644
53277W        W25592  30.080  34.210   1.656
53278W        W25593  28.633  36.953  10.673
53279W        W25594   2.534   9.649   0.739
53280W        W25595  20.771  29.712   3.296
53281W        W25596  29.071  38.582   4.831
53282W        W25597   6.731  41.281   1.225
53283W        W25598   4.454  43.317  10.603
53284W        W25599  18.040  30.513   0.486
53285W        W25600  38.700  19.938  13.470
53286W        W25601  37.113  37.521   1.712
53287W        W25602   8.819  23.143  14.217
53288W        W25603  21.588   9.344   4.555
53289W        W25604  35.952  16.243  14.224
53290W        W25605   7.280  12.588   0.334
53291W        W25606  35.287   8.690   3.321
53292W        W25607  14.960  14.427   2.360
53293W        W25608  14.088  22.613  11.510
53294W        W25609  19.997  27.517   5.010
53295W        W25610  28.008  27.151   0.571
53296W        W25611  36.864  23.627  13.119
53297W        W25612  37.038  25.074   1.266
53298W        W25613  39.338  17.332   4.926
53299W        W25614  12.586  25.635  10.721
53300W        W25615  20.354  14.288   1.279
53301W        W25616  16.623  21.095   1.698
53302W        W25617  32.450  27.205   1.340
53303W        W25618   1.175  18.674   3.239
53304W        W25619   1.389   1.702  14.555
53305W        W25620  21.129  43.958  14.358
53306W        W25621  39.741  38.120  14.451
53307W        W25622  13.307  37.034   1.008
53308W        W25623  41.555  22.496  14.853
53309W        W25624  43.279  18.440  10.682
53310W        W25625  11.129  14.278   0.950
53311W        W25626  40.046  15.880  12.066
53312W        W25627  42.545  40.965   1.662
53313W        W25628   3.999  20.640   2.794
53314W        W25629  27.878  20.478   1.315
53315W        W25630  23.652  29.575   4.699
53316W        W25631  36.304  36.870   4.055
53317W        W25632  20.280  17.607   2.234
53318W        W25633  35.601   5.809  13.813
53319W        W25634  25.295  12.668   3.662
53320W        W25635  10.196  21.757  13.860
53321W        W25636  32.652  21.062  12.930
53322W        W25637   4.261  26.145   1.991
53323W        W25638  18.520  23.654  14.053
53324W        W25639   8.653  18.785  13.093
53325W        W25640  17.885  17.306   1.945
53326W        W25641  10.175  43.769   5.036
53327W        W25642  21.656  26.895   1.928
53328W        W25643   7.694   3.042  14.057
53329W        W25644   2.940   9.172   2.693
53330W        W25645   9.439  34.788  13.372
53331W        W25646  10.658  27.978   4.639
53332W        W25647  18.182  40.359   4.950
53333W        W25648  30.145   3.738   0.358
53334W        W25649  35.559  28.601   3.662
53335W        W25650  13.109  21.388   2.795
53336W        W25651  25.801   9.339   1.750
53337W        W25652   2.040  29.576   4.597
53338W        W25653   1.300  44.620   0.682
53339W        W25654  31.968  31.981   2.989
53340W        W25655   0.050  37.568   4.173
53341W        W25656  11.205  43.900  11.963
53342W        W25657  24.144  38.164  14.321
53343W        W25658  20.723   5.772  13.122
53344W        W25659  39.476  18.438   3.671
53345W        W25660   1.368  37.743   0.342
53346W        W25661  38.960  25.767   1.862
53347W        W25662  25.146   9.788  14.267
53348W        W25663  13.749  36.871  12.199
53349W        W25664   3.624  43.995   1.723
53350W        W25665  25.611  36.430  14.079
53351W        W25666   1.205  22.674   2.074
53352W        W25667   9.138  10.071  12.416
53353W        W25668  22.633  13.797  10.926
53354W        W25669  28.749  13.667   1.349
53355W        W25670  27.850   1.770   4.093
53356W        W25671   5.755  22.738  14.464
53357W        W25672  23.308  40.582   1.459
53358W        W25673   5.285   2.838  11.084
53359W        W25674  25.077  32.649   0.838
53360W        W25675  23.054  30.883   3.854
53361W        W25676  12.640  36.797   2.858
53362W        W25677   5.049  14.724  14.045
53363W        W25678  28.806  16.849   1.723
53364W        W25679  42.024  29.486   2.947
53365W        W25680  26.613  10.225   3.334
53366W        W25681  44.163   9.155  11.009
53367W        W25682  26.140   5.273  11.379
53368W        W25683  28.929  42.589  14.674
53369W        W25684  12.905  30.558   3.242
53370W        W25685   5.660  13.334  13.543
53371W        W25686  37.882  32.188  12.465
53372W        W25687  36.887  22.975  10.913
53373W        W25688  42.793   8.029  14.583
53374W        W25689  10.124  13.187   3.657
53375W        W25690  26.669  32.897   1.272
53376W        W25691  16.771   0.786  11.834
53377W        W25692  12.678   7.599  13.718
53378W        W25693  27.708  28.376  10.698
53379W        W25694  35.078  30.631   4.507
53380W        W25695  38.495   7.782  13.885
53381W        W25696   4.764   1.262   4.827
53382W        W25697  17.764   2.439   3.320
53383W        W25698  21.520  35.510   1.134
53384W        W25699   6.208  34.452  10.754
53385W        W25700   5.367  29.473  14.512
53386W        W25701   8.454  39.053  14.019
53387W        W25702  37.619  38.275  14.945
53388W        W25703  34.487  32.662   0.751
53389W        W25704   5.276   1.960   2.760
53390W        W25705   1.686   1.298  14.351
53391W        W25706  31.509  16.135   4.785
53392W        W25707  15.125   7.815  14.471
53393W        W25708  30.875  15.581  11.942
53394W        W25709  28.942   7.290   2.468
53395W        W25710  33.025  23.003  13.858
53396W        W25711  25.995  16.744   0.305
53397W        W25712  25.203  21.832   2.630
53398W        W25713  36.929  12.673   0.264
53399W        W25714  31.344  34.503   1.858
53400W        W25715  42.872   2.655  14.629
53401W        W25716  42.988  33.862  13.840
53402W        W25717  10.333  11.824   0.337
53403W        W25718  17.611   9.456  11.572
53404W        W25719  29.359  20.630   4.070
53405W        W25720   0.756  13.800  13.265
53406W        W25721  27.256   3.884   9.747
53407W        W25722  17.266  26.960  12.923
53408W        W25723  44.462  34.399  12.406
53409W        W25724  30.200  13.223   1.817
53410W        W25725  37.506  21.527   1.705
53411W        W25726  22.662  12.362  14.297
53412W        W25727  37.168  32.155   3.106
53413W        W25728  19.453   5.007  13.902
53414W        W25729  33.562  27.225   4.323
53415W        W25730   6.702  28.908  11.554
53416W        W25731  12.982  23.553   2.733
53417W        W25732  10.994  26.493  13.516
53418W        W25733  12.803   0.904   4.685
53419W        W25734  42.097  33.381   3.874
53420W        W25735  19.963  18.891   0.958
53421W        W25736  24.021  42.335   2.828
53422W        W25737  31.396   8.664  11.178
53423W        W25738   1.878  19.175  12.935
53424W        W25739  24.167  17.199  13.316
53425W        W25740  39.026  33.584   3.237
53426W        W25741  14.164  31.604  14.786
53427W        W25742  33.447  44.920   3.087
53428W        W25743   0.834   1.273  14.922
53429W        W25744  18.170  30.375  11.781
53430W        W25745  16.040  14.792  12.437
53431W        W25746  15.239  21.366  12.472
53432W        W25747  20.518   1.897   1.742
53433W        W25748   7.247   9.144  10.739
53434W        W25749  23.557  38.434  12.991
53435W        W25750  38.042  16.072   0.705
53436W        W25751   6.973   6.851   0.350
53437W        W25752   6.378  37.834   0.614
53438W        W25753   9.740  15.353   4.807
53439W        W25754  36.002   3.278  13.920
53440W        W25755  26.521  19.633   4.523
53441W        W25756  43.355   2.686   4.699
53442W        W25757  21.717  36.003   4.633
53443W        W25758  28.843  22.978   2.876
53444W        W25759   3.527  25.896  11.827
53445W        W25760   8.665   0.907  11.324
53446W        W25761  29.459  43.293   0.874
53447W        W25762  28.661  43.660   4.046
53448W        W25763  29.700  17.903   3.465
53449W        W25764  31.421  40.433   0.703
53450W        W25765   5.295  20.102  13.559
53451W        W25766  34.296  36.186   0.292
53452W        W25767  25.381  37.730  14.699
53453W        W25768  28.735  23.948   2.213
53454W        W25769   9.184  35.008  13.798
53455W        W25770   9.355  38.572  11.452
53456W        W25771  29.146  15.225  14.530
53457W        W25772  16.872   4.795  14.548
53458W        W25773  19.764  35.672  13.922
53459W        W25774  23.998  16.355  13.507
53460W        W25775  40.446  15.273   1.968
53461W        W25776  32.472  35.809   5.086
53462W        W25777  21.835   0.775  10.911
53463W        W25778  36.615   5.749  11.609
53464W        W25779   2.999  44.345   3.356
53465W        W25780  39.850  10.832  10.894
53466W        W25781  21.192  10.588   0.378
53467W        W25782  25.062  10.307   2.453
53468W        W25783  20.700  37.952  11.444
53469W        W25784  35.167   1.880   4.167
53470W        W25785   8.375  15.363  11.913
53471W        W25786  39.982  19.703   0.487
53472W        W25787   4.712  42.768  14.360
53473W        W25788  25.563  32.189   3.282
53474W        W25789  13.217  11.777  12.685
53475W        W25790  17.742  32.440  14.914
53476W        W25791  22.650   4.509   0.400
53477W        W25792  43.736  42.590  14.507
53478W        W25793  44.255  39.214   4.231
53479W        W25794   2.652  40.420  10.649
53480W        W25795  34.527  23.117  14.083
53481W        W25796  15.316  10.651   0.485
53482W        W25797  21.586  22.560   3.192
53483W        W25798  35.220  28.056   9.829
53484W        W25799  42.128  29.790   1.237
53485W        W25800  30.930  15.292  14.936
53486W        W25801   3.781  15.581  13.005
53487W        W25802  13.333  29.014   1.764
53488W        W25803   7.279  17.550  12.435
53489W        W25804  28.300  28.812  14.532
53490W        W25805  14.740  28.944   0.400
53491W        W25806   3.768  16.308   2.646
53492W        W25807  27.482  43.303   2.477
53493W        W25808   6.464  35.903  12.970
53494W        W25809  23.360  26.183  13.557
53495W        W25810   8.117  25.056   3.351
53496W        W25811  11.067  44.279  13.983
53497W        W25812  25.688  34.341   3.700
53498W        W25813  14.108  32.066  11.829
53499W        W25814  20.673  28.995  11.960
53500W        W25815  37.360  31.037  13.494
53501W        W25816   5.244  12.625   1.372
53502W        W25817  39.328  19.521   2.711
53503W        W25818  42.921  19.632   2.210
53504W        W25819  18.789  16.039  10.040
53505W        W25820  40.139  30.363  12.152
53506W        W25821  40.434  40.821  11.861
53507W        W25822  44.758  35.844   1.785
53508W        W25823   8.443  39.514   2.325
53509W        W25824  15.810  37.995  11.929
53510W        W25825  43.620   8.683   3.798
53511W        W25826  29.819  33.650   0.268
53512W        W25827  22.720   7.997   0.806
53513W        W25828  39.785  33.955   3.257
53514W        W25829   9.218  14.245   5.202
53515W        W25830  32.458  41.925  14.983
53516W        W25831  40.913  42.587  11.591
53517W        W25832   0.215  26.521  12.976
53518W        W25833  15.729   2.975  14.853
53519W        W25834  13.734  18.006  11.527
53520W        W25835  16.118   1.379   2.608
53521W        W25836  19.577  12.345   0.056
53522W        W25837  43.251  24.340   0.243
53523W        W25838  16.022  13.313  11.699
53524W        W25839  39.572  11.148   2.726
53525W        W25840  23.546  23.961  11.114
53526W        W25841  14.221   3.151   0.810
53527W        W25842   0.978   0.183  14.726
53528W        W25843  13.304  30.653  11.155
53529W        W25844  24.137  44.399   1.442
53530W        W25845  13.776  13.740  12.832
53531W        W25846  31.916  40.724  12.864
53532W        W25847  40.794  19.031  14.250
53533W        W25848  17.301   8.754   2.232
53534W        W25849  24.327  27.449   0.848
53535W        W25850  35.575  15.158   0.258
53536W        W25851  27.012  17.802  11.183
53537W        W25852  21.745  42.350   1.409
53538W        W25853  33.338  11.682  14.350
53539W        W25854  15.635  19.666  14.492
53540W        W25855   5.731   9.348   2.869
53541W        W25856   6.279  27.027  14.250
53542W        W25857  23.750   3.413   4.187
53543W        W25858  32.357  41.515  11.904
53544W        W25859  18.394  44.191  13.358
53545W        W25860  20.102  28.685  12.147
53546W        W25861  39.467  18.243   1.277
53547W        W25862  17.826  16.278   2.217
53548W        W25863  37.313  40.969  11.190
53549W        W25864  43.707   8.799  10.673
53550W        W25865  26.083  17.791  11.155
53551W        W25866  20.476  19.265   4.552
53552W        W25867  13.095  15.654   5.139
53553W        W25868   7.618  44.397  10.310
53554W        W25869  31.172  10.356   0.421
53555W        W25870  31.398  41.781  11.613
53556W        W25871  12.273  29.983  10.389
53557W        W25872  36.300  32.677   1.036
53558W        W25873  10.148  33.071  14.755
53559W        W25874  17.262  13.184   0.828
53560W        W25875  25.653  18.806  14.495
53561W        W25876  11.132  21.569   4.516
53562W        W25877  41.787   1.054   5.159
53563W        W25878  32.523  10.748  13.841
53564W        W25879  13.640  11.648  12.399
53565W        W25880  16.308  30.579  11.893
53566W        W25881  23.093   4.174  12.107
53567W        W25882  44.788   2.205   0.289
53568W        W25883  38.399  24.676  10.042
53569W        W25884   3.284  24.874   3.690
53570W        W25885  43.210  20.791  10.607
53571W        W25886  34.574   2.221  11.980
53572W        W25887  23.004  10.933   0.962
53573W        W25888  31.062   3.340  12.934
53574W        W25889  18.211  41.342   4.500
53575W        W25890   6.991  37.241   4.962
53576W        W25891  23.832  22.809  11.888
53577W        W25892  43.763  41.568   1.793
53578W        W25893  27.142   5.924  12.790
53579W        W25894  16.741  40.926   2.667
53580W        W25895  29.270  30.090   0.250
53581W        W25896  13.284  30.923  10.722
53582W        W25897  26.241   8.300   1.459
53583W        W25898  28.993  39.555  11.439
53584W        W25899  14.572  40.722  14.946
53585W        W25900  18.461  26.273  12.445
53586W        W25901  34.944  25.480  11.953
53587W        W25902  16.715  40.196   1.350
53588W        W25903  18.297   9.108  10.909
53589W        W25904  16.349   6.442   3.563
53590W        W25905  12.087  24.323  13.786
53591W        W25906  18.958  35.965   0.370
53592W        W25907  31.394   5.930   1.916
53593W        W25908   0.757  22.100  11.492
53594W        W25909  21.474  32.533   4.007
53595W        W25910  15.416   1.616   5.009
53596W        W25911   0.966   1.811   3.333
53597W        W25912  23.882  37.187  14.538
53598W        W25913  21.022  41.421   1.814
53599W        W25914  44.652  18.149   4.882
53600W        W25915  30.451  22.633  13.374
53601W        W25916  41.968  35.938   4.177
53602W        W25917   2.451  38.530  12.065
53603W        W25918  43.912  42.957   2.762
53604W        W25919  25.632   3.022  13.456
53605W        W25920   9.452  43.764  13.695
53606W        W25921  38.771  25.577   3.719
53607W        W25922   9.744  21.465  14.023
53608W        W25923  20.711  31.932  13.980
53609W        W25924  15.381   6.672  13.740
53610W        W25925  37.162   5.608  12.625
53611W        W25926  13.338  42.218   0.222
53612W        W25927  27.578  24.103   0.761
53613W        W25928  12.398  31.198  12.778
53614W        W25929  17.328  30.903   9.565
53615W        W25930  28.989   4.445  11.511
53616W        W25931   3.425  34.551   2.133
53617W        W25932  39.558  31.060  14.905
53618W        W25933  13.853   9.096   4.634
53619W        W25934  40.377  14.281   0.707
53620W        W25935  39.782  16.823  12.441
53621W        W25936  23.630  40.440   0.334
53622W        W25937  30.685  24.003  14.913
53623W        W25938  38.690  26.111   3.514
53624W        W25939   7.116  27.202   3.895
53625W        W25940  39.488  37.009  13.794
53626W        W25941  27.959  28.184   0.694
53627W        W25942  28.957  22.733  14.461
53628W        W25943   5.704  34.214   1.896
53629W        W25944  28.006   4.749   5.273
53630W        W25945  44.149  35.990  13.761
53631W        W25946  35.464   2.455  14.934
53632W        W25947  12.855   9.659  11.957
53633W        W25948  36.082  17.071  12.126
53634W        W25949   1.045  28.099   1.668
53635W        W25950  27.739  39.119  14.338
53636W        W25951   8.330  38.961  11.593
53637W        W25952  43.917  32.028  10.991
53638W        W25953  14.863  19.985   0.291
53639W        W25954  25.475  14.271  14.068
53640W        W25955  26.095  23.995   4.307
53641W        W25956  13.400  26.081  10.829
53642W        W25957  32.603  21.240   3.381
53643W        W25958  29.254  20.272   0.003
53644W        W25959  13.839  41.559  12.594
53645W        W25960  36.116  30.525   0.010
53646W        W25961  31.524  40.897  14.762
53647W        W25962   7.399  35.822   0.835
53648W        W25963  32.918   8.279  11.017
53649W        W25964   0.210  31.609   2.282
53650W        W25965  37.807   1.975   2.135
53651W        W25966  37.670  34.112  11.119
53652W        W25967   0.106  41.603   3.684
53653W        W25968  11.699  19.342   5.154
53654W        W25969  21.278  16.390   0.736
53655W        W25970  24.802  22.454  10.556
53656W        W25971  13.009  23.993  13.913
53657W        W25972  43.388   6.832  12.014
53658W        W25973  35.320  13.158   4.226
53659W        W25974  36.311  24.562   1.352
53660W        W25975  40.684   9.183  13.023
53661W        W25976  21.814  13.681  10.397
53662W        W25977  13.617   4.856  12.020
53663W        W25978  17.895  13.859  10.689
53664W        W25979   1.468  22.279  12.162
53665W        W25980  34.916  18.073   0.815
53666W        W25981  18.668   8.704   2.386
53667W        W25982  17.285  40.473  14.357
53668W        W25983  11.778  23.101  13.554
53669W        W25984  25.271  15.643   3.627
53670W        W25985  14.403  13.741  15.000
53671W        W25986  14.329  44.013   1.814
53672W        W25987  40.733  30.180   1.498
53673W        W25988  29.184  43.276   2.153
53674W        W25989  19.943   2.705   3.520
53675W        W25990  31.953   5.750  11.054
53676W        W25991  24.656  39.386   2.719
53677W        W25992   8.400  31.947   4.338
53678W        W25993  17.333  29.480  13.938
53679W        W25994  15.719  26.226  11.586
53680W        W25995  39.924  43.684  13.625
53681W        W25996  41.350   7.840  13.389
53682W        W25997  42.996  14.425  12.240
53683W        W25998  36.522  29.189   1.720
53684W        W25999  18.828  19.110  13.506
53685W        W26000  44.227  31.498  13.505
53686W        W26001  24.816  18.511  14.497
53687W        W26002  17.184  40.436   4.849
53688W        W26003  22.752  42.738  10.268
53689W        W26004  24.596  14.060   2.701
53690W        W26005  20.128  22.019   2.384
53691W        W26006   3.249  36.020  13.992
53692W        W26007  33.105   4.147   3.800
53693W        W26008   6.339  24.053   1.237
53694W        W26009   9.094  15.349   1.714
53695W        W26010  23.051  19.745  10.644
53696W        W26011  10.266  14.334   3.266
53697W        W26012   2.923  36.391  13.850
53698W        W26013  44.497  16.972  10.223
53699W        W26014  19.272  34.143   0.852
53700W        W26015  19.315  39.512  10.143
53701W        W26016  44.261  11.424   4.528
53702W        W26017   9.854  11.178  13.639
53703W        W26018  38.128  42.437   0.969
53704W        W26019   4.488   1.950   1.290
53705W        W26020  30.705  24.070  13.305
53706W        W26021  20.620  20.611  11.436
53707W        W26022  24.211  16.701   4.182
53708W        W26023  31.191   2.168  12.470
53709W        W26024   6.344  33.155  13.327
53710W        W26025  37.750   8.282  11.583
53711W        W26026   3.147  41.826  11.060
53712W        W26027  13.735   4.264   4.583
53713W        W26028  17.041  41.523   3.640
53714W        W26029  13.146   4.900  14.320
53715W        W26030  18.666  11.778  12.177
53716W        W26031  22.970  44.460  12.551
53717W        W26032  23.985  22.710  11.404
53718W        W26033   5.854   1.650   0.717
53719W        W26034  30.462   8.263   2.247
53720W        W26035   1.490  30.472  11.525
53721W        W26036  36.512  13.273   4.644
53722W        W26037  15.829  16.548  11.915
53723W        W26038   6.482   9.650   0.310
53724W        W26039   2.065  40.410  11.561
53725W        W26040  16.827  27.258   0.254
53726W        W26041  12.095  19.231   5.516
53727W        W26042  31.995  10.147  11.446
53728W        W26043   9.528  26.720   3.124
53729W        W26044  29.966  17.177   2.806
53730W        W26045  27.011   5.208  13.347
53731W        W26046  27.271  43.036  14.305
53732W        W26047  14.377   2.444  13.134
53733W        W26048  19.181  23.782  11.977
53734W        W26049  18.065  30.203   1.375
53735W        W26050   9.490   9.253   3.744
53736W        W26051   2.010  22.842  12.585
53737W        W26052  11.070  33.249  11.571
53738W        W26053   1.344  20.323   5.024
53739W        W26054   0.323  14.287  11.490
53740W        W26055  40.584   0.915   2.221
53741W        W26056  20.098  11.069  11.980
53742W        W26057  36.804  34.901   0.417
53743W        W26058  31.446  34.831  11.628
53744W        W26059  36.822  24.108   4.319
53745W        W26060  17.799  37.932   2.824
53746W        W26061  41.137   6.318   1.224
53747W        W26062  21.093  40.747  13.022
53748W        W26063  44.503  33.664  12.839
53749W        W26064  42.225  33.144  11.621
53750W        W26065  30.973  33.613   0.957
53751W        W26066  24.511  33.878   0.749
53752W        W26067  44.717  42.003   3.597
53753W        W26068  28.924  25.562   2.264
53754W        W26069   5.260   9.189   3.208
53755W        W26070  39.357  22.649   0.320
53756W        W26071  31.591  22.470   2.243
53757W        W26072  19.176   3.715  11.504
53758W        W26073  28.971   3.312  10.954
53759W        W26074  32.868  24.071   4.687
53760W        W26075  23.661  25.123   4.698
53761W        W26076  21.245   5.713  12.997
53762W        W26077  43.970  15.673  11.068
53763W        W26078  12.938   5.049   1.947
53764W        W26079   4.354  35.039  12.551
53765W        W26080   7.339  17.243   0.927
53766W        W26081  41.040  13.147  13.267
53767W        W26082   7.976  19.162  14.669
53768W        W26083  13.371  31.142   1.728
53769W        W26084  15.923  21.769   3.203
53770W        W26085  19.369  39.996   4.214
53771W        W26086  33.315  29.807  13.524
53772W        W26087  20.508  14.239  11.466
53773W        W26088  16.266  36.384   2.895
53774W        W26089  20.578  15.822  10.699
53775W        W26090  32.660   4.702  12.162
53776W        W26091  25.999   5.203   0.482
53777W        W26092  13.626   9.906  11.560
53778W        W26093  24.507  43.893   3.274
53779W        W26094   3.790  31.397   3.682
53780W        W26095  29.072   7.587   0.710
53781W        W26096  40.413   7.450  12.561
53782W        W26097  18.620   2.704   2.481
53783W        W26098  22.259  30.617   3.138
53784W        W26099   8.576  42.636  13.657
53785W        W26100   3.178  31.240  13.344
53786W        W26101   9.154  17.103  12.686
53787W        W26102  12.989  29.408   4.416
53788W        W26103  35.279   6.450   4.992
53789W        W26104  13.789  41.807  13.513
53790W        W26105  42.404  41.294  14.795
53791W        W26106  30.834   5.847  11.309
53792W        W26107  20.355  18.608  13.012
53793W        W26108  39.240  26.127   2.207
53794W        W26109  31.065  10.080   2.329
53795W        W26110  44.974  28.483   1.238
53796W        W26111  10.714   8.893   4.659
53797W        W26112   0.661   9.168  12.962
53798W        W26113  24.767  11.385   3.171
53799W        W26114  23.021  15.795  10.554
53800W        W26115  30.680   7.123  10.708
53801W        W26116   2.773  31.050   0.324
53802W        W26117   6.976  10.068   2.328
53803W        W26118   7.746   8.451  14.484
53804W        W26119  29.121  20.572  11.213
53805W        W26120  30.614  13.198  12.136
53806W        W26121  37.469  15.879   3.270
53807W        W26122  13.209  21.339   5.020
53808W        W26123  17.348  12.107   3.125
53809W        W26124  22.848  19.538   5.539
53810W        W26125   9.821   8.201   1.168
53811W        W26126  36.199  32.124   3.170
53812W        W26127  13.288  12.847  13.562
53813W        W26128  38.242  38.392   2.698
53814W        W26129   7.658  23.056  12.653
53815W        W26130  24.706  35.908   4.641
53816W        W26131   3.898  27.504  14.903
53817W        W26132   4.775  20.510  11.176
53818W        W26133  26.524  30.391   2.293
53819W        W26134  37.567   9.930  12.509
53820W        W26135   2.851  13.261   2.749
53821W        W26136  29.930   0.738  14.995
53822W        W26137  27.876  13.663  11.465
53823W        W26138  38.095  43.866  11.927
53824W        W26139  32.992  21.546  14.026
53825W        W26140  22.322  26.548   1.409
53826W        W26141  18.144  12.188   2.813
53827W        W26142   8.848  38.855  14.404
53828W        W26143  39.826  20.231   2.162
53829W        W26144  44.544  11.438   0.848
53830W        W26145  19.267  10.575   1.820
53831W        W26146  21.218   5.806   2.906
53832W        W26147  43.982  16.653  14.131
53833W        W26148   2.732  21.907  13.867
53834W        W26149   9.600  11.275   3.382
53835W        W26150  24.920   2.822   3.038
53836W        W26151  33.611   1.830  13.517
53837W        W26152  28.236  27.940  13.837
53838W        W26153   9.317  34.597   2.386
53839W        W26154  24.544  22.946   4.530
53840W        W26155  24.712  13.128   4.181
53841W        W26156  41.444  11.570  13.864
53842W        W26157   8.354  44.056  10.862
53843W        W26158  44.398  43.888   3.056
53844W        W26159  40.983   0.521   2.665
53845W        W26160  27.929  20.273  14.372
53846W        W26161  32.128  29.477   4.621
53847W        W26162  21.712  39.903  10.706
53848W        W26163  41.348  34.069   1.442
53849W        W26164   6.829  24.617   4.139
53850W        W26165  29.723  31.537   2.212
53851W        W26166  27.447  41.497   1.269
53852W        W26167   6.817  33.344  13.471
53853W        W26168  32.158  30.485   4.010
53854W        W26169   5.278  17.688  12.042
53855W        W26170  36.957  30.951   2.298
53856W        W26171   7.333  16.861   3.077
53857W        W26172  25.522  14.045  14.526
53858W        W26173  11.576  21.954  14.145
53859W        W26174   3.310   0.134   1.422
53860W        W26175  12.672  14.597   1.250
53861W        W26176   4.464  35.293  11.072
53862W        W26177  18.081  15.733   1.652
53863W        W26178   1.030  44.683   1.136
53864W        W26179   8.936  13.297  11.981
53865W        W26180   5.482  33.117  13.480
53866W        W26181  36.975   5.405   0.450
53867W        W26182  24.082  19.294   5.140
53868W        W26183  12.805  33.914   3.725
53869W        W26184  28.094   7.763   0.890
53870W        W26185   6.818  37.668   3.028
53871W        W26186  16.356  38.012  11.936
53872W        W26187  34.771  27.233   5.038
53873W        W26188   6.672  28.630  11.989
53874W        W26189  31.504  31.323   3.472
53875W        W26190   9.586  17.990   2.722
53876W        W26191  12.664  14.566   3.399
53877W        W26192  35.114  33.115  13.259
53878W        W26193   4.064  19.143   3.932
53879W        W26194  37.573  12.750   0.581
53880W        W26195   4.826  10.168  10.719
53881W        W26196  32.310  33.464  10.750
53882W        W26197  27.202  10.818  12.855
53883W        W26198  42.115  44.397  11.717
53884W        W26199  26.928  21.187   2.588
53885W        W26200  33.388  28.555   2.763
53886W        W26201  25.415   2.867   2.161
53887W        W26202  30.155  37.917   3.058
53888W        W26203  31.428  12.561  12.500
53889W        W26204  25.878  26.870   1.215
53890W        W26205   2.852  24.589   1.926
53891W        W26206  24.135  20.089  14.716
53892W        W26207  39.021   1.314   2.837
53893W        W26208  44.935  36.045   3.373
53894W        W26209   0.933  36.394  11.564
53895W        W26210   9.787  35.308   1.869
53896W        W26211  14.553  13.040   4.081
53897W        W26212  35.409  25.555  10.437
53898W        W26213  43.191  13.565   3.647
53899W        W26214  27.532   5.895   3.214
53900W        W26215  17.361   5.338   3.644
53901W        W26216   7.663  11.166  11.185
53902W        W26217  31.910  12.733  10.353
53903W        W26218  25.594  16.640  13.674
53904W        W26219  18.301  26.047   2.839
53905W        W26220  24.205  32.735   0.585
53906W        W26221   3.997   0.880  13.987
53907W        W26222   9.174   3.751  13.778
53908W        W26223  18.778  25.172   4.348
53909W        W26224  19.192   3.777   4.853
53910W        W26225  28.194  41.831  10.448
53911W        W26226  27.121  44.971   3.684
53912W        W26227  23.620  42.978   0.267
53913W        W26228  33.913  21.789   4.733
53914W        W26229   6.299  11.796  13.859
53915W        W26230  16.292  10.147   3.144
53916W        W26231   4.626  41.111  13.378
53917W        W26232  22.656  35.948  10.909
53918W        W26233  35.964  28.647  13.371
53919W        W26234  21.729  18.961   1.939
53920W        W26235  41.960  30.630  12.052
53921W        W26236  17.246  40.276   1.261
53922W        W26237  19.043  29.667   2.254
53923W        W26238  34.644  22.177   0.019
53924W        W26239  18.479  42.073   4.970
53925W        W26240  42.437   3.898  12.284
53926W        W26241   7.684  21.600   4.122
53927W        W26242  26.418  28.668  13.336
53928W        W26243  21.134  26.705  14.327
53929W        W26244   3.319  16.743   3.282
53930W        W26245  39.017  39.906  11.186
53931W        W26246  41.526  27.094   2.178
53932W        W26247  23.167  20.312   0.469
53933W        W26248  43.980  37.985   1.902
53934W        W26249   8.214  37.505   3.601
53935W        W26250  30.606  30.584   3.687
53936W        W26251  24.085  17.008   4.993
53937W        W26252  24.598  35.274   3.722
53938W        W26253  25.174   4.156   2.773
53939W        W26254   2.676   1.281  10.690
53940W        W26255  27.134  18.592   1.206
53941W        W26256  33.608  12.795   4.140
53942W        W26257   4.817  28.898   4.330
53943W        W26258   2.192  26.500   3.439
53944W        W26259  25.439  31.975  11.192
53945W        W26260  29.940  43.953  13.127
53946W        W26261   0.853  36.448   0.826
53947W        W26262  18.043  28.463   5.075
53948W        W26263  28.644  21.549   0.415
53949W        W26264  24.250  31.589  11.987
53950W        W26265  25.481  17.691   3.393
53951W        W26266  30.664   4.547   1.942
53952W        W26267  12.946  11.067  11.050
53953W        W26268   0.716  32.032   2.325
53954W        W26269  40.903  30.884   3.380
53955W        W26270  34.905  24.963  11.857
53956W        W26271  22.371  16.424   0.885
53957W        W26272  21.081  25.393  14.435
53958W        W26273  19.579  43.783   1.157
53959W        W26274  39.655  35.884  10.943
53960W        W26275   2.534  22.591   3.531
53961W        W26276  34.520  30.366   1.349
53962W        W26277  25.507  25.223   3.825
53963W        W26278  26.402  30.575  13.420
53964W        W26279  24.406  11.603  12.720
53965W        W26280  11.747  17.195  13.765
53966W        W26281  19.048  17.113   1.337
53967W        W26282  28.472   6.378   9.665
53968W        W26283  21.018  23.611  12.552
53969W        W26284  40.361  36.816  11.727
53970W        W26285  44.990   1.254   1.010
53971W        W26286  40.165  29.715   1.321
53972W        W26287  32.533  40.017  13.837
53973W        W26288  24.733  19.566  13.273
53974W        W26289  29.825  31.020   0.852
53975W        W26290  22.645  12.325  13.770
53976W        W26291  26.346  21.068   4.946
53977W        W26292  14.633   8.378  11.582
53978W        W26293  14.695  24.537  13.395
53979W        W26294  19.822   7.265   1.209
53980W        W26295  21.244  23.579  10.785
53981W        W26296  19.786  42.231  11.016
53982W        W26297   4.868  33.903   0.430
53983W        W26298  33.988  36.638  11.561
53984W        W26299   5.426  41.061   4.372
53985W        W26300  34.510   7.922  13.975
53986W        W26301   0.023  30.063   3.849
53987W        W26302   2.314  26.831  11.422
53988W        W26303  26.792  16.367  12.088
53989W        W26304  28.973  41.113   3.595
53990W        W26305  11.605  33.461  12.389
53991W        W26306  38.551  29.723  10.644
53992W        W26307  35.615   9.750   3.189
53993W        W26308  24.457  11.373   1.295
53994W        W26309  12.252  42.236  12.614
53995W        W26310  12.190  23.516   1.724
53996W        W26311  30.968  18.417  14.771
53997W        W26312  39.510  26.667  12.823
53998W        W26313   6.200  18.542  12.982
53999W        W26314  15.524   8.369  11.569
54000W        W26315   4.482  34.362   0.243
54001W        W26316   3.521   9.546   0.887
54002W        W26317  24.262   4.963   3.225
54003W        W26318  15.532   1.271  13.558
54004W        W26319  42.934   9.451   3.092
54005W        W26320  38.500  32.131   1.346
54006W        W26321  24.173  18.071  11.971
54007W        W26322  32.286  13.701  11.219
54008W        W26323   8.834  33.071   3.340
54009W        W26324  29.891   7.549   0.187
54010W        W26325  30.055  37.611   0.826
54011W        W26326  23.548   5.753   3.247
54012W        W26327  13.306  36.330   1.246
54013W        W26328   0.287   4.267  10.525
54014W        W26329  24.592   2.501  12.087
54015W        W26330  39.328  16.901   3.632
54016W        W26331  25.679  19.088  12.057
54017W        W26332  13.988  20.669   3.368
54018W        W26333  43.757  18.586  10.560
54019W        W26334  12.656   3.626   1.907
54020W        W26335  14.259  36.675   1.876
54021W        W26336  40.794  20.590   0.797
54022W        W26337  14.889  31.882  11.575
54023W        W26338   4.961  31.154  11.589
54024W        W26339  29.558  18.279  14.083
54025W        W26340  21.334  44.262   0.494
54026W        W26341  11.277  27.948   4.196
54027W        W26342  15.273  26.081  14.743
54028W        W26343  35.345  42.945   3.548
54029W        W26344  39.599  13.687  13.887
54030W        W26345  34.917  39.806  14.822
54031W        W26346  14.375  15.753   4.992
54032W        W26347   0.698  44.546  11.897
54033W        W26348   2.717  38.024   3.856
54034W        W26349  37.655  18.910   1.974
54035W        W26350  37.523  18.069   4.129
54036W        W26351  39.914  44.568  13.925
54037W        W26352  30.487  41.414   0.964
54038W        W26353  35.836  37.091   0.039
54039W        W26354  27.977  11.708  11.005
54040W        W26355  18.139  27.530  10.584
54041W        W26356   8.303  28.515  11.966
54042W        W26357  20.245  26.190  11.769
54043W        W26358  27.724  43.006   1.414
54044W        W26359   6.822  36.547   3.858
54045W        W26360  44.919  32.202   0.541
54046W        W26361  25.615  14.144  12.649
54047W        W26362   5.336  17.816  13.419
54048W        W26363   3.826  37.456   1.535
54049W        W26364  18.088  14.647  12.998
54050W        W26365   7.674  32.459   1.305
54051W        W26366   2.880  39.843   2.235
54052W        W26367   1.778   3.332   0.839
54053W        W26368  39.671  15.257   4.686
54054W        W26369  10.870  27.669  11.916
54055W        W26370   3.894  28.559  10.977
54056W        W26371  10.241  43.269  14.295
54057W        W26372  25.531  23.531  12.088
54058W        W26373  25.228  42.835   2.454
54059W        W26374  26.964  29.990  13.076
54060W        W26375   0.198  16.686   1.886
54061W        W26376   3.335  30.599   4.129
54062W        W26377   1.549  22.730  12.415
54063W        W26378  27.901  14.331  12.590
54064W        W26379  24.390  44.369  14.307
54065W        W26380  10.738  10.388   3.185
54066W        W26381  32.526  10.399   1.467
54067W        W26382  19.355   4.698  10.182
54068W        W26383  30.602   5.292  14.321
54069W        W26384  18.581  19.061   1.395
54070W        W26385  21.362  29.617  14.495
54071W        W26386  25.027  37.042   0.201
54072W        W26387   4.883  24.174   4.307
54073W        W26388   8.744  23.322   2.314
54074W        W26389  42.075  43.035   3.209
54075W        W26390  38.373  33.086   4.448
54076W        W26391  17.741  11.829  11.872
54077W        W26392   4.190  18.789   1.862
54078W        W26393  41.129   2.928   4.374
54079W        W26394   5.948  22.461   3.029
54080W        W26395  20.101  29.716  12.163
54081W        W26396  44.966  33.509  12.603
54082W        W26397  30.605  11.549  13.279
54083W        W26398  40.690  31.943   2.164
54084W        W26399  38.893   5.838   4.615
54085W        W26400  38.964   7.195  14.233
54086W        W26401  20.596  38.079   2.502
54087W        W26402  21.622  11.587   4.053
54088W        W26403  33.129  35.927  12.481
54089W        W26404  24.069  39.818  11.993
54090W        W26405  10.074  35.069  14.054
54091W        W26406  31.537  38.056   0.465
54092W        W26407  30.177  14.764   4.890
54093W        W26408  42.360   9.702   0.820
54094W        W26409  30.988   0.493   2.831
54095W        W26410  12.124   1.918  11.354
54096W        W26411  15.613   0.900   0.845
54097W        W26412   2.556  15.220   0.459
54098W        W26413  35.541   6.921  13.428
54099W        W26414  26.981  26.541   3.689
54100W        W26415   5.512  25.655  13.442
54101W        W26416   3.280  32.953   1.903
54102W        W26417  22.249  34.618  12.874
54103W        W26418  44.740   3.865   1.509
54104W        W26419  21.688   5.730  11.514
54105W        W26420  27.478   7.885  14.983
54106W        W26421  23.034  27.955   2.463
54107W        W26422  27.601  44.917   0.017
54108W        W26423  20.226   7.189  11.070
54109W        W26424  12.425   3.222  11.489
54110W        W26425  23.693   6.767  13.535
54111W        W26426  17.313  20.014  13.963
54112W        W26427  37.059  25.190   2.876
54113W        W26428  20.770  23.518   0.486
54114W        W26429  34.516  21.802   0.787
54115W        W26430  35.991  28.883   3.767
54116W        W26431  35.892   1.326  14.558
54117W        W26432  31.514  35.567  10.576
54118W        W26433  38.123  35.532  11.523
54119W        W26434  38.377  31.987  13.401
54120W        W26435   0.279  19.802   0.265
54121W        W26436  16.709   3.844   0.501
54122W        W26437  37.440   7.947  10.666
54123W        W26438  32.040  36.154  13.317
54124W        W26439  23.799  34.391   4.114
54125W        W26440   4.465  17.827   4.212
54126W        W26441  19.791   5.671   1.167
54127W        W26442  38.904  33.878  11.622
54128W        W26443  39.798  15.270   2.148
54129W        W26444   8.819   9.873  14.226
54130W        W26445  22.596  32.912   3.405
54131W        W26446  44.198  41.770   0.246
54132W        W26447  17.476  15.698  13.407
54133W        W26448  24.619  22.232  13.999
54134W        W26449   3.408   5.741   5.085
54135W        W26450  39.964   5.173   4.238
54136W        W26451  15.147  33.028  14.442
54137W        W26452  29.371  16.765   0.738
54138W        W26453  33.482  37.981  13.404
54139W        W26454  20.087  36.398   2.757
54140W        W26455  31.469  14.636   1.601
54141W        W26456  12.553  17.460   1.820
54142W        W26457  37.094  25.957   1.197
54143W        W26458  23.456  34.628   1.811
54144W        W26459   4.513  33.048  10.534
54145W        W26460  26.175   5.198  11.924
54146W        W26461  27.125  35.234   0.338
54147W        W26462  18.571  40.213   4.542
54148W        W26463  44.251  12.229   5.155
54149W        W26464  29.949   6.993  13.690
54150W        W26465  13.195  42.410  13.919
54151W        W26466  17.369  33.561  11.591
54152W        W26467  20.906  32.488  11.507
54153W        W26468  34.497   2.040  12.468
54154W        W26469  29.981  18.838   2.363
54155W        W26470   9.662  22.229  14.496
54156W        W26471  18.190   2.765   4.943
54157W        W26472  31.601  36.030   0.911
54158W        W26473  19.337  39.233   0.967
54159W        W26474  15.768  28.220   1.816
54160W        W26475  39.032   3.320   1.884
54161W        W26476  39.697  20.352  13.381
54162W        W26477   5.847  19.747  12.473
54163W        W26478  16.690  38.810   1.428
54164W        W26479   3.735  27.787  12.392
54165W        W26480  43.366  19.180  12.899
54166W        W26481  28.368   3.951   0.811
54167W        W26482  27.172  20.731   0.297
54168W        W26483  25.429  44.427   4.168
54169W        W26484  18.524  38.812   4.962
54170W        W26485  19.563  33.884   1.234
54171W        W26486  35.800  29.199  11.779
54172W        W26487   4.446  28.937  11.497
54173W        W26488  28.629  25.055  12.191
54174W        W26489  15.817  20.224  13.005
54175W        W26490   3.301  10.042   1.824
54176W        W26491  22.653  38.612   0.505
54177W        W26492   3.796  43.846  13.503
54178W        W26493  23.740   4.428   2.765
54179W        W26494   0.726  33.634   3.848
54180W        W26495  27.056  44.373   1.209
54181W        W26496  18.729  12.204  11.112
54182W        W26497  22.151   5.834  11.741
54183W        W26498  31.516  10.622   4.538
54184W        W26499  39.439  40.257   1.893
54185W        W26500   6.878  32.288  13.416
54186W        W26501   9.746  24.785   3.376
54187W        W26502  12.699  30.003  14.554
54188W        W26503  42.692  25.869   4.800
54189W        W26504  44.067  29.047   4.627
54190W        W26505  23.151  44.139  10.054
54191W        W26506  23.826   0.251   1.521
54192W        W26507   8.882  25.618   2.340
54193W        W26508   3.471  32.198  13.365
54194W        W26509  40.087  38.345  11.138
54195W        W26510  14.286  38.342  11.666
54196W        W26511  11.958  29.679   2.632
54197W        W26512  29.613  14.142   3.817
54198W        W26513   3.873  21.227   1.854
54199W        W26514   2.698  33.949  13.531
54200W        W26515   1.122   0.523   0.868
54201W        W26516  14.117  19.707  11.437
54202W        W26517  22.015   5.762   2.106
54203W        W26518   4.328  16.859   4.279
54204W        W26519  20.788   1.797  13.856
54205W        W26520   7.889   4.074   3.912
54206W        W26521  18.553  23.452   2.212
54207W        W26522  32.432  41.004   2.304
54208W        W26523  44.861  34.705  12.415
54209W        W26524  10.302  39.100  14.787
54210W        W26525  28.079  16.110  12.437
54211W        W26526   5.142  22.273   0.811
54212W        W26527  16.882  40.830   4.689
54213W        W26528  23.256  25.649  12.526
54214W        W26529  34.072  42.337   4.884
54215W        W26530   0.861  19.332   0.059
54216W        W26531  43.975  27.401   0.888
54217W        W26532  35.188   1.388   3.688
54218W        W26533  16.220  42.341   2.251
54219W        W26534  18.649  17.494   2.756
54220W        W26535  27.709  25.516   0.352
54221W        W26536  14.704  43.215  13.709
54222W        W26537   6.972  37.400  11.409
54223W        W26538  39.082  36.078   3.809
54224W        W26539  28.379  21.995   0.228
54225W        W26540  25.081  21.975  13.972
54226W        W26541  21.622  11.289  13.170
54227W        W26542  31.907  40.047   1.327
54228W        W26543   7.169  10.260   3.258
54229W        W26544  44.048   4.684   2.446
54230W        W26545  25.169  32.327   4.236
54231W        W26546  30.980  12.194   2.789
54232W        W26547  17.783  10.211   1.197
54233W        W26548  43.071   1.843   4.637
54234W        W26549  40.289  40.783   1.437
54235W        W26550  25.088   6.985   2.403
54236W        W26551  37.880   6.712  11.483
54237W        W26552  37.280  35.803   0.503
54238W        W26553  36.467  21.189  14.630
54239W        W26554  29.203  24.035  12.329
54240W        W26555  15.381  14.819   4.690
54241W        W26556  20.692  26.478  13.952
54242W        W26557   3.920  10.264  11.450
54243W        W26558  43.855  36.035   1.956
54244W        W26559  31.937   9.270  12.306
54245W        W26560  16.092  14.596   1.878
54246W        W26561   8.286   0.887  13.200
54247W        W26562   5.590  35.849   3.344
54248W        W26563   7.999  33.985   4.739
54249W        W26564   6.728  22.106  12.593
54250W        W26565  27.651  30.439  11.945
54251W        W26566  43.299  36.006   2.426
54252W        W26567  12.831  40.861  13.411
54253W        W26568   1.487   3.251   3.130
54254W        W26569  12.745   1.577  13.370
54255W        W26570  34.664  36.363   2.716
54256W        W26571  44.881  35.049  11.252
54257W        W26572   2.864  25.158  13.077
54258W        W26573   6.495  10.642  11.959
54259W        W26574  24.114  22.180  12.878
54260W        W26575  25.191  21.582  12.876
54261W        W26576   0.531  15.318  14.517
54262W        W26577   8.864   0.956   4.727
54263W        W26578  36.592  15.184   3.305
54264W        W26579  44.003  19.035  14.991
54265W        W26580   5.504  25.617  12.504
54266W        W26581  42.834  26.309  14.909
54267W        W26582  17.144  40.607   3.849
54268W        W26583  39.515  26.987   2.886
54269W        W26584   4.713  38.525   3.859
54270W        W26585  35.057  18.395  13.010
54271W        W26586  35.785  19.680  14.278
54272W        W26587  36.425   5.371  13.736
54273W        W26588  20.558  22.479   3.567
54274W        W26589   2.339  44.411  13.402
54275W        W26590  19.577  41.604   4.050
54276W        W26591  23.679  37.104   0.250
54277W        W26592   5.833   4.214  14.894
54278W        W26593  23.229  12.389   4.162
54279W        W26594  17.556  14.612   0.192
54280W        W26595  41.314  14.733  14.919
54281W        W26596  28.540  32.476  13.057
54282W        W26597   1.892  34.179  10.980
54283W        W26598  20.448   0.350   0.105
54284W        W26599  35.061   2.815  12.176
54285W        W26600   5.982  19.751   2.758
54286W        W26601   7.974  36.556  13.408
54287W        W26602  20.757  21.007   3.434
54288W        W26603  35.835  11.852   4.663
54289W        W26604  20.196  14.032  13.881
54290W        W26605   2.006  32.991   0.370
54291W        W26606  21.676  25.945  11.009
54292W        W26607  19.781  26.936  11.226
54293W        W26608   1.789  22.313   1.353
54294W        W26609  43.996  40.963  11.489
54295W        W26610  36.021  17.040   5.236
54296W        W26611  27.113  36.804  11.111
54297W        W26612  15.809  20.742  10.659
54298W        W26613  30.458   0.638  14.947
54299W        W26614  23.263  27.599  13.452
54300W        W26615  13.967   9.671  14.263
54301W        W26616  36.143  41.229  10.777
54302W        W26617  30.145   4.902  11.552
54303W        W26618  13.431  27.328  13.095
54304W        W26619  12.711   4.929  12.984
54305W        W26620  18.177  38.132   1.643
54306W        W26621  26.692  15.668   4.209
54307W        W26622  37.991   5.994  14.228
54308W        W26623  43.847  10.677  11.044
54309W        W26624  17.655  21.533   2.922
54310W        W26625  11.092  40.802  12.300
54311W        W26626   1.755  30.577  13.419
54312W        W26627  24.341  42.575  13.458
54313W        W26628  40.426  25.812  13.360
54314W        W26629  16.291  26.971   4.681
54315W        W26630  22.532   0.931   1.417
54316W        W26631  14.293  12.764   0.342
54317W        W26632  35.074  20.087  13.306
54318W        W26633   8.768  25.584  12.334
54319W        W26634  12.640  30.893  14.092
54320W        W26635  35.229  31.818  14.497
54321W        W26636  43.663  12.266  11.304
54322W        W26637  10.744  34.877   0.317
54323W        W26638  43.277   1.048  13.173
54324W        W26639  20.318   1.009   2.801
54325W        W26640  16.155   5.350  11.635
54326W        W26641  40.986  42.594   0.979
54327W        W26642  28.531  20.966  12.380
54328W        W26643  14.365  38.289   3.679
54329W        W26644  33.946   3.882   5.066
54330W        W26645  42.467  21.044   1.036
54331W        W26646  33.612  39.162  14.337
54332W        W26647   8.329  38.928  14.523
54333W        W26648  34.385  39.600  14.024
54334W        W26649  33.150  20.543  13.026
54335W        W26650  15.704  41.631  12.699
54336W        W26651  11.435  28.642   1.065
54337W        W26652   4.532  30.864   0.881
54338W        W26653  38.020  20.190   4.851
54339W        W26654  44.779  39.696  11.647
54340W        W26655   4.798  13.627   1.802
54341W        W26656  37.692  38.895  13.325
54342W        W26657  13.834  30.451  13.797
54343W        W26658   6.876  29.266  14.907
54344W        W26659  20.267   3.925   4.154
54345W        W26660  13.869   1.114  11.835
54346W        W26661  40.310  19.836   2.289
54347W        W26662  26.849  43.833   2.104
54348W        W26663   7.631  17.600  13.473
54349W        W26664  21.703  26.107  13.008
54350W        W26665   0.031  44.332   1.205
54351W        W26666  34.308   9.875   1.895
54352W        W26667  15.073  30.471   4.273
54353W        W26668  33.644   0.433  13.871
54354W        W26669  42.778  11.230   1.204
54355W        W26670   3.735  25.721   0.850
54356W        W26671  19.063  40.053   2.281
54357W        W26672  26.130   5.791   4.017
54358W        W26673  40.994   9.894  13.423
54359W        W26674  17.254   5.368   2.736
54360W        W26675  19.271  33.967   3.547
54361W        W26676  43.568  39.516   3.546
54362W        W26677  43.923  28.539  10.763
54363W        W26678  22.498   7.760   2.787
54364W        W26679  12.134   2.806  11.435
54365W        W26680  24.758  25.218  13.967
54366W        W26681  33.134  18.788   2.806
54367W        W26682  15.708  30.541   4.505
54368W        W26683   6.653   3.532  11.531
54369W        W26684  42.794   2.507   2.297
54370W        W26685  14.698   5.804  13.076
54371W        W26686  18.085  19.466  12.982
54372W        W26687  21.789   8.270   1.689
54373W        W26688  19.699  22.072  14.837
54374W        W26689  40.338   3.877  11.199
54375W        W26690  29.269  21.425   1.245
54376W        W26691  19.617   4.756  10.634
54377W        W26692  27.401  37.437   0.486
54378W        W26693  24.411  43.809  11.572
54379W        W26694  11.892  35.914  11.611
54380W        W26695  41.767  19.617  14.328
54381W        W26696   3.769  26.505   4.236
54382W        W26697  23.404  38.455   0.719
54383W        W26698  32.400   9.850  11.475
54384W        W26699  24.750  41.023   4.147
54385W        W26700  28.569   3.497   3.638
54386W        W26701   9.336   8.697  14.314
54387W        W26702  19.445   7.765   3.336
54388W        W26703  26.000  22.805  10.557
54389W        W26704  19.001  38.022   1.831
54390W        W26705  36.016   6.394   0.477
54391W        W26706  19.969  11.882   4.287
54392W        W26707  23.937  31.431  11.576
54393W        W26708  13.754  18.807  14.605
54394W        W26709  12.844  29.857   2.625
54395W        W26710   9.330  24.879   1.308
54396W        W26711  30.385  39.499  12.452
54397W        W26712   3.374  41.459  12.062
54398W        W26713   9.691  27.467   0.527
54399W        W26714  22.502  38.498   2.303
54400W        W26715   6.388  23.683   3.242
54401W        W26716  44.868  28.434  14.805
54402W        W26717  19.506  44.139   0.342
54403W        W26718  27.326   2.267  13.998
54404W        W26719  25.925   4.890   2.755
54405W        W26720  23.058  27.100  13.362
54406W        W26721  40.390  14.724   4.192
54407W        W26722  18.222  22.222  14.833
54408W        W26723   4.355  37.104  14.279
54409W        W26724  33.494  28.192   4.794
54410W        W26725  24.023  36.282   0.292
54411W        W26726  27.591  25.017   4.633
54412W        W26727   8.311  36.060   4.391
54413W        W26728  13.732   8.093   4.388
54414W        W26729  11.827  12.678  14.795
54415W        W26730   2.808  39.030  14.572
54416W        W26731  15.795  42.035   0.904
54417W        W26732  28.613  33.904  13.172
54418W        W26733  22.644  35.869  14.834
54419W        W26734  20.993  42.464  14.471
54420W        W26735  43.258   4.992  14.963
54421W        W26736  31.585  40.477  13.786
54422W        W26737  28.036  36.993  11.141
54423W        W26738  40.476  11.243   2.357
54424W        W26739  22.759  28.731   1.360
54425W        W26740  24.516  18.127  10.507
54426W        W26741  32.919  40.684  14.928
54427W        W26742  18.207  27.491  14.752
54428W        W26743  30.368  18.833  13.535
54429W        W26744  28.216  18.560   5.118
54430W        W26745  40.062  11.238  12.154
54431W        W26746  28.622   8.457   0.972
54432W        W26747  23.024   8.674   3.759
54433W        W26748   7.939   3.430  12.980
54434W        W26749  25.381   0.394   3.019
54435W        W26750  13.431  21.724  14.609
54436W        W26751  27.453  10.366  14.932
54437W        W26752  30.171   7.092   2.308
54438W        W26753  16.812  34.888   0.038
54439W        W26754  42.862  41.096  10.577
54440W        W26755  33.849  14.225   0.525
54441W        W26756   6.869   5.449   2.348
54442W        W26757  43.202  13.746  11.469
54443W        W26758   1.408  44.437   1.436
54444W        W26759   5.164  16.551  12.905
54445W        W26760  20.424  20.304  14.507
54446W        W26761  44.921  30.670  11.938
54447W        W26762   6.697  42.540   1.980
54448W        W26763  16.808   8.104  11.962
54449W        W26764  21.542  29.089   3.673
54450W        W26765  10.597  39.876   2.929
54451W        W26766   7.490  25.253   4.199
54452W        W26767   7.221   7.745  12.386
54453W        W26768  11.543  19.096  10.080
54454W        W26769  28.869   3.244   1.883
54455W        W26770  26.683   1.889  12.926
54456W        W26771  16.363  40.843   4.779
54457W        W26772  32.015  18.056  12.548
54458W        W26773  31.029  15.138  11.012
54459W        W26774  12.905  14.285  13.343
54460W        W26775  18.653  13.295   3.704
54461W        W26776  40.884  41.873  14.748
54462W        W26777  16.800  40.614  14.279
54463W        W26778  41.921  42.514   0.989
54464W        W26779  32.443  13.529  13.373
54465W        W26780  10.295  35.867  13.329
54466W        W26781  43.367  42.034   3.296
54467W        W26782  27.063  42.878  12.024
54468W        W26783  35.283  17.743  12.779
54469W        W26784  30.124  30.065   0.006
54470W        W26785   7.365  18.806  11.328
54471W        W26786  13.808   1.459  14.864
54472W        W26787  17.502   8.574  12.433
54473W        W26788  34.357  33.491   1.379
54474W        W26789  12.298   8.348  10.618
54475W        W26790   1.649  32.326   3.723
54476W        W26791  24.374   3.753   2.690
54477W        W26792  18.707   1.336  11.103
54478W        W26793  15.860  40.368   0.835
54479W        W26794  39.762   3.243   1.341
54480W        W26795  30.575  41.521   4.138
54481W        W26796  31.509  12.861  12.922
54482W        W26797  15.691  29.882   5.646
54483W        W26798  22.070   7.572  12.102
54484W        W26799   5.293  30.415  13.527
54485W        W26800  32.580  13.882   2.637
54486W        W26801  40.040  39.756   4.680
54487W        W26802  25.236  11.566   3.290
54488W        W26803  13.031  44.359  12.370
54489W        W26804  22.954  39.238  10.241
54490W        W26805  16.016   1.077  12.463
54491W        W26806  29.154  32.893   9.705
54492W        W26807  25.673   4.779   0.521
54493W        W26808  34.355  18.710  10.994
54494W        W26809   0.255  34.412   3.964
54495W        W26810  18.033  26.971   4.060
54496W        W26811  13.769  39.438  13.767
54497W        W26812  41.770  36.969   3.723
54498W        W26813  29.681  25.627  14.818
54499W        W26814  17.119  24.245   1.661
54500W        W26815  43.958  24.705  14.898
54501W        W26816  17.727  22.482   3.360
54502W        W26817  27.797  37.856  10.889
54503W        W26818  38.262  29.120   5.100
54504W        W26819   8.414  25.597   4.145
54505W        W26820   1.512  39.556  14.877
54506W        W26821   1.230   7.736   3.178
54507W        W26822  30.957  27.642   2.199
54508W        W26823  25.122  15.908  13.027
54509W        W26824   8.500  43.020   2.753
54510W        W26825  43.957  28.553   2.463
54511W        W26826   6.963  20.019  14.095
54512W        W26827  30.114  13.917  13.103
54513W        W26828   1.865  28.141   3.909
54514W        W26829   5.095  37.664   1.769
54515W        W26830  22.191  21.632   1.653
54516W        W26831  11.184   6.344  13.727
54517W        W26832  11.107  25.438   1.458
54518W        W26833  13.409   2.304   4.197
54519W        W26834  40.466  39.973   0.867
54520W        W26835  11.713  22.968   0.004
54521W        W26836  36.493  12.109  13.471
54522W        W26837  40.444  13.187  11.020
54523W        W26838  21.483  12.283   3.714
54524W        W26839   6.198   9.453   2.371
54525W        W26840  12.695   5.666  11.905
54526W        W26841  41.557   2.837   4.100
54527W        W26842  10.010  26.565   3.083
54528W        W26843  36.457  31.302  10.422
54529W        W26844  10.065   1.182  11.131
54530W        W26845  13.449   9.699   1.232
54531W        W26846  30.941  39.849   0.298
54532W        W26847   7.318  28.438  11.873
54533W        W26848  13.228  27.911   0.791
54534W        W26849  31.386  15.878  12.946
54535W        W26850  16.535  44.723   4.686
54536W        W26851   2.235  12.239  11.646
54537W        W26852   7.864  13.416  11.995
54538W        W26853  39.487  16.243  14.339
54539W        W26854  23.026  43.981   0.838
54540W        W26855  13.288  39.018   2.280
54541W        W26856  17.280  40.595  13.327
54542W        W26857  30.533   8.713   1.320
54543W        W26858   8.945  22.456  14.820
54544W        W26859  16.881   7.682   3.667
54545W        W26860  16.097  36.850   2.380
54546W        W26861  20.156  15.128  14.090
54547W        W26862  29.029  10.755   4.759
54548W        W26863   7.738  10.315   2.624
54549W        W26864   9.362  43.967   1.377
54550W        W26865  26.234   8.769   2.264
54551W        W26866  29.135  20.654  10.701
54552W        W26867  16.561   3.852   4.192
54553W        W26868  13.679  20.625   0.835
54554W        W26869  13.035  23.457  12.531
54555W        W26870   9.211  33.390  13.350
54556W        W26871  39.256  16.006   2.796
54557W        W26872   3.319  20.186   3.112
54558W        W26873  20.451  15.912   3.625
54559W        W26874  17.472  12.172  13.961
54560W        W26875  20.754   2.320   1.195
54561W        W26876   5.992   9.431   0.255
54562W        W26877   7.731  44.805  13.513
54563W        W26878   1.695  17.757   1.740
54564W        W26879  33.920   3.600   4.598
54565W        W26880  40.562  20.688  13.479
54566W        W26881   0.502  30.257  14.880
54567W        W26882  19.701  14.752   1.034
54568W        W26883  20.133  36.405   0.022
54569W        W26884  22.905  42.491  12.093
54570W        W26885   4.605   6.129   0.417
54571W        W26886  37.202  16.612  11.425
54572W        W26887  27.907   5.943  14.866
54573W        W26888  22.756  28.990   4.866
54574W        W26889  15.122  31.139  13.433
54575W        W26890  39.015  22.806  10.159
54576W        W26891  36.491  20.768   4.132
54577W        W26892   7.680   5.393  14.323
54578W        W26893  16.461   8.775  12.450
54579W        W26894   9.537  44.435  14.290
54580W        W26895  24.308   9.791  12.716
54581W        W26896  11.148  44.403   0.942
54582W        W26897  42.651  13.148  10.588
54583W        W26898   9.266  24.414  11.840
54584W        W26899   5.982   4.946   2.389
54585W        W26900   4.562  19.611   2.420
54586W        W26901   0.930  12.224   5.024
54587W        W26902  35.996  22.574   4.511
54588W        W26903  17.179  37.566  12.972
54589W        W26904  10.229  35.531   1.720
54590W        W26905   1.120  13.123  11.444
54591W        W26906  22.683  30.747  12.467
54592W        W26907  16.861  16.677  11.953
54593W        W26908  31.446  25.859   2.608
54594W        W26909  42.119   6.379   1.387
54595W        W26910   1.098  12.346   2.696
54596W        W26911  26.966  22.722   0.973
54597W        W26912  43.739  13.330  14.400
54598W        W26913   3.828  22.535   4.128
54599W        W26914  25.425  40.472   0.320
54600W        W26915   6.437  22.731  13.911
54601W        W26916  40.252  41.610  10.233
54602W        W26917   7.909   3.653  14.544
54603W        W26918  18.179  38.150  12.435
54604W        W26919  11.918  14.690   4.918
54605W        W26920  11.353  24.649  11.096
54606W        W26921   8.676   3.782  14.915
54607W        W26922  16.836  44.448   3.161
54608W        W26923  12.772   6.396   3.892
54609W        W26924  40.928  34.137   4.150
54610W        W26925  17.055  18.657   1.720
54611W        W26926  15.190  26.623   1.372
54612W        W26927   1.315  20.959  10.177
54613W        W26928   4.240  25.560   0.846
54614W        W26929  14.595  32.297   3.258
54615W        W26930  29.110  31.971   0.425
54616W        W26931   9.284   6.789   1.967
54617W        W26932  33.858   4.083   3.272
54618W        W26933  19.086  13.767  11.076
54619W        W26934  22.787  13.653   1.230
54620W        W26935  40.911  36.311   2.311
54621W        W26936  15.115  22.237  14.975
54622W        W26937  21.680   9.481   1.956
54623W        W26938  26.570  36.181  12.829
54624W        W26939   1.939  27.622  12.942
54625W        W26940  32.029  22.384  10.235
54626W        W26941  38.122  20.760  10.579
54627W        W26942  27.586  43.213  11.496
54628W        W26943  32.428  16.748  13.558
54629W        W26944  17.336   1.094   9.850
54630W        W26945  19.792   7.511  10.263
54631W        W26946  40.509   3.293  13.727
54632W        W26947  44.217  41.688   4.462
54633W        W26948  20.085   2.771  14.533
54634W        W26949  43.440  12.393   0.102
54635W        W26950  44.747   9.810  13.834
54636W        W26951  20.774  28.086  12.118
54637W        W26952  31.997   0.954  14.778
54638W        W26953  23.178  13.802   4.832
54639W        W26954  22.029  24.648   0.550
54640W        W26955  12.061  20.833   2.968
54641W        W26956   1.476  19.543   1.236
54642W        W26957  16.123  30.401  10.395
54643W        W26958  26.552  21.398   0.754
54644W        W26959  42.892  27.180  12.275
54645W        W26960  15.813   3.477   3.175
54646W        W26961   7.823  16.361  11.826
54647W        W26962  33.519  21.010   2.047
54648W        W26963  17.351  17.391   5.055
54649W        W26964  40.640  42.415   1.832
54650W        W26965  14.327  14.795  11.024
54651W        W26966   4.906  31.441   2.848
54652W        W26967  24.568  44.813  14.473
54653W        W26968  40.930  27.921   0.354
54654W        W26969  39.529  31.016   3.689
54655W        W26970  20.577  19.307  11.984
54656W        W26971   5.969  40.674   0.493
54657W        W26972  41.086  18.168   2.635
54658W        W26973  30.524  22.988  11.891
54659W        W26974  40.006   0.722  10.708
54660W        W26975  17.169  32.911  11.938
54661W        W26976  37.980  44.530   4.142
54662W        W26977  38.316  41.495   0.428
54663W        W26978  37.986  18.348  12.895
54664W        W26979  34.035   1.047   4.601
54665W        W26980  22.128  34.528  13.827
54666W        W26981   1.303  15.874  13.790
54667W        W26982   2.881   8.381  11.812
54668W        W26983  41.921  43.395  13.358
54669W        W26984  31.917   4.665  13.369
54670W        W26985  16.858  18.817  11.038
54671W        W26986  36.561  44.913   2.748
54672W        W26987  14.733  36.387   4.660
54673W        W26988  18.625  31.168  11.834
54674W        W26989  26.190  25.726  14.031
54675W        W26990  24.213  28.474  13.499
54676W        W26991  13.861  26.103  12.107
54677W        W26992  32.873  13.563   2.914
54678W        W26993  23.152  34.812  14.272
54679W        W26994   9.228  22.447  12.036
54680W        W26995   0.331  26.100  14.241
54681W        W26996  10.428  12.900   1.804
54682W        W26997   7.213  12.799  13.659
54683W        W26998   5.074  14.801  13.113
54684W        W26999  22.518  15.529   9.957
54685W        W27000   2.024   6.343   0.818
54686W        W27001  35.836  37.061  10.741
54687W        W27002  40.344  28.715  12.420
54688W        W27003  40.942  15.605  13.944
54689W        W27004  37.326  35.871  10.732
54690W        W27005  42.460  23.449   3.606
54691W        W27006   9.310  38.519  13.376
54692W        W27007   6.750   3.364   2.395
54693W        W27008  26.707  15.479   0.355
54694W        W27009   2.823  27.835  12.415
54695W        W27010  42.017  13.984   9.966
54696W        W27011   7.903  17.661  13.988
54697W        W27012  30.842  16.545  12.385
54698W        W27013  20.593   8.666  14.708
54699W        W27014  18.834  41.823  14.011
54700W        W27015  41.322  13.293   1.866
54701W        W27016  41.905  44.037   3.293
54702W        W27017  29.382  27.140   5.039
54703W        W27018  11.228  27.356   2.876
54704W        W27019  22.487  31.624  14.265
54705W        W27020  28.554  31.639   3.781
54706W        W27021  32.507  25.629   3.292
54707W        W27022  13.063  16.747   0.268
54708W        W27023  18.276  10.916   9.736
54709W        W27024   3.248  28.574   4.966
54710W        W27025  35.918   8.233  11.198
54711W        W27026  16.081  37.906   2.192
54712W        W27027  22.421  39.451   0.769
54713W        W27028  28.651  18.636  13.982
54714W        W27029  42.848  25.275  14.847
54715W        W27030   8.766  31.174  11.150
54716W        W27031  31.824   9.834   3.383
54717W        W27032  40.431  24.999  11.148
54718W        W27033  26.195  30.580   3.915
54719W        W27034  28.066  37.117   0.012
54720W        W27035   4.387  35.471   4.317
54721W        W27036  27.654   2.208  14.411
54722W        W27037  20.188  34.259   0.797
54723W        W27038  37.509  19.598  10.762
54724W        W27039   7.918  37.506   1.380
54725W        W27040  43.070  18.670  11.099
54726W        W27041  32.481  22.760   0.014
54727W        W27042  10.730  13.439   4.435
54728W        W27043  20.208  11.259   3.100
54729W        W27044  30.963  17.607  11.179
54730W        W27045  31.129  23.155   4.244
54731W        W27046  43.743  43.091  14.554
54732W        W27047  16.561   9.151   0.562
54733W        W27048   8.456  33.921   2.745
54734W        W27049  31.143   2.504  14.293
54735W        W27050  17.512  14.459   9.939
54736W        W27051  41.269   5.176  11.267
54737W        W27052  25.207  38.010  13.505
54738W        W27053  28.658  40.350  11.072
54739W        W27054  37.373   6.934   0.788
54740W        W27055  32.129  10.147   2.210
54741W        W27056  29.537  17.186  11.513
54742W        W27057   7.942  28.486   3.645
54743W        W27058  38.604  29.500   4.963
54744W        W27059  38.307  43.269  13.083
54745W        W27060   6.138  17.198   3.473
54746W        W27061  34.305   7.854   3.613
54747W        W27062   4.434  11.327   2.372
54748W        W27063   5.250   6.480  12.423
54749W        W27064  33.599   6.920   0.388
54750W        W27065  13.523  22.189  14.342
54751W        W27066  25.024   6.993   4.230
54752W        W27067  33.318  33.013   4.659
54753W        W27068   5.132   9.885  11.170
54754W        W27069  16.283  41.265  11.997
54755W        W27070  32.851   1.869   4.754
54756W        W27071  17.681  27.767  13.779
54757W        W27072  37.381  29.760  14.934
54758W        W27073  36.065   0.984  13.365
54759W        W27074   0.983  26.555  13.960
54760W        W27075   4.780  20.081   2.544
54761W        W27076  34.476  21.682  13.265
54762W        W27077   2.706  39.439   0.506
54763W        W27078  29.228  14.908  11.922
54764W        W27079  40.392  38.382   1.734
54765W        W27080  40.054  22.602  10.715
54766W        W27081   7.768   7.275   4.082
54767W        W27082   5.843  25.553   4.165
54768W        W27083  33.902   0.202   3.520
54769W        W27084  41.707  44.465   3.094
54770W        W27085   4.242  42.276   3.324
54771W        W27086   5.745  32.841  11.678
54772W        W27087  24.686  34.746   3.746
54773W        W27088  35.071  37.390  11.087
54774W        W27089  15.220  23.099   4.493
54775W        W27090  29.225  42.996  10.686
54776W        W27091  20.408  43.904  13.269
54777W        W27092  23.675   9.707   2.253
54778W        W27093  40.342  36.138   3.400
54779W        W27094  30.821  39.296   0.189
54780W        W27095   5.299  15.842   3.177
54781W        W27096  36.404  18.906   4.111
54782W        W27097  30.649   4.958   3.723
54783W        W27098  44.502   8.675  11.002
54784W        W27099  11.616  25.122  14.058
54785W        W27100   2.346  29.404   3.658
54786W        W27101   8.033  42.454   0.702
54787W        W27102  42.275  26.119  13.910
54788W        W27103  32.716  27.607  14.376
54789W        W27104  44.282  28.054  14.224
54790W        W27105  16.316  33.333  13.563
54791W        W27106  42.165   1.819  13.906
54792W        W27107  16.201   2.815  14.027
54793W        W27108  29.480  33.662   1.740
54794W        W27109  37.835   4.141  14.518
54795W        W27110  38.790   1.067  13.015
54796W        W27111  36.926  39.230   4.235
54797W        W27112  33.679  24.486   1.447
54798W        W27113  15.217  40.102  14.015
54799W        W27114  13.034  34.963   0.797
54800W        W27115   3.262  23.876  10.709
54801W        W27116   2.278  29.440  13.900
54802W        W27117   6.332  33.657  13.345
54803W        W27118  19.573  27.291  10.734
54804W        W27119   5.156   0.939   2.846
54805W        W27120  31.753  15.679   2.751
54806W        W27121  31.941  42.986   4.100
54807W        W27122  22.803  33.419  13.278
54808W        W27123  10.636  19.256   2.189
54809W        W27124  37.538  44.563   3.780
54810W        W27125  15.379  25.485   0.511
54811W        W27126  44.834  12.697   5.547
54812W        W27127   3.852  32.721  11.005
54813W        W27128  40.878  38.109   3.835
54814W        W27129  15.927  38.982  13.037
54815W        W27130  24.701   1.949   1.528
54816W        W27131   6.712  33.478  12.050
54817W        W27132   5.435  38.914   0.615
54818W        W27133  34.434  32.162   1.672
54819W        W27134  11.273  18.019   0.450
54820W        W27135  10.667  38.434   3.123
54821W        W27136   9.845   9.432   0.937
54822W        W27137   3.207  15.637  11.593
54823W        W27138   5.943  18.669   1.000
54824W        W27139  42.990  43.111   3.685
54825W        W27140  20.800   9.361   3.247
54826W        W27141  15.584  26.739   2.683
54827W        W27142  43.105  44.044   1.746
54828W        W27143  42.554  43.448   3.571
54829W        W27144   0.383  15.156   3.361
54830W        W27145  35.554  10.913   2.140
54831W        W27146   1.420  10.888   2.759
54832W        W27147  20.788  18.180  12.389
54833W        W27148   0.199   4.898   3.896
54834W        W27149   9.945  10.713  11.356
54835W        W27150  12.839   9.328   4.457
54836W        W27151  18.581  10.225  11.990
54837W        W27152  32.342  37.620   4.983
54838W        W27153  41.386  36.441   1.235
54839W        W27154  18.532   5.422  11.104
54840W        W27155   4.378   8.868   2.393
54841W        W27156   6.552  32.633  11.606
54842W        W27157  38.029  25.147   1.312
54843W        W27158  44.658   4.579  14.830
54844W        W27159  39.207  35.557  13.001
54845W        W27160  18.650  26.051  14.284
54846W        W27161  36.138  42.928  14.802
54847W        W27162  44.508   0.885  11.394
54848W        W27163  35.806  11.679  11.681
54849W        W27164  32.160   3.536  11.536
54850W        W27165  12.828  36.316   2.825
54851W        W27166  22.992  30.744  10.431
54852W        W27167   0.416   5.506   4.236
54853W        W27168  18.958  20.736  11.775
54854W        W27169  18.538  43.813  14.625
54855W        W27170  18.997  29.311  14.431
54856W        W27171  17.048  29.793  14.265
54857W        W27172  21.400  42.305   4.310
54858W        W27173  23.107  16.154   3.092
54859W        W27174   6.306  27.906   0.444
54860W        W27175  42.409  43.368  14.428
54861W        W27176  21.270  10.775  13.457
54862W        W27177  23.458  14.818   3.305
54863W        W27178  41.059  28.446  12.078
54864W        W27179  23.713  43.800   1.311
54865W        W27180  37.526  41.494   0.916
54866W        W27181  12.150  36.546   2.796
54867W        W27182  35.784  14.762  11.575
54868W        W27183  19.671  32.518   4.752
54869W        W27184  24.143  36.471   1.427
54870W        W27185  24.229  12.133  14.758
54871W        W27186  39.943  28.948   0.329
54872W        W27187  21.094  35.981  14.537
54873W        W27188  14.182  37.613  10.481
54874W        W27189   0.005  29.930  13.587
54875W        W27190  27.171   2.930  10.820
54876W        W27191  11.948  27.148  14.235
54877W        W27192  31.646  37.087  10.645
54878W        W27193  40.536  36.530   4.678
54879W        W27194  22.198   4.243   1.853
54880W        W27195  38.954   2.456  12.405
54881W        W27196   9.738  25.203  11.559
54882W        W27197   4.887  32.170  12.862
54883W        W27198  18.581  19.102   1.915
54884W        W27199  10.795  10.901   2.228
54885W        W27200  41.037  30.958   0.939
54886W        W27201  19.815  17.214   0.769
54887W        W27202  32.091  30.560  14.574
54888W        W27203  41.793  30.370  11.207
54889W        W27204  42.007  20.780   0.979
54890W        W27205  28.547   1.214  12.311
54891W        W27206  29.668  32.999   1.218
54892W        W27207  28.982  20.203  10.459
54893W        W27208   6.781  37.310  14.302
54894W        W27209   9.489  43.029   2.666
54895W        W27210   1.471  17.493  11.199
54896W        W27211   5.774  10.413   0.502
54897W        W27212  30.781  28.924   4.094
54898W        W27213  16.376  23.687  11.062
54899W        W27214  34.511  25.942   0.013
54900W        W27215  43.336  23.143   3.595
54901W        W27216  31.408  25.773  11.972
54902W        W27217  17.564   8.361   5.040
54903W        W27218  18.101  21.942   4.588
54904W        W27219  24.600  26.757  14.448
54905W        W27220   0.473  17.027   0.090
54906W        W27221  27.652  21.484  12.361
54907W        W27222  38.962   9.540   4.580
54908W        W27223  32.643  43.165   3.525
54909W        W27224   4.769   6.125   4.120
54910W        W27225  34.298   8.651   2.151
54911W        W27226  36.845  20.795   0.301
54912W        W27227  44.787  13.248  14.552
54913W        W27228   3.221  36.924   4.073
54914W        W27229  16.804  23.913   3.434
54915W        W27230  36.651  41.039  11.486
54916W        W27231  29.991   4.324  13.517
54917W        W27232   9.060   2.204  11.999
54918W        W27233  11.414   1.932  14.354
54919W        W27234   2.623   5.442   1.771
54920W        W27235  11.849   2.276   3.051
54921W        W27236  43.973   1.364   0.827
54922W        W27237   3.257  44.514  11.546
54923W        W27238  23.917  30.878  11.114
54924W        W27239  42.776  24.670   1.232
54925W        W27240   4.348  32.989  11.033
54926W        W27241   4.124  26.091   0.996
54927W        W27242   3.349  39.110   2.588
54928W        W27243  33.922  17.213  13.166
54929W        W27244  13.525  21.757   2.740
54930W        W27245  43.274  32.433  12.016
54931W        W27246  15.756   0.973  10.479
54932W        W27247  37.466  11.542   4.256
54933W        W27248  16.380  36.949  14.435
54934W        W27249  40.327   3.203  10.630
54935W        W27250  20.469  42.312   4.432
54936W        W27251  15.800  11.882  12.921
54937W        W27252  40.759  44.776   3.114
54938W        W27253  15.069   5.892   0.880
54939W        W27254  33.016  43.362   3.824
54940W        W27255  18.139  17.203   0.706
54941W        W27256  19.166  23.060   4.541
54942W        W27257  30.659  23.131  13.360
54943W        W27258   5.502  34.717  11.284
54944W        W27259  40.853  14.194   0.930
54945W        W27260  37.817  18.310   4.509
54946W        W27261  40.813  19.283   0.559
54947W        W27262  14.269  39.104   0.241
54948W        W27263  10.074  26.915  14.942
54949W        W27264  35.534  21.943   0.438
54950W        W27265  23.000  15.466  10.148
54951W        W27266  11.250   3.561  13.868
54952W        W27267   8.609  13.686  13.087
54953W        W27268   3.865  29.108  10.720
54954W        W27269   8.246  38.413  12.250
54955W        W27270  42.839   0.767  13.393
54956W        W27271  37.473  10.432  12.525
54957W        W27272  38.174   4.202  14.900
54958W        W27273  32.025  19.811  13.778
54959W        W27274   4.344  44.517   0.329
54960W        W27275  26.761   8.849   3.206
54961W        W27276  44.003  42.754  12.110
54962W        W27277  41.404  39.332  13.374
54963W        W27278  18.082  11.032  11.157
54964W        W27279  37.069   1.222  14.019
54965W        W27280   4.352  18.706   0.080
54966W        W27281  15.503  11.807  14.293
54967W        W27282  27.024   5.431  11.862
54968W        W27283   4.811  32.566  12.560
54969W        W27284  17.215  36.849  12.503
54970W        W27285  19.287   0.467   1.238
54971W        W27286  23.231  19.155   2.649
54972W        W27287  30.518  28.438  13.451
54973W        W27288   0.764  14.821  13.227
54974W        W27289   8.255  15.298  14.268
54975W        W27290   7.310  11.493   4.882
54976W        W27291  20.010  20.179   2.218
54977W        W27292  40.556  24.573  12.828
54978W        W27293  17.342  11.740   4.671
54979W        W27294  40.066  25.107   4.341
54980W        W27295  39.630  38.885  10.597
54981W        W27296  17.155  40.790  14.894
54982W        W27297  18.223   0.208   2.255
54983W        W27298   2.358  32.378   2.780
54984W        W27299  15.677  28.886  13.128
54985W        W27300  18.789  22.041  11.081
54986W        W27301  10.062  20.646   4.843
54987W        W27302  28.550  39.097   3.149
54988W        W27303  11.130  14.334  10.551
54989W        W27304   1.382  10.206   4.892
54990W        W27305   6.621  17.411   3.633
54991W        W27306  30.394  33.641  11.995
54992W        W27307  25.040  15.131   1.828
54993W        W27308  21.269  18.601   2.357
54994W        W27309  25.446  38.346   1.805
54995W        W27310  26.019   5.156   3.193
54996W        W27311  32.171  19.668   3.607
54997W        W27312  34.312   6.809  14.917
54998W        W27313  12.583   7.900  14.547
54999W        W27314  26.018  21.965   2.301
55000W        W27315  19.095  18.187  11.088
55001W        W27316  43.873  37.356   3.228
55002W        W27317  14.879  39.824  11.096
55003W        W27318  23.163  42.582   3.161
55004W        W27319  34.895  12.798  10.413
55005W        W27320   2.337  24.741  12.817
55006W        W27321  27.406  33.433   2.130
55007W        W27322   7.982  28.941  12.200
55008W        W27323   4.013  16.222  14.265
55009W        W27324  28.183  10.472  11.422
55010W        W27325  18.513  28.465   1.137
55011W        W27326   2.856  44.055   3.736
55012W        W27327  32.912  42.362  10.723
55013W        W27328  37.225  41.423  10.757
55014W        W27329  12.148  16.113  11.700
55015W        W27330   4.766  16.224  13.890
55016W        W27331  27.659  43.023   4.549
55017W        W27332   1.841  22.245   2.759
55018W        W27333   0.823  41.564  14.057
55019W        W27334  12.345  41.143   4.165
55020W        W27335  44.031  23.776  13.943
55021W        W27336  16.988  17.708  14.821
55022W        W27337   6.280  18.340   5.273
55023W        W27338  37.112   5.213   1.956
55024W        W27339  27.648  31.968   5.299
55025W        W27340  35.377  34.258  11.494
55026W        W27341  14.334  10.731  13.356
55027W        W27342  18.299   8.332   3.774
55028W        W27343  12.373  17.832  14.001
55029W        W27344  21.204  18.579   3.219
55030W        W27345  28.913  17.055  11.565
55031W        W27346  24.700   0.525  13.667
55032W        W27347   8.409  13.351   0.746
55033W        W27348  10.212   6.821   4.120
55034W        W27349  42.801  32.325   0.462
55035W        W27350  20.934  36.484   2.573
55036W        W27351  27.735   9.018   1.843
55037W        W27352  25.158  34.943   0.463
55038W        W27353  37.523  11.458   0.770
55039W        W27354   0.986   3.115  12.449
55040W        W27355  27.313  31.570  10.784
55041W        W27356  20.604  27.779   3.832
55042W        W27357  44.241   9.145  12.146
55043W        W27358  23.262   2.950  10.793
55044W        W27359  16.773  23.395   3.343
55045W        W27360  38.734  12.511   9.765
55046W        W27361   1.649  44.324  12.065
55047W        W27362  44.359   7.877   4.463
55048W        W27363  42.243  33.424  11.114
55049W        W27364  27.251  38.461  14.795
55050W        W27365   6.898  26.880  11.477
55051W        W27366  29.938   0.551  12.031
55052W        W27367  18.906  31.168   0.834
55053W        W27368  16.900  26.500   4.124
55054W        W27369  25.253  10.672  12.329
55055W        W27370  19.757   4.654   3.728
55056W        W27371   5.180  31.078   2.289
55057W        W27372  29.246  41.822  12.043
55058W        W27373  28.616   0.400  13.319
55059W        W27374  35.150  28.094   4.699
55060W        W27375  27.283  22.785   1.386
55061W        W27376  38.966  33.416  10.908
55062W        W27377  28.005  37.153   1.915
55063W        W27378  20.633  34.590  12.306
55064W        W27379  12.127  13.817   3.721
55065W        W27380   5.983   0.371   3.822
55066W        W27381  41.258  25.136  10.709
55067W        W27382  42.025   0.839   3.268
55068W        W27383   6.688   1.024   0.395
55069W        W27384  39.409  32.225   2.352
55070W        W27385  36.865  28.465  14.760
55071W        W27386  38.137  14.712  13.004
55072W        W27387  29.978  24.348  14.675
55073W        W27388  10.717  27.354  10.614
55074W        W27389  42.708  42.452   0.951
55075W        W27390   7.002  42.945   2.121
55076W        W27391  37.594  41.875  11.873
55077W        W27392   7.661  24.099   3.290
55078W        W27393  40.519  23.366  10.778
55079W        W27394  29.624  42.514  11.626
55080W        W27395   0.932  13.178   1.863
55081W        W27396  43.739  37.820   4.156
55082W        W27397  12.636  23.065  14.742
55083W        W27398  25.241  38.408   0.308
55084W        W27399  42.733   3.406   2.305
55085W        W27400  29.621  44.496  12.203
55086W        W27401  36.385  18.972   1.691
55087W        W27402  24.795   1.979  11.898
55088W        W27403   0.587  25.486   0.272
55089W        W27404  18.748   1.788   2.762
55090W        W27405   7.692  20.759   0.902
55091W        W27406   1.640   5.765   3.058
55092W        W27407   5.657  11.285   3.298
55093W        W27408  28.204  33.070   1.436
55094W        W27409   0.366  11.056   1.170
55095W        W27410  27.102  17.396   0.853
55096W        W27411  11.006  24.009   3.189
55097W        W27412  15.968  43.329   0.467
55098W        W27413  16.321  33.052   3.064
55099W        W27414  40.011   6.001  12.592
55100W        W27415   0.850  19.249   0.974
55101W        W27416   2.181  14.823   4.401
55102W        W27417  19.698   7.947   0.888
55103W        W27418  15.653  12.395  11.954
55104W        W27419  41.996   0.004   2.259
55105W        W27420  12.186  23.494  11.010
55106W        W27421   2.378  25.243   3.717
55107W        W27422  18.759  12.655   1.470
55108W        W27423  15.140  23.790  13.962
55109W        W27424  13.189   5.371  10.894
55110W        W27425  34.388   5.367   4.108
55111W        W27426  31.609  11.776  12.940
55112W        W27427   6.212  31.084  12.430
55113W        W27428  29.132  20.183   2.691
55114W        W27429  41.246  19.236  14.498
55115W        W27430  39.316  24.991  13.329
55116W        W27431  32.596   5.549  14.278
55117W        W27432  23.679   0.742   3.184
55118W        W27433  15.540  33.062   0.845
55119W        W27434  16.001   7.816  13.033
55120W        W27435  14.137  37.518   1.364
55121W        W27436  18.722  29.689  13.782
55122W        W27437  13.237  32.671  14.297
55123W        W27438  34.439   8.828  10.385
55124W        W27439  17.609  20.956  10.385
55125W        W27440  32.848  38.963  13.539
55126W        W27441  28.037  18.051   1.858
55127W        W27442  29.421  10.160  13.574
55128W        W27443  30.243   5.859  14.927
55129W        W27444  36.370   6.771   2.224
55130W        W27445  33.895  31.720  12.554
55131W        W27446   7.652  25.430  12.048
55132W        W27447  37.685  31.015  13.005
55133W        W27448  12.740  25.894   3.720
55134W        W27449  28.459  28.304   1.899
55135W        W27450  33.560   9.945   4.687
55136W        W27451   8.220  40.943  12.783
55137W        W27452   4.181  24.557  13.418
55138W        W27453   3.721   5.834  13.644
55139W        W27454  21.231  38.924  11.473
55140W        W27455  37.852  39.920   4.794
55141W        W27456  21.699  24.280   4.057
55142W        W27457  11.138  24.933   1.365
55143W        W27458  30.101  26.084  13.896
55144W        W27459  37.754   5.795  13.802
55145W        W27460  38.269  19.654  14.460
55146W        W27461  19.095  20.219   3.097
55147W        W27462  20.246   8.513  10.712
55148W        W27463  23.601  28.864  10.671
55149W        W27464   3.334  26.220   4.054
55150W        W27465  32.513   5.706   1.878
55151W        W27466   0.963  15.155  11.738
55152W        W27467  13.202   1.817  13.451
55153W        W27468  20.369   1.965  10.340
55154W        W27469  13.308   5.946  14.398
55155W        W27470  18.086  18.572   0.929
55156W        W27471  32.988  42.439  14.341
55157W        W27472  13.170  42.925  14.556
55158W        W27473   3.528  17.215   0.228
55159W        W27474  33.084  33.835   0.734
55160W        W27475  11.730  18.471  14.367
55161W        W27476  38.385  25.393  11.068
55162W        W27477  27.021   5.409  14.388
55163W        W27478  23.580   6.550  10.972
55164W        W27479  10.081  32.103   5.069
55165W        W27480   5.458  32.309  11.688
55166W        W27481  27.294  21.766  14.415
55167W        W27482  37.887   0.290  12.571
55168W        W27483  27.630  39.826  12.503
55169W        W27484  34.411  35.408  12.565
55170W        W27485  25.655  30.319   2.380
55171W        W27486   2.037  12.239   3.764
55172W        W27487  27.029  14.356  14.824
55173W        W27488   2.635   5.804   3.248
55174W        W27489   7.236  18.352  11.116
55175W        W27490   0.296  27.966   1.273
55176W        W27491   4.805  44.315   1.830
55177W        W27492  36.985  39.400  14.932
55178W        W27493  29.386  38.777  10.754
55179W        W27494  18.482  11.755   3.349
55180W        W27495  33.661  22.709  12.950
55181W        W27496  33.088  23.108   4.806
55182W        W27497  15.847   0.472   1.975
55183W        W27498  21.579   5.218  11.577
55184W        W27499  23.662   0.686   0.800
55185W        W27500  43.016  26.242   3.324
55186W        W27501  13.282  23.420   1.330
55187W        W27502  26.371   6.394  13.696
55188W        W27503   2.402  23.404   4.587
55189W        W27504  13.760  19.575   1.762
55190W        W27505  43.549  40.585  12.497
55191W        W27506  32.202  12.131   0.387
55192W        W27507  29.527  34.884   2.087
55193W        W27508  42.567  43.166   3.161
55194W        W27509  14.641  44.508   3.939
55195W        W27510  22.591  30.159   0.192
55196W        W27511  12.145  34.615  12.553
55197W        W27512  11.131   5.703   1.255
55198W        W27513  34.876   4.147   4.125
55199W        W27514  13.742   7.724  12.567
55200W        W27515  11.379   6.431   3.369
55201W        W27516  44.979  43.501  10.454
55202W        W27517   3.027  30.764   2.781
55203W        W27518   4.534  31.513   0.389
55204W        W27519   1.204  38.613   2.804
55205W        W27520   0.637   2.557   1.599
55206W        W27521  44.976  25.120   2.206
55207W        W27522  17.644   3.014  14.942
55208W        W27523  16.346  27.925  10.631
55209W        W27524  17.735  43.748   1.978
55210W        W27525  30.521  28.072  14.942
55211W        W27526  11.166  13.253  12.186
55212W        W27527  27.910  29.470  13.968
55213W        W27528  15.609  44.860   3.228
55214W        W27529  31.859   5.788   1.723
55215W        W27530  24.698  19.579   4.633
55216W        W27531   2.294  13.169  11.705
55217W        W27532  36.818  35.877  10.739
55218W        W27533  31.038  27.165  11.838
55219W        W27534  30.869  11.730   0.486
55220W        W27535  35.798  26.128  14.282
55221W        W27536  38.959  33.020   4.085
55222W        W27537  16.169  31.788   1.171
55223W        W27538  44.750  30.935   3.850
55224W        W27539  43.031  20.667  11.095
55225W        W27540  28.462   2.332  11.008
55226W        W27541   9.714  35.850   0.324
55227W        W27542  15.402  36.873   0.215
55228W        W27543  40.395  43.802  14.929
55229W        W27544  24.095  31.467   3.149
55230W        W27545  33.884   8.141   2.144
55231W        W27546  22.956  26.564   0.825
55232W        W27547  25.541  30.468  13.110
55233W        W27548  18.844  23.303   1.789
55234W        W27549   4.818  16.286   4.526
55235W        W27550  28.943   4.881  12.487
55236W        W27551  25.008  21.614  10.078
55237W        W27552  18.932  41.592   0.842
55238W        W27553  32.187   5.853  13.810
55239W        W27554  35.827  34.470   1.876
55240W        W27555  34.107  28.157   0.609
55241W        W27556  30.510  16.374  13.938
55242W        W27557   7.863   0.507   3.933
55243W        W27558  18.701  23.829   3.725
55244W        W27559  44.109  25.828  14.299
55245W        W27560  20.139  24.292   0.757
55246W        W27561  24.602  10.448  13.287
55247W        W27562  11.763  14.148  13.964
55248W        W27563   9.435  43.342   4.092
55249W        W27564  38.434  32.071  14.762
55250W        W27565  14.697  33.261  14.365
55251W        W27566  30.620  39.070   4.357
55252W        W27567  20.650   5.999  12.227
55253W        W27568  11.233  32.105   0.090
55254W        W27569  35.939  29.910   2.762
55255W        W27570  32.691  30.010  12.300
55256W        W27571  33.046   9.736   2.781
55257W        W27572   7.833   9.210  13.887
55258W        W27573  13.060  13.117  11.101
55259W        W27574  10.217   1.577   1.231
55260W        W27575  23.409  10.883   3.269
55261W        W27576  26.022  42.018   3.541
55262W        W27577  10.176   5.210   4.689
55263W        W27578  17.979  11.814  14.946
55264W        W27579  30.666  17.238   3.145
55265W        W27580  22.680  33.940   0.245
55266W        W27581  15.874  44.368   1.926
55267W        W27582  24.522  10.202  12.458
55268W        W27583  24.722  30.307   0.583
55269W        W27584  10.131   0.689  14.309
55270W        W27585   7.933  31.377  11.556
55271W        W27586  24.681  17.144  13.476
55272W        W27587  30.459  25.494   3.189
55273W        W27588  30.754  31.000  12.048
55274W        W27589  41.833  31.033   3.227
55275W        W27590  25.069  40.593   4.178
55276W        W27591  39.906   5.736  11.549
55277W        W27592  12.334   4.910  10.398
55278W        W27593  30.238  41.334  10.930
55279W        W27594  11.245  14.860  12.035
55280W        W27595  20.660   2.159  12.090
55281W        W27596  38.450   6.032   0.902
55282W        W27597  24.686   4.216  13.595
55283W        W27598  19.681  25.901  11.133
55284W        W27599  33.899  29.588  14.358
55285W        W27600  19.019  21.144   4.151
55286W        W27601  37.999   7.695   3.942
55287W        W27602  37.960  28.378   4.089
55288W        W27603  38.922  33.895  10.642
55289W        W27604   0.616  30.096   4.763
55290W        W27605  40.453  32.152   5.025
55291W        W27606  44.845  31.679   0.988
55292W        W27607   4.202  37.314   4.626
55293W        W27608  38.065  38.877   3.290
55294W        W27609  44.793   4.170  12.503
55295W        W27610   1.310  26.978   0.258
55296W        W27611   1.941  18.458   0.049
55297W        W27612  11.933   4.964  10.762
55298W        W27613  12.439  14.780  10.794
55299W        W27614  14.538   8.164  14.890
55300W        W27615  38.126  40.406   3.758
55301W        W27616  29.643  16.752   0.290
55302W        W27617   3.127  31.027   1.154
55303W        W27618  43.851  20.521   3.688
55304W        W27619  36.903  18.786   4.230
55305W        W27620  21.595  34.869   4.783
55306W        W27621  13.608  37.862  13.851
55307W        W27622  28.214   3.684   2.255
55308W        W27623   7.819   6.278   0.546
55309W        W27624  21.322   1.752  13.924
55310W        W27625   6.232  35.381  10.992
55311W        W27626  12.141  22.605  14.360
55312W        W27627  33.495  38.408  10.651
55313W        W27628   6.262   5.722   4.806
55314W        W27629  34.709  19.555   3.571
55315W        W27630  20.062  43.694  11.949
55316W        W27631   3.826  15.635   3.433
55317W        W27632   3.881  40.481   2.164
55318W        W27633  16.185  16.115   4.398
55319W        W27634  17.165  33.276   2.758
55320W        W27635  12.572  33.267  13.309
55321W        W27636  26.424   8.405   4.051
55322W        W27637  24.222   6.194   3.616
55323W        W27638  43.864  32.579  12.580
55324W        W27639   1.921  22.107  11.972
55325W        W27640  17.573  36.927  11.553
55326W        W27641   1.028  22.126  11.933
55327W        W27642   8.963  37.438  14.368
55328W        W27643   6.242  14.180  10.030
55329W        W27644  41.143  28.717   0.375
55330W        W27645   4.075   0.820  11.672
55331W        W27646  43.312  11.883  11.295
55332W        W27647  28.511  33.572  10.673
55333W        W27648   6.319   3.247   3.726
55334W        W27649  40.036  34.921  14.735
55335W        W27650  17.193   1.445  14.464
55336W        W27651  37.499   4.786  11.348
55337W        W27652  30.810  42.827  11.487
55338W        W27653   9.245  44.034   2.900
55339W        W27654   2.045  18.574   3.716
55340W        W27655  17.113  23.737   1.767
55341W        W27656  23.549  21.053  14.855
55342W        W27657  43.885   0.959  10.689
55343W        W27658  17.140  25.525   2.616
55344W        W27659   7.901  42.008  13.459
55345W        W27660  28.086  28.703   3.231
55346W        W27661  21.512  43.267   4.408
55347W        W27662  26.220  17.506  13.956
55348W        W27663  10.894   8.362   4.936
55349W        W27664  38.922  31.257  11.465
55350W        W27665   9.058  16.617  10.959
55351W        W27666  44.273  37.356   4.584
55352W        W27667  21.981   3.305  13.558
55353W        W27668  25.247  43.385  11.835
55354W        W27669   2.388  44.760   0.004
55355W        W27670  11.456  25.666   2.897
55356W        W27671  42.850  44.437   2.367
55357W        W27672  14.371  37.483   2.521
55358W        W27673   8.311  15.610  11.082
55359W        W27674   9.710   6.709   4.104
55360W        W27675  26.804  29.865   3.684
55361W        W27676   1.455  23.241  13.738
55362W        W27677  30.124  42.417  12.959
55363W        W27678  25.542  32.746  13.507
55364W        W27679  15.188  35.325   2.826
55365W        W27680  34.812  20.954  13.521
55366W        W27681  42.545  38.866   2.381
55367W        W27682   7.357  25.505  12.510
55368W        W27683  20.675   3.056   0.947
55369W        W27684  29.997  38.058  13.997
55370W        W27685  33.027  12.125  14.814
55371W        W27686  21.253  34.108  14.044
55372W        W27687   9.727  31.569  11.046
55373W        W27688  31.690  23.539   0.716
55374W        W27689  30.532  11.434   3.208
55375W        W27690  13.549  41.880   1.396
55376W        W27691   3.854  12.453  10.971
55377W        W27692  36.144  10.000  13.733
55378W        W27693   9.254  10.092  14.450
55379W        W27694   9.317  41.539   1.102
55380W        W27695   8.344  41.989  12.864
55381W        W27696  13.187  16.237   3.495
55382W        W27697  38.074  30.737  12.423
55383W        W27698  24.174   5.897  12.584
55384W        W27699  24.878  21.039  11.572
55385W        W27700  18.087   5.141   2.747
55386W        W27701  31.575   7.396  12.607
55387W        W27702  19.235   6.641   4.575
55388W        W27703  14.049  17.349   1.334
55389W        W27704  41.857  29.736  13.350
55390W        W27705  19.552  29.449   0.311
55391W        W27706  24.167  44.743   3.307
55392W        W27707  10.804  36.444   2.448
55393W        W27708  23.019  11.800  12.040
55394W        W27709  19.243  33.554   3.859
55395W        W27710  14.604   1.360   3.781
55396W        W27711   4.741   6.297  14.014
55397W        W27712   4.406  23.113  11.548
55398W        W27713  11.612  11.574   0.734
55399W        W27714   6.202  26.660  12.947
55400W        W27715  29.031  11.101  13.982
55401W        W27716  32.078  17.783  14.043
55402W        W27717  42.280  37.079  14.428
55403W        W27718  33.482   2.263   0.380
55404W        W27719   0.042  20.984   1.819
55405W        W27720   7.265  21.622  10.920
55406W        W27721  23.600  38.939   0.650
55407W        W27722  26.181  23.958   3.284
55408W        W27723  17.309  17.914  14.460
55409W        W27724  39.631   2.959  11.606
55410W        W27725  20.878   1.701   0.404
55411W        W27726  23.636  25.663   1.217
55412W        W27727  13.884  15.073  13.776
55413W        W27728   8.355  36.135   3.876
55414W        W27729  35.366  42.915   5.017
55415W        W27730   6.336  35.529   1.158
55416W        W27731  22.500  25.909   4.604
55417W        W27732   1.655  36.471   3.247
55418W        W27733  12.659  19.283   2.167
55419W        W27734  43.360   3.523   0.874
55420W        W27735  44.991  23.670   0.468
55421W        W27736  27.489  22.673  12.943
55422W        W27737   3.656  30.169  12.934
55423W        W27738  22.047  24.312   1.866
55424W        W27739  36.517   2.522  12.035
55425W        W27740  16.117  21.131   3.147
55426W        W27741  26.684  19.316  11.103
55427W        W27742  25.039  11.679  11.928
55428W        W27743  15.200  32.673   1.454
55429W        W27744   0.769  37.801  12.507
55430W        W27745   7.296  38.813  12.306
55431W        W27746   6.797   7.708   4.561
55432W        W27747   5.178  33.879  14.856
55433W        W27748  17.825  27.708  10.956
55434W        W27749  37.568  34.379   4.555
55435W        W27750  37.335  37.443   5.058
55436W        W27751   4.187  13.584   1.085
55437W        W27752  34.404  21.951  12.521
55438W        W27753  11.935   1.923   0.066
55439W        W27754  28.155   6.362   0.798
55440W        W27755  15.839   7.436   3.635
55441W        W27756  25.280   7.153  14.249
55442W        W27757   2.290  32.945   0.806
55443W        W27758  38.307  10.105   3.382
55444W        W27759   1.861  19.212  14.830
55445W        W27760  43.391  36.001  11.230
55446W        W27761   0.652  35.149   2.010
55447W        W27762  40.958   0.356   0.905
55448W        W27763  33.358  17.495  12.435
55449W        W27764  35.312  32.152   2.741
55450W        W27765   1.696  19.744  13.427
55451W        W27766  41.800  31.214  14.866
55452W        W27767  32.443   5.127   0.817
55453W        W27768  30.640  41.424  12.537
55454W        W27769  43.960  34.469   2.766
55455W        W27770  37.415   0.795  11.147
55456W        W27771  42.901  41.458  14.864
55457W        W27772  34.913  11.153   3.287
55458W        W27773   4.207   1.861   3.562
55459W        W27774   5.367  33.777  11.451
55460W        W27775  26.243  12.408   3.093
55461W        W27776   8.432   3.492  12.885
55462W        W27777  18.846   4.806   4.083
55463W        W27778  28.025  25.165   1.248
55464W        W27779  40.485  37.549   4.652
55465W        W27780  25.060  23.900  11.450
55466W        W27781  30.363   5.470   3.686
55467W        W27782  23.011  12.690  12.060
55468W        W27783  38.458  11.597   3.313
55469W        W27784  22.507  24.969  12.628
55470W        W27785  32.999  22.809   0.241
55471W        W27786  38.386   0.323  13.336
55472W        W27787  32.502  37.781   3.711
55473W        W27788  19.774  23.517   0.457
55474W        W27789   5.407  44.382   0.456
55475W        W27790  39.915  27.962  10.491
55476W        W27791  33.514  18.619  11.577
55477W        W27792   9.168  30.540   1.293
55478W        W27793  34.538  22.988  12.173
55479W        W27794  23.710  37.392  12.604
55480W        W27795  33.851  20.004   2.576
55481W        W27796   9.754  28.807  12.877
55482W        W27797   7.179   5.462   1.880
55483W        W27798   9.928  11.324  14.632
55484W        W27799  20.027  17.610  10.687
55485W        W27800  43.602  12.370  14.351
55486W        W27801  11.785  43.029  13.663
55487W        W27802  18.268  29.272   2.654
55488W        W27803  25.162  30.828   4.170
55489W        W27804  39.520   7.248  12.974
55490W        W27805  26.847   3.716   0.279
55491W        W27806  19.316  35.313   2.767
55492W        W27807  23.309   3.473  10.756
55493W        W27808  23.456   7.870  12.068
55494W        W27809  35.866  25.527  14.995
55495W        W27810  26.484  44.870  13.915
55496W        W27811  19.925  23.876  14.247
55497W        W27812   8.111  31.134  12.437
55498W        W27813  25.953   9.351  14.419
55499W        W27814  39.402   4.490   0.804
55500W        W27815   0.454  36.604   1.874
55501W        W27816  12.293   0.171   1.733
55502W        W27817   1.867  30.749  13.911
55503W        W27818  33.711  38.362   0.003
55504W        W27819  21.527  11.116  14.025
55505W        W27820   5.957  42.685   4.083
55506W        W27821  36.891   7.306   3.212
55507W        W27822  44.720  31.384  14.394
55508W        W27823  12.111  42.601  12.962
55509W        W27824   8.935   2.324  14.303
55510W        W27825  36.570  37.613  11.154
55511W        W27826  43.827  25.022  14.504
55512W        W27827  27.522   0.425   4.317
55513W        W27828   4.632  15.172  10.929
55514W        W27829   6.337  34.156  13.353
55515W        W27830  39.002   5.183  10.247
55516W        W27831  18.241   3.522   0.386
55517W        W27832  17.548  44.957   4.919
55518W        W27833  25.905  22.708   2.034
55519W        W27834  34.056  31.830   0.836
55520W        W27835  27.124  34.675   1.178
55521W        W27836  34.722  14.746   2.893
55522W        W27837  38.439  32.921   3.528
55523W        W27838  19.667  17.048  11.980
55524W        W27839  34.880  18.997  10.754
55525W        W27840  15.669  25.618  10.770
55526W        W27841  20.489  44.895  11.058
55527W        W27842  16.839  14.436  14.511
55528W        W27843  42.437   7.317  14.029
55529W        W27844  33.385  20.098   2.220
55530W        W27845  37.062   3.470  14.428
55531W        W27846  28.112  29.143  12.014
55532W        W27847  38.484  16.333   0.807
55533W        W27848   3.515  24.087  14.589
55534W        W27849  42.329  31.649  13.853
55535W        W27850   1.490   5.846  10.705
55536W        W27851  12.703  36.626   2.374
55537W        W27852  30.995  19.614   2.264
55538W        W27853   6.392  30.969   3.685
55539W        W27854   0.311  19.593   3.704
55540W        W27855  30.239  35.573  11.962
55541W        W27856   9.607   1.288  12.550
55542W        W27857  44.806  29.225  11.564
55543W        W27858  33.109  18.034   2.201
55544W        W27859  24.204  42.324  11.532
55545W        W27860  16.087  44.316   3.826
55546W        W27861  37.927   2.714   3.529
55547W        W27862  39.806  22.188   4.807
55548W        W27863   3.861  43.388  11.394
55549W        W27864  25.091  15.276  13.420
55550W        W27865  20.516  24.082   4.711
55551W        W27866  22.561  24.152  14.999
55552W        W27867  44.206  35.469   0.382
55553W        W27868  33.554  34.340   1.789
55554W        W27869  22.108  26.485   0.544
55555W        W27870  21.200  14.316   4.100
55556W        W27871   0.994   7.307  13.797
55557W        W27872   0.440  44.190  13.649
55558W        W27873  41.830  13.560   1.789
55559W        W27874  23.095  44.706  13.182
55560W        W27875  30.881  20.599   0.549
55561W        W27876  35.040  18.518  11.838
55562W        W27877  43.522  42.952   3.728
55563W        W27878   8.775  14.239   3.145
55564W        W27879  44.452  37.660  14.142
55565W        W27880  28.721  16.017   4.415
55566W        W27881   2.026  40.391   2.327
55567W        W27882  38.117  14.938  11.448
55568W        W27883  38.844   1.926   1.456
55569W        W27884  11.220  26.837   2.915
55570W        W27885  14.829  31.574   3.837
55571W        W27886  24.586  37.428  11.997
55572W        W27887  32.692  26.125   4.176
55573W        W27888   4.243  37.648   0.827
55574W        W27889   9.866   7.252   4.108
55575W        W27890   7.835   7.409  10.706
55576W        W27891  34.893  19.492  14.416
55577W        W27892  40.943  12.799   0.862
55578W        W27893  15.802  14.950  10.127
55579W        W27894  28.509  36.921   1.775
55580W        W27895   6.248  14.522   4.663
55581W        W27896  42.714  23.616   3.172
55582W        W27897  34.542   5.422   0.251
55583W        W27898  18.400  40.420   5.430
55584W        W27899  27.142  21.928  13.236
55585W        W27900  22.194  14.946  12.580
55586W        W27901  16.870  24.737  11.425
55587W        W27902  11.771  12.101  10.545
55588W        W27903  36.902  37.603   0.172
55589W        W27904  24.559  36.922  12.421
55590W        W27905  17.144   2.215  14.023
55591W        W27906  24.242   8.433  14.999
55592W        W27907  38.287  11.250   1.749
55593W        W27908  39.701  27.034  14.445
55594W        W27909  35.755  17.816  14.275
55595W        W27910  30.196   7.223   0.454
55596W        W27911  32.626  13.697   4.150
55597W        W27912   4.207  31.216   1.082
55598W        W27913  27.378   3.348   2.151
55599W        W27914  21.151  43.930  11.485
55600W        W27915  37.566  16.013   2.751
55601W        W27916  20.163  34.291  14.001
55602W        W27917   5.746  10.340   3.738
55603W        W27918  34.053  34.535  13.423
55604W        W27919  39.932  23.653   2.055
55605W        W27920  25.904  13.646   4.116
55606W        W27921   8.824  41.818  14.114
55607W        W27922   6.266  40.943   1.431
55608W        W27923  44.435  41.958   3.146
55609W        W27924  29.512  27.113   1.288
55610W        W27925  10.885  15.558  14.064
55611W        W27926  33.085  27.175  13.773
55612W        W27927  29.974   2.283   3.426
55613W        W27928   8.658   2.171   1.851
55614W        W27929  40.551   6.125  13.916
55615W        W27930  36.797  24.634   1.222
55616W        W27931  31.680  23.337   4.971
55617W        W27932  41.762  33.440  12.821
55618W        W27933  37.553  35.234  14.341
55619W        W27934   4.266  14.125   1.179
55620W        W27935   1.831   9.637   1.191
55621W        W27936  15.141  12.911   3.751
55622W        W27937  16.900  12.296   2.249
55623W        W27938   7.198  17.390   1.430
55624W        W27939  35.038  13.383   3.373
55625W        W27940  24.253  35.567  13.437
55626W        W27941   1.375  19.046  12.875
55627W        W27942  42.396  21.403  14.370
55628W        W27943  16.491   7.777  12.878
55629W        W27944  21.631   4.233   2.335
55630W        W27945  38.475  10.483  11.803
55631W        W27946  16.822  16.355   3.175
55632W        W27947  10.137  41.989   0.460
55633W        W27948  17.689  20.085  14.522
55634W        W27949  19.008  39.895   5.076
55635W        W27950  40.128   9.790  12.404
55636W        W27951   6.497   0.571   3.721
55637W        W27952   0.462   6.695  14.077
55638W        W27953  29.909  39.342  11.479
55639W        W27954  36.110  24.827  10.715
55640W        W27955  14.237   4.866  14.978
55641W        W27956  19.825  24.416  14.976
55642W        W27957  31.166  26.011  10.397
55643W        W27958  14.054  30.644  12.442
55644W        W27959   2.916  22.790  13.966
55645W        W27960  10.900  22.251   2.778
55646W        W27961  36.316  27.951   1.909
55647W        W27962   9.239  36.898   3.012
55648W        W27963  30.151  38.542   1.828
55649W        W27964  39.326  22.605  13.897
55650W        W27965   7.095   1.673  11.575
55651W        W27966  44.446   7.653   3.271
55652W        W27967   8.377   6.521   1.869
55653W        W27968   8.818  16.780   0.129
55654W        W27969  21.062  30.527  12.629
55655W        W27970  40.501  41.838   2.750
55656W        W27971  38.832  43.083   3.755
55657W        W27972  14.199  35.631   0.943
55658W        W27973   7.832  32.385  12.478
55659W        W27974   6.640  21.118  14.354
55660W        W27975   8.660   2.302  14.731
55661W        W27976  42.312  29.909  13.529
55662W        W27977  44.988   5.721   0.289
55663W        W27978   3.183  34.405  12.891
55664W        W27979  27.959   6.582   4.748
55665W        W27980  38.489  44.257  11.466
55666W        W27981  20.104   7.963  11.577
55667W        W27982   6.678  38.546   3.720
55668W        W27983  14.603  15.948  11.245
55669W        W27984  38.610  19.968  11.204
55670W        W27985  11.828  31.823  11.060
55671W        W27986  23.642  35.818   0.789
55672W        W27987  31.420  44.055   3.303
55673W        W27988  15.175   0.550  11.628
55674W        W27989  33.996  21.474  13.113
55675W        W27990  27.471  29.933   4.396
55676W        W27991   3.456  17.977   0.791
55677W        W27992  24.207  25.233   0.416
55678W        W27993   0.568  43.713  12.480
55679W        W27994   8.962  36.443   2.258
55680W        W27995   6.302  42.911   3.403
55681W        W27996   5.192  19.243   2.666
55682W        W27997  14.512  44.919  11.622
55683W        W27998  22.902  26.023  13.379
55684W        W27999  29.554  43.211  12.833
55685W        W28000   6.077  19.557  12.890
55686W        W28001  19.773  16.541   4.095
55687W        W28002  17.436  34.970  10.313
55688W        W28003  38.155  31.830   3.193
55689W        W28004  19.734  23.954   5.099
55690W        W28005   5.668   2.711   1.377
55691W        W28006  29.584  16.612   2.770
55692W        W28007   6.079  20.234  12.349
55693W        W28008   7.230  19.208   2.110
55694W        W28009   0.429   1.372  11.157
55695W        W28010  38.090  27.913   2.299
55696W        W28011  29.012   7.860   4.140
55697W        W28012  25.000  34.810   3.319
55698W        W28013  39.928  15.070  11.536
55699W        W28014  12.681   4.429  13.626
55700W        W28015   7.421  19.255   3.685
55701W        W28016  41.475  10.898  12.017
55702W        W28017  33.486  15.596   9.955
55703W        W28018   8.195   8.985  11.110
55704W        W28019  38.355  25.837   1.824
55705W        W28020  37.042   2.817   1.389
55706W        W28021  23.502  12.377  11.132
55707W        W28022  12.504   8.955  12.485
55708W        W28023  30.663   6.462   3.614
55709W        W28024  23.239  17.752   2.188
55710W        W28025  24.640  26.566   2.858
55711W        W28026  30.116  38.005   4.066
55712W        W28027  28.137  26.882  14.318
55713W        W28028  27.014   8.061  13.113
55714W        W28029  10.133  16.500  10.164
55715W        W28030   3.982  26.222   3.668
55716W        W28031   6.444  42.834  13.013
55717W        W28032  34.314  16.179   3.804
55718W        W28033  33.093  13.706   2.470
55719W        W28034  17.738  32.935  14.739
55720W        W28035  14.846  29.692   0.824
55721W        W28036  29.565  19.110   0.690
55722W        W28037  31.699   4.434   0.807
55723W        W28038  12.860  13.706  12.711
55724W        W28039  32.030  36.408   2.403
55725W        W28040  31.915  14.851  13.532
55726W        W28041   7.789  25.645   1.157
55727W        W28042  20.769  31.673   0.700
55728W        W28043   5.411  34.054   0.818
55729W        W28044  27.121  26.718   4.173
55730W        W28045  18.605  13.111  10.575
55731W        W28046   1.459  34.592  12.386
55732W        W28047   0.778  28.230   4.624
55733W        W28048  17.116  21.005   4.667
55734W        W28049  33.018  12.262   3.617
55735W        W28050  37.568   2.686  11.452
55736W        W28051   3.868  28.684   2.829
55737W        W28052  32.531  44.210   0.396
55738W        W28053   9.181  40.868   0.429
55739W        W28054  29.024  16.660  10.719
55740W        W28055   0.923   2.878  10.255
55741W        W28056  20.188  31.616  12.020
55742W        W28057  19.291  32.576  13.788
55743W        W28058   7.763  21.555   0.389
55744W        W28059   2.280  12.192  13.505
55745W        W28060  20.098  22.521  14.274
55746W        W28061  27.559  36.994  10.942
55747W        W28062   5.678  37.722  13.084
55748W        W28063  17.252  27.786   2.687
55749W        W28064  31.722   4.670  14.532
55750W        W28065  12.254  18.229   4.124
55751W        W28066  33.024  16.586   3.135
55752W        W28067  29.948  43.349   1.803
55753W        W28068  31.139  41.267   3.523
55754W        W28069  16.525   8.139  11.519
55755W        W28070  14.743  12.288  12.047
55756W        W28071  39.601  25.911   1.289
55757W        W28072  19.219  33.513   2.806
55758W        W28073  36.087  25.100  14.717
55759W        W28074   5.500   2.536  14.427
55760W        W28075  34.884   2.750  12.660
55761W        W28076  43.788  32.932  10.861
55762W        W28077  19.134   3.841  13.411
55763W        W28078  33.446  38.130  13.931
55764W        W28079  41.862  41.811   1.832
55765W        W28080  41.609   5.374  13.991
55766W        W28081  22.720  38.714  10.615
55767W        W28082  26.629   5.695  10.986
55768W        W28083   1.928   2.978   1.202
55769W        W28084  12.577  34.338  14.514
55770W        W28085  16.135  25.048   2.159
55771W        W28086  20.246  26.024   3.850
55772W        W28087  25.119   7.889  11.410
55773W        W28088  10.790  32.218  14.369
55774W        W28089  36.944  39.906  14.877
55775W        W28090  44.825  14.690  14.124
55776W        W28091  17.962   2.369  14.934
55777W        W28092  43.261  27.142  10.983
55778W        W28093  29.476   8.932  14.493
55779W        W28094   4.659   3.252   1.338
55780W        W28095  25.576  27.079  14.327
55781W        W28096  15.238   3.278  13.398
55782W        W28097   9.770  42.435   2.875
55783W        W28098  29.947  16.598   3.572
55784W        W28099  42.115  39.388   2.776
55785W        W28100   9.469  26.329  11.062
55786W        W28101   6.260   2.904   2.856
55787W        W28102  25.180   0.762   0.437
55788W        W28103  39.264  21.171  12.978
55789W        W28104  43.435   2.392  12.036
55790W        W28105  27.406   4.825   4.101
55791W        W28106   3.962   6.019   2.807
55792W        W28107  28.098  23.202  13.397
55793W        W28108  17.630  28.786   0.437
55794W        W28109  30.915   6.687   0.707
55795W        W28110  44.511  42.288   1.155
55796W        W28111  27.034   7.293   9.623
55797W        W28112  41.558  32.912  13.643
55798W        W28113   0.916   6.902   1.877
55799W        W28114  39.460  25.017   1.700
55800W        W28115  18.056  42.496  12.012
55801W        W28116  33.916  19.735   4.111
55802W        W28117  43.332  32.921  14.992
55803W        W28118  41.302  29.554   2.295
55804W        W28119  18.924  30.862  11.548
55805W        W28120  29.698  18.087  12.613
55806W        W28121  26.711  22.568  11.046
55807W        W28122  30.704  27.214  11.458
55808W        W28123  19.525  44.992   3.752
55809W        W28124  20.173   6.311   4.072
55810W        W28125   3.244  23.147  11.441
55811W        W28126   2.988  33.947   2.121
55812W        W28127   5.061  17.324   0.299
55813W        W28128   7.228  31.800  13.884
55814W        W28129   6.855   1.522   3.813
55815W        W28130  42.352   3.453  10.949
55816W        W28131  16.007  24.941  13.732
55817W        W28132  44.395   7.355  14.263
55818W        W28133  27.042  16.995   0.077
55819W        W28134  24.111  40.310  13.169
55820W        W28135  13.936  34.619   2.732
55821W        W28136   4.447  26.564   1.688
55822W        W28137  10.516  15.727   2.827
55823W        W28138   1.522  20.597  10.573
55824W        W28139  43.527  38.279   2.880
55825W        W28140   2.806  11.810  11.962
55826W        W28141   3.796  38.449  14.057
55827W        W28142  41.146  20.601   2.683
55828W        W28143  33.197  25.701   2.802
55829W        W28144  40.043   8.938  11.150
55830W        W28145  27.776   8.919  11.056
55831W        W28146  34.720  36.241   9.981
55832W        W28147  27.009  16.364   2.766
55833W        W28148  36.036  43.707  14.396
55834W        W28149  16.818  40.887  12.969
55835W        W28150  39.260  22.215   0.010
55836W        W28151  36.675  37.397   4.088
55837W        W28152  14.352  33.076  14.717
55838W        W28153  22.220   3.710   1.838
55839W        W28154  30.332   1.869   0.453
55840W        W28155   3.390   2.428   4.672
55841W        W28156  17.030  40.153  13.205
55842W        W28157  26.529   8.844   4.331
55843W        W28158  18.596  26.983   4.076
55844W        W28159  21.501  38.252  14.092
55845W        W28160  27.788  26.316  13.981
55846W        W28161  31.191  25.627  13.645
55847W        W28162  30.493  33.166   2.799
55848W        W28163  16.834  30.628  11.028
55849W        W28164  44.970  11.862   4.133
55850W        W28165  23.962  15.628   0.814
55851W        W28166  17.035  30.093  14.672
55852W        W28167  24.034  39.041  10.863
55853W        W28168  28.115   3.459  11.453
55854W        W28169  39.390  29.881   1.791
55855W        W28170  30.191  38.624   0.924
55856W        W28171  36.500  38.117  11.054
55857W        W28172  21.628   4.928   3.049
55858W        W28173  34.431   2.963   3.891
55859W        W28174  35.021  44.232   1.774
55860W        W28175  44.995  19.049  12.953
55861W        W28176  18.736   4.923   1.784
55862W        W28177  16.360  17.810   1.837
55863W        W28178   5.915  10.267  10.776
55864W        W28179   6.663  20.741  10.979
55865W        W28180  30.423  12.536   1.197
55866W        W28181  36.821  25.955  11.046
55867W        W28182   2.411  10.370   1.524
55868W        W28183  28.188  21.691  11.008
55869W        W28184  28.280  11.116  12.005
55870W        W28185  36.996  16.835  13.251
55871W        W28186  41.986  19.247  13.360
55872W        W28187   2.827  40.654  12.396
55873W        W28188  39.353  38.881  11.031
55874W        W28189  14.004   3.752   2.239
55875W        W28190  19.749  30.705  11.720
55876W        W28191  39.254   2.985   0.972
55877W        W28192  17.149  43.572  14.231
55878W        W28193  17.834  12.867   2.857
55879W        W28194  36.919   4.411  10.546
55880W        W28195   1.178  10.662   2.147
55881W        W28196  18.337  12.676   2.894
55882W        W28197  32.434  38.574   0.418
55883W        W28198   1.776  23.300  12.531
55884W        W28199   6.139  20.053  13.715
55885W        W28200  26.946   3.864  12.983
55886W        W28201  24.213   4.438  12.169
55887W        W28202  28.738   1.757   1.994
55888W        W28203  20.120  18.498   3.608
55889W        W28204  10.923   4.485   3.754
55890W        W28205  36.463  26.253   4.539
55891W        W28206  34.919  30.593   4.034
55892W        W28207  42.501  29.660   3.204
55893W        W28208  22.581  34.285  13.793
55894W        W28209   7.736  36.533  12.542
55895W        W28210  30.026  12.625  12.402
55896W        W28211   3.871  38.350  10.557
55897W        W28212  12.085  15.605  13.566
55898W        W28213  18.808  42.820  14.751
55899W        W28214  17.465  26.643   5.025
55900W        W28215  40.533  41.296  12.235
55901W        W28216   9.838  11.706   4.698
55902W        W28217   8.054  29.280   4.226
55903W        W28218  42.789  39.925  12.458
55904W        W28219  21.708   3.966   0.985
55905W        W28220   7.444  13.017   2.869
55906W        W28221  42.139  12.637  13.960
55907W        W28222  38.902   6.778   1.887
55908W        W28223  22.245  16.931  11.079
55909W        W28224   5.970  41.503  13.431
55910W        W28225  18.544  20.228  12.588
55911W        W28226   4.746  18.754  13.995
55912W        W28227  42.953  25.023  13.012
55913W        W28228   4.716  11.269  13.494
55914W        W28229  30.098   6.341   0.416
55915W        W28230  39.256  44.486   0.963
55916W        W28231  23.637   3.908  11.684
55917W        W28232  38.898  19.827   2.677
55918W        W28233   5.858   3.339  12.092
55919W        W28234  22.679  29.048   3.653
55920W        W28235  24.722  30.141  12.928
55921W        W28236  36.624  37.509  12.657
55922W        W28237  16.663   2.556  11.718
55923W        W28238   7.289  38.363   2.125
55924W        W28239  29.931   9.979   3.084
55925W        W28240  19.007   9.623  14.785
55926W        W28241   2.019  24.012  12.111
55927W        W28242  12.936  24.191   0.516
55928W        W28243  29.549  24.688   3.625
55929W        W28244   9.640  15.142   0.408
55930W        W28245  24.114  29.958   4.115
55931W        W28246   4.641  35.792   3.324
55932W        W28247  29.250  20.192   3.786
55933W        W28248   0.856  41.105  14.311
55934W        W28249  37.908  28.451  10.821
55935W        W28250  38.690  38.077  11.068
55936W        W28251   4.872   3.183  11.200
55937W        W28252   9.213  14.359   3.773
55938W        W28253  13.763   7.180   3.925
55939W        W28254  41.087  39.059   4.079
55940W        W28255  18.554  19.240   2.414
55941W        W28256  39.549  21.525  13.217
55942W        W28257  24.027   0.082  11.029
55943W        W28258   5.247  36.826   2.111
55944W        W28259   1.275  24.625   4.066
55945W        W28260  12.795  22.663   1.880
55946W        W28261  10.150  34.595   2.736
55947W        W28262  38.802  39.066  13.328
55948W        W28263  42.858   4.422  12.478
55949W        W28264  39.788  17.819   1.720
55950W        W28265  11.629   2.002   2.027
55951W        W28266  21.128   5.772   3.424
55952W        W28267  24.706  20.807   5.054
55953W        W28268  39.938  31.391  14.220
55954W        W28269  22.063  16.988  14.839
55955W        W28270  43.886  14.301  14.367
55956W        W28271  19.671  22.773  13.434
55957W        W28272  31.205  40.991   2.847
55958W        W28273  21.529  42.355   0.918
55959W        W28274  32.509  27.734   1.314
55960W        W28275  12.614  32.930  14.984
55961W        W28276   1.816  40.974  11.376
55962W        W28277  42.802  29.040  12.922
55963W        W28278  31.921  37.821   1.715
55964W        W28279   5.973  30.094  13.102
55965W        W28280  44.497   1.304   1.904
55966W        W28281  36.976   3.915   0.323
55967W        W28282  26.204   1.783   1.920
55968W        W28283   9.407   5.969   3.994
55969W        W28284  34.485  31.462  11.473
55970W        W28285  11.930   0.394   3.758
55971W        W28286  30.663  22.519   2.037
55972W        W28287  36.092  16.150   1.645
55973W        W28288  42.104   7.410   1.788
55974W        W28289   0.331  35.114   0.983
55975W        W28290  42.004  22.459  13.423
55976W        W28291  26.483  22.258   0.250
55977W        W28292   9.589   4.975  11.659
55978W        W28293  22.215   1.648   1.989
55979W        W28294   0.750  40.000  13.281
55980W        W28295  16.154   9.403   2.709
55981W        W28296  14.127  10.286   1.484
55982W        W28297   9.639  39.328  12.108
55983W        W28298  18.676  31.555   3.113
55984W        W28299  22.746  17.250   0.457
55985W        W28300  14.868  20.984  11.190
55986W        W28301  21.058   5.633  13.905
55987W        W28302   4.383  28.583   0.369
55988W        W28303  31.396  44.258   4.553
55989W        W28304  27.476  37.985  11.859
55990W        W28305  25.086  34.359   3.073
55991W        W28306  21.069  14.717  11.498
55992W        W28307  42.297  29.408  13.435
55993W        W28308  28.646  42.691  11.965
55994W        W28309   8.662  21.732   4.265
55995W        W28310  27.013  39.546   1.486
55996W        W28311  43.765  27.921  14.923
55997W        W28312  34.329  12.289   4.138
55998W        W28313  40.438  24.822   5.037
55999W        W28314  10.351   1.923  10.790
56000W        W28315   8.725  21.125   3.891
56001W        W28316  11.115  15.103   0.769
56002W        W28317  31.123  40.725  13.931
56003W        W28318   4.776  20.536   3.613
56004W        W28319  37.412   5.296   2.872
56005W        W28320  41.426  22.500  12.028
56006W        W28321   3.830  24.077   4.532
56007W        W28322  43.295   5.749   1.516
56008W        W28323  11.570  11.354   4.610
56009W        W28324  39.817  20.562   0.766
56010W        W28325  12.753  32.540   2.507
56011W        W28326  32.394  16.325   3.235
56012W        W28327  15.021  37.474  12.599
56013W        W28328  21.066   3.505  13.479
56014W        W28329  22.126  31.570   0.468
56015W        W28330   8.409   1.664   1.784
56016W        W28331  38.352   8.909   0.917
56017W        W28332   7.946   8.502   0.820
56018W        W28333  22.950   8.339   2.486
56019W        W28334   2.229  10.529   4.641
56020W        W28335  11.197  31.388   0.924
56021W        W28336  19.464  37.812   1.875
56022W        W28337  15.724  42.559  13.664
56023W        W28338  37.570  39.651  11.068
56024W        W28339  27.138  25.109  14.333
56025W        W28340   3.878  35.301  12.444
56026W        W28341  40.092   6.305  12.170
56027W        W28342  35.265  22.919   0.866
56028W        W28343   1.530  20.255  14.852
56029W        W28344  18.160   2.918   3.931
56030W        W28345  29.261  41.369  14.569
56031W        W28346   4.856  10.817   0.712
56032W        W28347  39.533  12.602   1.964
56033W        W28348  40.331  34.631   1.808
56034W        W28349  20.168   8.659  14.998
56035W        W28350   3.391  39.233   4.560
56036W        W28351  20.985   8.323  14.917
56037W        W28352   4.895  35.119  13.455
56038W        W28353  44.771   7.017  12.070
56039W        W28354   7.939   6.659  11.153
56040W        W28355  40.456  36.874   0.387
56041W        W28356   5.708   2.232  14.981
56042W        W28357   5.287  28.445  12.137
56043W        W28358  25.008  32.457   5.213
56044W        W28359   4.557   4.617   4.104
56045W        W28360  26.439  35.205   3.391
56046W        W28361  34.652  35.480   0.885
56047W        W28362  16.802  10.744   1.843
56048W        W28363   5.749   2.279   2.232
56049W        W28364  25.237  19.683   3.649
56050W        W28365  11.722  38.037   1.021
56051W        W28366  14.348   0.422   1.065
56052W        W28367  15.037  20.208  10.723
56053W        W28368  40.377   1.262   4.575
56054W        W28369   4.127  34.620   2.622
56055W        W28370  38.473  37.258   0.578
56056W        W28371  35.396  19.603   4.758
56057W        W28372  42.347  44.175  13.779
56058W        W28373  35.012  13.096  12.852
56059W        W28374   7.735  27.716  11.815
56060W        W28375  41.264  34.802  12.959
56061W        W28376  31.498   6.580  14.831
56062W        W28377  44.962   6.484   0.450
56063W        W28378  16.208  24.062   2.232
56064W        W28379  28.371  37.575   4.074
56065W        W28380  24.649   2.927  10.911
56066W        W28381   5.804  44.574  14.293
56067W        W28382  40.276  31.055   2.738
56068W        W28383  40.478  11.373  10.455
56069W        W28384  18.133  29.739   2.501
56070W        W28385  15.497  28.997   5.396
56071W        W28386   5.746  29.125  13.017
56072W        W28387   9.861  23.155   4.283
56073W        W28388   8.408  28.453   0.262
56074W        W28389  40.431  11.832  10.723
56075W        W28390  21.481   4.517  13.407
56076W        W28391  39.351  16.092  13.034
56077W        W28392  19.039   8.087   2.641
56078W        W28393  35.150  24.648   3.839
56079W        W28394  16.240  23.472   0.392
56080W        W28395  32.653  25.077  12.292
56081W        W28396  12.102  41.610   4.307
56082W        W28397  10.887  12.204  10.374
56083W        W28398  40.284  29.039  12.802
56084W        W28399  10.709  33.854  14.763
56085W        W28400  33.561  23.408   0.573
56086W        W28401  15.346  28.550   0.364
56087W        W28402  15.677  29.721   3.735
56088W        W28403  16.343  39.898   1.733
56089W        W28404   5.857  33.883  12.578
56090W        W28405  15.762   3.982   3.650
56091W        W28406   3.404  23.987  12.637
56092W        W28407  19.459   8.274   1.364
56093W        W28408  30.100  11.217   3.945
56094W        W28409  35.365  16.905   4.136
56095W        W28410  15.725  17.986   1.692
56096W        W28411  13.072  11.789  13.984
56097W        W28412  31.669  13.636   3.553
56098W        W28413  32.852  39.032   2.223
56099W        W28414  14.180  21.020  11.135
56100W        W28415  23.482  34.275  13.353
56101W        W28416  11.705  11.725   3.416
56102W        W28417   4.497  24.751  12.389
56103W        W28418  33.449   9.655   4.256
56104W        W28419  44.427   5.159  12.890
56105W        W28420  17.113  24.368   2.165
56106W        W28421  12.341  39.986   3.147
56107W        W28422  14.815  25.385  14.353
56108W        W28423  21.727  14.563   1.553
56109W        W28424  12.522   1.639   2.638
56110W        W28425  38.991  20.204  11.478
56111W        W28426  27.280  26.107   1.888
56112W        W28427  36.872  37.151   1.413
56113W        W28428  13.864  33.121  14.549
56114W        W28429  29.633  26.465  12.321
56115W        W28430  17.894   6.805  14.683
56116W        W28431  34.588  19.072  14.587
56117W        W28432  23.964  25.227   1.904
56118W        W28433  21.010  16.735  10.391
56119W        W28434  42.693   9.191   1.746
56120W        W28435  40.847  12.162  11.759
56121W        W28436   9.589  12.082  14.104
56122W        W28437  40.919   1.805   1.911
56123W        W28438  39.787  34.098   2.335
56124W        W28439  37.276   9.303   4.697
56125W        W28440  43.469  18.337   3.634
56126W        W28441  18.293   3.904   1.242
56127W        W28442   0.874   8.041   0.267
56128W        W28443  16.677  43.679   0.933
56129W        W28444  15.186  26.450   3.788
56130W        W28445  13.294  41.909  11.055
56131W        W28446  20.432   1.479   3.912
56132W        W28447  26.299  15.600   1.865
56133W        W28448  27.558  43.562   4.513
56134W        W28449  42.530  37.281  14.839
56135W        W28450   6.787  28.211   2.765
56136W        W28451  11.235  37.315   3.838
56137W        W28452  39.587   2.322  12.961
56138W        W28453  15.566  43.429   0.779
56139W        W28454   1.281   3.937  13.379
56140W        W28455  23.446  40.926   0.243
56141W        W28456  40.382  34.393   4.498
56142W        W28457  23.487  38.320  14.788
56143W        W28458  34.870  12.787   4.751
56144W        W28459   2.836  36.981  13.408
56145W        W28460   5.683  21.476   3.111
56146W        W28461  26.884  12.074  12.887
56147W        W28462  34.159  41.887   1.920
56148W        W28463  22.436   7.303  10.238
56149W        W28464  21.289  37.538   0.366
56150W        W28465  41.041  43.873  11.064
56151W        W28466  35.908  17.798   4.957
56152W        W28467  26.755   3.277  13.538
56153W        W28468   1.439   5.224   1.463
56154W        W28469  24.149  12.756  13.516
56155W        W28470  21.453  28.556   3.708
56156W        W28471  22.940  11.661   2.846
56157W        W28472  17.290  15.542   0.303
56158W        W28473   5.848  11.327  14.248
56159W        W28474   7.317  40.810  10.700
56160W        W28475   8.149  30.104  12.462
56161W        W28476  26.215  22.451  14.809
56162W        W28477  41.053  39.990   1.034
56163W        W28478  38.860   0.257  12.623
56164W        W28479  23.956  30.046   0.337
56165W        W28480   2.583  23.218   0.429
56166W        W28481   0.386   0.414   2.635
56167W        W28482  41.930  43.221  14.765
56168W        W28483   4.369  12.590  13.513
56169W        W28484  19.144  32.042  10.702
56170W        W28485  34.045  23.081  11.541
56171W        W28486  20.301  23.617   1.398
56172W        W28487  25.463  39.679   0.817
56173W        W28488  10.239  38.382  11.598
56174W        W28489  32.447  19.840   4.513
56175W        W28490   8.328  28.161   4.722
56176W        W28491  23.762  40.285  12.534
56177W        W28492  38.348  29.096  12.613
56178W        W28493  16.714   7.902   1.397
56179W        W28494   2.916  19.026   3.348
56180W        W28495   4.198  39.313   4.146
56181W        W28496  22.074  41.565   1.144
56182W        W28497  35.491  31.914  13.793
56183W        W28498  36.138   3.175   1.917
56184W        W28499  16.474  13.044   3.346
56185W        W28500   1.284  40.550   0.808
56186W        W28501   1.695  42.361  10.316
56187W        W28502   0.417  27.884   0.342
56188W        W28503  37.530  14.564   0.449
56189W        W28504  31.779  27.532  13.068
56190W        W28505   9.674  15.390   2.778
56191W        W28506   6.620  17.909   3.783
56192W        W28507  37.372  17.026   4.186
56193W        W28508   1.761  43.768   1.844
56194W        W28509   2.019  25.044  11.501
56195W        W28510  11.383  20.546   4.629
56196W        W28511   4.651  16.084  13.385
56197W        W28512  37.965  14.498   2.441
56198W        W28513  19.755   7.781  13.489
56199W        W28514  30.661   4.210  13.872
56200W        W28515   3.797  25.192  10.191
56201W        W28516   1.905  26.982   1.423
56202W        W28517  22.149  44.783   4.273
56203W        W28518  26.199   6.151   0.267
56204W        W28519  38.474  14.064   1.763
56205W        W28520  43.805  10.150   5.485
56206W        W28521  36.965  32.252  14.796
56207W        W28522  10.874  13.135   0.420
56208W        W28523   9.570   1.144   2.289
56209W        W28524   8.827   3.728  11.138
56210W        W28525  22.412  42.686  12.007
56211W        W28526  37.374  36.498   3.316
56212W        W28527  25.170   8.893   1.450
56213W        W28528  14.798   1.007   1.229
56214W        W28529  35.522  40.595  11.191
56215W        W28530  32.700   7.249   2.987
56216W        W28531   3.715  43.075   1.858
56217W        W28532  27.858   3.652  14.518
56218W        W28533   9.756   2.676  12.485
56219W        W28534  26.044  36.069  13.611
56220W        W28535  44.437  24.459   2.734
56221W        W28536  37.696  10.214   2.341
56222W        W28537  32.952  29.131   1.054
56223W        W28538  30.071  23.671  10.899
56224W        W28539  23.065  21.016   4.994
56225W        W28540  34.681  25.399   0.293
56226W        W28541  23.575  29.343  13.052
56227W        W28542  29.703  16.899   3.187
56228W        W28543   9.780   4.873  14.989
56229W        W28544  41.612   6.605  12.477
56230W        W28545  43.100  41.576  10.547
56231W        W28546  31.618  30.135   0.298
56232W        W28547  13.750  20.285   3.637
56233W        W28548   9.329   6.493   2.388
56234W        W28549  39.926  19.766   1.001
56235W        W28550  12.224   5.256  11.228
56236W        W28551  34.690   6.403  12.926
56237W        W28552  17.758   8.892  10.747
56238W        W28553   9.265  15.337   0.730
56239W        W28554  21.634  23.509   1.933
56240W        W28555  33.939  20.175  14.686
56241W        W28556  26.483  40.338   4.020
56242W        W28557  35.343  18.718  11.473
56243W        W28558  43.814  28.691   0.371
56244W        W28559  10.067  33.681   4.199
56245W        W28560  43.885  20.744  13.481
56246W        W28561  17.994   4.170   0.883
56247W        W28562  13.831  42.323  13.478
56248W        W28563   2.263  16.788  14.863
56249W        W28564  35.692  43.502   4.847
56250W        W28565  44.360  34.514   4.191
56251W        W28566  19.008  15.144   0.729
56252W        W28567  36.983   0.498  12.691
56253W        W28568  13.944  38.828  13.477
56254W        W28569  21.631  13.841   2.786
56255W        W28570  19.782   8.664   1.332
56256W        W28571  38.082   1.720  11.604
56257W        W28572  37.636  34.981  14.813
56258W        W28573  10.559   6.058  11.725
56259W        W28574  37.886   2.511   1.865
56260W        W28575   4.128  15.603  13.802
56261W        W28576   5.443  23.693   4.646
56262W        W28577  10.444   0.876  13.818
56263W        W28578  39.874  38.409  10.675
56264W        W28579  26.324  26.416   4.552
56265W        W28580   5.051  33.009   0.210
56266W        W28581  42.459   9.400   4.578
56267W        W28582  31.506   1.005  13.839
56268W        W28583  20.321  38.327  12.767
56269W        W28584  37.232  17.283  13.169
56270W        W28585  37.231  16.134  12.574
56271W        W28586  18.829   9.756  11.857
56272W        W28587   5.216   9.887   0.268
56273W        W28588  43.300  41.731   4.763
56274W        W28589  42.433  11.706  13.834
56275W        W28590  18.024  39.684  14.602
56276W        W28591   0.224   5.043   1.818
56277W        W28592   5.913  39.769   4.489
56278W        W28593  20.099  31.592   2.263
56279W        W28594  26.811  18.892   3.977
56280W        W28595  36.692   3.477  12.247
56281W        W28596   8.409  14.603   4.253
56282W        W28597   6.441  42.974   1.216
56283W        W28598  44.373  28.071   4.178
56284W        W28599  26.163  15.574   3.224
56285W        W28600   7.803  25.122   1.903
56286W        W28601  30.066  17.930  14.757
56287W        W28602  12.723  37.999   4.553
56288W        W28603  28.540  17.088  11.974
56289W        W28604  19.221  13.787  13.273
56290W        W28605  16.022  32.240   4.110
56291W        W28606  23.315  22.593  11.944
56292W        W28607  25.253   9.345   2.790
56293W        W28608  10.692  12.578  11.962
56294W        W28609   0.517  28.959   1.509
56295W        W28610   6.697   7.208  14.521
56296W        W28611  28.107   8.238   3.740
56297W        W28612   4.910  29.850   0.676
56298W        W28613  18.799   1.327   4.639
56299W        W28614  42.904  22.233  13.395
56300W        W28615  22.630  41.010   4.756
56301W        W28616   6.315  37.849   2.147
56302W        W28617  16.091  11.653  14.807
56303W        W28618  17.597  24.822   3.766
56304W        W28619  31.357  32.611  12.134
56305W        W28620  14.006  34.732  11.567
56306W        W28621  32.894  15.494   1.928
56307W        W28622  25.520  20.022  11.031
56308W        W28623  32.045  43.426  12.677
56309W        W28624  25.461  36.606   3.278
56310W        W28625  38.838   3.207  11.688
56311W        W28626  34.074   8.735   2.644
56312W        W28627  39.504  34.179   1.874
56313W        W28628   0.439   1.916   2.407
56314W        W28629   2.891  17.579  12.964
56315W        W28630  37.128  15.312   0.370
56316W        W28631  37.883  32.913   1.299
56317W        W28632   1.249   9.120   3.264
56318W        W28633  11.617  29.713   0.837
56319W        W28634  15.017  22.264   2.504
56320W        W28635  11.186  26.538  14.027
56321W        W28636  26.127   4.631  13.324
56322W        W28637   3.457  41.865   2.846
56323W        W28638   7.060  21.581  11.387
56324W        W28639   5.729  12.676   1.683
56325W        W28640  33.919  12.683  14.085
56326W        W28641  27.066   2.172   2.327
56327W        W28642  38.275   4.466  10.340
56328W        W28643  12.191  12.189  10.879
56329W        W28644  43.697  29.090  14.530
56330W        W28645  41.824   2.835  10.471
56331W        W28646  16.720  10.546   9.836
56332W        W28647  38.296  41.506  13.223
56333W        W28648  29.907  25.284   1.816
56334W        W28649  36.115  25.729   1.923
56335W        W28650  26.951  27.043  12.954
56336W        W28651  12.776   3.778   2.383
56337W        W28652  13.753  38.107   2.387
56338W        W28653  30.358  30.964   0.839
56339W        W28654  33.616  27.129  13.932
56340W        W28655  16.278  38.380   2.333
56341W        W28656  30.055  14.116  13.591
56342W        W28657  35.538  43.848   3.148
56343W        W28658  10.069   7.210  10.692
56344W        W28659  38.937  32.170   2.908
56345W        W28660   8.717  42.271  14.935
56346W        W28661  23.964   0.899   1.193
56347W        W28662   7.812  18.180  14.265
56348W        W28663  14.081   3.681  12.921
56349W        W28664  10.093  34.392  14.359
56350W        W28665   4.722   3.967   0.730
56351W        W28666   5.739  17.155   0.889
56352W        W28667  43.067  14.778   3.244
56353W        W28668   4.810  34.041  13.587
56354W        W28669   7.807  31.639  12.893
56355W        W28670  25.673   7.092  10.493
56356W        W28671  31.397  38.565   0.439
56357W        W28672  22.457   4.359   0.870
56358W        W28673   7.573  20.137   0.442
56359W        W28674  34.151  19.526   0.716
56360W        W28675  21.102  36.684  11.539
56361W        W28676  44.806  11.019  12.600
56362W        W28677  27.238   1.173  11.075
56363W        W28678  12.428  28.083   4.580
56364W        W28679  18.763  44.789  13.008
56365W        W28680  34.691  32.399  10.754
56366W        W28681   6.823  44.927  14.427
56367W        W28682   8.867  12.747   1.185
56368W        W28683  31.146  32.498   1.760
56369W        W28684  42.529  26.457  11.067
56370W        W28685  15.811  44.345  14.604
56371W        W28686  12.426   5.808  14.774
56372W        W28687  30.977  22.215   1.253
56373W        W28688  38.299  40.793  14.448
56374W        W28689  32.609   5.863   2.807
56375W        W28690  17.050  44.291   2.699
56376W        W28691  26.462  25.513   3.743
56377W        W28692  42.199  13.132   2.420
56378W        W28693  44.643  23.253  11.557
56379W        W28694  30.942   3.344  11.907
56380W        W28695  14.261  18.094   2.747
56381W        W28696   5.255  38.035   3.359
56382W        W28697  14.861  25.436   0.407
56383W        W28698  40.942   3.977   1.329
56384W        W28699  21.550   5.930   1.953
56385W        W28700  42.004   3.939   1.307
56386W        W28701  35.924  26.671  13.374
56387W        W28702   4.391  22.270  12.540
56388W        W28703  28.171  40.634  12.389
56389W        W28704   2.319  35.153  13.231
56390W        W28705  36.151  41.022  11.428
56391W        W28706  37.249   2.330  14.852
56392W        W28707  42.914  23.186   1.429
56393W        W28708   4.809   4.446   0.909
56394W        W28709   7.923  44.305  11.761
56395W        W28710  42.402  10.971   0.948
56396W        W28711   3.327  15.773   3.702
56397W        W28712  20.268  42.898   3.065
56398W        W28713  36.509  33.630  10.997
56399W        W28714  40.940  14.855   4.727
56400W        W28715  38.857  44.809  12.205
56401W        W28716  41.572  18.035  14.852
56402W        W28717  21.695  19.756   1.697
56403W        W28718  26.117  32.827  14.842
56404W        W28719  43.372   6.677   2.686
56405W        W28720  36.085  17.207   3.081
56406W        W28721   1.851  38.801  14.443
56407W        W28722  14.608  42.461  14.779
56408W        W28723  15.664  40.882  10.663
56409W        W28724  19.697  21.562   3.770
56410W        W28725   2.922  22.038   3.655
56411W        W28726  34.388   6.905   4.567
56412W        W28727   4.221  41.022  14.185
56413W        W28728  28.596  28.508  14.259
56414W        W28729  38.542  36.398  13.899
56415W        W28730  40.527  30.752  12.146
56416W        W28731   4.163  38.300   2.167
56417W        W28732  44.675  15.155   4.180
56418W        W28733  30.449  15.666   1.803
56419W        W28734  44.540  31.580  14.832
56420W        W28735   7.091  43.499  14.189
56421W        W28736   8.911  34.526   4.166
56422W        W28737  12.709  42.593  11.037
56423W        W28738  11.259  11.813  12.362
56424W        W28739  33.646   6.164  12.891
56425W        W28740  16.699  31.945   9.991
56426W        W28741  17.943  28.074   1.512
56427W        W28742  23.076  42.056   4.067
56428W        W28743   6.478  41.541  13.411
56429W        W28744   2.453  36.824  13.073
56430W        W28745   9.788  32.634  10.890
56431W        W28746   4.655  33.957  14.954
56432W        W28747  36.497   1.480   2.831
56433W        W28748  34.471  39.109   3.135
56434W        W28749  37.642  12.165  12.082
56435W        W28750  42.575   6.355  14.023
56436W        W28751  35.285  26.951   4.230
56437W        W28752   5.624  13.322   2.497
56438W        W28753  21.330  30.976   0.899
56439W        W28754  41.801  25.156   1.807
56440W        W28755  22.305  22.802   4.119
56441W        W28756  34.921  19.198   1.396
56442W        W28757  27.094   0.365  10.662
56443W        W28758  29.122  40.293   1.430
56444W        W28759   3.444  14.275  11.549
56445W        W28760   8.803  28.401   4.651
56446W        W28761   9.454  35.022   3.119
56447W        W28762  20.116  12.453   2.574
56448W        W28763  27.604   2.158  12.595
56449W        W28764  42.841  19.174  11.987
56450W        W28765  44.886  22.821  11.122
56451W        W28766   4.766  30.515   3.332
56452W        W28767  43.758  35.166  11.091
56453W        W28768  33.920  40.552  10.591
56454W        W28769  31.410  24.465   0.024
56455W        W28770   0.271  10.215  11.576
56456W        W28771  27.097  41.886  12.529
56457W        W28772   1.983  15.994  11.894
56458W        W28773  26.338  31.260  10.523
56459W        W28774  43.441  27.449   3.177
56460W        W28775   2.255   8.168  11.480
56461W        W28776  37.630  11.288  11.506
56462W        W28777   1.017   9.715  12.435
56463W        W28778   8.282  44.401   3.217
56464W        W28779  15.270  22.867   2.246
56465W        W28780  11.866  18.697   4.682
56466W        W28781  34.527  26.017  12.648
56467W        W28782  24.522  40.651   0.967
56468W        W28783  36.596  39.973  10.670
56469W        W28784  35.260  40.124   2.391
56470W        W28785   3.714  28.851   4.923
56471W        W28786  39.344   5.000   0.889
56472W        W28787   6.398   8.281  13.960
56473W        W28788  33.231   2.275  14.123
56474W        W28789  19.534  34.688   3.810
56475W        W28790  41.960  27.946   3.340
56476W        W28791  18.643  14.564   3.237
56477W        W28792  27.050  18.617  10.740
56478W        W28793  12.137  44.320   0.472
56479W        W28794  36.086  34.865  12.891
56480W        W28795  40.294  20.268  13.405
56481W        W28796   9.718  36.539   4.966
56482W        W28797  21.080  37.447   3.902
56483W        W28798  42.723  10.148  13.867
56484W        W28799   2.915  28.954   1.156
56485W        W28800  41.087  21.571  12.113
56486W        W28801  31.583  12.280  12.040
56487W        W28802   5.188   2.373  11.249
56488W        W28803  21.011  10.631   9.672
56489W        W28804  13.845   1.876   2.715
56490W        W28805  41.038  35.640  13.207
56491W        W28806   2.624  22.670  14.792
56492W        W28807   7.908   3.193   4.989
56493W        W28808  20.820   3.960  12.454
56494W        W28809  11.686  11.110  11.188
56495W        W28810   2.969  21.113   2.598
56496W        W28811  14.423  15.619  10.687
56497W        W28812  42.458  24.274  14.946
56498W        W28813  24.538  38.555  11.828
56499W        W28814   1.951  10.796  12.439
56500W        W28815  33.237   5.774  14.898
56501W        W28816   9.410  22.999  12.910
56502W        W28817  24.002  15.355   2.843
56503W        W28818  40.909  27.124  12.805
56504W        W28819   9.643  12.391   4.597
56505W        W28820  13.821  13.077   2.781
56506W        W28821  16.792  15.088   4.592
56507W        W28822  10.944  41.869  12.768
56508W        W28823  39.972  28.567   2.963
56509W        W28824  36.369   6.666   0.729
56510W        W28825  44.341  25.705  11.597
56511W        W28826  38.421  30.187  14.363
56512W        W28827  24.405  23.091   2.123
56513W        W28828  41.049  23.744  12.861
56514W        W28829  11.037  35.508  10.658
56515W        W28830  32.077  41.707  12.311
56516W        W28831  31.745   2.004   0.295
56517W        W28832  21.993   9.845  11.351
56518W        W28833  14.193  41.380  10.823
56519W        W28834  17.317   2.704   3.308
56520W        W28835  27.465   1.428   4.753
56521W        W28836  42.307  39.870   2.260
56522W        W28837  43.013   8.097  14.118
56523W        W28838  44.045   8.183   0.445
56524W        W28839   0.831  36.511   0.268
56525W        W28840  31.110  14.521   3.323
56526W        W28841  13.681   1.271  13.338
56527W        W28842  23.108  43.572  10.368
56528W        W28843  25.265  25.161  13.957
56529W        W28844  29.944  23.782   0.353
56530W        W28845   3.057   3.256   0.432
56531W        W28846  27.616  27.939   4.630
56532W        W28847  12.260  18.056  12.721
56533W        W28848  12.150   4.602   2.842
56534W        W28849  31.199  35.242  11.790
56535W        W28850  15.536  27.666   3.562
56536W        W28851  29.189  42.419   4.347
56537W        W28852  12.765  36.795  12.673
56538W        W28853   7.251  14.719   2.059
56539W        W28854  32.934  34.934   4.462
56540W        W28855  19.587   7.194  14.403
56541W        W28856  21.301  41.985   3.658
56542W        W28857  41.587  38.966   1.703
56543W        W28858  17.146  27.486  14.496
56544W        W28859  23.631  37.544  11.142
56545W        W28860  32.527  27.003  11.049
56546W        W28861  29.735  10.426   2.294
56547W        W28862  10.380  38.570  14.883
56548W        W28863  28.470  44.387  14.823
56549W        W28864  43.643  10.454  13.483
56550W        W28865   3.772  20.306   0.199
56551W        W28866  10.364  31.706  12.615
56552W        W28867  35.870  11.152   4.221
56553W        W28868  13.886  24.507   4.246
56554W        W28869   4.289  33.127  11.978
56555W        W28870  16.465  34.041  11.399
56556W        W28871   0.514  35.646   1.781
56557W        W28872   3.500  33.360  11.387
56558W        W28873   6.810  28.092  10.709
56559W        W28874   8.763  32.401  11.627
56560W        W28875  29.582  15.906  13.525
56561W        W28876  30.195  23.286   1.767
56562W        W28877  28.672  19.757   0.755
56563W        W28878   4.919  23.041  14.577
56564W        W28879  35.583  11.896   4.208
56565W        W28880  39.001  31.062   3.249
56566W        W28881  41.177  41.474   3.354
56567W        W28882   3.167  40.797   0.762
56568W        W28883  40.145  21.078  11.063
56569W        W28884  13.888  39.403  14.276
56570W        W28885  26.527  43.282  12.631
56571W        W28886  34.094  15.424   4.216
56572W        W28887  13.121  41.383  13.058
56573W        W28888  15.122  44.905  10.377
56574W        W28889  34.957  44.654   2.854
56575W        W28890  30.323  44.176  12.856
56576W        W28891  43.852   3.853   2.044
56577W        W28892   9.836  34.065   3.455
56578W        W28893  43.312  28.513   0.318
56579W        W28894  25.103   1.993   0.442
56580W        W28895  16.156  29.589   3.910
56581W        W28896  25.027  19.698  14.254
56582W        W28897  28.421  44.776   4.197
56583W        W28898  41.561  22.288  10.692
56584W        W28899   1.445   1.483  11.187
56585W        W28900  41.344  42.332  11.527
56586W        W28901  18.040  24.801  14.412
56587W        W28902  20.533  13.933  11.046
56588W        W28903  42.534   2.634  11.957
56589W        W28904   1.987  39.920  11.121
56590W        W28905  44.008  44.170  12.547
56591W        W28906  39.034  13.319   2.353
56592W        W28907  34.333  42.030   1.408
56593W        W28908  42.750  28.202  14.831
56594W        W28909  17.030  27.442  13.021
56595W        W28910   7.636   6.874  10.810
56596W        W28911   4.972  26.054  12.784
56597W        W28912  34.050  18.262  10.904
56598W        W28913  21.804  37.168  12.005
56599W        W28914   0.878   6.816   3.129
56600W        W28915  32.806  37.394   2.811
56601W        W28916  34.980  22.045   1.732
56602W        W28917  31.474   5.414   2.776
56603W        W28918  13.126  37.574  12.622
56604W        W28919  44.813  29.722  11.703
56605W        W28920  20.805  37.722  13.914
56606W        W28921  32.471  42.447  11.527
56607W        W28922  22.879  20.193   0.047
56608W        W28923  10.698  10.321   0.757
56609W        W28924  18.995  39.825  14.564
56610W        W28925  15.266  13.102  12.932
56611W        W28926  26.554  42.967  14.895
56612W        W28927  10.777  40.656   3.340
56613W        W28928   7.482  40.777  13.339
56614W        W28929  30.031  42.950   0.345
56615W        W28930   2.990  34.817   2.126
56616W        W28931  20.624  17.519   1.322
56617W        W28932   8.841  13.611  13.551
56618W        W28933   4.802   4.541  10.711
56619W        W28934   0.156  39.139  13.337
56620W        W28935  43.842  28.243   4.251
56621W        W28936  28.405  40.743   0.719
56622W        W28937  22.931   7.925  12.967
56623W        W28938  43.734  22.514  13.767
56624W        W28939  22.343  31.495   3.807
56625W        W28940  38.414  15.407  14.848
56626W        W28941  17.746  11.365  13.158
56627W        W28942  21.647  34.141   1.798
56628W        W28943  27.128  43.888   3.100
56629W        W28944  26.942   2.434  11.610
56630W        W28945   3.689   3.986  13.961
56631W        W28946  33.853  38.835   4.121
56632W        W28947  34.598  42.408  11.142
56633W        W28948  22.113   5.275   1.971
56634W        W28949  13.483   3.922   4.228
56635W        W28950  12.366  18.524  12.545
56636W        W28951  17.253  10.080   2.425
56637W        W28952  36.039  43.857   3.194
56638W        W28953  13.273  20.092   2.400
56639W        W28954  39.960  36.920   0.567
56640W        W28955  37.125  25.736   4.947
56641W        W28956  44.884  37.557   3.690
56642W        W28957  38.973  29.518  11.381
56643W        W28958  36.041  10.900  14.452
56644W        W28959  31.615  42.298  14.822
56645W        W28960   5.208  40.179  11.549
56646W        W28961   2.963  15.210  13.572
56647W        W28962  37.046  11.054   4.566
56648W        W28963   0.375  44.471   4.373
56649W        W28964  11.344  30.433  10.089
56650W        W28965  10.239  30.446   2.755
56651W        W28966   7.795  40.375   0.922
56652W        W28967  37.062  42.598   0.859
56653W        W28968  19.858  32.929   4.482
56654W        W28969   1.063   8.847  14.936
56655W        W28970   4.354  43.809   2.228
56656W        W28971  17.378  28.424  12.186
56657W        W28972  15.638   5.955   2.523
56658W        W28973   5.780  20.109  13.356
56659W        W28974  34.971  31.617   0.387
56660W        W28975  37.776  22.606  13.919
56661W        W28976  35.783  12.326   0.974
56662W        W28977  17.323   8.828   5.106
56663W        W28978  13.110  13.074  12.107
56664W        W28979  27.717   2.842  12.885
56665W        W28980  34.118  24.936   4.236
56666W        W28981  31.060  20.047   1.779
56667W        W28982  37.180  11.962  12.017
56668W        W28983  11.172   2.677   3.129
56669W        W28984  22.446  44.841   2.361
56670W        W28985   2.178  31.138  11.595
56671W        W28986   1.449  30.753   1.055
56672W        W28987   7.304  18.057  14.299
56673W        W28988  42.561  37.677   1.561
56674W        W28989   8.935   0.713   0.943
56675W        W28990  35.645   4.882  11.914
56676W        W28991   7.872   4.217   4.757
56677W        W28992  26.020  21.872  10.889
56678W        W28993   8.386  34.617   4.235
56679W        W28994  34.969  34.911  12.368
56680W        W28995  16.716  19.807   0.075
56681W        W28996  18.150   2.511   1.702
56682W        W28997  37.300  16.400   0.937
56683W        W28998   3.577  26.919   1.766
56684W        W28999  35.222  39.971   0.197
56685W        W29000   2.273  34.357  11.942
56686W        W29001  36.879  10.895   1.872
56687W        W29002  36.412   2.951  14.805
56688W        W29003  42.555  19.251   4.131
56689W        W29004  18.119  20.024  10.372
56690W        W29005  26.808  26.176  13.996
56691W        W29006   5.222  41.452  12.137
56692W        W29007  18.511  15.722  10.948
56693W        W29008  28.087  26.919  11.570
56694W        W29009  33.924  34.088   3.389
56695W        W29010   3.776  43.409  12.405
56696W        W29011  30.285  35.324   0.364
56697W        W29012  42.416   7.408   4.044
56698W        W29013   5.758  19.059   4.508
56699W        W29014   2.785  44.637  13.257
56700W        W29015   2.695  36.471  13.396
56701W        W29016  29.706  37.325   1.468
56702W        W29017  34.599  10.523   0.421
56703W        W29018  15.274  26.279   4.268
56704W        W29019  38.376  27.618  11.692
56705W        W29020  21.027  38.461  11.388
56706W        W29021  11.381   0.831   0.868
56707W        W29022   3.411  16.313  12.009
56708W        W29023  34.980  34.381   3.293
56709W        W29024  21.222  34.661   1.288
56710W        W29025  31.436   6.911   2.960
56711W        W29026  36.878  28.956   0.389
56712W        W29027  22.123  10.052  10.258
56713W        W29028  41.909  14.056  12.010
56714W        W29029  23.511  21.064   0.836
56715W        W29030   7.305  34.469   1.177
56716W        W29031  40.737  12.624   1.335
56717W        W29032  21.140  35.482   2.329
56718W        W29033  32.074  23.033  14.749
56719W        W29034  37.806  34.128   2.792
56720W        W29035  15.771  12.854   2.201
56721W        W29036  16.364  10.090  12.828
56722W        W29037  22.934  20.704  14.928
56723W        W29038  42.859  13.866  11.066
56724W        W29039  13.447  22.687  14.814
56725W        W29040  32.933  36.442   3.836
56726W        W29041   6.736  34.946  12.436
56727W        W29042  41.297  24.685  11.535
56728W        W29043  27.473   5.389   3.332
56729W        W29044  32.911   7.144   1.343
56730W        W29045  23.539   4.967   3.785
56731W        W29046  32.225  10.211   4.753
56732W        W29047  25.547   9.007  14.378
56733W        W29048  36.354  10.951  11.130
56734W        W29049  23.703  26.651  14.349
56735W        W29050  26.501  29.937  12.863
56736W        W29051  15.784   5.623  11.930
56737W        W29052   5.325  14.330  11.178
56738W        W29053  41.257   4.375   0.356
56739W        W29054  21.898  23.591   3.209
56740W        W29055  33.825  33.141  13.459
56741W        W29056  26.086  16.063   1.734
56742W        W29057  37.935   2.808   4.030
56743W        W29058  17.838  32.448   1.580
56744W        W29059  20.756  18.016   0.383
56745W        W29060   2.127  30.607   4.512
56746W        W29061  34.846  39.607   3.713
56747W        W29062  36.508  32.594  13.046
56748W        W29063  28.598   9.230  13.972
56749W        W29064   9.676  37.590  13.101
56750W        W29065  33.564  18.997   1.425
56751W        W29066  39.605  13.054   0.376
56752W        W29067  30.460  38.999  13.324
56753W        W29068  10.895   8.296  14.848
56754W        W29069  10.194  22.496   4.621
56755W        W29070   9.201   0.503  11.879
56756W        W29071  41.231  41.299   1.930
56757W        W29072   1.837  22.073  10.650
56758W        W29073  14.278  21.638  13.907
56759W        W29074  20.253   5.294  12.622
56760W        W29075   3.562  11.636  10.360
56761W        W29076  36.870  20.707   1.208
56762W        W29077   0.898  14.256   4.158
56763W        W29078   9.859   5.163   2.394
56764W        W29079  35.913  26.996  13.783
56765W        W29080   9.832  11.355  10.756
56766W        W29081  30.435  23.696   1.309
56767W        W29082   8.097  28.600   3.174
56768W        W29083  27.692  22.677  12.052
56769W        W29084  16.178  20.290   3.715
56770W        W29085   8.929  28.617  11.492
56771W        W29086  24.398  16.165  11.167
56772W        W29087   9.231   1.278   4.483
56773W        W29088  27.438  10.632   2.711
56774W        W29089   7.190  11.300  12.971
56775W        W29090  43.028   3.456  13.369
56776W        W29091  36.865  29.089  14.888
56777W        W29092  12.093  36.693   3.580
56778W        W29093  30.178  20.567  14.050
56779W        W29094  42.457  34.037   2.429
56780W        W29095  20.267  38.590  13.777
56781W        W29096  18.868  17.283  11.121
56782W        W29097  28.262  39.033  14.341
56783W        W29098  13.340   3.884  13.375
56784W        W29099   7.128   5.923   2.839
56785W        W29100  16.573  40.474   5.507
56786W        W29101  35.016  43.371  11.182
56787W        W29102  36.169  37.452   4.067
56788W        W29103  33.141  28.612  12.927
56789W        W29104  22.016   8.689  14.788
56790W        W29105  20.467   0.807  13.887
56791W        W29106  40.829   7.384  11.132
56792W        W29107   3.098  37.716   1.376
56793W        W29108   7.118  20.610   1.546
56794W        W29109  15.808   9.570  14.265
56795W        W29110  33.654  18.032   2.815
56796W        W29111  24.200  30.642   3.774
56797W        W29112  16.419  13.423   1.798
56798W        W29113   2.967  28.399  11.144
56799W        W29114   0.816  39.025  12.157
56800W        W29115  16.332  29.724  11.504
56801W        W29116  22.108  12.417  14.989
56802W        W29117  34.339   6.492   2.763
56803W        W29118  15.424  13.924  14.873
56804W        W29119   8.077  31.996  10.249
56805W        W29120  30.958  11.321  14.869
56806W        W29121  23.086  13.771   2.154
56807W        W29122  32.446   0.966   2.835
56808W        W29123  41.245  44.806  11.568
56809W        W29124   8.023   6.837   3.743
56810W        W29125  25.166  11.780   0.444
56811W        W29126  27.794  39.251   4.140
56812W        W29127   1.245  32.622  13.972
56813W        W29128  25.661   6.262  14.391
56814W        W29129  26.103  39.326   1.453
56815W        W29130  13.882   1.119  12.865
56816W        W29131  26.478  23.963  12.503
56817W        W29132  31.918   4.488  11.563
56818W        W29133  33.641   9.154   2.251
56819W        W29134   9.230   4.728   3.728
56820W        W29135  13.289  28.980  11.421
56821W        W29136   9.305   6.391   1.320
56822W        W29137  36.913   8.661   4.948
56823W        W29138  20.960   1.497  10.410
56824W        W29139  44.197  34.597  14.789
56825W        W29140  22.455  34.431   0.384
56826W        W29141   8.867  22.604   0.300
56827W        W29142  27.593  37.933  10.436
56828W        W29143  44.689  41.528  11.973
56829W        W29144   0.952  27.677  13.267
56830W        W29145  43.536  10.593  12.562
56831W        W29146   2.806   7.206  12.796
56832W        W29147  17.730  38.474   2.979
56833W        W29148  23.430  15.205  12.586
56834W        W29149  22.601  25.621   3.398
56835W        W29150   6.928  38.814  13.867
56836W        W29151  10.841  32.854   0.408
56837W        W29152  27.161  31.839   5.496
56838W        W29153  20.578  32.962   3.784
56839W        W29154   5.310  25.071   0.038
56840W        W29155  35.029  25.782  13.980
56841W        W29156   8.791  27.458   1.248
56842W        W29157  19.297  16.871   2.687
56843W        W29158  36.185  14.248   4.536
56844W        W29159   1.982   3.515   2.306
56845W        W29160   4.031  26.924  13.169
56846W        W29161   3.872  27.002  11.123
56847W        W29162  10.790   8.321  12.931
56848W        W29163   3.374  15.656   4.230
56849W        W29164  44.259  44.660   1.347
56850W        W29165   0.897   5.569   3.541
56851W        W29166  24.485  30.945   0.355
56852W        W29167   1.888   4.998  14.433
56853W        W29168  29.101  38.626   1.329
56854W        W29169   8.521  35.037   1.952
56855W        W29170  28.956  39.292   2.874
56856W        W29171  19.660  27.537  13.733
56857W        W29172  15.546  11.175   2.758
56858W        W29173  36.657  18.735   1.280
56859W        W29174   9.635  20.500   3.230
56860W        W29175  18.769  32.092  12.058
56861W        W29176   3.365  18.594  14.595
56862W        W29177   5.812   6.421  11.583
56863W        W29178   9.306   0.824   1.940
56864W        W29179   0.632  33.621   1.418
56865W        W29180   4.701  10.504   1.977
56866W        W29181  27.992   6.463  11.469
56867W        W29182  24.985  12.771   2.251
56868W        W29183  24.965  29.947   0.068
56869W        W29184  31.193  23.669   0.727
56870W        W29185  16.603   3.798  11.764
56871W        W29186   7.388  22.099   1.227
56872W        W29187  23.628  14.726  12.417
56873W        W29188  19.750  44.000  14.886
56874W        W29189  43.965   7.621  11.885
56875W        W29190   5.228  29.975  11.099
56876W        W29191  11.597  16.100  12.641
56877W        W29192  35.790  10.246   2.322
56878W        W29193  29.154  26.261  12.472
56879W        W29194  42.106   1.763   0.786
56880W        W29195   9.802  15.533   0.693
56881W        W29196  11.794   1.408   4.069
56882W        W29197  17.623  31.002  11.217
56883W        W29198  13.745  34.611   0.499
56884W        W29199  15.601  36.824   2.272
56885W        W29200  35.115  34.436  11.079
56886W        W29201   9.794  34.429  12.111
56887W        W29202  10.425  39.107   1.409
56888W        W29203  15.802  19.705  10.937
56889W        W29204  25.177  16.544   3.226
56890W        W29205  31.900  29.757  10.740
56891W        W29206   3.214  18.108  10.516
56892W        W29207  12.420  18.821   2.220
56893W        W29208  33.407   1.058   4.269
56894W        W29209   2.491   6.644  13.795
56895W        W29210  41.431  18.038   1.194
56896W        W29211  32.270  42.957  13.597
56897W        W29212  24.864  37.632   2.124
56898W        W29213   9.378  41.263   3.167
56899W        W29214   7.710  42.044   0.556
56900W        W29215  38.071  41.416   4.605
56901W        W29216  39.206  17.635  11.476
56902W        W29217  42.093  17.556   1.485
56903W        W29218   4.003  24.046   0.840
56904W        W29219  10.969  15.778   3.785
56905W        W29220  31.196  21.655  10.904
56906W        W29221  30.037  41.487  10.497
56907W        W29222  32.919   0.835   1.008
56908W        W29223  33.553  43.270   1.859
56909W        W29224  44.896  15.234  12.313
56910W        W29225  41.394  23.459   1.496
56911W        W29226  16.596  32.595  11.919
56912W        W29227  30.634   8.143   0.406
56913W        W29228  15.514  23.700   3.957
56914W        W29229  28.006  43.555  14.873
56915W        W29230  12.932  16.741  13.627
56916W        W29231  22.456  43.977   0.364
56917W        W29232  28.153   7.181  14.417
56918W        W29233  37.834  10.199   4.702
56919W        W29234  29.192  43.950   3.324
56920W        W29235  30.567  37.881   3.818
56921W        W29236  13.246  42.122  14.347
56922W        W29237  32.860  22.022  13.817
56923W        W29238   3.296  34.286   9.811
56924W        W29239  19.710  15.817  13.012
56925W        W29240  38.079  39.567  13.096
56926W        W29241  40.062  10.796  12.887
56927W        W29242   3.412   1.565   1.651
56928W        W29243  42.202   6.632   3.735
56929W        W29244  21.155  27.344  10.206
56930W        W29245  35.462  12.645   0.701
56931W        W29246  40.478   4.189   0.948
56932W        W29247  35.651  12.434  13.805
56933W        W29248   4.265  40.774  11.043
56934W        W29249  22.250  11.088  10.516
56935W        W29250  12.280  44.787  12.886
56936W        W29251   5.743   4.127   2.668
56937W        W29252  12.327   3.487  11.061
56938W        W29253  14.784  34.420   1.979
56939W        W29254  40.314  25.767   4.619
56940W        W29255  42.293  25.151   2.392
56941W        W29256  42.521  26.424  12.717
56942W        W29257  32.878   9.705   3.260
56943W        W29258   1.997  31.066   4.227
56944W        W29259  13.350  29.427   0.810
56945W        W29260   1.512  13.493  13.565
56946W        W29261   6.891  37.272   4.450
56947W        W29262  34.332   4.650   1.776
56948W        W29263  15.553  35.698  13.348
56949W        W29264   5.462  27.572   3.290
56950W        W29265  35.080  42.738  12.984
56951W        W29266  43.823  23.775   4.555
56952W        W29267  42.230   5.407   4.270
56953W        W29268  20.762  23.958   0.213
56954W        W29269  14.392  36.609   2.756
56955W        W29270  32.606  30.553   3.184
56956W        W29271  43.413  40.419  14.897
56957W        W29272  41.082  34.501   1.396
56958W        W29273  11.900  42.345  14.320
56959W        W29274  16.034  31.280   1.244
56960W        W29275   0.520  31.131  13.835
56961W        W29276   8.715  25.624   1.812
56962W        W29277  16.858  40.174   3.899
56963W        W29278   8.791  23.138  10.727
56964W        W29279  21.733  14.294   4.201
56965W        W29280  37.631   1.362   3.376
56966W        W29281  28.986  10.572  10.568
56967W        W29282  31.859  10.560   1.639
56968W        W29283  11.808  32.113   4.539
56969W        W29284  39.474   5.370  12.521
56970W        W29285  38.084  15.566   1.473
56971W        W29286  11.730   5.415  13.009
56972W        W29287  39.645  22.936   3.608
56973W        W29288  40.299  31.541   1.866
56974W        W29289  32.458  28.960   1.930
56975W        W29290  13.836  27.072   4.679
56976W        W29291  40.790  23.508  12.499
56977W        W29292  23.763   6.345   4.544
56978W        W29293  31.123  17.669   2.832
56979W        W29294  18.348  43.711  11.593
56980W        W29295  15.645   9.086  13.400
56981W        W29296  43.949  25.176  10.729
56982W        W29297   7.344  39.340   0.214
56983W        W29298   1.700  33.276   5.527
56984W        W29299  20.214  40.076  12.945
56985W        W29300  26.694   4.139  14.136
56986W        W29301   9.914  17.614   0.970
56987W        W29302  38.602  42.775  11.429
56988W        W29303  13.316  16.539   4.757
56989W        W29304  30.397  34.740   3.499
56990W        W29305  40.961  13.938  11.205
56991W        W29306   0.350  38.753   1.328
56992W        W29307  40.408   4.200  14.371
56993W        W29308  40.414  13.775   3.697
56994W        W29309  31.814   0.942  14.281
56995W        W29310   4.383  34.661   1.320
56996W        W29311  30.051  34.507  13.569
56997W        W29312  17.294  24.807   0.748
56998W        W29313  28.056  12.166   1.479
56999W        W29314  35.547  26.721   4.616
57000W        W29315  35.079  40.387   4.644
57001W        W29316  18.209  15.452  10.176
57002W        W29317  37.872  13.315   4.604
57003W        W29318  35.968  24.150   3.654
57004W        W29319  39.492  19.272   2.281
57005W        W29320  35.908  39.708  11.167
57006W        W29321   3.980  21.255  14.033
57007W        W29322  13.167  38.265   4.503
57008W        W29323  19.658  27.944  12.009
57009W        W29324  14.347  18.863  11.596
57010W        W29325  10.107   6.359  14.922
57011W        W29326   7.898  30.049   4.148
57012W        W29327  43.585   3.714   0.445
57013W        W29328  28.798  11.394  13.298
57014W        W29329  39.139   7.158   4.147
57015W        W29330  36.582   3.836  11.914
57016W        W29331  41.862  29.994  13.836
57017W        W29332   2.259  37.549  11.058
57018W        W29333   1.259   6.836  12.434
57019W        W29334  11.863  36.249  13.462
57020W        W29335  24.484  44.533   2.463
57021W        W29336  36.927  36.792  14.202
57022W        W29337  29.944  17.685   2.578
57023W        W29338  33.601   9.125   5.131
57024W        W29339  20.891  42.759   0.405
57025W        W29340  44.311  37.796   0.361
57026W        W29341  38.013   7.419  13.903
57027W        W29342  12.055  27.153  13.048
57028W        W29343  43.468  37.690   0.026
57029W        W29344   2.344   1.990  11.975
57030W        W29345  36.706  22.126  14.355
57031W        W29346   2.368  38.933  14.319
57032W        W29347  19.168  40.900   5.085
57033W        W29348  30.916   6.750  11.490
57034W        W29349  31.617   2.041  12.817
57035W        W29350  40.051   1.028  12.639
57036W        W29351  42.194  19.696  11.445
57037W        W29352  21.738   4.304  13.850
57038W        W29353  43.512   2.728  13.822
57039W        W29354  30.518   4.696   3.262
57040W        W29355  32.118  36.961  14.165
57041W        W29356   4.965  13.394  14.346
57042W        W29357  13.619  14.186   3.149
57043W        W29358  24.929  34.405  13.734
57044W        W29359   5.591   1.266  12.872
57045W        W29360  20.312  44.545   1.693
57046W        W29361  24.177  23.465  13.267
57047W        W29362  40.994  24.555  12.418
57048W        W29363  27.052  41.213   0.955
57049W        W29364  25.993  15.188   1.890
57050W        W29365  28.680  15.627  12.034
57051W        W29366  41.971   2.991  14.789
57052W        W29367  36.156   4.786  13.822
57053W        W29368   4.661  37.842   3.650
57054W        W29369   6.039  36.883   4.353
57055W        W29370   6.764  36.812  13.885
57056W        W29371  23.123  16.588  12.101
57057W        W29372  12.948   6.564  11.493
57058W        W29373  10.608  41.408  14.781
57059W        W29374  41.889  12.956  13.556
57060W        W29375  16.210   6.694   0.408
57061W        W29376   9.618  33.041  13.354
57062W        W29377  42.684   2.039   2.047
57063W        W29378  12.500  19.346  13.497
57064W        W29379  25.229  42.082   1.776
57065W        W29380   1.734  43.926  14.367
57066W        W29381  18.355  27.054  13.488
57067W        W29382   9.852  42.316  12.312
57068W        W29383  40.262   5.309   3.788
57069W        W29384  39.323  18.831  13.987
57070W        W29385  28.151  26.462   1.870
57071W        W29386  44.435  19.563   0.579
57072W        W29387  18.548  24.046  13.018
57073W        W29388  29.799  24.463  12.526
57074W        W29389  22.243  40.251  12.485
57075W        W29390   5.477  30.075  13.881
57076W        W29391  24.963  32.511   4.695
57077W        W29392  19.111  24.155   1.037
57078W        W29393  17.006   2.783   1.133
57079W        W29394  28.610  21.392  10.954
57080W        W29395  43.758  12.482  10.673
57081W        W29396  31.727  41.403  14.749
57082W        W29397  16.046   6.620   4.671
57083W        W29398  34.189  28.561   1.467
57084W        W29399  19.384  23.944   4.737
57085W        W29400   5.534  13.553  12.017
57086W        W29401  36.094  42.965   4.277
57087W        W29402  34.221   3.192   0.502
57088W        W29403  15.877  25.129  10.676
57089W        W29404   7.623  18.756  13.967
57090W        W29405  22.411  18.208   2.102
57091W        W29406  28.853  28.214  14.596
57092W        W29407  28.259  18.502  12.305
57093W        W29408  35.450  38.432   1.417
57094W        W29409  40.851  12.051   0.376
57095W        W29410  27.141  27.730  12.430
57096W        W29411  11.958  36.483   4.324
57097W        W29412  27.293  13.155  14.404
57098W        W29413   4.289   6.178  13.734
57099W        W29414  17.976  32.858  14.225
57100W        W29415   2.401  32.863  13.588
57101W        W29416  17.049  14.147   1.863
57102W        W29417  41.861   5.802  14.148
57103W        W29418  17.311  44.010   0.509
57104W        W29419  41.281  19.557  12.024
57105W        W29420  29.891   9.702  11.031
57106W        W29421  27.708  15.633  13.904
57107W        W29422  19.452  35.616  14.453
57108W        W29423  29.093   8.604   0.754
57109W        W29424  30.087  32.574   4.982
57110W        W29425  22.083  10.387  11.222
57111W        W29426   1.169  28.071   4.243
57112W        W29427   9.174  20.696  11.954
57113W        W29428  18.589   3.196  10.105
57114W        W29429  25.528  22.217  13.966
57115W        W29430   5.301  30.574   1.966
57116W        W29431  21.073   8.593  10.131
57117W        W29432   8.243   3.069   4.614
57118W        W29433  29.846   9.455   1.289
57119W        W29434   8.269   6.157  14.709
57120W        W29435  22.658  17.709  12.370
57121W        W29436   2.472   7.685   4.538
57122W        W29437   3.723   0.839  12.614
57123W        W29438  11.188  19.792   3.172
57124W        W29439  26.946  27.383   2.839
57125W        W29440   8.251  12.007  13.886
57126W        W29441   5.737  29.171  14.326
57127W        W29442   1.991  17.106  13.045
57128W        W29443  17.122  26.597  14.490
57129W        W29444  26.235  42.326   4.450
57130W        W29445  35.981  17.595  13.870
57131W        W29446   3.756  30.487  13.396
57132W        W29447   0.373  22.988  11.018
57133W        W29448  37.612  33.798  13.516
57134W        W29449  20.568  37.906  14.350
57135W        W29450  20.769  28.760   4.118
57136W        W29451  31.698  17.724  11.865
57137W        W29452   1.879   9.371  13.990
57138W        W29453  33.664  43.880  13.004
57139W        W29454  32.514  39.592  12.011
57140W        W29455  19.101   9.767   1.411
57141W        W29456  21.273  12.174   1.920
57142W        W29457   8.421   0.808  12.706
57143W        W29458   1.973   8.043  11.070
57144W        W29459  12.900  42.286   2.283
57145W        W29460  39.703   3.224  11.154
57146W        W29461  29.890  37.847   2.101
57147W        W29462  15.589  21.950  14.848
57148W        W29463  25.927  14.646  10.690
57149W        W29464   2.446  20.797  10.815
57150W        W29465   0.011  12.872   3.339
57151W        W29466  33.141  41.713   2.342
57152W        W29467  40.815  44.993  12.416
57153W        W29468  28.874   9.975   1.680
57154W        W29469  17.435  13.113  12.375
57155W        W29470  26.034  39.464  14.807
57156W        W29471  42.187  32.049  11.937
57157W        W29472   5.862  22.463   4.027
57158W        W29473  29.935   9.162  13.523
57159W        W29474  39.937  27.148   3.252
57160W        W29475  20.918   1.472   3.748
57161W        W29476  34.354  21.221  13.470
57162W        W29477  41.228  28.994   4.012
57163W        W29478  21.648  16.571  14.489
57164W        W29479  29.460   8.658   1.974
57165W        W29480   1.866  20.045   2.287
57166W        W29481  21.315   4.244  14.803
57167W        W29482  29.156   9.144   0.801
57168W        W29483  41.237  15.011  14.487
57169W        W29484  23.503  42.939  10.603
57170W        W29485  18.755  33.848   1.676
57171W        W29486  35.145  41.754   0.744
57172W        W29487  28.348  26.048   2.776
57173W        W29488  35.797  39.477  10.699
57174W        W29489  37.535  12.641  11.965
57175W        W29490  17.864  35.974  14.354
57176W        W29491  39.258   6.250  10.704
57177W        W29492  32.055  41.430   0.730
57178W        W29493  25.669  42.848   1.699
57179W        W29494   9.894  34.549   4.246
57180W        W29495  25.655  15.665   3.999
57181W        W29496   9.917   1.959   1.835
57182W        W29497  32.189  27.600   2.187
57183W        W29498  21.517   5.376   0.859
57184W        W29499  41.904  30.374   2.792
57185W        W29500  29.066  33.970  11.421
57186W        W29501  10.228  12.311   1.240
57187W        W29502  28.123   8.056   3.173
57188W        W29503  23.281  21.313   0.391
57189W        W29504  18.003   8.178   0.010
57190W        W29505  40.160  42.733  14.492
57191W        W29506  11.331  17.078  12.960
57192W        W29507  11.932  20.505  14.869
57193W        W29508  24.996  25.206  13.485
57194W        W29509  28.064  17.794   0.553
57195W        W29510  10.625  21.031  14.240
57196W        W29511  40.055  42.170  11.159
57197W        W29512  12.407   6.291   0.453
57198W        W29513  15.358  28.641  11.462
57199W        W29514  30.968   2.906   4.606
57200W        W29515  27.454  32.927   3.370
57201W        W29516  32.524  38.513   1.890
57202W        W29517  24.111   9.459   0.324
57203W        W29518  12.575   3.927  14.883
57204W        W29519  17.789   0.192   3.738
57205W        W29520  25.188  10.676  10.367
57206W        W29521  10.667  39.965   2.407
57207W        W29522   7.747  14.237   1.524
57208W        W29523  44.884  35.048   4.272
57209W        W29524  34.611  23.830  13.481
57210W        W29525  33.593   1.804  13.000
57211W        W29526  35.300  22.754  12.903
57212W        W29527   5.477  16.689   2.841
57213W        W29528  41.538  20.074   4.294
57214W        W29529  33.663  31.416   0.710
57215W        W29530  31.069  21.781   4.064
57216W        W29531  26.479   6.440  11.431
57217W        W29532  28.005  28.985   3.800
57218W        W29533  25.925  22.119   4.546
57219W        W29534   2.179   7.838   2.261
57220W        W29535  33.406  27.252   3.122
57221W        W29536  21.133  23.741  13.883
57222W        W29537  23.219  22.770   4.199
57223W        W29538   0.667  29.122   1.055
57224W        W29539  36.680   8.375  12.953
57225W        W29540   8.750  24.538  12.563
57226W        W29541  15.822  16.157  10.686
57227W        W29542   8.151  23.728   2.606
57228W        W29543  19.642  16.043   4.118
57229W        W29544   4.896  20.927   1.721
57230W        W29545  24.585  36.388  12.150
57231W        W29546   3.026  41.957   0.646
57232W        W29547   5.584  43.680   3.759
57233W        W29548  33.323  35.168   4.222
57234W        W29549  32.092  20.525   2.286
57235W        W29550  32.683  25.167   4.097
57236W        W29551   3.207  26.984   3.797
57237W        W29552  30.716   3.884   4.604
57238W        W29553  38.001   2.969  12.611
57239W        W29554  33.986  13.383   2.120
57240W        W29555   3.802  19.141   3.216
57241W        W29556  35.144   6.921   3.550
57242W        W29557  32.201   4.182   2.907
57243W        W29558  13.301  25.218  13.423
57244W        W29559  22.989   3.484  14.962
57245W        W29560  15.145  26.922   2.904
57246W        W29561  24.993  21.712  14.444
57247W        W29562  16.325   0.670   2.157
57248W        W29563  15.198  31.930   0.738
57249W        W29564  30.497  28.989  13.407
57250W        W29565  40.360  17.610   0.361
57251W        W29566  12.586  44.732   0.418
57252W        W29567  32.135  36.547  12.494
57253W        W29568   7.574  37.381  13.044
57254W        W29569   0.210  31.941  10.928
57255W        W29570  18.684  23.539  13.111
57256W        W29571   5.140  15.384   3.377
57257W        W29572  40.008  35.611   0.405
57258W        W29573  24.035  41.813  11.592
57259W        W29574  22.736  35.017  11.570
57260W        W29575  42.809   9.620   1.400
57261W        W29576  26.566  40.281   2.199
57262W        W29577  24.235  42.769  13.949
57263W        W29578  35.615  33.139  12.838
57264W        W29579  32.168  42.323  14.816
57265W        W29580  43.076  29.897   2.674
57266W        W29581  39.089  11.809   0.261
57267W        W29582  10.696  29.535   1.265
57268W        W29583   2.391  18.131  14.454
57269W        W29584  30.136  30.396   3.557
57270W        W29585   9.898  13.195  12.087
57271W        W29586  10.593  14.205   0.822
57272W        W29587  14.735  39.615   4.366
57273W        W29588  42.038  38.442  12.310
57274W        W29589  21.569  17.623  11.137
57275W        W29590  42.576  32.217   4.807
57276W        W29591  14.711  14.261  12.493
57277W        W29592   4.495  23.170   0.805
57278W        W29593  39.397  18.181  14.329
57279W        W29594  25.459  29.391  12.106
57280W        W29595   8.480  20.108   4.734
57281W        W29596  19.595  33.259  12.500
57282W        W29597  39.442  39.234   0.057
57283W        W29598  13.819   1.835  12.672
57284W        W29599  13.625  22.036  13.858
57285W        W29600  20.307   7.967  10.694
57286W        W29601  30.590  14.757   3.286
57287W        W29602  28.388  13.061  12.212
57288W        W29603  37.358  41.296   3.162
57289W        W29604   2.397   8.166   3.664
57290W        W29605  21.754   7.137   0.398
57291W        W29606   3.965  31.454  11.621
57292W        W29607  43.015   9.809  11.506
57293W        W29608  43.191  25.864  12.124
57294W        W29609   7.853   6.157   2.005
57295W        W29610  16.711  28.450   5.041
57296W        W29611  25.625  14.845  13.101
57297W        W29612   9.614  44.237  11.147
57298W        W29613   9.810  26.471  14.921
57299W        W29614  26.077  16.085  10.825
57300W        W29615  23.535  18.896   2.120
57301W        W29616  16.200  11.609   4.802
57302W        W29617  35.473  20.651  11.845
57303W        W29618  16.031  18.637   1.450
57304W        W29619  26.502  41.373  14.009
57305W        W29620   7.665  34.074   2.859
57306W        W29621  36.420   0.750   2.118
57307W        W29622   3.425  31.714   4.365
57308W        W29623   5.890  25.039  10.397
57309W        W29624  20.930  24.295  11.126
57310W        W29625  34.641  18.722   1.423
57311W        W29626  30.807   1.031  10.379
57312W        W29627  40.770  24.415   4.656
57313W        W29628  41.105   8.472   2.298
57314W        W29629  10.858   4.834  10.706
57315W        W29630   6.676  11.070  13.675
57316W        W29631  21.028   3.401  11.138
57317W        W29632   9.276  22.344   3.790
57318W        W29633  41.018  26.120   3.818
57319W        W29634  13.102  14.054  11.220
57320W        W29635   8.463   8.209  12.192
57321W        W29636   9.360  31.633  11.555
57322W        W29637   4.904   6.976   0.386
57323W        W29638   6.958  37.523  13.324
57324W        W29639  25.256  31.180  14.293
57325W        W29640   9.933  29.892  14.892
57326W        W29641  24.127  13.347   3.601
57327W        W29642  24.981  43.819  13.060
57328W        W29643  24.755  34.919  13.810
57329W        W29644  41.355  42.943   0.348
57330W        W29645  36.593  42.511  14.206
57331W        W29646   7.315  23.167   0.304
57332W        W29647  16.875   2.499   4.186
57333W        W29648  28.223  36.008   4.726
57334W        W29649  39.250  34.646   1.830
57335W        W29650  17.937  30.119  13.412
57336W        W29651  20.711  35.668  13.893
57337W        W29652  22.062  37.292  10.141
57338W        W29653  42.796  29.237   3.284
57339W        W29654   9.712  37.115   3.130
57340W        W29655  21.556  21.448   0.238
57341W        W29656  38.604  44.535  11.041
57342W        W29657  41.844   6.407  10.902
57343W        W29658  22.049  15.412  12.422
57344W        W29659  37.410   4.250   3.112
57345W        W29660  10.765  15.377   2.470
57346W        W29661  44.852   1.137   4.611
57347W        W29662   1.820  16.123   1.416
57348W        W29663  21.564  33.725   2.307
57349W        W29664  37.576  28.167   0.221
57350W        W29665  44.845  17.389  10.167
57351W        W29666  31.757  43.746  14.900
57352W        W29667  16.072  15.480   3.738
57353W        W29668   4.706  17.908   1.772
57354W        W29669   4.480   4.673  11.142
57355W        W29670  24.103  34.894  11.075
57356W        W29671  25.589  15.152   4.827
57357W        W29672  20.660  22.676  11.172
57358W        W29673  16.663  26.034   1.429
57359W        W29674  38.132  23.240   3.653
57360W        W29675  31.044  29.344   3.911
57361W        W29676   3.210  41.493  10.677
57362W        W29677  29.441  27.167  14.556
57363W        W29678  23.504  41.741   2.248
57364W        W29679  32.957  39.223  13.984
57365W        W29680  21.905  24.454   4.730
57366W        W29681   8.741  17.250  10.787
57367W        W29682  39.995  33.896   3.739
57368W        W29683  24.519  37.502   2.554
57369W        W29684  25.656   0.836   4.823
57370W        W29685  19.087  12.776  11.927
57371W        W29686  12.794  41.716  11.915
57372W        W29687   8.703   8.702   1.363
57373W        W29688  17.815  18.147  11.585
57374W        W29689  44.507   8.401   2.283
57375W        W29690  19.169   5.314   2.721
57376W        W29691  42.765   3.382  12.436
57377W        W29692  25.171  25.628  13.734
57378W        W29693  33.053  25.439   0.527
57379W        W29694  11.881  10.696  12.385
57380W        W29695  21.950  38.741   0.745
57381W        W29696  15.916  27.143  13.378
57382W        W29697  31.703  20.784  11.665
57383W        W29698  41.152  36.880   0.960
57384W        W29699   2.171  24.502   3.393
57385W        W29700  38.324  13.330  14.915
57386W        W29701  38.959  38.300   4.115
57387W        W29702   5.647   0.906  12.470
57388W        W29703  20.238   4.178   2.658
57389W        W29704  34.572  18.267   2.293
57390W        W29705  41.027   2.787   2.220
57391W        W29706   1.848  23.706   0.283
57392W        W29707  22.621  22.032   5.487
57393W        W29708   4.965   4.383   2.190
57394W        W29709  33.619  16.525   4.618
57395W        W29710  14.467  38.852  12.431
57396W        W29711   0.351  29.847   3.088
57397W        W29712   5.431  18.830  13.299
57398W        W29713  11.452   2.837  11.939
57399W        W29714  25.842  27.988  10.670
57400W        W29715  40.763  19.330   1.310
57401W        W29716   9.661  36.654  13.529
57402W        W29717   7.721  40.224  12.792
57403W        W29718  11.626  35.214  14.936
57404W        W29719  43.009   8.340  12.620
57405W        W29720  32.394   8.481  11.163
57406W        W29721  20.484  28.927  10.465
57407W        W29722  26.783  31.689  10.147
57408W        W29723  38.290  32.387  10.579
57409W        W29724   2.838  43.747   0.689
57410W        W29725   0.369  30.142  10.868
57411W        W29726   5.139  10.903  11.635
57412W        W29727   8.681  22.644   4.210
57413W        W29728  23.455  13.649   3.658
57414W        W29729  36.991  17.782  13.862
57415W        W29730  23.162  31.508  11.002
57416W        W29731   6.299   7.141  11.077
57417W        W29732   3.928  12.806   3.956
57418W        W29733  19.172  13.241  11.681
57419W        W29734   8.184  22.836  13.482
57420W        W29735   1.392   7.277  11.467
57421W        W29736  23.468  11.636  13.982
57422W        W29737   7.409   1.178  13.933
57423W        W29738  38.074  25.006  13.482
57424W        W29739  10.869  16.336  14.375
57425W        W29740  22.291  14.139   3.311
57426W        W29741  17.113   9.301   5.004
57427W        W29742   6.811  25.071  10.583
57428W        W29743  18.047  25.265   1.806
57429W        W29744  25.522  10.139   2.213
57430W        W29745  39.109  21.296   4.207
57431W        W29746  10.872  26.266  14.437
57432W        W29747  28.079   8.846  12.198
57433W        W29748   4.742  26.486   4.184
57434W        W29749  20.419   7.219   5.099
57435W        W29750   3.866  19.541  10.071
57436W        W29751  24.225   0.759  13.519
57437W        W29752  16.702   2.074   2.333
57438W        W29753  34.867  32.130   4.126
57439W        W29754   6.152   5.452   2.757
57440W        W29755  24.681  34.958  12.899
57441W        W29756  23.807  17.788   4.183
57442W        W29757  34.591  29.968  14.008
57443W        W29758  38.809  37.960   0.441
57444W        W29759  10.761   3.362   0.260
57445W        W29760   9.806  43.328  11.208
57446W        W29761   1.476  42.219   3.182
57447W        W29762  34.503  43.952   4.790
57448W        W29763  21.890  42.460  13.802
57449W        W29764  15.759  43.299  14.301
57450W        W29765  43.732   6.459   0.559
57451W        W29766  19.840  12.685   3.934
57452W        W29767  34.324  27.571   1.345
57453W        W29768  34.099   0.789   2.335
57454W        W29769  12.247  21.418   1.911
57455W        W29770  12.911  25.110   0.505
57456W        W29771  11.789  30.688  10.155
57457W        W29772  20.998  37.962  14.607
57458W        W29773   5.779  15.818   0.395
57459W        W29774  35.990  20.911   2.318
57460W        W29775  35.744  18.730  10.734
57461W        W29776  33.748  23.518  13.136
57462W        W29777  18.317   5.032   3.224
57463W        W29778  27.984  32.163  12.381
57464W        W29779  16.150  36.062  13.846
57465W        W29780   1.333   0.754   2.395
57466W        W29781  23.517  42.398   1.095
57467W        W29782  12.673  38.553   4.663
57468W        W29783  41.013  19.743   0.396
57469W        W29784  18.187   9.403  12.220
57470W        W29785  40.427  14.858  12.722
57471W        W29786  12.585  18.487   0.720
57472W        W29787   0.218  32.566   4.191
57473W        W29788   0.784  32.717  10.570
57474W        W29789  36.534  23.989   3.480
57475W        W29790   4.823  14.725   0.714
57476W        W29791  21.556  25.711  11.536
57477W        W29792  26.416  20.768  13.173
57478W        W29793  33.171  42.395   3.400
57479W        W29794  32.492  28.654   2.353
57480W        W29795   0.783  13.178   3.808
57481W        W29796  29.745  44.904  10.860
57482W        W29797  27.038  19.682   0.656
57483W        W29798  10.714  11.043   1.281
57484W        W29799  32.061   8.234  10.823
57485W        W29800   8.646   5.097  11.146
57486W        W29801  43.013  26.156  12.519
57487W        W29802  33.544  10.205  13.091
57488W        W29803  13.388  40.078   3.218
57489W        W29804   6.295  29.913  10.688
57490W        W29805   8.181   5.317  14.348
57491W        W29806  11.844  33.847  14.507
57492W        W29807   2.580  12.975   4.063
57493W        W29808  10.387  22.754   0.336
57494W        W29809  29.154  39.575   1.926
57495W        W29810  32.140  33.497  11.417
57496W        W29811  41.325  37.699  14.964
57497W        W29812  39.839  43.014   3.767
57498W        W29813  39.451   5.191  10.575
57499W        W29814  34.424  20.229   0.502
57500W        W29815  20.539   0.877  11.577
57501W        W29816   5.370   1.428   0.683
57502W        W29817  14.869   4.906   3.637
57503W        W29818  40.127   2.883   1.215
57504W        W29819  37.543  31.536  13.476
57505W        W29820   0.389  15.447   4.270
57506W        W29821  14.463  15.105   4.678
57507W        W29822  10.107  26.013   0.244
57508W        W29823  31.523  20.078   2.889
57509W        W29824  15.253   8.050   2.124
57510W        W29825  28.629  33.925   3.130
57511W        W29826   3.348  21.211   1.254
57512W        W29827  21.634  15.208   4.361
57513W        W29828  18.196  41.957   4.158
57514W        W29829  17.923  34.846  13.850
57515W        W29830   2.499   1.329  13.098
57516W        W29831  14.863   1.278   3.350
57517W        W29832  11.366  37.834  11.262
57518W        W29833  36.055  44.842   2.670
57519W        W29834  13.823  31.072   1.380
57520W        W29835  20.562  14.470   1.698
57521W        W29836  21.073  20.066  14.679
57522W        W29837  21.804  44.380   1.900
57523W        W29838  40.514  16.738  12.069
57524W        W29839  42.330  37.240   1.646
57525W        W29840  44.930  23.564   1.296
57526W        W29841   7.254   2.166   1.140
57527W        W29842  31.406  27.970  13.099
57528W        W29843  10.408  26.998   1.158
57529W        W29844  21.351  40.030   1.888
57530W        W29845  15.382  12.271  14.879
57531W        W29846   6.267   2.629   2.410
57532W        W29847   0.843  19.020   2.403
57533W        W29848   8.901  30.013  11.126
57534W        W29849  12.570  10.924   3.730
57535W        W29850  12.765  32.436   0.983
57536W        W29851   4.703  25.005  11.096
57537W        W29852   1.218  23.224   3.615
57538W        W29853  33.876  20.108   2.077
57539W        W29854   3.433  19.540  12.932
57540W        W29855   8.121  12.205  12.885
57541W        W29856  41.303  27.668  10.728
57542W        W29857   7.316   5.119   1.382
57543W        W29858  22.260   5.778  14.997
57544W        W29859  33.448  16.547   1.382
57545W        W29860   0.755  31.172   4.721
57546W        W29861  20.571  17.282   3.186
57547W        W29862   2.529  11.139   3.075
57548W        W29863  25.744  31.729  13.574
57549W        W29864   3.904  23.560   4.582
57550W        W29865  17.607   4.667   3.906
57551W        W29866  15.863   6.697  11.371
57552W        W29867  31.874  38.977   4.175
57553W        W29868  10.715   6.423   2.427
57554W        W29869   6.995  31.362  11.626
57555W        W29870   0.782  28.016  14.767
57556W        W29871  22.818   6.408   3.485
57557W        W29872  33.671  26.380  13.362
57558W        W29873  37.560   1.763   1.585
57559W        W29874  16.102  38.033  13.790
57560W        W29875  34.132  23.748  10.885
57561W        W29876  25.502   0.827   3.812
57562W        W29877   8.452  42.481  10.758
57563W        W29878  41.518  14.738   3.290
57564W        W29879  20.086  31.086  12.737
57565W        W29880  22.569   1.699  14.844
57566W        W29881  25.973   2.971   1.313
57567W        W29882  27.614  36.968   0.716
57568W        W29883   6.448  25.971  12.449
57569W        W29884   0.541  34.177   0.600
57570W        W29885   6.520   2.158  12.443
57571W        W29886   9.892  14.583  12.443
57572W        W29887  17.718  19.581   0.382
57573W        W29888  36.484   0.395   4.315
57574W        W29889  36.178  11.841  10.763
57575W        W29890  32.402  23.005  12.046
57576W        W29891   3.495  32.021  11.436
57577W        W29892  18.912   4.458  10.362
57578W        W29893  42.618  34.958   1.648
57579W        W29894   4.783  31.322   3.658
57580W        W29895  32.419   5.126  12.020
57581W        W29896  15.286  24.760  13.876
57582W        W29897  25.021  43.791   4.702
57583W        W29898  39.138  11.559   0.716
57584W        W29899  22.940  41.933  13.385
57585W        W29900  13.708  23.529   0.760
57586W        W29901  28.920  36.487  14.228
57587W        W29902  38.874  17.912   3.385
57588W        W29903  12.996   6.228   2.874
57589W        W29904  30.126  13.168   0.157
57590W        W29905  27.465  11.707  10.962
57591W        W29906  37.439  42.063  14.988
57592W        W29907  15.364  12.570  13.034
57593W        W29908  33.644  25.005   1.302
57594W        W29909  27.769  44.056   4.317
57595W        W29910   2.759  41.462  10.981
57596W        W29911  15.487  39.362  10.153
57597W        W29912  34.477   5.350   3.253
57598W        W29913   9.417  21.341   1.832
57599W        W29914  23.053  16.764  11.585
57600W        W29915  28.355  23.696   0.011
57601W        W29916  21.657  37.020  10.478
57602W        W29917   5.929   2.802  12.141
57603W        W29918   5.475  26.148   3.673
57604W        W29919  14.395  23.553   2.836
57605W        W29920  37.976  34.361  11.896
57606W        W29921  19.560  15.641   5.050
57607W        W29922  31.543  34.868  14.841
57608W        W29923   5.985  43.070  13.034
57609W        W29924  20.490  28.470  11.859
57610W        W29925  39.047  32.041  10.716
57611W        W29926  17.751  33.562   4.867
57612W        W29927   5.157  33.427   2.819
57613W        W29928  39.419  28.393   0.815
57614W        W29929  17.284  22.019  11.948
57615W        W29930  14.814  37.075  14.338
57616W        W29931  37.384  36.458   0.863
57617W        W29932  26.135  41.509   3.378
57618W        W29933  44.360  15.218   2.146
57619W        W29934  31.069  22.238  13.589
57620W        W29935   8.161  11.726  10.842
57621W        W29936  24.659  44.232  11.722
57622W        W29937   2.344  29.937  14.822
57623W        W29938  10.815   3.701  14.151
57624W        W29939  26.738   2.855   4.544
57625W        W29940  32.389  39.162   0.922
57626W        W29941  21.552  42.134  14.020
57627W        W29942   9.809  11.809   1.841
57628W        W29943  37.048  28.108   4.611
57629W        W29944  28.170  29.513   2.326
57630W        W29945  38.845  17.645  14.342
57631W        W29946  15.710  34.113  14.002
57632W        W29947  21.126  35.621   1.434
57633W        W29948  22.507  26.819  14.585
57634W        W29949  36.855  34.143   0.163
57635W        W29950  30.718  42.498   2.454
57636W        W29951  40.175  39.922   1.455
57637W        W29952   1.771  18.180   4.556
57638W        W29953  21.699   1.711  13.574
57639W        W29954  24.281  36.140  11.610
57640W        W29955  13.418  35.672   0.435
57641W        W29956  40.627   1.381   1.325
57642W        W29957   4.851  24.758  11.530
57643W        W29958  23.254  42.871  11.915
57644W        W29959  30.948  10.415  11.984
57645W        W29960  27.880  16.119  13.998
57646W        W29961  21.194   2.047  12.022
57647W        W29962  38.524  32.986   0.755
57648W        W29963  42.253  44.504   3.219
57649W        W29964  35.094  33.559  11.158
57650W        W29965  43.084  16.989   2.299
57651W        W29966  17.554  30.649   0.748
57652W        W29967   7.759  24.400   0.795
57653W        W29968  31.669   9.717  13.448
57654W        W29969  29.658  40.544  11.169
57655W        W29970  16.802   3.181  14.049
57656W        W29971  11.736  34.194   0.813
57657W        W29972  26.605  31.469   5.233
57658W        W29973  20.615  43.262  12.453
57659W        W29974  29.562  37.950  12.365
57660W        W29975  26.482  36.346  11.697
57661W        W29976  15.283  27.723   3.116
57662W        W29977   2.845  41.861  14.165
57663W        W29978   2.446  31.961  13.041
57664W        W29979  15.781   5.121  11.920
57665W        W29980  37.500  23.074  14.651
57666W        W29981  12.706  13.312   3.779
57667W        W29982  31.681  19.556   2.203
57668W        W29983  20.572  10.216   3.878
57669W        W29984  37.979  22.068  10.691
57670W        W29985  39.870  27.535   4.726
57671W        W29986  29.448   5.640  11.452
57672W        W29987   9.815  35.215  10.988
57673W        W29988  16.706  40.875   5.193
57674W        W29989  28.983   3.750   1.892
57675W        W29990  10.383   5.740  10.775
57676W        W29991  33.922  11.029  13.064
57677W        W29992  43.521  40.777   0.864
57678W        W29993  14.499  24.083   4.493
57679W        W29994  37.439   4.263  14.211
57680W        W29995  18.820  32.974  11.983
57681W        W29996  26.673  25.956   3.896
57682W        W29997  15.321   3.704  10.613
57683W        W29998  31.148  44.532  14.266
57684W        W29999  41.387  32.617   3.638
57685W        W30000  13.529  11.910   4.171
57686W        W30001  27.375  26.340  12.889
57687W        W30002  15.072  37.337   1.937
57688W        W30003   4.501  34.733   2.984
57689W        W30004  32.679  17.619   4.768
57690W        W30005  43.734  15.106  11.359
57691W        W30006  19.104  22.001   0.918
57692W        W30007   4.320  13.245  11.604
57693W        W30008  44.900   0.670   3.266
57694W        W30009  21.623  40.399  11.423
57695W        W30010   1.438   7.936  14.036
57696W        W30011  44.326  26.407   3.334
57697W        W30012  12.344  37.913   3.151
57698W        W30013  43.797  41.295  14.965
57699W        W30014   5.258  14.602  13.569
57700W        W30015  15.254  37.290   3.198
57701W        W30016  24.170  15.950   1.374
57702W        W30017  36.825  37.663   1.302
57703W        W30018  32.431  44.228   0.916
57704W        W30019  43.875  10.950  10.618
57705W        W30020   9.236   9.660   0.390
57706W        W30021  39.701  36.567   4.127
57707W        W30022   5.646  18.283  11.261
57708W        W30023   9.420  37.904   4.621
57709W        W30024  37.869  32.591   2.843
57710W        W30025   2.825  22.137  13.383
57711W        W30026  14.247  15.245  14.840
57712W        W30027  30.106  36.407   4.880
57713W        W30028  43.482  14.593  11.173
57714W        W30029  20.563   7.830   4.119
57715W        W30030  24.103  18.674  12.559
57716W        W30031  23.247   9.090  13.392
57717W        W30032  44.482  11.780   5.275
57718W        W30033  23.439  10.254  13.266
57719W        W30034  34.216   6.873   3.585
57720W        W30035   1.016   9.117  11.086
57721W        W30036  44.645  32.676  11.141
57722W        W30037  43.260  22.116   1.314
57723W        W30038  43.959  24.293   4.662
57724W        W30039  26.193  13.056  12.946
57725W        W30040  23.973  38.025  12.466
57726W        W30041   1.839  23.425  14.283
57727W        W30042  27.720  33.014  10.686
57728W        W30043  11.873  40.274  11.658
57729W        W30044  43.327  34.454  11.564
57730W        W30045   4.854  14.738   3.291
57731W        W30046  37.500  14.648   4.631
57732W        W30047  10.406  38.552   4.741
57733W        W30048  28.542   0.995   3.209
57734W        W30049  21.095   4.956  10.608
57735W        W30050  21.648  16.160   2.361
57736W        W30051   8.817  39.643  12.954
57737W        W30052  43.493   1.345  11.910
57738W        W30053   9.212  26.606  13.095
57739W        W30054   7.643  17.044   1.341
57740W        W30055   0.997  29.194   1.511
57741W        W30056   2.793  11.350  12.545
57742W        W30057  35.103  26.542   1.803
57743W        W30058   6.672  18.674  14.842
57744W        W30059  43.978  25.405  11.189
57745W        W30060  43.490  34.484  12.176
57746W        W30061  34.513  13.087   3.239
57747W        W30062  24.281  24.746  13.056
57748W        W30063  43.186   4.658   4.867
57749W        W30064   4.913  12.576   0.316
57750W        W30065   8.846  33.698  12.434
57751W        W30066  32.791  30.092   4.823
57752W        W30067  15.822   2.342   1.172
57753W        W30068  28.972  34.444  11.595
57754W        W30069  26.022  39.114   2.401
57755W        W30070  14.711   9.855  14.910
57756W        W30071  29.942  21.028  11.638
57757W        W30072  36.451   2.702  13.454
57758W        W30073  43.750   6.788  13.805
57759W        W30074  31.567  43.345   2.764
57760W        W30075  42.901  18.149  14.482
57761W        W30076  25.907  21.765  12.335
57762W        W30077  32.169  22.540   1.718
57763W        W30078  29.128  16.135  10.768
57764W        W30079   7.826  14.238  14.682
57765W        W30080  26.531  41.886   2.236
57766W        W30081  41.276  39.883   2.046
57767W        W30082  16.571  30.866   2.161
57768W        W30083  31.422  23.621   0.256
57769W        W30084  28.506  23.491   2.130
57770W        W30085  17.694  31.520  14.694
57771W        W30086   3.701  44.718  11.742
57772W        W30087  35.951  10.080   0.430
57773W        W30088  39.194  19.797   1.407
57774W        W30089  27.980  27.664   3.188
57775W        W30090   5.960  28.410  13.646
57776W        W30091  12.053  41.749  11.582
57777W        W30092  15.283  11.169   2.251
57778W        W30093  40.499  10.673  12.637
57779W        W30094   3.968   1.724  14.996
57780W        W30095   5.752   6.001  10.329
57781W        W30096  25.736   9.922  14.528
57782W        W30097  41.504  31.973  13.588
57783W        W30098  30.842   6.193   3.153
57784W        W30099  15.334  15.318  14.885
57785W        W30100  20.584  21.126   2.978
57786W        W30101   3.386  14.635  10.502
57787W        W30102  26.038  14.595  14.883
57788W        W30103  18.308  26.163  11.953
57789W        W30104   1.417  39.430  10.528
57790W        W30105  10.473  16.666   2.732
57791W        W30106  44.528  28.280   0.167
57792W        W30107  21.978  39.230   0.911
57793W        W30108  16.646   1.068  12.322
57794W        W30109  10.344  20.977   4.530
57795W        W30110   2.259  25.957   4.665
57796W        W30111  19.716   8.969  12.865
57797W        W30112   1.978  30.088  13.348
57798W        W30113  29.078  42.980   5.129
57799W        W30114  42.470  10.616  14.903
57800W        W30115  17.632  27.550  12.372
57801W        W30116  40.071  25.709   0.561
57802W        W30117   5.545  12.858  10.491
57803W        W30118  11.602  13.089  11.973
57804W        W30119  26.513   2.726   3.102
57805W        W30120  28.075  31.069   9.649
57806W        W30121  29.042  21.492   3.589
57807W        W30122  26.247   1.479  12.536
57808W        W30123  43.972  16.752  11.162
57809W        W30124  16.611  33.546   0.805
57810W        W30125   2.434   7.254  11.612
57811W        W30126  25.045  12.336   3.034
57812W        W30127  41.789  26.961  13.122
57813W        W30128   8.992  13.700  14.522
57814W        W30129  18.565  23.202  12.727
57815W        W30130  33.486  38.877  10.893
57816W        W30131  33.661  14.087   4.295
57817W        W30132   8.445  15.667  13.944
57818W        W30133  30.583  26.090  14.105
57819W        W30134  17.985   1.754  12.554
57820W        W30135  22.773  13.369  10.679
57821W        W30136  14.667  43.344   1.304
57822W        W30137  30.843   7.822  13.038
57823W        W30138  26.637   7.460  10.588
57824W        W30139  22.196  17.395  13.566
57825W        W30140   7.693  11.234   3.437
57826W        W30141  21.232   1.334  11.364
57827W        W30142  10.780  39.187  14.956
57828W        W30143  20.742   4.921   3.136
57829W        W30144  21.036  40.521   4.547
57830W        W30145  15.088   1.328  14.395
57831W        W30146  25.094   9.792  10.407
57832W        W30147  14.123   0.422   2.979
57833W        W30148  20.105  22.267   1.384
57834W        W30149   3.771  18.588  13.813
57835W        W30150  16.607  44.801   1.898
57836W        W30151   6.084  11.246   2.692
57837W        W30152   1.747  17.770   4.166
57838W        W30153  37.339  26.276   0.323
57839W        W30154  44.334  44.786  11.887
57840W        W30155  36.368  10.902  13.263
57841W        W30156  30.949   1.131  12.534
57842W        W30157  31.005  24.474  12.947
57843W        W30158  19.272  18.042  12.547
57844W        W30159   3.311  26.217   5.014
57845W        W30160  19.396  10.909   0.311
57846W        W30161  35.995  15.905  14.628
57847W        W30162  38.109  10.385  13.116
57848W        W30163   6.937  18.837  14.399
57849W        W30164   0.703  39.495   3.821
57850W        W30165   4.825  11.084  12.446
57851W        W30166   0.030  42.515  11.156
57852W        W30167  33.855   9.248   2.731
57853W        W30168  21.201   7.765  12.402
57854W        W30169   4.710  18.642   3.727
57855W        W30170  14.689   6.261  13.313
57856W        W30171  36.379  10.728  13.761
57857W        W30172  25.063  32.329  11.184
57858W        W30173   4.336  23.572  14.306
57859W        W30174  41.577  42.611   2.705
57860W        W30175  18.252   1.970   4.202
57861W        W30176  40.270  33.107  11.149
57862W        W30177   5.022  13.991   2.745
57863W        W30178  43.735   4.743   1.906
57864W        W30179   8.112  11.104   4.416
57865W        W30180  25.761  15.366  11.173
57866W        W30181  18.869  18.838  14.920
57867W        W30182  25.325  31.531   3.672
57868W        W30183   2.783  27.523   4.320
57869W        W30184  17.800  31.869  12.109
57870W        W30185  44.321  27.106   0.662
57871W        W30186   2.665   6.946   2.440
57872W        W30187  33.563  35.893   3.225
57873W        W30188   6.415   1.218   1.793
57874W        W30189  17.125   1.861  12.556
57875W        W30190   9.159  43.017   2.234
57876W        W30191  31.842  20.141   0.035
57877W        W30192  22.518  36.380  12.637
57878W        W30193  18.756  33.491   3.721
57879W        W30194  26.384  20.159  10.590
57880W        W30195  44.038  42.480   0.954
57881W        W30196  16.035  17.677  13.439
57882W        W30197   7.999  21.806   0.838
57883W        W30198  27.924  43.888  10.733
57884W        W30199  12.660  37.182  14.011
57885W        W30200  20.255  11.331   4.982
57886W        W30201  24.495   1.023  11.076
57887W        W30202  17.508  11.243   1.675
57888W        W30203  18.115  40.301  10.231
57889W        W30204  36.547  19.033  13.102
57890W        W30205  44.768  42.058  12.075
57891W        W30206  10.542  28.310  14.768
57892W        W30207  15.040  44.213   4.138
57893W        W30208  44.420  22.098  10.716
57894W        W30209  27.015   2.953   1.380
57895W        W30210  44.699  31.997  12.712
57896W        W30211  25.079   6.720  12.947
57897W        W30212  27.236  37.946   3.781
57898W        W30213  17.074  42.299   0.948
57899W        W30214  44.544   2.550  11.104
57900W        W30215  34.524  28.027   1.024
57901W        W30216  39.828  33.536   2.849
57902W        W30217  30.468  12.363  12.729
57903W        W30218  25.480  34.457  10.947
57904W        W30219  32.420   3.567   4.616
57905W        W30220  15.988  44.676   4.664
57906W        W30221  24.988  12.754  13.309
57907W        W30222  20.599  31.503  13.741
57908W        W30223  14.861  37.014   0.233
57909W        W30224  11.159   1.419  12.541
57910W        W30225  34.141  21.631   4.267
57911W        W30226   9.797   0.904  13.915
57912W        W30227  11.088  39.915   2.741
57913W        W30228   5.396  22.128   4.464
57914W        W30229  25.070  39.770   3.803
57915W        W30230  27.433  16.641   0.011
57916W        W30231  37.731   6.158   0.356
57917W        W30232  44.351  41.870   1.414
57918W        W30233  25.112  43.482  14.874
57919W        W30234  23.624  32.168  11.109
57920W        W30235  18.769  18.153   0.381
57921W        W30236  31.060  11.469   4.696
57922W        W30237  29.086  26.019  13.885
57923W        W30238  37.579  31.346   0.829
57924W        W30239   8.902  31.904   3.606
57925W        W30240  26.049   3.251  14.372
57926W        W30241  37.700  40.598  12.024
57927W        W30242  22.501  32.703   1.060
57928W        W30243  19.681  11.636  11.939
57929W        W30244   3.970  31.666  12.925
57930W        W30245  41.453  20.701   3.613
57931W        W30246  19.201  12.420   1.349
57932W        W30247   7.662  38.017   2.240
57933W        W30248  18.927  31.994  14.405
57934W        W30249  13.286  30.264   9.925
57935W        W30250   0.242  40.790   3.199
57936W        W30251  33.261  27.988   3.956
57937W        W30252  35.939  34.596  14.793
57938W        W30253  26.129   6.864  13.801
57939W        W30254   1.955  42.158   2.960
57940W        W30255  20.511  14.796   2.985
57941W        W30256  41.501  42.724   4.181
57942W        W30257  40.108  43.114   4.185
57943W        W30258  10.700   6.136  10.852
57944W        W30259  33.612  18.023  13.035
57945W        W30260  25.334   5.451   4.750
57946W        W30261   1.369  41.501  12.029
57947W        W30262   7.885  36.869   1.901
57948W        W30263  34.458   8.411   4.846
57949W        W30264  39.721  17.702  11.605
57950W        W30265  39.372  43.883   3.585
57951W        W30266  41.755   1.243  14.016
57952W        W30267   5.858  41.128  12.565
57953W        W30268  15.187   0.855   3.322
57954W        W30269   1.284  20.275  12.191
57955W        W30270  29.620  34.664   3.632
57956W        W30271  44.671  35.095  12.052
57957W        W30272  16.748  14.323   3.707
57958W        W30273  17.318  19.696   1.682
57959W        W30274  12.838  19.295  11.537
57960W        W30275  17.750  16.545  12.430
57961W        W30276  25.312  24.126  10.463
57962W        W30277  17.712  38.931   9.952
57963W        W30278   1.875  33.925  10.542
57964W        W30279  44.881   2.956  10.947
57965W        W30280  23.747  25.564   3.352
57966W        W30281  15.089   3.241  10.726
57967W        W30282  43.447  41.222  13.885
57968W        W30283  28.426  27.817   3.368
57969W        W30284   9.251   3.391   2.309
57970W        W30285   3.521  34.336  14.416
57971W        W30286  41.779   0.280   4.095
57972W        W30287  19.285  16.376   4.379
57973W        W30288  34.371  29.555  11.502
57974W        W30289  20.638  27.521  10.914
57975W        W30290  36.488   8.589   1.923
57976W        W30291   4.051  29.312   3.663
57977W        W30292   7.599  10.053  12.373
57978W        W30293  29.032  41.956   0.843
57979W        W30294  19.996   5.347  13.116
57980W        W30295  33.021  37.869   4.440
57981W        W30296   9.133  29.540  12.316
57982W        W30297  17.798  20.996  11.349
57983W        W30298  10.456  35.072   2.806
57984W        W30299  26.297  15.759   0.235
57985W        W30300  34.492  27.012   3.879
57986W        W30301  19.824  25.275   4.262
57987W        W30302  42.751  20.555   4.281
57988W        W30303  25.659  12.612  14.487
57989W        W30304  35.420   2.329  10.639
57990W        W30305  35.156   8.355   2.720
57991W        W30306   9.648  18.455   4.674
57992W        W30307  10.915  38.893   0.363
57993W        W30308  39.243   5.964   2.437
57994W        W30309  10.133  18.703  13.920
57995W        W30310   6.733  17.920  12.236
57996W        W30311   7.347  13.605  11.190
57997W        W30312  12.574   5.346   1.083
57998W        W30313  31.964  16.582   3.156
57999W        W30314   8.567  11.184   3.203
58000W        W30315  12.718  34.144   2.371
58001W        W30316  43.654   1.345   0.352
58002W        W30317  24.581  22.188  12.192
58003W        W30318  29.600  23.166   1.083
58004W        W30319  17.126  27.657  12.526
58005W        W30320  25.686  21.818   2.874
58006W        W30321  33.688  43.261   3.219
58007W        W30322   3.871   0.225   0.347
58008W        W30323  28.496  25.153   1.449
58009W        W30324  37.572  42.382  11.601
58010W        W30325   0.443  15.104  13.592
58011W        W30326  33.175  19.733   0.042
58012W        W30327  26.794  41.505  12.775
58013W        W30328  15.634  28.349  12.459
58014W        W30329   2.427  15.109  12.558
58015W        W30330  20.624  37.510  10.213
58016W        W30331   1.574  13.518  12.081
58017W        W30332  18.987  34.868   2.752
58018W        W30333  10.556  15.591   0.414
58019W        W30334  37.934  35.411  14.813
58020W        W30335  34.581  32.122  13.713
58021W        W30336   9.828  42.803   4.362
58022W        W30337   4.254   3.752  11.170
58023W        W30338   9.820  30.674   1.895
58024W        W30339  24.731  40.918  13.672
58025W        W30340  24.646  20.611   4.277
58026W        W30341   3.820  40.365   2.673
58027W        W30342  40.026  10.732  12.383
58028W        W30343  37.674   7.209   3.640
58029W        W30344  26.475  12.096   4.260
58030W        W30345  11.300  16.120   4.999
58031W        W30346  29.529   6.207  12.563
58032W        W30347  28.405  22.928  13.066
58033W        W30348  36.850   9.595   3.754
58034W        W30349   0.542   8.954   1.295
58035W        W30350  18.308  17.276   1.637
58036W        W30351  10.282   6.910   4.631
58037W        W30352  24.063  40.024   0.835
58038W        W30353  38.772  41.941  13.929
58039W        W30354  26.324  40.430   3.530
58040W        W30355  27.434  22.597  14.408
58041W        W30356  32.471  12.665  10.603
58042W        W30357   3.013  38.977  11.130
58043W        W30358  12.063  15.190   4.193
58044W        W30359   2.850  33.426   1.969
58045W        W30360  38.710  30.133   1.291
58046W        W30361  27.594  22.853   1.786
58047W        W30362  29.191  37.356  10.533
58048W        W30363  14.029   0.434   4.899
58049W        W30364  32.808  37.390  14.818
58050W        W30365   9.090   7.863  14.980
58051W        W30366   7.940  22.178   1.237
58052W        W30367  26.018  20.063  14.913
58053W        W30368  25.272  36.080   4.694
58054W        W30369   4.967  30.909   2.785
58055W        W30370   2.343  27.263   1.225
58056W        W30371  28.492  39.421  11.971
58057W        W30372   2.484  30.449  12.101
58058W        W30373   6.147   4.730  12.018
58059W        W30374   3.820  26.630   0.974
58060W        W30375   0.361  31.068  10.354
58061W        W30376  20.152   4.702   0.397
58062W        W30377  21.327   5.401  14.284
58063W        W30378  20.323  27.659   0.386
58064W        W30379  13.838  11.198   3.946
58065W        W30380  17.259  23.068  14.265
58066W        W30381  17.329  41.489   4.525
58067W        W30382  40.772  35.757   5.191
58068W        W30383   4.317  43.917  13.563
58069W        W30384   8.149   4.946  12.792
58070W        W30385  29.116  29.874  11.614
58071W        W30386  36.971  14.794   3.832
58072W        W30387  43.753  33.503   4.595
58073W        W30388  15.213  36.985  11.576
58074W        W30389  31.025   4.538  13.215
58075W        W30390  40.524  21.061   0.777
58076W        W30391  38.412  14.279  12.925
58077W        W30392  32.615  41.895  13.597
58078W        W30393  29.521  32.704   0.342
58079W        W30394  21.795  28.115  12.807
58080W        W30395   8.523   8.140  13.516
58081W        W30396   4.649   6.387  14.519
58082W        W30397   4.738  29.375   4.123
58083W        W30398  39.372   8.788   4.024
58084W        W30399  27.424  29.926  14.045
58085W        W30400  12.818  20.955   2.108
58086W        W30401  21.203  21.191  13.760
58087W        W30402  15.725  39.611  11.574
58088W        W30403  26.980   1.459  12.971
58089W        W30404  18.292  15.355  13.210
58090W        W30405  40.774  37.335   2.195
58091W        W30406   0.829  33.441  13.633
58092W        W30407  16.744   6.005   1.312
58093W        W30408  42.815  15.195  10.939
58094W        W30409  15.704   8.879   2.391
58095W        W30410  11.790  30.428  12.890
58096W        W30411  20.161   9.959   2.758
58097W        W30412  26.556  10.132   0.223
58098W        W30413  16.459  35.914  12.895
58099W        W30414  16.354  26.664  14.311
58100W        W30415  23.080   4.727   3.636
58101W        W30416  24.746  23.263  11.594
58102W        W30417  15.567   7.405   4.099
58103W        W30418  11.620  43.302  14.060
58104W        W30419  21.097  39.996   4.513
58105W        W30420  11.605  20.489   2.414
58106W        W30421  10.184  15.063   4.982
58107W        W30422  40.448  15.100  14.953
58108W        W30423  35.955  32.813   1.587
58109W        W30424  37.164  36.580  11.991
58110W        W30425  19.679   9.408   1.806
58111W        W30426  12.036  24.967  13.718
58112W        W30427  42.241  18.064  12.884
58113W        W30428   4.712  24.093   2.354
58114W        W30429   9.353  34.519  11.875
58115W        W30430   6.866  30.883   0.812
58116W        W30431   3.238   4.759   2.025
58117W        W30432  40.863  28.222  13.951
58118W        W30433  37.560   1.768  11.609
58119W        W30434   5.241  38.421  10.683
58120W        W30435  16.467  25.533   4.110
58121W        W30436  39.164  25.950   3.677
58122W        W30437  38.976   6.731  10.702
58123W        W30438  13.120   2.973   4.560
58124W        W30439  24.496  16.723  11.987
58125W        W30440   1.213  10.918  12.060
58126W        W30441  43.917  43.795   3.219
58127W        W30442  31.897  29.605   1.940
58128W        W30443   2.493  19.285  10.812
58129W        W30444  23.177   3.677  11.207
58130W        W30445  14.008  25.042  12.467
58131W        W30446   1.733  21.860   0.033
58132W        W30447  37.601  11.828   3.326
58133W        W30448  44.412  20.695  13.409
58134W        W30449  19.014  44.310   0.449
58135W        W30450   1.999   3.515  12.927
58136W        W30451   4.779  25.437   0.982
58137W        W30452  16.703  16.095   4.157
58138W        W30453  29.409  28.650   1.413
58139W        W30454  30.432  33.111  11.064
58140W        W30455  33.524  18.307  12.057
58141W        W30456  32.442  10.303  11.697
58142W        W30457  39.049  28.225   2.007
58143W        W30458   4.573  13.163   2.720
58144W        W30459  36.259   7.876   1.383
58145W        W30460  30.375  14.735  10.804
58146W        W30461  23.115  36.882   2.342
58147W        W30462  27.081   6.782   5.265
58148W        W30463  22.779  43.065   0.206
58149W        W30464   8.799   4.199   0.475
58150W        W30465   6.278  35.154  13.450
58151W        W30466  26.457  44.297   4.193
58152W        W30467  23.280  41.519  13.382
58153W        W30468  29.261  31.952   2.793
58154W        W30469   9.678  33.223   1.153
58155W        W30470  30.248  16.589  14.579
58156W        W30471  24.998  20.137  14.531
58157W        W30472  31.481  17.282   1.794
58158W        W30473   3.426  30.082   2.930
58159W        W30474  40.746  23.992  10.551
58160W        W30475  32.203  36.522   1.341
58161W        W30476   2.206   6.920   2.679
58162W        W30477  25.745   4.180  12.030
58163W        W30478  18.337  42.339  11.600
58164W        W30479   6.230  16.884  11.918
58165W        W30480   2.444  22.323   0.552
58166W        W30481  41.821  30.377   0.212
58167W        W30482  13.803  12.818  11.486
58168W        W30483  40.645   8.683  13.962
58169W        W30484  20.058  44.948  11.974
58170W        W30485  33.643  39.557  13.529
58171W        W30486  22.998  10.683   1.871
58172W        W30487  18.031  42.280  13.899
58173W        W30488  27.366  11.729   3.807
58174W        W30489  34.454  15.768  10.432
58175W        W30490  21.552  39.834  12.158
58176W        W30491  31.667   0.104   1.328
58177W        W30492  10.530   3.022   1.093
58178W        W30493  13.238  17.807  11.542
58179W        W30494  37.040  28.657   3.194
58180W        W30495  42.179  30.897   3.894
58181W        W30496   2.968   0.112   0.193
58182W        W30497  10.722  38.010  11.036
58183W        W30498  38.387  15.797  13.072
58184W        W30499   0.999  13.315  10.615
58185W        W30500  31.363  35.560   0.836
58186W        W30501  11.165  29.977  12.879
58187W        W30502  31.704  25.691   3.779
58188W        W30503  23.924  40.431   1.687
58189W        W30504   2.012  26.581   2.793
58190W        W30505  38.267  36.598  13.513
58191W        W30506  18.171  26.177  14.508
58192W        W30507   0.373  26.855   0.356
58193W        W30508  35.751  13.745   2.710
58194W        W30509  27.631   3.447  12.029
58195W        W30510  34.620  37.591  12.865
58196W        W30511  26.212   4.293   5.486
58197W        W30512   1.377  44.966  10.714
58198W        W30513  30.743  23.203  14.509
58199W        W30514  35.392  20.649   1.222
58200W        W30515  37.902  22.071   0.064
58201W        W30516  16.434  31.113   4.838
58202W        W30517  20.790  12.025   3.180
58203W        W30518  15.249   2.004  13.041
58204W        W30519  33.078  30.464   4.121
58205W        W30520  39.750  28.166   2.210
58206W        W30521  38.756  10.189   3.684
58207W        W30522  35.767   8.845  12.934
58208W        W30523  20.745  14.838  11.071
58209W        W30524  23.063  39.618   0.053
58210W        W30525  35.929   0.539   0.340
58211W        W30526  40.037  42.976  13.904
58212W        W30527  39.133   9.684   0.890
58213W        W30528  29.946  32.507   3.139
58214W        W30529  15.068   4.911  11.960
58215W        W30530   8.689  14.868  12.856
58216W        W30531   6.341  44.827   5.015
58217W        W30532  43.313  14.627   3.779
58218W        W30533  16.131  41.469   2.431
58219W        W30534  15.822  41.940  11.943
58220W        W30535  41.371   1.229  12.096
58221W        W30536  14.136  21.054   3.060
58222W        W30537  10.897  38.575   0.787
58223W        W30538  18.050  14.348   1.615
58224W        W30539  10.633  28.816  14.904
58225W        W30540   7.565  40.451   2.324
58226W        W30541  40.683   5.502  11.958
58227W        W30542  25.445   2.956   1.249
58228W        W30543  34.639  28.797  10.728
58229W        W30544   2.347   6.838  11.926
58230W        W30545  22.597   5.695  13.842
58231W        W30546  26.621   2.373  12.442
58232W        W30547  35.320   6.091   1.910
58233W        W30548   9.910   5.603  11.152
58234W        W30549  20.766  14.413   0.995
58235W        W30550  24.661  33.526  11.628
58236W        W30551   4.952  44.821   2.448
58237W        W30552   8.136   2.596  13.203
58238W        W30553  41.039  12.833  11.020
58239W        W30554  36.561  11.268  11.799
58240W        W30555  30.374   5.776   4.267
58241W        W30556  34.475  38.325  12.154
58242W        W30557  23.556  17.305   2.225
58243W        W30558  37.634  29.650  14.308
58244W        W30559   9.730  13.785  11.967
58245W        W30560  27.548  41.820   4.090
58246W        W30561   4.907  11.114   4.637
58247W        W30562  44.386  28.196   2.804
58248W        W30563   1.893  29.708  12.955
58249W        W30564  16.197   9.183   4.740
58250W        W30565  31.674  13.345  11.060
58251W        W30566  11.238   4.545   3.340
58252W        W30567  35.875  24.176  12.466
58253W        W30568  39.297  39.013  14.628
58254W        W30569   8.846  18.279   0.263
58255W        W30570  40.742  14.822   3.345
58256W        W30571  21.025   6.207  13.052
58257W        W30572  25.669   7.760  13.573
58258W        W30573  26.725  40.476  10.830
58259W        W30574  15.430  41.864   2.260
58260W        W30575  32.335   7.813  10.633
58261W        W30576  26.506  26.259  12.953
58262W        W30577  37.537  18.338  11.804
58263W        W30578   2.750   2.765  14.344
58264W        W30579  13.591  30.368  10.839
58265W        W30580  35.113   5.960   5.101
58266W        W30581  33.998   8.793  11.588
58267W        W30582  41.627  14.696   4.180
58268W        W30583   1.216  20.332  13.551
58269W        W30584  39.975   7.703  12.363
58270W        W30585   5.088  31.578  14.493
58271W        W30586  32.563   3.678   0.999
58272W        W30587  13.164  15.238   4.783
58273W        W30588  37.888  14.614   3.823
58274W        W30589  24.921  11.642   0.872
58275W        W30590  44.427  34.923   3.546
58276W        W30591  11.663  15.230  10.766
58277W        W30592  26.526  22.040   2.437
58278W        W30593   7.339  23.399   2.843
58279W        W30594   4.153  32.420   1.924
58280W        W30595  24.165  37.907  13.856
58281W        W30596  25.054  31.956  13.911
58282W        W30597   2.857   7.401   2.319
58283W        W30598  36.586  37.483   3.218
58284W        W30599   8.686  12.229  13.655
58285W        W30600  18.547  14.601   1.660
58286W        W30601  12.834  21.557  14.011
58287W        W30602  33.262   4.089   0.617
58288W        W30603  18.268   1.471  13.918
58289W        W30604   8.281  17.027   4.569
58290W        W30605  42.737   6.796  13.758
58291W        W30606   4.267  18.167   4.909
58292W        W30607  19.386  33.036   4.663
58293W        W30608  38.029  18.522  10.616
58294W        W30609  28.118   8.256  13.840
58295W        W30610  23.107   8.248   0.538
58296W        W30611  26.250   8.992   4.758
58297W        W30612  34.779  14.739  13.333
58298W        W30613  20.750  27.188   0.781
58299W        W30614   4.917  41.374  12.589
58300W        W30615  39.290  22.225  12.109
58301W        W30616  10.555  26.004   2.839
58302W        W30617  11.870  26.190  14.340
58303W        W30618  42.754   7.646   0.472
58304W        W30619  29.105  27.926   1.592
58305W        W30620  40.834  24.920  11.975
58306W        W30621  39.311  27.731  12.051
58307W        W30622  14.621  35.104   2.260
58308W        W30623  26.020  37.873   4.737
58309W        W30624  27.569  22.974  13.383
58310W        W30625   7.462  12.755  12.684
58311W        W30626  42.324  35.672   0.480
58312W        W30627  44.926   7.713   3.106
58313W        W30628  25.951   7.188  11.409
58314W        W30629  40.062   9.104   2.364
58315W        W30630  32.572  10.623   0.491
58316W        W30631  11.099   7.762  14.709
58317W        W30632  16.862   2.923  14.509
58318W        W30633  21.118  30.005  11.403
58319W        W30634   1.365  37.518  10.043
58320W        W30635  20.535   3.303   0.077
58321W        W30636  29.250  30.896  10.597
58322W        W30637   3.287  13.089   3.595
58323W        W30638  12.574   9.128   3.213
58324W        W30639  40.681  19.732  11.467
58325W        W30640  36.337  19.463   0.259
58326W        W30641  37.428  27.620  12.666
58327W        W30642  19.533  18.146   2.828
58328W        W30643  23.116  42.262  11.687
58329W        W30644  34.924  25.012   4.669
58330W        W30645  41.377  12.860  11.604
58331W        W30646  31.204  21.293  13.805
58332W        W30647   9.652   0.325  14.094
58333W        W30648  10.482  40.718   0.897
58334W        W30649   0.727   6.211   0.298
58335W        W30650  32.629  44.506   3.209
58336W        W30651  18.024  25.189  12.071
58337W        W30652  29.862   5.396   4.590
58338W        W30653  20.231  42.497  12.761
58339W        W30654   1.859  11.520   4.882
58340W        W30655  34.366  27.055  12.800
58341W        W30656  43.797  13.276   2.312
58342W        W30657   9.285   0.426  12.844
58343W        W30658  14.084   7.426   1.793
58344W        W30659  31.611  31.694   4.296
58345W        W30660   1.288   3.741   2.220
58346W        W30661   4.151  35.928   1.724
58347W        W30662  29.555  36.338  12.000
58348W        W30663  14.650  27.744  11.105
58349W        W30664  44.247  30.737  14.844
58350W        W30665   3.533  42.029  13.392
58351W        W30666  20.641  34.114   1.408
58352W        W30667  44.310  36.500  11.069
58353W        W30668  30.692   9.446  13.239
58354W        W30669  40.369  12.876  13.481
58355W        W30670  11.801   7.159   2.780
58356W        W30671  28.758  35.574   4.155
58357W        W30672  28.663  28.444   0.943
58358W        W30673  26.531  29.026   0.295
58359W        W30674   1.273  44.040  13.428
58360W        W30675  40.865   1.414   3.329
58361W        W30676  31.883  34.057   1.194
58362W        W30677  33.469  27.371   0.194
58363W        W30678  20.650  43.541   2.682
58364W        W30679   9.549  23.521  14.405
58365W        W30680  33.653  13.281   3.374
58366W        W30681  25.231  15.351  12.916
58367W        W30682   1.351  23.503  11.073
58368W        W30683  34.954  19.728   4.998
58369W        W30684  32.961  34.042   2.889
58370W        W30685  37.316   8.381   1.051
58371W        W30686  15.648  11.430  12.042
58372W        W30687  34.103   0.916   0.390
58373W        W30688  15.666  37.876   0.883
58374W        W30689   2.810  10.602   4.678
58375W        W30690  36.805  34.495   3.319
58376W        W30691  14.714  23.670   1.514
58377W        W30692   6.180   9.044  13.305
58378W        W30693  33.821  19.189   0.499
58379W        W30694  18.054  17.192  13.051
58380W        W30695  13.715  36.291   4.269
58381W        W30696   0.169  14.993   4.178
58382W        W30697  20.503  39.317  10.418
58383W        W30698  11.634  19.676  13.380
58384W        W30699   0.396  27.446  10.425
58385W        W30700  39.558  13.243   1.328
58386W        W30701  43.406  25.256  14.250
58387W        W30702  20.068  35.655  10.682
58388W        W30703  13.038  26.422  11.182
58389W        W30704  35.775   4.710   0.642
58390W        W30705  44.756  22.047   1.416
58391W        W30706   7.661   7.659  12.638
58392W        W30707   8.197   7.321   1.317
58393W        W30708  12.833  37.547   1.056
58394W        W30709  44.881  41.700  13.947
58395W        W30710  20.725  32.831   2.207
58396W        W30711   5.766  43.006   0.217
58397W        W30712  10.580  35.035  10.605
58398W        W30713  20.885  33.524  13.384
58399W        W30714   0.258  27.973  10.429
58400W        W30715  19.665  16.881   2.267
58401W        W30716  15.043  17.292  13.092
58402W        W30717  12.731  31.438   4.148
58403W        W30718  23.679  40.933   5.048
58404W        W30719  43.033  37.128  13.921
58405W        W30720  41.311  40.353   1.834
58406W        W30721  35.102  39.637   4.157
58407W        W30722  28.917  10.211   4.438
58408W        W30723  44.750  31.881  14.449
58409W        W30724  20.450  33.292  13.045
58410W        W30725  18.304  16.334   4.459
58411W        W30726  22.506  18.179  14.357
58412W        W30727   0.699  12.223  12.592
58413W        W30728  15.072  41.340  12.833
58414W        W30729   6.342  13.740  11.362
58415W        W30730   6.092  14.596   0.800
58416W        W30731  19.335   4.278  12.497
58417W        W30732   0.171  35.950  12.822
58418W        W30733  17.803  36.091   0.748
58419W        W30734  44.808  43.026  10.547
58420W        W30735   0.837  33.578  10.224
58421W        W30736  43.500   3.934  10.697
58422W        W30737   5.918  41.888  11.705
58423W        W30738  39.185  19.477  10.587
58424W        W30739  33.483  19.667  10.709
58425W        W30740  29.753  15.643  13.930
58426W        W30741  41.258  36.837  11.582
58427W        W30742  18.157  32.168  13.754
58428W        W30743  32.372  12.090  14.462
58429W        W30744  30.190  31.136   3.116
58430W        W30745  44.896   3.432   2.253
58431W        W30746  34.966   1.135  14.772
58432W        W30747   1.878  13.192  11.377
58433W        W30748  33.347   9.289   2.697
58434W        W30749  18.471   2.375  14.804
58435W        W30750  33.123  23.504   4.085
58436W        W30751  15.330  20.580  13.280
58437W        W30752  40.123  43.737  14.319
58438W        W30753  21.487   4.354   2.878
58439W        W30754  10.729  24.232   3.720
58440W        W30755  36.609   0.961   2.988
58441W        W30756  14.526  25.132  12.586
58442W        W30757  13.105  42.578   1.879
58443W        W30758  43.826  11.923  12.293
58444W        W30759   1.729  20.762  11.015
58445W        W30760  39.896   8.761   4.128
58446W        W30761   0.418  13.284  14.244
58447W        W30762  40.848  24.477   1.323
58448W        W30763  38.548  38.364  14.896
58449W        W30764   6.288  10.281   3.607
58450W        W30765  28.639  23.871   0.419
58451W        W30766   9.410  43.923  10.091
58452W        W30767  15.846  39.586  14.584
58453W        W30768  29.669  14.265  12.449
58454W        W30769  18.874  24.982  14.670
58455W        W30770  11.656   5.318  10.460
58456W        W30771  18.091  36.825   2.216
58457W        W30772  43.445  20.268  11.613
58458W        W30773   3.760  26.276  14.059
58459W        W30774  16.824   2.278   1.660
58460W        W30775  16.067   6.284   1.775
58461W        W30776  19.713  19.056   0.025
58462W        W30777  13.679  36.795  10.810
58463W        W30778   7.446  10.066   1.312
58464W        W30779   9.912  15.698  13.652
58465W        W30780  32.185  36.928   1.683
58466W        W30781  25.897   1.356   1.755
58467W        W30782  24.311  41.929  10.628
58468W        W30783  18.910  15.761   3.813
58469W        W30784  44.808  29.300   4.964
58470W        W30785   7.687  26.527   1.738
58471W        W30786  26.527  23.735   4.598
58472W        W30787  34.459  19.774   4.792
58473W        W30788  23.050  13.365   0.869
58474W        W30789  33.485  19.480   1.209
58475W        W30790   0.676  34.911  13.767
58476W        W30791  27.359  31.618   5.063
58477W        W30792   6.468  17.322   2.126
58478W        W30793  26.193  20.699   1.937
58479W        W30794  38.040  43.095  11.146
58480W        W30795  35.795  19.118   2.555
58481W        W30796  39.076  10.395   1.709
58482W        W30797  41.055  27.570  12.083
58483W        W30798   4.713  42.909   1.928
58484W        W30799  12.786  18.494  10.239
58485W        W30800  15.276  29.099   3.048
58486W        W30801   6.428   7.943   3.753
58487W        W30802  17.287  34.775  13.181
58488W        W30803  11.819   5.447  10.934
58489W        W30804   4.296   3.042  12.638
58490W        W30805   2.314  40.109   3.205
58491W        W30806  28.348  31.155  14.954
58492W        W30807  23.274  21.890   2.793
58493W        W30808  22.204  20.669   2.127
58494W        W30809  15.841  30.066  10.678
58495W        W30810  43.809   0.364  11.991
58496W        W30811  16.728  16.141  14.726
58497W        W30812   5.726  16.523  14.125
58498W        W30813   2.099  41.831   1.075
58499W        W30814   2.378  21.591   1.678
58500W        W30815  42.788  21.068   4.930
58501W        W30816  42.266  33.149  13.051
58502W        W30817  31.850   4.237  12.005
58503W        W30818  43.427   2.209   3.823
58504W        W30819   6.460  19.517  12.039
58505W        W30820  41.687  20.680  10.740
58506W        W30821   6.611  31.444   3.849
58507W        W30822  26.826  27.975  14.895
58508W        W30823  44.583  17.622   3.467
58509W        W30824  14.072  25.964   0.277
58510W        W30825  19.271  27.683   1.279
58511W        W30826  39.860  15.715   0.726
58512W        W30827  36.394   0.866   1.238
58513W        W30828  15.438  35.425   4.210
58514W        W30829  35.100  34.646   0.433
58515W        W30830   4.651   2.142  13.514
58516W        W30831  19.574   0.961   3.087
58517W        W30832  36.387  33.891  14.499
58518W        W30833  24.036  37.435   1.184
58519W        W30834  23.814  25.915   2.266
58520W        W30835  20.616  12.270  11.410
58521W        W30836  21.233  42.982   2.810
58522W        W30837  18.286  28.925  13.417
58523W        W30838  21.689  18.674   9.961
58524W        W30839  27.920   1.423   0.301
58525W        W30840  32.608  11.294   3.680
58526W        W30841  27.413  23.398  14.962
58527W        W30842  37.340  43.001  14.742
58528W        W30843  41.089  27.448   0.294
58529W        W30844  41.986  17.611   3.220
58530W        W30845  27.114   4.934  13.784
58531W        W30846  37.092   0.448   3.271
58532W        W30847  31.133  35.381   4.236
58533W        W30848   7.492   9.961   2.321
58534W        W30849  21.671  14.370   2.758
58535W        W30850   7.499  26.400   2.444
58536W        W30851  40.863   7.160   3.150
58537W        W30852  30.885  26.431  11.109
58538W        W30853  32.312  19.198   3.747
58539W        W30854  20.070   0.176   3.077
58540W        W30855  24.736  17.057   1.395
58541W        W30856  18.621  22.195   0.987
58542W        W30857  25.987  11.593   4.605
58543W        W30858  20.437  17.153   4.816
58544W        W30859  22.265  42.865  13.830
58545W        W30860   8.365  18.793   2.743
58546W        W30861  38.838  44.199   1.093
58547W        W30862   9.286   0.979  11.671
58548W        W30863  42.615  44.282  11.610
58549W        W30864   3.788  14.825  13.491
58550W        W30865  21.622  10.662   4.233
58551W        W30866  31.094   0.354   4.642
58552W        W30867  18.100  17.053  12.125
58553W        W30868   1.198  17.185  11.573
58554W        W30869   3.406  35.664   3.622
58555W        W30870  10.739  39.386  13.518
58556W        W30871  23.270  26.985   2.343
58557W        W30872  21.024  14.311  13.376
58558W        W30873  26.191  27.360  13.495
58559W        W30874  33.919  36.612  10.633
58560W        W30875  38.756   8.267  10.072
58561W        W30876  35.542  10.614   2.578
58562W        W30877  43.442  15.822  13.888
58563W        W30878  35.981  29.045  14.875
58564W        W30879  12.716  15.818   2.771
58565W        W30880   3.119  37.416  10.455
58566W        W30881  13.830  10.193   0.367
58567W        W30882  39.936   9.635  12.846
58568W        W30883  39.896  20.720   0.290
58569W        W30884  10.068  22.309  12.481
58570W        W30885  39.962   6.808   0.834
58571W        W30886  18.669   5.945   1.802
58572W        W30887   1.367  41.498   1.780
58573W        W30888  22.472  27.364  10.468
58574W        W30889  21.519  13.393  10.779
58575W        W30890  42.819  27.046  14.378
58576W        W30891  21.108  21.583  12.087
58577W        W30892  28.568  18.077   1.956
58578W        W30893  11.347  29.986  10.893
58579W        W30894  12.664  17.756  11.991
58580W        W30895  21.088   5.789   1.782
58581W        W30896   8.785  19.247   1.223
58582W        W30897  30.360  29.643  14.769
58583W        W30898  30.075  29.681   0.388
58584W        W30899  28.421  13.015   0.815
58585W        W30900  22.868  35.119   5.112
58586W        W30901  44.674  38.394   2.808
58587W        W30902  16.323   7.218  12.419
58588W        W30903  30.705  18.667  12.055
58589W        W30904  23.214  24.313   4.124
58590W        W30905  40.253  26.602  11.925
58591W        W30906  18.151  22.304  14.306
58592W        W30907  16.110  13.215   2.370
58593W        W30908   0.005   5.967  11.983
58594W        W30909  10.087   5.891  13.868
58595W        W30910  15.273  36.110   0.979
58596W        W30911   1.332  35.990  10.621
58597W        W30912   4.490  10.114  13.302
58598W        W30913   2.000  11.787  13.355
58599W        W30914  43.797   8.757  13.593
58600W        W30915  14.563  28.619   4.728
58601W        W30916  27.316  19.753   4.082
58602W        W30917  31.594  24.405  10.752
58603W        W30918  19.017  15.036   4.621
58604W        W30919  14.418   6.269  10.693
58605W        W30920  42.036   9.966   4.519
58606W        W30921  38.830   8.646  10.542
58607W        W30922  37.886   1.147  11.932
58608W        W30923  33.900   3.938   2.199
58609W        W30924  29.600   0.430  13.078
58610W        W30925  11.304  27.440  11.180
58611W        W30926   4.251  34.421   1.814
58612W        W30927  12.183  24.790   0.738
58613W        W30928  37.560  43.896   2.191
58614W        W30929  25.551  39.600  12.330
58615W        W30930  37.919  15.081  14.208
58616W        W30931  19.457   8.304   2.246
58617W        W30932  38.814  17.446   3.136
58618W        W30933  27.145  20.521   1.814
58619W        W30934  25.541  10.731   3.492
58620W        W30935  38.636  27.983  14.743
58621W        W30936  23.713  28.427  11.600
58622W        W30937  21.612  28.499   2.696
58623W        W30938   5.521  44.050  12.620
58624W        W30939  25.421  40.569  11.864
58625W        W30940   2.728  36.208   3.919
58626W        W30941   4.827  32.819   3.716
58627W        W30942  36.596   6.716   2.680
58628W        W30943  33.886  29.524   4.059
58629W        W30944  13.930  22.518   3.228
58630W        W30945  24.975  39.904   0.872
58631W        W30946  44.735  38.482  10.511
58632W        W30947   9.664  31.887  14.831
58633W        W30948  18.184   9.900   4.542
58634W        W30949  25.435  35.041   3.144
58635W        W30950  40.811  42.291  11.997
58636W        W30951  22.730  30.224   2.161
58637W        W30952   8.894  35.624   4.867
58638W        W30953  11.534  25.042   3.307
58639W        W30954  33.524   8.129  13.864
58640W        W30955  18.700  35.959  12.505
58641W        W30956  41.487  26.399  13.996
58642W        W30957  14.049  21.600   4.787
58643W        W30958  15.517   1.491   4.110
58644W        W30959  13.468  43.318   3.240
58645W        W30960  18.032  43.874  14.497
58646W        W30961  40.515   4.666   0.743
58647W        W30962  38.049  30.661   2.156
58648W        W30963  19.807  18.863   3.334
58649W        W30964  25.625  28.501   2.117
58650W        W30965  13.610  41.272   3.319
58651W        W30966  38.506  37.933   2.755
58652W        W30967  23.620   6.202  14.442
58653W        W30968  12.357  38.826   0.395
58654W        W30969  28.923  21.097   2.212
58655W        W30970  20.122  37.425   2.402
58656W        W30971  13.047   0.747   4.211
58657W        W30972  19.328  10.228   1.390
58658W        W30973  32.965   9.884  10.620
58659W        W30974  13.532  21.659  11.010
58660W        W30975  34.623  34.915  14.569
58661W        W30976  30.405  13.732  10.451
58662W        W30977  14.421  34.083   4.025
58663W        W30978  13.084  30.093  11.989
58664W        W30979  20.350   4.113   3.641
58665W        W30980   2.536   4.321  10.743
58666W        W30981  20.625  36.001   0.845
58667W        W30982  20.943  28.324  11.472
58668W        W30983   0.598  20.412   3.873
58669W        W30984  22.273  26.245   3.846
58670W        W30985  11.414   4.863  10.641
58671W        W30986   1.009  34.046   4.996
58672W        W30987   3.960  14.502   0.462
58673W        W30988  22.634  40.859  12.830
58674W        W30989  19.362  40.719  10.976
58675W        W30990  43.310  11.900  14.994
58676W        W30991  12.237  26.637   2.251
58677W        W30992  29.416  16.222   1.872
58678W        W30993  36.625  41.868  12.103
58679W        W30994   6.945  32.240  10.655
58680W        W30995  36.530  25.687  12.212
58681W        W30996   4.833  29.974   3.397
58682W        W30997   9.647  31.704  11.963
58683W        W30998  11.897  44.650   0.853
58684W        W30999   1.220  12.739  14.961
58685W        W31000  42.165  24.381  13.511
58686W        W31001  39.054  41.831  13.474
58687W        W31002  11.706  24.084  13.560
58688W        W31003  37.859  17.627   0.274
58689W        W31004   8.286  21.069  10.053
58690W        W31005  27.673  12.402  12.381
58691W        W31006   2.228  17.991   4.989
58692W        W31007  14.141   8.904   1.245
58693W        W31008  29.031  28.868  13.980
58694W        W31009  42.262   2.528  11.342
58695W        W31010  31.941  26.393   2.700
58696W        W31011  10.732  42.556  12.079
58697W        W31012  44.378   9.152  13.494
58698W        W31013  24.148  28.726   1.397
58699W        W31014  19.232  34.136  12.447
58700W        W31015  15.829  34.604   2.922
58701W        W31016  44.517  31.291   1.950
58702W        W31017  36.328  39.093   2.849
58703W        W31018  40.897  26.641   3.755
58704W        W31019  15.727   0.745  12.188
58705W        W31020  27.082  31.012  14.447
58706W        W31021  22.661  38.621   1.341
58707W        W31022  24.496  18.312  14.881
58708W        W31023   6.679  44.456  12.007
58709W        W31024  24.445  16.202   3.539
58710W        W31025  16.737   1.788  14.773
58711W        W31026  31.038  29.443   2.698
58712W        W31027  35.877  15.769  11.581
58713W        W31028  37.986  14.421   4.638
58714W        W31029  37.599  23.233  12.022
58715W        W31030   1.511  21.614  13.794
58716W        W31031  44.731  13.152  11.048
58717W        W31032   6.488  18.140  12.634
58718W        W31033  40.883  24.055  11.057
58719W        W31034  14.467   7.186  12.489
58720W        W31035  16.763  38.585  13.387
58721W        W31036  22.617  16.205   2.791
58722W        W31037  44.971  15.340   4.571
58723W        W31038  42.815  32.145   3.229
58724W        W31039   1.736  17.032   4.545
58725W        W31040  10.684  23.287   3.630
58726W        W31041   9.239  30.077  14.361
58727W        W31042  42.468  26.407  13.227
58728W        W31043   4.992   5.488  11.586
58729W        W31044  21.068  33.599   4.214
58730W        W31045  20.988  41.272   4.138
58731W        W31046  38.136   9.613  14.266
58732W        W31047  28.682  43.062  14.332
58733W        W31048  13.774  27.355   4.260
58734W        W31049  23.167  21.658   1.631
58735W        W31050  38.905  44.684   1.285
58736W        W31051  24.106  13.086   0.686
58737W        W31052  32.077   5.759   4.172
58738W        W31053  29.403   7.848   3.782
58739W        W31054   5.162   8.162   4.045
58740W        W31055  17.108  13.362   4.104
58741W        W31056  19.820  28.134   3.858
58742W        W31057  43.507   2.908  12.032
58743W        W31058  44.842  12.595   0.890
58744W        W31059   2.539  19.661   4.638
58745W        W31060  23.725  20.196  13.269
58746W        W31061  13.995  19.662  12.124
58747W        W31062  14.709  39.229   0.498
58748W        W31063   8.277  15.830   3.219
58749W        W31064  15.640  18.744  12.302
58750W        W31065  25.004   5.726   5.042
58751W        W31066  16.210  36.161  12.491
58752W        W31067  34.681  41.923  13.769
58753W        W31068  14.697  25.178  11.156
58754W        W31069  42.844  13.668   2.813
58755W        W31070  23.997  25.736  12.916
58756W        W31071  36.837  25.956  14.506
58757W        W31072  10.784   4.384   1.293
58758W        W31073  29.176  37.869   4.136
58759W        W31074  29.681  35.806  11.199
58760W        W31075  44.866  16.210   3.353
58761W        W31076  11.228  18.333   2.409
58762W        W31077   0.210  43.021  11.332
58763W        W31078   7.924  32.302   0.300
58764W        W31079  34.894  34.811   9.858
58765W        W31080   1.564  41.745  12.462
58766W        W31081   4.005  31.958   1.379
58767W        W31082  21.262  17.962  12.468
58768W        W31083  18.224  29.347  12.552
58769W        W31084  21.763  13.520  13.716
58770W        W31085  10.250  32.537  14.849
58771W        W31086   8.270  13.695  13.492
58772W        W31087  44.720  33.964  12.484
58773W        W31088   4.283  14.199  11.211
58774W        W31089  35.505  38.516  13.399
58775W        W31090  16.625   1.040   0.843
58776W        W31091  23.233  19.680  13.763
58777W        W31092  44.505  38.351  13.575
58778W        W31093  13.844  34.471  12.002
58779W        W31094   4.288   3.722   0.876
58780W        W31095  15.741   1.767   0.382
58781W        W31096   8.800  39.488   3.670
58782W        W31097   0.746  13.314   5.031
58783W        W31098  28.228  30.345   3.988
58784W        W31099  14.049  24.361  11.691
58785W        W31100   7.444   8.286  11.903
58786W        W31101  34.634  26.866   4.675
58787W        W31102   0.279  16.691  13.402
58788W        W31103  41.959  25.871   4.212
58789W        W31104  16.194   8.404   1.697
58790W        W31105  15.158  41.462   2.418
58791W        W31106  23.538  32.020  13.269
58792W        W31107   0.843  33.345   2.784
58793W        W31108  11.981  28.455   3.813
58794W        W31109  34.434  37.243   2.732
58795W        W31110  23.258  40.106  12.434
58796W        W31111  10.449  31.696  11.535
58797W        W31112   5.282   2.812   0.856
58798W        W31113  18.547  18.341   0.848
58799W        W31114  43.522  23.296  13.701
58800W        W31115  25.521  10.821   4.949
58801W        W31116  20.081   8.920   0.445
58802W        W31117  17.485  39.356   3.014
58803W        W31118   4.826  10.102  12.473
58804W        W31119  35.401  15.389   3.662
58805W        W31120  36.336  20.515   0.335
58806W        W31121   5.724   6.875  13.961
58807W        W31122  32.395  35.379  13.329
58808W        W31123  28.067  42.461   4.557
58809W        W31124  16.528  20.985  12.791
58810W        W31125  33.948  27.537   4.819
58811W        W31126   0.531  30.151  11.373
58812W        W31127  38.984  36.929  10.880
58813W        W31128  18.614  44.779  11.112
58814W        W31129  12.364   7.209  12.550
58815W        W31130  42.232  38.441   4.616
58816W        W31131  29.477  26.445   2.280
58817W        W31132  44.791  37.573   2.707
58818W        W31133  12.705  26.638  12.974
58819W        W31134  38.467  19.150   4.165
58820W        W31135  33.964  10.504  13.051
58821W        W31136  41.574   3.947  12.976
58822W        W31137  26.613  27.589  13.655
58823W        W31138  23.228  26.625  12.525
58824W        W31139  27.656  25.129  14.367
58825W        W31140  37.437  40.520   2.720
58826W        W31141  19.960  44.037  13.087
58827W        W31142   8.711   6.421  13.985
58828W        W31143  29.515  14.177   0.240
58829W        W31144  10.142  28.100  11.639
58830W        W31145  22.110  27.104   2.665
58831W        W31146  19.834   0.450   4.467
58832W        W31147  42.863   8.259  13.654
58833W        W31148  25.988   0.806  12.072
58834W        W31149  14.693  26.666  11.992
58835W        W31150  25.523  13.564   0.812
58836W        W31151  35.289  12.057  13.480
58837W        W31152  17.948  41.027  11.993
58838W        W31153   3.018  10.899   4.323
58839W        W31154  23.753  35.974  14.956
58840W        W31155   8.753  26.290  14.003
58841W        W31156  42.491  40.187  14.551
58842W        W31157  27.114   4.399  12.862
58843W        W31158  31.114  42.273   0.754
58844W        W31159  15.569  11.219  13.715
58845W        W31160  11.390  20.213   1.325
58846W        W31161  18.862   4.890   0.906
58847W        W31162   9.314  12.287   1.189
58848W        W31163  25.032  23.102   1.243
58849W        W31164   0.031  24.815  12.306
58850W        W31165  12.182  14.152   0.331
58851W        W31166  36.936  37.894  10.891
58852W        W31167   4.963  39.319   3.298
58853W        W31168  26.225  11.657  12.562
58854W        W31169  15.031  29.471  11.581
58855W        W31170  13.751   0.720   0.299
58856W        W31171  41.776  38.445   3.405
58857W        W31172  39.888  13.801   4.047
58858W        W31173  36.460   4.172   1.738
58859W        W31174  26.078  18.488  14.781
58860W        W31175  28.221  26.637   1.378
58861W        W31176  26.362   7.001   5.019
58862W        W31177  14.600  38.345   0.026
58863W        W31178  32.393  15.234   4.879
58864W        W31179   1.791  32.826   3.601
58865W        W31180   7.145  28.311   5.095
58866W        W31181  11.573  15.744   5.317
58867W        W31182   4.745   3.923   3.091
58868W        W31183   3.301  33.605  12.351
58869W        W31184  29.443  14.057  12.015
58870W        W31185  26.253  34.798  13.727
58871W        W31186  23.958  42.830  11.473
58872W        W31187  21.177  31.132   0.254
58873W        W31188  29.749   7.669  11.632
58874W        W31189  22.432  42.019  11.166
58875W        W31190   0.696  20.791  11.633
58876W        W31191  29.971  39.432   4.537
58877W        W31192  14.383  24.122   1.718
58878W        W31193  30.364  41.889   3.738
58879W        W31194  14.770  18.859   0.858
58880W        W31195  36.601   0.897   4.039
58881W        W31196   9.904  42.720   5.285
58882W        W31197  40.351  16.588   2.885
58883W        W31198  39.726  11.295   3.662
58884W        W31199  39.431  11.690   3.467
58885W        W31200   2.227  42.957   3.238
58886W        W31201  17.661  11.617  10.407
58887W        W31202  34.467  33.655   0.883
58888W        W31203  43.985  36.455   2.317
58889W        W31204  26.747  38.504   2.781
58890W        W31205  13.922  31.088  14.467
58891W        W31206  16.880   4.850   0.442
58892W        W31207  13.875  22.484   4.108
58893W        W31208  25.051   5.000  12.528
58894W        W31209   6.289  26.721   2.452
58895W        W31210  37.259  44.941  13.495
58896W        W31211  13.686  39.421   3.360
58897W        W31212  21.023   2.406  12.648
58898W        W31213   3.492  17.343  13.301
58899W        W31214  17.091  30.943   3.631
58900W        W31215   5.497  38.687  11.099
58901W        W31216   4.017  44.490  10.983
58902W        W31217   4.850  21.018  14.344
58903W        W31218  40.734  11.165   3.699
58904W        W31219  21.996  12.245   3.759
58905W        W31220  39.886  40.458   1.705
58906W        W31221  10.946  18.505   4.351
58907W        W31222  32.693   5.239   4.548
58908W        W31223  24.031   6.512  14.263
58909W        W31224  18.990  20.511   0.282
58910W        W31225  41.349   9.918  13.014
58911W        W31226  32.527   9.209   4.276
58912W        W31227   3.686  34.457   4.576
58913W        W31228  25.187   4.433   4.594
58914W        W31229  27.936  26.651   0.349
58915W        W31230  39.763  30.575   0.695
58916W        W31231  39.004  25.189  10.738
58917W        W31232  35.580  41.542   3.077
58918W        W31233  17.813   5.009  14.533
58919W        W31234  15.578  27.504   4.567
58920W        W31235  26.207  11.341  12.129
58921W        W31236  36.476  44.035  10.959
58922W        W31237  39.394  43.768   0.410
58923W        W31238  35.159  29.563  11.932
58924W        W31239  17.165   5.301  10.646
58925W        W31240  14.282  28.850   4.304
58926W        W31241  25.504  14.238   1.006
58927W        W31242   2.378  27.675  12.651
58928W        W31243   7.186  32.908  10.621
58929W        W31244  15.302   8.566   2.182
58930W        W31245  10.626  15.170   3.824
58931W        W31246  44.036  27.724  14.544
58932W        W31247  31.156  25.495   0.710
58933W        W31248   0.718  20.696   3.436
58934W        W31249  22.613   4.980   2.676
58935W        W31250   4.567  18.576   4.656
58936W        W31251   8.783  24.505   3.861
58937W        W31252  18.009  12.683  11.060
58938W        W31253  23.080  34.904  11.199
58939W        W31254  33.464  20.151  11.908
58940W        W31255   5.009  38.566  11.118
58941W        W31256  33.001  38.553   2.644
58942W        W31257  31.103   1.871   3.650
58943W        W31258   3.657  36.615   1.796
58944W        W31259  37.939  33.418  14.137
58945W        W31260  34.031   8.756   0.252
58946W        W31261   9.909  18.695  13.445
58947W        W31262  21.240  40.279  14.985
58948W        W31263  34.647  26.437   0.013
58949W        W31264  33.483  37.461  10.716
58950W        W31265  29.057  43.629   1.812
58951W        W31266   5.426  35.983  11.617
58952W        W31267  36.909  27.650   2.922
58953W        W31268  41.332  20.603  13.067
58954W        W31269   1.754  10.826  13.455
58955W        W31270  29.256  25.413   0.905
58956W        W31271  24.499  13.226   1.023
58957W        W31272  24.665  23.458  13.473
58958W        W31273  21.192  11.409  14.937
58959W        W31274  35.103  25.171   2.631
58960W        W31275   7.181  29.150   4.851
58961W        W31276  14.718  34.132  11.268
58962W        W31277  24.948  26.097   0.793
58963W        W31278  32.277  16.102  14.754
58964W        W31279  28.992  16.643   3.451
58965W        W31280  23.616  43.425  13.483
58966W        W31281  16.359   0.700  12.523
58967W        W31282  35.322  19.207   0.278
58968W        W31283   0.995  10.437  11.550
58969W        W31284  42.359  31.523   2.686
58970W        W31285   7.538  36.520  11.623
58971W        W31286  15.572  28.448   0.822
58972W        W31287  32.632   3.355   3.367
58973W        W31288  30.421  43.014   4.142
58974W        W31289  12.301  30.283  11.916
58975W        W31290  38.898  36.029  12.901
58976W        W31291   9.959  35.472   0.072
58977W        W31292  35.028   8.300  12.843
58978W        W31293  37.904  12.072   0.831
58979W        W31294  32.887  28.688  10.770
58980W        W31295  11.329  14.786  10.725
58981W        W31296   5.839  38.640  14.327
58982W        W31297  26.564  17.522  11.026
58983W        W31298   4.984  11.365  14.361
58984W        W31299  39.263  34.057   2.361
58985W        W31300  28.427  31.077   2.601
58986W        W31301  10.883  24.528  13.898
58987W        W31302  37.568  39.730  13.547
58988W        W31303  14.002  23.958  13.636
58989W        W31304   4.659   1.842  12.508
58990W        W31305   6.447  32.335   0.915
58991W        W31306  34.624  15.815  11.919
58992W        W31307  35.791  44.740   3.084
58993W        W31308   3.844  24.001  12.364
58994W        W31309  44.346  37.475   2.434
58995W        W31310  33.827  37.031   0.296
58996W        W31311  20.706   3.411   0.555
58997W        W31312  43.954  34.022   4.603
58998W        W31313  39.104  38.342  12.009
58999W        W31314  29.270  25.542  13.864
59000W        W31315  39.961  43.508  12.004
59001W        W31316  41.731  32.631  12.437
59002W        W31317  32.570  40.093  11.953
59003W        W31318  11.562  25.213  12.817
59004W        W31319  39.846  43.549  11.525
59005W        W31320  30.495  40.559  14.929
59006W        W31321  14.843  15.265   4.276
59007W        W31322  37.341   6.417   0.756
59008W        W31323  43.782   0.778   3.797
59009W        W31324  24.726  39.672   4.177
59010W        W31325  22.901  44.381   3.947
59011W        W31326  22.298  18.739  13.842
59012W        W31327  24.083  36.850   2.344
59013W        W31328  34.099  28.659  14.400
59014W        W31329  21.676  15.526  14.577
59015W        W31330   0.475   9.681   1.871
59016W        W31331   6.847  29.726  10.656
59017W        W31332  29.430   2.679   3.129
59018W        W31333  13.249  31.485   2.861
59019W        W31334   2.706  22.646   1.725
59020W        W31335  42.036  44.470  12.241
59021W        W31336  21.066  35.045  10.341
59022W        W31337  18.775  31.610  13.832
59023W        W31338  41.945   4.751  10.189
59024W        W31339   6.022   4.335  14.384
59025W        W31340  37.824  35.363  11.943
59026W        W31341  39.980  18.650  10.887
59027W        W31342  10.616  27.945  13.478
59028W        W31343  37.835  34.375  12.818
59029W        W31344  30.979  15.580   3.234
59030W        W31345  12.257  26.751  11.732
59031W        W31346  28.876  12.666   4.065
59032W        W31347  10.272   2.415  11.732
59033W        W31348  44.246  20.777  10.722
59034W        W31349  21.944   8.256   2.689
59035W        W31350  36.536  16.922   2.879
59036W        W31351  37.826  23.012  12.989
59037W        W31352  14.796  21.782  10.650
59038W        W31353   0.227  43.348  13.116
59039W        W31354   7.957  16.756  13.858
59040W        W31355  22.296  13.494   3.468
59041W        W31356  41.359   7.411  14.252
59042W        W31357  43.251  19.506   1.773
59043W        W31358  20.971  29.005  10.652
59044W        W31359  41.579  42.843  10.231
59045W        W31360  26.042  35.564  13.576
59046W        W31361  21.867  35.547   3.721
59047W        W31362  25.692  16.485   1.974
59048W        W31363  26.911  30.554  14.242
59049W        W31364  27.586   7.705  12.174
59050W        W31365   7.330  20.102   4.652
59051W        W31366   5.892  36.403  13.640
59052W        W31367  21.659   4.610  11.141
59053W        W31368  32.705  14.209   4.191
59054W        W31369  32.103  39.896   4.411
59055W        W31370  43.523  39.863  13.717
59056W        W31371  42.762  28.879   4.315
59057W        W31372  15.883   0.666   3.795
59058W        W31373   4.812  42.776  11.247
59059W        W31374   2.377   3.813   4.490
59060W        W31375  41.264  25.101   2.664
59061W        W31376  38.360  43.781   0.278
59062W        W31377  24.391  14.596  13.349
59063W        W31378  33.332   6.576  13.954
59064W        W31379  38.468   9.166  12.383
59065W        W31380  33.175   1.434   0.249
59066W        W31381  12.327   9.265  10.363
59067W        W31382   5.180  15.247   2.363
59068W        W31383  27.565   7.409  10.461
59069W        W31384  34.523   3.990  11.602
59070W        W31385   0.888   4.946  11.570
59071W        W31386  35.926   8.604   1.012
59072W        W31387  33.829  18.339  10.444
59073W        W31388  35.840  41.962  13.258
59074W        W31389  19.700  38.057  10.945
59075W        W31390  40.045  26.057  14.505
59076W        W31391  16.990  24.530  13.743
59077W        W31392  12.199   6.872  12.086
59078W        W31393  26.508   8.387   3.273
59079W        W31394   9.997  36.568   1.422
59080W        W31395  19.048  20.040   0.052
59081W        W31396  32.473  11.848   4.758
59082W        W31397  17.758  19.844  13.115
59083W        W31398  12.098  42.621   1.606
59084W        W31399  32.138  14.172  11.026
59085W        W31400  43.531  44.477   0.868
59086W        W31401  41.325   8.359  11.199
59087W        W31402   6.936   9.590  11.433
59088W        W31403  39.039  20.257  12.856
59089W        W31404   2.893  18.553   0.354
59090W        W31405  30.235   3.202   2.157
59091W        W31406   8.100  37.754   0.253
59092W        W31407  23.242   7.821   3.292
59093W        W31408  38.979  42.852   1.455
59094W        W31409  30.688  35.921  14.398
59095W        W31410  33.437  19.243   0.059
59096W        W31411   7.123  22.113   3.692
59097W        W31412  40.368   9.087   3.572
59098W        W31413  13.858   6.879   2.073
59099W        W31414  27.845   1.725  14.469
59100W        W31415  42.224  32.580  13.779
59101W        W31416  22.091  40.843  14.026
59102W        W31417  28.491   0.255   0.310
59103W        W31418  10.929  39.465  12.631
59104W        W31419  44.895  37.981   1.885
59105W        W31420  17.578   2.424  14.282
59106W        W31421  28.392  22.120   4.457
59107W        W31422  27.963   6.423   1.657
59108W        W31423   6.314  35.375   3.415
59109W        W31424  42.288  20.511  14.176
59110W        W31425  36.418   2.778   2.597
59111W        W31426  38.868  26.328   9.961
59112W        W31427  31.530  12.848   1.211
59113W        W31428  31.233  14.923   2.503
59114W        W31429  31.928  12.399   4.279
59115W        W31430   9.699  41.490  13.476
59116W        W31431  19.217  39.469  14.246
59117W        W31432  38.051  38.467  14.015
59118W        W31433  25.950  35.944   2.266
59119W        W31434  23.607  37.630   2.437
59120W        W31435  12.294  25.941  14.093
59121W        W31436  15.143  15.324  13.503
59122W        W31437  26.784   6.766  12.456
59123W        W31438  20.670  36.381   3.372
59124W        W31439  15.504  42.796   1.764
59125W        W31440   8.999  16.596   2.834
59126W        W31441  27.488   5.473  14.573
59127W        W31442  39.079  43.505   2.812
59128W        W31443   5.523   4.467  14.440
59129W        W31444  17.127  43.316  12.365
59130W        W31445  26.644  32.408  11.671
59131W        W31446  41.684  10.757  13.377
59132W        W31447  29.003   8.403   3.181
59133W        W31448  20.016  31.132   3.453
59134W        W31449  22.681   3.370   2.831
59135W        W31450  35.954  15.637  13.959
59136W        W31451  22.504  39.622   1.282
59137W        W31452  19.798  17.475  11.285
59138W        W31453  17.559  38.620  11.909
59139W        W31454  32.534  13.343   0.763
59140W        W31455  26.104  14.333  13.485
59141W        W31456  43.027  38.540   1.417
59142W        W31457  38.864  17.059   3.491
59143W        W31458   8.277  26.072  13.363
59144W        W31459  10.358  21.123  13.305
59145W        W31460  28.791  17.826  12.488
59146W        W31461   5.495  38.576  13.336
59147W        W31462  43.433   0.236  14.795
59148W        W31463  12.094  27.226   4.662
59149W        W31464  15.335  15.577  11.639
59150W        W31465  32.436   3.420   2.468
59151W        W31466  36.025  40.845  14.405
59152W        W31467   3.395  12.808  12.679
59153W        W31468  21.575  32.342  14.896
59154W        W31469   2.286  43.089  14.349
59155W        W31470  10.909   1.331   3.641
59156W        W31471  27.619  39.787   0.478
59157W        W31472  26.939  26.628  10.164
59158W        W31473  20.217  42.073   0.353
59159W        W31474  17.280  17.583  14.063
59160W        W31475  16.369  34.657   1.670
59161W        W31476  10.127  34.484  13.531
59162W        W31477  26.734   9.369  14.910
59163W        W31478   5.905   5.501  11.066
59164W        W31479  16.675  30.952  14.282
59165W        W31480   3.196   3.250  13.584
59166W        W31481  43.106   2.334   1.917
59167W        W31482   2.826  29.500   4.835
59168W        W31483  43.958   0.946   0.211
59169W        W31484  42.791  27.386  12.731
59170W        W31485  40.884   7.693  13.627
59171W        W31486  27.003  24.576   3.137
59172W        W31487   2.861  18.547  14.808
59173W        W31488   2.550   0.871   2.850
59174W        W31489   9.598  20.584   0.756
59175W        W31490  26.892  19.042   1.292
59176W        W31491  35.833  43.951  11.619
59177W        W31492  32.887   4.771   3.174
59178W        W31493  39.326   1.347  13.878
59179W        W31494  14.847  24.025  14.800
59180W        W31495   6.546   7.881  11.906
59181W        W31496  16.352  34.057   2.738
59182W        W31497  20.517  30.951  11.062
59183W        W31498   3.473  15.494   5.231
59184W        W31499   1.448  28.228   0.852
59185W        W31500   3.396  21.262   2.886
59186W        W31501  43.236   2.550  10.774
59187W        W31502  38.994  16.761   1.981
59188W        W31503  26.531   1.185   3.795
59189W        W31504  13.758  35.134   2.281
59190W        W31505  29.156   6.956  13.199
59191W        W31506  44.837  26.193  14.080
59192W        W31507  20.567   9.400  12.389
59193W        W31508  16.303  22.621  13.431
59194W        W31509  44.298  27.586   0.487
59195W        W31510  41.963   6.819  10.633
59196W        W31511  23.089   7.112  14.980
59197W        W31512  34.170  11.180  14.433
59198W        W31513  38.095  10.275   0.707
59199W        W31514  20.518  15.162   4.107
59200W        W31515  29.039  17.292   3.229
59201W        W31516   5.257  42.051   0.342
59202W        W31517  30.445  30.689  14.795
59203W        W31518  13.245  32.956  12.036
59204W        W31519   7.264  34.114   0.789
59205W        W31520  23.832   9.230   1.515
59206W        W31521  18.687  34.909  11.912
59207W        W31522  29.563  32.126  13.428
59208W        W31523   8.666  43.494  14.019
59209W        W31524  18.343  15.845  13.033
59210W        W31525  23.126  42.827  13.413
59211W        W31526   2.163  34.407  12.888
59212W        W31527  44.448  15.196  11.993
59213W        W31528   2.440  33.160   2.288
59214W        W31529   7.377  10.748  10.553
59215W        W31530  38.929  12.341   2.280
59216W        W31531  34.482  25.030  12.563
59217W        W31532   8.837  31.903  11.629
59218W        W31533  37.166  43.133  12.428
59219W        W31534  40.356  43.707   2.710
59220W        W31535  26.418  26.644   0.383
59221W        W31536  11.622  37.562   0.142
59222W        W31537  18.517  12.874  13.039
59223W        W31538  33.449   6.520   0.893
59224W        W31539  31.057  28.277  10.346
59225W        W31540  36.896  27.065  12.581
59226W        W31541  30.727   4.900  13.422
59227W        W31542  23.607  11.233  10.741
59228W        W31543  10.733  25.054  14.751
59229W        W31544  12.228   6.944   2.939
59230W        W31545  30.641  39.991  13.559
59231W        W31546  32.716  10.655  14.331
59232W        W31547   3.053  27.391  11.031
59233W        W31548  12.678  36.267  14.333
59234W        W31549  17.148  20.297  13.361
59235W        W31550  16.062  15.443  13.184
59236W        W31551   6.399   3.161   4.747
59237W        W31552  22.094  23.503  12.113
59238W        W31553  40.689  39.843   1.383
59239W        W31554  35.804  39.108   2.872
59240W        W31555  39.937  16.561  12.852
59241W        W31556  26.647  14.345   3.378
59242W        W31557  17.322  42.277  11.571
59243W        W31558  30.612  27.677  12.412
59244W        W31559  26.101   7.896  13.823
59245W        W31560   7.000  12.397   3.578
59246W        W31561   4.580  30.462  12.931
59247W        W31562  25.487  37.000  14.982
59248W        W31563  30.610   0.357   0.865
59249W        W31564   4.007  22.469   1.359
59250W        W31565  12.182   9.325  12.597
59251W        W31566  26.962  32.926  12.477
59252W        W31567  14.810  31.086   2.370
59253W        W31568  33.024  41.336   0.847
59254W        W31569  11.060  42.311   3.109
59255W        W31570  26.608  20.690  14.051
59256W        W31571  38.020  11.092   2.937
59257W        W31572  25.297   5.050   3.170
59258W        W31573   9.772  44.212   4.164
59259W        W31574  39.985  31.474  11.436
59260W        W31575  34.656  29.478   4.584
59261W        W31576  19.746  28.972   4.198
59262W        W31577  34.680   5.694  14.231
59263W        W31578  20.113  17.640   4.815
59264W        W31579  37.931  35.457   4.217
59265W        W31580  33.606  30.915   0.429
59266W        W31581   7.839  11.635  10.434
59267W        W31582  25.220  36.957  10.724
59268W        W31583  28.553  26.271  11.107
59269W        W31584  41.010  19.943  11.120
59270W        W31585  40.027  26.902   1.692
59271W        W31586  28.652   5.877   0.454
59272W        W31587   8.277  29.412   1.150
59273W        W31588  33.994  28.387  10.778
59274W        W31589   0.133   4.816   2.390
59275W        W31590  39.237  27.966   1.394
59276W        W31591   8.156   6.071   2.821
59277W        W31592   9.788   0.882  11.813
59278W        W31593  42.228  31.867   3.040
59279W        W31594  20.125   1.875   3.645
59280W        W31595  24.012   7.257  13.613
59281W        W31596   3.853   5.884  13.114
59282W        W31597  21.241  32.463   2.915
59283W        W31598  32.062  11.316   0.590
59284W        W31599  21.587  32.445   1.250
59285W        W31600   9.643  38.496   0.426
59286W        W31601  37.122  41.752  13.305
59287W        W31602  36.363  15.412  12.793
59288W        W31603  30.259   0.838  13.350
59289W        W31604  33.071  33.402   4.917
59290W        W31605  44.033   8.632   2.889
59291W        W31606   2.375  43.247   1.232
59292W        W31607   7.086  11.525   2.762
59293W        W31608  12.830  24.690   1.363
59294W        W31609  17.660  41.459  12.065
59295W        W31610   4.899  20.585   3.064
59296W        W31611  11.908   3.029  12.124
59297W        W31612  28.623  37.945   0.359
59298W        W31613  41.871  17.581  14.923
59299W        W31614  25.087  24.935  10.618
59300W        W31615  26.582  32.334  14.485
59301W        W31616  39.470  37.054  10.698
59302W        W31617  39.352  43.693  11.580
59303W        W31618   1.758  34.781  13.936
59304W        W31619   5.433  15.354  11.127
59305W        W31620  28.946  26.075   0.965
59306W        W31621  31.599  25.695  14.252
59307W        W31622  40.623  26.033   1.347
59308W        W31623   6.300  29.967   2.499
59309W        W31624  43.051  27.483   1.325
59310W        W31625  30.196   7.931  12.554
59311W        W31626  30.167   6.907  12.358
59312W        W31627  14.735   3.338   0.876
59313W        W31628  10.112  23.684   4.099
59314W        W31629  35.428  21.203   4.575
59315W        W31630  11.620  29.501  11.411
59316W        W31631  32.204   3.317   0.860
59317W        W31632  25.862  13.625   0.390
59318W        W31633  22.239   8.271   3.573
59319W        W31634   2.828  22.904  11.600
59320W        W31635  13.867  23.513  10.715
59321W        W31636   5.603  23.403   0.071
59322W        W31637  20.084  16.621  11.503
59323W        W31638  11.173  25.192   1.916
59324W        W31639  18.644   4.233  10.760
59325W        W31640  37.048  44.278   0.235
59326W        W31641  19.486  20.122  12.872
59327W        W31642  12.843  11.655   0.367
59328W        W31643  35.370  23.576   0.428
59329W        W31644   1.313  31.102   4.723
59330W        W31645   9.623  31.749   4.117
59331W        W31646  33.872  44.930  12.030
59332W        W31647  11.742  17.143  13.255
59333W        W31648   9.112  36.425   0.850
59334W        W31649  23.295  24.060  12.079
59335W        W31650  39.384  24.193   2.656
59336W        W31651   3.693  33.199  10.938
59337W        W31652   6.481  12.853  11.655
59338W        W31653  34.689  39.431   2.781
59339W        W31654  44.758  11.718   3.682
59340W        W31655  19.327   9.204   0.532
59341W        W31656  44.427   6.981  13.304
59342W        W31657  36.144  23.985  13.449
59343W        W31658  18.128  34.457   3.341
59344W        W31659   4.990  39.197   2.394
59345W        W31660  43.842  16.192  14.322
59346W        W31661  32.717   9.384   1.724
59347W        W31662  38.785  35.947  14.667
59348W        W31663  19.844  37.892   1.492
59349W        W31664  33.482  43.508   3.634
59350W        W31665  37.074  44.316   3.678
59351W        W31666   2.466  42.351  11.520
59352W        W31667  30.411  36.223   2.991
59353W        W31668  24.649  31.129  12.386
59354W        W31669  39.890  21.791  12.469
59355W        W31670   6.176  14.533   3.357
59356W        W31671  27.153  14.297  13.504
59357W        W31672  26.843   9.619  14.454
59358W        W31673  24.973  15.806  12.097
59359W        W31674   7.943  14.330   2.565
59360W        W31675  30.973  13.340   4.863
59361W        W31676   5.424   6.962  12.531
59362W        W31677  17.530  25.015   4.611
59363W        W31678   1.239  23.543  14.535
59364W        W31679  39.729  36.092  13.296
59365W        W31680  28.077  14.499   0.436
59366W        W31681   6.434   2.510   0.303
59367W        W31682   3.670  42.544   3.332
59368W        W31683  26.681  22.862   5.093
59369W        W31684   4.273  23.390  11.137
59370W        W31685  22.509  34.165  12.864
59371W        W31686  44.977  20.527  11.232
59372W        W31687  39.978  37.123  11.892
59373W        W31688  39.297  11.601  12.621
59374W        W31689  26.683  18.679  14.439
59375W        W31690   8.151  22.298   0.746
59376W        W31691   0.156  32.062  14.162
59377W        W31692  43.327   1.423   3.243
59378W        W31693  39.443  43.186   2.628
59379W        W31694  14.150   4.687   0.850
59380W        W31695  28.455   2.008   2.319
59381W        W31696  36.303  12.728  11.531
59382W        W31697  20.803   2.888  11.098
59383W        W31698  28.505   9.612   2.757
59384W        W31699  44.413  43.342  12.619
59385W        W31700   4.913  33.593  10.691
59386W        W31701  15.192   3.277   3.281
59387W        W31702  16.817  35.498   2.245
59388W        W31703  30.056  30.737   1.206
59389W        W31704   5.315  13.296   0.106
59390W        W31705  34.387  34.664  12.114
59391W        W31706   9.602  35.121  11.435
59392W        W31707  34.529  16.976   0.334
59393W        W31708   7.815  31.016  11.139
59394W        W31709  12.360  15.436  14.841
59395W        W31710  21.082  38.988   2.685
59396W        W31711  11.087  16.109  12.743
59397W        W31712  37.394  12.780   4.974
59398W        W31713  12.087  30.952   4.096
59399W        W31714  18.239  12.062   1.277
59400W        W31715  21.271   6.335   1.778
59401W        W31716  22.292  10.650   2.354
59402W        W31717  17.688  40.882  14.835
59403W        W31718   3.064   2.426   0.007
59404W        W31719  42.472  12.259   0.291
59405W        W31720  12.766  40.315   1.342
59406W        W31721  14.348  40.686  12.452
59407W        W31722  24.279  19.166   1.738
59408W        W31723  41.308  10.330  14.765
59409W        W31724  20.131  16.245   0.389
59410W        W31725   7.438   1.402  12.562
59411W        W31726  11.372  39.547  12.381
59412W        W31727   1.380  29.911   1.424
59413W        W31728  19.244  28.327   2.253
59414W        W31729  44.221  11.891   0.208
59415W        W31730  37.021  10.974  11.881
59416W        W31731  34.484  36.323   1.455
59417W        W31732  23.591  43.953  14.262
59418W        W31733  33.754  23.188   0.131
59419W        W31734  34.873  17.510   1.792
59420W        W31735  38.009  28.471   0.235
59421W        W31736  36.470  19.697  12.423
59422W        W31737   5.228  19.699  11.742
59423W        W31738  18.182   8.565  10.065
59424W        W31739  40.592  25.627   5.054
59425W        W31740  11.639   3.511   0.460
59426W        W31741  13.208  18.812   2.766
59427W        W31742  43.926  29.917  10.747
59428W        W31743  35.331  41.880  13.027
59429W        W31744  44.383  33.034  14.356
59430W        W31745  31.080  12.285   2.297
59431W        W31746   5.204   1.059   3.599
59432W        W31747  22.800  11.347  14.354
59433W        W31748  29.639  30.658  13.795
59434W        W31749  36.419  29.663   0.897
59435W        W31750  24.736  10.390   2.833
59436W        W31751  20.310  11.529   2.188
59437W        W31752  22.990  38.810   1.721
59438W        W31753  23.128  12.350   0.950
59439W        W31754  27.235   1.876   3.073
59440W        W31755  36.352  34.695   3.597
59441W        W31756  33.950  43.994   2.197
59442W        W31757   3.141   6.916  14.851
59443W        W31758  32.204   8.243  12.202
59444W        W31759  11.423  18.989  10.568
59445W        W31760  42.617  18.283  11.920
59446W        W31761   3.337  33.510  10.670
59447W        W31762  42.300  43.057  13.429
59448W        W31763  16.776  42.224  12.894
59449W        W31764  21.757  38.851  10.809
59450W        W31765  10.200  10.420   1.964
59451W        W31766  26.950   8.442  13.456
59452W        W31767   3.938   9.248  13.091
59453W        W31768   5.977   2.312  14.477
59454W        W31769  12.852  34.326   1.744
59455W        W31770  11.185  37.376  14.952
59456W        W31771  41.715  30.659   1.669
59457W        W31772  10.622  32.595  11.119
59458W        W31773  38.382  32.948  14.880
59459W        W31774  15.589  34.992  13.854
59460W        W31775  24.287  23.803  14.231
59461W        W31776  31.888   8.838   3.543
59462W        W31777  17.069  37.292  14.512
59463W        W31778   3.404  21.781  13.755
59464W        W31779  39.642  26.482   0.683
59465W        W31780   7.227  11.042   4.656
59466W        W31781  15.640   0.005  11.487
59467W        W31782  41.831   1.701  14.284
59468W        W31783  32.138   9.375  10.294
59469W        W31784  16.825  43.336  13.471
59470W        W31785   4.470  35.599   2.344
59471W        W31786   1.011  44.605   2.325
59472W        W31787  15.464  38.486   1.906
59473W        W31788  24.096  33.852   1.419
59474W        W31789   2.419  29.158   1.161
59475W        W31790  35.680  43.008   1.493
59476W        W31791  31.421  31.925  10.648
59477W        W31792  25.205  14.663   1.130
59478W        W31793  28.740  17.914  14.441
59479W        W31794  26.800  35.668   4.848
59480W        W31795  18.372  34.149   4.117
59481W        W31796   0.408   9.361  10.269
59482W        W31797   1.945   7.331  11.162
59483W        W31798  20.441  38.733   1.653
59484W        W31799  32.642  43.721   0.266
59485W        W31800  36.314  36.939  13.425
59486W        W31801  31.475  34.375   1.208
59487W        W31802  26.080   3.953   9.789
59488W        W31803  26.563  16.200  11.676
59489W        W31804  27.994  29.207  11.523
59490W        W31805  23.635  42.368   1.618
59491W        W31806  27.604  27.485   4.399
59492W        W31807   7.995  10.866   1.762
59493W        W31808   9.361  36.280   3.779
59494W        W31809  33.351  15.670  12.190
59495W        W31810  34.088  42.736  13.732
59496W        W31811  26.596   5.881   2.884
59497W        W31812  44.539  21.205   1.783
59498W        W31813  36.819  14.900  13.434
59499W        W31814  13.241  23.483  11.168
59500W        W31815  12.057  31.906   3.359
59501W        W31816  16.334  26.655   2.436
59502W        W31817  17.209  10.693   9.745
59503W        W31818   5.408  12.217  11.661
59504W        W31819  43.493   9.115  14.768
59505W        W31820  13.568   9.989  14.360
59506W        W31821   1.445  13.568   0.450
59507W        W31822  14.260  24.707   3.046
59508W        W31823   0.848   8.227  12.884
59509W        W31824   1.769  43.560  14.995
59510W        W31825  33.666  35.423  13.920
59511W        W31826  31.924  43.684  11.661
59512W        W31827   3.276  26.633  13.133
59513W        W31828  24.706  15.574  13.039
59514W        W31829   0.271  34.289  11.139
59515W        W31830  41.583  39.119  10.761
59516W        W31831   2.753  28.581  11.632
59517W        W31832  27.143   2.092   0.163
59518W        W31833  16.200  16.278   2.889
59519W        W31834   6.422  24.333   2.737
59520W        W31835  32.509  11.328   4.589
59521W        W31836  36.493  41.926   0.504
59522W        W31837   1.260  30.043  12.114
59523W        W31838  13.183  40.470  13.455
59524W        W31839  27.596  21.195  14.012
59525W        W31840  13.631  30.041   1.261
59526W        W31841  23.550  11.576   3.676
59527W        W31842  26.685  33.406   3.645
59528W        W31843  33.497  15.161   0.474
59529W        W31844  33.720  37.507  13.354
59530W        W31845  40.614  21.329   2.064
59531W        W31846  24.555  15.232   1.607
59532W        W31847  11.892  12.877   3.200
59533W        W31848  23.984   8.705  13.981
59534W        W31849  21.530  20.527   0.296
59535W        W31850  41.880  21.736   0.435
59536W        W31851   3.159  17.600   2.729
59537W        W31852  35.997  13.781   1.384
59538W        W31853  41.059  20.936   4.194
59539W        W31854  17.042  26.460  13.529
59540W        W31855  35.140  23.623   2.766
59541W        W31856  23.281  38.540  14.343
59542W        W31857  33.954   5.727  12.077
59543W        W31858  40.056   6.855  13.761
59544W        W31859  13.871  24.795   0.276
59545W        W31860  38.926  36.062   2.379
59546W        W31861  15.295  11.735  12.979
59547W        W31862   7.609  43.866   4.055
59548W        W31863   0.535  17.513  12.169
59549W        W31864  44.831   5.448   3.441
59550W        W31865   7.787   2.015  13.945
59551W        W31866  37.350  25.074   2.362
59552W        W31867  41.201  41.022  13.445
59553W        W31868  21.451  25.611  13.055
59554W        W31869  41.885  10.877   4.356
59555W        W31870  41.428  19.630  11.101
59556W        W31871   7.828  13.263  12.753
59557W        W31872  16.146   0.909  12.942
59558W        W31873  26.058   0.039  14.436
59559W        W31874   0.560  41.914   1.874
59560W        W31875  32.408   4.988   3.082
59561W        W31876  38.931  29.034   0.405
59562W        W31877  27.735  32.881   1.337
59563W        W31878  21.987  22.147   2.300
59564W        W31879  16.035   6.656   2.354
59565W        W31880  29.484  39.612   4.549
59566W        W31881  25.224   6.455   4.686
59567W        W31882  24.040  31.098  12.016
59568W        W31883  17.570   3.415   1.342
59569W        W31884   8.244   3.637  13.394
59570W        W31885  13.154   7.185  12.941
59571W        W31886  32.952   1.922   3.399
59572W        W31887   6.370   3.350   4.232
59573W        W31888  16.765  30.970   1.214
59574W        W31889  12.821  25.699  12.504
59575W        W31890  10.121  39.554  14.590
59576W        W31891  44.419   4.819  14.441
59577W        W31892  36.419  13.818  13.063
59578W        W31893  23.516  19.531  12.528
59579W        W31894  32.733   1.704   0.341
59580W        W31895  21.414  12.269  11.509
59581W        W31896   2.894  38.283   4.304
59582W        W31897  18.305   8.874  11.732
59583W        W31898  35.294   3.153  12.483
59584W        W31899  24.654  30.931   0.865
59585W        W31900  38.187   7.195   3.713
59586W        W31901   6.709  26.460  10.784
59587W        W31902   6.433  12.261  14.957
59588W        W31903  32.942  21.741   2.629
59589W        W31904  16.045  20.059  11.654
59590W        W31905  36.864  24.535  12.222
59591W        W31906  14.323  13.441   0.475
59592W        W31907  31.399  25.762   4.177
59593W        W31908  21.535  20.973  14.991
59594W        W31909  12.580  16.243   0.873
59595W        W31910  27.614  29.621  10.783
59596W        W31911   8.347  35.388   2.716
59597W        W31912  38.077  25.166  13.984
59598W        W31913   9.881  17.313  13.363
59599W        W31914  22.575  34.354   2.929
59600W        W31915  44.188  39.590  12.385
59601W        W31916  42.365  31.701  12.420
59602W        W31917  44.260   4.749   3.405
59603W        W31918  39.646  38.748   0.959
59604W        W31919  38.422  15.189  14.359
59605W        W31920  42.378  34.094   1.363
59606W        W31921  42.848  12.116  14.971
59607W        W31922  22.679  42.570   0.436
59608W        W31923   9.734  26.619   0.882
59609W        W31924   9.751  33.485  11.965
59610W        W31925  43.345  25.075  14.730
59611W        W31926  27.441  13.257   1.222
59612W        W31927  11.695  20.953   0.035
59613W        W31928  29.814   1.394   4.069
59614W        W31929  32.628   8.728  11.540
59615W        W31930  34.061  14.903   3.324
59616W        W31931  10.143  21.974   4.570
59617W        W31932   6.553   4.284  14.356
59618W        W31933  15.858  30.962  11.815
59619W        W31934  36.409  19.481   1.675
59620W        W31935  38.491  37.877  10.604
59621W        W31936  10.155  42.710  12.432
59622W        W31937  13.183   4.925   2.766
59623W        W31938  21.102  24.706   1.211
59624W        W31939  34.887  12.089  14.845
59625W        W31940  37.921  42.941   2.961
59626W        W31941   5.801  34.101  12.116
59627W        W31942  25.499  18.760   1.528
59628W        W31943  33.248  41.240   2.123
59629W        W31944  22.520  10.678   3.228
59630W        W31945   7.491   0.188  14.979
59631W        W31946  35.903   1.910   3.298
59632W        W31947  26.104  30.100   2.231
59633W        W31948  32.991  44.730   2.861
59634W        W31949  20.672  18.272   4.738
59635W        W31950  14.508   9.393   5.106
59636W        W31951  26.564  19.801   1.017
59637W        W31952  15.190  13.707   4.681
59638W        W31953   2.366   7.389   2.451
59639W        W31954  33.787  44.351   4.548
59640W        W31955  29.947   4.249  10.615
59641W        W31956  43.850   9.259  13.419
59642W        W31957  41.677  44.030  13.834
59643W        W31958  11.334   4.148  12.978
59644W        W31959  10.982  28.110   3.255
59645W        W31960  22.568  24.154   3.156
59646W        W31961  28.756  38.836   1.694
59647W        W31962   1.390   9.432  10.920
59648W        W31963  43.643  26.671   1.799
59649W        W31964  35.709   1.332  12.517
59650W        W31965   7.274  10.824  13.113
59651W        W31966  34.595  41.250   2.878
59652W        W31967  11.385  32.559   0.315
59653W        W31968  20.816  25.764   3.896
59654W        W31969  10.167  34.116  11.954
59655W        W31970   9.696   0.017  12.368
59656W        W31971  27.534  25.054   3.514
59657W        W31972   2.960   2.515   1.797
59658W        W31973  16.614  15.745  13.805
59659W        W31974   9.526  40.782   4.236
59660W        W31975   8.598  12.556   2.139
59661W        W31976  42.957  12.837   3.174
59662W        W31977  39.752  10.631   2.662
59663W        W31978  44.286  31.599  12.558
59664W        W31979  29.278   8.765  13.645
59665W        W31980   5.326  36.514  14.772
59666W        W31981  27.879  28.467   2.775
59667W        W31982  27.899  21.268  11.129
59668W        W31983  43.058  44.370  14.616
59669W        W31984   5.124  42.950  11.651
59670W        W31985   9.126  13.002   3.675
59671W        W31986   1.591  22.496   3.148
59672W        W31987  16.053  31.583  10.285
59673W        W31988  17.780  40.007   3.722
59674W        W31989  10.621  38.989  11.096
59675W        W31990  25.667  44.576   0.337
59676W        W31991  25.470  19.515  11.137
59677W        W31992  24.095  12.246  13.682
59678W        W31993  22.684  33.810  14.753
59679W        W31994  19.737  41.754  13.751
59680W        W31995  32.983   7.133  12.585
59681W        W31996  37.998  44.296  11.589
59682W        W31997  38.755  12.134   1.838
59683W        W31998  31.093  19.172   3.281
59684W        W31999   5.329  19.665   0.894
59685W        W32000  39.472  34.371  13.186
59686W        W32001  22.219   2.747  12.388
59687W        W32002  18.618  13.356   4.506
59688W        W32003  23.537   6.309   2.851
59689W        W32004   0.778  22.084  12.917
59690W        W32005  40.960  44.582  14.135
59691W        W32006  38.328   8.384  11.035
59692W        W32007  32.488   6.235  14.111
59693W        W32008  18.770  35.476  11.403
59694W        W32009  15.683  42.020   2.925
59695W        W32010  27.739  21.531  14.440
59696W        W32011  22.725   1.183  13.971
59697W        W32012  24.524  39.462  10.420
59698W        W32013  22.400  31.562   1.710
59699W        W32014  11.247  36.013  14.334
59700W        W32015   1.261  25.992   1.751
59701W        W32016  33.194  17.767   4.586
59702W        W32017  12.656  38.069  14.944
59703W        W32018  16.706  29.959   1.484
59704W        W32019  38.848  17.324   0.044
59705W        W32020   4.829  10.678  10.674
59706W        W32021  41.241   8.152   4.585
59707W        W32022  39.960  39.105   3.165
59708W        W32023  24.497   1.389   1.781
59709W        W32024  30.081  18.149  11.496
59710W        W32025  36.546  32.537   2.367
59711W        W32026  31.948   9.237  11.788
59712W        W32027  30.079  29.423   2.668
59713W        W32028  16.465   2.946   1.842
59714W        W32029   3.250  25.509  14.281
59715W        W32030  11.383  42.354  14.275
59716W        W32031  28.453   3.401  11.980
59717W        W32032  34.376  35.819  10.712
59718W        W32033  35.821  39.952   4.577
59719W        W32034  12.198  43.948   1.449
59720W        W32035  25.167  18.178   2.130
59721W        W32036   6.404  35.981   4.073
59722W        W32037   4.678  29.596   1.069
59723W        W32038   1.324   0.970  11.153
59724W        W32039  29.628  34.139   1.945
59725W        W32040  14.572  21.715   1.935
59726W        W32041  29.593  27.618  10.886
59727W        W32042  42.010   4.207   3.588
59728W        W32043  25.506   1.193  12.140
59729W        W32044  17.623   0.391   4.197
59730W        W32045  16.166  40.491  12.520
59731W        W32046  29.990  35.482   4.638
59732W        W32047  40.269   3.311   4.311
59733W        W32048  38.097  22.786  10.282
59734W        W32049  27.185   1.377  13.454
59735W        W32050   5.442  40.462  14.274
59736W        W32051   0.600  28.068  13.384
59737W        W32052  14.302  21.578  14.423
59738W        W32053  23.818   5.841  12.982
59739W        W32054  31.937  41.312   4.394
59740W        W32055  40.916   9.168  11.209
59741W        W32056  16.135  18.992   0.745
59742W        W32057  13.197  21.545  13.143
59743W        W32058  29.856  22.148   3.302
59744W        W32059  30.942  20.113   4.596
59745W        W32060  17.094  28.215  11.355
59746W        W32061  42.611  19.253   3.326
59747W        W32062   0.193  42.880  12.332
59748W        W32063  24.632  34.607  10.615
59749W        W32064  18.290   2.792  14.187
59750W        W32065  31.577  14.205   1.897
59751W        W32066   8.433  12.800  12.562
59752W        W32067   4.032  26.711   3.803
59753W        W32068  39.032  24.357  10.304
59754W        W32069  44.015  36.925  13.922
59755W        W32070   3.243  15.276   3.922
59756W        W32071  22.202  37.577  11.016
59757W        W32072  32.580  40.060  14.840
59758W        W32073  38.976   7.594  10.317
59759W        W32074  12.311  39.277   3.624
59760W        W32075  16.084  39.845  13.360
59761W        W32076  26.285   1.012  10.780
59762W        W32077  17.226  38.894   1.391
59763W        W32078  14.883  24.734   2.399
59764W        W32079  43.868   4.280  13.505
59765W        W32080  25.238  26.602   1.317
59766W        W32081  15.694  30.951   2.684
59767W        W32082  36.990  28.209  13.833
59768W        W32083  10.260  34.890   3.750
59769W        W32084  15.151  36.145  13.582
59770W        W32085  32.607  38.278  13.561
59771W        W32086  28.478  11.318  11.532
59772W        W32087   6.325   3.658   2.306
59773W        W32088  38.354  42.690   3.189
59774W        W32089  39.065   6.461  11.162
59775W        W32090  16.973  20.905   3.400
59776W        W32091  32.899  36.563   3.331
59777W        W32092  19.126  15.663  13.977
59778W        W32093  35.074   7.119  12.482
59779W        W32094  43.204  23.148   0.463
59780W        W32095  22.928  27.111   0.480
59781W        W32096  32.574  16.060  14.346
59782W        W32097  30.200  20.064  14.239
59783W        W32098  43.057  13.758   2.347
59784W        W32099  29.468   1.805   4.180
59785W        W32100  15.102   5.309  10.579
59786W        W32101  22.072   9.088  13.864
59787W        W32102  36.054  24.660   3.742
59788W        W32103  16.350  28.085   5.003
59789W        W32104   5.809  18.935   2.353
59790W        W32105  20.083  27.677  12.916
59791W        W32106  40.290  14.661  11.502
59792W        W32107  27.973   3.951   3.147
59793W        W32108  11.476  30.797   2.839
59794W        W32109   5.284  27.702   2.822
59795W        W32110  32.883  24.672   4.267
59796W        W32111  25.093  37.888   4.317
59797W        W32112  34.835  32.659   4.076
59798W        W32113  30.427  14.302  12.949
59799W        W32114  33.690   2.451   1.288
59800W        W32115  44.079  40.600   3.814
59801W        W32116  26.270  44.960   1.034
59802W        W32117   7.377  37.482  12.420
59803W        W32118  33.705  40.691  11.068
59804W        W32119   4.125  44.907   1.466
59805W        W32120  27.262  39.066  12.040
59806W        W32121   1.324  16.623   3.652
59807W        W32122   6.646  15.172  11.541
59808W        W32123  41.294   8.824   1.964
59809W        W32124  35.338  12.576  13.437
59810W        W32125  42.250  14.568   0.059
59811W        W32126  26.725  11.255   0.768
59812W        W32127  36.498  32.480  14.485
59813W        W32128  41.114  43.443   1.122
59814W        W32129  44.999  12.790  14.435
59815W        W32130  43.477   7.648  12.666
59816W        W32131   2.236  10.686  13.344
59817W        W32132   9.539   3.093   1.283
59818W        W32133   8.195  35.586  12.534
59819W        W32134  25.587  30.974   3.806
59820W        W32135   6.939  35.239   1.769
59821W        W32136  41.764  18.606  14.704
59822W        W32137  11.199  11.196  11.072
59823W        W32138  21.096   6.446   0.148
59824W        W32139   8.162  38.126   2.062
59825W        W32140  32.588  23.384   0.828
59826W        W32141   9.535  11.102   0.433
59827W        W32142  31.500   9.560   0.712
59828W        W32143  22.620  19.178  12.989
59829W        W32144  37.773  21.915  11.691
59830W        W32145  26.487  37.491  11.365
59831W        W32146  18.233  22.045  11.978
59832W        W32147  12.778  34.626  14.893
59833W        W32148   2.361  17.111  12.451
59834W        W32149  15.591  13.711   4.287
59835W        W32150  14.506  26.214   3.087
59836W        W32151  43.984  30.975   3.374
59837W        W32152  39.096  27.136   2.609
59838W        W32153  31.597   8.456  10.721
59839W        W32154   1.318  12.817   1.877
59840W        W32155   1.014   8.445   3.709
59841W        W32156  20.115   7.286  12.829
59842W        W32157  31.202  32.028   1.481
59843W        W32158   9.243   0.312  12.352
59844W        W32159  12.870  30.985   1.646
59845W        W32160  17.015   6.099  14.923
59846W        W32161  42.578  11.797  14.379
59847W        W32162   4.687  39.906   4.523
59848W        W32163  43.593   5.336   2.677
59849W        W32164  28.276  29.245  14.246
59850W        W32165  29.492   8.288  11.080
59851W        W32166   8.208  23.753   4.103
59852W        W32167  11.336  21.042  11.191
59853W        W32168  19.767  27.058   1.886
59854W        W32169  38.742   6.290  10.799
59855W        W32170   8.814  20.777   2.869
59856W        W32171  29.554  15.771  11.909
59857W        W32172  40.978  25.951   2.694
59858W        W32173  11.648  26.800  10.678
59859W        W32174  24.989  19.037   2.303
59860W        W32175  21.376  30.023   4.543
59861W        W32176  22.001  39.905   3.229
59862W        W32177  11.330  14.342  12.005
59863W        W32178  41.802   4.495   3.178
59864W        W32179  25.276  31.926   0.261
59865W        W32180  16.165  20.691   3.395
59866W        W32181  31.677  17.602  12.830
59867W        W32182  20.743  32.112   0.988
59868W        W32183  18.898  25.443   2.230
59869W        W32184  23.967  42.727   5.016
59870W        W32185  27.952   9.285  13.619
59871W        W32186  25.910  30.437  12.378
59872W        W32187  21.003  14.846  13.338
59873W        W32188  43.451  39.836   0.717
59874W        W32189  18.707  19.658  11.910
59875W        W32190  32.558  21.696  11.443
59876W        W32191   9.879  31.543   0.473
59877W        W32192   6.957   8.782  14.227
59878W        W32193   3.857  30.115  11.189
59879W        W32194  24.504   6.852   4.301
59880W        W32195  13.340  34.579   1.855
59881W        W32196  43.084  17.999   3.703
59882W        W32197  35.129  13.092   1.882
59883W        W32198  19.323  24.871  12.180
59884W        W32199   2.473  43.926   0.363
59885W        W32200   7.833  37.423   3.212
59886W        W32201  15.861  35.431   3.616
59887W        W32202  37.444  14.813   4.132
59888W        W32203   7.619  22.545   4.338
59889W        W32204  32.786  25.574  12.369
59890W        W32205  23.664   0.599   4.959
59891W        W32206  21.092  22.136   1.662
59892W        W32207   7.597  19.276   1.640
59893W        W32208  12.824  15.058   0.528
59894W        W32209  16.860  33.400  12.513
59895W        W32210  10.235  23.612  11.640
59896W        W32211  16.224  21.075   0.277
59897W        W32212  21.681  11.832   1.787
59898W        W32213   6.459  13.243   4.054
59899W        W32214   3.317   7.726   1.244
59900W        W32215  22.549  11.665   2.294
59901W        W32216  14.178  14.818   0.272
59902W        W32217  25.636   9.332   4.261
59903W        W32218   8.103  34.515  14.356
59904W        W32219  13.654  28.088  14.500
59905W        W32220   1.943  11.880   0.650
59906W        W32221  37.991  13.825  11.525
59907W        W32222  11.478  19.896  14.046
59908W        W32223   9.192  44.518  11.951
59909W        W32224  22.549   0.001  11.639
59910W        W32225  24.637  15.280   2.113
59911W        W32226   0.871  37.340  12.678
59912W        W32227  33.957   2.436   2.377
59913W        W32228  14.635  40.941   0.418
59914W        W32229  11.621   0.930   9.992
59915W        W32230  27.157  32.885   4.198
59916W        W32231  23.739  26.746   9.954
59917W        W32232  39.099   9.829  12.025
59918W        W32233   8.289   8.823   1.684
59919W        W32234   1.465  35.877   3.720
59920W        W32235  20.069   9.728   4.166
59921W        W32236  18.887   7.772  14.385
59922W        W32237  37.958  40.490  14.766
59923W        W32238  43.812   3.357   4.608
59924W        W32239  40.786  39.560   0.916
59925W        W32240  15.261  30.257   2.221
59926W        W32241  10.593   6.628  10.672
59927W        W32242  37.370  15.092  14.067
59928W        W32243   6.806  13.202  14.839
59929W        W32244  21.546  18.683   0.579
59930W        W32245  21.672  40.267  12.448
59931W        W32246  12.857  43.350  10.604
59932W        W32247  14.897  40.413  13.421
59933W        W32248  40.117   6.351   1.017
59934W        W32249  24.191  37.059  10.637
59935W        W32250  35.575  24.151   1.652
59936W        W32251   4.201  38.106  14.917
59937W        W32252  41.631  36.278   3.641
59938W        W32253  40.081  30.976   0.755
59939W        W32254  43.288  20.087   0.421
59940W        W32255  41.502  25.286  12.480
59941W        W32256  20.682  32.082  14.944
59942W        W32257  20.327  11.398  10.542
59943W        W32258  17.846  35.460  11.524
59944W        W32259  42.055  39.999  13.782
59945W        W32260   2.166  22.284   3.178
59946W        W32261  27.892   3.308   2.148
59947W        W32262  33.397  17.099  13.084
59948W        W32263  15.545  42.358  11.980
59949W        W32264  31.107  44.695  12.786
59950W        W32265  30.635  32.685  12.174
59951W        W32266  33.850  16.182   0.507
59952W        W32267  22.187  20.795  11.144
59953W        W32268  20.829  16.347  10.714
59954W        W32269  17.993  21.773  14.879
59955W        W32270  20.561   9.197   2.828
59956W        W32271  11.315  11.632   5.314
59957W        W32272  26.626  27.895   0.822
59958W        W32273   5.332   6.393  14.863
59959W        W32274  13.674  32.277  11.659
59960W        W32275  34.968   3.878  13.349
59961W        W32276  33.124  31.821  13.051
59962W        W32277  18.213  19.767   2.813
59963W        W32278  29.073  15.538   3.118
59964W        W32279  20.958  39.456  13.989
59965W        W32280  14.555  30.130  11.117
59966W        W32281  28.990  26.018  12.007
59967W        W32282  29.236   1.206  13.059
59968W        W32283  35.006  22.090   3.324
59969W        W32284  20.717  12.127  12.553
59970W        W32285  32.173  39.852  11.669
59971W        W32286   1.488  11.885   5.024
59972W        W32287  40.125  37.773   0.758
59973W        W32288   0.408  28.427   1.529
59974W        W32289  41.059  35.832   2.945
59975W        W32290  25.442  33.900   9.741
59976W        W32291   4.409  41.403  12.456
59977W        W32292   4.251   7.786   0.285
59978W        W32293  35.360  41.071   1.357
59979W        W32294  40.466  41.422   2.239
59980W        W32295   5.337   1.916   0.400
59981W        W32296   8.411  15.140   1.422
59982W        W32297  25.150   4.402  13.800
59983W        W32298  16.562  28.562  14.816
59984W        W32299   4.827   6.536   0.099
59985W        W32300  18.285  16.714  13.073
59986W        W32301   2.896  41.322   4.408
59987W        W32302  20.414   4.858  13.912
59988W        W32303  23.893  14.063  13.871
59989W        W32304  29.981   0.385  13.423
59990W        W32305  36.120  41.783   0.865
59991W        W32306  37.184  36.501   2.818
59992W        W32307  31.660  41.799  13.447
59993W        W32308   7.350  31.064   1.885
59994W        W32309   7.904   3.691   0.456
59995W        W32310  33.315  13.736  12.819
59996W        W32311  14.847   9.730   4.289
59997W        W32312  36.311  34.876   1.272
59998W        W32313   4.889   6.261  12.124
59999W        W32314  36.458  29.167   1.188
60000W        W32315  39.088  37.954  12.364
60001W        W32316   3.499  36.073  11.576
60002W        W32317  44.444   0.255  14.185
60003W        W32318   7.396  13.614  12.078
60004W        W32319  29.983  36.353   0.503
60005W        W32320  19.844  33.425   2.261
60006W        W32321  39.812   3.340  12.096
60007W        W32322  41.142  32.618  11.013
60008W        W32323  32.663  32.120  13.014
60009W        W32324  40.849  31.184   0.282
60010W        W32325  28.188  23.215   1.232
60011W        W32326  39.896  31.008  12.585
60012W        W32327  18.332  22.053  13.868
60013W        W32328  24.583  20.521  14.425
60014W        W32329  42.073  21.033  11.017
60015W        W32330  16.959  16.560  14.504
60016W        W32331  28.017  17.178   2.891
60017W        W32332  19.170   0.625   4.260
60018W        W32333  40.881  27.164  14.918
60019W        W32334  41.446  12.396  10.388
60020W        W32335  23.734  30.921  11.612
60021W        W32336   7.830   6.675   2.013
60022W        W32337   6.281  33.901  10.965
60023W        W32338  18.150  10.262  13.484
60024W        W32339   8.742  27.069   0.375
60025W        W32340   7.242  43.348  14.658
60026W        W32341  26.458  43.593   1.328
60027W        W32342   5.147  42.344   3.347
60028W        W32343  42.474  44.392   0.931
60029W        W32344  28.282  21.276  14.460
60030W        W32345  38.063  31.879  10.559
60031W        W32346  16.074  37.935   4.316
60032W        W32347  21.267  13.041   3.260
60033W        W32348  14.111   3.235  11.593
60034W        W32349  13.048  15.119  11.462
60035W        W32350  14.794  11.186   3.114
60036W        W32351  41.720  28.540  12.618
60037W        W32352  42.538  14.722  11.502
60038W        W32353  25.867  29.393  11.810
60039W        W32354   7.269  23.912  14.284
60040W        W32355   7.746  32.331   2.809
60041W        W32356  13.075  26.475   1.824
60042W        W32357  29.076  21.389  13.669
60043W        W32358  38.968  35.825  14.196
60044W        W32359   4.349  43.278   1.669
60045W        W32360  38.513  17.000   0.302
60046W        W32361   2.260   4.644  11.903
60047W        W32362   4.110  15.062  11.951
60048W        W32363  14.384  16.704   2.662
60049W        W32364  33.526  39.018  11.860
60050W        W32365  29.379   8.800   3.729
60051W        W32366   1.967  40.452   0.828
60052W        W32367  38.159  27.527  10.333
60053W        W32368  31.568   0.680  10.645
60054W        W32369  29.651  21.825   4.806
60055W        W32370   1.006  25.539   2.771
60056W        W32371   2.736  28.143   3.497
60057W        W32372   6.322  30.343   1.798
60058W        W32373  18.178  20.705  11.124
60059W        W32374  29.166  19.649   0.612
60060W        W32375  36.611  31.184  12.972
60061W        W32376  39.868   8.807  11.610
60062W        W32377  15.759  39.067  14.533
60063W        W32378  42.215  28.189   0.841
60064W        W32379  24.641  35.089   0.306
60065W        W32380  29.032  32.960  10.552
60066W        W32381   8.860  27.432   3.667
60067W        W32382   8.724  41.957  13.630
60068W        W32383   3.064  42.063   2.165
60069W        W32384  33.957  23.579  11.711
60070W        W32385  44.957  30.908   1.865
60071W        W32386  29.249  14.224  11.540
60072W        W32387  15.349  28.243  10.205
60073W        W32388   6.119  37.852  12.836
60074W        W32389  28.443   7.168   2.143
60075W        W32390  14.191  22.675   3.660
60076W        W32391   8.406  30.470   3.093
60077W        W32392  13.850   9.745   1.625
60078W        W32393  30.900  41.036   1.133
60079W        W32394  33.547   8.677   0.832
60080W        W32395   4.374   9.087  13.396
60081W        W32396  15.550  20.721   1.467
60082W        W32397  31.435   6.214   2.357
60083W        W32398  10.823   5.420  12.891
60084W        W32399  19.322  14.320   3.036
60085W        W32400  17.768  28.209  10.760
60086W        W32401   5.715  25.932  12.164
60087W        W32402  18.115  23.515  10.683
60088W        W32403  26.184  34.583   3.432
60089W        W32404  13.306  19.313  12.620
60090W        W32405  30.138  10.159   2.124
60091W        W32406  40.622  17.603   3.055
60092W        W32407   9.938   4.366   1.704
60093W        W32408  36.965  29.868   0.262
60094W        W32409  38.895   5.874  12.016
60095W        W32410  14.263  21.899   4.354
60096W        W32411  37.854   6.729   1.955
60097W        W32412  23.053   5.942  13.941
60098W        W32413  32.604  37.571  12.497
60099W        W32414  25.481  14.114  11.538
60100W        W32415  23.773  36.928  12.859
60101W        W32416  41.249  30.721  11.634
60102W        W32417  39.999  14.216   2.461
60103W        W32418  17.444   8.282  10.281
60104W        W32419  42.925  18.667  14.366
60105W        W32420   9.762  35.854  14.765
60106W        W32421  25.198  26.083  11.943
60107W        W32422  13.109  43.357  11.108
60108W        W32423   4.446  12.389  12.550
60109W        W32424  32.966  10.708   2.453
60110W        W32425   2.486  40.288   2.096
60111W        W32426  17.305  22.690   3.556
60112W        W32427  12.686  18.508  13.388
60113W        W32428  44.369  21.273  10.673
60114W        W32429  23.542  24.177  11.598
60115W        W32430  30.400  13.573   1.028
60116W        W32431  10.196  25.018  11.646
60117W        W32432  41.925  19.049  12.889
60118W        W32433   7.275  33.107  13.553
60119W        W32434  27.457  37.748   4.214
60120W        W32435  38.921   3.295  12.188
60121W        W32436  37.557   5.290  13.825
60122W        W32437  31.000  29.698   2.259
60123W        W32438  20.643  28.890  12.824
60124W        W32439  42.579  40.561   1.336
60125W        W32440  12.491   1.248   3.754
60126W        W32441   9.256   2.370  11.009
60127W        W32442   9.658  32.012   0.343
60128W        W32443  19.085  18.120   3.073
60129W        W32444  30.426  28.377  12.073
60130W        W32445   3.411  41.881  14.899
60131W        W32446  27.737   9.285   0.908
60132W        W32447  37.374  17.364   4.600
60133W        W32448  36.840  34.863   3.689
60134W        W32449  32.388  36.603   4.101
60135W        W32450  42.270  15.643   3.047
60136W        W32451  31.052   7.444  12.766
60137W        W32452  23.696  39.498  13.815
60138W        W32453  44.554   0.511   3.637
60139W        W32454  22.046  36.537   3.995
60140W        W32455  12.117  44.846  11.531
60141W        W32456  15.307  18.718  13.542
60142W        W32457  32.939  35.942   4.488
60143W        W32458  26.963   8.148   0.982
60144W        W32459   3.175  21.229  12.008
60145W        W32460  40.913  15.658  14.971
60146W        W32461  40.370   0.562  11.045
60147W        W32462  18.383  35.874  12.902
60148W        W32463  24.153  42.432   3.333
60149W        W32464  16.481  39.397   1.695
60150W        W32465  44.998  22.494   1.248
60151W        W32466  27.476  31.911  14.290
60152W        W32467   6.402  32.971   2.800
60153W        W32468   2.664  28.999  12.922
60154W        W32469  28.568   6.250  14.493
60155W        W32470  32.357  18.621   0.857
60156W        W32471   6.459  41.556  12.037
60157W        W32472  14.834  40.522  11.529
60158W        W32473  17.281  25.723   0.004
60159W        W32474  26.764  24.300   5.002
60160W        W32475  19.336  23.988  12.448
60161W        W32476  24.030  16.116  10.774
60162W        W32477  30.959  30.525  14.921
60163W        W32478  39.103  25.394   0.444
60164W        W32479  12.165  34.771   4.235
60165W        W32480  35.569  13.279   2.801
60166W        W32481  15.744  31.217  14.375
60167W        W32482  30.132  27.652   3.710
60168W        W32483   1.447   8.902  10.959
60169W        W32484  10.634  14.632  13.837
60170W        W32485   5.369  23.257  13.001
60171W        W32486  11.073  43.961   0.023
60172W        W32487  25.628  31.924  13.115
60173W        W32488  15.681   8.635   1.382
60174W        W32489   8.252  20.833   3.233
60175W        W32490  23.539  15.720  14.373
60176W        W32491  10.254   5.125   0.802
60177W        W32492   8.424  37.328  14.342
60178W        W32493  38.840  32.053   4.995
60179W        W32494  21.739  39.004  14.773
60180W        W32495  27.604  44.863  12.030
60181W        W32496   1.875   1.449   2.722
60182W        W32497   1.700  35.784  14.968
60183W        W32498  44.391  36.644   2.820
60184W        W32499  26.592   6.929  10.520
60185W        W32500   5.246  20.759   3.413
60186W        W32501   1.550  42.428  13.492
60187W        W32502  15.258  28.995  13.801
60188W        W32503  20.368  42.346  10.418
60189W        W32504   4.267  34.531   3.391
60190W        W32505   4.321  33.485  14.209
60191W        W32506  12.292  10.567  13.968
60192W        W32507  43.258   9.297   2.649
60193W        W32508  11.355  18.703  14.091
60194W        W32509  11.449  24.748  13.014
60195W        W32510   2.061  37.265   3.443
60196W        W32511   6.759  11.543  13.967
60197W        W32512  10.140  12.094  12.504
60198W        W32513  38.496  31.393   2.601
60199W        W32514  15.173   8.884  13.566
60200W        W32515   1.807  22.778   0.948
60201W        W32516  32.515  11.750  13.989
60202W        W32517   8.165  27.003   0.313
60203W        W32518  34.279  15.543   1.951
60204W        W32519   8.153  32.092   3.353
60205W        W32520  27.122  24.099   0.457
60206W        W32521  43.772  24.365   0.241
60207W        W32522  34.807   4.386  13.392
60208W        W32523  44.572  28.245  12.305
60209W        W32524   9.752  21.237  10.381
60210W        W32525  42.701  24.596  11.085
60211W        W32526  43.105  32.638  13.270
60212W        W32527  43.187  36.816  11.659
60213W        W32528  26.429  40.029   0.801
60214W        W32529  19.097   3.415   2.150
60215W        W32530   3.201  21.630   3.864
60216W        W32531  21.991  35.076  10.478
60217W        W32532  27.485   7.845  13.106
60218W        W32533  28.495  35.504   0.900
60219W        W32534  13.319   3.430   4.356
60220W        W32535  14.982  28.641   9.991
60221W        W32536  13.571  30.483   0.309
60222W        W32537  23.433  30.129   2.162
60223W        W32538   1.130   8.130  10.801
60224W        W32539  33.835  11.449   3.188
60225W        W32540  11.365  14.365   2.784
60226W        W32541   6.024  42.589  12.594
60227W        W32542  30.238  43.547   1.376
60228W        W32543  37.423  44.780  14.843
60229W        W32544  30.055  43.612  12.076
60230W        W32545   3.888  42.771   2.271
60231W        W32546   9.603  17.475   2.681
60232W        W32547  13.650   9.830  13.870
60233W        W32548  27.085  27.982   0.477
60234W        W32549   7.635  30.875  12.459
60235W        W32550  29.550  31.184   1.860
60236W        W32551  13.073   8.846   3.166
60237W        W32552  18.199  18.304   2.705
60238W        W32553  10.255  31.179   0.819
60239W        W32554   8.859  27.572   0.240
60240W        W32555   2.710  30.674  13.805
60241W        W32556  25.311  42.531   1.498
60242W        W32557   7.684  12.305   0.774
60243W        W32558  10.566  16.614   0.507
60244W        W32559  28.644  27.489   3.782
60245W        W32560  36.263   4.873   0.741
60246W        W32561   2.760  14.528  11.193
60247W        W32562  14.689  20.138  11.997
60248W        W32563  22.480  44.278  14.933
60249W        W32564   6.410  20.317   0.464
60250W        W32565  13.525   4.526  14.237
60251W        W32566  29.896   5.846  11.213
60252W        W32567  19.043  21.436  13.539
60253W        W32568   9.240  18.459  12.498
60254W        W32569  26.296  17.085  11.114
60255W        W32570  17.574   5.824  13.555
60256W        W32571  15.870  44.452  10.687
60257W        W32572   3.755  14.727   4.541
60258W        W32573  25.530   5.188   0.860
60259W        W32574  13.355  39.125  13.855
60260W        W32575  21.305  11.326  10.711
60261W        W32576   4.604   8.736  11.087
60262W        W32577  31.388  15.541   4.152
60263W        W32578   6.236   3.921  14.627
60264W        W32579  27.465   6.185  13.733
60265W        W32580   5.750  41.418  11.558
60266W        W32581  14.157   2.886   3.275
60267W        W32582  19.692  11.649  10.498
60268W        W32583  39.343  10.232  12.813
60269W        W32584  41.337  10.317  13.358
60270W        W32585  26.558  26.217  11.037
60271W        W32586   1.954   7.835   0.858
60272W        W32587  39.703  19.683  12.930
60273W        W32588   1.231  16.536   2.767
60274W        W32589  16.082  25.861  11.696
60275W        W32590  17.757  32.708   0.738
60276W        W32591  41.250  11.890  11.945
60277W        W32592  18.759  37.138   1.020
60278W        W32593  21.978  38.571   2.514
60279W        W32594  33.226  41.803   4.133
60280W        W32595  42.513   7.635   4.899
60281W        W32596   2.808  43.682  14.472
60282W        W32597   4.998  26.325   1.736
60283W        W32598  35.664   8.793   1.570
60284W        W32599  35.954   9.213   1.691
60285W        W32600  43.987  33.363  14.519
60286W        W32601  30.862  25.160   4.486
60287W        W32602  16.344  37.409  13.535
60288W        W32603  44.190  10.612   4.622
60289W        W32604  20.113   6.223  13.994
60290W        W32605  40.759  28.729   1.408
60291W        W32606  13.574  44.941   1.867
60292W        W32607  12.942  34.572  10.888
60293W        W32608  22.728   6.786   0.509
60294W        W32609   6.827   5.856  11.090
60295W        W32610  42.998  37.516  14.871
60296W        W32611   4.804  38.633  10.145
60297W        W32612  17.612  17.630  11.124
60298W        W32613  32.729  44.729  13.417
60299W        W32614  18.830  22.311   4.227
60300W        W32615  34.842  14.082   1.760
60301W        W32616   9.606  24.230   0.847
60302W        W32617   4.880  34.838  12.569
60303W        W32618  19.193  18.857   2.602
60304W        W32619   1.442  20.833   1.985
60305W        W32620  28.426  16.890  12.449
60306W        W32621  33.596  25.459  12.030
60307W        W32622  16.828  44.596  11.558
60308W        W32623  32.312  10.666   1.868
60309W        W32624  35.438  26.184  11.987
60310W        W32625   8.249  19.274  11.241
60311W        W32626   6.327  12.466   4.514
60312W        W32627   8.471  41.017   4.174
60313W        W32628   5.931  42.948   1.200
60314W        W32629  29.628  21.023   1.059
60315W        W32630  35.280  16.826   3.182
60316W        W32631  15.266  39.202  12.867
60317W        W32632  30.882  27.581   2.711
60318W        W32633  29.771   2.949   1.839
60319W        W32634   7.719  33.878   0.970
60320W        W32635   8.202  11.393   3.563
60321W        W32636   2.627  23.813  11.138
60322W        W32637  22.030  21.070  10.585
60323W        W32638  41.541   4.204   2.710
60324W        W32639  28.605   7.425  14.390
60325W        W32640  21.348   8.664  11.598
60326W        W32641  38.908  25.163   2.431
60327W        W32642  20.170  21.817   0.454
60328W        W32643  26.071   2.698  13.082
60329W        W32644  23.532  42.512   2.706
60330W        W32645   6.803  44.691   3.710
60331W        W32646  17.826  17.789   3.328
60332W        W32647  43.307  15.231   1.205
60333W        W32648  36.052  20.250   2.803
60334W        W32649  10.404  38.333   0.815
60335W        W32650  29.416   0.918   0.053
60336W        W32651  24.967  41.440  12.117
60337W        W32652  39.157  33.828  12.078
60338W        W32653  37.338  13.733  11.942
60339W        W32654  15.128  28.593  12.405
60340W        W32655  10.867  15.678  12.174
60341W        W32656  13.352  37.776  11.135
60342W        W32657   4.881   9.360  13.011
60343W        W32658  25.141  15.558  13.870
60344W        W32659   9.142  35.840   9.999
60345W        W32660  15.542   3.990   4.186
60346W        W32661  24.146  18.629  14.011
60347W        W32662  40.089  33.764  10.197
60348W        W32663  20.317   1.582   1.253
60349W        W32664  17.091   6.807  12.590
60350W        W32665   7.581  18.810  14.877
60351W        W32666  39.563  23.747  13.009
60352W        W32667   7.261   7.947  12.864
60353W        W32668  36.310  39.540  11.454
60354W        W32669  12.094  28.911   4.542
60355W        W32670  10.781  28.715   4.082
60356W        W32671  35.351  31.893   2.280
60357W        W32672  24.701   5.021   4.267
60358W        W32673   1.501  33.823  13.997
60359W        W32674   0.080   3.496   1.718
60360W        W32675  37.652   0.877  13.435
60361W        W32676   6.289   9.379  14.840
60362W        W32677  30.764  10.184   1.342
60363W        W32678  23.871   8.156  11.970
60364W        W32679   2.477  40.418   1.569
60365W        W32680  40.487  37.618   5.181
60366W        W32681  35.040  34.155   0.300
60367W        W32682  12.739  21.594   5.066
60368W        W32683   8.931  24.119  10.614
60369W        W32684  19.877   0.483  13.739
60370W        W32685  18.297  24.103  13.940
60371W        W32686  22.809  24.969   0.958
60372W        W32687  13.087  12.606  13.149
60373W        W32688  26.583   7.697   4.626
60374W        W32689  10.917  44.423   3.689
60375W        W32690   6.624  36.916   2.338
60376W        W32691  35.174  21.588   4.267
60377W        W32692  20.522  12.414   2.237
60378W        W32693   8.507  21.112  12.582
60379W        W32694  39.479  18.730   2.251
60380W        W32695  35.087  17.994   1.803
60381W        W32696  29.920   1.281  10.463
60382W        W32697  20.388  40.956  11.957
60383W        W32698  26.584  32.148  13.017
60384W        W32699  17.217  42.986   4.309
60385W        W32700  43.498  38.921  10.310
60386W        W32701  12.136  16.098   4.601
60387W        W32702  23.260   3.102   2.691
60388W        W32703  22.662   0.226  12.913
60389W        W32704  10.670  11.264  12.823
60390W        W32705  17.036  24.427   2.694
60391W        W32706  19.768  18.600  10.713
60392W        W32707   9.742  20.057  14.495
60393W        W32708  23.494  19.287   1.308
60394W        W32709  39.499   0.625   3.221
60395W        W32710  36.234  39.880   3.286
60396W        W32711  42.409  14.061  10.824
60397W        W32712  22.516  32.179   0.948
60398W        W32713  23.111  13.567  11.020
60399W        W32714  16.849  29.583  14.741
60400W        W32715  30.480  36.644   0.295
60401W        W32716   4.492  19.344   1.218
60402W        W32717  16.676  20.356   0.008
60403W        W32718  16.984  36.072   1.224
60404W        W32719  11.179  33.831   0.848
60405W        W32720  27.604  32.397  11.089
60406W        W32721  30.944  35.451   2.256
60407W        W32722  11.604  15.652  14.311
60408W        W32723  19.694  24.083  10.715
60409W        W32724  13.806  18.810   2.230
60410W        W32725  24.928  12.172  14.562
60411W        W32726  21.557  40.100  13.879
60412W        W32727  30.559  33.680   2.747
60413W        W32728   1.382  39.306  13.525
60414W        W32729  20.421  28.484   3.608
60415W        W32730  34.758  37.956   2.807
60416W        W32731  13.479  40.978  10.574
60417W        W32732  35.250  25.602  10.927
60418W        W32733  29.442   5.972   0.861
60419W        W32734  24.212  10.929   1.344
60420W        W32735  13.661  28.424  10.778
60421W        W32736  21.819  40.294  13.451
60422W        W32737  44.895  16.276  11.726
60423W        W32738   9.326  24.058  11.408
60424W        W32739   8.213  12.187   3.247
60425W        W32740  39.429  13.258  13.548
60426W        W32741  29.460  20.527   1.193
60427W        W32742  31.931  43.326   1.855
60428W        W32743   5.281  11.348  11.180
60429W        W32744  37.781  24.238  12.136
60430W        W32745  38.410  30.714   0.257
60431W        W32746   8.891  16.963   0.806
60432W        W32747  14.370  33.069   1.020
60433W        W32748  38.982   0.218   1.852
60434W        W32749   7.336   4.977   1.908
60435W        W32750  14.326   8.166   2.336
60436W        W32751  21.911  11.917   2.930
60437W        W32752  40.916  43.977   2.451
60438W        W32753   5.334  40.918   4.861
60439W        W32754  39.628  41.372   0.800
60440W        W32755   1.719  27.185   3.684
60441W        W32756  18.564  37.790   3.108
60442W        W32757  37.302  43.362  14.377
60443W        W32758  30.649  30.382  14.383
60444W        W32759  21.368  44.381   1.587
60445W        W32760  18.977   8.616   1.753
60446W        W32761   3.257  31.745  13.480
60447W        W32762  36.433  34.907  14.510
60448W        W32763  23.560  19.242  12.018
60449W        W32764   4.440  22.196  11.596
60450W        W32765  23.658  41.388  14.489
60451W        W32766  12.808  25.982  10.388
60452W        W32767   0.541   8.655  12.925
60453W        W32768   6.770  22.663  10.627
60454W        W32769   9.237  30.138   4.903
60455W        W32770  40.513  30.847  14.402
60456W        W32771  22.650  22.024   0.933
60457W        W32772  44.204  28.082  12.018
60458W        W32773  35.085  14.285   1.348
60459W        W32774   5.228  43.097   1.841
60460W        W32775  44.716  10.902  12.116
60461W        W32776  41.798  24.565  13.854
60462W        W32777  35.014  21.980   0.719
60463W        W32778  29.252  21.229   0.747
60464W        W32779   9.779  14.599  13.544
60465W        W32780  20.631  35.596   1.223
60466W        W32781  18.207   2.411  10.970
60467W        W32782   8.887  30.885  11.555
60468W        W32783  15.878   4.740  14.367
60469W        W32784  19.017   7.458   0.680
60470W        W32785   1.391  41.725   2.412
60471W        W32786  30.189  14.178  12.507
60472W        W32787  23.362   9.039  12.106
60473W        W32788  31.184  36.456   1.326
60474W        W32789   0.589  15.172   1.670
60475W        W32790   4.170  16.368   0.805
60476W        W32791  23.943   2.413  10.568
60477W        W32792   7.828  10.359   2.131
60478W        W32793   5.228  34.848   4.197
60479W        W32794  10.328  35.515   4.207
60480W        W32795  34.327  16.660  14.900
60481W        W32796  34.856  11.183   1.249
60482W        W32797  44.796  35.636   2.465
60483W        W32798  27.262  32.890  10.400
60484W        W32799  29.973  30.252  11.987
60485W        W32800  40.945  12.288  14.902
60486W        W32801   7.811   0.049  13.978
60487W        W32802   3.109  30.482   4.796
60488W        W32803  15.193  30.094   3.280
60489W        W32804  36.014  28.443   0.708
60490W        W32805  31.701  44.487   3.208
60491W        W32806   0.880   1.407   4.020
60492W        W32807  29.360  10.465  12.412
60493W        W32808  16.087   5.922   0.880
60494W        W32809  10.844   9.761   1.862
60495W        W32810  44.205  15.225  11.126
60496W        W32811  10.280  14.132   4.550
60497W        W32812  40.937  36.831   2.256
60498W        W32813   0.899   1.464  14.392
60499W        W32814   4.881   3.921   2.589
60500W        W32815   1.506  23.153  11.897
60501W        W32816  35.475   2.188  11.140
60502W        W32817  20.137  35.359   4.141
60503W        W32818   5.835  37.552  10.656
60504W        W32819  41.899  12.373  10.979
60505W        W32820   0.894  39.379  11.439
60506W        W32821  17.457  21.366  12.901
60507W        W32822  30.968  27.104   2.917
60508W        W32823  13.799   7.416   1.342
60509W        W32824  27.518  40.680  11.454
60510W        W32825   4.917   5.477  13.773
60511W        W32826  31.867  33.711   1.867
60512W        W32827  25.122  23.783  10.794
60513W        W32828  17.552  22.744  11.868
60514W        W32829  13.823  26.670   3.770
60515W        W32830  16.587  18.477   1.863
60516W        W32831  26.089   3.983   4.065
60517W        W32832   5.237  43.410   4.178
60518W        W32833  19.320   6.928  11.068
60519W        W32834   8.858  38.461   1.422
60520W        W32835  38.963  34.856  11.185
60521W        W32836  18.578   9.082   0.522
60522W        W32837   9.194  29.622   3.237
60523W        W32838  41.887  13.536  11.744
60524W        W32839  10.141  42.013   2.865
60525W        W32840  13.238  35.371  13.112
60526W        W32841  40.437  24.389  10.624
60527W        W32842   7.353  28.510  13.264
60528W        W32843  18.981  15.642  13.498
60529W        W32844  36.272  17.388   4.173
60530W        W32845  11.186  14.101  12.434
60531W        W32846   2.658  28.588  12.143
60532W        W32847  11.118  44.405  13.045
60533W        W32848   6.734  12.562   3.999
60534W        W32849  10.333  18.445  14.416
60535W        W32850   7.302  10.091  11.945
60536W        W32851  31.228   2.089   0.262
60537W        W32852  40.252   5.171   0.011
60538W        W32853  13.663   4.481   0.789
60539W        W32854  25.686  32.067   4.674
60540W        W32855  33.472  32.069   9.976
60541W        W32856  40.397  44.539   5.161
60542W        W32857   8.270  38.793   3.584
60543W        W32858  22.148   8.383   4.056
60544W        W32859  12.607   4.950   1.410
60545W        W32860  20.953  21.309   2.260
60546W        W32861   5.717  39.461   2.728
60547W        W32862  42.289  28.108  10.588
60548W        W32863  33.025   9.221  13.427
60549W        W32864  15.996  11.683  14.316
60550W        W32865  17.061  13.116  14.289
60551W        W32866  39.830  24.691  14.059
60552W        W32867  39.718  28.025   4.593
60553W        W32868   2.234   4.344   2.868
60554W        W32869  15.898  32.124   5.232
60555W        W32870  17.691   2.535   4.597
60556W        W32871  33.106  26.951  11.568
60557W        W32872  23.565  29.579   3.332
60558W        W32873   3.344  37.571  13.287
60559W        W32874  24.073   7.236   3.131
60560W        W32875  36.115  39.438   0.172
60561W        W32876  22.583   5.787   2.324
60562W        W32877  13.502  15.816   4.562
60563W        W32878  15.879  13.624   3.882
60564W        W32879  20.695  12.825   0.649
60565W        W32880  25.993  28.258   4.241
60566W        W32881  33.396   7.849  13.445
60567W        W32882  16.238  12.687   2.366
60568W        W32883  42.295   6.194   4.615
60569W        W32884  18.990  28.983   3.678
60570W        W32885  40.402   6.805   1.165
60571W        W32886  23.554  27.895  14.801
60572W        W32887  27.930  42.303  10.686
60573W        W32888  33.492   6.146  11.075
60574W        W32889   3.330  26.136  13.262
60575W        W32890  24.734  44.971   0.842
60576W        W32891  23.541  29.085  14.052
60577W        W32892  24.198   1.088   4.196
60578W        W32893  42.025   9.133  13.080
60579W        W32894   8.220  31.901   1.931
60580W        W32895  26.264  15.476  11.647
60581W        W32896  29.524  28.870  14.745
60582W        W32897  28.119  15.340   1.854
60583W        W32898  18.742  13.819   0.670
60584W        W32899  42.386   5.287   0.148
60585W        W32900  21.692  25.831   4.170
60586W        W32901  42.960  19.119   2.494
60587W        W32902   3.196  20.041   2.085
60588W        W32903   1.998  30.457  11.560
60589W        W32904   5.912  38.465  12.004
60590W        W32905  34.855  22.523  12.988
60591W        W32906  19.136  19.273  11.979
60592W        W32907  15.755  30.291   2.080
60593W        W32908  28.499  39.211   0.843
60594W        W32909  16.058  44.508  13.893
60595W        W32910  39.988  33.003  11.583
60596W        W32911   2.427  29.207  12.487
60597W        W32912  33.519   3.881   3.614
60598W        W32913  43.233   0.690   4.839
60599W        W32914   9.930  19.104  13.080
60600W        W32915  42.130  26.545  10.753
60601W        W32916  44.864  15.811  10.969
60602W        W32917  10.349  34.621  13.970
60603W        W32918  40.943  22.936   3.253
60604W        W32919  36.001  37.546  10.614
60605W        W32920  15.196   5.615   2.127
60606W        W32921  34.197  32.741  12.390
60607W        W32922   5.830   7.124   4.534
60608W        W32923  22.628  30.076   3.669
60609W        W32924   5.256  35.516  12.400
60610W        W32925   1.486  24.243   3.779
60611W        W32926  28.408  23.375   0.415
60612W        W32927  18.636   8.787  14.301
60613W        W32928  30.468  39.026  11.341
60614W        W32929  34.558  28.532   2.733
60615W        W32930   5.538  11.825  12.478
60616W        W32931  40.535   4.955   1.409
60617W        W32932   1.786   7.844   2.720
60618W        W32933   8.219  22.263   2.191
60619W        W32934  43.378   5.441  11.669
60620W        W32935  26.678  29.860  14.514
60621W        W32936  21.364   0.873   0.000
60622W        W32937  25.490  27.610  10.594
60623W        W32938  44.745   6.682   4.639
60624W        W32939  34.400  20.533  11.082
60625W        W32940   7.229  26.590   1.464
60626W        W32941   3.951  27.514  11.070
60627W        W32942  15.587   5.786   4.965
60628W        W32943  20.835  23.669   2.292
60629W        W32944  44.823  41.798   1.115
60630W        W32945  27.314  24.440   0.116
60631W        W32946  21.656  40.305  14.334
60632W        W32947  28.172  11.262   1.011
60633W        W32948   8.594  25.766   3.233
60634W        W32949   0.472  25.470  12.063
60635W        W32950  12.225  31.078  13.811
60636W        W32951  16.051  18.167  12.033
60637W        W32952  19.235   5.755  13.192
60638W        W32953  10.172  43.123  10.276
60639W        W32954  13.291  32.498   3.813
60640W        W32955  20.060  30.393   3.196
60641W        W32956  19.610  22.009  13.041
60642W        W32957   4.209  29.459   0.864
60643W        W32958  17.051  23.466  13.936
60644W        W32959  20.384  40.950   0.005
60645W        W32960  12.842  13.142  11.631
60646W        W32961  25.729  38.621  13.829
60647W        W32962  14.865  14.215  11.578
60648W        W32963   7.403   4.912  14.328
60649W        W32964   4.485   5.942  12.361
60650W        W32965   2.670  29.204   4.031
60651W        W32966   1.420  31.063  13.981
60652W        W32967  21.273  40.764   3.315
60653W        W32968  23.506  40.941  12.844
60654W        W32969  13.421  31.154   3.672
60655W        W32970  22.655  23.189  12.955
60656W        W32971  19.789  40.022  10.618
60657W        W32972  34.357  33.645   2.435
60658W        W32973  32.076  20.209  10.531
60659W        W32974  15.928  25.563  12.592
60660W        W32975  37.321  10.656  12.993
60661W        W32976  28.696  28.669  11.579
60662W        W32977   6.636   0.656  12.656
60663W        W32978   2.280  35.629   0.011
60664W        W32979  15.913   9.656   3.110
60665W        W32980  44.262  37.100   1.669
60666W        W32981  11.882  43.050  12.676
60667W        W32982  16.734   0.319  11.021
60668W        W32983   3.436  42.886  14.497
60669W        W32984  40.780  39.831  14.280
60670W        W32985  20.157   4.398  13.022
60671W        W32986  20.136   8.646   5.015
60672W        W32987   2.386  33.431  12.922
60673W        W32988  29.519  21.396   2.901
60674W        W32989  31.412  10.683   1.852
60675W        W32990  38.850  36.334  11.150
60676W        W32991   9.618  32.312   4.945
60677W        W32992  19.095  22.170  10.679
60678W        W32993  10.488   4.307  11.352
60679W        W32994  23.400  28.179   1.749
60680W        W32995  30.122  41.747  13.710
60681W        W32996  32.693  12.658   3.705
60682W        W32997  11.131  10.552  12.842
60683W        W32998  24.599   2.933  13.024
60684W        W32999  28.158  28.628   4.154
60685W        W33000  38.438  22.231  12.019
60686W        W33001  17.763   0.466   1.254
60687W        W33002  29.850  43.363   3.806
60688W        W33003  18.653  43.111   2.868
60689W        W33004  43.048  22.727  11.096
60690W        W33005  26.909   1.705  11.920
60691W        W33006  18.693  41.764  13.529
60692W        W33007  21.847  30.612  12.503
60693W        W33008  43.251   9.229   3.507
60694W        W33009  32.011  10.890   4.075
60695W        W33010  35.616  24.535   4.588
60696W        W33011  11.640  31.338  11.144
60697W        W33012  33.482  17.713  11.437
60698W        W33013  15.201   9.395   0.899
60699W        W33014  35.603  35.497  10.497
60700W        W33015  28.603  10.360   3.179
60701W        W33016  24.988  14.901  12.179
60702W        W33017   4.431   1.989  14.439
60703W        W33018  17.979  33.569  10.649
60704W        W33019  16.807  29.842  10.624
60705W        W33020  23.483  29.918  12.562
60706W        W33021  31.814  11.912   5.140
60707W        W33022  31.671  18.108  12.940
60708W        W33023  21.487  10.885  12.880
60709W        W33024  36.102   5.375   0.047
60710W        W33025   2.447   3.599  14.345
60711W        W33026  26.671  36.287  12.185
60712W        W33027   5.895  10.371  11.591
60713W        W33028  38.089   9.216   4.325
60714W        W33029  16.042  37.614  12.531
60715W        W33030  44.743  44.798  13.415
60716W        W33031  33.156  16.576  10.725
60717W        W33032  22.443  40.494  11.947
60718W        W33033  12.202  38.767   3.659
60719W        W33034  10.056  31.630   0.963
60720W        W33035  18.071   6.391   2.568
60721W        W33036  42.340  39.763  10.698
60722W        W33037  13.303  28.408   0.810
60723W        W33038  43.005  15.054   4.584
60724W        W33039  27.646  32.943  12.885
60725W        W33040  20.509  22.584  13.065
60726W        W33041  10.997  35.636   3.756
60727W        W33042  31.033  23.151   3.198
60728W        W33043  39.040   9.809  14.365
60729W        W33044  11.812  23.259  14.502
60730W        W33045  16.661  24.094   2.491
60731W        W33046  40.124  42.122   3.726
60732W        W33047  16.713  25.552   4.572
60733W        W33048  42.909  26.726  13.958
60734W        W33049   8.141  40.865   4.587
60735W        W33050  16.152  31.545  14.373
60736W        W33051  39.740   8.515  11.171
60737W        W33052  35.137   3.951   4.541
60738W        W33053  37.697  16.576  11.541
60739W        W33054  26.630  15.764  11.405
60740W        W33055  12.791  29.192   0.388
60741W        W33056  28.036   1.777   3.176
60742W        W33057  43.411  14.761   1.001
60743W        W33058   7.927  18.049   1.367
60744W        W33059   3.443  14.828   1.750
60745W        W33060  32.131   6.459   0.374
60746W        W33061  27.015  34.206   1.362
60747W        W33062  13.328  36.036  10.226
60748W        W33063  38.744  34.280  14.344
60749W        W33064  14.207  12.145  11.542
60750W        W33065  36.170   4.739  12.262
60751W        W33066   9.068  34.025  10.554
60752W        W33067  14.702   2.754  11.968
60753W        W33068  29.775  32.800   4.629
60754W        W33069   8.796   8.466  10.787
60755W        W33070  38.780  29.888  11.081
60756W        W33071   7.072  10.895   2.177
60757W        W33072  26.495  30.562   3.214
60758W        W33073  28.124  39.751  10.357
60759W        W33074  13.758   0.945  10.542
60760W        W33075  33.764  21.426   5.088
60761W        W33076   4.018  38.352  13.316
60762W        W33077  40.928   7.221   4.734
60763W        W33078  21.366   2.327  10.329
60764W        W33079   4.102  43.297   2.170
60765W        W33080  34.474  32.141   3.586
60766W        W33081   1.297  28.746  10.759
60767W        W33082  11.813  40.909  14.366
60768W        W33083  22.704  17.366   4.913
60769W        W33084   9.854  25.176   0.149
60770W        W33085  27.469  19.516  11.512
60771W        W33086  23.005  32.590  12.478
60772W        W33087   4.742  19.686   3.945
60773W        W33088  26.621   3.299   2.898
60774W        W33089   3.493  34.074   3.721
60775W        W33090   3.438  43.936   4.545
60776W        W33091  29.615  18.554  11.263
60777W        W33092  10.834  21.622   1.194
60778W        W33093  36.504  35.556   2.254
60779W        W33094  17.180  37.877   1.358
60780W        W33095  24.341   3.186  12.566
60781W        W33096  11.241  20.651  14.514
60782W        W33097  24.156  38.419  11.506
60783W        W33098   5.711  27.288  12.469
60784W        W33099  43.076  26.820  11.964
60785W        W33100  25.194  18.757  14.796
60786W        W33101  38.108   5.596  12.492
60787W        W33102  28.542  21.612   2.836
60788W        W33103  38.307   7.208  11.999
60789W        W33104  13.139  35.789   1.288
60790W        W33105  11.242   6.808   4.947
60791W        W33106   5.396  11.039  14.311
60792W        W33107  34.850  41.160   3.841
60793W        W33108  41.311  17.726   4.966
60794W        W33109  28.587   6.398   0.384
60795W        W33110   5.848  16.120   4.191
60796W        W33111  11.283   5.394  13.536
60797W        W33112  41.552  20.958   4.061
60798W        W33113  16.846  33.985   2.831
60799W        W33114  20.162   5.249   4.122
60800W        W33115   3.919  29.545  14.490
60801W        W33116   5.379  18.318  13.328
60802W        W33117  20.337  29.940   1.854
60803W        W33118  25.933  35.042   3.334
60804W        W33119   8.771  27.144  14.451
60805W        W33120  43.266  27.623   0.320
60806W        W33121  22.293   4.265  12.125
60807W        W33122   6.558  37.316  11.702
60808W        W33123  41.233  24.136   4.598
60809W        W33124   3.405  19.728   3.361
60810W        W33125  42.557  27.184   2.332
60811W        W33126  25.546   0.770  14.727
60812W        W33127  41.555   9.819  11.568
60813W        W33128   9.446  11.434  14.380
60814W        W33129  43.483  15.715  10.866
60815W        W33130  33.378   2.372   4.518
60816W        W33131  11.346   4.186  11.661
60817W        W33132   8.916   8.374  12.594
60818W        W33133  12.175  43.900  13.509
60819W        W33134  39.859  40.216  13.962
60820W        W33135  39.373  20.032   2.731
60821W        W33136  44.489  13.814   3.191
60822W        W33137  26.704  25.555   1.247
60823W        W33138  17.462  44.872  12.607
60824W        W33139   3.886  28.817   3.618
60825W        W33140  15.299  23.241  13.140
60826W        W33141  26.020   6.312  12.402
60827W        W33142  33.976   2.756  12.382
60828W        W33143   0.013  39.099   1.824
60829W        W33144  25.485  10.118  12.421
60830W        W33145  24.428   6.955  11.954
60831W        W33146  30.311  17.700  11.649
60832W        W33147   3.962  21.190   0.434
60833W        W33148  36.955  23.227   4.115
60834W        W33149  33.894  26.522   3.168
60835W        W33150  24.749   2.748  13.502
60836W        W33151  24.746  13.115  11.693
60837W        W33152  43.368  33.348  14.017
60838W        W33153  24.541  38.882   2.859
60839W        W33154  42.546  33.091   2.927
60840W        W33155   7.649  34.941  12.441
60841W        W33156  19.494   5.314   4.742
60842W        W33157  36.279   8.959  11.506
60843W        W33158  34.446  40.422   0.236
60844W        W33159  37.545  36.511  11.668
60845W        W33160  29.200   8.611  10.842
60846W        W33161   5.356  43.594   1.818
60847W        W33162   8.839  22.560   1.335
60848W        W33163  41.538  21.498  14.932
60849W        W33164   0.861  26.671  11.674
60850W        W33165  41.600  15.708  14.559
60851W        W33166  35.286  35.106   1.325
60852W        W33167  19.875   9.107   5.006
60853W        W33168   8.388  23.867  11.469
60854W        W33169  17.847  32.584  13.803
60855W        W33170  21.165  32.974  10.591
60856W        W33171   4.356  27.884  12.988
60857W        W33172  23.974  12.307   3.610
60858W        W33173   3.421  37.044  10.675
60859W        W33174   5.815  33.825  11.162
60860W        W33175   8.760  35.416  11.665
60861W        W33176   1.335   1.998   2.388
60862W        W33177  31.853  32.481  12.128
60863W        W33178  33.850   1.391  14.022
60864W        W33179   1.949  15.688  11.099
60865W        W33180   0.825  39.528   4.819
60866W        W33181  32.382  14.005  14.245
60867W        W33182  23.332  27.472   3.716
60868W        W33183   8.793  25.557  13.346
60869W        W33184  30.283  14.274  14.500
60870W        W33185  23.265  15.127  11.094
60871W        W33186  37.031  33.421   2.354
60872W        W33187  41.534  27.252   0.169
60873W        W33188  11.354   8.678  13.343
60874W        W33189   2.678  39.998   0.416
60875W        W33190   3.910   7.426  14.461
60876W        W33191  36.653  26.558   0.903
60877W        W33192   9.746   6.650  11.063
60878W        W33193  12.722  20.330  10.713
60879W        W33194   9.458   1.307   1.006
60880W        W33195  40.300  37.022  11.241
60881W        W33196   3.485  21.698   4.902
60882W        W33197   1.054  35.011  14.649
60883W        W33198  27.178   8.132  10.795
60884W        W33199  26.897  19.144   3.373
60885W        W33200  27.869  42.780  11.615
60886W        W33201  14.894  39.482  14.498
60887W        W33202  35.968   0.865  10.730
60888W        W33203   6.572  36.093   3.200
60889W        W33204  21.409  43.158  11.975
60890W        W33205  26.720   6.741  14.516
60891W        W33206  34.857   3.470  12.415
60892W        W33207   2.465  20.268  11.554
60893W        W33208  21.545  31.009   1.464
60894W        W33209  19.849  14.476  12.015
60895W        W33210  16.712  28.976   0.955
60896W        W33211  31.364  10.813  11.820
60897W        W33212  38.913  35.547  14.989
60898W        W33213   1.727  44.162   4.126
60899W        W33214  34.002  44.181  11.535
60900W        W33215  43.289  24.425  12.223
60901W        W33216  35.669  19.485   2.895
60902W        W33217  34.040  14.538   0.889
60903W        W33218  19.168  12.681   4.758
60904W        W33219   9.778  18.062  12.089
60905W        W33220  33.695  19.288  14.022
60906W        W33221  14.207  15.631   3.623
60907W        W33222  44.529   3.861  13.917
60908W        W33223  31.401  27.037   3.663
60909W        W33224   6.207  17.698   2.385
60910W        W33225   8.468  44.335   4.967
60911W        W33226   3.869  16.244  11.623
60912W        W33227  32.749  10.323   4.844
60913W        W33228  35.034  14.232   0.836
60914W        W33229  22.248  19.533   4.998
60915W        W33230  31.458  25.886  13.286
60916W        W33231  33.385  43.981  10.549
60917W        W33232   7.837   7.828  11.652
60918W        W33233  36.937  16.179   0.071
60919W        W33234  36.793  32.644   0.860
60920W        W33235  32.364  31.612  10.610
60921W        W33236   2.886  13.796   3.947
60922W        W33237   6.287  12.250   3.543
60923W        W33238   0.179   1.858  11.116
60924W        W33239  19.766   7.789  11.172
60925W        W33240   1.629   8.094  10.683
60926W        W33241  36.559   9.737   4.166
60927W        W33242  39.489   5.708  10.614
60928W        W33243  27.474   9.826   2.279
60929W        W33244  40.813  39.380  12.506
60930W        W33245  26.043  26.058   1.630
60931W        W33246   9.758  34.075   4.494
60932W        W33247   9.436  42.026  12.163
60933W        W33248  18.703  20.669  10.451
60934W        W33249   4.965   1.803  14.883
60935W        W33250  36.428   5.913  13.945
60936W        W33251  22.201  25.023  13.021
60937W        W33252   0.259  42.790  12.867
60938W        W33253  39.434  44.783   4.805
60939W        W33254  30.621  20.337   4.164
60940W        W33255  28.868  13.576   0.420
60941W        W33256  35.930  35.796  12.520
60942W        W33257   8.012   7.226   4.541
60943W        W33258  22.919  34.970   4.605
60944W        W33259  13.150  27.249  13.510
60945W        W33260  28.398  29.651  13.930
60946W        W33261   1.369  41.213   2.501
60947W        W33262  40.135  33.406   3.808
60948W        W33263   1.764  34.440  11.962
60949W        W33264  40.315  24.406   4.140
60950W        W33265  35.419   9.293   2.964
60951W        W33266  14.644  21.364  10.933
60952W        W33267  30.852  19.295  11.077
60953W        W33268  29.219  22.264   4.049
60954W        W33269  32.622  36.780   1.453
60955W        W33270  10.189  35.947   2.884
60956W        W33271  37.006  38.628   3.619
60957W        W33272   7.658  22.697   3.158
60958W        W33273  34.881  28.221  11.581
60959W        W33274   6.946   3.565  12.438
60960W        W33275  36.901   2.168   2.285
60961W        W33276  39.637  31.931  13.786
60962W        W33277  18.806  44.659  13.958
60963W        W33278  29.955  15.586   2.010
60964W        W33279   3.236  42.918   3.203
60965W        W33280  16.808  13.830   3.594
60966W        W33281  14.044  24.511   2.593
60967W        W33282  40.808  11.460  14.419
60968W        W33283  43.987  38.302   1.516
60969W        W33284  42.792  13.360  11.065
60970W        W33285  36.518  24.511  10.913
60971W        W33286  24.690  24.583  10.734
60972W        W33287  35.976  37.845  14.511
60973W        W33288  12.569  38.347   1.423
60974W        W33289  14.153  43.343   1.346
60975W        W33290  15.198  34.830  14.585
60976W        W33291  28.737   8.669   1.858
60977W        W33292  37.343  17.564   2.679
60978W        W33293  25.063  44.918  14.387
60979W        W33294  39.879  41.873  14.917
60980W        W33295   6.136   3.335  13.228
60981W        W33296  39.502   9.613  14.245
60982W        W33297  20.979   1.412   4.657
60983W        W33298   6.197  39.603  14.624
60984W        W33299  39.806  15.600  10.803
60985W        W33300  23.539  23.262  11.064
60986W        W33301  25.960   7.400   4.081
60987W        W33302  15.245  23.897   2.175
60988W        W33303  30.663  33.467  10.260
60989W        W33304   5.302  35.884   2.626
60990W        W33305   8.355  21.295  11.020
60991W        W33306  13.194  20.849  14.521
60992W        W33307   7.721  36.465   4.395
60993W        W33308  15.611  14.865  14.969
60994W        W33309  13.319  41.594  13.495
60995W        W33310  11.173  14.368   1.455
60996W        W33311  30.706  19.106  14.742
60997W        W33312  31.320  39.471   0.270
60998W        W33313   4.788  12.651   0.815
60999W        W33314  43.899  19.201  13.047
61000W        W33315  10.181  39.783   0.856
61001W        W33316  19.949   6.727   1.240
61002W        W33317  21.860  21.296  11.848
61003W        W33318  41.913  20.555   1.968
61004W        W33319   3.847  28.806  12.564
61005W        W33320  24.656  21.777   1.847
61006W        W33321  18.273   9.797   3.742
61007W        W33322  18.667  42.058   0.632
61008W        W33323  18.870  27.438   4.214
61009W        W33324  13.206  15.807  14.430
61010W        W33325   2.675  30.968   1.984
61011W        W33326  11.632  26.783   3.260
61012W        W33327  43.325  27.951   1.404
61013W        W33328  38.371  34.104   3.593
61014W        W33329  38.922  30.638  12.642
61015W        W33330   9.200  20.164   2.380
61016W        W33331  18.344  28.904   9.922
61017W        W33332  42.897  30.120   0.745
61018W        W33333  17.796  43.521  10.710
61019W        W33334  11.544   6.341   0.084
61020W        W33335  38.745   2.166   9.988
61021W        W33336  14.640  27.267   3.778
61022W        W33337  30.965  24.708  13.404
61023W        W33338  39.042  24.687   0.005
61024W        W33339  13.561  21.341   9.966
61025W        W33340  13.398  42.813   4.948
61026W        W33341   3.775  20.067   3.983
61027W        W33342  30.104  17.417  14.761
61028W        W33343  21.293  43.574   2.318
61029W        W33344  11.310  17.125   0.410
61030W        W33345  27.399  14.610   2.656
61031W        W33346  21.510  25.592   1.821
61032W        W33347  19.041   2.013  12.777
61033W        W33348   3.582  13.738   2.293
61034W        W33349  36.363  43.174   0.507
61035W        W33350  32.554  10.830   0.037
61036W        W33351   4.915   8.790  14.707
61037W        W33352  29.573  38.034   4.836
61038W        W33353  40.819  18.215   3.694
61039W        W33354  44.426  19.083  10.038
61040W        W33355   7.790  19.323  10.682
61041W        W33356  40.982  31.074   3.847
61042W        W33357  30.604  19.881   2.882
61043W        W33358   1.418  26.192   4.150
61044W        W33359   3.723   3.937   3.336
61045W        W33360  33.299  40.298   4.625
61046W        W33361   3.811  25.884   2.395
61047W        W33362   5.603  29.369  13.439
61048W        W33363  38.942  19.545  14.513
61049W        W33364  36.515   3.784  11.416
61050W        W33365   2.287  40.893  11.628
61051W        W33366  37.296  11.071  10.710
61052W        W33367  28.176  12.024   3.840
61053W        W33368  28.575  17.541  13.297
61054W        W33369  40.914   9.662  12.936
61055W        W33370  42.788  37.026  13.457
61056W        W33371  23.736  43.978  13.355
61057W        W33372  22.028  42.131  14.277
61058W        W33373  15.177  24.405   2.138
61059W        W33374  14.285  29.174  13.472
61060W        W33375  19.797   9.103   3.274
61061W        W33376  13.695  32.082  11.173
61062W        W33377  37.805  39.773   3.366
61063W        W33378   5.233  26.355  10.361
61064W        W33379  40.634  27.855  10.971
61065W        W33380   1.172  40.740   3.273
61066W        W33381  15.539   4.028  14.929
61067W        W33382  31.606   1.383   3.397
61068W        W33383  43.993   9.650  11.881
61069W        W33384  28.138  23.569  12.105
61070W        W33385  22.195  11.580   0.946
61071W        W33386  24.667   9.180   1.194
61072W        W33387  41.949  28.918  12.371
61073W        W33388  25.503  15.216   3.797
61074W        W33389  15.229  32.692   2.805
61075W        W33390  11.534  24.609   3.668
61076W        W33391   1.809  14.165   1.181
61077W        W33392  37.278  41.793   4.190
61078W        W33393  14.314   9.661   2.349
61079W        W33394  37.203  31.872  13.122
61080W        W33395  18.784  28.894  12.515
61081W        W33396   4.896   1.861   4.283
61082W        W33397  19.392  13.747   1.897
61083W        W33398   6.643  20.459  14.012
61084W        W33399  20.701  37.382   1.489
61085W        W33400  32.240  41.461  14.814
61086W        W33401  40.467  37.311  11.665
61087W        W33402  25.711  20.210   2.639
61088W        W33403  13.339   3.263   2.992
61089W        W33404  29.072   8.397  13.121
61090W        W33405  24.800  36.433  12.614
61091W        W33406  12.915   4.666   2.366
61092W        W33407  44.706  40.038   2.390
61093W        W33408  11.830  11.839   0.301
61094W        W33409  12.769  17.250  13.738
61095W        W33410  16.721  14.366  11.085
61096W        W33411  14.424  18.668  14.034
61097W        W33412  43.672  29.947  12.518
61098W        W33413  18.105   2.815  13.320
61099W        W33414  11.336  31.524  14.315
61100W        W33415  40.789  32.427  13.700
61101W        W33416  18.799  12.245   2.137
61102W        W33417  11.604  31.017   4.280
61103W        W33418  16.817   5.616  14.842
61104W        W33419  27.601   8.249   4.528
61105W        W33420  16.466  10.811  10.198
61106W        W33421   4.664  21.071  14.884
61107W        W33422   8.209  13.012   1.310
61108W        W33423  31.618  44.428  14.068
61109W        W33424   7.146  40.196   3.261
61110W        W33425  39.864  33.223   2.083
61111W        W33426   5.630   6.715  12.130
61112W        W33427  36.770   5.900  12.073
61113W        W33428   4.227  31.200   3.130
61114W        W33429  18.558  35.194  14.882
61115W        W33430   6.969   9.161  12.078
61116W        W33431  40.056  36.694  12.162
61117W        W33432  25.767  21.798  10.124
61118W        W33433  13.587   7.826  14.643
61119W        W33434   0.257  15.760  10.650
61120W        W33435  39.535  40.019   2.917
61121W        W33436  11.208  42.751   4.342
61122W        W33437  35.947  26.553  12.488
61123W        W33438   9.399  30.590   2.182
61124W        W33439  34.917   4.491  14.251
61125W        W33440  30.109  18.472  14.821
61126W        W33441   8.248  12.303   0.815
61127W        W33442  11.772  12.942  13.347
61128W        W33443  12.998  29.227   3.176
61129W        W33444  29.676  14.843   1.417
61130W        W33445  14.532   7.690   4.611
61131W        W33446  30.997   8.223   4.112
61132W        W33447  35.146   3.239   5.347
61133W        W33448  29.074  25.272  13.465
61134W        W33449   1.913  29.118   1.414
61135W        W33450  19.729  38.630   0.228
61136W        W33451  18.999  23.738  10.644
61137W        W33452  42.493  21.208  12.187
61138W        W33453  10.758  43.330  14.338
61139W        W33454  11.230   1.969   4.735
61140W        W33455  12.179  35.809  11.188
61141W        W33456  10.007  44.980   0.947
61142W        W33457  22.886  10.003   9.956
61143W        W33458   0.406  20.321  12.915
61144W        W33459  36.616  10.685  11.976
61145W        W33460   1.995  21.091  12.878
61146W        W33461  25.390  35.168  14.880
61147W        W33462  30.480  44.847  14.729
61148W        W33463  42.636  44.549  14.841
61149W        W33464  32.524   9.241  10.678
61150W        W33465  21.108  28.431   2.235
61151W        W33466  21.066  14.347  14.272
61152W        W33467   4.433  24.918   4.482
61153W        W33468  41.762  30.638   0.653
61154W        W33469   5.350   5.440  14.043
61155W        W33470  39.415  15.255   1.027
61156W        W33471  11.157  44.901   1.375
61157W        W33472  10.169   4.521  14.964
61158W        W33473  35.476  34.884  11.604
61159W        W33474  29.569  44.736   1.795
61160W        W33475  39.344   8.601  10.606
61161W        W33476   3.428   4.659   1.068
61162W        W33477   5.220   3.381   3.636
61163W        W33478   0.348  15.563   0.001
61164W        W33479  16.110  23.858  13.699
61165W        W33480  42.036  31.000  14.425
61166W        W33481  24.459  33.150  12.563
61167W        W33482  35.647  42.997  10.565
61168W        W33483  36.989  37.854  12.440
61169W        W33484  31.341   0.403   4.189
61170W        W33485   5.260   6.664  10.725
61171W        W33486   4.475  12.378  11.666
61172W        W33487  19.625  23.558  11.540
61173W        W33488   8.076   1.805   1.313
61174W        W33489   0.998  13.334   0.501
61175W        W33490  31.004  35.093   1.513
61176W        W33491   7.863  14.093   9.820
61177W        W33492  26.479  22.949  12.653
61178W        W33493   4.847  23.391  12.838
61179W        W33494  29.533  36.180  13.457
61180W        W33495   2.846  27.721  11.880
61181W        W33496  41.994  37.909  12.544
61182W        W33497   2.182  40.176  12.546
61183W        W33498  34.496  18.051  14.410
61184W        W33499  29.576  14.077   1.798
61185W        W33500   3.267   6.771  14.376
61186W        W33501  17.079  42.533  11.947
61187W        W33502  44.166  33.430   0.219
61188W        W33503  11.338  33.466  13.523
61189W        W33504  23.945  11.884  14.050
61190W        W33505  15.167  42.865   4.673
61191W        W33506  16.600  23.171   2.473
61192W        W33507  41.491  33.947  14.354
61193W        W33508   1.340   7.924   4.153
61194W        W33509  22.731   2.331   2.167
61195W        W33510   2.778   8.885  14.827
61196W        W33511  31.253  17.504   4.902
61197W        W33512   5.840  13.812   1.659
61198W        W33513  22.192  13.887  11.187
61199W        W33514   0.208  43.318  14.005
61200W        W33515  11.776  33.022  12.583
61201W        W33516  35.337  16.743  14.804
61202W        W33517   0.985  23.669   3.315
61203W        W33518  30.880  20.095   0.337
61204W        W33519  14.661  33.511   3.451
61205W        W33520  29.572  33.205   0.304
61206W        W33521  13.961  29.647   3.400
61207W        W33522  19.284  28.015   3.634
61208W        W33523  25.159  21.890   5.411
61209W        W33524  41.020  27.696   4.511
61210W        W33525  21.502  33.366  10.567
61211W        W33526  43.329   8.963   1.536
61212W        W33527  17.063  12.445   0.346
61213W        W33528   8.153  33.652   3.136
61214W        W33529  35.035   5.421   2.070
61215W        W33530  24.131  32.483   3.380
61216W        W33531  25.877  40.910   0.965
61217W        W33532  36.037  41.237   0.874
61218W        W33533  42.581   0.442  12.499
61219W        W33534  35.397  18.508   1.796
61220W        W33535  20.602  10.326  13.352
61221W        W33536   2.538  33.057  14.052
61222W        W33537  23.549  32.957   3.848
61223W        W33538  39.905  18.454  14.256
61224W        W33539  16.355  41.554  14.833
61225W        W33540  33.591  34.831  11.531
61226W        W33541  29.013  33.164  14.462
61227W        W33542   1.747  12.264  13.466
61228W        W33543  21.227   7.440   1.846
61229W        W33544   5.779   3.635  12.905
61230W        W33545  23.149   8.192   3.797
61231W        W33546  42.827  43.355   0.402
61232W        W33547  44.370   4.983  11.906
61233W        W33548   6.063  28.404  10.283
61234W        W33549  28.618  21.970  12.603
61235W        W33550  31.204  35.954  14.443
61236W        W33551  30.973  16.121  14.036
61237W        W33552   5.848  18.170  14.636
61238W        W33553  43.856   9.861   3.113
61239W        W33554  10.604   3.805   4.665
61240W        W33555  35.511  29.207   2.275
61241W        W33556  41.847  21.495  13.835
61242W        W33557  24.225  36.387   2.969
61243W        W33558   6.853  44.363  12.562
61244W        W33559  41.999  37.671   3.231
61245W        W33560  32.176  24.467  11.095
61246W        W33561  41.606  22.634   3.220
61247W        W33562  13.329  29.607   2.449
61248W        W33563  16.688   7.644  11.466
61249W        W33564  19.563  10.115   0.488
61250W        W33565  19.481  17.486   0.012
61251W        W33566  37.047  14.626   4.885
61252W        W33567  38.619  18.194   4.671
61253W        W33568  17.016  10.214   2.875
61254W        W33569  14.784   6.432  14.343
61255W        W33570  22.363  40.916   4.253
61256W        W33571  29.736  29.545   2.232
61257W        W33572  20.334  24.693  10.314
61258W        W33573  27.376  10.911   3.146
61259W        W33574   7.290  11.886  11.840
61260W        W33575  38.940  33.297  14.007
61261W        W33576   3.902   8.413   4.532
61262W        W33577  24.960  43.802  10.697
61263W        W33578   8.325  37.168  13.867
61264W        W33579  17.981  27.912  11.562
61265W        W33580  14.851   2.595  12.925
61266W        W33581  21.453   8.109  14.988
61267W        W33582  10.376  34.879  13.076
61268W        W33583  18.483  14.594   1.126
61269W        W33584  13.279   0.557  14.942
61270W        W33585  15.806  31.225   0.700
61271W        W33586  22.703  21.997  10.004
61272W        W33587   0.824  12.853  14.062
61273W        W33588  34.361  44.363   1.284
61274W        W33589  30.751  12.658   4.341
61275W        W33590  11.732  27.762  12.518
61276W        W33591  30.626   9.200  10.772
61277W        W33592  16.446  39.237   4.097
61278W        W33593  21.628  25.579   0.352
61279W        W33594  40.362  44.132  12.942
61280W        W33595  41.767  18.290   3.831
61281W        W33596   7.298   2.735  14.852
61282W        W33597  19.448  29.443  14.802
61283W        W33598  44.776   7.201   1.170
61284W        W33599   9.364   3.714   0.431
61285W        W33600  11.714  32.014   0.280
61286W        W33601  18.590  21.310   5.010
61287W        W33602   8.297  12.668   3.429
61288W        W33603   6.762  39.835  13.987
61289W        W33604  41.214  21.319   5.029
61290W        W33605  27.725  14.719  10.533
61291W        W33606  34.658   5.895   1.307
61292W        W33607  21.572   8.423  12.032
61293W        W33608  29.619  26.542   3.295
61294W        W33609  29.517   4.689   0.857
61295W        W33610  29.111  10.446  13.082
61296W        W33611  40.525  35.584   4.703
61297W        W33612  28.518   5.319   1.321
61298W        W33613  34.614  37.206   2.248
61299W        W33614  40.424  33.343  11.570
61300W        W33615  17.927  11.647  13.579
61301W        W33616  29.444   6.611   4.228
61302W        W33617  36.526   4.241   3.630
61303W        W33618  19.000  13.285  14.637
61304W        W33619  31.457  36.261  11.172
61305W        W33620   9.698  22.434   2.151
61306W        W33621   9.111  44.737  14.108
61307W        W33622  40.015  26.165   4.897
61308W        W33623  36.489  10.861   2.212
61309W        W33624   4.113  40.128  12.888
61310W        W33625   3.360  13.171   2.816
61311W        W33626  15.675  20.746  12.936
61312W        W33627  42.421   6.302   2.424
61313W        W33628  33.144  31.539  10.979
61314W        W33629  25.599  42.286  14.057
61315W        W33630   4.247   1.497  12.466
61316W        W33631  10.610  41.331   2.263
61317W        W33632  14.536  25.049  14.083
61318W        W33633  22.895  11.285   9.885
61319W        W33634   7.764   4.262   1.934
61320W        W33635  39.847  43.016  14.782
61321W        W33636   8.304  44.189   0.055
61322W        W33637  15.254  24.582  11.881
61323W        W33638  15.330  15.691  14.503
61324W        W33639  27.090   3.821  14.841
61325W        W33640  41.853  28.529   2.611
61326W        W33641   7.608  15.058   1.879
61327W        W33642  35.508  20.634  13.898
61328W        W33643   5.327  27.587   1.457
61329W        W33644   2.982  33.097  13.551
61330W        W33645  25.113  39.071   2.593
61331W        W33646  10.695  30.142   1.827
61332W        W33647  26.661  38.287  10.597
61333W        W33648  19.728  14.285  14.810
61334W        W33649  35.596   6.624   3.659
61335W        W33650  11.848  16.377   2.837
61336W        W33651  30.190  17.554  12.950
61337W        W33652   5.375  33.798  10.877
61338W        W33653  22.418  23.618   3.132
61339W        W33654   5.212  10.465  12.449
61340W        W33655  44.567  21.254   5.018
61341W        W33656  25.132  16.648  13.917
61342W        W33657   9.647  27.384   1.535
61343W        W33658  18.728   7.402   1.655
61344W        W33659  31.945   0.920   1.268
61345W        W33660  37.689  37.334  14.690
61346W        W33661  25.674  27.474  12.405
61347W        W33662   7.498  12.470   1.261
61348W        W33663  17.152  35.612   1.410
61349W        W33664  27.726  39.371  13.488
61350W        W33665  35.914  26.484  13.863
61351W        W33666   0.997   9.709   0.919
61352W        W33667  13.941  34.347  14.832
61353W        W33668  17.741  44.656   3.939
61354W        W33669  21.344  10.669   2.276
61355W        W33670  23.426  41.986   3.101
61356W        W33671   0.871  22.949   2.871
61357W        W33672  11.786  22.076  13.188
61358W        W33673  42.295  18.656  14.765
61359W        W33674  23.077  25.739   1.142
61360W        W33675  22.535  11.100   4.051
61361W        W33676   5.691  41.832  11.232
61362W        W33677  41.676  42.337  13.448
61363W        W33678  14.709   8.143  13.418
61364W        W33679   2.860   8.668   1.231
61365W        W33680   8.190   9.675  13.044
61366W        W33681  11.151   8.310   0.863
61367W        W33682  19.566  10.197  10.538
61368W        W33683  21.786  42.959  13.981
61369W        W33684  35.436  10.170   3.503
61370W        W33685  27.847  13.744  12.392
61371W        W33686  37.075  22.805  14.977
61372W        W33687  33.536  37.936   4.531
61373W        W33688  43.155  28.287   3.064
61374W        W33689  33.398  27.010   2.242
61375W        W33690  28.618  40.061  13.599
61376W        W33691  22.359   1.793   0.423
61377W        W33692  12.485  22.552  12.176
61378W        W33693  11.651  42.372   2.355
61379W        W33694  19.681  37.343   2.732
61380W        W33695  13.499  31.039  11.935
61381W        W33696  14.478  20.183  12.770
61382W        W33697  39.867   1.674  10.638
61383W        W33698   7.849  20.245  11.926
61384W        W33699  40.439  19.328   2.297
61385W        W33700  21.080   9.946   2.607
61386W        W33701   3.432  30.094   4.942
61387W        W33702  27.367  31.555   4.341
61388W        W33703   2.350  14.827   1.237
61389W        W33704  18.424  26.478   4.038
61390W        W33705  29.077  20.623   0.371
61391W        W33706  19.817   8.174  10.640
61392W        W33707  41.899  16.360   2.799
61393W        W33708  42.890   7.381  12.132
61394W        W33709  12.690  13.567   3.333
61395W        W33710  27.135   6.778   9.655
61396W        W33711  42.921   8.703   0.901
61397W        W33712  17.460  17.955   3.715
61398W        W33713  11.660  34.110   4.561
61399W        W33714  20.623  29.164  11.481
61400W        W33715   1.812  10.675  12.953
61401W        W33716   8.780  42.642   0.302
61402W        W33717  13.022  37.355   4.589
61403W        W33718   6.566  40.535  13.387
61404W        W33719  14.033  11.901   2.358
61405W        W33720  43.713  16.544   0.627
61406W        W33721  23.946  35.530  10.493
61407W        W33722  11.132   3.788  11.426
61408W        W33723  31.044  17.051   5.047
61409W        W33724  33.837  16.384  12.582
61410W        W33725  15.170  34.930  13.557
61411W        W33726  29.361  21.181   3.336
61412W        W33727  28.913   7.224   3.501
61413W        W33728  28.084  41.014  14.917
61414W        W33729  17.371  18.859  11.017
61415W        W33730  18.280   2.847   3.411
61416W        W33731  23.021  22.009  11.179
61417W        W33732  22.971  41.484  13.794
61418W        W33733   6.654   4.000  12.435
61419W        W33734  37.422  26.826   2.733
61420W        W33735   9.695   5.278  12.560
61421W        W33736   3.232  23.105   4.078
61422W        W33737   5.667  43.633  11.735
61423W        W33738   6.837  22.281   1.212
61424W        W33739   0.872   7.836  13.786
61425W        W33740  25.743  39.545  13.317
61426W        W33741  33.337  19.154   3.628
61427W        W33742  28.142  44.426   3.591
61428W        W33743   0.329   5.155   2.775
61429W        W33744  33.800  34.364  11.531
61430W        W33745  32.338  40.370   1.502
61431W        W33746  37.640   8.218  12.955
61432W        W33747  32.992   0.520   3.816
61433W        W33748  25.061   4.548  11.407
61434W        W33749   1.210  10.735   4.579
61435W        W33750  17.149  30.067   0.166
61436W        W33751  13.079  44.994   1.699
61437W        W33752  23.104  26.990   4.128
61438W        W33753  12.789  21.956   2.316
61439W        W33754  10.383  33.322  13.020
61440W        W33755  32.228  31.109  14.776
61441W        W33756  33.499   4.687  14.000
61442W        W33757  10.297  39.797   4.752
61443W        W33758  38.589  33.117  13.589
61444W        W33759  30.438   7.421  13.041
61445W        W33760  37.324  15.263  13.014
61446W        W33761  41.797   7.252   0.780
61447W        W33762  39.085  25.981   1.329
61448W        W33763   0.378  21.680  14.498
61449W        W33764  36.915   8.193   0.745
61450W        W33765  38.049  44.705   0.403
61451W        W33766  12.847  40.031  11.034
61452W        W33767  17.102  32.430  13.003
61453W        W33768  41.792  14.866  12.454
61454W        W33769  21.646   8.153  12.471
61455W        W33770  13.748  19.093  13.852
61456W        W33771  24.526   3.475  14.834
61457W        W33772  18.751  35.674   0.785
61458W        W33773  11.904  36.111  12.525
61459W        W33774  36.047  12.688   0.023
61460W        W33775  21.779  19.291   4.922
61461W        W33776  32.307  20.152  14.803
61462W        W33777  39.176   5.821  11.006
61463W        W33778   9.897  32.989   2.193
61464W        W33779   1.525  20.771   0.257
61465W        W33780  37.518  20.244   2.639
61466W        W33781   2.749  34.907   1.692
61467W        W33782   5.440  15.930   1.263
61468W        W33783   1.426  10.313   3.841
61469W        W33784  27.454   1.811  13.660
61470W        W33785  12.393  19.090  12.445
61471W        W33786  40.407   4.227   3.229
61472W        W33787  27.411   3.954  14.453
61473W        W33788  26.082   4.552  14.691
61474W        W33789   6.212  42.502   1.301
61475W        W33790  37.815   8.686  14.689
61476W        W33791  11.247  10.362   0.497
61477W        W33792  27.581  41.702  11.618
61478W        W33793  34.642  18.255  11.556
61479W        W33794  26.198   4.129  13.284
61480W        W33795  25.658  16.647  14.920
61481W        W33796  41.325  13.185   0.876
61482W        W33797  34.649  44.344   5.084
61483W        W33798  40.405  41.945  14.975
61484W        W33799  13.123  18.416  14.496
61485W        W33800   7.895   2.833  12.189
61486W        W33801  23.693   1.675   2.311
61487W        W33802  44.782   7.169   3.950
61488W        W33803  27.536   2.959   3.570
61489W        W33804   9.446  11.333  10.404
61490W        W33805  13.662  26.997  10.669
61491W        W33806  30.080  16.099   4.617
61492W        W33807  23.435  28.552  13.914
61493W        W33808   8.677  20.120   1.683
61494W        W33809  11.689  39.076   0.886
61495W        W33810  42.329  44.689   3.722
61496W        W33811  31.463  23.085   0.478
61497W        W33812  22.051  43.334  12.359
61498W        W33813  39.923  21.611  14.269
61499W        W33814  29.447  31.237  13.016
61500W        W33815  31.617  43.898   1.367
61501W        W33816  25.176   7.845  10.901
61502W        W33817  27.594   2.644  12.420
61503W        W33818   6.565   7.246   1.629
61504W        W33819  38.528  23.800   0.131
61505W        W33820  23.021   0.953   1.219
61506W        W33821  28.083  27.359  12.497
61507W        W33822  32.139   6.586  13.420
61508W        W33823  40.453  15.557  12.145
61509W        W33824  19.083   5.758   0.614
61510W        W33825  22.836  37.363   4.839
61511W        W33826   2.688   6.303  13.024
61512W        W33827  37.012  23.541  12.123
61513W        W33828   3.229  23.596   2.815
61514W        W33829   8.339  23.126   1.962
61515W        W33830  21.304  33.919  14.842
61516W        W33831  13.074  25.680   4.670
61517W        W33832  37.412  13.196   2.990
61518W        W33833   4.679   7.320  11.028
61519W        W33834  13.690  37.199   2.255
61520W        W33835   4.290  40.101  13.779
61521W        W33836  32.631  22.385  13.510
61522W        W33837   0.269  11.121   3.757
61523W        W33838  12.846   2.299  14.198
61524W        W33839  38.556   9.717   3.645
61525W        W33840  21.262  39.046  12.363
61526W        W33841  31.075  38.794  13.966
61527W        W33842  34.833   7.910  11.901
61528W        W33843  34.044  23.698   1.275
61529W        W33844  36.543   2.214  13.357
61530W        W33845  31.563  38.147   4.711
61531W        W33846   2.808   1.547   2.681
61532W        W33847   0.356   1.336  13.537
61533W        W33848  25.638   9.644  14.093
61534W        W33849   5.874  10.409  14.518
61535W        W33850  34.346  42.501  13.308
61536W        W33851  32.493   2.788   0.704
61537W        W33852  16.256   9.667   3.492
61538W        W33853  24.840  41.943   4.373
61539W        W33854  16.128  32.590   3.212
61540W        W33855  33.856  11.489   0.066
61541W        W33856  32.669  12.244  14.030
61542W        W33857   3.544  37.884   1.743
61543W        W33858  20.981  12.066  11.700
61544W        W33859  32.375  41.982  13.152
61545W        W33860  44.999  26.616   4.395
61546W        W33861   8.315  39.413  12.877
61547W        W33862  29.577   8.687   0.937
61548W        W33863   0.483   2.921  12.534
61549W        W33864  21.625  29.412  13.997
61550W        W33865   6.360  23.136   2.419
61551W        W33866  16.670   9.395   3.327
61552W        W33867   0.410   1.219   3.720
61553W        W33868  31.591   7.756   2.298
61554W        W33869  29.671  42.698  14.414
61555W        W33870   4.306   1.428   0.288
61556W        W33871  23.703   4.780   4.273
61557W        W33872  30.070  32.475  11.583
61558W        W33873  21.023  44.951   1.960
61559W        W33874  14.067   5.375  13.452
61560W        W33875  43.248  44.525   4.124
61561W        W33876  36.844  18.763   1.781
61562W        W33877  43.879  34.690   2.282
61563W        W33878  22.128  41.185  13.437
61564W        W33879  41.962  10.659  13.975
61565W        W33880   6.323  44.533   0.526
61566W        W33881   1.256   0.145   3.871
61567W        W33882   6.518   3.952   1.921
61568W        W33883  41.604  34.111  10.671
61569W        W33884   1.321  30.926   2.210
61570W        W33885  39.820   9.779  11.537
61571W        W33886  18.258   6.786   0.033
61572W        W33887  35.147  33.553   4.961
61573W        W33888  39.761  24.063   1.798
61574W        W33889  21.456   4.642   1.387
61575W        W33890  36.964   0.533  13.183
61576W        W33891   3.717  42.933  13.558
61577W        W33892  11.480  38.475   3.369
61578W        W33893   6.651  43.770   3.658
61579W        W33894  28.949  42.789   2.898
61580W        W33895  10.764  28.615  14.421
61581W        W33896  42.418  12.369   1.908
61582W        W33897  37.023  13.767   4.240
61583W        W33898  32.916  31.156   2.726
61584W        W33899   1.734  40.213  13.403
61585W        W33900  10.202   6.605   1.004
61586W        W33901  10.053  35.992  13.796
61587W        W33902   6.226  31.715  11.291
61588W        W33903  32.414  33.915  14.240
61589W        W33904  33.042  23.702   1.922
61590W        W33905  42.224  16.271  10.507
61591W        W33906  21.328  25.124   1.973
61592W        W33907  34.966   8.238   4.801
61593W        W33908   5.753  33.592   2.975
61594W        W33909  42.017  15.301   1.729
61595W        W33910  28.651  42.499  14.248
61596W        W33911  16.772  16.292   2.193
61597W        W33912  28.169  38.568  11.112
61598W        W33913  20.787  14.113  11.878
61599W        W33914  36.871  40.980   2.803
61600W        W33915  18.824  21.961  12.801
61601W        W33916  16.746  27.959   0.913
61602W        W33917  15.369  19.564   4.190
61603W        W33918   3.457  32.130   4.683
61604W        W33919  40.127  25.199   5.240
61605W        W33920  35.455  12.712   1.718
61606W        W33921  29.630  13.232  11.701
61607W        W33922  38.621  40.941  11.548
61608W        W33923  20.087  25.873   1.715
61609W        W33924  34.339   3.525  11.732
61610W        W33925  16.046  32.604   1.762
61611W        W33926   6.701  30.075   0.653
61612W        W33927  17.369  14.407   4.164
61613W        W33928   9.260  18.528   1.523
61614W        W33929  20.019   2.844   2.630
61615W        W33930  30.993  43.944   4.393
61616W        W33931  13.055  12.357  13.609
61617W        W33932  24.667  34.426  12.876
61618W        W33933  15.315  43.115  10.667
61619W        W33934  19.146  15.661   3.351
61620W        W33935  38.309  39.273  10.667
61621W        W33936  44.816  27.113  14.435
61622W        W33937   2.467  15.712  11.967
61623W        W33938   3.750  16.754  10.589
61624W        W33939  17.783  15.312   1.583
61625W        W33940  39.942  42.778  12.546
61626W        W33941  21.285  14.379   1.314
61627W        W33942  13.791  20.283   4.675
61628W        W33943  17.645   9.946   1.846
61629W        W33944  38.887  17.517   1.350
61630W        W33945  25.218  27.207  12.317
61631W        W33946   3.911  25.587  11.926
61632W        W33947  27.157  19.584   3.167
61633W        W33948  29.934  41.187   4.199
61634W        W33949  24.138  37.830   2.413
61635W        W33950  26.157   0.197   1.929
61636W        W33951  16.702  26.879   3.266
61637W        W33952  42.022  15.127  14.838
61638W        W33953   3.413  31.051   2.589
61639W        W33954  29.539  10.676  12.851
61640W        W33955  34.429  37.339  12.442
61641W        W33956  25.602  12.874  14.939
61642W        W33957  31.131  36.879  13.076
61643W        W33958  28.395  30.949  12.020
61644W        W33959   5.549   3.261   0.738
61645W        W33960   7.886  30.941   3.725
61646W        W33961  32.723   9.137   3.824
61647W        W33962  17.391  31.068  11.701
61648W        W33963  24.690  16.659  12.503
61649W        W33964   1.388  29.492   3.823
61650W        W33965   7.650  12.116  12.123
61651W        W33966  41.957  28.509   4.023
61652W        W33967  30.994  23.773  10.511
61653W        W33968   8.014  44.097   2.306
61654W        W33969   2.718  25.025  12.078
61655W        W33970  41.322  26.779   2.959
61656W        W33971  41.873  18.737  14.194
61657W        W33972  26.964  40.825  14.537
61658W        W33973  25.499  27.195   3.698
61659W        W33974  26.808  19.715   0.188
61660W        W33975  43.104   3.184  10.274
61661W        W33976   6.731  40.812  14.768
61662W        W33977  32.394   3.041   4.618
61663W        W33978  24.491  43.495   0.527
61664W        W33979  27.575  10.456   4.567
61665W        W33980   0.877  41.173  10.392
61666W        W33981  42.937  10.367   2.387
61667W        W33982  25.580  22.287   1.426
61668W        W33983  22.242  22.101   9.736
61669W        W33984  42.468  12.618   4.116
61670W        W33985   3.690  31.457  10.573
61671W        W33986  30.988  39.541   4.401
61672W        W33987  11.311  17.781   4.148
61673W        W33988   4.779   9.767  14.204
61674W        W33989  27.462   8.166   0.449
61675W        W33990  23.532  38.389  12.470
61676W        W33991   6.181  12.690   0.848
61677W        W33992  10.947  13.711  11.617
61678W        W33993  34.416   3.528   1.287
61679W        W33994  40.493  22.344   0.569
61680W        W33995  30.156   6.903   1.737
61681W        W33996   4.424  44.215  11.626
61682W        W33997  19.822  41.909   0.758
61683W        W33998  21.690  41.830   1.418
61684W        W33999  14.330  37.941  12.042
61685W        W34000   6.683   0.893  13.541
61686W        W34001  40.306  20.565   0.946
61687W        W34002  13.590  34.132   2.281
61688W        W34003   9.179  32.047   3.151
61689W        W34004  42.323  27.282   0.738
61690W        W34005  11.760   2.365   1.249
61691W        W34006   1.939   4.359  13.918
61692W        W34007   2.681   5.323  11.474
61693W        W34008  23.703   4.356  11.437
61694W        W34009  29.220  28.897   2.455
61695W        W34010  38.376  44.748  11.542
61696W        W34011  13.776  41.994  11.949
61697W        W34012  26.638  43.971   1.644
61698W        W34013  24.974  44.742  10.855
61699W        W34014  36.531  35.418  12.408
61700W        W34015   4.330  26.553  14.800
61701W        W34016  12.023  39.314  13.769
61702W        W34017   4.525  36.330   3.807
61703W        W34018   0.072  22.032  12.371
61704W        W34019  35.996  30.383  12.991
61705W        W34020  17.059  34.570  11.882
61706W        W34021   7.704  21.328   0.907
61707W        W34022  39.858  23.628   4.023
61708W        W34023  17.013  22.842   0.955
61709W        W34024  21.600   7.373  12.022
61710W        W34025  39.811  34.780  14.296
61711W        W34026  30.575  44.864  14.201
61712W        W34027  30.385  19.087  12.024
61713W        W34028  30.585   2.497   2.624
61714W        W34029  20.750  13.180  12.555
61715W        W34030  28.151   5.932   1.733
61716W        W34031   6.801  43.283  13.796
61717W        W34032  44.296   2.907  10.148
61718W        W34033  41.966  10.442  14.464
61719W        W34034   8.877  23.639  10.078
61720W        W34035  33.287  29.059   2.824
61721W        W34036  15.558  24.445  12.628
61722W        W34037  31.125  13.310   4.356
61723W        W34038  12.275  21.252   0.442
61724W        W34039  24.154   1.343  14.428
61725W        W34040  19.258  22.843   3.652
61726W        W34041   9.785  20.626   1.249
61727W        W34042  42.749  12.677   4.522
61728W        W34043  22.668   7.607  11.049
61729W        W34044  33.052   6.924   4.088
61730W        W34045  41.548   3.307   4.282
61731W        W34046  11.092  15.021   2.177
61732W        W34047  36.650  43.313   2.767
61733W        W34048  36.432  16.198   3.290
61734W        W34049  10.696   5.727   4.172
61735W        W34050  38.498  31.073   0.692
61736W        W34051  29.897  12.669   3.308
61737W        W34052  44.469  35.147   3.077
61738W        W34053  23.680  18.870  14.027
61739W        W34054  39.063  18.723   3.111
61740W        W34055  16.249  32.387   4.575
61741W        W34056  43.766  17.391  13.782
61742W        W34057   0.988  11.857  11.500
61743W        W34058  29.380  30.109   0.769
61744W        W34059  20.931  10.095   5.589
61745W        W34060  30.752   0.252   2.357
61746W        W34061  40.730  11.877  13.573
61747W        W34062   9.541  39.705   3.678
61748W        W34063   3.300  18.627  13.575
61749W        W34064   1.285  31.390  13.446
61750W        W34065   7.774   0.679   3.181
61751W        W34066  38.219   6.478  10.125
61752W        W34067  10.661   7.908   1.137
61753W        W34068  10.469  35.917   2.445
61754W        W34069   1.907  25.136   4.610
61755W        W34070  20.611  21.423   1.851
61756W        W34071  14.421  30.962   2.680
61757W        W34072   9.847  32.561  12.487
61758W        W34073  28.917  16.607  13.417
61759W        W34074  11.846   5.008   2.812
61760W        W34075  38.392  21.789  11.732
61761W        W34076  40.538  11.899  14.417
61762W        W34077   2.202  14.937  10.891
61763W        W34078  40.356   0.243  12.406
61764W        W34079   6.272   9.393   1.435
61765W        W34080  11.927  44.783  12.065
61766W        W34081  34.103  38.876  13.033
61767W        W34082  30.475  27.385  14.328
61768W        W34083  12.956   9.638  11.094
61769W        W34084  41.091  21.508   3.221
61770W        W34085  19.662  29.833  12.462
61771W        W34086  43.985  12.798   3.268
61772W        W34087  11.816  41.105  13.006
61773W        W34088  39.255  27.944  12.897
61774W        W34089  14.635  29.610  11.274
61775W        W34090   9.368  42.398  14.434
61776W        W34091  32.695  24.468   2.295
61777W        W34092  11.640  18.118  13.623
61778W        W34093  33.940  10.966   3.299
61779W        W34094  42.121  24.986   1.325
61780W        W34095  12.132   4.511  11.924
61781W        W34096  13.863  21.571   3.523
61782W        W34097  33.400  38.176  12.897
61783W        W34098  26.606   6.979   9.676
61784W        W34099  25.279  16.240  12.168
61785W        W34100  43.996  44.001  14.962
61786W        W34101  11.403  31.385   0.446
61787W        W34102   1.697  10.387  11.226
61788W        W34103  15.232  18.381  11.188
61789W        W34104   9.149   6.452  14.749
61790W        W34105  26.113   0.707  12.898
61791W        W34106   9.438  35.953   4.191
61792W        W34107   7.891  20.577  12.330
61793W        W34108  24.250  42.059  14.382
61794W        W34109  15.295  15.803   1.286
61795W        W34110  13.805   2.087   1.730
61796W        W34111  11.651  21.620   4.509
61797W        W34112  36.871  29.131  13.474
61798W        W34113  11.727  32.444  13.990
61799W        W34114   6.339  25.290  10.532
61800W        W34115  10.288  43.034   4.149
61801W        W34116   1.871  42.675   1.715
61802W        W34117  12.267  18.402  13.105
61803W        W34118  15.343   5.498   0.709
61804W        W34119  19.598  24.264  14.334
61805W        W34120  12.133  39.544  14.711
61806W        W34121  42.433  16.115  11.504
61807W        W34122  12.279   9.181   1.288
61808W        W34123   4.718  23.131   3.738
61809W        W34124  41.442  29.974  13.533
61810W        W34125  18.136  31.185   1.130
61811W        W34126  13.619  25.752   0.428
61812W        W34127   0.348  17.824  10.438
61813W        W34128  12.591  29.669  10.972
61814W        W34129   2.528  41.567  12.655
61815W        W34130  25.612   5.824  13.772
61816W        W34131  10.675  29.230  12.849
61817W        W34132  33.086  13.638  13.602
61818W        W34133   1.376  26.910  11.079
61819W        W34134  17.937  12.715  13.398
61820W        W34135  32.512  32.107  11.593
61821W        W34136   1.778  34.221   3.359
61822W        W34137  30.945  42.545  10.813
61823W        W34138  18.873  36.043  12.993
61824W        W34139  21.940  32.597   0.436
61825W        W34140  29.852   8.528   0.524
61826W        W34141  15.604  33.466   2.618
61827W        W34142   5.635  28.313  10.922
61828W        W34143  22.503  33.847   3.108
61829W        W34144  20.789   5.889   2.627
61830W        W34145  11.921  21.815   3.536
61831W        W34146  13.210   5.454  10.379
61832W        W34147  41.894   8.408   2.690
61833W        W34148  14.575   0.747   1.623
61834W        W34149   5.151  29.964  12.460
61835W        W34150   7.209  37.556  11.934
61836W        W34151  36.219   4.666  11.058
61837W        W34152  21.287  15.433  12.581
61838W        W34153  33.189  19.949   1.312
61839W        W34154  41.349  18.165   3.543
61840W        W34155  43.399  18.043   4.293
61841W        W34156   0.543  16.475  13.009
61842W        W34157  33.866  13.229   4.048
61843W        W34158  35.845  15.663   2.805
61844W        W34159   1.402  22.381  13.500
61845W        W34160  37.387  16.357   0.368
61846W        W34161  41.049  13.077   0.434
61847W        W34162  34.515  25.619  11.691
61848W        W34163  40.122  41.387   0.628
61849W        W34164  10.139  10.050  10.370
61850W        W34165   4.498  30.688   3.716
61851W        W34166  18.559  18.717  11.511
61852W        W34167  39.512   2.001   3.135
61853W        W34168   9.740  37.393   1.185
61854W        W34169  41.432  38.928  12.919
61855W        W34170  16.490  26.191  10.901
61856W        W34171  28.900   0.371  12.879
61857W        W34172  23.817  15.610   4.599
61858W        W34173  33.062  26.679   1.964
61859W        W34174  29.042  13.939   3.672
61860W        W34175   9.034  13.888  11.391
61861W        W34176  38.344  14.214   2.746
61862W        W34177  35.105   5.449   0.286
61863W        W34178  16.061  44.882  12.166
61864W        W34179   2.243  20.491   1.777
61865W        W34180   6.161   2.829  12.983
61866W        W34181  10.716  21.785   0.715
61867W        W34182  18.589   7.897   1.448
61868W        W34183  11.650  24.934   1.394
61869W        W34184  33.098   9.899  13.729
61870W        W34185  28.892  27.432   1.440
61871W        W34186  42.229  29.986  13.006
61872W        W34187  22.286  40.198  14.784
61873W        W34188   2.181  35.315   0.958
61874W        W34189  10.441  30.918   2.862
61875W        W34190  31.643  20.691   2.036
61876W        W34191  32.895  44.811  11.776
61877W        W34192  15.604  15.189  13.283
61878W        W34193  19.625  28.618   0.942
61879W        W34194  21.306  44.509   2.090
61880W        W34195  30.629   9.477   0.933
61881W        W34196  17.692  36.138  11.062
61882W        W34197  10.179  23.457  10.116
61883W        W34198   8.901  10.145  12.851
61884W        W34199  29.511   4.201  11.152
61885W        W34200   6.569  37.258   2.714
61886W        W34201  13.649  32.002  12.092
61887W        W34202  35.688  15.574  14.955
61888W        W34203   5.950  23.473  13.589
61889W        W34204  26.101  12.752   2.728
61890W        W34205  10.847  16.541  12.515
61891W        W34206   6.889  17.111   2.859
61892W        W34207  16.143  30.682  12.728
61893W        W34208  32.500   4.991  11.170
61894W        W34209  24.415  19.832  13.925
61895W        W34210  33.347  33.507   1.949
61896W        W34211  31.653  19.314  10.432
61897W        W34212   7.767  39.203   2.804
61898W        W34213  12.471  28.557   3.737
61899W        W34214   7.309  23.990   0.228
61900W        W34215   5.737   0.297  11.984
61901W        W34216  12.222  20.212   0.199
61902W        W34217   8.330  40.063   4.189
61903W        W34218  30.059   7.587  13.380
61904W        W34219  23.597  19.468   5.038
61905W        W34220  30.023  44.685   0.886
61906W        W34221  42.852  41.912   4.592
61907W        W34222   6.932  13.008   4.170
61908W        W34223  26.677  12.335   4.673
61909W        W34224  31.923  36.447  14.469
61910W        W34225  42.966  11.217  13.254
61911W        W34226  36.937   0.461  12.200
61912W        W34227   7.845  21.105   4.028
61913W        W34228  20.796  33.579   2.691
61914W        W34229   2.888  31.639  11.918
61915W        W34230  24.238  11.206   4.536
61916W        W34231  21.002  10.282  14.484
61917W        W34232   3.874   7.120  10.608
61918W        W34233  19.599  12.923   0.045
61919W        W34234  31.159  26.298   1.968
61920W        W34235  28.311   2.898  14.807
61921W        W34236  22.164   5.812  10.708
61922W        W34237  41.067  23.665  10.755
61923W        W34238   2.227  31.548   2.203
61924W        W34239  39.711  10.031   2.347
61925W        W34240  19.306  22.930  12.031
61926W        W34241  18.799  41.398  10.800
61927W        W34242  37.014  19.913  14.687
61928W        W34243  21.965  32.532  11.642
61929W        W34244  32.496  34.816   3.729
61930W        W34245  34.187  12.833  11.058
61931W        W34246   8.943  19.662  13.296
61932W        W34247   3.746   1.804  13.086
61933W        W34248  29.035  13.741  12.205
61934W        W34249  29.601  31.726  13.093
61935W        W34250  44.917  13.094   4.726
61936W        W34251  14.678   5.711   3.201
61937W        W34252  10.622  11.323  12.304
61938W        W34253  17.138  23.951   2.828
61939W        W34254  36.840  12.155   0.231
61940W        W34255  15.673  26.549   1.118
61941W        W34256   1.750  43.332   2.744
61942W        W34257   4.313  23.646   0.812
61943W        W34258  35.877  24.155  14.412
61944W        W34259  27.803  40.115   1.725
61945W        W34260  38.432  35.932  10.529
61946W        W34261  17.495  22.454   2.911
61947W        W34262  42.968  39.166  12.878
61948W        W34263  37.354  30.033  12.555
61949W        W34264   1.013  36.118   9.762
61950W        W34265   1.031  17.219  13.640
61951W        W34266  21.463   3.768   1.422
61952W        W34267  22.342   6.307  11.548
61953W        W34268  23.691  43.492   0.516
61954W        W34269  28.216  42.398   4.079
61955W        W34270  28.257  24.551  14.910
61956W        W34271   1.484  16.207   4.389
61957W        W34272  20.069  33.937  14.372
61958W        W34273   6.307  14.774  10.922
61959W        W34274  20.355  44.137   3.355
61960W        W34275  20.038  26.106  13.203
61961W        W34276  35.914  19.817  13.423
61962W        W34277  43.425  33.029  13.095
61963W        W34278   4.677  31.640  14.194
61964W        W34279   3.346  25.390  13.793
61965W        W34280  18.370  10.664   3.682
61966W        W34281  17.615  22.170   0.702
61967W        W34282  11.330   0.311   0.846
61968W        W34283  11.603  28.488   4.624
61969W        W34284  12.444  35.411   0.242
61970W        W34285  35.342  38.539  11.596
61971W        W34286  21.628  35.060   3.744
61972W        W34287  28.470  26.561  13.562
61973W        W34288  39.535  35.461   2.186
61974W        W34289  38.937  23.745  12.513
61975W        W34290   5.979  20.081  12.863
61976W        W34291  16.642  17.864  12.563
61977W        W34292  38.863   4.721   1.867
61978W        W34293   4.746   8.851  10.599
61979W        W34294   0.432   9.481   1.324
61980W        W34295   6.808  10.186  13.630
61981W        W34296  37.822  21.313   2.935
61982W        W34297  25.656  37.970   1.516
61983W        W34298  44.971  29.001  12.587
61984W        W34299  23.535  17.890  14.431
61985W        W34300  44.131  43.706  12.415
61986W        W34301   7.920  30.119   3.640
61987W        W34302  21.546  34.428  12.515
61988W        W34303  37.107  39.791  10.907
61989W        W34304  22.686   0.516  11.612
61990W        W34305  33.001  10.689   1.236
61991W        W34306  32.869  16.581   4.051
61992W        W34307  18.216  25.072   0.312
61993W        W34308   4.702   5.918   4.618
61994W        W34309  28.305  16.323  14.432
61995W        W34310  27.644  28.964   1.718
61996W        W34311  13.867   8.635  13.384
61997W        W34312  38.927  20.238   2.977
61998W        W34313  22.753  29.010  12.917
61999W        W34314   6.298  33.060   1.838
62000W        W34315   2.140  25.353   2.389
62001W        W34316   6.869  18.373   3.812
62002W        W34317  42.329   3.828  13.853
62003W        W34318  31.578   1.208  10.672
62004W        W34319  41.572  11.395   2.642
62005W        W34320  27.128  31.148   4.100
62006W        W34321  25.741  15.012  14.463
62007W        W34322  26.001  21.525   5.085
62008W        W34323   3.971  24.700  11.752
62009W        W34324  31.074  16.098   3.211
62010W        W34325  12.245  21.040   2.288
62011W        W34326  35.125  40.516  14.899
62012W        W34327  42.100  27.448   1.195
62013W        W34328  32.967   0.214  14.866
62014W        W34329  31.046  24.989   2.665
62015W        W34330  16.130  33.984  10.976
62016W        W34331  30.653   4.417  14.343
62017W        W34332   9.220  24.166   4.389
62018W        W34333  10.559   8.865   2.384
62019W        W34334   1.762   6.914  13.355
62020W        W34335  33.032  19.209  12.532
62021W        W34336   0.111  10.208  13.067
62022W        W34337   5.146  19.230  11.103
62023W        W34338  13.242   6.852   2.731
62024W        W34339   7.049  38.401  13.537
62025W        W34340   4.418  29.964   0.768
62026W        W34341   6.671  11.576   3.691
62027W        W34342   6.392  44.781  13.548
62028W        W34343  14.300   9.194   2.093
62029W        W34344  17.293   3.929  11.075
62030W        W34345  28.228  22.266  14.812
62031W        W34346  15.321  27.636  12.811
62032W        W34347  13.829   0.387   4.399
62033W        W34348  40.342  28.843  11.095
62034W        W34349  27.435  39.066  13.915
62035W        W34350   7.123  17.736  13.500
62036W        W34351  31.579   1.468  11.953
62037W        W34352  36.676  16.901  12.681
62038W        W34353  33.881  38.896  14.972
62039W        W34354  40.898  34.909  14.933
62040W        W34355  14.547  21.423   0.358
62041W        W34356  39.679  31.771   3.212
62042W        W34357  29.449  40.607  14.138
62043W        W34358  13.916   5.850  14.024
62044W        W34359  23.816   0.235  14.083
62045W        W34360  15.047  15.342   1.393
62046W        W34361  35.515  33.003  10.552
62047W        W34362  34.817  41.115  14.032
62048W        W34363   7.216  38.361   3.079
62049W        W34364  38.361  44.866  12.586
62050W        W34365   4.820  36.809  10.292
62051W        W34366   5.925  16.834  11.525
62052W        W34367  44.844  22.321  11.043
62053W        W34368  43.718  16.388  13.316
62054W        W34369  35.329  12.094   1.051
62055W        W34370   5.229  37.971   0.010
62056W        W34371  37.700  36.566   4.517
62057W        W34372  24.561   7.158  13.400
62058W        W34373  37.453   4.806  12.439
62059W        W34374   1.253  36.350  14.328
62060W        W34375   0.253   8.016  11.341
62061W        W34376  34.767  20.266   3.090
62062W        W34377   8.258  27.968   0.398
62063W        W34378  23.763  26.181   3.978
62064W        W34379  43.278   7.299  11.825
62065W        W34380  18.216  30.795   2.885
62066W        W34381  19.127  10.302  14.474
62067W        W34382  33.447   8.871   1.838
62068W        W34383  22.176  34.013   1.725
62069W        W34384  15.566  37.897  12.377
62070W        W34385  22.657  13.856  11.434
62071W        W34386   9.401   6.322  13.247
62072W        W34387  36.487   7.337  14.120
62073W        W34388  40.964  25.743  13.563
62074W        W34389   6.747  33.377  12.567
62075W        W34390  13.483  32.831   2.176
62076W        W34391   3.238  21.114   4.143
62077W        W34392  40.383  29.870  11.159
62078W        W34393  23.022  21.156   2.729
62079W        W34394  33.808  41.732   2.778
62080W        W34395  36.937  30.006   2.244
62081W        W34396  18.235  22.577  13.796
62082W        W34397  39.527  10.220   2.862
62083W        W34398  13.083   3.755  13.814
62084W        W34399  44.935  39.433  10.435
62085W        W34400  25.495  40.592  12.722
62086W        W34401   0.793  31.629  13.477
62087W        W34402  11.796  20.839  11.399
62088W        W34403  27.214  21.150   4.058
62089W        W34404  41.544  29.936   0.684
62090W        W34405  28.869   8.701   3.626
62091W        W34406  36.832  44.799   2.314
62092W        W34407  44.246  40.915  13.425
62093W        W34408  41.447  39.343  13.927
62094W        W34409  25.508  33.097   2.229
62095W        W34410  12.257   7.079  14.327
62096W        W34411   2.217   7.288   4.351
62097W        W34412  11.669  23.907  13.068
62098W        W34413  40.856  21.282   1.381
62099W        W34414   3.349   8.224  13.018
62100W        W34415  33.915   6.660   3.177
62101W        W34416  30.661   5.244  12.845
62102W        W34417  38.881  26.404   0.452
62103W        W34418   2.794  31.727  12.756
62104W        W34419  19.971  30.934  13.979
62105W        W34420   9.227  44.419  10.377
62106W        W34421   1.549  30.813   4.289
62107W        W34422  38.154  40.334  11.148
62108W        W34423  21.066  36.405  13.314
62109W        W34424  15.579   8.096  10.690
62110W        W34425  13.264  28.565   4.299
62111W        W34426  31.027   4.720   2.766
62112W        W34427  11.885  43.596   3.847
62113W        W34428  30.095  43.444   3.328
62114W        W34429  32.928   8.388   2.321
62115W        W34430  25.624  12.810   1.367
62116W        W34431   5.487  25.145   4.163
62117W        W34432  33.543  11.248   1.758
62118W        W34433  39.084   5.333  13.836
62119W        W34434  19.102  17.174   3.116
62120W        W34435  39.020  20.289  14.740
62121W        W34436  13.047  15.593  14.893
62122W        W34437  22.330  28.032   4.855
62123W        W34438   6.503  13.308   2.789
62124W        W34439  43.052   0.359  10.170
62125W        W34440  21.844  37.337  14.654
62126W        W34441   6.739  33.939  14.291
62127W        W34442  21.482  27.670   4.570
62128W        W34443  14.954  16.308   2.246
62129W        W34444  22.338   7.158  14.775
62130W        W34445   9.327  29.593  10.186
62131W        W34446  43.860  38.979   4.534
62132W        W34447  29.943  43.953   3.441
62133W        W34448  36.201   1.363   3.769
62134W        W34449  16.846  27.928  13.532
62135W        W34450  32.263  21.106  10.328
62136W        W34451  21.151  31.998  10.409
62137W        W34452  11.693  34.363   3.225
62138W        W34453  13.393  28.979  12.958
62139W        W34454  42.412  42.391  12.943
62140W        W34455   3.500  39.079   3.300
62141W        W34456  16.033  26.636  13.442
62142W        W34457  36.055  25.932   3.217
62143W        W34458   0.430  18.313   0.892
62144W        W34459   2.699   2.424   0.942
62145W        W34460  18.033  14.681   4.899
62146W        W34461   8.833  26.730  10.268
62147W        W34462  15.835  39.899   1.798
62148W        W34463  15.846  20.592   2.379
62149W        W34464  34.008  15.426  12.524
62150W        W34465  27.395  20.849   3.660
62151W        W34466  29.835  11.010   2.681
62152W        W34467  35.546  24.976   3.621
62153W        W34468  18.791  10.908   9.816
62154W        W34469  34.395   1.973  11.575
62155W        W34470  41.604   5.695   0.042
62156W        W34471  26.110   5.063   4.844
62157W        W34472  34.529  39.917  10.828
62158W        W34473   1.032   2.885  11.643
62159W        W34474  23.021  16.519   2.719
62160W        W34475  11.801  35.432   4.202
62161W        W34476  43.836  34.578  13.845
62162W        W34477  16.790  21.007   3.887
62163W        W34478  24.022  34.605   0.919
62164W        W34479  29.890  21.481   4.113
62165W        W34480  38.118  10.618  14.106
62166W        W34481  17.235  43.382  13.754
62167W        W34482  44.419  28.482  13.080
62168W        W34483   1.813  16.686  14.574
62169W        W34484  33.042  21.550  11.573
62170W        W34485  18.727  20.811  14.323
62171W        W34486  42.525  39.386  14.135
62172W        W34487  26.650  40.082   9.880
62173W        W34488  37.659  36.631   3.755
62174W        W34489  42.561  36.019  12.015
62175W        W34490  17.396   0.413   0.878
62176W        W34491  29.374  18.835   1.549
62177W        W34492  25.652  36.473   4.590
62178W        W34493  15.411   3.791  10.075
62179W        W34494  39.929  13.272  14.409
62180W        W34495  44.259  29.164   1.871
62181W        W34496  15.911  33.085  12.460
62182W        W34497  35.184  31.119   2.720
62183W        W34498  39.362  13.329  11.129
62184W        W34499  28.285  26.480  14.030
62185W        W34500  19.258   7.350   2.967
62186W        W34501  24.693  23.562  10.573
62187W        W34502  24.676  17.818  14.817
62188W        W34503  36.100  11.916   1.452
62189W        W34504  13.791  16.785  11.000
62190W        W34505  26.168  39.633   2.480
62191W        W34506  31.628  42.924   0.294
62192W        W34507  18.761  42.378   3.191
62193W        W34508  26.394  13.314  10.928
62194W        W34509  18.361  28.433  14.824
62195W        W34510   5.415  31.654   4.253
62196W        W34511  32.487   5.824  13.290
62197W        W34512   5.845   3.955   4.243
62198W        W34513   1.732  11.632  12.927
62199W        W34514  20.511  16.167  14.521
62200W        W34515  39.447  43.990  12.459
62201W        W34516  40.519  35.451   0.393
62202W        W34517  32.403  10.991   2.379
62203W        W34518  12.358  41.573   2.269
62204W        W34519  17.035   9.153  10.338
62205W        W34520  31.135  20.894  11.068
62206W        W34521  22.579  15.561   4.621
62207W        W34522  28.689  12.695   2.782
62208W        W34523   2.970  24.034   4.373
62209W        W34524  35.444  24.416   3.020
62210W        W34525  15.900  43.502  12.783
62211W        W34526  44.500  42.541   0.719
62212W        W34527   9.987  22.302  14.910
62213W        W34528  22.838   0.176  13.864
62214W        W34529  21.187   0.409   1.231
62215W        W34530  37.846  39.032  14.980
62216W        W34531  39.478  30.264  10.885
62217W        W34532  26.942  24.295  11.650
62218W        W34533  23.507  11.142  11.619
62219W        W34534   9.795  29.340  12.892
62220W        W34535  14.634   2.710   1.849
62221W        W34536  30.909   3.380  14.944
62222W        W34537  21.763   2.503   3.877
62223W        W34538   1.968  23.094  12.104
62224W        W34539   7.485  16.081  10.941
62225W        W34540  23.510  31.807  12.441
62226W        W34541  14.345  29.989  10.680
62227W        W34542  17.998  34.078   4.460
62228W        W34543  16.660  33.027  13.811
62229W        W34544  10.390  35.461   1.233
62230W        W34545  14.040  30.018   0.907
62231W        W34546  42.975   6.416   1.064
62232W        W34547  31.533  19.481  13.938
62233W        W34548   9.440   4.260   3.705
62234W        W34549  22.990  10.120  10.522
62235W        W34550  11.070  32.152  12.075
62236W        W34551  27.020   4.519   2.165
62237W        W34552  15.225  22.101   1.418
62238W        W34553  25.244   6.961  12.491
62239W        W34554  31.866  42.808  10.275
62240W        W34555  13.841  21.974  10.732
62241W        W34556  37.894   9.698   4.446
62242W        W34557  27.007  26.187  12.041
62243W        W34558  16.889  23.714   4.621
62244W        W34559  18.179   9.862   1.968
62245W        W34560  21.736  19.375  10.557
62246W        W34561  39.273  11.361   1.185
62247W        W34562   7.595  11.649   2.726
62248W        W34563  42.081  16.685  11.408
62249W        W34564  44.260  22.140   1.304
62250W        W34565   9.652  32.882   0.257
62251W        W34566  13.125  35.346  14.963
62252W        W34567  33.039   8.663  14.310
62253W        W34568  23.270  35.458   3.430
62254W        W34569  34.663  15.223   1.179
62255W        W34570  22.233   3.144   2.669
62256W        W34571  25.068  15.546  11.254
62257W        W34572  43.960   9.389  14.821
62258W        W34573  42.236   1.831  12.952
62259W        W34574   7.796  26.622  11.740
62260W        W34575   8.231   4.266   2.797
62261W        W34576  11.614   0.378  14.002
62262W        W34577  24.022  18.712   3.373
62263W        W34578  24.607  36.805  13.947
62264W        W34579  40.449  24.891  13.237
62265W        W34580  21.070  26.393  12.519
62266W        W34581   0.651  29.140   4.323
62267W        W34582   5.458   8.318   1.329
62268W        W34583  40.426  39.053  13.529
62269W        W34584  22.814  26.513  13.538
62270W        W34585   2.221   4.359  11.466
62271W        W34586  14.854   0.374   4.426
62272W        W34587  22.715   8.372   0.194
62273W        W34588   4.344  38.496  11.378
62274W        W34589   5.846  43.263  14.762
62275W        W34590  28.590  34.510  12.554
62276W        W34591   9.900  26.394   2.238
62277W        W34592  12.774  40.928   4.342
62278W        W34593  32.763  24.483  14.035
62279W        W34594  27.969  32.020  14.388
62280W        W34595  44.399  42.719   4.558
62281W        W34596  21.137  43.774   0.476
62282W        W34597  10.718  13.087  14.357
62283W        W34598   0.938  21.039  12.911
62284W        W34599  14.850   2.222   0.359
62285W        W34600   9.433  14.587   2.872
62286W        W34601  42.506   2.944   4.490
62287W        W34602   3.428  41.767   0.903
62288W        W34603  10.313  35.637  14.745
62289W        W34604  12.889  35.797  11.437
62290W        W34605  38.564   7.305   4.779
62291W        W34606  42.744  35.315  11.366
62292W        W34607  33.066  44.733   3.363
62293W        W34608   3.789  38.829  10.711
62294W        W34609  16.092  23.055  13.248
62295W        W34610  15.317   3.937   0.710
62296W        W34611  21.862  44.318   1.347
62297W        W34612  18.179  40.555  11.950
62298W        W34613  41.989  37.149   1.219
62299W        W34614  36.511  26.883  14.525
62300W        W34615  23.379   6.862   2.237
62301W        W34616  17.789   6.777  12.856
62302W        W34617  33.371  23.816   0.326
62303W        W34618   1.959  30.106  12.344
62304W        W34619  34.636  22.174  14.513
62305W        W34620  11.449  41.511  14.033
62306W        W34621  13.191  23.766   4.491
62307W        W34622  29.518  10.280   3.148
62308W        W34623  34.130  24.621   0.470
62309W        W34624   1.280  41.198   3.502
62310W        W34625   4.362  19.080  13.815
62311W        W34626   8.633  17.055  11.246
62312W        W34627  19.141  13.301  14.103
62313W        W34628  15.153  12.206   2.178
62314W        W34629  44.871  17.299   2.682
62315W        W34630  24.046  11.869  11.810
62316W        W34631  28.847  41.406  11.383
62317W        W34632   5.624  33.489   2.281
62318W        W34633  40.839  16.610   0.938
62319W        W34634   8.674  14.127  12.517
62320W        W34635   3.909  35.150   1.799
62321W        W34636   6.401   1.906  12.016
62322W        W34637  20.588   8.719  13.745
62323W        W34638  31.327   8.784  12.452
62324W        W34639  21.993  38.580   3.022
62325W        W34640   4.114  40.535  11.485
62326W        W34641   6.890  33.671  14.938
62327W        W34642  42.627  43.855   1.669
62328W        W34643   4.428  41.600  13.538
62329W        W34644   1.391   7.467   4.366
62330W        W34645  25.963  11.182  12.554
62331W        W34646  23.550  13.350  14.871
62332W        W34647  14.099  24.698   0.790
62333W        W34648  32.018  41.849   2.869
62334W        W34649  44.444  13.246  14.978
62335W        W34650  14.369  22.749   2.029
62336W        W34651  44.790  15.269  13.891
62337W        W34652   5.449  39.312   0.155
62338W        W34653   5.841  34.408  14.298
62339W        W34654  31.372  21.232  14.806
62340W        W34655   9.139  32.149   1.770
62341W        W34656  23.223  44.247  12.989
62342W        W34657  19.677  32.927  14.678
62343W        W34658  22.158  20.449  13.505
62344W        W34659  14.243  24.025   2.651
62345W        W34660  19.171  31.893   1.385
62346W        W34661   3.230  18.176  12.745
62347W        W34662  38.533  14.188   2.270
62348W        W34663  10.816   7.437   0.383
62349W        W34664  20.346   1.949  11.144
62350W        W34665  29.472  11.799  14.344
62351W        W34666  19.241  14.278   0.070
62352W        W34667  10.563  42.564   1.764
62353W        W34668  26.071  40.899   4.610
62354W        W34669  43.411  20.766   3.722
62355W        W34670  42.299  41.558   2.754
62356W        W34671   5.021   2.664   2.004
62357W        W34672  10.380   9.651  14.524
62358W        W34673  41.953  11.568  10.699
62359W        W34674   7.661  27.318   1.162
62360W        W34675   7.074  26.758  10.042
62361W        W34676  27.085  32.281  12.881
62362W        W34677  35.346  20.720  14.376
62363W        W34678   0.492  34.883   3.885
62364W        W34679  18.790  25.252   1.259
62365W        W34680   1.934   0.278  14.349
62366W        W34681  28.489  42.567   2.747
62367W        W34682  15.315   6.365   0.876
62368W        W34683  21.632  18.727  12.653
62369W        W34684  21.566  35.976   3.698
62370W        W34685  13.794  24.182  14.978
62371W        W34686   6.628   3.710  13.415
62372W        W34687  40.480  22.029   4.897
62373W        W34688  23.656   4.357  13.357
62374W        W34689  43.980  34.987   0.372
62375W        W34690   0.302  43.347   1.718
62376W        W34691   5.310  40.087  14.621
62377W        W34692  17.661  13.622  13.610
62378W        W34693  19.531  44.837   0.448
62379W        W34694  35.556   5.438   1.321
62380W        W34695  33.801  38.475  13.862
62381W        W34696  42.597  34.487   2.215
62382W        W34697   3.248   4.085   1.898
62383W        W34698  42.090  30.587   3.215
62384W        W34699  26.931  35.409   3.575
62385W        W34700   1.912  41.778   0.586
62386W        W34701  34.636  42.487   3.778
62387W        W34702  42.777  14.043   3.656
62388W        W34703  21.126  14.474   4.609
62389W        W34704   2.214  38.249   2.746
62390W        W34705   6.798  25.564   4.207
62391W        W34706   5.937   4.015   0.463
62392W        W34707  22.931  37.758  12.437
62393W        W34708  41.023  28.683   2.254
62394W        W34709  15.695   9.014   0.376
62395W        W34710  19.560   0.862   4.609
62396W        W34711   5.015   0.474   3.742
62397W        W34712  12.626  27.080  11.528
62398W        W34713  17.722  20.916   0.828
62399W        W34714  33.038  27.675   0.294
62400W        W34715   0.859  33.286   0.234
62401W        W34716  43.014  24.641   2.362
62402W        W34717  44.022  27.437  11.525
62403W        W34718  41.554  29.191  10.571
62404W        W34719  20.123  33.969   2.720
62405W        W34720  24.767   4.716   4.677
62406W        W34721  22.151   1.795   4.357
62407W        W34722  35.549  14.249   0.864
62408W        W34723   6.845   1.302   1.501
62409W        W34724  37.292  13.356   0.663
62410W        W34725  17.200  41.456  13.607
62411W        W34726  23.790   9.648   1.222
62412W        W34727  42.457  18.962  12.953
62413W        W34728  31.354  17.077   2.710
62414W        W34729   8.759  27.197  10.958
62415W        W34730  38.407  22.193   0.140
62416W        W34731   7.198   1.915  11.131
62417W        W34732  37.616  13.361  13.850
62418W        W34733   5.443  44.267  13.494
62419W        W34734  24.202  32.097   1.856
62420W        W34735   4.278  16.848  11.889
62421W        W34736  21.126  28.376  10.701
62422W        W34737   1.362  35.399  14.327
62423W        W34738  21.214  32.987   2.143
62424W        W34739  19.026  16.550  10.549
62425W        W34740  14.676  31.870   0.646
62426W        W34741  39.307  22.522   3.655
62427W        W34742  30.332   5.688  14.043
62428W        W34743   4.200  25.219   4.127
62429W        W34744  11.930  17.230   3.067
62430W        W34745   8.796  11.209  12.517
62431W        W34746  33.118  28.457   2.322
62432W        W34747  39.000  37.967  10.660
62433W        W34748  33.067  27.689   2.760
62434W        W34749   2.445  27.106   3.264
62435W        W34750  31.104  17.686   0.365
62436W        W34751  13.306   7.263   3.104
62437W        W34752  22.715  27.965  11.958
62438W        W34753  12.804   0.926   1.179
62439W        W34754  33.377  42.995   2.902
62440W        W34755  22.672   2.329  11.266
62441W        W34756  12.810   5.443  14.813
62442W        W34757  29.168  29.584   3.096
62443W        W34758   5.922  36.986  12.394
62444W        W34759  16.082  41.806  11.529
62445W        W34760  25.440  32.742  12.594
62446W        W34761  13.376  38.606  12.651
62447W        W34762  34.765   9.602  12.967
62448W        W34763  29.030  32.530   3.657
62449W        W34764  19.304  40.838  13.897
62450W        W34765  13.315  10.337  11.620
62451W        W34766   3.477  19.126  12.373
62452W        W34767   8.617  32.669   0.882
62453W        W34768   3.216  29.244   4.041
62454W        W34769  10.458  32.490   0.332
62455W        W34770  35.421  29.894   0.361
62456W        W34771  43.896  43.062  13.128
62457W        W34772  36.335  44.395   3.918
62458W        W34773  27.092  14.058  10.950
62459W        W34774  25.644  38.946   4.485
62460W        W34775  11.735  22.554   0.331
62461W        W34776  44.444  36.558  10.195
62462W        W34777  41.815  26.308  10.435
62463W        W34778  41.138  22.228  14.711
62464W        W34779  30.419  25.148   0.563
62465W        W34780   4.322  10.145   0.864
62466W        W34781  14.796  39.739   0.376
62467W        W34782  30.391  34.466   4.240
62468W        W34783  15.715   0.198  12.904
62469W        W34784  31.498  14.796  12.090
62470W        W34785   7.621   4.280   4.299
62471W        W34786  25.615   8.799   3.669
62472W        W34787   9.426  41.434   2.675
62473W        W34788  25.405   6.981  10.039
62474W        W34789  27.038  19.657   1.184
62475W        W34790  37.876  20.853   1.818
62476W        W34791  22.973  14.811  13.428
62477W        W34792  32.885  33.694  14.287
62478W        W34793  36.423   2.403  11.112
62479W        W34794  32.059  11.387  11.967
62480W        W34795  33.706  13.866   5.063
62481W        W34796  44.963   7.865  10.951
62482W        W34797  40.544   4.245   3.748
62483W        W34798  24.994   5.201   0.872
62484W        W34799  21.548  13.513   0.110
62485W        W34800  38.842  40.523  13.911
62486W        W34801   3.315  35.594   4.164
62487W        W34802  25.190  23.510  14.898
62488W        W34803  30.512   7.616  10.737
62489W        W34804  27.689  29.527   4.709
62490W        W34805  41.273  18.129   1.700
62491W        W34806  22.548  11.355   0.196
62492W        W34807  26.838  10.492  12.085
62493W        W34808  44.593  10.002  12.500
62494W        W34809  24.516  36.582   2.166
62495W        W34810  37.990  42.312   2.332
62496W        W34811  44.492   6.718  11.624
62497W        W34812   9.609  18.828  12.549
62498W        W34813  17.764  22.285  12.008
62499W        W34814  19.281   2.163   4.028
62500W        W34815  16.592  33.482  11.853
62501W        W34816  41.422  41.406   4.619
62502W        W34817  34.552  35.179   3.230
62503W        W34818  31.628  41.942   0.374
62504W        W34819  28.163  36.374  13.449
62505W        W34820  32.140  39.229  14.788
62506W        W34821  33.299   6.511   2.777
62507W        W34822  40.002  24.449   0.954
62508W        W34823  23.025  27.897   1.954
62509W        W34824  27.730  18.845  13.554
62510W        W34825  41.309   1.238  14.986
62511W        W34826  28.913   1.735   3.295
62512W        W34827  12.120  44.085  11.224
62513W        W34828   4.671   8.815   2.835
62514W        W34829  18.855  21.525  11.146
62515W        W34830   7.127  37.094  13.082
62516W        W34831  38.294  12.648   3.353
62517W        W34832  39.402   9.358   3.691
62518W        W34833   4.812  12.882  10.735
62519W        W34834  17.471  26.544   1.895
62520W        W34835   1.764  14.571  14.741
62521W        W34836  33.562   0.146   1.202
62522W        W34837  24.163   6.436  12.647
62523W        W34838  17.256  24.540  11.952
62524W        W34839   2.315  26.124   2.631
62525W        W34840  43.858  31.897   1.759
62526W        W34841  44.709  10.176   5.149
62527W        W34842  35.801   7.250  12.901
62528W        W34843   9.648  28.665   3.377
62529W        W34844  40.919   5.028  12.178
62530W        W34845   5.216   8.889  12.316
62531W        W34846  31.873  11.864  11.991
62532W        W34847  35.278  22.742   0.042
62533W        W34848  29.611  15.248  11.959
62534W        W34849  16.331  43.117  13.079
62535W        W34850  17.251  21.253   3.701
62536W        W34851  16.038   7.201  13.550
62537W        W34852  31.639  25.548   4.634
62538W        W34853  25.097   8.756   4.701
62539W        W34854  16.155  25.021   0.626
62540W        W34855  11.684  33.892  12.108
62541W        W34856  12.113  27.572  10.490
62542W        W34857  11.203  38.585  11.574
62543W        W34858  31.798  13.828  11.283
62544W        W34859  17.166   4.865   3.752
62545W        W34860  33.828  16.648   0.812
62546W        W34861   3.214  29.646   1.259
62547W        W34862  14.749  31.461   1.684
62548W        W34863  20.089  41.093   4.647
62549W        W34864  34.929   2.307  10.465
62550W        W34865   6.377  21.535  10.349
62551W        W34866  41.273  25.746  12.507
62552W        W34867   2.529  36.029   2.191
62553W        W34868  32.842   5.790  10.616
62554W        W34869  11.646  21.641  12.945
62555W        W34870  42.527  21.924   3.615
62556W        W34871   5.241   1.439   2.682
62557W        W34872  13.501   9.456  13.120
62558W        W34873  15.731  22.913   4.544
62559W        W34874   4.350  11.232  14.829
62560W        W34875  44.081   4.746   1.520
62561W        W34876   0.689  23.165   0.328
62562W        W34877  28.475  43.002  13.366
62563W        W34878  20.339   6.491  14.418
62564W        W34879  23.049  23.916  14.228
62565W        W34880  10.617  38.929   3.196
62566W        W34881  16.768   7.444  12.574
62567W        W34882  28.981   3.262   4.176
62568W        W34883  32.774  18.636  12.917
62569W        W34884  29.167  29.940   2.709
62570W        W34885  16.318   3.951   2.267
62571W        W34886  12.194  31.183   3.642
62572W        W34887  25.118  18.342   4.363
62573W        W34888  12.389  42.536  14.317
62574W        W34889  38.819  14.802  10.266
62575W        W34890  44.007   1.337  12.864
62576W        W34891   0.916  27.410  10.455
62577W        W34892   8.462  28.964   1.360
62578W        W34893   9.206  15.792   1.008
62579W        W34894  16.377  18.851  11.216
62580W        W34895  29.109  40.091   1.913
62581W        W34896  17.992  28.630  12.974
62582W        W34897  11.550  21.279  12.163
62583W        W34898  38.474  39.240  12.949
62584W        W34899  19.637  32.420   0.385
62585W        W34900  40.443  22.465   0.061
62586W        W34901  42.745  17.221   3.221
62587W        W34902   2.409  32.507  11.934
62588W        W34903  22.276  35.149   0.795
62589W        W34904  31.593  21.367  12.587
62590W        W34905  25.979  37.578  11.374
62591W        W34906  32.371  34.609  12.984
62592W        W34907  18.188  14.318   2.661
62593W        W34908  40.797  14.151  14.055
62594W        W34909  34.041  35.028   3.375
62595W        W34910   0.950  33.962  11.167
62596W        W34911   1.562  23.213  11.412
62597W        W34912  19.696  13.362   1.707
62598W        W34913  10.497  25.574  10.481
62599W        W34914  30.222  29.016   3.360
62600W        W34915  42.193  39.278  11.498
62601W        W34916  23.533  28.167  14.277
62602W        W34917   4.942  29.323   4.618
62603W        W34918  44.450  33.188   4.885
62604W        W34919  17.268  16.720   1.392
62605W        W34920  44.321   0.329   1.738
62606W        W34921  12.425  40.835   2.269
62607W        W34922  29.545  27.130  10.696
62608W        W34923  12.605  14.223  12.382
62609W        W34924  22.925  22.241  10.750
62610W        W34925  10.076  38.963   3.539
62611W        W34926  23.683  24.744   0.891
62612W        W34927  41.501  10.637   0.165
62613W        W34928   8.129  43.362   2.854
62614W        W34929  24.888  34.636   2.211
62615W        W34930   2.282   0.858   2.378
62616W        W34931  22.336   6.324  10.591
62617W        W34932  33.007  24.712  13.506
62618W        W34933  44.774  34.536  10.608
62619W        W34934   2.267  12.103   1.755
62620W        W34935  26.828  20.710  12.005
62621W        W34936  14.608   2.435  11.584
62622W        W34937  38.442  36.506  10.504
62623W        W34938  10.382  19.639   2.444
62624W        W34939  12.596   0.188  13.054
62625W        W34940  29.555   6.843   0.986
62626W        W34941  39.568  24.611   0.037
62627W        W34942   5.111  36.831  11.096
62628W        W34943  33.287   7.003   0.978
62629W        W34944  15.833  37.998   3.865
62630W        W34945  32.466  19.541   0.962
62631W        W34946  28.605  13.637  11.018
62632W        W34947  35.836  42.388   2.476
62633W        W34948  23.101  21.253  11.609
62634W        W34949  26.211  37.482  14.847
62635W        W34950  41.590  13.654   0.868
62636W        W34951  20.625  39.394   4.430
62637W        W34952  41.745  26.196  10.947
62638W        W34953  30.874  16.147   2.739
62639W        W34954  12.662  28.290   2.289
62640W        W34955   8.662  41.321  14.378
62641W        W34956   0.872  11.744  12.363
62642W        W34957   8.900  19.804  13.792
62643W        W34958  15.246   7.872  13.471
62644W        W34959  33.624  34.399   0.368
62645W        W34960  34.380  20.534   1.967
62646W        W34961  30.181   1.606   2.861
62647W        W34962   9.822  13.412  14.457
62648W        W34963   8.578  40.390   3.203
62649W        W34964  41.876  37.958  10.415
62650W        W34965  21.776  34.646   1.325
62651W        W34966   3.475  23.581  11.524
62652W        W34967  31.771   0.861  13.417
62653W        W34968  27.000  23.448   0.279
62654W        W34969  15.386   5.820  11.590
62655W        W34970   3.509  18.724   2.319
62656W        W34971  37.165   0.013   0.704
62657W        W34972  26.530  37.368   0.284
62658W        W34973  34.430  34.125   2.606
62659W        W34974  43.465  29.179  10.492
62660W        W34975  30.898  14.391  13.546
62661W        W34976   9.126  38.478   0.420
62662W        W34977  15.199   9.207   0.412
62663W        W34978  12.307   1.815  14.421
62664W        W34979  30.456  14.590  11.304
62665W        W34980  30.387  14.614   2.814
62666W        W34981  42.953  44.758  11.816
62667W        W34982  43.763   7.171  11.971
62668W        W34983  44.913  39.578   3.741
62669W        W34984   1.721  42.201   4.516
62670W        W34985  37.285  23.057  10.570
62671W        W34986  26.579   8.964   3.797
62672W        W34987  26.931  15.032  13.059
62673W        W34988   5.181  25.795   1.770
62674W        W34989  27.647   0.028   1.811
62675W        W34990  10.802   7.816   4.806
62676W        W34991  40.803  39.830   2.265
62677W        W34992  40.097  13.215   0.307
62678W        W34993   6.882   7.827   2.203
62679W        W34994   3.764  34.953  10.654
62680W        W34995  17.587  13.819  11.129
62681W        W34996  26.129  43.288  14.929
62682W        W34997  19.017   0.951   1.869
62683W        W34998  19.087   3.962  12.909
62684W        W34999   2.141  35.964   0.402
62685W        W35000  11.236  29.785  14.337
62686W        W35001  25.183  12.912   4.102
62687W        W35002  42.719  36.598   2.727
62688W        W35003  39.938  19.778   3.844
62689W        W35004  43.879   3.694  12.189
62690W        W35005   7.301  40.838   0.417
62691W        W35006   5.789  40.234   3.302
62692W        W35007   8.741  35.534  12.632
62693W        W35008   2.349  42.729  13.984
62694W        W35009  14.565  12.172  10.542
62695W        W35010   2.859   9.093   1.825
62696W        W35011   8.680   3.348   2.204
62697W        W35012  24.990   2.395  14.668
62698W        W35013  21.291   8.514   1.763
62699W        W35014  32.958   1.100   2.814
62700W        W35015  21.881  26.416   4.782
62701W        W35016  24.304  22.527   4.123
62702W        W35017  44.975   4.735  10.647
62703W        W35018  24.669  27.482   4.223
62704W        W35019  17.081  10.170   9.803
62705W        W35020   1.666  36.650  14.288
62706W        W35021  42.431  22.981  14.539
62707W        W35022   2.427  13.721   3.654
62708W        W35023  23.079  18.951  10.999
62709W        W35024  38.788  20.737  12.955
62710W        W35025  11.175  39.303  10.996
62711W        W35026   0.004  12.344  10.657
62712W        W35027  36.069  17.086  13.882
62713W        W35028  33.009  24.624  14.468
62714W        W35029  14.659  13.556  10.819
62715W        W35030  15.376   0.719   0.311
62716W        W35031  16.104   3.224   4.566
62717W        W35032  28.722   9.569   0.322
62718W        W35033   0.778  13.902  12.242
62719W        W35034  41.052  19.332   0.029
62720W        W35035  41.200  21.162   3.690
62721W        W35036  23.928   3.775  13.083
62722W        W35037   7.670  28.160   2.697
62723W        W35038   2.029  22.496   4.940
62724W        W35039   5.413   5.775  10.652
62725W        W35040  14.144  44.643  11.092
62726W        W35041  34.976  30.196   2.936
62727W        W35042  21.779  13.344  14.228
62728W        W35043  39.149  24.545  12.583
62729W        W35044  39.287  35.836   4.310
62730W        W35045  10.449  18.470   4.249
62731W        W35046  16.711   6.654  10.392
62732W        W35047  20.045  27.093   1.363
62733W        W35048  42.661   1.313   2.633
62734W        W35049   8.766  34.691   4.631
62735W        W35050   7.707   4.297  11.585
62736W        W35051  34.044  38.910  13.967
62737W        W35052  33.853  24.904   1.788
62738W        W35053  14.126  36.535  12.056
62739W        W35054  26.506  38.039  12.132
62740W        W35055  22.781  43.955  12.465
62741W        W35056  37.541  24.696   0.569
62742W        W35057   0.734  36.160   2.633
62743W        W35058  11.723  43.507   4.339
62744W        W35059  40.524   5.197   2.399
62745W        W35060  22.066  27.416  12.978
62746W        W35061   0.242  13.816   1.581
62747W        W35062   5.953  24.109  11.402
62748W        W35063  21.492   9.985  11.877
62749W        W35064  43.035  31.913   1.869
62750W        W35065  14.745   3.548  12.592
62751W        W35066  44.670  39.177  13.167
62752W        W35067  11.149  39.522  13.239
62753W        W35068   2.324  19.788   0.245
62754W        W35069  34.042  26.463   1.781
62755W        W35070  18.168  35.621   2.012
62756W        W35071  13.956  14.702  10.693
62757W        W35072  22.054  15.695   4.672
62758W        W35073   0.533  26.942   2.106
62759W        W35074  26.224  41.946  10.733
62760W        W35075  29.019  26.983   1.742
62761W        W35076  15.450  42.225  10.307
62762W        W35077  35.441  17.475  11.003
62763W        W35078  39.504   1.483   0.204
62764W        W35079  31.029  15.050   3.326
62765W        W35080  32.209  40.976  11.962
62766W        W35081  10.411  29.397  13.998
62767W        W35082  21.479  33.604  11.512
62768W        W35083  21.666  31.546  11.617
62769W        W35084  28.914  18.858  14.394
62770W        W35085   3.765  11.976   1.726
62771W        W35086  10.411   1.272   0.810
62772W        W35087  39.258  13.532  12.341
62773W        W35088  27.392  43.318   3.712
62774W        W35089  32.497  23.254   4.665
62775W        W35090   2.873   3.808   4.665
62776W        W35091  38.895  32.184  14.549
62777W        W35092  24.951  27.996  14.363
62778W        W35093  24.924  34.062  10.503
62779W        W35094   4.228  28.515  11.680
62780W        W35095  41.294  14.213  14.060
62781W        W35096   0.292  14.773  12.204
62782W        W35097  28.658  11.085   4.573
62783W        W35098  27.881  30.038   1.092
62784W        W35099   8.241   2.820   0.907
62785W        W35100  30.152  42.105  11.909
62786W        W35101  21.981  44.908  13.974
62787W        W35102   2.068  33.740  12.645
62788W        W35103  16.209   3.771  10.779
62789W        W35104  30.426  41.974  11.153
62790W        W35105   0.606  37.156   3.840
62791W        W35106  43.816  12.914   4.209
62792W        W35107  22.599  41.777   4.128
62793W        W35108  26.458   2.781  10.897
62794W        W35109   9.841  15.207  14.928
62795W        W35110  17.780  17.864  10.692
62796W        W35111   7.883  29.455   0.740
62797W        W35112  11.571  28.152  12.848
62798W        W35113  11.338   3.123  12.912
62799W        W35114   2.751   4.859  10.697
62800W        W35115  31.728  26.021   0.990
62801W        W35116  44.445   0.676  10.356
62802W        W35117  19.217  23.609   2.290
62803W        W35118  22.205   2.346   2.249
62804W        W35119  16.076  41.279  11.038
62805W        W35120   1.190  27.933  11.169
62806W        W35121  29.786   7.465   2.423
62807W        W35122  27.639  32.597   3.722
62808W        W35123  16.206  39.089  13.908
62809W        W35124  35.022  41.193  13.522
62810W        W35125  35.912  33.777  14.355
62811W        W35126  37.111   8.575  14.077
62812W        W35127  37.108  31.433  11.414
62813W        W35128  21.023  22.825   4.878
62814W        W35129  10.806  14.694  10.748
62815W        W35130  40.051  42.421  10.707
62816W        W35131  11.189  20.339   1.787
62817W        W35132  44.027   9.130  13.925
62818W        W35133   0.271  24.573   4.224
62819W        W35134  29.221  37.648   1.972
62820W        W35135  26.990  27.901  11.962
62821W        W35136  29.413  33.340   9.749
62822W        W35137   7.371  24.297  12.090
62823W        W35138  21.260  29.384   3.321
62824W        W35139  29.467  12.167   4.448
62825W        W35140  13.838  27.052   2.460
62826W        W35141  20.471   4.120   4.776
62827W        W35142   2.753  32.561  12.398
62828W        W35143  41.868  38.819   4.565
62829W        W35144   0.929   0.420   0.371
62830W        W35145  13.251  33.070   3.004
62831W        W35146  18.303  11.266   2.614
62832W        W35147   1.408  11.920   3.625
62833W        W35148  18.073  18.119   0.696
62834W        W35149   7.995  21.994   4.274
62835W        W35150  42.617  10.227   0.254
62836W        W35151   9.882  43.367   1.711
62837W        W35152  21.565  15.184   2.301
62838W        W35153  27.235  11.756   1.325
62839W        W35154  43.152  28.443  14.019
62840W        W35155  15.832  32.236  13.681
62841W        W35156  41.107   3.955   2.848
62842W        W35157  12.564  34.911  12.603
62843W        W35158  15.806  12.275   1.416
62844W        W35159  35.975  11.590   1.822
62845W        W35160  21.461  37.240   2.769
62846W        W35161  38.482  24.825   2.884
62847W        W35162   5.297  15.558   0.560
62848W        W35163  41.951   3.617   4.331
62849W        W35164   9.213   3.436  10.910
62850W        W35165  36.415  28.172   0.436
62851W        W35166  22.049  20.014  10.454
62852W        W35167  28.559  11.107   1.801
62853W        W35168   9.115  40.765  13.950
62854W        W35169  22.444  43.994   2.768
62855W        W35170  21.502  19.065   2.450
62856W        W35171  43.692  10.777   0.484
62857W        W35172  28.057  39.429   2.669
62858W        W35173  32.719  17.809   1.951
62859W        W35174  16.321  38.654  12.956
62860W        W35175   9.045   4.275   2.053
62861W        W35176  27.108  25.457  10.994
62862W        W35177  40.987   6.621  10.718
62863W        W35178  23.104  20.412   2.276
62864W        W35179   8.311  39.290   3.701
62865W        W35180  40.563  41.065   2.810
62866W        W35181  34.829  25.519   2.304
62867W        W35182  28.677   5.763  11.884
62868W        W35183  34.513  12.716   4.382
62869W        W35184   1.177   0.511   4.750
62870W        W35185  26.778  31.036   4.480
62871W        W35186  24.127  28.643   4.269
62872W        W35187  19.354  32.563  10.677
62873W        W35188   5.400  26.083   4.891
62874W        W35189  38.339  36.412  12.608
62875W        W35190  25.300  28.103  10.698
62876W        W35191   3.846  18.296   2.734
62877W        W35192  10.824   4.630  11.590
62878W        W35193   7.645  29.897   9.782
62879W        W35194  37.591  22.644   4.118
62880W        W35195  11.570  41.435   0.945
62881W        W35196  41.849  41.720  13.051
62882W        W35197  28.717  32.353  14.550
62883W        W35198  24.663  22.480   2.362
62884W        W35199  14.704   1.981   1.421
62885W        W35200  31.693  42.667   4.439
62886W        W35201  37.579  42.933  12.806
62887W        W35202   1.923  29.909   4.229
62888W        W35203  44.463  36.548  14.967
62889W        W35204  31.484   3.582   3.337
62890W        W35205   9.437  26.026   0.814
62891W        W35206  27.929   6.557  12.995
62892W        W35207  12.336  31.275   4.843
62893W        W35208  40.405   1.872  13.218
62894W        W35209  44.648   7.195  11.482
62895W        W35210  14.351  27.471  11.613
62896W        W35211  12.184  16.097  13.476
62897W        W35212  19.191  30.208  10.234
62898W        W35213   7.401  17.098   0.408
62899W        W35214   5.688  29.175  12.499
62900W        W35215  38.866  26.783   5.042
62901W        W35216  24.662  16.847  13.908
62902W        W35217  35.321   8.658  12.579
62903W        W35218  21.715  28.982  14.823
62904W        W35219  34.609   0.408  12.441
62905W        W35220  33.414  11.876  13.348
62906W        W35221  31.953  20.604   3.601
62907W        W35222  30.549  34.529  13.430
62908W        W35223  12.846  38.574  12.395
62909W        W35224   9.094  10.302  14.890
62910W        W35225  24.229  41.990   0.766
62911W        W35226  13.160  40.337   0.426
62912W        W35227  29.928   1.904  11.462
62913W        W35228   2.002  28.636  13.769
62914W        W35229  22.590   2.536  11.732
62915W        W35230  19.095   3.419  13.086
62916W        W35231  34.584  43.560  12.732
62917W        W35232  20.582  12.295   2.762
62918W        W35233  27.886  27.099  12.909
62919W        W35234  37.442  34.257   4.053
62920W        W35235   6.691  29.269   2.644
62921W        W35236   1.451   5.829   0.684
62922W        W35237  13.631  17.776  12.858
62923W        W35238  32.611  16.217  12.765
62924W        W35239  34.361   2.008   3.727
62925W        W35240   2.460  37.195   1.792
62926W        W35241  30.604  37.309  13.641
62927W        W35242   3.560  25.415   2.783
62928W        W35243  44.350   0.776  10.851
62929W        W35244  17.147  15.893   1.256
62930W        W35245  44.998  14.273   2.802
62931W        W35246  27.948  13.849  13.527
62932W        W35247  42.932  31.774   1.394
62933W        W35248  21.533  25.521   2.360
62934W        W35249  12.142   1.057   3.152
62935W        W35250  18.570  22.068  10.604
62936W        W35251   8.795  14.793   4.597
62937W        W35252  34.780   8.608   3.403
62938W        W35253  10.783   7.149  12.423
62939W        W35254  36.291   0.236  11.569
62940W        W35255  40.846  38.896   1.375
62941W        W35256   9.325   3.344  12.405
62942W        W35257  24.666  20.051  13.541
62943W        W35258  23.423  33.368  13.353
62944W        W35259  28.684   2.783  13.839
62945W        W35260  44.736  41.897   0.343
62946W        W35261  21.200  35.998   2.920
62947W        W35262  14.556  11.587   3.362
62948W        W35263  31.859  15.051   3.407
62949W        W35264  32.459  26.477  11.119
62950W        W35265  30.132  19.815   0.246
62951W        W35266   9.846  29.225  11.499
62952W        W35267  40.554  25.845   3.291
62953W        W35268   8.928  23.976  14.460
62954W        W35269   7.898  12.815  13.911
62955W        W35270  43.759  42.363  10.655
62956W        W35271  27.054   9.911   3.239
62957W        W35272   4.299  15.364  12.327
62958W        W35273  27.248  43.266   3.213
62959W        W35274  27.453   3.977   1.312
62960W        W35275  14.338  18.151  13.845
62961W        W35276   4.514   4.247  12.987
62962W        W35277   6.426  23.969   3.671
62963W        W35278   1.783  35.877  12.108
62964W        W35279  36.652  34.395   1.377
62965W        W35280  29.005   4.295  11.012
62966W        W35281  37.619  26.782   3.213
62967W        W35282  23.257   2.221  14.418
62968W        W35283  40.256  39.620  10.736
62969W        W35284  19.535  16.304  12.944
62970W        W35285  27.618  25.536  12.576
62971W        W35286  32.957  39.107  10.092
62972W        W35287   4.788  12.641  13.870
62973W        W35288  13.710  19.178   0.452
62974W        W35289   5.625  10.266  12.026
62975W        W35290   7.182  41.064   0.877
62976W        W35291  17.242  11.246  10.879
62977W        W35292  37.878  23.194   4.810
62978W        W35293  18.323  20.439  10.711
62979W        W35294  23.768  21.954  14.834
62980W        W35295  39.148   8.819  14.928
62981W        W35296  15.579  31.878  13.982
62982W        W35297  30.979  21.795  13.951
62983W        W35298   7.704   4.896   2.249
62984W        W35299   6.521  40.859  10.600
62985W        W35300  28.129   3.030  11.164
62986W        W35301   2.315  25.820  14.501
62987W        W35302  39.348   5.946  14.556
62988W        W35303   2.966  20.182  11.034
62989W        W35304   7.362  37.005   4.683
62990W        W35305  22.859  36.329  14.805
62991W        W35306  27.566  22.502  10.777
62992W        W35307  41.417  12.987  14.411
62993W        W35308   4.293   3.472   3.632
62994W        W35309   4.247   4.742  10.691
62995W        W35310  15.465  40.965   5.034
62996W        W35311  43.395  31.697  11.601
62997W        W35312  39.191  39.932  13.557
62998W        W35313  26.477   2.284  11.040
62999W        W35314  18.031  30.882  14.202
63000W        W35315   3.369  21.090  12.950
63001W        W35316  44.265   2.963   2.828
63002W        W35317  44.183  37.607  10.206
63003W        W35318   5.476  32.609  13.477
63004W        W35319  43.735  10.592   1.734
63005W        W35320  41.234  23.655  14.037
63006W        W35321  30.629  37.343   1.023
63007W        W35322   7.779   5.374  12.655
63008W        W35323  31.049  39.576  12.898
63009W        W35324  38.531  23.734   5.391
63010W        W35325  18.518  18.696  13.398
63011W        W35326  27.599  17.853   0.196
63012W        W35327  12.641   6.108   0.888
63013W        W35328  21.641  28.492   0.074
63014W        W35329  16.917  15.277  14.999
63015W        W35330   3.307   0.751   4.208
63016W        W35331   9.099   4.779  11.638
63017W        W35332  16.091   3.771  14.288
63018W        W35333   1.438   5.154   4.641
63019W        W35334  35.568   5.932  10.975
63020W        W35335  28.581  41.719  12.595
63021W        W35336  20.036  16.950  12.435
63022W        W35337  43.077  40.146   1.423
63023W        W35338  15.817  19.392   3.957
63024W        W35339  41.573   2.336   4.276
63025W        W35340   9.989  27.107   0.847
63026W        W35341   0.317  43.828   1.300
63027W        W35342  14.279  40.338  12.806
63028W        W35343  23.047   5.248   1.838
63029W        W35344   9.689  20.622  12.895
63030W        W35345  29.430  27.341  11.802
63031W        W35346  41.552  38.413   1.493
63032W        W35347  36.175  41.598  12.181
63033W        W35348  36.121  17.201   3.584
63034W        W35349  28.929  12.813  14.812
63035W        W35350  21.621  20.691   4.793
63036W        W35351  41.418  26.484  11.234
63037W        W35352  30.479   3.330   4.724
63038W        W35353  13.859  44.199   3.680
63039W        W35354   9.705   4.923   2.841
63040W        W35355  29.755  35.011  14.402
63041W        W35356  18.304  16.505   2.252
63042W        W35357   1.979  13.098  14.442
63043W        W35358  34.147  17.249  12.713
63044W        W35359   4.873  37.806  12.547
63045W        W35360  42.652  31.845  12.022
63046W        W35361  18.918  29.920   1.370
63047W        W35362  39.098  13.654   1.728
63048W        W35363   8.385  33.475   3.594
63049W        W35364  39.433   1.301   3.859
63050W        W35365   4.943  26.045   0.838
63051W        W35366  11.146  30.690   2.436
63052W        W35367  33.575  33.424   5.063
63053W        W35368  14.780  35.977   0.811
63054W        W35369  29.019  27.130  10.704
63055W        W35370  44.147  27.112  10.494
63056W        W35371  10.623  10.660   4.498
63057W        W35372  26.047  42.375   0.846
63058W        W35373   2.149  29.947  11.603
63059W        W35374  12.186   3.247  10.624
63060W        W35375  15.831  27.875  11.553
63061W        W35376  38.653  37.585   4.124
63062W        W35377  16.623  40.809   0.762
63063W        W35378  14.293  27.534   2.615
63064W        W35379  26.441  42.555  10.871
63065W        W35380  31.172   3.374   2.937
63066W        W35381  10.226  26.580  13.116
63067W        W35382  41.446  41.532  11.074
63068W        W35383  34.815   5.281  14.823
63069W        W35384  43.589  26.733  11.990
63070W        W35385  11.230   6.300   1.599
63071W        W35386  29.593  37.597   2.438
63072W        W35387  28.070  41.767   1.904
63073W        W35388  23.784   7.665  13.391
63074W        W35389  32.286  34.359  10.678
63075W        W35390   3.250  11.877   3.251
63076W        W35391   1.551  19.210  13.887
63077W        W35392  39.398  11.859   1.312
63078W        W35393  23.460   9.286  10.689
63079W        W35394  29.208  29.324   3.622
63080W        W35395   9.738  25.102   2.948
63081W        W35396   1.362   8.045   1.761
63082W        W35397  14.841  32.150  13.413
63083W        W35398  18.699  23.180   4.766
63084W        W35399  29.163  19.361  10.436
63085W        W35400  11.408  13.619  14.006
63086W        W35401  20.613  30.001   0.426
63087W        W35402  16.215   9.231   0.956
63088W        W35403  15.119   4.312  14.995
63089W        W35404  15.152  33.443  10.464
63090W        W35405   7.679  21.819  10.691
63091W        W35406  30.564  30.502   0.719
63092W        W35407  23.969  12.582   2.316
63093W        W35408  21.755  39.838   0.246
63094W        W35409  10.187  21.084  11.845
63095W        W35410   3.247  18.828  11.043
63096W        W35411   6.121  31.452  14.320
63097W        W35412  28.951   9.776  10.830
63098W        W35413  17.250  21.504   2.254
63099W        W35414   9.839  40.965  13.473
63100W        W35415  13.711  41.230  10.959
63101W        W35416  42.766  28.582  12.669
63102W        W35417  33.633  10.292  10.681
63103W        W35418  23.216  40.997  11.098
63104W        W35419  17.679   2.569  12.455
63105W        W35420  10.765  36.446  11.721
63106W        W35421   4.315  26.599   2.192
63107W        W35422   4.624  38.161  11.660
63108W        W35423  43.434  27.646  10.863
63109W        W35424  12.370  14.183   2.640
63110W        W35425   2.465  21.483  11.521
63111W        W35426  40.682  43.880  12.492
63112W        W35427   5.554  37.093  11.100
63113W        W35428   1.405  19.009   1.354
63114W        W35429  43.485  21.749  10.988
63115W        W35430  44.395  25.963  10.558
63116W        W35431  30.999  30.635   0.451
63117W        W35432  19.720   9.770  11.600
63118W        W35433  39.941  44.191  13.558
63119W        W35434  31.965  44.585  14.432
63120W        W35435  25.114  36.287  14.288
63121W        W35436   0.234  40.425  11.632
63122W        W35437  38.365  29.009   2.260
63123W        W35438  16.085  19.288  11.091
63124W        W35439  24.221   9.357   2.734
63125W        W35440  16.899  10.227   1.766
63126W        W35441  15.360  10.128   0.479
63127W        W35442  18.953  30.219  13.441
63128W        W35443  28.973  21.480  11.678
63129W        W35444  20.745  44.848   4.576
63130W        W35445  23.245  25.628   4.704
63131W        W35446  30.580  23.450   0.818
63132W        W35447  22.880  29.365   2.160
63133W        W35448  37.112  38.402   0.860
63134W        W35449   8.749  10.363   4.591
63135W        W35450  35.983  22.377   2.155
63136W        W35451  35.337  25.704   4.726
63137W        W35452  23.619  32.477  14.424
63138W        W35453  32.640  26.551  13.269
63139W        W35454   5.807  30.513   1.841
63140W        W35455  37.956  24.910  10.282
63141W        W35456  41.502  42.764   5.071
63142W        W35457  33.340   9.657   0.459
63143W        W35458   8.415   7.475  12.374
63144W        W35459  33.205  10.149   5.073
63145W        W35460  31.610   2.241   1.968
63146W        W35461  11.825  44.885   1.338
63147W        W35462   5.809  34.980  13.525
63148W        W35463  30.085   1.809   0.928
63149W        W35464   0.487  35.129  13.127
63150W        W35465  13.382  11.920  13.546
63151W        W35466  31.969   8.857   4.052
63152W        W35467  28.581  30.633   2.830
63153W        W35468  16.305  34.089   3.774
63154W        W35469   9.268  35.632  12.484
63155W        W35470  34.623   0.921   0.285
63156W        W35471  37.480   5.339  11.959
63157W        W35472  10.655   0.376   0.464
63158W        W35473  37.944  41.874  12.629
63159W        W35474   8.188  44.220  11.321
63160W        W35475  18.298  42.765  12.379
63161W        W35476  41.349  12.613   4.122
63162W        W35477   0.746   1.056  13.968
63163W        W35478   7.691  25.495   0.151
63164W        W35479  26.383  25.200  11.137
63165W        W35480  31.409  37.771   4.416
63166W        W35481  26.846  26.445  13.554
63167W        W35482   6.754  14.574   4.260
63168W        W35483  44.287  29.000  11.939
63169W        W35484   3.409  15.558   4.719
63170W        W35485  32.717  42.391  14.829
63171W        W35486  18.243   4.411   3.595
63172W        W35487  23.293   3.391   1.277
63173W        W35488  31.653  10.764   0.731
63174W        W35489  24.168  21.055  10.260
63175W        W35490   1.318  42.375  14.806
63176W        W35491  20.995  23.308  14.487
63177W        W35492  17.137  33.970  14.590
63178W        W35493  23.581   7.241  14.360
63179W        W35494  42.133   2.505  13.505
63180W        W35495  36.966   6.193  10.923
63181W        W35496   3.318  32.169  14.952
63182W        W35497  18.822  12.791   5.178
63183W        W35498  11.225  44.714   0.504
63184W        W35499  37.160   7.355   3.638
63185W        W35500   1.455  25.645   0.828
63186W        W35501  32.135  15.617  12.466
63187W        W35502  19.798  24.106   0.408
63188W        W35503  12.761   5.959   2.232
63189W        W35504  19.561  24.075   2.414
63190W        W35505  13.168  27.742  13.395
63191W        W35506  23.510  18.686   3.260
63192W        W35507  39.588  20.012  12.404
63193W        W35508  12.166   7.962   2.652
63194W        W35509  28.292  24.670   1.358
63195W        W35510  31.063  13.615  14.413
63196W        W35511  26.728  26.432   2.665
63197W        W35512   5.795  36.336  11.573
63198W        W35513  19.998   5.819  11.460
63199W        W35514   1.383  40.063   0.650
63200W        W35515  19.592  44.210   2.888
63201W        W35516   1.533  37.163  14.353
63202W        W35517  27.055  36.117  10.622
63203W        W35518  36.410  17.939   1.773
63204W        W35519  41.710  18.266  14.334
63205W        W35520  40.621   6.576  12.910
63206W        W35521  15.282   7.263  14.428
63207W        W35522  38.867  15.391  11.427
63208W        W35523  24.005  41.499  12.656
63209W        W35524  19.095  44.398  13.172
63210W        W35525  10.601  32.503   3.325
63211W        W35526  12.636  16.103  12.574
63212W        W35527  26.796  23.263   4.228
63213W        W35528  10.873  29.100   3.159
63214W        W35529  42.792  43.523   4.325
63215W        W35530   6.351   5.187  11.050
63216W        W35531  23.625  44.873   4.329
63217W        W35532   7.723  42.962   2.868
63218W        W35533  38.827  38.589   4.525
63219W        W35534  42.421   1.895   1.198
63220W        W35535  28.067  37.406   2.673
63221W        W35536   6.729   6.746  13.991
63222W        W35537  43.212  12.429   1.483
63223W        W35538  41.393  18.788  10.656
63224W        W35539  18.838  24.706  13.401
63225W        W35540  19.104   9.477  12.505
63226W        W35541   6.784  36.424   4.352
63227W        W35542  43.595  19.115  11.606
63228W        W35543  22.307  44.201  12.097
63229W        W35544  22.504  28.573   2.738
63230W        W35545  20.578  26.231  11.044
63231W        W35546   6.458   9.756   9.878
63232W        W35547  22.722  10.143   0.920
63233W        W35548  19.089  34.822  10.667
63234W        W35549  29.382   3.909   2.832
63235W        W35550  44.592  44.120   4.873
63236W        W35551  23.513  31.358   0.860
63237W        W35552  13.027  23.557   0.889
63238W        W35553  39.599   2.540  10.680
63239W        W35554  33.922  18.366   1.402
63240W        W35555   3.909  29.067  14.772
63241W        W35556   1.861  25.709  12.027
63242W        W35557  30.098  17.597   1.215
63243W        W35558  32.986   0.248  12.150
63244W        W35559  28.529  32.867  11.988
63245W        W35560  39.212  25.434  14.594
63246W        W35561   2.940  24.045   1.844
63247W        W35562  39.744  19.025   3.663
63248W        W35563  27.945  43.129  10.278
63249W        W35564   8.171   0.254   0.824
63250W        W35565  15.370   2.490  12.897
63251W        W35566  31.988   3.700  11.048
63252W        W35567  13.053  15.271  12.206
63253W        W35568  30.359  16.084   3.676
63254W        W35569  11.354   1.235  11.138
63255W        W35570  12.215  14.667   0.289
63256W        W35571  40.094  14.295   4.291
63257W        W35572  36.869  20.843   3.246
63258W        W35573  10.127  12.063   2.893
63259W        W35574  17.780   4.927   0.509
63260W        W35575  27.931   5.253  12.883
63261W        W35576  15.120  23.595   4.313
63262W        W35577  19.110  20.948  13.348
63263W        W35578  41.339  33.770  11.575
63264W        W35579  43.885  11.409   2.363
63265W        W35580   7.098   5.090  13.466
63266W        W35581  31.546   2.398   2.923
63267W        W35582   2.624  44.445   4.951
63268W        W35583  38.945  43.855   1.879
63269W        W35584   6.884  28.156  12.119
63270W        W35585   3.369  43.057   0.457
63271W        W35586  33.846  27.987  12.066
63272W        W35587  23.352  19.595   5.486
63273W        W35588   8.538  36.577  11.536
63274W        W35589  13.033   5.313   4.627
63275W        W35590   1.388  11.272  13.093
63276W        W35591  29.113   2.340  14.368
63277W        W35592   5.178   2.858   1.376
63278W        W35593   4.228  23.785  13.846
63279W        W35594  14.155  21.968   2.878
63280W        W35595  41.892  44.486   2.168
63281W        W35596  26.619  14.838  11.910
63282W        W35597   0.937  29.340  12.823
63283W        W35598  13.323   4.953   5.099
63284W        W35599  21.140  10.264  11.623
63285W        W35600  18.360  13.318  13.283
63286W        W35601  22.743  16.684  12.805
63287W        W35602  33.104  18.266  14.760
63288W        W35603  32.082   3.662   1.264
63289W        W35604  17.297  43.244  13.234
63290W        W35605   5.005  14.744   5.385
63291W        W35606   1.390  20.268   2.256
63292W        W35607  39.915  43.770   0.191
63293W        W35608  15.562  34.597  14.285
63294W        W35609  44.862  36.511   3.677
63295W        W35610   1.474  18.495  10.896
63296W        W35611  22.941  25.593  12.119
63297W        W35612  15.547  43.012  13.468
63298W        W35613  16.239   7.397  14.871
63299W        W35614  39.800  32.495  10.684
63300W        W35615  41.798  10.132   1.947
63301W        W35616  18.988  24.880  10.379
63302W        W35617   3.013  32.001   1.243
63303W        W35618   2.808  39.843   0.910
63304W        W35619   6.413  15.014  13.394
63305W        W35620   9.868  34.462  13.105
63306W        W35621  18.266  31.935  11.913
63307W        W35622   9.198  38.840   1.303
63308W        W35623  25.206   3.288  12.064
63309W        W35624  44.467   1.288  11.946
63310W        W35625  24.404   3.315  13.960
63311W        W35626  33.018  42.097  11.910
63312W        W35627  29.705  14.608  12.052
63313W        W35628  22.109  37.930   0.811
63314W        W35629  14.733  12.124  13.522
63315W        W35630  35.811  28.021   1.914
63316W        W35631  11.864  37.725  11.251
63317W        W35632  37.837   0.297   1.787
63318W        W35633  19.392   2.651   3.233
63319W        W35634  34.555  22.289   1.030
63320W        W35635  33.289   3.968  11.125
63321W        W35636   6.273  43.278  14.396
63322W        W35637  16.261  23.574   1.299
63323W        W35638  35.799  31.867  12.943
63324W        W35639  16.688  10.362  14.254
63325W        W35640  37.446  28.441   1.907
63326W        W35641  43.908  38.619  11.997
63327W        W35642   0.398  39.901  14.238
63328W        W35643   0.935  43.392  10.576
63329W        W35644  33.552  23.595  14.879
63330W        W35645  28.138   6.320  10.992
63331W        W35646  24.179   9.570   2.234
63332W        W35647  38.873  19.517   4.186
63333W        W35648  42.897  19.161  13.222
63334W        W35649  34.623  36.608  11.107
63335W        W35650  35.747  31.068  13.473
63336W        W35651  18.792   7.858   1.944
63337W        W35652  22.499  42.948   2.179
63338W        W35653  43.959   9.031   4.159
63339W        W35654  22.170  14.392  11.447
63340W        W35655  22.745  30.869  11.508
63341W        W35656  13.249   3.501   4.882
63342W        W35657  29.085   7.466  13.265
63343W        W35658  12.880   4.897  13.474
63344W        W35659  18.052  43.320   1.846
63345W        W35660  42.481  37.395  10.057
63346W        W35661   3.348  33.463   1.831
63347W        W35662  40.957  35.844  10.610
63348W        W35663   9.367  27.504   2.932
63349W        W35664   0.648  40.937   2.873
63350W        W35665  30.558  42.576  13.865
63351W        W35666  19.850  44.715  12.916
63352W        W35667   6.833  10.192  12.633
63353W        W35668   5.795  20.798  10.813
63354W        W35669  33.902   9.936  14.798
63355W        W35670  26.479  17.785   1.684
63356W        W35671  31.391   9.872  12.401
63357W        W35672  27.674  34.525   3.654
63358W        W35673  33.969  39.903  14.706
63359W        W35674   6.359  12.137   0.483
63360W        W35675  22.714  32.051   5.032
63361W        W35676  43.916  19.678   0.388
63362W        W35677  37.986  28.972   3.524
63363W        W35678  23.254  24.448   0.933
63364W        W35679  25.607   3.641   4.668
63365W        W35680  44.986  18.735   2.238
63366W        W35681  14.289  43.720  10.924
63367W        W35682   4.005  12.580  10.430
63368W        W35683  20.498  26.551   4.034
63369W        W35684  30.451  10.657   4.696
63370W        W35685  10.291   2.652   2.620
63371W        W35686  24.215  26.064  11.954
63372W        W35687  12.407  14.622  14.410
63373W        W35688  15.716   3.955  13.949
63374W        W35689  10.115  23.565  13.167
63375W        W35690  25.562  25.451   1.720
63376W        W35691  19.729   6.312   2.348
63377W        W35692  44.232   2.709   3.572
63378W        W35693  36.563  39.488   2.564
63379W        W35694  35.061  15.863   0.878
63380W        W35695  26.017  19.542   4.532
63381W        W35696  29.468  13.861   3.389
63382W        W35697  18.800  32.856   0.905
63383W        W35698  44.807   7.742   0.222
63384W        W35699  18.858  15.268  14.857
63385W        W35700  18.049  30.824  12.423
63386W        W35701  32.028  34.965   1.878
63387W        W35702  12.776  42.308   1.399
63388W        W35703  38.426  15.253   1.276
63389W        W35704   3.264  22.657  12.834
63390W        W35705  37.595  33.481   1.422
63391W        W35706  25.193   9.916  12.881
63392W        W35707  38.466   0.882   0.287
63393W        W35708  10.267   9.411   1.724
63394W        W35709  30.939  11.673   4.227
63395W        W35710  22.213  10.086  13.820
63396W        W35711  30.541   6.618  12.632
63397W        W35712  14.597  31.992  13.987
63398W        W35713  16.746  29.423  13.347
63399W        W35714  17.525   0.685  12.203
63400W        W35715  29.317  18.043   4.358
63401W        W35716  40.251  21.209  13.178
63402W        W35717  26.234  12.273   0.078
63403W        W35718  12.151  13.196  14.244
63404W        W35719  10.887   3.080   3.280
63405W        W35720  36.976  13.584  13.807
63406W        W35721  39.553  37.769  14.846
63407W        W35722  25.895  12.797  10.336
63408W        W35723   9.258  24.996   5.196
63409W        W35724  15.688  15.336   1.959
63410W        W35725   1.750  43.853   4.640
63411W        W35726  14.334   8.756   1.756
63412W        W35727  34.154  20.080  11.102
63413W        W35728  27.544  19.711  12.954
63414W        W35729  14.169   9.742   3.387
63415W        W35730  42.259  26.632   3.582
63416W        W35731   8.432   3.312  11.926
63417W        W35732  17.710  28.593  14.258
63418W        W35733  23.127   8.682   1.502
63419W        W35734  39.518  35.042  12.460
63420W        W35735  14.877  33.211   2.108
63421W        W35736  37.079   2.918  10.585
63422W        W35737  17.293   8.800   0.208
63423W        W35738  39.517  38.034  10.648
63424W        W35739  33.186  18.359  13.805
63425W        W35740  27.989  44.275   1.613
63426W        W35741  19.957   8.810  13.337
63427W        W35742  10.903   0.981  11.098
63428W        W35743   8.970  30.933   0.478
63429W        W35744  30.561  21.517   3.804
63430W        W35745  37.395  33.329   4.469
63431W        W35746  38.697  32.097  13.008
63432W        W35747   5.206  20.564   1.458
63433W        W35748  11.367  28.905  13.809
63434W        W35749  14.582  32.877  10.730
63435W        W35750  21.149  25.597   4.272
63436W        W35751   3.367   5.458   4.618
63437W        W35752  19.641   7.757   1.376
63438W        W35753  21.959  35.284   1.248
63439W        W35754  22.962  26.581  11.647
63440W        W35755  32.653   6.279   3.515
63441W        W35756   4.736  44.704  10.815
63442W        W35757  35.082  26.483   2.642
63443W        W35758   9.424  40.367  11.185
63444W        W35759  16.309  13.625  12.006
63445W        W35760  12.139  17.656  11.904
63446W        W35761  16.299   2.846   4.857
63447W        W35762  18.054  39.911   1.217
63448W        W35763  12.327  10.202  10.168
63449W        W35764  34.777  33.159  14.394
63450W        W35765  27.959   5.796  12.156
63451W        W35766  24.054   1.578   4.149
63452W        W35767  44.732  39.630  12.537
63453W        W35768  18.015  41.806   0.481
63454W        W35769  13.859  39.748  11.090
63455W        W35770  16.077  26.308   3.796
63456W        W35771   8.088  15.293  11.432
63457W        W35772  30.584   2.056  14.884
63458W        W35773  17.810  33.920  12.442
63459W        W35774  39.174  26.668   0.814
63460W        W35775  27.970  24.625   4.656
63461W        W35776  13.705  31.637   2.647
63462W        W35777  26.291  10.124   2.656
63463W        W35778  18.606  14.344   3.716
63464W        W35779  44.996  44.815   4.261
63465W        W35780   3.285  27.438   1.783
63466W        W35781  27.695  23.641   3.525
63467W        W35782   1.591  12.532  10.933
63468W        W35783   7.266   5.521  11.053
63469W        W35784  38.929   4.260   4.548
63470W        W35785  44.811  31.378   4.634
63471W        W35786  31.615  43.391  11.327
63472W        W35787  35.614  30.964   2.451
63473W        W35788  42.331  36.539  14.432
63474W        W35789  35.313  25.590   2.858
63475W        W35790  28.728  42.084  12.961
63476W        W35791  44.797  10.548  14.503
63477W        W35792  11.272  22.072   4.621
63478W        W35793   9.206   6.178   2.774
63479W        W35794   8.800  28.096   5.080
63480W        W35795  29.017  42.488  13.884
63481W        W35796  21.591  21.971   0.312
63482W        W35797  10.809  34.470  10.674
63483W        W35798   2.955  41.344  14.450
63484W        W35799  12.629  38.926   1.733
63485W        W35800   7.729  35.532  11.664
63486W        W35801  11.396  20.169  13.571
63487W        W35802  23.688  24.797   1.815
63488W        W35803  38.936  38.438  12.510
63489W        W35804   3.315  20.533   2.319
63490W        W35805  11.071  37.514  12.068
63491W        W35806  44.296  33.874   1.458
63492W        W35807  16.594  41.379   1.649
63493W        W35808   8.811  26.878  12.135
63494W        W35809   8.744  39.323   2.701
63495W        W35810  39.312  13.063  14.928
63496W        W35811  38.949  41.064  11.940
63497W        W35812  13.147  14.326  10.448
63498W        W35813  19.065  25.064  10.854
63499W        W35814  19.186   6.236  13.380
63500W        W35815  39.657  27.571   0.318
63501W        W35816  42.967  16.320   0.988
63502W        W35817   0.223   1.669   5.252
63503W        W35818  38.934  35.766   2.822
63504W        W35819   2.668   1.437   1.125
63505W        W35820  13.369  24.807  14.455
63506W        W35821  30.048  37.492  10.172
63507W        W35822   7.634  30.160  10.695
63508W        W35823  21.172  14.846  14.894
63509W        W35824  16.846  32.579  13.989
63510W        W35825  19.950  35.499  13.044
63511W        W35826  15.624  43.092  14.895
63512W        W35827  16.325  17.299  13.627
63513W        W35828   6.709  38.159   4.539
63514W        W35829  32.592   4.633  14.183
63515W        W35830  10.630  17.234   1.785
63516W        W35831  30.503  33.675   1.870
63517W        W35832   6.736  16.069  14.110
63518W        W35833   8.155  28.225  14.166
63519W        W35834  31.452  39.319   4.266
63520W        W35835  10.874   4.894  12.936
63521W        W35836   7.339  39.890   3.687
63522W        W35837  39.821   3.420  10.696
63523W        W35838  11.335  19.133  13.306
63524W        W35839  19.002   6.665  13.596
63525W        W35840  22.984  42.831   3.640
63526W        W35841   1.392  10.821  10.587
63527W        W35842  29.681  27.963   3.051
63528W        W35843  19.614  16.300  10.618
63529W        W35844  21.576  37.508   3.742
63530W        W35845  34.618  37.064   4.778
63531W        W35846  15.123  19.983   1.928
63532W        W35847   4.891  24.968   0.675
63533W        W35848   1.944  28.072  10.884
63534W        W35849  38.685  17.600  11.414
63535W        W35850  17.960  18.979  13.034
63536W        W35851   8.090   3.965  11.649
63537W        W35852   6.770  26.332   1.243
63538W        W35853   8.491  11.608  11.198
63539W        W35854   8.286  41.447   3.311
63540W        W35855  41.813  18.858  13.689
63541W        W35856  24.928  42.541   2.735
63542W        W35857   1.395  33.031   1.258
63543W        W35858  35.877   6.655   0.912
63544W        W35859  32.057  19.003  10.684
63545W        W35860   9.177  41.123   4.782
63546W        W35861  35.047  12.849   0.931
63547W        W35862  39.847  11.590   2.730
63548W        W35863  19.401  15.649   2.909
63549W        W35864  27.618  13.164   3.663
63550W        W35865  23.100  25.662   3.072
63551W        W35866  27.978   5.886   4.333
63552W        W35867  32.115  13.345   2.325
63553W        W35868   1.277  30.394  13.436
63554W        W35869   9.104  19.160   0.355
63555W        W35870  43.957  33.902  11.221
63556W        W35871  16.552  27.761   4.632
63557W        W35872  36.630   2.265   0.783
63558W        W35873  34.284  27.178  11.798
63559W        W35874  42.892  42.819  11.415
63560W        W35875  21.311  17.634  14.871
63561W        W35876  36.581  30.514  12.542
63562W        W35877  41.571  11.227  11.011
63563W        W35878  26.725   5.972   5.181
63564W        W35879  13.136   5.272  11.396
63565W        W35880  11.309  26.781   2.145
63566W        W35881  33.918  17.318   1.388
63567W        W35882  42.235  14.111  12.871
63568W        W35883  21.680  40.816  14.350
63569W        W35884  11.271  17.585   3.674
63570W        W35885  43.086   9.864   0.044
63571W        W35886  35.657   2.236  14.124
63572W        W35887  26.209  34.109  14.349
63573W        W35888  11.207  16.776   2.402
63574W        W35889  44.026  29.008  14.974
63575W        W35890   6.225   8.944   2.356
63576W        W35891  27.356  31.434  14.853
63577W        W35892  28.968  42.170   0.009
63578W        W35893  27.988  33.729   3.288
63579W        W35894  17.267   9.381   4.499
63580W        W35895  33.090  19.129   1.199
63581W        W35896  41.801  14.298   3.252
63582W        W35897  25.117   7.468  10.551
63583W        W35898  10.792  36.917  10.658
63584W        W35899  14.287  12.650   4.399
63585W        W35900  17.640   8.644  11.166
63586W        W35901   5.206  34.596   3.717
63587W        W35902  17.549  20.837  12.879
63588W        W35903   6.518  31.555  11.679
63589W        W35904  24.184  34.456  12.663
63590W        W35905  14.567  15.593   4.549
63591W        W35906  17.069  11.131   0.530
63592W        W35907  14.207   2.353  11.926
63593W        W35908  41.404  19.638   0.767
63594W        W35909  23.819   8.284  14.747
63595W        W35910  40.288  11.858  13.329
63596W        W35911  13.603  33.247   0.870
63597W        W35912   3.329  42.847  12.941
63598W        W35913  21.456  14.097   4.589
63599W        W35914  31.634  32.131   0.301
63600W        W35915  10.211  30.154   2.327
63601W        W35916  14.326   6.709   1.899
63602W        W35917  29.275  41.926   2.672
63603W        W35918  22.275  33.179   3.101
63604W        W35919  44.976  40.096   1.946
63605W        W35920  20.624  11.138   3.723
63606W        W35921  44.295  38.818  12.432
63607W        W35922  25.540  32.692   4.111
63608W        W35923  20.776  28.766  14.973
63609W        W35924  12.418  39.883  14.970
63610W        W35925  40.330  30.340   3.853
63611W        W35926  42.847  43.368  13.695
63612W        W35927  42.020   3.116   4.393
63613W        W35928  21.894  38.336   1.050
63614W        W35929  33.603   8.235   3.798
63615W        W35930  35.070  38.359   1.761
63616W        W35931  17.919  15.649   3.774
63617W        W35932  28.607  36.853   0.743
63618W        W35933  24.750  11.120   4.463
63619W        W35934  35.020  17.364   4.625
63620W        W35935  27.150  21.134  13.139
63621W        W35936  41.993  41.293   0.452
63622W        W35937  26.207  30.458   4.421
63623W        W35938  13.326  16.776   4.281
63624W        W35939  18.231  21.649  12.346
63625W        W35940  19.401  42.716  13.960
63626W        W35941  31.156  44.100  13.964
63627W        W35942   8.970   4.934   3.297
63628W        W35943  36.575  41.748   1.885
63629W        W35944  30.197   4.362  14.026
63630W        W35945  27.967  26.670  13.672
63631W        W35946  35.350  28.613   4.660
63632W        W35947  25.699  17.507  13.988
63633W        W35948  14.700  22.586  14.835
63634W        W35949  32.234  35.451  14.044
63635W        W35950  19.409  31.210   0.857
63636W        W35951  17.839  21.111  11.860
63637W        W35952  18.048  24.557  13.925
63638W        W35953   2.517  34.380  11.482
63639W        W35954  38.384  12.218  10.924
63640W        W35955  18.939  31.204  14.331
63641W        W35956   2.616  16.351  14.188
63642W        W35957  36.024  37.831   2.385
63643W        W35958  41.433  22.792  10.718
63644W        W35959  16.578  32.049  14.955
63645W        W35960   4.935  38.793   3.364
63646W        W35961  17.528   6.848  14.324
63647W        W35962  32.683   9.743   2.239
63648W        W35963  17.610  29.909   1.371
63649W        W35964  36.958   6.742  14.864
63650W        W35965  10.404  34.622   4.265
63651W        W35966  18.057  27.764   1.935
63652W        W35967   9.900  28.079   1.986
63653W        W35968  20.762  12.151   1.883
63654W        W35969  20.524  33.405   0.042
63655W        W35970  21.643  43.953   1.647
63656W        W35971  41.047  39.099   0.924
63657W        W35972  25.772  44.273  14.920
63658W        W35973  17.857  36.932   0.218
63659W        W35974  25.149  22.622   1.479
63660W        W35975  35.381   1.459  11.649
63661W        W35976  23.589  32.084  14.772
63662W        W35977  11.897  22.391   2.707
63663W        W35978  22.711  30.528   4.779
63664W        W35979  11.183  23.341   0.739
63665W        W35980  11.253  11.134   2.409
63666W        W35981  10.481   7.379  14.928
63667W        W35982  43.877   7.876  12.341
63668W        W35983   0.269  35.493   4.700
63669W        W35984  36.328  34.102  11.085
63670W        W35985  14.657  18.072  13.429
63671W        W35986  31.507   7.635   1.381
63672W        W35987  30.126  21.510  13.430
63673W        W35988  25.611  41.844  13.644
63674W        W35989  39.877  21.813   2.621
63675W        W35990  44.367  18.937   2.237
63676W        W35991   6.952  13.242   4.652
63677W        W35992  26.820  13.246  11.199
63678W        W35993   3.993   9.749   3.085
63679W        W35994   5.338  32.128  12.588
63680W        W35995  32.156  20.793  13.043
63681W        W35996   5.912  33.386  12.540
63682W        W35997  24.213  44.403   2.903
63683W        W35998   7.379  26.996  14.385
63684W        W35999  30.406  15.364  12.008
63685W        W36000  26.603   3.032   9.973
63686W        W36001  24.410  31.936   2.665
63687W        W36002   0.288  28.275   4.409
63688W        W36003  43.803  39.085   4.039
63689W        W36004  38.354  24.768   3.683
63690W        W36005   8.887   9.430  10.964
63691W        W36006  26.474  30.053   4.626
63692W        W36007  27.276   3.217  13.637
63693W        W36008   6.255   0.407  11.196
63694W        W36009  23.198   5.693   4.067
63695W        W36010  40.734  41.703   3.481
63696W        W36011  10.028  12.113   4.419
63697W        W36012  11.371  20.002  13.069
63698W        W36013  31.052  12.457   1.621
63699W        W36014  34.651   5.903  13.703
63700W        W36015   1.209  24.171  13.874
63701W        W36016   1.798  14.210  11.077
63702W        W36017   4.968  43.315  13.635
63703W        W36018  36.463  39.056   0.275
63704W        W36019   9.928  42.855   2.467
63705W        W36020  23.295   5.001   0.068
63706W        W36021  30.033  11.755  12.231
63707W        W36022  20.200  30.548   4.578
63708W        W36023  13.436  13.805  11.532
63709W        W36024  13.659   4.403  13.436
63710W        W36025   3.856  37.006  14.930
63711W        W36026  40.701  19.156   3.585
63712W        W36027  17.454  44.979  12.084
63713W        W36028  25.609  19.756   0.022
63714W        W36029  13.916  31.353   3.368
63715W        W36030  44.842  42.241  13.801
63716W        W36031   1.736  37.577   3.142
63717W        W36032  36.123  41.247  12.557
63718W        W36033  13.293  27.968   3.608
63719W        W36034  33.472  26.676  13.734
63720W        W36035   7.227  18.844  10.395
63721W        W36036   9.817   6.266   2.305
63722W        W36037   2.180  37.318   2.294
63723W        W36038  15.357  44.509  10.653
63724W        W36039  30.934  23.183   1.456
63725W        W36040   3.872  34.067   0.742
63726W        W36041  24.923  17.515  14.437
63727W        W36042  20.582   5.883   2.161
63728W        W36043  38.992   7.632  12.515
63729W        W36044  40.568  38.486  11.187
63730W        W36045  37.707  22.499   0.752
63731W        W36046  17.138  10.041   5.210
63732W        W36047  16.376   1.402  12.633
63733W        W36048  27.653  40.896   4.529
63734W        W36049  25.374  35.145  12.041
63735W        W36050  22.735  14.289  10.661
63736W        W36051  41.712  43.225   2.841
63737W        W36052  21.738   6.944   3.245
63738W        W36053   4.463  37.638  11.884
63739W        W36054  14.303  26.855   0.828
63740W        W36055  13.739   5.064   2.662
63741W        W36056  10.325   8.771   2.855
63742W        W36057  36.001  22.045   3.866
63743W        W36058  39.845   2.641  13.491
63744W        W36059   7.843  19.159   0.173
63745W        W36060  43.962  38.520   0.526
63746W        W36061   8.802  42.326   3.649
63747W        W36062  31.523   6.850   3.467
63748W        W36063  31.488   5.159  12.815
63749W        W36064  44.389   6.195  12.631
63750W        W36065  37.567  32.543   2.354
63751W        W36066   3.731  21.597  10.666
63752W        W36067  26.943  41.031  11.561
63753W        W36068  43.784  26.411   0.817
63754W        W36069  31.314  22.955  11.076
63755W        W36070   1.868  41.993   5.002
63756W        W36071  31.672   4.471  13.977
63757W        W36072   6.439   7.049  11.633
63758W        W36073  41.331   2.294  12.041
63759W        W36074  34.733  13.374  11.990
63760W        W36075  17.228  44.212   1.375
63761W        W36076   7.870  19.075   3.924
63762W        W36077  22.487  23.237  14.546
63763W        W36078  12.609  29.234   1.393
63764W        W36079  37.818  20.078   0.448
63765W        W36080  37.974  41.319   4.090
63766W        W36081  15.841  29.327  14.887
63767W        W36082  39.545  35.998   1.839
63768W        W36083  24.746  13.045   1.887
63769W        W36084  34.501  24.993  13.959
63770W        W36085  44.549   3.413   1.394
63771W        W36086   5.174  44.517  13.918
63772W        W36087  31.982   8.360   4.230
63773W        W36088  12.285  35.853   1.251
63774W        W36089  21.027  32.444   4.818
63775W        W36090  30.948   5.782   2.820
63776W        W36091  16.501  12.831   0.968
63777W        W36092  35.725  43.355  11.095
63778W        W36093  25.067  33.158   0.903
63779W        W36094  10.645  27.650  12.844
63780W        W36095  18.176  10.907  10.644
63781W        W36096  33.523  22.403  14.016
63782W        W36097  25.448   1.266  14.735
63783W        W36098  42.346   5.346   1.364
63784W        W36099  33.133  15.601  13.444
63785W        W36100  12.548  41.842  11.446
63786W        W36101  44.729  13.088  10.151
63787W        W36102  15.291  35.023  12.128
63788W        W36103  38.311   3.684   1.022
63789W        W36104  15.710  40.519   4.920
63790W        W36105  31.639  13.870  12.808
63791W        W36106  14.433  10.947   1.789
63792W        W36107  34.653   6.965   0.276
63793W        W36108  31.031  22.768  13.395
63794W        W36109  24.578  41.037  11.949
63795W        W36110  20.470  39.562   2.743
63796W        W36111  44.908   5.296   4.827
63797W        W36112  24.390  25.959  11.470
63798W        W36113   9.406  35.493  14.372
63799W        W36114  29.471   7.388   4.704
63800W        W36115  41.596  12.198   4.277
63801W        W36116  25.699  44.043  14.454
63802W        W36117  33.949  36.904  14.816
63803W        W36118  34.413  43.819   0.986
63804W        W36119  17.164  12.803   4.126
63805W        W36120  12.140   0.852  13.394
63806W        W36121   2.843  10.409  10.555
63807W        W36122  19.982   5.442  14.996
63808W        W36123  40.741  25.080   2.578
63809W        W36124   9.127  23.694  13.061
63810W        W36125   6.738  19.754  14.513
63811W        W36126  32.423  41.794  14.465
63812W        W36127   4.293   3.461   1.675
63813W        W36128   8.727  28.128  12.907
63814W        W36129  35.373  30.314   4.116
63815W        W36130  35.037  24.573   0.304
63816W        W36131  21.554  12.903   4.502
63817W        W36132  32.252   6.413   3.802
63818W        W36133  32.958  14.337  14.219
63819W        W36134  22.662  14.066   4.627
63820W        W36135  28.044  41.617   5.171
63821W        W36136  13.623  20.142  12.627
63822W        W36137  12.814  28.387  11.940
63823W        W36138  29.181  33.278  14.957
63824W        W36139   0.571  39.987  13.756
63825W        W36140  16.912  28.662  12.255
63826W        W36141  16.569  39.971  11.507
63827W        W36142  36.560  21.253   3.426
63828W        W36143  38.403   9.264  10.752
63829W        W36144  13.611  35.913  14.836
63830W        W36145  33.962   7.372  12.908
63831W        W36146  16.200  35.453  14.505
63832W        W36147  20.309  31.559   2.736
63833W        W36148  16.625   4.675   0.008
63834W        W36149  35.525   8.412  12.155
63835W        W36150  28.543  36.202  11.153
63836W        W36151  36.641   9.848   3.318
63837W        W36152  15.885  34.830   0.472
63838W        W36153   8.479  29.313  11.235
63839W        W36154  15.745  12.094   2.833
63840W        W36155  44.972  39.163  12.526
63841W        W36156  29.485  26.184  14.431
63842W        W36157   7.796  16.734   3.299
63843W        W36158  22.315  18.608  11.851
63844W        W36159  10.941  31.614   1.957
63845W        W36160  39.926  30.835   2.248
63846W        W36161  33.870  35.959  12.021
63847W        W36162  30.667  24.082  12.783
63848W        W36163   9.772   3.431   2.756
63849W        W36164  13.855  42.319   0.198
63850W        W36165  20.644  23.988  10.830
63851W        W36166   0.913  21.222   0.745
63852W        W36167  41.652   9.249  12.753
63853W        W36168   5.364   9.130  11.207
63854W        W36169  10.317  22.944  10.375
63855W        W36170  32.037   2.649  13.496
63856W        W36171  12.892  16.009  12.123
63857W        W36172  24.760  33.477  14.442
63858W        W36173  18.610  15.076   4.314
63859W        W36174  14.183  38.552   4.171
63860W        W36175  41.448  32.996   1.094
63861W        W36176  23.894   1.241   3.211
63862W        W36177   4.193  29.485   2.449
63863W        W36178   0.948  16.269   3.775
63864W        W36179   1.138   3.406  13.472
63865W        W36180  29.330  31.644  12.238
63866W        W36181  40.601  20.820   1.273
63867W        W36182  36.010   3.403   0.950
63868W        W36183  20.523  13.298  14.031
63869W        W36184  36.887  24.159   5.732
63870W        W36185  13.782  20.253   3.131
63871W        W36186  16.691   4.880  13.035
63872W        W36187  20.028  21.053   5.013
63873W        W36188   0.836  17.239  11.162
63874W        W36189  11.146  44.416  10.224
63875W        W36190  25.760   5.385  12.164
63876W        W36191  38.455  43.758  13.076
63877W        W36192  40.338  31.600  10.747
63878W        W36193  34.980  43.914   3.995
63879W        W36194  10.199  15.803  11.063
63880W        W36195  42.297  13.796   1.725
63881W        W36196  14.399   6.246  11.530
63882W        W36197  24.705   1.223   4.176
63883W        W36198  13.220  22.617   1.262
63884W        W36199  42.976  33.399   2.837
63885W        W36200  21.796  42.711  11.582
63886W        W36201  34.677  13.676  12.444
63887W        W36202  10.391  25.156  13.534
63888W        W36203   5.485  37.729   4.132
63889W        W36204  10.580   8.807  12.919
63890W        W36205  22.180  14.762   3.793
63891W        W36206  38.552  39.758  12.983
63892W        W36207  10.184   1.238  13.451
63893W        W36208   5.856  40.415  11.592
63894W        W36209  15.212  14.103  12.609
63895W        W36210  35.644  36.239  11.050
63896W        W36211  43.315  18.735   0.728
63897W        W36212  41.029  37.917   3.353
63898W        W36213  19.885  35.641  11.174
63899W        W36214  23.723   6.278  11.630
63900W        W36215   2.231  38.522   3.178
63901W        W36216  32.645  27.421   2.929
63902W        W36217  36.436  16.493  12.982
63903W        W36218  37.575   2.028   5.066
63904W        W36219  25.004  14.535   4.319
63905W        W36220  17.081   7.331  11.381
63906W        W36221   8.635  35.980  13.380
63907W        W36222  37.688  19.577   5.032
63908W        W36223  39.294  19.741   5.015
63909W        W36224   5.678  19.334   1.179
63910W        W36225  37.779  22.494  12.883
63911W        W36226  31.531  35.104   4.044
63912W        W36227  19.753  42.859   4.627
63913W        W36228  38.027   4.478  11.347
63914W        W36229  10.900   5.754  10.566
63915W        W36230  21.494  11.939  11.896
63916W        W36231   5.509  29.410   3.397
63917W        W36232  44.229  14.003   3.720
63918W        W36233   4.967  14.685  11.009
63919W        W36234   1.456  12.198  12.077
63920W        W36235   4.727   2.488   0.636
63921W        W36236  38.523  30.792  11.542
63922W        W36237  25.814  34.615   1.763
63923W        W36238  25.487  42.040   1.332
63924W        W36239  11.836  39.395  12.667
63925W        W36240  42.818  11.650   4.088
63926W        W36241  38.159  10.202  12.112
63927W        W36242   3.372  25.358   1.836
63928W        W36243   6.285  17.702  12.411
63929W        W36244  22.995   2.792   0.387
63930W        W36245   8.424  38.441  11.704
63931W        W36246  10.665  20.979  12.030
63932W        W36247  10.713  38.320  13.385
63933W        W36248  32.356  14.818   1.777
63934W        W36249  39.700  32.721   2.359
63935W        W36250  13.728   5.850   0.403
63936W        W36251  10.296   5.763  12.936
63937W        W36252   7.777   5.518  12.164
63938W        W36253  42.751  13.888  14.842
63939W        W36254  22.730  35.404   0.937
63940W        W36255  11.659  33.481  10.152
63941W        W36256   2.274  14.515  13.367
63942W        W36257  44.220   8.430   3.343
63943W        W36258   0.937  16.099   4.287
63944W        W36259  25.708   0.090   0.322
63945W        W36260  42.845   8.698   4.258
63946W        W36261  13.368   9.306  11.253
63947W        W36262  37.641  42.805  11.314
63948W        W36263   8.430  10.241   2.252
63949W        W36264  27.130  32.052  13.351
63950W        W36265  15.114  21.876   2.824
63951W        W36266   6.604  18.409  12.067
63952W        W36267  39.522  24.535  10.368
63953W        W36268  15.951   1.587   4.993
63954W        W36269  11.191  30.859   4.607
63955W        W36270  38.219   4.881  10.655
63956W        W36271  15.792  37.292   3.179
63957W        W36272  38.505  34.198  11.602
63958W        W36273  25.014   6.488  12.453
63959W        W36274   7.207  33.209   4.754
63960W        W36275  22.057  22.189   0.321
63961W        W36276   2.125  22.665  14.893
63962W        W36277  40.450  44.456  13.932
63963W        W36278  28.283  39.912   1.747
63964W        W36279  10.293  44.849  11.031
63965W        W36280  23.800  15.824   2.304
63966W        W36281  28.183  25.138  14.296
63967W        W36282   8.246  17.487   1.828
63968W        W36283  28.019  18.269  10.681
63969W        W36284  34.247  17.562   0.119
63970W        W36285  13.729  34.509   3.882
63971W        W36286  24.759  10.878   3.030
63972W        W36287  36.948  22.483   4.699
63973W        W36288  26.577  10.594   4.145
63974W        W36289  36.610  39.798   0.793
63975W        W36290  15.758  27.189  14.263
63976W        W36291  41.982  40.310   3.311
63977W        W36292  28.149  23.730  13.430
63978W        W36293  40.428  23.518   2.053
63979W        W36294  37.883  20.766   1.294
63980W        W36295  30.583  19.096   0.237
63981W        W36296  42.309   4.310   3.164
63982W        W36297  15.625  20.519   2.860
63983W        W36298  42.444  29.024  12.537
63984W        W36299   1.681  13.241   3.911
63985W        W36300  32.460  33.372  13.366
63986W        W36301   1.366  13.565  14.054
63987W        W36302  35.553  41.370   4.092
63988W        W36303  32.522  41.930  11.624
63989W        W36304  14.155  42.377   3.788
63990W        W36305  16.326  36.535   0.936
63991W        W36306  44.808   3.229   4.751
63992W        W36307  37.137  34.490   4.869
63993W        W36308  32.166  42.747   3.149
63994W        W36309  42.863   6.417  11.962
63995W        W36310  28.493   3.939  11.993
63996W        W36311  25.201   9.060   3.752
63997W        W36312  25.546  26.415   4.068
63998W        W36313  31.128  18.522  12.328
63999W        W36314   2.768  17.838  12.311
64000W        W36315  13.364  15.633  12.438
64001W        W36316  10.620  35.056   4.084
64002W        W36317  41.614   2.883   0.913
64003W        W36318   6.751  26.042   1.946
64004W        W36319  30.475  10.177  10.725
64005W        W36320  22.490  21.955  14.414
64006W        W36321  37.804  22.216  13.317
64007W        W36322  23.922  33.344  13.556
64008W        W36323   7.638  22.047  14.337
64009W        W36324  10.121  29.505   3.678
64010W        W36325  23.184  18.376   0.341
64011W        W36326  24.709  41.028   0.178
64012W        W36327   2.872  42.880   0.348
64013W        W36328  34.100  37.833  11.190
64014W        W36329   2.964  42.408   4.866
64015W        W36330   3.373  16.854  13.030
64016W        W36331  23.685  19.338  14.246
64017W        W36332  18.558  44.370  10.183
64018W        W36333   4.217  29.978  14.326
64019W        W36334  42.500  10.667   5.059
64020W        W36335  43.217  34.498   4.591
64021W        W36336   2.066  44.364  10.607
64022W        W36337  13.873   9.695  13.416
64023W        W36338  42.919   4.025  14.941
64024W        W36339   0.820   3.804   0.005
64025W        W36340   3.210  41.964   4.689
64026W        W36341  15.479  18.179  12.969
64027W        W36342  18.291  25.117   4.210
64028W        W36343  44.039  29.958  14.981
64029W        W36344  23.351  34.002   1.971
64030W        W36345  24.175  40.810   1.935
64031W        W36346  42.002  44.023   4.319
64032W        W36347   5.382  15.614  14.529
64033W        W36348  27.233  18.163   0.403
64034W        W36349  19.154  10.706  10.273
64035W        W36350   8.908  25.520   4.209
64036W        W36351   2.545  33.899   1.844
64037W        W36352  42.501  42.757   1.891
64038W        W36353  37.762  23.172  10.368
64039W        W36354  40.055   7.206  10.625
64040W        W36355  20.311  28.131  12.986
64041W        W36356  31.024  10.303   0.917
64042W        W36357   4.017  31.967   2.229
64043W        W36358  25.994  25.927  14.467
64044W        W36359  39.966  42.821   0.906
64045W        W36360  27.489  33.381  14.123
64046W        W36361  12.756  25.987   4.967
64047W        W36362  41.555  44.399   0.772
64048W        W36363  11.851  44.268   1.723
64049W        W36364  12.309  22.697   2.835
64050W        W36365  12.976  20.625   3.257
64051W        W36366  19.003  14.867   1.769
64052W        W36367   3.925  36.901  12.492
64053W        W36368  29.188  18.673   2.729
64054W        W36369  40.971  40.014  10.685
64055W        W36370   6.928  20.612   2.872
64056W        W36371   4.848  33.531  11.545
64057W        W36372   9.827  40.667  14.797
64058W        W36373   8.434  30.508  10.705
64059W        W36374   0.834  38.925   3.540
64060W        W36375  11.441  44.894  10.372
64061W        W36376  34.927  29.397   5.010
64062W        W36377  13.502  33.132  11.630
64063W        W36378  28.908  35.950  14.084
64064W        W36379  33.145   3.308  11.111
64065W        W36380  22.066   2.766   3.287
64066W        W36381  28.593  44.899  14.900
64067W        W36382  12.385  21.843   1.154
64068W        W36383  38.750  34.797   4.472
64069W        W36384  10.336  40.322   2.198
64070W        W36385   6.408   7.314   2.372
64071W        W36386  23.090   4.219   2.745
64072W        W36387   5.033  20.152  12.410
64073W        W36388  12.571   8.204   0.844
64074W        W36389  33.644  40.287   2.681
64075W        W36390  29.061  40.622   1.886
64076W        W36391  22.525  12.070  13.311
64077W        W36392  17.340  40.156  11.122
64078W        W36393  22.399  20.107   0.251
64079W        W36394  25.169  29.932  14.013
64080W        W36395  22.959  18.625   4.542
64081W        W36396  14.112  36.595  12.618
64082W        W36397   7.575  27.762  10.065
64083W        W36398   2.409   4.279   4.207
64084W        W36399   0.111  29.078   4.555
64085W        W36400  19.799  32.842  10.845
64086W        W36401  23.962  31.781  11.087
64087W        W36402  11.796   4.748   3.280
64088W        W36403  13.268  33.801  10.436
64089W        W36404   4.378  13.351   5.007
64090W        W36405  39.695  11.218  13.415
64091W        W36406  24.249   3.937  13.493
64092W        W36407   6.615   5.687   2.734
64093W        W36408  31.509  35.326  11.376
64094W        W36409  19.077  32.210   0.979
64095W        W36410  37.112  24.674   9.704
64096W        W36411  21.252  22.668  12.827
64097W        W36412   4.455  42.527   3.738
64098W        W36413   1.024  32.978   2.425
64099W        W36414   3.256  37.895  10.624
64100W        W36415  39.332  26.581   0.275
64101W        W36416  33.040  30.671   0.300
64102W        W36417  10.205  41.861  14.555
64103W        W36418   8.600  28.038  13.950
64104W        W36419  36.991  13.254   4.410
64105W        W36420   8.137   6.974   1.733
64106W        W36421  22.467  15.164   2.595
64107W        W36422   9.298  17.723   4.726
64108W        W36423   9.360  28.072  10.221
64109W        W36424  25.163  40.416  14.265
64110W        W36425  14.139  25.192  11.998
64111W        W36426  14.321  44.862   0.403
64112W        W36427  27.178   2.823  13.987
64113W        W36428  30.953  27.664  14.754
64114W        W36429  20.622  22.548   0.461
64115W        W36430  10.757  37.338  13.921
64116W        W36431  23.722  19.738  13.501
64117W        W36432  42.199   1.404   1.209
64118W        W36433   6.688  35.543   4.075
64119W        W36434  44.510   7.538   1.456
64120W        W36435  34.730  28.081  12.515
64121W        W36436  30.410  36.854  12.161
64122W        W36437  38.185  31.720   2.316
64123W        W36438  10.526  22.425   9.865
64124W        W36439  31.995  20.592  10.885
64125W        W36440  10.178  15.195   0.834
64126W        W36441   8.432   9.859  12.005
64127W        W36442  23.193  27.505   0.700
64128W        W36443  28.565  44.861   1.860
64129W        W36444  30.503  17.380  11.207
64130W        W36445  15.312   4.500   1.742
64131W        W36446  15.864  21.640  13.025
64132W        W36447  43.846  26.927  14.235
64133W        W36448  23.227  43.052  14.937
64134W        W36449  22.760  42.449  11.086
64135W        W36450  24.646  10.329  11.973
64136W        W36451  19.274  26.047  13.534
64137W        W36452   6.223   1.819  11.131
64138W        W36453  39.548  35.410   4.496
64139W        W36454  23.066  37.607   3.647
64140W        W36455  42.070  10.565   3.412
64141W        W36456  12.769   7.196  13.412
64142W        W36457  25.541   5.756  11.861
64143W        W36458  32.217  33.541   0.399
64144W        W36459  15.152  21.233   0.313
64145W        W36460  26.672  16.885   4.563
64146W        W36461   8.638  38.073   2.308
64147W        W36462  30.600   4.524  11.125
64148W        W36463  31.470  41.300  10.575
64149W        W36464  22.644  31.546  12.140
64150W        W36465  14.109  19.159  14.675
64151W        W36466  16.764  13.063  13.796
64152W        W36467  17.314  43.943   3.870
64153W        W36468  10.458  41.122   4.055
64154W        W36469  15.574  15.607   0.851
64155W        W36470  28.379  30.674  12.444
64156W        W36471  34.905  30.129  14.500
64157W        W36472   1.738  15.136  12.885
64158W        W36473  27.259  32.929  13.868
64159W        W36474  38.970  41.518  13.042
64160W        W36475  25.675  41.229   1.791
64161W        W36476  26.213  11.626   2.757
64162W        W36477  17.642  17.354  11.993
64163W        W36478  32.070  33.161   4.124
64164W        W36479  14.331  12.217  14.744
64165W        W36480  13.246   3.041   2.195
64166W        W36481  34.591  28.965   3.482
64167W        W36482  18.815  35.631  14.072
64168W        W36483  18.328   6.646   1.945
64169W        W36484  19.561  36.055  11.015
64170W        W36485  33.265  40.927  10.970
64171W        W36486  42.785  38.847  13.644
64172W        W36487  28.673  28.625   4.135
64173W        W36488  16.814  13.722  12.232
64174W        W36489  26.165   4.345  10.134
64175W        W36490  23.793   0.287   4.583
64176W        W36491   7.406   7.641   3.563
64177W        W36492  25.442  14.615  10.819
64178W        W36493  37.386  25.733  11.912
64179W        W36494  23.100  42.811   2.704
64180W        W36495  21.039  23.880   2.743
64181W        W36496  28.151  11.635  12.528
64182W        W36497  15.997  12.135  14.016
64183W        W36498   8.487  27.598   2.268
64184W        W36499  16.541  13.532  14.500
64185W        W36500  31.248  36.685  14.030
64186W        W36501  36.175  38.362   4.183
64187W        W36502   4.899  34.097   0.927
64188W        W36503  10.219  25.036  10.697
64189W        W36504  25.142  24.656  11.035
64190W        W36505  42.083  31.585   4.289
64191W        W36506  23.618  23.945  13.099
64192W        W36507  12.207  37.840   0.178
64193W        W36508  44.513  37.549  12.179
64194W        W36509   3.293  28.019  14.769
64195W        W36510  12.565  17.133   3.675
64196W        W36511  30.876  14.736   3.721
64197W        W36512  24.545  42.364  10.786
64198W        W36513   2.028  11.318  12.096
64199W        W36514  31.959  41.238  12.980
64200W        W36515  15.593  27.169  11.925
64201W        W36516  22.865  19.782   3.716
64202W        W36517  18.140  27.100  11.903
64203W        W36518  24.743  15.690   0.401
64204W        W36519  33.619   9.320   1.654
64205W        W36520  36.328  34.363   3.198
64206W        W36521  19.018  12.155   0.317
64207W        W36522  20.768  20.453  13.906
64208W        W36523  43.675  36.127  13.948
64209W        W36524  37.599   5.763   3.032
64210W        W36525  14.621  21.711   2.827
64211W        W36526  24.020  42.454   0.815
64212W        W36527  30.382  15.333   2.235
64213W        W36528  33.299  10.751   1.655
64214W        W36529   5.244  38.382  12.911
64215W        W36530  42.700  23.079   0.510
64216W        W36531   8.327  10.626   4.603
64217W        W36532  28.555   4.394   4.703
64218W        W36533  15.808  31.198   9.997
64219W        W36534   7.175   8.309  11.418
64220W        W36535   0.906  13.870   1.126
64221W        W36536  17.658  27.458   2.713
64222W        W36537   7.111  31.960  11.128
64223W        W36538  41.394  41.784  12.409
64224W        W36539   9.249  37.824  12.966
64225W        W36540  31.895   1.615   4.905
64226W        W36541  44.552   8.534   1.362
64227W        W36542  37.360  30.610  12.047
64228W        W36543  22.013   5.052   9.985
64229W        W36544  14.637  33.272   0.634
64230W        W36545  25.550  21.462   0.949
64231W        W36546  17.786  17.711  14.381
64232W        W36547  28.550  43.766   1.855
64233W        W36548   0.931   8.753  13.310
64234W        W36549  40.273  23.116  12.158
64235W        W36550  34.951  34.128   1.218
64236W        W36551  18.949  20.058   1.389
64237W        W36552  10.889  30.480  12.377
64238W        W36553   2.712  27.874  13.505
64239W        W36554  16.870   1.445  13.984
64240W        W36555   1.481  26.496   0.356
64241W        W36556  22.036  38.948  14.354
64242W        W36557   0.867   2.620   0.075
64243W        W36558  42.035   2.753  10.935
64244W        W36559   4.948   7.889   3.629
64245W        W36560  12.696   5.841   0.213
64246W        W36561  24.139  13.855   2.706
64247W        W36562  28.022   4.163   2.239
64248W        W36563   9.847  43.062  11.643
64249W        W36564  13.104  38.482  14.494
64250W        W36565  41.076   5.856  11.984
64251W        W36566  11.369   7.812  13.753
64252W        W36567  20.097  31.987  12.556
64253W        W36568  18.149  15.670   3.304
64254W        W36569  19.661  25.929  14.997
64255W        W36570   0.002   1.521   3.673
64256W        W36571  38.821  10.773   2.261
64257W        W36572  22.744   6.735   2.787
64258W        W36573  39.442  23.490  14.792
64259W        W36574   2.085  12.099   9.702
64260W        W36575   4.466  44.862   1.085
64261W        W36576  23.680  27.110  11.453
64262W        W36577  37.918  22.847   4.449
64263W        W36578   9.134  18.736   2.320
64264W        W36579  24.487  37.290  13.975
64265W        W36580  22.466  39.335   4.695
64266W        W36581   5.978  41.380  14.762
64267W        W36582  31.960  30.237   3.588
64268W        W36583  25.007  27.369   2.931
64269W        W36584  44.269  33.070  14.864
64270W        W36585  19.027  35.775   1.838
64271W        W36586  12.979   3.799  12.491
64272W        W36587  27.911  11.166  12.570
64273W        W36588   2.436   9.823  14.202
64274W        W36589  15.117  19.132  14.977
64275W        W36590  13.767  33.118  11.128
64276W        W36591  20.619  20.320  12.848
64277W        W36592  19.993   2.767   1.462
64278W        W36593  26.719  38.505   4.539
64279W        W36594  15.226  38.381  14.197
64280W        W36595   5.455  15.681   3.637
64281W        W36596   9.681  11.348  12.682
64282W        W36597   9.558   8.781   2.408
64283W        W36598  13.829  39.899  15.000
64284W        W36599  43.492  42.731   2.964
64285W        W36600  29.441  42.857  13.241
64286W        W36601  44.748   6.688   2.357
64287W        W36602  21.084   7.894  11.335
64288W        W36603  15.463  25.694   1.307
64289W        W36604   0.709   4.742  13.910
64290W        W36605  43.926  27.097   0.348
64291W        W36606  20.638  25.639   2.569
64292W        W36607   0.309  28.063  14.369
64293W        W36608  31.587  10.791   1.270
64294W        W36609  22.261  29.624   1.537
64295W        W36610  12.169  32.516  11.609
64296W        W36611   7.246  20.534   0.770
64297W        W36612  13.882  15.008  12.649
64298W        W36613   0.456  18.269   1.862
64299W        W36614  42.636  30.563   3.707
64300W        W36615  10.835  16.326  11.472
64301W        W36616  35.683  20.739   4.601
64302W        W36617  17.645   0.692   1.719
64303W        W36618  39.012  38.596  14.398
64304W        W36619   2.634  32.957  11.578
64305W        W36620  30.983  27.620  13.771
64306W        W36621  34.635  10.859  13.459
64307W        W36622  36.589   8.450   4.105
64308W        W36623   4.064  40.195  10.993
64309W        W36624  10.827   0.293  14.992
64310W        W36625  38.041  29.413   0.648
64311W        W36626  12.312  44.281  10.701
64312W        W36627  12.903  17.773  10.701
64313W        W36628  38.647  19.167  12.422
64314W        W36629   6.308  24.943  12.581
64315W        W36630   4.049  28.455  12.916
64316W        W36631  12.493  43.924   2.392
64317W        W36632  43.206  12.858   0.058
64318W        W36633  23.949  23.212  10.651
64319W        W36634  26.724  43.475   1.753
64320W        W36635  18.614  18.311  12.024
64321W        W36636  41.149  33.473  11.180
64322W        W36637  38.970  18.454   3.579
64323W        W36638  14.789  26.954  10.703
64324W        W36639   0.250  21.504   3.271
64325W        W36640  37.014  32.947  13.878
64326W        W36641  43.463  44.781  12.484
64327W        W36642  27.720  16.528  10.968
64328W        W36643  19.223  29.015  11.519
64329W        W36644   3.151  25.535  12.427
64330W        W36645  29.590  26.410   0.783
64331W        W36646  14.036  41.958  11.490
64332W        W36647   0.744   1.977  10.613
64333W        W36648  28.950  37.822   3.302
64334W        W36649  12.804  18.256   0.292
64335W        W36650   9.793  15.626   4.326
64336W        W36651  34.900   1.825   3.715
64337W        W36652   6.932  41.566   3.501
64338W        W36653  29.126   7.869   3.139
64339W        W36654  15.737   7.158  11.181
64340W        W36655   7.450  33.850  13.987
64341W        W36656  39.917  15.876   3.283
64342W        W36657  38.365  14.454   4.987
64343W        W36658   3.227  30.465   2.340
64344W        W36659  33.147  44.483   0.811
64345W        W36660  28.916  11.727  14.439
64346W        W36661  28.474  29.603  11.186
64347W        W36662  22.691  25.688  11.449
64348W        W36663  38.060  23.578  10.531
64349W        W36664  25.324   8.778  12.050
64350W        W36665  23.181   0.885  12.836
64351W        W36666  23.492  29.161   0.185
64352W        W36667   6.302  34.670  14.326
64353W        W36668   3.436  22.011  10.717
64354W        W36669  20.570  10.550   2.115
64355W        W36670   0.728  27.566   0.002
64356W        W36671  16.998   3.524  11.983
64357W        W36672  17.005   9.155   2.144
64358W        W36673  34.335  11.133  12.587
64359W        W36674   6.020  29.123  10.992
64360W        W36675  30.965  23.967   2.742
64361W        W36676  18.180   8.920   1.290
64362W        W36677   0.442  42.763   3.134
64363W        W36678   8.707  33.514  13.411
64364W        W36679  37.179  35.389  12.402
64365W        W36680   2.405  14.290  11.526
64366W        W36681  16.817  38.123   5.005
64367W        W36682  22.080  13.783   1.593
64368W        W36683  26.285  31.155   1.815
64369W        W36684  41.151  17.719  12.335
64370W        W36685  39.831  14.670  14.610
64371W        W36686  21.715  28.644  11.526
64372W        W36687  39.168  18.148  13.627
64373W        W36688  11.927   1.762   3.604
64374W        W36689  43.726   6.710  11.073
64375W        W36690   5.836  39.983  10.871
64376W        W36691  40.085  25.186   3.814
64377W        W36692  40.463   1.561   1.784
64378W        W36693   2.346  39.678  12.441
64379W        W36694   9.587  24.031   2.929
64380W        W36695  29.681  36.411   1.320
64381W        W36696  35.438   9.282  10.505
64382W        W36697  20.014  22.768  13.030
64383W        W36698  27.903   2.211   3.850
64384W        W36699  39.979  12.148  13.774
64385W        W36700  29.709   9.877  11.533
64386W        W36701  15.198  44.814  14.996
64387W        W36702  19.249  25.054   0.505
64388W        W36703  31.077  35.864   0.082
64389W        W36704  31.283  40.395   2.273
64390W        W36705  15.760  26.680  11.856
64391W        W36706  24.627  23.464   4.549
64392W        W36707  39.371   0.446   3.678
64393W        W36708  15.083  38.018  12.511
64394W        W36709   4.450  39.247   2.467
64395W        W36710  39.790   1.977   2.694
64396W        W36711  17.571  35.781  13.966
64397W        W36712  40.019   8.305  11.557
64398W        W36713  27.848   2.731  11.514
64399W        W36714  28.404   7.264  13.949
64400W        W36715  30.211  14.801   1.430
64401W        W36716  35.409  28.132  11.617
64402W        W36717  10.609  16.563   5.497
64403W        W36718  25.522  20.739   4.637
64404W        W36719  14.834  27.067  13.082
64405W        W36720  10.403   5.568  11.699
64406W        W36721  15.234  27.717   1.281
64407W        W36722  31.070  31.258  14.398
64408W        W36723   3.368  35.119   5.013
64409W        W36724  19.896  13.829   1.824
64410W        W36725  25.599   8.820   0.429
64411W        W36726  34.079  39.811   1.727
64412W        W36727  33.033  16.231   2.725
64413W        W36728  26.580  38.574   1.088
64414W        W36729  36.608  19.220  12.632
64415W        W36730  40.004  18.129  13.849
64416W        W36731   0.953  10.421   1.718
64417W        W36732  42.825  16.682  12.682
64418W        W36733  39.376  44.516   0.073
64419W        W36734  33.834   5.807   2.347
64420W        W36735  22.491  12.361   3.731
64421W        W36736   4.308  20.252   3.755
64422W        W36737  28.436  12.616  11.948
64423W        W36738  38.405  36.715   1.780
64424W        W36739  29.591  25.593  13.461
64425W        W36740  33.243  22.003  11.958
64426W        W36741   6.720  37.117   0.313
64427W        W36742  24.398   3.821  14.408
64428W        W36743  18.583  14.120  10.239
64429W        W36744  19.157  15.893   4.282
64430W        W36745   5.954  22.671  10.961
64431W        W36746  33.122  12.416   0.285
64432W        W36747  11.871  13.427  13.476
64433W        W36748  28.343  10.877   3.210
64434W        W36749  28.711  34.328   1.829
64435W        W36750  28.642  30.651  10.695
64436W        W36751  20.615  34.661   4.951
64437W        W36752  27.519  20.986  11.454
64438W        W36753   0.872  21.210  11.392
64439W        W36754  15.649  35.183  13.376
64440W        W36755   9.710   4.225  12.504
64441W        W36756  41.648  20.358  12.741
64442W        W36757  21.160   1.929   3.905
64443W        W36758  35.611  17.645  12.377
64444W        W36759  42.262  28.157   2.492
64445W        W36760  44.887  30.376  10.454
64446W        W36761  18.148  36.862  10.520
64447W        W36762  25.873  17.243   0.399
64448W        W36763  25.483  41.464  12.463
64449W        W36764   5.085   4.684  12.331
64450W        W36765  41.010  24.720   4.277
64451W        W36766   9.420  28.743   0.222
64452W        W36767  39.992  29.461  13.000
64453W        W36768  42.723   9.073  12.022
64454W        W36769  32.628  15.470   4.475
64455W        W36770   4.798  39.965  14.606
64456W        W36771   2.968   6.756  13.950
64457W        W36772   5.138   5.488   1.801
64458W        W36773   4.912   8.987  11.414
64459W        W36774  41.069  18.084   0.799
64460W        W36775  14.714  37.115   3.141
64461W        W36776  30.047  31.986   0.407
64462W        W36777   4.678  15.329   1.605
64463W        W36778  25.657  35.110   0.350
64464W        W36779   4.884  22.506   0.385
64465W        W36780  30.510  37.135  11.743
64466W        W36781  25.725  18.692  13.545
64467W        W36782   5.779  17.538   3.328
64468W        W36783  29.863  42.961  11.553
64469W        W36784   0.530  21.653  13.861
64470W        W36785  35.990   3.846  11.271
64471W        W36786  10.554  35.878  13.780
64472W        W36787  30.568  26.722  11.405
64473W        W36788   2.622  28.641  10.859
64474W        W36789  34.615  34.524   2.870
64475W        W36790  22.683   7.441  12.958
64476W        W36791  24.613  21.149  14.968
64477W        W36792  29.963  22.650  14.349
64478W        W36793  26.727  34.581  13.872
64479W        W36794   0.832  23.046   4.359
64480W        W36795  40.139   9.989  11.930
64481W        W36796  16.508  30.230   5.092
64482W        W36797  27.435   4.894   4.648
64483W        W36798   5.987  12.184  12.180
64484W        W36799  12.504  20.574   2.193
64485W        W36800  24.117  26.059   2.698
64486W        W36801  29.541  27.054   4.053
64487W        W36802  17.211  36.853  14.878
64488W        W36803  25.053   9.119  12.927
64489W        W36804  41.943  22.316   2.147
64490W        W36805   2.946  13.294   4.751
64491W        W36806  22.139  41.800   1.685
64492W        W36807   3.713  21.987   2.429
64493W        W36808  31.164  18.224   0.321
64494W        W36809  17.680  19.338   1.856
64495W        W36810   8.671  41.895   3.940
64496W        W36811   2.905   0.593  11.975
64497W        W36812   4.784  32.136  14.866
64498W        W36813   6.201  11.718  13.344
64499W        W36814  16.715   3.150   2.249
64500W        W36815  42.836  41.737   4.105
64501W        W36816  33.553  20.500   1.906
64502W        W36817   3.091  24.420   2.905
64503W        W36818   4.965   4.509  11.571
64504W        W36819  44.994   4.464   4.098
64505W        W36820  14.490  18.658   0.406
64506W        W36821  28.617   4.607   1.765
64507W        W36822  33.947  37.924  13.964
64508W        W36823  43.563  38.254  11.600
64509W        W36824  24.123  41.297  11.788
64510W        W36825  30.163  41.968   1.638
64511W        W36826  19.777  15.500   4.136
64512W        W36827  15.682  44.630  11.924
64513W        W36828  19.206  34.387  14.865
64514W        W36829  17.463  26.654  12.355
64515W        W36830   8.913  29.111   2.299
64516W        W36831   9.345  43.264  13.283
64517W        W36832  14.557  41.929  14.891
64518W        W36833  37.086  30.018  13.906
64519W        W36834  12.101  39.975  12.398
64520W        W36835  19.189  14.694   0.959
64521W        W36836   0.743   5.657  10.262
64522W        W36837  17.582  22.454  11.439
64523W        W36838  39.006   6.159  14.226
64524W        W36839  33.938  39.863   2.696
64525W        W36840  29.349  34.806  10.341
64526W        W36841   9.148  30.027  13.042
64527W        W36842  18.480  20.205   3.143
64528W        W36843  40.188   5.672  11.105
64529W        W36844   6.522   2.528  11.519
64530W        W36845  29.980  10.856  11.806
64531W        W36846   1.015  43.158   1.484
64532W        W36847  18.318  30.866   3.798
64533W        W36848  20.718  27.918   2.797
64534W        W36849  27.285  25.640   4.086
64535W        W36850   3.105  35.012   0.738
64536W        W36851  32.557  30.494   0.436
64537W        W36852  43.570   9.738   9.691
64538W        W36853  35.183  30.421   3.646
64539W        W36854  36.432   1.944   2.082
64540W        W36855  33.749  28.300   0.264
64541W        W36856  27.385  32.587  12.578
64542W        W36857  36.876   5.378   3.616
64543W        W36858  10.288  44.918   3.288
64544W        W36859  14.567   4.765  11.941
64545W        W36860  36.050  24.669  12.952
64546W        W36861  39.026  34.470   1.390
64547W        W36862  31.966  23.477   3.727
64548W        W36863  42.487   3.862   2.412
64549W        W36864  43.268  28.387   3.579
64550W        W36865  17.667  19.026   2.848
64551W        W36866  36.613   3.692  14.387
64552W        W36867  10.249  22.571   2.898
64553W        W36868  36.840  12.601  10.622
64554W        W36869  39.917  23.661  11.584
64555W        W36870  42.842  41.889   0.166
64556W        W36871  35.484   5.825   4.164
64557W        W36872  20.204   4.790   3.393
64558W        W36873  33.826  24.013   1.654
64559W        W36874  11.600  14.653  13.923
64560W        W36875   1.328  21.046   0.999
64561W        W36876   4.966   9.370   3.628
64562W        W36877   8.976  11.928  11.973
64563W        W36878  19.196   9.962  13.914
64564W        W36879   0.180  26.139   0.999
64565W        W36880   7.211  10.857  12.612
64566W        W36881   8.431  31.383   2.871
64567W        W36882  12.733   6.874  12.860
64568W        W36883  13.221  16.774   2.802
64569W        W36884  41.305  31.111   0.044
64570W        W36885   1.181  17.691  13.355
64571W        W36886  39.387   2.728   2.872
64572W        W36887  40.246  37.389  10.871
64573W        W36888  38.120  20.822   2.271
64574W        W36889  30.531  24.110  10.891
64575W        W36890  36.783  13.724  11.809
64576W        W36891  21.183  28.362  12.392
64577W        W36892  19.725   0.956  12.460
64578W        W36893  17.894   2.525   0.441
64579W        W36894  42.880   8.721  13.425
64580W        W36895   5.854  16.874   3.761
64581W        W36896  14.352  44.922   1.287
64582W        W36897  41.982  30.471  14.386
64583W        W36898  36.708  26.867  12.153
64584W        W36899  42.658  41.845  12.547
64585W        W36900  26.719   7.201  14.795
64586W        W36901  32.480  27.543  14.848
64587W        W36902  15.140   9.758  10.758
64588W        W36903  38.899   1.761  10.314
64589W        W36904  41.793   3.793  11.955
64590W        W36905  17.758   8.329  13.440
64591W        W36906   7.729  34.653   3.600
64592W        W36907   4.972  21.411   3.696
64593W        W36908  39.399  25.614   3.326
64594W        W36909  10.430   7.275   2.846
64595W        W36910  11.117  27.699   4.641
64596W        W36911   9.103  12.614   0.232
64597W        W36912  41.970  15.620  14.957
64598W        W36913  12.040  23.668  12.326
64599W        W36914   6.764  26.907   2.658
64600W        W36915   0.665  31.776   4.792
64601W        W36916  19.705  44.691   1.497
64602W        W36917  31.931  26.580   2.192
64603W        W36918  35.111  43.652   0.403
64604W        W36919   5.346   6.273  11.386
64605W        W36920  11.868  36.699  13.169
64606W        W36921  26.008  36.249  14.363
64607W        W36922  34.652  44.031  14.543
64608W        W36923  31.185  23.992   1.431
64609W        W36924  31.277  28.519  13.856
64610W        W36925  22.689   2.999   0.886
64611W        W36926  19.821  20.987   0.578
64612W        W36927  36.474  28.442   2.429
64613W        W36928  12.597  42.428   1.869
64614W        W36929  24.757  17.694  10.738
64615W        W36930  14.522  30.898   0.902
64616W        W36931   6.297  34.102   0.292
64617W        W36932  34.040  20.192  11.959
64618W        W36933  20.167  37.566  14.458
64619W        W36934  36.050  28.159   5.524
64620W        W36935   9.363  37.438  11.617
64621W        W36936  15.314  40.779   2.800
64622W        W36937  31.093   3.975  11.744
64623W        W36938  27.241   0.914   2.775
64624W        W36939  21.729  26.261   3.849
64625W        W36940  10.330  44.281  13.399
64626W        W36941  40.071  44.351   2.187
64627W        W36942  13.237  29.971  14.813
64628W        W36943  27.644  12.048  14.643
64629W        W36944  31.219  31.924  10.177
64630W        W36945  44.355  28.719  10.952
64631W        W36946  17.715  44.037  12.643
64632W        W36947   0.503   0.052  13.820
64633W        W36948   2.503   7.651   3.743
64634W        W36949  27.660  10.318   2.351
64635W        W36950   4.893  11.935   2.459
64636W        W36951   9.744  25.209   0.645
64637W        W36952  13.409  44.445  12.038
64638W        W36953  13.228  15.961  11.034
64639W        W36954   9.149  17.713   2.635
64640W        W36955  10.716   6.623  12.499
64641W        W36956   8.926   3.696  14.472
64642W        W36957  29.175  38.115   3.678
64643W        W36958  12.310   7.869  14.987
64644W        W36959  29.377   6.220  14.859
64645W        W36960  44.024  36.536  13.150
64646W        W36961  29.079  19.500   4.673
64647W        W36962   8.836  41.774  14.644
64648W        W36963  25.446  41.364  11.945
64649W        W36964  40.709  27.247   1.377
64650W        W36965  20.176   1.422  11.158
64651W        W36966  27.154  16.298  14.323
64652W        W36967  10.961  19.018  10.751
64653W        W36968  40.365  25.048   2.217
64654W        W36969  12.178  17.230   1.374
64655W        W36970  25.533   9.683   2.482
64656W        W36971  15.832  10.788  12.046
64657W        W36972   7.120  31.521   3.750
64658W        W36973  38.534  20.259  10.743
64659W        W36974  37.000  21.014   3.744
64660W        W36975  39.368  31.620   0.839
64661W        W36976  17.779  24.971   3.246
64662W        W36977  20.821  33.103   4.837
64663W        W36978  11.170  18.126   1.031
64664W        W36979  36.189   0.005   3.688
64665W        W36980   2.317  40.935  13.567
64666W        W36981  13.696  26.350  14.515
64667W        W36982   4.268  11.635  12.033
64668W        W36983  20.771  39.008  12.491
64669W        W36984   2.203  34.379   4.043
64670W        W36985  20.597  28.996   4.542
64671W        W36986  14.082  37.487  12.213
64672W        W36987   0.425  15.613  11.131
64673W        W36988  36.511   9.415   0.912
64674W        W36989   6.171  11.411  14.791
64675W        W36990   2.784   5.595  14.404
64676W        W36991   6.872  29.998   4.936
64677W        W36992  23.538  38.848  14.711
64678W        W36993  33.242  20.571   4.619
64679W        W36994  14.099  12.322   0.184
64680W        W36995  15.948   9.989  10.647
64681W        W36996  29.974  38.393   0.439
64682W        W36997  24.506  43.100   1.233
64683W        W36998   1.707  34.043  14.426
64684W        W36999  11.650   1.998  13.874
64685W        W37000  38.331  42.284   4.662
64686W        W37001  24.104  14.350   3.549
64687W        W37002  33.890  27.695  13.852
64688W        W37003  31.429  34.102   0.250
64689W        W37004  41.698   9.357   1.814
64690W        W37005   9.631   0.258   2.592
64691W        W37006   1.311   7.228  13.287
64692W        W37007   7.716  15.856  10.088
64693W        W37008  27.456  25.989   0.362
64694W        W37009  15.592   3.246   3.643
64695W        W37010  30.623   1.270  13.171
64696W        W37011   0.689  31.964  11.136
64697W        W37012  18.457  44.728  14.337
64698W        W37013  30.107  35.011   3.858
64699W        W37014  35.573   6.094   3.704
64700W        W37015  31.461  37.141  14.038
64701W        W37016  22.998   0.697   4.154
64702W        W37017   6.658  33.638   2.285
64703W        W37018  21.530  29.648   0.995
64704W        W37019  42.563  16.279  14.779
64705W        W37020   1.220   2.933  11.086
64706W        W37021   2.013   3.192   0.244
64707W        W37022  31.999   3.899   4.637
64708W        W37023  29.902  19.779   3.081
64709W        W37024   2.521  43.377   3.309
64710W        W37025  35.271  10.767  14.930
64711W        W37026  41.365  30.355   0.445
64712W        W37027  27.599  31.234   0.361
64713W        W37028  25.586  38.638  11.932
64714W        W37029  11.300  28.507   0.413
64715W        W37030  18.936  38.617  14.012
64716W        W37031  32.221  12.856   0.747
64717W        W37032  20.160   0.171  12.566
64718W        W37033  16.880   7.916  14.822
64719W        W37034   5.765   7.896  10.935
64720W        W37035  20.191  30.002  12.584
64721W        W37036  11.137  37.325  12.941
64722W        W37037  20.096  11.301  12.518
64723W        W37038   9.311   1.460  10.362
64724W        W37039  43.521  11.209   2.657
64725W        W37040  11.314  19.340  11.829
64726W        W37041  11.087  16.532   5.274
64727W        W37042   0.495  34.012  11.550
64728W        W37043  23.850  40.798  12.478
64729W        W37044  44.745  23.204   0.357
64730W        W37045   8.718   1.917   4.834
64731W        W37046  31.933  15.186   0.055
64732W        W37047  41.548  40.416   0.385
64733W        W37048  44.865  31.039  13.602
64734W        W37049  23.019  35.127  12.143
64735W        W37050  16.029  27.387  13.833
64736W        W37051  34.548  15.167   4.630
64737W        W37052  41.412  34.818  13.842
64738W        W37053   2.827  27.139   2.868
64739W        W37054  16.065  41.305  10.523
64740W        W37055  11.108  25.106   4.241
64741W        W37056  36.372   0.537  11.157
64742W        W37057  41.212   7.571  12.512
64743W        W37058  19.204  37.862   4.876
64744W        W37059  44.959  23.092   2.721
64745W        W37060  10.897  43.533   1.743
64746W        W37061  21.064  26.127   4.657
64747W        W37062   9.389  29.028  14.790
64748W        W37063  14.577  15.184  14.382
64749W        W37064  37.512   8.388   0.528
64750W        W37065  41.014  16.813   3.347
64751W        W37066   4.166  43.463  10.999
64752W        W37067  40.812  21.270   2.853
64753W        W37068  23.526  28.964  12.403
64754W        W37069  22.593  17.571   4.158
64755W        W37070  12.062  17.584  10.906
64756W        W37071  22.688  38.982  12.015
64757W        W37072   6.265  11.648   2.286
64758W        W37073  20.723  12.635  13.801
64759W        W37074   8.616  34.103   1.777
64760W        W37075   9.880  17.116  11.885
64761W        W37076  12.857  43.869   1.380
64762W        W37077  40.497   2.320   0.486
64763W        W37078  22.358  18.638  14.882
64764W        W37079  20.815   7.405   0.399
64765W        W37080  27.214   1.699   1.690
64766W        W37081  25.227   3.013  13.889
64767W        W37082  21.898  11.896  12.513
64768W        W37083  25.185  11.909   2.389
64769W        W37084  15.328   6.300  10.445
64770W        W37085  33.628  38.631  12.209
64771W        W37086  40.755  29.785  13.257
64772W        W37087  41.263  38.556   4.188
64773W        W37088  18.202   4.513  12.913
64774W        W37089  27.471   3.591   4.620
64775W        W37090  16.609   8.924  14.993
64776W        W37091  35.922   2.762   2.767
64777W        W37092  23.617  19.287   4.544
64778W        W37093  30.484  27.882   3.298
64779W        W37094  22.476   6.887   3.734
64780W        W37095  10.184  43.608  11.043
64781W        W37096  42.003  24.631   4.471
64782W        W37097  40.781  21.791   2.850
64783W        W37098  38.759   1.792   0.590
64784W        W37099  20.466  12.571   3.808
64785W        W37100  39.851  32.839   1.349
64786W        W37101  44.451  23.115  11.106
64787W        W37102  34.933   6.810   2.269
64788W        W37103  22.951  18.673   0.731
64789W        W37104   0.883   7.536  13.336
64790W        W37105  10.708  31.903   0.245
64791W        W37106   7.851  15.846  12.874
64792W        W37107  37.608  40.382   0.145
64793W        W37108  43.509  34.399   1.553
64794W        W37109  24.291   2.925  14.774
64795W        W37110  31.943  29.208  10.752
64796W        W37111  30.203  28.889  10.625
64797W        W37112  11.808  15.186   4.782
64798W        W37113  13.181  22.129   4.577
64799W        W37114   9.247  16.285   1.252
64800W        W37115  38.495  29.132   3.621
64801W        W37116  10.135  18.600   4.633
64802W        W37117  15.649  37.995   0.386
64803W        W37118   3.912  36.895  13.381
64804W        W37119  18.276  32.626   0.685
64805W        W37120  41.945  30.202   0.890
64806W        W37121  24.024  41.559   4.129
64807W        W37122   0.346  24.015  10.709
64808W        W37123  19.568  41.169   9.587
64809W        W37124  23.839  30.897  12.467
64810W        W37125  38.754  23.483  11.084
64811W        W37126  34.849   2.955   4.742
64812W        W37127   5.950  12.130  13.576
64813W        W37128  32.292  42.952  11.843
64814W        W37129  32.444  36.601  14.506
64815W        W37130   9.058  32.610   3.184
64816W        W37131  42.313  44.965  14.773
64817W        W37132  24.617  41.941   2.921
64818W        W37133  17.590   6.357   2.788
64819W        W37134  13.135  29.569   0.284
64820W        W37135   2.432  23.934  11.603
64821W        W37136  44.256  17.112   1.729
64822W        W37137  39.435  14.130   1.272
64823W        W37138  13.129  14.277  12.498
64824W        W37139  41.398  21.847  11.463
64825W        W37140  29.406  26.690   0.371
64826W        W37141  19.545   4.739  12.436
64827W        W37142  33.622   4.249   4.920
64828W        W37143  18.096  19.056  11.302
64829W        W37144  38.884  12.654  14.973
64830W        W37145  10.181  13.407  13.516
64831W        W37146  12.761  41.479   2.841
64832W        W37147  31.719  37.406  14.415
64833W        W37148  18.487   9.678  14.681
64834W        W37149  39.162  29.868   0.773
64835W        W37150   4.225  14.919  12.684
64836W        W37151   9.889   3.865   2.440
64837W        W37152   7.815  17.313  13.027
64838W        W37153  21.984  44.410  14.873
64839W        W37154  36.448  39.310  13.885
64840W        W37155  33.284  15.533   1.469
64841W        W37156  25.020  30.551  11.369
64842W        W37157  15.263  34.964  10.841
64843W        W37158  20.217  35.365  14.820
64844W        W37159  29.466  17.274   2.901
64845W        W37160  25.312  42.225   4.731
64846W        W37161  13.613  13.877  13.300
64847W        W37162  26.774  36.788   2.408
64848W        W37163  40.608   3.889   2.813
64849W        W37164  10.753   5.780  12.084
64850W        W37165  13.178  35.990  14.532
64851W        W37166  29.285  21.337  14.148
64852W        W37167  38.415  13.670   3.121
64853W        W37168   3.284  20.754   0.926
64854W        W37169  43.469  34.376  13.481
64855W        W37170   5.327  21.770  14.491
64856W        W37171   5.410  38.341   4.160
64857W        W37172   8.782  23.215  11.775
64858W        W37173  23.023  34.354   1.722
64859W        W37174  21.954  39.817  13.721
64860W        W37175  40.397  44.764  12.609
64861W        W37176  28.203  14.116   3.221
64862W        W37177  15.014  31.736   0.244
64863W        W37178  39.952  16.303   1.652
64864W        W37179  31.891  35.428   3.779
64865W        W37180  32.399  15.033  14.378
64866W        W37181   1.288  36.441   5.464
64867W        W37182  34.035   5.390  14.353
64868W        W37183   5.791  26.267   1.256
64869W        W37184  20.472  23.631  12.106
64870W        W37185  30.613   5.303   1.266
64871W        W37186  42.577   6.063  11.078
64872W        W37187  16.315  14.643   1.416
64873W        W37188  31.382  24.679  11.531
64874W        W37189  17.819  21.034  12.466
64875W        W37190   0.281  10.358  14.536
64876W        W37191  30.834  23.631  13.026
64877W        W37192  21.995  24.353  13.760
64878W        W37193  24.891  23.474   3.661
64879W        W37194   4.839  29.831   3.903
64880W        W37195  28.222  18.307   2.747
64881W        W37196  17.807  22.151   4.167
64882W        W37197   3.766  11.710   2.882
64883W        W37198   6.844  32.790   2.569
64884W        W37199  14.535   4.993   9.839
64885W        W37200  16.193  22.204  11.536
64886W        W37201   9.842   4.659  13.934
64887W        W37202  23.075  36.038  10.634
64888W        W37203  29.380  44.868  10.508
64889W        W37204  11.201   1.058  10.673
64890W        W37205  22.547  15.698   3.724
64891W        W37206  16.754  34.504  11.455
64892W        W37207   6.634   5.252   0.294
64893W        W37208  25.672   2.058   1.180
64894W        W37209  20.254  32.935  11.112
64895W        W37210   8.036   0.983   3.747
64896W        W37211  17.728  44.269  11.726
64897W        W37212  27.680  35.172   1.922
64898W        W37213  35.172  23.708  12.588
64899W        W37214   3.949  34.139  11.755
64900W        W37215  27.960  32.148   2.164
64901W        W37216   9.933  37.767  14.839
64902W        W37217  16.780   2.258  12.569
64903W        W37218  20.701   6.281   3.427
64904W        W37219  25.056  38.907   0.299
64905W        W37220  15.886  37.470  14.072
64906W        W37221  30.992  20.676  10.627
64907W        W37222  17.892   2.361   4.154
64908W        W37223  31.140  13.608   2.672
64909W        W37224  32.628  28.054  10.590
64910W        W37225  31.702   7.692   3.233
64911W        W37226  31.903   5.109  11.960
64912W        W37227   5.019  29.087   1.254
64913W        W37228   4.200   6.855  11.627
64914W        W37229  39.227  35.367   4.077
64915W        W37230  21.791  12.623  13.838
64916W        W37231   3.723  26.597  12.373
64917W        W37232  31.387   3.417  12.533
64918W        W37233  40.693   0.945   2.751
64919W        W37234  15.617  30.469   2.552
64920W        W37235  25.558   5.950   2.879
64921W        W37236   0.372  39.281   4.613
64922W        W37237   6.787  17.627  11.036
64923W        W37238  32.887  32.471   3.972
64924W        W37239  39.037  40.819   3.825
64925W        W37240  12.223  26.124  12.637
64926W        W37241  41.439  42.418   1.177
64927W        W37242   5.478  40.371  12.857
64928W        W37243   6.727  30.435   1.431
64929W        W37244  22.504  27.895  10.576
64930W        W37245  33.956  28.858  14.856
64931W        W37246  12.655  39.470   4.670
64932W        W37247  25.215  42.440   3.155
64933W        W37248  26.242  13.697   0.028
64934W        W37249   2.358  15.202  14.074
64935W        W37250  37.936   2.901   0.929
64936W        W37251  41.703  31.958   3.143
64937W        W37252  16.643  20.558   3.604
64938W        W37253  42.418   5.247  14.637
64939W        W37254  44.361  12.377   4.678
64940W        W37255  34.378  26.609  10.958
64941W        W37256  33.892  17.081   3.578
64942W        W37257  31.053  31.357  11.706
64943W        W37258  17.289  38.258   2.248
64944W        W37259   1.930  37.528  14.250
64945W        W37260  27.692   6.899  14.362
64946W        W37261   1.786   2.028  12.003
64947W        W37262  15.889  11.948  11.927
64948W        W37263  18.539  22.937   0.103
64949W        W37264  38.539  23.726  13.280
64950W        W37265  16.796  32.946   1.605
64951W        W37266  30.928  37.349   0.588
64952W        W37267  12.094  41.894  12.062
64953W        W37268  30.981   0.395  13.082
64954W        W37269  44.588  38.376   1.209
64955W        W37270  43.462  30.526  12.139
64956W        W37271  44.510  19.072  13.231
64957W        W37272  10.797  19.507   5.115
64958W        W37273  42.927  32.436  10.714
64959W        W37274   7.160  41.986  14.898
64960W        W37275  12.724   4.770  14.061
64961W        W37276  28.540   7.886  14.179
64962W        W37277   4.664  44.530  14.935
64963W        W37278   7.779   2.922  11.694
64964W        W37279  24.681  18.567   3.930
64965W        W37280  15.781  11.830   3.261
64966W        W37281  28.199  13.092   1.395
64967W        W37282  30.840  18.561  10.858
64968W        W37283  21.092  19.823  13.416
64969W        W37284  34.871  14.264  13.961
64970W        W37285  40.651  35.957  12.133
64971W        W37286  40.780  16.712   4.599
64972W        W37287  17.593  33.245  11.960
64973W        W37288  15.717  28.841  12.610
64974W        W37289  32.439   3.775   2.024
64975W        W37290   7.849  20.961   3.546
64976W        W37291  44.451  11.160   2.652
64977W        W37292   5.113  17.062   2.754
64978W        W37293  14.283  24.071   3.625
64979W        W37294  37.091  42.293  12.776
64980W        W37295  15.206  44.708  13.363
64981W        W37296  21.025  17.980   4.476
64982W        W37297   5.964  16.068   2.488
64983W        W37298   6.293  34.169  14.306
64984W        W37299  10.483   6.904  12.086
64985W        W37300  13.301  10.311   0.389
64986W        W37301  44.408  18.518   2.734
64987W        W37302  10.658   9.882  10.714
64988W        W37303  39.352  29.313  11.805
64989W        W37304  28.086  10.228  13.701
64990W        W37305  25.946  44.433   4.177
64991W        W37306  14.128   1.893  14.756
64992W        W37307  27.647  26.702  14.273
64993W        W37308  33.587  31.572   3.168
64994W        W37309   1.801  34.326   4.704
64995W        W37310  22.504   8.675   3.733
64996W        W37311  29.957   3.456   3.472
64997W        W37312  14.220  36.256   3.106
64998W        W37313  37.621  43.469   1.722
64999W        W37314   9.828  18.495   2.826
65000W        W37315   2.330  14.785  11.368
65001W        W37316   0.798  16.130  12.238
65002W        W37317  41.967  40.035  10.441
65003W        W37318  41.654  25.014  11.679
65004W        W37319  25.413  42.992   1.282
65005W        W37320  38.368  18.788  11.648
65006W        W37321   9.161  19.911   2.832
65007W        W37322  14.868  16.533   0.781
65008W        W37323  39.520  36.362  14.897
65009W        W37324  44.715  16.225  14.108
65010W        W37325  28.382   1.391   3.518
65011W        W37326   9.644  28.055  13.420
65012W        W37327   9.929  33.973  13.389
65013W        W37328   0.013   3.748   2.731
65014W        W37329  11.121  28.233   4.608
65015W        W37330  43.850  16.071   3.288
65016W        W37331  41.304  17.322  14.252
65017W        W37332  43.953   2.629   4.063
65018W        W37333  13.803  34.080   2.745
65019W        W37334   1.814  12.422  10.002
65020W        W37335  11.528  36.363  10.445
65021W        W37336  14.164  24.429   1.332
65022W        W37337  27.261  32.650   4.637
65023W        W37338  30.573   3.109   1.773
65024W        W37339  19.964   6.788   4.032
65025W        W37340  28.431  25.713  12.906
65026W        W37341   5.426   5.624   0.916
65027W        W37342  25.600  36.298   2.105
65028W        W37343  30.996  15.228  13.054
65029W        W37344  18.217  25.427  12.501
65030W        W37345  27.421  27.188   2.685
65031W        W37346  32.760  17.792   3.794
65032W        W37347  12.028  16.959   5.015
65033W        W37348  18.880  27.026  13.551
65034W        W37349  40.718  18.051   1.704
65035W        W37350  30.372  43.583  10.948
65036W        W37351  13.189  36.410   2.283
65037W        W37352  21.711   8.819   2.383
65038W        W37353  36.408   5.900   4.741
65039W        W37354  44.894  20.277  12.031
65040W        W37355   1.997  38.550   1.424
65041W        W37356  15.062  16.597   0.077
65042W        W37357  24.240  10.543   2.197
65043W        W37358  44.509  13.554   3.626
65044W        W37359  16.696   1.560   0.750
65045W        W37360   6.303  11.946   4.557
65046W        W37361  18.236  15.587   4.213
65047W        W37362  24.503  36.061  11.148
65048W        W37363  37.871   4.789  10.177
65049W        W37364  43.860   4.463   4.605
65050W        W37365  44.433  43.265   4.620
65051W        W37366  28.803   6.312   3.330
65052W        W37367  14.135  18.708  11.168
65053W        W37368   7.946   4.726   2.687
65054W        W37369  24.614  24.990  10.408
65055W        W37370  20.049  29.171   1.404
65056W        W37371  17.780  38.296  11.574
65057W        W37372   9.056   7.343   4.521
65058W        W37373  16.152   8.620   2.216
65059W        W37374  23.266   8.028  14.330
65060W        W37375  44.275  38.167  14.006
65061W        W37376  21.686   1.307  12.140
65062W        W37377  30.468  39.537   4.515
65063W        W37378  31.491  42.285  13.436
65064W        W37379   9.402  26.215   2.295
65065W        W37380  32.560  44.716  12.575
65066W        W37381  33.086   6.277   2.361
65067W        W37382  21.669  30.389  10.890
65068W        W37383  29.082  23.933  12.847
65069W        W37384  15.159  24.547  10.863
65070W        W37385  23.913  37.103  11.059
65071W        W37386   2.520  35.682  10.055
65072W        W37387  19.137  36.753   0.865
65073W        W37388   3.054  15.013  14.643
65074W        W37389   9.382  21.099   3.345
65075W        W37390  44.550  39.797  12.087
65076W        W37391  13.169  30.135  11.053
65077W        W37392  33.250  16.333   3.651
65078W        W37393  24.874  23.321   1.702
65079W        W37394  15.226  44.378   0.945
65080W        W37395   2.486  37.950  12.969
65081W        W37396  29.139  25.121  12.161
65082W        W37397  29.363  17.133   1.968
65083W        W37398  42.323  26.123  10.502
65084W        W37399  10.642  34.515  13.549
65085W        W37400  34.426   6.187   1.864
65086W        W37401   9.431   2.365   0.212
65087W        W37402  37.934  17.941  12.549
65088W        W37403  11.054  32.175   3.277
65089W        W37404  12.269  30.237  12.896
65090W        W37405  25.495  34.802   4.523
65091W        W37406   5.676  37.831  12.588
65092W        W37407  14.358   3.337  14.955
65093W        W37408  19.319  35.105  14.464
65094W        W37409  26.962  13.796  12.469
65095W        W37410  26.187  14.215  10.852
65096W        W37411  22.774  27.935  11.037
65097W        W37412   2.819  32.594   2.418
65098W        W37413  15.878   9.079  14.482
65099W        W37414  19.179  22.338   2.763
65100W        W37415  20.760  10.210  14.938
65101W        W37416   5.751   7.208  12.904
65102W        W37417  37.000  43.096  13.573
65103W        W37418   2.855  37.098  12.912
65104W        W37419  31.075  19.997  12.307
65105W        W37420   6.929  20.702  14.377
65106W        W37421  43.791  13.517  12.949
65107W        W37422  20.231  13.224  12.503
65108W        W37423  21.307  12.736  12.940
65109W        W37424   8.458  25.579  11.620
65110W        W37425  39.048  27.039   3.124
65111W        W37426  39.824   3.071   4.522
65112W        W37427  27.652   6.411  14.175
65113W        W37428   8.303  14.167   3.389
65114W        W37429   8.887  11.690   1.016
65115W        W37430  18.659  41.503  12.314
65116W        W37431   8.431  43.985   2.926
65117W        W37432   4.266  28.989  11.018
65118W        W37433  35.490  15.471  11.144
65119W        W37434  30.835   1.833   3.214
65120W        W37435  18.071  26.177  13.540
65121W        W37436  15.498  32.533   3.389
65122W        W37437  23.733   2.787  11.013
65123W        W37438  31.939   3.276  14.899
65124W        W37439  27.983  31.466  13.365
65125W        W37440  20.104   8.149  14.026
65126W        W37441  28.828  44.985   2.285
65127W        W37442   2.665  17.160  11.613
65128W        W37443  37.084  14.172  11.973
65129W        W37444   4.957  35.339  12.940
65130W        W37445   0.726  26.612   3.363
65131W        W37446  40.963  23.029   1.342
65132W        W37447   6.784  31.587   3.367
65133W        W37448  24.414  30.469   4.230
65134W        W37449   0.062   5.222   0.880
65135W        W37450  19.083  13.607   4.566
65136W        W37451   6.846  32.612  10.311
65137W        W37452  31.496  33.349  10.672
65138W        W37453   5.922  30.789   3.569
65139W        W37454   0.730  37.370   0.883
65140W        W37455   1.548  30.406   3.869
65141W        W37456  15.210  13.849   0.348
65142W        W37457  13.397  10.870   3.106
65143W        W37458   4.149  15.963   2.667
65144W        W37459  42.494  39.837   0.922
65145W        W37460  23.944  23.489   0.786
65146W        W37461  29.269   2.069   0.308
65147W        W37462   3.323  26.928   2.794
65148W        W37463  14.041   3.866   3.014
65149W        W37464  38.034  19.133  13.253
65150W        W37465  28.509  37.408   1.409
65151W        W37466  38.061   4.279  13.507
65152W        W37467  17.845  14.113  11.505
65153W        W37468  36.083  35.093  13.336
65154W        W37469  38.122  18.644   3.717
65155W        W37470  43.677  35.403  12.234
65156W        W37471  33.386  35.181   0.794
65157W        W37472  12.803  18.042  12.410
65158W        W37473  40.113   9.852   3.712
65159W        W37474  25.847  32.960  10.301
65160W        W37475  14.804  15.766   2.761
65161W        W37476   0.090  13.502   1.966
65162W        W37477  41.828  21.454   4.593
65163W        W37478   0.483  36.501  12.888
65164W        W37479  40.966   7.479   2.772
65165W        W37480   9.442   5.695  10.902
65166W        W37481  29.420  21.717  10.744
65167W        W37482  21.593  38.587   3.860
65168W        W37483  32.329  26.885   4.798
65169W        W37484  14.053  18.136  11.915
65170W        W37485  36.495   8.712   3.652
65171W        W37486  38.940  20.930   4.593
65172W        W37487  18.643  37.300   1.597
65173W        W37488  35.612  34.585  11.165
65174W        W37489  43.518  41.461   1.347
65175W        W37490  28.929   6.644  12.871
65176W        W37491  19.780  11.569   3.067
65177W        W37492   6.410  39.911  12.886
65178W        W37493  36.488   4.998   2.398
65179W        W37494   1.335  38.130  13.235
65180W        W37495   1.980  22.405  11.522
65181W        W37496  44.460  40.571  12.362
65182W        W37497  21.055   0.866  11.530
65183W        W37498  28.129  12.840   4.186
65184W        W37499  43.794   6.862  12.413
65185W        W37500  31.951   3.790   2.675
65186W        W37501  14.307  35.841  10.679
65187W        W37502  34.136   2.552   1.907
65188W        W37503  31.457   8.124  13.322
65189W        W37504  31.064   7.036   3.603
65190W        W37505  12.968  25.845  12.033
65191W        W37506  31.217  12.840   3.570
65192W        W37507  36.892  33.517  13.164
65193W        W37508   2.601  34.952  13.616
65194W        W37509  27.119  39.914   3.456
65195W        W37510  21.247  39.452   2.906
65196W        W37511  35.677  40.537  13.277
65197W        W37512  29.465  17.173   4.595
65198W        W37513  15.794  30.650  10.091
65199W        W37514  16.705  19.004   1.929
65200W        W37515  16.337  29.598  12.015
65201W        W37516  18.221  39.199   2.471
65202W        W37517  37.874  43.844   3.436
65203W        W37518  15.585  26.744  10.929
65204W        W37519  40.776  14.333   3.120
65205W        W37520   0.819  22.071  13.445
65206W        W37521  37.529   1.710  10.753
65207W        W37522  10.153  24.520   0.720
65208W        W37523  20.645  44.781   1.287
65209W        W37524   8.189  19.372  13.802
65210W        W37525  32.791  41.918  12.870
65211W        W37526  16.555   6.119   0.828
65212W        W37527  18.274  39.628  12.881
65213W        W37528  12.888  41.992   0.701
65214W        W37529  41.107  20.787  14.827
65215W        W37530  16.818  37.315  13.751
65216W        W37531  20.282  30.437   1.703
65217W        W37532  30.053   8.624   4.742
65218W        W37533  13.271   1.713  14.611
65219W        W37534  25.146   6.663   3.820
65220W        W37535  14.841  12.735   0.119
65221W        W37536  38.974   5.376  12.001
65222W        W37537  29.487  40.271  12.621
65223W        W37538  33.931  21.248  12.632
65224W        W37539  17.310  28.274  14.295
65225W        W37540  36.177  20.437   2.314
65226W        W37541  43.459  39.285  11.566
65227W        W37542  37.823   6.311  13.579
65228W        W37543  19.703  43.414   4.680
65229W        W37544  33.224  12.183   2.127
65230W        W37545  17.755  31.460   4.269
65231W        W37546  12.106  21.155  12.398
65232W        W37547  40.981  23.175  10.901
65233W        W37548  11.193  13.364   4.664
65234W        W37549  29.867  30.449  14.203
65235W        W37550  43.290  44.063  13.405
65236W        W37551  39.483  42.487   2.347
65237W        W37552   6.742  25.503  12.967
65238W        W37553   6.663  12.637   3.258
65239W        W37554   1.435  15.141   4.377
65240W        W37555  33.984   3.293   2.881
65241W        W37556  25.588   3.452  14.534
65242W        W37557  39.569  41.768  10.318
65243W        W37558  25.575  26.679   0.108
65244W        W37559  44.523  44.761   3.537
65245W        W37560   9.656  19.370  12.614
65246W        W37561  22.522  19.492   1.276
65247W        W37562   2.473   3.045  14.948
65248W        W37563  10.229  11.590  11.551
65249W        W37564  30.351   6.702  14.320
65250W        W37565  18.984  31.038   2.732
65251W        W37566  29.079   7.128   0.949
65252W        W37567  44.431  19.757  14.356
65253W        W37568  25.893  37.893  14.685
65254W        W37569  17.873  20.526  12.630
65255W        W37570  11.619  29.726   4.046
65256W        W37571   0.697  15.572  11.611
65257W        W37572   7.179   4.201   0.332
65258W        W37573  27.006  26.727  12.526
65259W        W37574  43.803  14.396  10.651
65260W        W37575  30.934  11.179  13.534
65261W        W37576   7.759  13.221   1.211
65262W        W37577  28.612  32.042   2.824
65263W        W37578  12.714  40.732  12.893
65264W        W37579  20.537  10.132  11.787
65265W        W37580  33.214  43.589   4.669
65266W        W37581  32.421   0.252   0.239
65267W        W37582  14.260   2.974  14.282
65268W        W37583  28.162  29.257  14.756
65269W        W37584   2.939  19.201  13.539
65270W        W37585   4.818   0.501  13.008
65271W        W37586  33.084   7.148  14.189
65272W        W37587   3.454  44.962   3.616
65273W        W37588  12.786  40.938   2.809
65274W        W37589  29.033  12.624   3.204
65275W        W37590  17.076  31.437   0.824
65276W        W37591   0.075  20.041  13.865
65277W        W37592  35.409  17.665   3.720
65278W        W37593  27.421  29.755   2.741
65279W        W37594  38.842   8.820  13.530
65280W        W37595   4.914   5.951  10.628
65281W        W37596  28.394  38.533  12.897
65282W        W37597  28.489  19.975   3.356
65283W        W37598  44.281   4.759   1.986
65284W        W37599  15.062  11.339   2.685
65285W        W37600  25.776  22.430   3.167
65286W        W37601  20.463  41.272   0.916
65287W        W37602   5.289  35.853  10.771
65288W        W37603   5.144  19.783  13.191
65289W        W37604  20.103  32.230  13.427
65290W        W37605  25.967  18.661  12.083
65291W        W37606  32.391   4.411   2.289
65292W        W37607  16.468  36.093   1.166
65293W        W37608  31.028  35.879  10.694
65294W        W37609   2.213  15.327   2.524
65295W        W37610  11.275  16.641  11.346
65296W        W37611  22.229  28.358   3.294
65297W        W37612  16.638  13.238  11.941
65298W        W37613   0.388  21.558   1.851
65299W        W37614  38.197   0.465  11.012
65300W        W37615  26.101  10.277  11.628
65301W        W37616  34.969  18.097  10.368
65302W        W37617  41.914   3.195  14.320
65303W        W37618   9.642   0.366   4.380
65304W        W37619  27.980  33.844  14.967
65305W        W37620  38.341   3.982  14.407
65306W        W37621  18.603  25.025  13.081
65307W        W37622  23.937  14.827  11.101
65308W        W37623  28.609   5.859  12.812
65309W        W37624  17.308  37.864   4.189
65310W        W37625  43.571  40.489   2.408
65311W        W37626   9.696  12.201  11.135
65312W        W37627  37.099  19.408  14.845
65313W        W37628  25.953  12.098   2.779
65314W        W37629  10.616  13.691   2.727
65315W        W37630  18.269  18.095   0.232
65316W        W37631  33.922  31.396   2.783
65317W        W37632  43.929  23.579   0.260
65318W        W37633  20.669  31.026   0.176
65319W        W37634  30.491  24.928  13.381
65320W        W37635  15.283   6.496   4.251
65321W        W37636  31.955   3.027   1.881
65322W        W37637  33.503  37.869   0.423
65323W        W37638  20.450  35.490  14.331
65324W        W37639  32.582   0.581  14.721
65325W        W37640  35.560  28.405  14.547
65326W        W37641  26.215  40.441   4.783
65327W        W37642  44.338  11.261  10.998
65328W        W37643  16.589  13.787  10.754
65329W        W37644  31.088  16.078  14.532
65330W        W37645  36.276  44.814  13.281
65331W        W37646  44.229  10.712   2.837
65332W        W37647  42.243  26.886   0.065
65333W        W37648   7.862  16.676  12.493
65334W        W37649  40.854   5.650   0.682
65335W        W37650   3.221  43.804   2.999
65336W        W37651  30.424  39.331   3.595
65337W        W37652  13.277   4.367   4.394
65338W        W37653  21.721  25.641  12.581
65339W        W37654  19.637  32.919  13.356
65340W        W37655  15.665  25.135   2.959
65341W        W37656  24.658   2.429   3.276
65342W        W37657  36.569   3.105   0.257
65343W        W37658  11.775  31.029   0.017
65344W        W37659  14.926  25.285  14.885
65345W        W37660  36.997  10.546   4.758
65346W        W37661  10.274  30.268   0.754
65347W        W37662  20.619  42.257  11.273
65348W        W37663  28.855   4.356  14.832
65349W        W37664   9.646   4.307   3.248
65350W        W37665   3.201   2.932  10.620
65351W        W37666  38.058  10.230  11.568
65352W        W37667  28.741  23.739   1.727
65353W        W37668  27.096  29.520   0.899
65354W        W37669  23.079  42.448   0.775
65355W        W37670   2.371  21.545  13.766
65356W        W37671   4.705  18.704  12.050
65357W        W37672   4.150  38.008  12.085
65358W        W37673  32.105  10.156  10.040
65359W        W37674  38.386  18.265  14.883
65360W        W37675  22.206   9.254   0.758
65361W        W37676  37.916   3.912  11.005
65362W        W37677  13.574  42.297   1.903
65363W        W37678  22.615  13.769   2.430
65364W        W37679  21.048  19.595  14.389
65365W        W37680  11.690  13.893  14.404
65366W        W37681  26.613  29.875   2.291
65367W        W37682   2.436   2.730   2.124
65368W        W37683  18.120   3.361   2.155
65369W        W37684   8.034  15.646  12.426
65370W        W37685  36.014  10.497   4.928
65371W        W37686  44.735  27.400   0.751
65372W        W37687  34.797  40.891  10.522
65373W        W37688  38.863   3.909   0.259
65374W        W37689  27.627  11.125   2.675
65375W        W37690  36.375   9.209   4.843
65376W        W37691   7.384  20.749   3.594
65377W        W37692   6.342   0.424   1.414
65378W        W37693  10.208  31.189  12.418
65379W        W37694   3.342  40.438  11.194
65380W        W37695  21.033  11.105  11.656
65381W        W37696  38.650   9.731   3.134
65382W        W37697   4.829  42.368   0.733
65383W        W37698   4.472  35.948   5.200
65384W        W37699  18.261  30.415   5.504
65385W        W37700   9.451  12.610   3.397
65386W        W37701   1.393  36.335   0.157
65387W        W37702  32.525  28.462   1.866
65388W        W37703  40.066  39.537  11.973
65389W        W37704  13.248  31.332  13.915
65390W        W37705  22.264  17.477  14.889
65391W        W37706  14.284  20.501  12.044
65392W        W37707   7.392  25.180   1.610
65393W        W37708  44.804  27.921  14.901
65394W        W37709  26.025  42.755  11.112
65395W        W37710  34.470  31.045  10.645
65396W        W37711  11.117  19.534  13.966
65397W        W37712   2.441  19.015  13.434
65398W        W37713  30.618  31.213  12.504
65399W        W37714   0.022  44.679   0.311
65400W        W37715  37.059  36.388   3.696
65401W        W37716  31.453   7.254   0.935
65402W        W37717  44.075  23.869   2.142
65403W        W37718   7.306  44.956  14.246
65404W        W37719  18.232  13.158  11.928
65405W        W37720  30.612  17.353   1.307
65406W        W37721  26.172  16.682   1.112
65407W        W37722  25.729   6.096  11.057
65408W        W37723  15.119   1.299  12.236
65409W        W37724  36.052  14.287   0.675
65410W        W37725  32.393  23.066   3.073
65411W        W37726  22.001  23.294  13.858
65412W        W37727  20.978  10.713   3.249
65413W        W37728  38.043  21.614  10.952
65414W        W37729  16.103  23.430  14.002
65415W        W37730  35.306  17.739  10.584
65416W        W37731  37.961  24.055   3.427
65417W        W37732   4.206  20.368  12.131
65418W        W37733  43.141  35.019  14.162
65419W        W37734  40.979   8.217  10.832
65420W        W37735  16.141  13.381   0.034
65421W        W37736  23.222  37.110  11.928
65422W        W37737  33.645  41.441  13.482
65423W        W37738  27.649  44.944   4.076
65424W        W37739   0.815  22.940   3.807
65425W        W37740  15.173  28.829  13.284
65426W        W37741   9.083  42.964  12.904
65427W        W37742  30.863  41.838   0.944
65428W        W37743  40.609  22.547   3.348
65429W        W37744   8.800  12.589  11.152
65430W        W37745  14.856   4.547  11.563
65431W        W37746  31.965  21.202   4.948
65432W        W37747  25.570  12.393  12.951
65433W        W37748  41.293  16.101  11.150
65434W        W37749  13.926   7.210  12.516
65435W        W37750  16.373  15.471   0.354
65436W        W37751  29.667  38.005   3.792
65437W        W37752  19.521  14.191  12.498
65438W        W37753  39.846  17.774   0.393
65439W        W37754   1.924  41.441   4.132
65440W        W37755   9.758  34.142   1.282
65441W        W37756  11.820  32.993   1.812
65442W        W37757  43.605   4.356   4.164
65443W        W37758  36.472  11.634  14.731
65444W        W37759  18.512  40.536  14.984
65445W        W37760  44.835  26.861  12.844
65446W        W37761  14.292  15.068  12.350
65447W        W37762  19.695  13.545  13.413
65448W        W37763   8.926  28.094   4.203
65449W        W37764  18.573  22.634  14.266
65450W        W37765  44.913  25.331   3.743
65451W        W37766  38.957  42.013  11.889
65452W        W37767  36.342  29.209  11.193
65453W        W37768   1.928   6.404  14.470
65454W        W37769  31.390  38.464  10.759
65455W        W37770  20.116  17.570   3.120
65456W        W37771  31.681  17.356   3.335
65457W        W37772  11.203  38.974  14.353
65458W        W37773  43.367  35.328  13.811
65459W        W37774  31.833  19.203   5.206
65460W        W37775  32.611  41.938   4.630
65461W        W37776  38.458   1.971   0.176
65462W        W37777  16.659   3.816  13.595
65463W        W37778   4.444   5.469   2.274
65464W        W37779   3.096  12.573  10.858
65465W        W37780  44.481  42.505  13.443
65466W        W37781   2.334  25.120   2.801
65467W        W37782  28.243  32.048  14.924
65468W        W37783  31.020  35.266  12.268
65469W        W37784  36.483  37.692   3.691
65470W        W37785  17.131  36.496   4.403
65471W        W37786  18.621  11.657   1.284
65472W        W37787  16.034  23.135   1.864
65473W        W37788  40.293  22.754   1.898
65474W        W37789  30.447  33.827  14.283
65475W        W37790  21.473  41.502  14.786
65476W        W37791  20.679  39.107  14.952
65477W        W37792  18.344   4.880  11.991
65478W        W37793  25.227  10.908   0.336
65479W        W37794   4.927  19.333  12.902
65480W        W37795   1.307  18.013  12.536
65481W        W37796  36.790  32.086  14.340
65482W        W37797  27.761  37.849   3.809
65483W        W37798  22.528  15.627  13.450
65484W        W37799   2.145  20.074   2.723
65485W        W37800  38.509  12.207   1.374
65486W        W37801  16.671  41.451   2.640
65487W        W37802  18.037  11.712   4.247
65488W        W37803  20.999  23.771   3.311
65489W        W37804  44.371   1.005  13.474
65490W        W37805  18.077  39.504   4.305
65491W        W37806  40.345  32.427   0.940
65492W        W37807  18.946  43.348   3.282
65493W        W37808   7.363   2.243  12.661
65494W        W37809  20.184  33.934  12.568
65495W        W37810  36.654  29.532  10.977
65496W        W37811  28.629  23.203   1.722
65497W        W37812  36.595  37.252  13.936
65498W        W37813  39.138  28.949   2.446
65499W        W37814  10.121  10.152  11.685
65500W        W37815  39.456  38.026   4.326
65501W        W37816  21.545  36.625  13.437
65502W        W37817  33.989  30.581   0.399
65503W        W37818  33.601  34.943   2.237
65504W        W37819  44.981  41.946  12.538
65505W        W37820  28.273  31.907   0.439
65506W        W37821  28.858  41.242   4.855
65507W        W37822   3.282  38.975  10.706
65508W        W37823  34.842  32.151  11.192
65509W        W37824  21.235  42.636   2.423
65510W        W37825  39.478   4.538  13.664
65511W        W37826  27.117  33.862   3.268
65512W        W37827   5.303  37.269   1.189
65513W        W37828   6.252  34.541  11.589
65514W        W37829  34.113  29.842  12.124
65515W        W37830   8.774  10.904  14.421
65516W        W37831  27.610   4.950  10.668
65517W        W37832   5.822  41.391   1.685
65518W        W37833  17.311  28.626   1.922
65519W        W37834   7.788   2.543   0.932
65520W        W37835  34.763  10.655  14.931
65521W        W37836  14.501   6.930  11.438
65522W        W37837  38.650   8.390  13.111
65523W        W37838  12.324  33.277  11.084
65524W        W37839  37.332  24.521  12.522
65525W        W37840  30.603  42.984   0.411
65526W        W37841  25.201  39.874  10.705
65527W        W37842  21.249  43.254  10.427
65528W        W37843  18.016  29.123   1.433
65529W        W37844  42.114  37.480   0.280
65530W        W37845  29.064   7.781   5.142
65531W        W37846   5.018  15.089   1.332
65532W        W37847  12.297   8.667   1.239
65533W        W37848  37.639  36.097   3.169
65534W        W37849   6.175  26.493  10.721
65535W        W37850  14.298  39.343   3.663
65536W        W37851  20.059  10.599   2.308
65537W        W37852  44.809   7.557  13.661
65538W        W37853  23.342   0.368   3.316
65539W        W37854  42.812  15.017   2.159
65540W        W37855  27.196  22.247   3.153
65541W        W37856   6.302  15.773  10.157
65542W        W37857  20.573  41.068   2.735
65543W        W37858  37.829  19.139  12.381
65544W        W37859  34.851  16.540  12.375
65545W        W37860   8.576  37.951  13.540
65546W        W37861  43.141   9.051  11.125
65547W        W37862  34.586  26.977  10.659
65548W        W37863  35.444  43.936   1.736
65549W        W37864  26.774  14.051  14.450
65550W        W37865  21.682  22.713  11.098
65551W        W37866   3.430  35.174   3.855
65552W        W37867   1.164  17.287  10.743
65553W        W37868  16.208  25.989   1.680
65554W        W37869  23.647  10.311  14.279
65555W        W37870  41.933   3.245  10.748
65556W        W37871  16.283  14.940  13.962
65557W        W37872  11.714  43.975   1.248
65558W        W37873   5.919  33.077   2.282
65559W        W37874  39.321  11.617   4.367
65560W        W37875   6.454   9.876  12.903
65561W        W37876  37.302  36.802  12.511
65562W        W37877  11.433  35.842  12.592
65563W        W37878  10.284  14.982  13.276
65564W        W37879  40.381  18.518   4.093
65565W        W37880  11.556  18.417   1.216
65566W        W37881  10.800  40.472   2.424
65567W        W37882   7.498  28.229   3.682
65568W        W37883   3.777  44.341  13.334
65569W        W37884  21.181  23.124   3.618
65570W        W37885  15.301  15.065   0.767
65571W        W37886  10.938  44.790  10.511
65572W        W37887  22.040  31.934   0.849
65573W        W37888  18.308   2.330  13.392
65574W        W37889  35.910  12.655   1.949
65575W        W37890   9.961  14.350  13.090
65576W        W37891   6.164  23.480   3.702
65577W        W37892  41.236  44.206   5.014
65578W        W37893   9.799  30.779  11.729
65579W        W37894  43.985  14.084   5.064
65580W        W37895   4.761  21.039  10.986
65581W        W37896  34.823  16.180   2.228
65582W        W37897  17.375  30.532   3.502
65583W        W37898  23.035  24.064  14.745
65584W        W37899   8.189  28.686  14.818
65585W        W37900  29.241  20.381  14.491
65586W        W37901  38.967  39.781  10.691
65587W        W37902  19.565  16.492   0.457
65588W        W37903   4.758   9.957   1.823
65589W        W37904  11.661  38.778  12.758
65590W        W37905  10.821   2.047   0.735
65591W        W37906  33.732   6.234   5.126
65592W        W37907  13.596  39.203  13.319
65593W        W37908  11.390   7.622   1.408
65594W        W37909  42.485  17.222   4.576
65595W        W37910  44.028  37.373   4.120
65596W        W37911  34.925  38.270  12.431
65597W        W37912  34.156  44.522  11.903
65598W        W37913   6.492  31.518   0.624
65599W        W37914  34.879  40.407  12.666
65600W        W37915  17.289  13.607  12.467
65601W        W37916  26.524  43.486   2.331
65602W        W37917  10.895  34.523   4.378
65603W        W37918  40.286  33.378   1.064
65604W        W37919  36.720   0.273  14.577
65605W        W37920  38.893  32.505  10.927
65606W        W37921   7.227  33.841   1.838
65607W        W37922  10.242  38.610  12.449
65608W        W37923  24.622  35.159   2.099
65609W        W37924  42.477  25.621   1.644
65610W        W37925  36.127  17.280  12.594
65611W        W37926  29.824  12.663  13.392
65612W        W37927  14.249  23.001  11.989
65613W        W37928  26.451   7.357   3.279
65614W        W37929  31.409  32.932  14.927
65615W        W37930  41.459   1.835  11.691
65616W        W37931   6.210  34.817  11.143
65617W        W37932   7.144  39.289  14.469
65618W        W37933  29.632  39.799  12.785
65619W        W37934  33.067  36.108  13.419
65620W        W37935  27.699  17.256   1.339
65621W        W37936  44.468  35.578   0.839
65622W        W37937  17.670   5.475  14.701
65623W        W37938  24.675  20.210   3.934
65624W        W37939  26.611  33.686   1.839
65625W        W37940   0.395  25.681  11.091
65626W        W37941  43.707   3.468  13.924
65627W        W37942   6.349  39.629   1.063
65628W        W37943  24.243  11.496  12.205
65629W        W37944  26.897  31.967   3.186
65630W        W37945  36.937  24.418   2.244
65631W        W37946  12.241   2.793  10.296
65632W        W37947  30.601  32.564   4.925
65633W        W37948  28.626  36.574  11.613
65634W        W37949  18.225  17.803   2.610
65635W        W37950  14.827   1.170  11.031
65636W        W37951  24.723  17.894  13.997
65637W        W37952  12.190  14.833   1.217
65638W        W37953  28.113  41.940   0.978
65639W        W37954  14.734  30.889  11.579
65640W        W37955   3.832   7.416  11.925
65641W        W37956   0.005   6.534  13.392
65642W        W37957  26.987  15.386   2.834
65643W        W37958  32.004   5.681   3.684
65644W        W37959  20.677   7.901  12.430
65645W        W37960  34.220  36.535   3.306
65646W        W37961  39.562  20.090   0.787
65647W        W37962  24.174  42.809  14.908
65648W        W37963  43.821  37.383   2.322
65649W        W37964   5.845  14.208   4.592
65650W        W37965  20.002   1.960   1.677
65651W        W37966  11.868  43.306  10.929
65652W        W37967  27.055  23.223   2.412
65653W        W37968  42.978  30.159   2.179
65654W        W37969  19.245   9.649  10.199
65655W        W37970  11.811  28.981   1.315
65656W        W37971  40.383   7.126   0.772
65657W        W37972   2.812  36.373   1.154
65658W        W37973  13.755  15.778   4.117
65659W        W37974  39.844   5.269  14.719
65660W        W37975  23.506  34.189  14.699
65661W        W37976  39.357  35.000   4.928
65662W        W37977  13.310  37.544  11.598
65663W        W37978   0.092   1.191   0.501
65664W        W37979  29.193  12.818  12.375
65665W        W37980  41.068   9.625  10.983
65666W        W37981  26.226   4.680  11.986
65667W        W37982  28.107  26.172  13.595
65668W        W37983  21.713  40.378  10.907
65669W        W37984   9.337  17.204  10.100
65670W        W37985   7.438  20.770  14.298
65671W        W37986  39.880  26.633   0.208
65672W        W37987  24.603  11.390  14.966
65673W        W37988  36.959  20.644   1.710
65674W        W37989   7.238  28.684   0.292
65675W        W37990  44.803  36.239   0.210
65676W        W37991   1.442  11.871   4.138
65677W        W37992  11.863  32.327  11.963
65678W        W37993  44.375  22.267  11.699
65679W        W37994  10.064   0.941  12.883
65680W        W37995  39.067  22.784  13.476
65681W        W37996   4.300  31.931   1.797
65682W        W37997  23.468  44.802   2.371
65683W        W37998  27.088  32.463   0.485
65684W        W37999  39.778   7.177  13.454
65685W        W38000  14.335  29.043   0.001
65686W        W38001  16.102  32.948   4.608
65687W        W38002  15.306  34.039   0.860
65688W        W38003  30.371  12.260   0.752
65689W        W38004   2.777  19.598   0.444
65690W        W38005  16.726  42.082  14.220
65691W        W38006  17.498  36.118   1.231
65692W        W38007   4.932  17.547   1.454
65693W        W38008  29.523  32.091  11.083
65694W        W38009   4.919  35.386  14.740
65695W        W38010  37.456  10.095   4.377
65696W        W38011  35.147  37.517   4.062
65697W        W38012  38.865  34.359  14.837
65698W        W38013  43.578   1.533  13.076
65699W        W38014   6.362  30.386  14.291
65700W        W38015  41.520  37.765  11.408
65701W        W38016  11.247   5.666   2.360
65702W        W38017  30.474  41.765  10.680
65703W        W38018  33.034  28.474  14.462
65704W        W38019   0.021  44.945  14.004
65705W        W38020  20.014  42.468   1.903
65706W        W38021  14.052  34.910   3.784
65707W        W38022  41.796   4.882   2.828
65708W        W38023   7.626  33.423   4.550
65709W        W38024  17.069  37.011   4.298
65710W        W38025  20.902   0.693  14.793
65711W        W38026   4.149  15.221   2.286
65712W        W38027  36.783  10.578  13.337
65713W        W38028  14.321   6.341   0.777
65714W        W38029  14.120  27.925  12.407
65715W        W38030  15.730   0.309   3.448
65716W        W38031  31.519  36.383   4.580
65717W        W38032  24.136  11.254   2.741
65718W        W38033  19.256  40.905  13.386
65719W        W38034  22.728   1.743   3.781
65720W        W38035  34.014  35.374   0.535
65721W        W38036  22.111  37.938   3.591
65722W        W38037   1.288  27.973   3.109
65723W        W38038  18.030  44.954  14.527
65724W        W38039  31.636  21.453  14.402
65725W        W38040  11.064   2.367  10.588
65726W        W38041   7.198  41.657  14.502
65727W        W38042  29.879  44.308   1.829
65728W        W38043  31.014  12.754   2.571
65729W        W38044   4.014   3.401  12.429
65730W        W38045  43.174   0.619  11.404
65731W        W38046   8.415  24.076  10.932
65732W        W38047  41.091  39.773   3.043
65733W        W38048   7.449  36.495  13.538
65734W        W38049   7.778   8.100  14.097
65735W        W38050  22.478  14.796  11.088
65736W        W38051  25.991   6.697  11.999
65737W        W38052   4.694   2.984  14.301
65738W        W38053  24.676   6.031   3.354
65739W        W38054  32.876  43.438  12.088
65740W        W38055  41.048  11.183  11.801
65741W        W38056  11.118   0.011  12.464
65742W        W38057  43.849  16.694   1.163
65743W        W38058  13.761  16.903  14.768
65744W        W38059  13.110  17.112   3.628
65745W        W38060  28.142  24.787  13.349
65746W        W38061  22.749  31.974   4.521
65747W        W38062  11.131   6.598   0.333
65748W        W38063  42.579  35.850  11.378
65749W        W38064   7.795  38.584   3.600
65750W        W38065  12.759   0.765  11.653
65751W        W38066   7.194  34.677  12.496
65752W        W38067  43.475   0.316  10.497
65753W        W38068  19.291  43.934   1.781
65754W        W38069  27.157  10.426   2.297
65755W        W38070  13.551  15.197  11.341
65756W        W38071  29.197   5.758  14.707
65757W        W38072  15.046  42.321  11.918
65758W        W38073  41.887   7.750   0.979
65759W        W38074  31.162  42.286   2.655
65760W        W38075   1.951   8.797  13.169
65761W        W38076  33.363  13.117   0.276
65762W        W38077  13.268  26.189   1.297
65763W        W38078  24.094  15.829  10.327
65764W        W38079   0.218  21.030  12.535
65765W        W38080  36.464  32.326   4.658
65766W        W38081  11.343  43.945  13.001
65767W        W38082  30.363  30.233   3.988
65768W        W38083  21.633  41.640  13.925
65769W        W38084  28.049   9.403   1.950
65770W        W38085  22.311  35.285  11.462
65771W        W38086   0.390  35.342  13.712
65772W        W38087  19.030   0.046   1.174
65773W        W38088   9.333  37.897   1.747
65774W        W38089  29.883  41.350   4.727
65775W        W38090   5.173   5.419  12.064
65776W        W38091  21.465  16.354   3.736
65777W        W38092  30.917  33.098   3.769
65778W        W38093  42.583  34.024   1.933
65779W        W38094  19.330  18.921  11.153
65780W        W38095  44.313  15.318   1.206
65781W        W38096  41.445  18.987  14.936
65782W        W38097  27.208  25.045  12.015
65783W        W38098   9.458  17.824   0.820
65784W        W38099  16.991  24.515   0.177
65785W        W38100  31.570  28.715   1.903
65786W        W38101  41.498  26.135   3.639
65787W        W38102  30.346   5.785  11.516
65788W        W38103  12.246  35.920  14.250
65789W        W38104  30.239   9.208  13.123
65790W        W38105   1.476  34.553   3.097
65791W        W38106   9.099  17.882   0.008
65792W        W38107  41.030  13.879  12.390
65793W        W38108  31.965   4.866   3.343
65794W        W38109  43.815   3.007  12.437
65795W        W38110  26.979  44.380   4.339
65796W        W38111  28.167   0.151   1.672
65797W        W38112  37.410  16.184  14.875
65798W        W38113  23.578  15.737   0.431
65799W        W38114  27.597  29.479  11.676
65800W        W38115  24.386   0.690  10.235
65801W        W38116   9.279  41.240  14.058
65802W        W38117   3.492  23.134  12.796
65803W        W38118  36.613  34.420  14.505
65804W        W38119  26.208  41.847  12.339
65805W        W38120  28.466  14.116  11.097
65806W        W38121  38.437  26.794  12.399
65807W        W38122  40.944  12.639  11.931
65808W        W38123  40.296  37.556  13.449
65809W        W38124  26.639  22.300   1.856
65810W        W38125   7.370  14.548  14.534
65811W        W38126  39.521  29.578   1.045
65812W        W38127  42.784  36.637   3.234
65813W        W38128  13.711  14.699   0.472
65814W        W38129  33.134   6.762   0.529
65815W        W38130  24.098  26.993  14.387
65816W        W38131  35.153  15.253   1.001
65817W        W38132  16.278  38.837  13.440
65818W        W38133  32.800  14.608  13.479
65819W        W38134  38.925  30.305   2.673
65820W        W38135  36.360  22.461   4.892
65821W        W38136  27.746  23.159   3.680
65822W        W38137  32.370  36.073  11.997
65823W        W38138   3.303  26.416  12.651
65824W        W38139  26.632  17.197  14.347
65825W        W38140  26.989   6.712   2.423
65826W        W38141  24.658  24.481  13.315
65827W        W38142   8.879  41.846   3.460
65828W        W38143  22.077  44.808   3.193
65829W        W38144  17.644   5.937  10.566
65830W        W38145  42.506  40.779   0.814
65831W        W38146  19.127  16.320  12.049
65832W        W38147   5.663   1.876  13.765
65833W        W38148  12.758   0.352   1.900
65834W        W38149  25.094  38.912  13.495
65835W        W38150  36.091  22.439   0.030
65836W        W38151  38.233  24.212  12.437
65837W        W38152  33.301  14.684  11.243
65838W        W38153  31.508  12.857  11.092
65839W        W38154  37.303  44.519   0.633
65840W        W38155  43.800  22.635  14.778
65841W        W38156  36.339  25.990  12.977
65842W        W38157   8.889   3.365  13.068
65843W        W38158   6.166   7.247   1.314
65844W        W38159  44.721  10.695   2.685
65845W        W38160   3.752  20.462   3.203
65846W        W38161  18.735  39.019  13.105
65847W        W38162  18.664  32.631   4.567
65848W        W38163  20.697  15.505   1.954
65849W        W38164  18.660  19.507  10.390
65850W        W38165  30.681  21.892  14.370
65851W        W38166   0.850  38.109   4.209
65852W        W38167  33.154  10.225   4.490
65853W        W38168  36.372   7.803   4.536
65854W        W38169  34.129  21.102  11.638
65855W        W38170   3.468  19.253  14.300
65856W        W38171   1.747  30.899  11.398
65857W        W38172  39.030  23.963  14.411
65858W        W38173   9.677  12.420  14.466
65859W        W38174   8.784   4.725   0.375
65860W        W38175  44.810   2.677   0.098
65861W        W38176  13.596  36.973  13.715
65862W        W38177  19.143  12.339  11.627
65863W        W38178  27.709  24.711  11.092
65864W        W38179  20.022  38.945   4.087
65865W        W38180  12.257  19.490  12.144
65866W        W38181   9.993   9.198   3.566
65867W        W38182   7.335  15.298   4.171
65868W        W38183  19.561  34.266  11.190
65869W        W38184  15.836   0.828   1.316
65870W        W38185  38.617  40.323   1.268
65871W        W38186   7.503  30.474  10.284
65872W        W38187  41.539  41.734  14.298
65873W        W38188  16.292   7.973  14.005
65874W        W38189   4.085  22.924  11.172
65875W        W38190  34.076  41.259   2.780
65876W        W38191  30.430  27.173   4.671
65877W        W38192  44.759   3.436  13.568
65878W        W38193  15.218  31.995  14.326
65879W        W38194  38.382  38.254   0.374
65880W        W38195  24.725  22.127   0.852
65881W        W38196  37.543  13.125   0.240
65882W        W38197  38.504  15.341   0.789
65883W        W38198  34.608  14.151   4.566
65884W        W38199  16.842  13.420  13.230
65885W        W38200  10.607  24.245   0.884
65886W        W38201  12.140   1.985   1.851
65887W        W38202  33.331  34.371  12.900
65888W        W38203  31.183  44.461  12.061
65889W        W38204  10.935  28.564   0.921
65890W        W38205  34.962   1.854  12.561
65891W        W38206  21.647  37.292   3.264
65892W        W38207  26.614  21.192  12.962
65893W        W38208   2.864  21.585   2.734
65894W        W38209  34.661   6.818  12.611
65895W        W38210   4.248  24.308  12.246
65896W        W38211  44.049  12.144   2.811
65897W        W38212  15.821   8.452   4.956
65898W        W38213   1.720  34.429  14.821
65899W        W38214  28.427  21.802   1.907
65900W        W38215  22.711  34.010  12.413
65901W        W38216  41.369  18.995   2.833
65902W        W38217  14.460  14.554   2.195
65903W        W38218  37.348  34.829   2.328
65904W        W38219  15.255  12.223  12.228
65905W        W38220  19.762   0.377   3.466
65906W        W38221   8.917  44.146  10.068
65907W        W38222  33.306   4.742   2.276
65908W        W38223  29.663  30.502  11.225
65909W        W38224   9.694   6.427   2.779
65910W        W38225  44.341   8.657   0.174
65911W        W38226   4.398   6.809  10.513
65912W        W38227  43.552  42.225  11.530
65913W        W38228   3.720  24.273   1.431
65914W        W38229   5.678  18.758   3.547
65915W        W38230   2.017   5.860   4.585
65916W        W38231  30.676   4.484   0.388
65917W        W38232   5.766   0.362   3.327
65918W        W38233  11.993  28.275   3.318
65919W        W38234  25.333   2.673  14.916
65920W        W38235  38.409  12.326  14.178
65921W        W38236  44.735  29.062   2.651
65922W        W38237  16.173   0.787   0.887
65923W        W38238  31.731   0.178  12.407
65924W        W38239  29.945  30.217  13.732
65925W        W38240  21.129  12.891   4.123
65926W        W38241   6.135  21.754   3.002
65927W        W38242  16.222  13.784  11.531
65928W        W38243  27.928  39.919  14.754
65929W        W38244  29.978  16.321  12.543
65930W        W38245   7.771   2.883  14.984
65931W        W38246  27.218  13.567  10.899
65932W        W38247  14.561  34.477  10.923
65933W        W38248   1.800  36.486   2.281
65934W        W38249   1.713  21.269  11.126
65935W        W38250  38.403  44.142   3.220
65936W        W38251  28.071   3.381   1.663
65937W        W38252  28.854  43.003  11.563
65938W        W38253  13.539  40.259   2.735
65939W        W38254   5.850  34.378   0.274
65940W        W38255   5.589   9.622  11.274
65941W        W38256  15.145   0.469   2.635
65942W        W38257   6.159  39.573   1.875
65943W        W38258  11.616  14.097   1.584
65944W        W38259  41.698  11.249   1.304
65945W        W38260   5.892  18.375   3.810
65946W        W38261  15.027  42.484   1.738
65947W        W38262  15.118  41.024  11.452
65948W        W38263  15.104   8.137  13.997
65949W        W38264  11.367  15.563  11.519
65950W        W38265  17.675  12.291   0.820
65951W        W38266  40.754  20.446  13.940
65952W        W38267   8.907  34.467   0.770
65953W        W38268  30.083  15.311  10.385
65954W        W38269  21.182   7.999   1.822
65955W        W38270  17.673  43.439   1.181
65956W        W38271   9.098  28.265  12.556
65957W        W38272  30.473  10.188  12.077
65958W        W38273  36.886  37.690   5.120
65959W        W38274  29.221  11.225  10.327
65960W        W38275  43.476  14.780   0.460
65961W        W38276  42.837   3.640  12.002
65962W        W38277   0.820   4.802  11.071
65963W        W38278  14.183  34.639   4.685
65964W        W38279  40.675  39.929  13.571
65965W        W38280   7.652  27.163   2.343
65966W        W38281  25.692  20.478   5.140
65967W        W38282  18.806  16.643   1.363
65968W        W38283   5.841  21.692  10.552
65969W        W38284  35.859  32.673   0.580
65970W        W38285  24.036  21.225   5.333
65971W        W38286  29.080   3.638  12.991
65972W        W38287  16.212  21.065  13.805
65973W        W38288  15.657   9.374  12.941
65974W        W38289   7.188  30.625  14.918
65975W        W38290  35.034  10.894   3.746
65976W        W38291  17.760  33.037   1.153
65977W        W38292   4.711  17.793  14.446
65978W        W38293  29.567  17.220   0.515
65979W        W38294   3.332   3.748  11.658
65980W        W38295  33.218  11.639  12.486
65981W        W38296  36.854   5.703  14.900
65982W        W38297  39.845  31.649   4.512
65983W        W38298  28.396  18.221   4.344
65984W        W38299  10.035  41.842  12.168
65985W        W38300  10.868  30.554   3.893
65986W        W38301   1.364  27.162  14.262
65987W        W38302  10.309   8.742  12.174
65988W        W38303  31.433  24.462   4.161
65989W        W38304  26.196  15.660  11.139
65990W        W38305  28.630  12.328   3.200
65991W        W38306  14.183  23.618  13.997
65992W        W38307  22.723  29.386   1.658
65993W        W38308   3.930  37.878   1.241
65994W        W38309  40.107  11.160   2.766
65995W        W38310  30.620  28.958  10.921
65996W        W38311  28.061  28.177   4.732
65997W        W38312  22.108   1.779   3.842
65998W        W38313  34.232   5.884  11.091
65999W        W38314  38.291  23.691   1.243
66000W        W38315  15.845  15.397   3.284
66001W        W38316  22.732  16.805   0.749
66002W        W38317  15.777   4.356  10.738
66003W        W38318  28.586   8.297  11.362
66004W        W38319  21.196  16.573   3.192
66005W        W38320  34.724  42.594   0.210
66006W        W38321  11.349   4.888  14.020
66007W        W38322  12.399  44.790   2.309
66008W        W38323   3.983  42.900  10.613
66009W        W38324  12.301  18.088  10.183
66010W        W38325  31.646  28.087   0.959
66011W        W38326  21.214  19.976  11.420
66012W        W38327   1.740  19.182   2.786
66013W        W38328  13.722  36.960   2.732
66014W        W38329  43.354  36.126  14.785
66015W        W38330  42.368   3.416   3.709
66016W        W38331   4.801   8.818  11.876
66017W        W38332   9.760  14.138   3.342
66018W        W38333  32.397  20.568   4.017
66019W        W38334  25.553  18.102   3.686
66020W        W38335  40.326  40.878   4.880
66021W        W38336   1.183  10.238  11.129
66022W        W38337  26.730  19.115   1.802
66023W        W38338   9.749  18.950   4.667
66024W        W38339  39.089  37.501   4.777
66025W        W38340  21.598  23.558  14.044
66026W        W38341  37.843  13.431  14.955
66027W        W38342   7.784  12.066  10.746
66028W        W38343  26.965  22.495   4.354
66029W        W38344   7.926  38.582  13.296
66030W        W38345   3.874  41.546  12.448
66031W        W38346  10.456  32.971   0.745
66032W        W38347   6.383  32.888   4.149
66033W        W38348  10.404  19.027  11.045
66034W        W38349  30.710  22.965   0.940
66035W        W38350   7.525  24.282   1.735
66036W        W38351  14.887   0.859   2.868
66037W        W38352  39.359  21.253  14.937
66038W        W38353  25.001   3.569   3.291
66039W        W38354  11.459  15.685  10.529
66040W        W38355  39.054  38.416  11.110
66041W        W38356  31.408   8.696   3.374
66042W        W38357   9.833  34.637  13.953
66043W        W38358  20.210  18.343  14.444
66044W        W38359  33.547  36.400  12.274
66045W        W38360  13.355   0.316   4.181
66046W        W38361  36.949   4.902  13.155
66047W        W38362  43.211  44.840   0.298
66048W        W38363  38.653   1.753   4.181
66049W        W38364  32.570  16.035   4.599
66050W        W38365  27.685  40.901  12.864
66051W        W38366   8.799  33.646   1.108
66052W        W38367  19.308  31.511  10.473
66053W        W38368  18.049  17.117   1.212
66054W        W38369  20.197  29.731  13.059
66055W        W38370  37.624  25.918   1.219
66056W        W38371  38.302   4.967   1.143
66057W        W38372  17.765  38.891  10.950
66058W        W38373  42.337  44.370   4.129
66059W        W38374  43.750  42.301   3.035
66060W        W38375  24.971  41.156  12.914
66061W        W38376  36.401  26.609   2.240
66062W        W38377  28.626  23.706  11.980
66063W        W38378  41.036   2.919  11.039
66064W        W38379   5.719  34.610   3.711
66065W        W38380  27.051   6.741   4.736
66066W        W38381  20.167   3.258  13.558
66067W        W38382  12.400  31.552  11.608
66068W        W38383   2.040  32.287   1.452
66069W        W38384  32.109  26.537   0.127
66070W        W38385  35.945  11.956   3.819
66071W        W38386   8.370  25.058  13.427
66072W        W38387   9.794   3.316  11.620
66073W        W38388  19.099  24.559  10.860
66074W        W38389   6.753   7.409   4.028
66075W        W38390  16.118  10.699   3.858
66076W        W38391   6.862  19.607   2.147
66077W        W38392   6.647  40.797   3.156
66078W        W38393  27.986  13.199  14.890
66079W        W38394  27.605  24.925   2.005
66080W        W38395  12.789  41.844   3.192
66081W        W38396  28.041  10.147  11.763
66082W        W38397   4.164   5.091  12.032
66083W        W38398  29.037  16.265  14.941
66084W        W38399  41.252  28.480   3.425
66085W        W38400  33.426  26.619   5.163
66086W        W38401   5.848  10.183  13.497
66087W        W38402  25.455  44.746  13.861
66088W        W38403  10.184  27.090  13.073
66089W        W38404   4.354  10.717  12.021
66090W        W38405  40.487  13.379  13.378
66091W        W38406  12.288  42.377   1.180
66092W        W38407  17.253  19.271  13.513
66093W        W38408  33.960  10.449  14.798
66094W        W38409  29.940  19.522   3.527
66095W        W38410  16.445  43.915  13.742
66096W        W38411  21.880  15.710   0.008
66097W        W38412  27.027  38.435  12.797
66098W        W38413  10.668  10.769  14.957
66099W        W38414  36.075  32.848   4.155
66100W        W38415   6.174  11.764   3.735
66101W        W38416  24.483  26.339   0.871
66102W        W38417  24.263  26.056  14.799
66103W        W38418   9.230   0.445   4.072
66104W        W38419   0.410  25.603  14.782
66105W        W38420   6.450  11.674   0.782
66106W        W38421  24.688  21.383   0.458
66107W        W38422   4.189  27.585  11.522
66108W        W38423  22.048  25.752  13.431
66109W        W38424  22.451  25.628  13.815
66110W        W38425  35.623  30.709   1.360
66111W        W38426  36.005  13.207  10.459
66112W        W38427   0.409   4.298  14.454
66113W        W38428  32.064  32.306   4.668
66114W        W38429  14.066  17.628  11.807
66115W        W38430  27.739  17.641  12.373
66116W        W38431  19.986  22.255  12.767
66117W        W38432   2.439  25.241  13.362
66118W        W38433  17.175  21.318  13.355
66119W        W38434  17.537  38.795  13.869
66120W        W38435   9.114  42.437   4.586
66121W        W38436   9.976  12.535  13.960
66122W        W38437   0.292   8.734  10.607
66123W        W38438  42.216   1.303  13.164
66124W        W38439  14.679  43.385   0.259
66125W        W38440  32.904  38.380  11.515
66126W        W38441  23.515  28.576   2.464
66127W        W38442  38.032  18.675  14.023
66128W        W38443   4.119  44.883   2.005
66129W        W38444  24.534  34.260   3.664
66130W        W38445   1.016  15.332   3.607
66131W        W38446  15.736  16.724  13.257
66132W        W38447  26.570  13.876   4.581
66133W        W38448  36.611  33.197  11.892
66134W        W38449  24.516  43.982   0.725
66135W        W38450  12.866  43.226   3.807
66136W        W38451  43.371  10.680  10.774
66137W        W38452  42.900  14.115  10.478
66138W        W38453  40.499  13.837   1.596
66139W        W38454  14.171  28.429   0.844
66140W        W38455  28.523  40.726  14.883
66141W        W38456  24.186  15.359  13.052
66142W        W38457  24.666  39.267   3.232
66143W        W38458  11.675   6.786  11.407
66144W        W38459  36.760   9.658  11.177
66145W        W38460   2.585   9.396  12.753
66146W        W38461  13.270  15.351  13.275
66147W        W38462  14.153  32.164  14.844
66148W        W38463   9.329  21.127  10.702
66149W        W38464  13.776  39.348   1.171
66150W        W38465  20.291   9.841  12.291
66151W        W38466   4.169  34.155  13.027
66152W        W38467   2.378  39.568  11.939
66153W        W38468   8.085  33.137  12.421
66154W        W38469  24.370  15.596  13.474
66155W        W38470  16.163  38.969   2.689
66156W        W38471  38.781  41.303  12.371
66157W        W38472  26.648  34.194   1.772
66158W        W38473   6.633  22.627  14.932
66159W        W38474  37.940   4.924  14.219
66160W        W38475  33.528  27.887  13.472
66161W        W38476  33.932   7.242   3.799
66162W        W38477  16.363  30.092  10.724
66163W        W38478  25.191  38.770   1.696
66164W        W38479  34.469  15.788   0.993
66165W        W38480   3.510  28.133  13.773
66166W        W38481  43.505  10.867  14.875
66167W        W38482  44.530  17.094  14.865
66168W        W38483  29.109  23.859   0.651
66169W        W38484  41.322  15.349  10.454
66170W        W38485  29.629   5.911   2.133
66171W        W38486  34.896   0.484  11.517
66172W        W38487   2.716  41.001   0.933
66173W        W38488  43.950  41.408  11.216
66174W        W38489  10.657   5.451   4.615
66175W        W38490  36.890  39.783  12.383
66176W        W38491   8.980   2.756   0.456
66177W        W38492  37.494  28.946   1.860
66178W        W38493  29.352  30.956  15.000
66179W        W38494  39.376  42.479   3.948
66180W        W38495   8.466  35.132  12.484
66181W        W38496  18.264  13.808  14.306
66182W        W38497  41.995  14.718  10.746
66183W        W38498  12.091  28.512  14.897
66184W        W38499  17.224  37.680  12.095
66185W        W38500  40.916  17.222   2.213
66186W        W38501  37.240  32.095  11.170
66187W        W38502  15.179   4.980   0.820
66188W        W38503  33.122  43.935  11.328
66189W        W38504   7.165   5.862   0.890
66190W        W38505  19.474   8.577  12.573
66191W        W38506  20.968  14.753   0.382
66192W        W38507  30.609  18.845  12.520
66193W        W38508  21.181  22.737   1.921
66194W        W38509   0.102  32.387  11.177
66195W        W38510  35.385  34.593  12.434
66196W        W38511  25.578  35.646   0.357
66197W        W38512  19.861   4.392  13.431
66198W        W38513   8.494  13.488  13.935
66199W        W38514  15.855  20.812   4.193
66200W        W38515  43.403  20.243   3.808
66201W        W38516  33.834  39.418  14.909
66202W        W38517   3.011  29.771   2.718
66203W        W38518  29.943  33.449  13.398
66204W        W38519  38.611  33.505   1.413
66205W        W38520  19.926  20.344  11.378
66206W        W38521  39.261  42.076   2.144
66207W        W38522  41.524  10.968   4.002
66208W        W38523  40.912  40.794  12.088
66209W        W38524  25.729  33.877   1.912
66210W        W38525  41.343  32.351   3.208
66211W        W38526  22.752  34.122   1.267
66212W        W38527  40.317  33.082  12.004
66213W        W38528  21.128  33.717  11.164
66214W        W38529  26.066  21.598   0.347
66215W        W38530   8.334   8.405  13.907
66216W        W38531  41.381  30.804   2.228
66217W        W38532  39.494  14.273  13.037
66218W        W38533  41.991  24.081  12.596
66219W        W38534  13.791   0.967   3.744
66220W        W38535  17.147  15.009  10.558
66221W        W38536  29.329  23.607  11.466
66222W        W38537  38.323  17.532   2.922
66223W        W38538  35.474  38.744   0.218
66224W        W38539  37.491  16.722  14.011
66225W        W38540  21.568  32.431  13.119
66226W        W38541  35.043  35.383   3.158
66227W        W38542  13.027  17.011  11.963
66228W        W38543  32.925  29.882  12.922
66229W        W38544  36.007  20.388   3.742
66230W        W38545   4.043  15.595  10.117
66231W        W38546  18.838  35.874   4.131
66232W        W38547  14.385  26.462  12.542
66233W        W38548  32.664  22.872   0.853
66234W        W38549   0.565  16.994   1.681
66235W        W38550  10.709  43.871   1.405
66236W        W38551  22.058   1.779   4.869
66237W        W38552  32.552  35.023   1.773
66238W        W38553   0.004  27.096   3.565
66239W        W38554  16.214  34.523   2.546
66240W        W38555  32.049  22.758   2.167
66241W        W38556   7.165  39.750   3.008
66242W        W38557  31.680  16.666   2.736
66243W        W38558   3.821  25.526   2.032
66244W        W38559  10.453  15.989  11.499
66245W        W38560  22.086  32.715  13.972
66246W        W38561  13.640   5.347  10.669
66247W        W38562   7.747  13.949  11.127
66248W        W38563  27.497   6.296  12.829
66249W        W38564   6.591  40.103  10.976
66250W        W38565   8.649   7.925  12.629
66251W        W38566  29.252  36.315   2.849
66252W        W38567  39.220  39.453  12.449
66253W        W38568  20.196  13.741  14.386
66254W        W38569  38.528  23.524  13.746
66255W        W38570  32.734  29.177   3.669
66256W        W38571  31.152  27.401   0.652
66257W        W38572  37.820  38.307   2.260
66258W        W38573  27.583  17.371   2.682
66259W        W38574  14.254  27.945  11.381
66260W        W38575  18.192  16.240   3.565
66261W        W38576   6.510   1.852   2.317
66262W        W38577  27.640  44.339  10.366
66263W        W38578  11.112  41.467   2.264
66264W        W38579  21.745  19.143   0.399
66265W        W38580  28.440  21.065   0.308
66266W        W38581  19.052  42.851   1.164
66267W        W38582  35.796  40.000   2.500
66268W        W38583   1.519  18.218   4.096
66269W        W38584  27.766  31.816  13.873
66270W        W38585  39.165  15.752   1.529
66271W        W38586  44.928  27.590  10.576
66272W        W38587  18.530  18.738   4.237
66273W        W38588   8.161  28.002  11.727
66274W        W38589   5.513   5.232   2.288
66275W        W38590  40.735  32.201   4.058
66276W        W38591  31.128  18.142  11.581
66277W        W38592   8.367   4.414   3.828
66278W        W38593   3.819   6.993   4.349
66279W        W38594  13.376   5.689  13.956
66280W        W38595  34.141   1.336  14.469
66281W        W38596  17.233   6.335  10.559
66282W        W38597  26.425  15.285  13.940
66283W        W38598  43.475  33.921  12.946
66284W        W38599  11.143  25.687   4.721
66285W        W38600   7.707  18.091  11.088
66286W        W38601  34.150   4.851   4.438
66287W        W38602  28.111   3.918  10.215
66288W        W38603  41.007  42.469   1.470
66289W        W38604  41.418  20.368   1.399
66290W        W38605  11.712   6.808   3.623
66291W        W38606   5.348  43.488  12.838
66292W        W38607  18.531   6.528  11.911
66293W        W38608  32.901   3.726   3.127
66294W        W38609  12.576  10.143   4.110
66295W        W38610   8.761  43.737  11.895
66296W        W38611   8.369   3.919   4.062
66297W        W38612   8.374   1.570  12.358
66298W        W38613  18.667  44.548  10.652
66299W        W38614  24.079  19.970  11.088
66300W        W38615  42.814  38.076   1.410
66301W        W38616   2.373  29.695   0.287
66302W        W38617  20.484   1.998   0.841
66303W        W38618   2.543  33.656   5.145
66304W        W38619   6.344  30.098   1.306
66305W        W38620  28.528  19.636  10.950
66306W        W38621  12.329  28.059  10.432
66307W        W38622  29.441  22.727  14.292
66308W        W38623  25.583   4.849   9.747
66309W        W38624  12.012  29.096  13.232
66310W        W38625  26.983   9.383   3.228
66311W        W38626  19.525  27.056   1.413
66312W        W38627  37.129  15.761   3.678
66313W        W38628  14.672  42.060   1.907
66314W        W38629   7.292   1.980   3.175
66315W        W38630  40.940  20.588   3.612
66316W        W38631  25.660  18.057  13.914
66317W        W38632  22.745  21.303   3.363
66318W        W38633  43.691  12.252   1.339
66319W        W38634  39.475  12.262  13.615
66320W        W38635  11.221   5.193   2.154
66321W        W38636  43.839  18.877   1.477
66322W        W38637  12.559  30.946   3.364
66323W        W38638   2.416  43.119  10.191
66324W        W38639  33.763  10.777   1.898
66325W        W38640  15.194  23.715  12.974
66326W        W38641  24.324   5.985  10.034
66327W        W38642  30.635  43.466   3.329
66328W        W38643  10.031  19.307  10.726
66329W        W38644  22.030  33.871  11.141
66330W        W38645  11.189  37.684  13.742
66331W        W38646  14.414   3.326  13.081
66332W        W38647  17.618   9.704   2.340
66333W        W38648  19.135  41.842   2.838
66334W        W38649  14.149  38.101  10.280
66335W        W38650  39.975  12.525  12.071
66336W        W38651   4.768  44.777   0.430
66337W        W38652   1.796  12.201   2.480
66338W        W38653  42.536  41.955   2.954
66339W        W38654  18.340  22.947  11.537
66340W        W38655  27.428  14.580  12.435
66341W        W38656   2.269  42.050  12.059
66342W        W38657  11.608  10.280   3.238
66343W        W38658  39.339  29.177  14.706
66344W        W38659  30.094  41.421   0.434
66345W        W38660   1.004  18.151   4.094
66346W        W38661  15.354  43.067   3.976
66347W        W38662   8.334   3.713   2.112
66348W        W38663  18.184   5.361   1.473
66349W        W38664   4.614  15.239  11.928
66350W        W38665   6.124  21.955  14.238
66351W        W38666  37.437  31.537   1.830
66352W        W38667  22.695  16.903   3.175
66353W        W38668  41.542  41.462   3.738
66354W        W38669  21.236  38.243  12.811
66355W        W38670   7.740  21.110  10.206
66356W        W38671  31.926  22.837   0.217
66357W        W38672   0.046  35.903  11.087
66358W        W38673   3.186   5.429   1.813
66359W        W38674  13.640  13.652   3.166
66360W        W38675  20.152  10.834   1.857
66361W        W38676  28.233  37.986   1.936
66362W        W38677  40.396   6.621  11.146
66363W        W38678   2.426  14.461   9.858
66364W        W38679  10.408  34.870  14.407
66365W        W38680  33.566  25.966  12.157
66366W        W38681   4.940  34.749   5.085
66367W        W38682  32.103   9.253   5.215
66368W        W38683  27.152  28.916  11.102
66369W        W38684  38.245  12.827  14.763
66370W        W38685  15.599   9.505   0.289
66371W        W38686  30.444  12.033   2.905
66372W        W38687   5.513  32.038   1.266
66373W        W38688  13.524  24.496  11.699
66374W        W38689   4.784  19.497   4.862
66375W        W38690  16.744  32.575   0.496
66376W        W38691   7.260  28.347   0.683
66377W        W38692   0.237  24.983  13.315
66378W        W38693  37.877  27.005   3.618
66379W        W38694  42.927  34.010  11.483
66380W        W38695  34.393  31.631   3.720
66381W        W38696  35.934  42.685   1.148
66382W        W38697  44.401  39.462   4.661
66383W        W38698  41.392  37.548   4.847
66384W        W38699  31.709  35.974  14.382
66385W        W38700  27.114  24.532  12.939
66386W        W38701  37.924  16.846   2.748
66387W        W38702  31.341  10.792  12.696
66388W        W38703  32.649  44.906  11.159
66389W        W38704   4.781  11.051  14.001
66390W        W38705  43.535   6.311   1.766
66391W        W38706  11.788  33.659   3.673
66392W        W38707  40.796  36.609   2.723
66393W        W38708  27.991  16.884   0.786
66394W        W38709   2.217  11.506   0.906
66395W        W38710  36.561  23.651   4.177
66396W        W38711  22.049  33.538   4.614
66397W        W38712   8.940   4.335  12.010
66398W        W38713  19.124   3.771  12.440
66399W        W38714  21.212  27.993  11.068
66400W        W38715  43.071  41.012   1.649
66401W        W38716  16.749   1.723   0.264
66402W        W38717  17.563  23.565   0.731
66403W        W38718   8.135  38.582  12.753
66404W        W38719   9.402   5.672   3.591
66405W        W38720   7.759  39.996  11.714
66406W        W38721  35.331  36.949  10.700
66407W        W38722  31.104  24.748   2.211
66408W        W38723  36.136  27.186   0.466
66409W        W38724  32.528  21.070   4.779
66410W        W38725   7.403  40.034   2.636
66411W        W38726  41.165   9.916  12.496
66412W        W38727  42.547   5.622   0.985
66413W        W38728  25.114  25.529  14.881
66414W        W38729  21.963  40.049  11.249
66415W        W38730  14.849  12.699   2.124
66416W        W38731  38.296  28.571   2.535
66417W        W38732  24.796  27.271   0.692
66418W        W38733   7.649  31.386  12.452
66419W        W38734  40.355  38.605  10.745
66420W        W38735  35.003   7.443   3.636
66421W        W38736  31.753  10.219   1.252
66422W        W38737  26.807  39.309  11.612
66423W        W38738  33.813   6.462   2.685
66424W        W38739   4.526  26.159  11.544
66425W        W38740  16.119   7.473   0.826
66426W        W38741  33.447  43.488   2.778
66427W        W38742  11.599   8.976  11.045
66428W        W38743  37.319  29.045   1.169
66429W        W38744  40.127  14.360   1.960
66430W        W38745  41.611   9.985   4.190
66431W        W38746  28.508  41.973  14.296
66432W        W38747  36.051  21.934  11.151
66433W        W38748   3.969  36.517  14.714
66434W        W38749  12.765  38.900  11.085
66435W        W38750   3.786   4.427  13.405
66436W        W38751  25.897   7.938  10.952
66437W        W38752  26.378  25.151   4.121
66438W        W38753  24.079  43.217   0.341
66439W        W38754   2.912   4.769  12.557
66440W        W38755  32.114   9.931  10.996
66441W        W38756  26.420  21.900   1.614
66442W        W38757  27.231   9.474  14.910
66443W        W38758  35.334  38.597  12.478
66444W        W38759  29.623  12.640   5.084
66445W        W38760  32.523  10.826  11.398
66446W        W38761  38.049  35.013   2.944
66447W        W38762  27.575  13.228  12.475
66448W        W38763  12.461  35.755  13.341
66449W        W38764  17.839  20.251   4.363
66450W        W38765  30.369   1.392   1.813
66451W        W38766  19.540  42.821  11.811
66452W        W38767   6.301  43.476  10.538
66453W        W38768  12.723  42.715  13.251
66454W        W38769  16.465  20.593   1.706
66455W        W38770   9.662  16.675   0.479
66456W        W38771  14.071  11.763  12.026
66457W        W38772  16.702  30.906  12.215
66458W        W38773  24.685  42.470  14.099
66459W        W38774  38.110   2.801   0.016
66460W        W38775  39.509  10.656  12.500
66461W        W38776  43.062   6.213   1.627
66462W        W38777  22.005  11.133   1.809
66463W        W38778  11.447  43.662   2.413
66464W        W38779   5.340   3.729   1.274
66465W        W38780  18.236   1.722   3.249
66466W        W38781   6.370   8.339   1.501
66467W        W38782  21.257  24.617   2.181
66468W        W38783  29.125  31.478   4.541
66469W        W38784  35.137  16.489   1.919
66470W        W38785   0.355  43.922  12.966
66471W        W38786  26.555  33.114  14.905
66472W        W38787  29.125  12.560   2.306
66473W        W38788  17.501  33.960   1.377
66474W        W38789   6.446   0.210   1.897
66475W        W38790   7.201  25.987   2.192
66476W        W38791  44.335  28.921   2.345
66477W        W38792   1.400  40.989  12.017
66478W        W38793  44.244  32.020  14.398
66479W        W38794  10.276  27.596  10.469
66480W        W38795  28.179  39.084  11.112
66481W        W38796   0.333  27.420  13.813
66482W        W38797  17.970  10.870  10.160
66483W        W38798   9.974  19.764   3.822
66484W        W38799  17.276  27.954  14.705
66485W        W38800  37.713  21.642   1.218
66486W        W38801   3.926  13.438   1.538
66487W        W38802  23.718   1.924  11.563
66488W        W38803  27.941  30.644  10.095
66489W        W38804  38.562  31.962  10.620
66490W        W38805  32.876  43.288   0.410
66491W        W38806  15.687  18.250  14.934
66492W        W38807  30.152  21.909  14.348
66493W        W38808  26.656  35.011   1.902
66494W        W38809  32.158  27.200  11.383
66495W        W38810  15.163  14.922   3.282
66496W        W38811  44.654  19.698   2.623
66497W        W38812  13.596  20.824  11.605
66498W        W38813  23.133  15.240   4.204
66499W        W38814  44.529  27.644  14.482
66500W        W38815  39.276  14.633  11.482
66501W        W38816   4.534  23.094  14.230
66502W        W38817  40.954   6.851  13.200
66503W        W38818  15.032  38.406  12.089
66504W        W38819  16.841  38.935   0.026
66505W        W38820  44.325  24.632  13.304
66506W        W38821  38.855  32.974  12.684
66507W        W38822  44.068   9.650   3.602
66508W        W38823   8.259  42.932  12.399
66509W        W38824  26.470  34.194   3.201
66510W        W38825   8.869  41.312   0.905
66511W        W38826  19.665  41.255   3.178
66512W        W38827  22.160   5.519   0.455
66513W        W38828  41.425  25.351  14.843
66514W        W38829  34.390  39.123  12.373
66515W        W38830  34.615  34.455   0.397
66516W        W38831  38.560   6.123  10.338
66517W        W38832  26.131  31.664   5.376
66518W        W38833  19.699   3.769  14.535
66519W        W38834  25.752  30.333  11.101
66520W        W38835  32.841  24.975   0.454
66521W        W38836   5.204  25.198  13.053
66522W        W38837  23.666  25.531   4.378
66523W        W38838  32.894  38.181  12.285
66524W        W38839  25.615  27.608   0.981
66525W        W38840  35.950  27.785  11.146
66526W        W38841  26.337  19.333  12.474
66527W        W38842  33.808  35.214   4.325
66528W        W38843  33.559  10.076  11.142
66529W        W38844  29.439  34.595  14.353
66530W        W38845  37.028  28.450  14.281
66531W        W38846  23.657   6.302   0.992
66532W        W38847   9.705   2.393   3.245
66533W        W38848  38.892  24.252   1.734
66534W        W38849  42.507  21.467   1.346
66535W        W38850   3.275  14.332  14.561
66536W        W38851  32.422  20.405   1.297
66537W        W38852   9.467  22.711  10.250
66538W        W38853  33.874  43.381  10.331
66539W        W38854  27.218  14.325  14.338
66540W        W38855  29.008  20.150  12.395
66541W        W38856  16.211  12.874   0.014
66542W        W38857   7.207  27.055   2.897
66543W        W38858  24.059   5.892   4.498
66544W        W38859  31.110   9.420  12.095
66545W        W38860   2.338  22.802  12.968
66546W        W38861  14.585  27.356  12.549
66547W        W38862  26.875   5.157   3.848
66548W        W38863   5.045   7.886   0.023
66549W        W38864  26.054  36.561  10.702
66550W        W38865  27.415  41.386  11.989
66551W        W38866  44.648   6.746   3.712
66552W        W38867  21.772   0.091   0.919
66553W        W38868   5.880  33.367  11.596
66554W        W38869  36.482  11.764   0.266
66555W        W38870  34.666  20.789   2.366
66556W        W38871  20.148  22.298  10.507
66557W        W38872  18.874  44.979   2.715
66558W        W38873  23.080  38.272   1.666
66559W        W38874  19.923   3.413  10.217
66560W        W38875  11.220  32.582  12.838
66561W        W38876  32.216  38.746  12.018
66562W        W38877  31.921  25.997   4.693
66563W        W38878  15.220   5.661  14.455
66564W        W38879  10.681  19.362  14.502
66565W        W38880   4.846   1.829   4.820
66566W        W38881  40.172   4.896  14.592
66567W        W38882  26.859  22.981  13.980
66568W        W38883  15.779  16.307  14.855
66569W        W38884  12.545  36.627  14.797
66570W        W38885  16.524  18.733  10.671
66571W        W38886   6.399   5.230   2.337
66572W        W38887   3.268  34.766  14.125
66573W        W38888  27.076   0.862   2.136
66574W        W38889  26.830  31.427  10.627
66575W        W38890  33.146  20.600  14.906
66576W        W38891  21.947  22.116   1.775
66577W        W38892  21.624  17.643  14.257
66578W        W38893  29.852  29.892   0.803
66579W        W38894  43.924   9.856  14.345
66580W        W38895  42.566  18.199  14.867
66581W        W38896  16.210   3.207  10.704
66582W        W38897  32.283   8.332  11.700
66583W        W38898   5.899   4.422  13.343
66584W        W38899  35.512  34.896   1.745
66585W        W38900  17.232  31.290   4.535
66586W        W38901  26.015  15.097   4.085
66587W        W38902   0.068   6.846  14.423
66588W        W38903  24.716   4.127   2.507
66589W        W38904  38.897   5.521   2.728
66590W        W38905   1.500  44.875   1.149
66591W        W38906  22.975  17.628  12.966
66592W        W38907   9.607  27.122  10.550
66593W        W38908  32.366  13.426   2.819
66594W        W38909  16.106   2.962   0.573
66595W        W38910   1.562   5.185  13.896
66596W        W38911  14.027  41.428  13.900
66597W        W38912  16.848  29.533   0.785
66598W        W38913  30.261  14.083  11.595
66599W        W38914  14.593   4.798  13.973
66600W        W38915  26.294  30.357   0.289
66601W        W38916  19.236  19.614   1.276
66602W        W38917  10.620  36.688  14.708
66603W        W38918  33.807  37.881  13.010
66604W        W38919  14.055  13.540   0.893
66605W        W38920  43.743   8.942   4.635
66606W        W38921   0.785  37.488   4.671
66607W        W38922  37.416  25.170  11.101
66608W        W38923  21.035  42.983  12.358
66609W        W38924  12.432  23.948  11.056
66610W        W38925  16.772  33.251   1.196
66611W        W38926   2.989  33.066  12.429
66612W        W38927  13.032  13.989  14.460
66613W        W38928  41.421  35.435   0.924
66614W        W38929  28.507  35.815   2.335
66615W        W38930  32.444   1.939   3.146
66616W        W38931  43.517  13.858   4.969
66617W        W38932  15.291   0.841  14.446
66618W        W38933  32.627   0.027  13.845
66619W        W38934  13.690  44.414   2.245
66620W        W38935  25.038  35.056  14.492
66621W        W38936  43.333  37.499   2.151
66622W        W38937   4.456  29.085  14.796
66623W        W38938  33.283  18.127  11.654
66624W        W38939  30.521  41.866  11.644
66625W        W38940  30.553  12.292  10.795
66626W        W38941  23.656   5.150  12.467
66627W        W38942  18.309  18.221  13.337
66628W        W38943   2.258  16.660  10.724
66629W        W38944   0.162  26.611  14.913
66630W        W38945  39.921  22.679   2.288
66631W        W38946  19.556  43.358   4.154
66632W        W38947  35.480  39.051  14.754
66633W        W38948  37.635  43.326  12.410
66634W        W38949  31.732  38.567  12.068
66635W        W38950  37.357   4.889   2.548
66636W        W38951  42.949   6.906   4.609
66637W        W38952  15.205  29.825  13.479
66638W        W38953  29.300  17.619  11.285
66639W        W38954  42.040  32.704   0.515
66640W        W38955  29.964  35.355   2.603
66641W        W38956  32.307  34.826  11.239
66642W        W38957   8.065  26.636   4.799
66643W        W38958  23.479   0.060  11.014
66644W        W38959   9.617  19.285   2.180
66645W        W38960  43.258  28.908  13.441
66646W        W38961  14.396  31.322  11.487
66647W        W38962  20.509  13.644   3.079
66648W        W38963  41.900  32.917   4.637
66649W        W38964  37.829  30.679  11.115
66650W        W38965  12.235   2.706   1.323
66651W        W38966  29.588  23.962   0.949
66652W        W38967  24.052  29.220   1.318
66653W        W38968   3.162  25.811   4.722
66654W        W38969  21.924  18.771   1.024
66655W        W38970  14.916   7.053  11.783
66656W        W38971  14.066  27.208   2.932
66657W        W38972   9.144  28.804   1.901
66658W        W38973  20.488  41.352  11.450
66659W        W38974   7.852  18.836  10.516
66660W        W38975  14.185  20.032   3.767
66661W        W38976  23.683  12.143  10.709
66662W        W38977   5.138  33.443   1.421
66663W        W38978  44.834   9.362   0.075
66664W        W38979   9.226  19.655  11.093
66665W        W38980   8.284  18.340  14.466
66666W        W38981  25.897  34.809   3.799
66667W        W38982  32.425   4.836  10.698
66668W        W38983  34.579  22.256   2.924
66669W        W38984  39.526  36.572   3.271
66670W        W38985  37.474  32.872  10.609
66671W        W38986  38.537  13.191  11.684
66672W        W38987  43.511   8.324  10.635
66673W        W38988  31.070   1.499  13.070
66674W        W38989  42.849  16.700   1.944
66675W        W38990  33.475  11.278  11.655
66676W        W38991  37.907   9.784  12.897
66677W        W38992  18.878  30.131   1.823
66678W        W38993  27.909  29.170   3.341
66679W        W38994  29.887  16.434  14.940
66680W        W38995  21.211  18.258   4.079
66681W        W38996  36.321  23.569   1.537
66682W        W38997  14.332  18.528  10.734
66683W        W38998   9.966  10.097   5.094
66684W        W38999  23.921  32.505   4.305
66685W        W39000  18.535  43.241  13.332
66686W        W39001  21.197  35.159  11.379
66687W        W39002  26.966  11.734   0.791
66688W        W39003  41.605  20.238   2.798
66689W        W39004  40.924  41.533  12.476
66690W        W39005   5.643  14.749  13.266
66691W        W39006  16.888   7.127   4.561
66692W        W39007   3.973  37.585  11.145
66693W        W39008  38.829  16.773  12.011
66694W        W39009  30.886  30.416   3.295
66695W        W39010  40.952  43.861   4.747
66696W        W39011  43.959   4.398   3.185
66697W        W39012  33.018  24.229  12.316
66698W        W39013  19.799  40.832  14.128
66699W        W39014  44.647  17.257   4.614
66700W        W39015  37.851   0.428  11.426
66701W        W39016  33.827  24.607   0.024
66702W        W39017   9.421  40.167  10.313
66703W        W39018  12.257  15.815   1.504
66704W        W39019  40.364   0.315  14.210
66705W        W39020  32.417  31.954  12.493
66706W        W39021  39.782  24.473   4.526
66707W        W39022  32.909  10.682   4.412
66708W        W39023  13.439  12.136   2.834
66709W        W39024  35.471  12.421  11.245
66710W        W39025   1.979  28.426  14.270
66711W        W39026   7.583  16.854  12.931
66712W        W39027  27.548  37.443  10.672
66713W        W39028   2.792   0.770  14.406
66714W        W39029   2.046  33.645   4.195
66715W        W39030  38.885   2.836   1.974
66716W        W39031  15.857  28.029   0.867
66717W        W39032   1.281  12.844   2.781
66718W        W39033   8.460  37.846   1.170
66719W        W39034   3.707   0.218   2.342
66720W        W39035  40.543  23.209  14.524
66721W        W39036  33.546  26.950  14.423
66722W        W39037  38.598  23.676  14.244
66723W        W39038  17.035  11.670  13.171
66724W        W39039   6.181  17.112  14.214
66725W        W39040  42.535  15.252   1.774
66726W        W39041  13.074  10.621  12.949
66727W        W39042   1.807  14.603   2.902
66728W        W39043  31.601  32.020   4.742
66729W        W39044   5.469   8.597  14.283
66730W        W39045   5.703  22.139  14.431
66731W        W39046  21.357  18.791  14.861
66732W        W39047  26.206   1.411  11.104
66733W        W39048  44.766  20.159   5.135
66734W        W39049  23.231  35.926   4.215
66735W        W39050  22.770  39.105   0.546
66736W        W39051  21.712   9.739  12.432
66737W        W39052  36.424  14.834  11.938
66738W        W39053   6.282  41.266   1.902
66739W        W39054  20.541   6.982  14.454
66740W        W39055   2.576  40.461  11.581
66741W        W39056  31.018   6.305   2.658
66742W        W39057  43.137  27.639   0.832
66743W        W39058  28.634  40.494  13.251
66744W        W39059  17.262  25.920   4.326
66745W        W39060   4.895   1.228   0.545
66746W        W39061  16.042  33.821   1.388
66747W        W39062   7.314  39.810   4.549
66748W        W39063   8.866  16.861   1.950
66749W        W39064  25.682  13.480   3.695
66750W        W39065  40.032  36.903   1.608
66751W        W39066  11.286  32.858   4.700
66752W        W39067  28.707  34.398  13.050
66753W        W39068  36.247  33.388   2.767
66754W        W39069  13.050   8.379   0.865
66755W        W39070   0.874  44.937   1.974
66756W        W39071   4.225  24.282  13.886
66757W        W39072  32.127  44.152  11.548
66758W        W39073   5.708  15.775   1.687
66759W        W39074  43.654  43.044  11.890
66760W        W39075  23.589  39.967   2.827
66761W        W39076  17.297  43.573  11.548
66762W        W39077  33.331  27.452  10.794
66763W        W39078  17.586  34.989   2.221
66764W        W39079  27.211  21.971  11.374
66765W        W39080   0.345  30.142  10.350
66766W        W39081   8.645   4.761   1.475
66767W        W39082  42.331  31.397  13.374
66768W        W39083   1.959   1.943   3.234
66769W        W39084  33.079  15.192   3.834
66770W        W39085  10.693  44.022  13.709
66771W        W39086  38.225  16.552   0.270
66772W        W39087  43.559  29.967  11.113
66773W        W39088  34.704   3.943  12.090
66774W        W39089  22.277   6.394   1.757
66775W        W39090  19.240  44.290  14.174
66776W        W39091  23.068  14.390   0.755
66777W        W39092  26.955  34.404  13.423
66778W        W39093  20.685  33.435  11.124
66779W        W39094  42.560  24.741  14.735
66780W        W39095  12.423  25.612   4.114
66781W        W39096  22.240  24.769   3.674
66782W        W39097  15.630  11.311  14.225
66783W        W39098  32.582   5.259   2.171
66784W        W39099  14.758  20.548   3.715
66785W        W39100   1.740  38.533   3.310
66786W        W39101  23.758  14.338   0.555
66787W        W39102  14.744  11.714   0.514
66788W        W39103   7.401  38.778   2.757
66789W        W39104  35.885  21.621  14.419
66790W        W39105  36.501   4.390  12.968
66791W        W39106  21.205  17.665  13.312
66792W        W39107  10.702  44.729   1.157
66793W        W39108  37.921  43.506  13.857
66794W        W39109  23.930  16.103   3.514
66795W        W39110   5.747  38.294  12.442
66796W        W39111   6.787  43.352   4.395
66797W        W39112   4.692  38.314   2.239
66798W        W39113  17.707   9.519  14.066
66799W        W39114  24.544   6.685  11.504
66800W        W39115  28.267  31.437   0.790
66801W        W39116  13.647  41.821   3.228
66802W        W39117  40.123  16.384   0.134
66803W        W39118  41.422  31.194  11.517
66804W        W39119  34.127  17.990   3.749
66805W        W39120  16.343  35.412   3.892
66806W        W39121  31.491  35.433  12.363
66807W        W39122  25.647  40.782  14.955
66808W        W39123  18.945   6.897  14.458
66809W        W39124  39.025   6.944   3.681
66810W        W39125   4.785  28.454  10.618
66811W        W39126  39.433  43.454  13.074
66812W        W39127  20.551  44.668  14.919
66813W        W39128  16.279  40.481  13.445
66814W        W39129  40.618  34.869  13.335
66815W        W39130   9.138  17.249  11.136
66816W        W39131  24.119  17.873  14.681
66817W        W39132  24.794   2.841  14.863
66818W        W39133  19.598  18.829   3.801
66819W        W39134   4.838   9.678  10.773
66820W        W39135  36.651  27.556  14.832
66821W        W39136   6.226  35.857   0.756
66822W        W39137  34.436  17.691  11.573
66823W        W39138  20.800  19.167  14.555
66824W        W39139  37.348   5.705   2.576
66825W        W39140  26.643  23.452  13.923
66826W        W39141  17.707  14.741   3.609
66827W        W39142  27.105  30.660   3.892
66828W        W39143  32.666  37.562   0.357
66829W        W39144  20.317  22.872   2.784
66830W        W39145  20.298  25.684  11.928
66831W        W39146  22.293  11.132   3.146
66832W        W39147  24.942  10.257  14.067
66833W        W39148  21.522  35.620  14.339
66834W        W39149  43.121  18.785  13.478
66835W        W39150  18.139  32.650   0.195
66836W        W39151  40.603  33.505  11.115
66837W        W39152  25.166  33.310   4.519
66838W        W39153  25.096  19.569   1.296
66839W        W39154   3.860   1.978  13.997
66840W        W39155   5.368  36.122  14.443
66841W        W39156  24.786  17.051   2.894
66842W        W39157  25.166   9.479  13.866
66843W        W39158  22.629  22.834  11.920
66844W        W39159  31.513  15.075   1.337
66845W        W39160  43.451  38.429  12.579
66846W        W39161  34.754  11.114  12.949
66847W        W39162  41.265  35.406   3.169
66848W        W39163  21.722  32.369   1.751
66849W        W39164   2.339  41.741  14.903
66850W        W39165  10.085  36.364  13.415
66851W        W39166   7.622  21.250  11.633
66852W        W39167  30.484   2.497  13.171
66853W        W39168  43.330  19.946   3.053
66854W        W39169  24.605   2.649  14.423
66855W        W39170  23.825  41.561   1.455
66856W        W39171  20.756  32.892  11.203
66857W        W39172  20.908   3.551   1.033
66858W        W39173   7.295  37.349   3.140
66859W        W39174   0.836  36.794  14.800
66860W        W39175  43.801  30.198   0.749
66861W        W39176  20.640   8.878  10.619
66862W        W39177  40.679  23.281   5.302
66863W        W39178  31.249  36.050   3.799
66864W        W39179  28.213   3.774   1.302
66865W        W39180  19.381   3.400   4.028
66866W        W39181  30.505  34.135   0.753
66867W        W39182   0.478  30.228   1.165
66868W        W39183  42.375  24.641  11.460
66869W        W39184  33.836  17.768  11.075
66870W        W39185  31.536  22.079  10.947
66871W        W39186  25.142  27.999  12.880
66872W        W39187   4.262   3.962   1.822
66873W        W39188  33.158   9.706  11.145
66874W        W39189  25.589   0.573   0.190
66875W        W39190  40.509   1.690   0.872
66876W        W39191  18.612  16.293  12.049
66877W        W39192  40.340   9.749   4.265
66878W        W39193  21.967   2.430  13.994
66879W        W39194  31.983  26.469  11.413
66880W        W39195   6.548  17.767   2.762
66881W        W39196  27.597  24.608   3.801
66882W        W39197  20.247  27.997   4.140
66883W        W39198  11.729  43.972  12.640
66884W        W39199  19.610  41.758   3.059
66885W        W39200  30.973  41.397   2.640
66886W        W39201  36.312   7.339  10.371
66887W        W39202  43.910  26.687   3.236
66888W        W39203  44.324  27.678  14.977
66889W        W39204   5.805  15.037   0.052
66890W        W39205  37.783  39.087   1.019
66891W        W39206   2.062  14.560   3.966
66892W        W39207   9.407  25.355   1.494
66893W        W39208  30.014   4.135  12.376
66894W        W39209  15.575  34.438   3.739
66895W        W39210   9.805  31.704   1.409
66896W        W39211   5.904  42.951   4.523
66897W        W39212   3.529  10.281  13.426
66898W        W39213  24.593  44.769  11.647
66899W        W39214  32.005   7.175  10.934
66900W        W39215  29.059  36.959  14.455
66901W        W39216  20.878  17.902   3.690
66902W        W39217  21.341  20.730   0.751
66903W        W39218  26.750  26.557   3.167
66904W        W39219  42.608   8.579  10.668
66905W        W39220  26.531  29.560   3.314
66906W        W39221  14.172  21.043   4.082
66907W        W39222  19.338  42.269  11.696
66908W        W39223  31.421  29.416   4.269
66909W        W39224  31.035  22.812  10.432
66910W        W39225  43.751  42.031   0.294
66911W        W39226  27.866  36.491   4.088
66912W        W39227  27.472  40.269  11.751
66913W        W39228  11.604  30.564  14.316
66914W        W39229  11.391   0.444  12.425
66915W        W39230  23.551  13.268  12.975
66916W        W39231   0.565  12.358   9.810
66917W        W39232   5.716   8.127  13.584
66918W        W39233  26.919   7.666  11.581
66919W        W39234  43.890  44.058  11.143
66920W        W39235  18.121  41.441   4.033
66921W        W39236  37.892   8.777   4.076
66922W        W39237   8.661  36.632   1.012
66923W        W39238  25.823   2.303   4.906
66924W        W39239  40.405  30.960   3.221
66925W        W39240  16.070  10.230  12.431
66926W        W39241  19.491  19.322   3.415
66927W        W39242  41.207  24.241  14.361
66928W        W39243  43.486  20.957   4.397
66929W        W39244  35.446  37.894   1.386
66930W        W39245  43.045  23.034   1.902
66931W        W39246  21.276  32.056   4.059
66932W        W39247  19.615  19.644  13.134
66933W        W39248  20.213  28.620  10.841
66934W        W39249  26.006  17.043  13.942
66935W        W39250  34.548   9.312  14.898
66936W        W39251  28.933  38.247  14.478
66937W        W39252  37.622   9.569  12.151
66938W        W39253  43.046  28.471   2.525
66939W        W39254  40.329  44.334  14.984
66940W        W39255  39.954   6.801   4.104
66941W        W39256  13.074   2.231   0.970
66942W        W39257  31.446  24.762   2.898
66943W        W39258  26.403  28.988   1.287
66944W        W39259   7.879   9.828  11.460
66945W        W39260   7.326  17.079  11.567
66946W        W39261   0.268  39.362  14.354
66947W        W39262  44.201  19.765  11.609
66948W        W39263  31.500   1.781  13.269
66949W        W39264  21.621   5.871   3.267
66950W        W39265   1.573  39.279   4.098
66951W        W39266  21.665  34.986   2.913
66952W        W39267  38.354  26.474  12.833
66953W        W39268  41.247  35.371  11.829
66954W        W39269  14.853   7.213  10.668
66955W        W39270  20.833  19.579  12.351
66956W        W39271  41.107  22.064   2.553
66957W        W39272   3.965  24.102  13.479
66958W        W39273  23.381   2.978  12.543
66959W        W39274  15.586  42.557   4.273
66960W        W39275  37.605  40.552   3.779
66961W        W39276  41.879  24.709  11.334
66962W        W39277  31.569   5.421   3.673
66963W        W39278  28.004  23.974  12.963
66964W        W39279  18.685  38.096   0.820
66965W        W39280  15.626  21.228   1.883
66966W        W39281  26.966  41.174   4.768
66967W        W39282   3.852  15.744   4.452
66968W        W39283  40.336   1.774  11.521
66969W        W39284  23.424  44.411  13.456
66970W        W39285  19.258  34.945   3.171
66971W        W39286  19.601  41.993  10.600
66972W        W39287  36.433  20.571   3.053
66973W        W39288  13.713   7.622   3.063
66974W        W39289   8.787  42.947   1.844
66975W        W39290  38.792  29.046  14.906
66976W        W39291   7.224  25.113   2.223
66977W        W39292  35.644  16.679  11.532
66978W        W39293  38.582  43.454   2.810
66979W        W39294  38.944   0.513  10.560
66980W        W39295  11.619  24.232  10.719
66981W        W39296  24.950  37.141   0.687
66982W        W39297  10.093  21.554   2.763
66983W        W39298  17.833  17.612  11.589
66984W        W39299  42.120  14.863  13.409
66985W        W39300  13.823  12.312  14.753
66986W        W39301  44.767  23.736   4.049
66987W        W39302  18.588  21.628   2.924
66988W        W39303  19.346  23.056  14.015
66989W        W39304  14.588  15.925  13.450
66990W        W39305  39.229   4.317  11.486
66991W        W39306  12.853  22.324  10.721
66992W        W39307  24.029  26.067  10.538
66993W        W39308  14.111  34.960  12.032
66994W        W39309  33.916  38.375  10.337
66995W        W39310   4.026  18.161   1.795
66996W        W39311  38.074  40.587   0.260
66997W        W39312  38.053  23.300  12.570
66998W        W39313  41.776  23.563  11.065
66999W        W39314  16.291  27.052  12.528
67000W        W39315  29.639  15.815   1.160
67001W        W39316  23.245  19.165   1.738
67002W        W39317  36.548  44.479   1.027
67003W        W39318   4.359  25.215  13.730
67004W        W39319   5.182  40.575  14.726
67005W        W39320  36.165  26.733   0.866
67006W        W39321  14.997  37.086  12.065
67007W        W39322  15.827  36.616   0.043
67008W        W39323  37.538  24.791   3.404
67009W        W39324  19.754  42.736  11.015
67010W        W39325  37.058  30.904  13.959
67011W        W39326  31.225  20.626  11.503
67012W        W39327  15.549  29.432  11.581
67013W        W39328   0.869   2.195  12.305
67014W        W39329   5.932  28.242  12.529
67015W        W39330  39.392  24.693   2.809
67016W        W39331  24.948   8.898   4.192
67017W        W39332   7.383  26.480  14.386
67018W        W39333   9.254  21.196  12.079
67019W        W39334  29.523  26.129   1.358
67020W        W39335  44.528  25.252  11.085
67021W        W39336  38.360  33.932   1.190
67022W        W39337  21.174   6.134  13.948
67023W        W39338  20.813  14.724  14.529
67024W        W39339  11.386  10.724   0.114
67025W        W39340  30.422  27.568  13.838
67026W        W39341  31.945  10.811   0.274
67027W        W39342   8.836  25.763  13.835
67028W        W39343   6.198  18.583   2.345
67029W        W39344   4.687  33.472  12.876
67030W        W39345  23.643  23.640  10.719
67031W        W39346  42.888  10.042  11.065
67032W        W39347  19.001  41.794   0.356
67033W        W39348  26.453  35.866   2.327
67034W        W39349   7.532  22.224   3.405
67035W        W39350  23.970  41.113  10.478
67036W        W39351   1.260  34.185   2.751
67037W        W39352  27.358   9.188  13.568
67038W        W39353  26.190  31.022  13.247
67039W        W39354   7.350  13.595   4.657
67040W        W39355  10.723  17.090   3.237
67041W        W39356   1.516  43.054  14.301
67042W        W39357  34.830  23.165  14.502
67043W        W39358  10.322  39.619   1.388
67044W        W39359   2.826  18.687  13.356
67045W        W39360  19.797   3.899   0.028
67046W        W39361  36.365  26.646  11.614
67047W        W39362   4.150  11.168   0.868
67048W        W39363  11.850  26.913  12.024
67049W        W39364   1.371  36.934   3.912
67050W        W39365   7.302   4.124   2.180
67051W        W39366  33.982  14.188   2.730
67052W        W39367  10.012  35.388   3.791
67053W        W39368  35.424  32.930   0.721
67054W        W39369  43.834  18.643  14.318
67055W        W39370  17.778  34.980   0.228
67056W        W39371  34.521  14.267  14.926
67057W        W39372  25.595  11.049   2.613
67058W        W39373   2.427   7.524   0.027
67059W        W39374  27.037  30.134   4.062
67060W        W39375  43.335  44.899  10.219
67061W        W39376  21.264   6.745  10.751
67062W        W39377  43.783  15.701   0.757
67063W        W39378  31.418   2.438  11.970
67064W        W39379  37.867  11.364   1.440
67065W        W39380   4.440  30.217   3.079
67066W        W39381  11.657   0.515   0.520
67067W        W39382  43.793  26.478  11.591
67068W        W39383  33.413   0.248   4.602
67069W        W39384  32.403  10.763  10.882
67070W        W39385  26.081  34.442   2.939
67071W        W39386  33.133  25.229  12.199
67072W        W39387  27.925  39.385  14.741
67073W        W39388  22.218  32.334  12.090
67074W        W39389   6.492  39.589  11.604
67075W        W39390  32.002  13.700  13.124
67076W        W39391  33.899  10.255   4.982
67077W        W39392  21.406  27.135   1.546
67078W        W39393  20.155   7.714   1.266
67079W        W39394  15.611  40.129  12.866
67080W        W39395  35.076   5.933  10.779
67081W        W39396  27.102  44.196   4.810
67082W        W39397  20.631  25.948  11.502
67083W        W39398  17.597  23.847  12.190
67084W        W39399  29.100   3.822   2.390
67085W        W39400   8.050  21.011   1.230
67086W        W39401  20.537  40.495   1.743
67087W        W39402  12.456  16.734   4.217
67088W        W39403  12.822  18.271   1.150
67089W        W39404  17.339  37.355   2.399
67090W        W39405  13.121  37.099  10.641
67091W        W39406  19.018  26.968  14.046
67092W        W39407  17.621  24.084  11.283
67093W        W39408   0.436  42.629   3.685
67094W        W39409  11.851   0.678  12.622
67095W        W39410   5.732  32.517  13.909
67096W        W39411   6.133   0.343   0.927
67097W        W39412  34.989  40.813   2.032
67098W        W39413  37.210  33.884   2.167
67099W        W39414  33.879  43.815  10.628
67100W        W39415  33.497  35.363   1.468
67101W        W39416  34.899  36.727  12.327
67102W        W39417  21.652  15.210  12.019
67103W        W39418  22.342  21.976  13.554
67104W        W39419  31.419  43.727   4.652
67105W        W39420  23.008  22.446   2.313
67106W        W39421  11.155   7.729  14.206
67107W        W39422  15.577  18.997   4.878
67108W        W39423  38.971   7.620   0.783
67109W        W39424  29.567  36.565   0.291
67110W        W39425  10.731  27.177  11.953
67111W        W39426  16.402   5.891   2.846
67112W        W39427  42.738  41.911   1.225
67113W        W39428   5.484  40.367  11.958
67114W        W39429  33.629  10.422   4.529
67115W        W39430   8.890  18.947   2.782
67116W        W39431  11.411  24.107   1.721
67117W        W39432  14.583   6.292   4.546
67118W        W39433   8.158  20.294  11.491
67119W        W39434   8.230  24.737   0.775
67120W        W39435  12.311  33.918  14.321
67121W        W39436  32.808  40.156   1.266
67122W        W39437   6.268   7.441   3.795
67123W        W39438  30.083  17.289  12.518
67124W        W39439  12.826   7.930   1.331
67125W        W39440  13.552  22.505  11.559
67126W        W39441  30.540  16.857   1.153
67127W        W39442  44.259   8.639   0.699
67128W        W39443  15.688  13.172   0.926
67129W        W39444  30.643  31.613   4.531
67130W        W39445  34.539   2.644  14.433
67131W        W39446   5.570   3.352  12.518
67132W        W39447  38.726  19.792  12.977
67133W        W39448   0.534  39.773   3.405
67134W        W39449  44.902  12.410  12.135
67135W        W39450  34.178  26.195   4.953
67136W        W39451  43.262  38.327   2.398
67137W        W39452   4.705  31.027   3.231
67138W        W39453  23.988  31.199   4.713
67139W        W39454   0.836  35.310  13.459
67140W        W39455  23.078  43.518   4.304
67141W        W39456  14.353  40.560   3.240
67142W        W39457  39.887   7.081   2.780
67143W        W39458  43.461  13.765  13.728
67144W        W39459   8.167  10.260  11.531
67145W        W39460  32.633   0.187   1.314
67146W        W39461  38.019  14.152   1.473
67147W        W39462  25.788   6.240   4.141
67148W        W39463  40.363   2.385  14.976
67149W        W39464  43.254   3.951  13.348
67150W        W39465  35.844  32.977  14.786
67151W        W39466   0.098   2.869   0.501
67152W        W39467  24.719  42.459   3.433
67153W        W39468  10.103  23.589  14.390
67154W        W39469  10.374   5.919  11.257
67155W        W39470  16.761  43.438   2.799
67156W        W39471   1.389   0.599   3.165
67157W        W39472   1.537  30.491   0.569
67158W        W39473   3.403  43.527  11.650
67159W        W39474  24.110  37.462  11.816
67160W        W39475   4.328  36.148  12.191
67161W        W39476   5.249  42.484   2.307
67162W        W39477  18.254   6.701  12.639
67163W        W39478  10.882  24.859  11.088
67164W        W39479  37.036   0.070  12.984
67165W        W39480  30.762  10.876  14.457
67166W        W39481   0.774  31.522   0.183
67167W        W39482  37.430  42.582   0.021
67168W        W39483  22.813   3.420  10.628
67169W        W39484  29.628   2.733  13.781
67170W        W39485  13.057  20.571   2.411
67171W        W39486   1.804   0.551   2.503
67172W        W39487  24.752  35.768   2.878
67173W        W39488  16.407  40.345  10.633
67174W        W39489  16.706  28.081   1.423
67175W        W39490  15.669   6.711  12.577
67176W        W39491  14.872  21.705   3.269
67177W        W39492  39.273  32.687  12.464
67178W        W39493  12.590  11.753   3.568
67179W        W39494   9.492  16.767   2.802
67180W        W39495  16.770  36.392   3.216
67181W        W39496  43.800  41.583  13.015
67182W        W39497  44.481  12.170   3.750
67183W        W39498  17.704  26.146   3.140
67184W        W39499  39.474  20.755   0.008
67185W        W39500  19.370  10.363   4.442
67186W        W39501   9.385  29.099   3.207
67187W        W39502  17.667  41.645   2.671
67188W        W39503  40.827  29.903   4.487
67189W        W39504  27.518  12.699   3.380
67190W        W39505  44.243   5.039  13.423
67191W        W39506   8.427  31.712  13.255
67192W        W39507  34.528  17.538   4.567
67193W        W39508  32.495   6.821  14.866
67194W        W39509  24.059  40.912  11.463
67195W        W39510  23.013  20.834  13.488
67196W        W39511  16.186   6.751  12.584
67197W        W39512  38.099  14.003   4.913
67198W        W39513  25.407  37.293  12.491
67199W        W39514  31.578  18.331   2.375
67200W        W39515  29.607  23.519   0.687
67201W        W39516  14.477  32.988   0.227
67202W        W39517  25.084   7.736  11.938
67203W        W39518  36.466  26.374   2.693
67204W        W39519  10.649   5.180   4.168
67205W        W39520  27.948  35.868   1.466
67206W        W39521  28.601  27.121  14.320
67207W        W39522  20.679  40.062   3.660
67208W        W39523  13.601  28.611  14.511
67209W        W39524  43.237  34.327  13.940
67210W        W39525  33.631  34.964  12.454
67211W        W39526  27.006  18.824  12.968
67212W        W39527  37.771  34.639   2.735
67213W        W39528  38.051  32.996  10.570
67214W        W39529  40.854   6.730   1.403
67215W        W39530  17.132   5.420   0.703
67216W        W39531  25.994  18.390   3.853
67217W        W39532   4.852  31.299   0.763
67218W        W39533  12.025  17.250   3.581
67219W        W39534  43.878   6.179  11.887
67220W        W39535   3.818   5.278   3.303
67221W        W39536  37.080  12.900  14.815
67222W        W39537  13.310   3.223   5.320
67223W        W39538  20.240  30.467   2.714
67224W        W39539  43.307  39.514  12.011
67225W        W39540  22.008  23.099  14.372
67226W        W39541  38.627  12.068  10.004
67227W        W39542  22.704  19.318   1.776
67228W        W39543  22.318   2.566  14.571
67229W        W39544  14.264   7.186  12.028
67230W        W39545   2.812  11.840   2.920
67231W        W39546   0.103  19.333  10.561
67232W        W39547  31.640  28.919  13.945
67233W        W39548  43.182  15.805  12.814
67234W        W39549   1.313  27.963   2.158
67235W        W39550   7.342   0.078  13.739
67236W        W39551  39.905  12.373   0.902
67237W        W39552   9.174  20.733  11.072
67238W        W39553  10.839  41.147   3.245
67239W        W39554  18.147  18.674  14.810
67240W        W39555  40.443  44.954   1.392
67241W        W39556  40.406  17.696  11.998
67242W        W39557  15.779  44.176   4.630
67243W        W39558  23.075   9.406  11.134
67244W        W39559  21.119  37.880  10.697
67245W        W39560  23.860  21.727  13.002
67246W        W39561   4.955  25.273  14.724
67247W        W39562  44.621  15.728   3.310
67248W        W39563  40.488   0.762  11.514
67249W        W39564   3.362   9.249   0.395
67250W        W39565  18.765  10.118  11.485
67251W        W39566   5.870  31.400  11.039
67252W        W39567  33.846   0.490  11.184
67253W        W39568  31.108  19.777   2.797
67254W        W39569  18.549  30.708   1.753
67255W        W39570  29.954  16.257   2.761
67256W        W39571  14.753  33.073  11.983
67257W        W39572  42.371  17.587   3.952
67258W        W39573  28.372  32.974   2.627
67259W        W39574  15.273  31.028   0.080
67260W        W39575  22.109  26.656   1.860
67261W        W39576   9.360   7.062  12.448
67262W        W39577  26.471  24.262   4.602
67263W        W39578  11.658   3.696   4.330
67264W        W39579   6.282  18.819  13.434
67265W        W39580  16.276  19.804   1.794
67266W        W39581   1.905   7.676  12.570
67267W        W39582  40.537  38.432  12.485
67268W        W39583  23.968  21.698   4.593
67269W        W39584  16.078  24.163  13.297
67270W        W39585   6.463  21.307   4.603
67271W        W39586  11.146   8.871   4.138
67272W        W39587  36.549  23.809   2.940
67273W        W39588  25.226  38.337   1.332
67274W        W39589  12.210  37.813   2.209
67275W        W39590  11.684  17.256   1.660
67276W        W39591   9.820  32.602  14.044
67277W        W39592  32.124  19.287   3.068
67278W        W39593   5.226  34.918   1.253
67279W        W39594  26.503  39.433   3.773
67280W        W39595  29.628  20.192   3.361
67281W        W39596  20.277  40.372   3.356
67282W        W39597   7.991  33.843   2.507
67283W        W39598  43.059   4.230   1.769
67284W        W39599  20.225  44.103  11.650
67285W        W39600  18.851  11.096  13.528
67286W        W39601   4.091   5.743  14.005
67287W        W39602  18.161  14.152   4.706
67288W        W39603  37.374  23.025   4.938
67289W        W39604   2.982   7.234  12.310
67290W        W39605  44.460  33.881  10.131
67291W        W39606  12.907  14.475  14.484
67292W        W39607  19.559  26.502   2.711
67293W        W39608  37.547   6.660  11.095
67294W        W39609  31.433  34.639  10.956
67295W        W39610   7.178   8.712  11.951
67296W        W39611  31.978  44.274   1.764
67297W        W39612   2.430   2.932   3.901
67298W        W39613  16.539  38.406  11.056
67299W        W39614  38.569   6.650  13.017
67300W        W39615  11.720   3.872   3.839
67301W        W39616  19.086   2.028   0.911
67302W        W39617  13.208   7.875  10.649
67303W        W39618  39.311  41.299  10.331
67304W        W39619  13.418   6.449  14.450
67305W        W39620  32.145   5.367   3.320
67306W        W39621  39.589   9.835  11.064
67307W        W39622  41.408  17.074   2.762
67308W        W39623  21.767   5.853  14.923
67309W        W39624  16.628  22.574  12.145
67310W        W39625  26.761  18.086  13.577
67311W        W39626   9.790   1.987  14.482
67312W        W39627   6.669  38.649   4.255
67313W        W39628  29.112  39.300  14.563
67314W        W39629  39.048  39.302   2.284
67315W        W39630  19.687  16.832   3.650
67316W        W39631  38.904  25.533  11.151
67317W        W39632   6.493  41.044  13.275
67318W        W39633  29.230  37.591   3.692
67319W        W39634  11.381  43.020  14.894
67320W        W39635  44.284  11.405   0.399
67321W        W39636   8.062  20.053   0.263
67322W        W39637   8.070  44.451  14.678
67323W        W39638  43.562  10.872   1.343
67324W        W39639   2.993  40.321  13.078
67325W        W39640  30.168  42.967   3.645
67326W        W39641  22.777  25.613  10.932
67327W        W39642   6.927  18.788  11.972
67328W        W39643  35.141  42.929  11.481
67329W        W39644  33.332  11.841   3.639
67330W        W39645   9.262   5.974  14.930
67331W        W39646   6.493  38.373   1.420
67332W        W39647  36.582  18.268   3.406
67333W        W39648  16.133  37.834  13.274
67334W        W39649   0.785   6.555   3.819
67335W        W39650  31.390  38.163  11.173
67336W        W39651   2.437  40.532   3.465
67337W        W39652  10.233  24.521   0.189
67338W        W39653  37.746  26.681   5.319
67339W        W39654  14.791  26.560  12.875
67340W        W39655   9.224   1.491  11.412
67341W        W39656   9.895   1.511   0.848
67342W        W39657  31.155  40.607  12.948
67343W        W39658   6.102  37.994   3.734
67344W        W39659  28.370  32.665  11.540
67345W        W39660   2.883  44.372  11.225
67346W        W39661  14.200  17.771   3.167
67347W        W39662  20.237   7.030   1.578
67348W        W39663   8.940   0.044  12.932
67349W        W39664   7.963   6.420   1.560
67350W        W39665   2.037  34.113   2.297
67351W        W39666   2.924  42.786   4.405
67352W        W39667  17.233  18.580  13.901
67353W        W39668  25.485   5.270  12.578
67354W        W39669  12.090  41.302  10.236
67355W        W39670  44.959  11.743   5.006
67356W        W39671  36.625  32.361  11.579
67357W        W39672  10.377  23.136  14.385
67358W        W39673  21.042  34.970   2.228
67359W        W39674  37.368  30.407   0.821
67360W        W39675  40.104  10.730   4.080
67361W        W39676  15.802  29.783   2.014
67362W        W39677   2.627  13.554  11.036
67363W        W39678   6.411   2.427   1.640
67364W        W39679  21.096   0.357  11.412
67365W        W39680   9.393  38.852   4.618
67366W        W39681  17.044  11.311   1.419
67367W        W39682  34.308  18.728   2.375
67368W        W39683  26.683  15.111  10.566
67369W        W39684  31.551   4.182   4.590
67370W        W39685  35.985  21.738   2.676
67371W        W39686  35.533  18.157  11.606
67372W        W39687   1.387  29.701  11.145
67373W        W39688  20.189  41.920  13.468
67374W        W39689   5.267   9.056   0.608
67375W        W39690  14.341  30.025   2.674
67376W        W39691  21.094  13.527   3.302
67377W        W39692   0.166  11.463  10.670
67378W        W39693  12.664   6.704   0.264
67379W        W39694  11.115  23.252  11.953
67380W        W39695  29.980  25.964   1.156
67381W        W39696  17.797  44.077   3.978
67382W        W39697   5.648   6.274  14.437
67383W        W39698  27.450  30.924  14.933
67384W        W39699  12.689  21.201   2.545
67385W        W39700  24.174  41.956  12.481
67386W        W39701  13.642  34.637   2.288
67387W        W39702  39.918  16.836  13.276
67388W        W39703  12.190  16.768  10.119
67389W        W39704  23.459  34.511   3.741
67390W        W39705  31.302  33.188  11.140
67391W        W39706  24.993  36.484  10.614
67392W        W39707  42.698  34.984   4.971
67393W        W39708  32.348  16.258   0.650
67394W        W39709  39.486  15.271  14.525
67395W        W39710   6.272   9.911   2.626
67396W        W39711  26.240   0.517  14.183
67397W        W39712  22.826  39.391  12.328
67398W        W39713   7.512   2.752   2.192
67399W        W39714  10.565  20.640  13.319
67400W        W39715  11.243   0.926   3.582
67401W        W39716   9.233  32.385   2.726
67402W        W39717  18.136   8.149   2.681
67403W        W39718  22.601   1.694  13.034
67404W        W39719  44.439  28.555   1.377
67405W        W39720  20.233  14.805  11.916
67406W        W39721  19.813  13.215   3.163
67407W        W39722   1.053  19.947  13.844
67408W        W39723  12.141  42.948   3.420
67409W        W39724   7.741   8.285   3.635
67410W        W39725  19.663   6.446  12.698
67411W        W39726  44.365  26.794  11.055
67412W        W39727  40.744   9.349  14.388
67413W        W39728  25.494  20.126   1.851
67414W        W39729   2.013  31.089   0.868
67415W        W39730  35.933  27.243  11.140
67416W        W39731   6.217   9.365  10.699
67417W        W39732  11.329   2.111   4.205
67418W        W39733  41.535  36.017  12.345
67419W        W39734  35.301   3.737  12.929
67420W        W39735  11.724  28.170   5.067
67421W        W39736  13.348  11.211  11.973
67422W        W39737  30.661   6.959   1.811
67423W        W39738  30.342  44.351  14.871
67424W        W39739  28.523  26.345  14.927
67425W        W39740  38.332  39.889   1.228
67426W        W39741  20.086  29.726   0.459
67427W        W39742  19.509  38.598   5.421
67428W        W39743  12.613  24.999   4.965
67429W        W39744  43.474  23.825   4.161
67430W        W39745  10.343  13.792  13.876
67431W        W39746   8.387  43.235  14.915
67432W        W39747  18.273  41.015  12.906
67433W        W39748   8.924  42.909   0.909
67434W        W39749   6.879   3.579   1.951
67435W        W39750  33.974   0.002  13.740
67436W        W39751  44.826   4.321  13.919
67437W        W39752  44.844  20.895  12.853
67438W        W39753  32.943   8.148   4.654
67439W        W39754   1.763  28.171   4.844
67440W        W39755  24.351  18.582  10.266
67441W        W39756  16.792  29.940   2.864
67442W        W39757  34.065  21.540  14.981
67443W        W39758  32.575  23.499  14.322
67444W        W39759  41.857  12.566  11.458
67445W        W39760  22.652  39.818  10.633
67446W        W39761  39.382  27.073  10.610
67447W        W39762  23.516  28.239   0.253
67448W        W39763  21.568  44.936  12.609
67449W        W39764   8.349  10.151   0.339
67450W        W39765  18.561   4.772   1.314
67451W        W39766  41.050  26.657  14.076
67452W        W39767  11.927   5.662  11.378
67453W        W39768  27.729  29.546   3.662
67454W        W39769  37.413   0.345  12.333
67455W        W39770   8.423  24.030  14.497
67456W        W39771  11.205  16.559   5.805
67457W        W39772  43.236   3.670  12.365
67458W        W39773  32.052  35.513   4.681
67459W        W39774  38.351  20.843  12.037
67460W        W39775  34.485  35.720   2.259
67461W        W39776   1.163   9.741   9.943
67462W        W39777  24.087  23.973  13.314
67463W        W39778  20.331  37.199  11.942
67464W        W39779  44.934  18.595   4.887
67465W        W39780  26.746  15.662   1.648
67466W        W39781  30.346   3.256  10.617
67467W        W39782  29.530  32.892  10.713
67468W        W39783   2.424  13.538  13.575
67469W        W39784   2.377  16.256  12.101
67470W        W39785  34.912  44.852  13.331
67471W        W39786  37.996  17.020   1.101
67472W        W39787  13.209  27.810  10.280
67473W        W39788  13.767  43.101  13.746
67474W        W39789  12.825  41.335   1.410
67475W        W39790  42.835  28.011  12.010
67476W        W39791  39.942  41.369  14.806
67477W        W39792  37.563   7.919  14.679
67478W        W39793   6.879  33.119   2.145
67479W        W39794   5.250  21.729   1.358
67480W        W39795   7.476  32.659  14.431
67481W        W39796  17.544   8.342   0.896
67482W        W39797  11.884  10.891   0.064
67483W        W39798  14.602  39.949  10.674
67484W        W39799  39.886  27.241  11.521
67485W        W39800   8.383  35.573   0.480
67486W        W39801   9.180  13.092   0.384
67487W        W39802  38.410  36.426  11.411
67488W        W39803  19.741   2.977  10.524
67489W        W39804  30.900  18.086   4.618
67490W        W39805  17.282  38.285  10.671
67491W        W39806  19.157   5.697   1.867
67492W        W39807  23.529   2.842   0.226
67493W        W39808   8.987  21.921   2.357
67494W        W39809  17.100   2.816  13.531
67495W        W39810  15.313  43.143   3.028
67496W        W39811  23.812  29.338   1.936
67497W        W39812  28.864  22.045   0.349
67498W        W39813  34.995  12.798   9.864
67499W        W39814  25.116  11.601  10.908
67500W        W39815   6.374  12.444   9.547
67501W        W39816  26.276   4.686   3.166
67502W        W39817   5.263   9.978  14.234
67503W        W39818   0.990  31.310  13.848
67504W        W39819  15.130   4.877   4.102
67505W        W39820   7.340  19.270   0.284
67506W        W39821  16.682   8.357   4.424
67507W        W39822   3.960   1.639  10.663
67508W        W39823  33.534  10.316   2.869
67509W        W39824  23.489   9.383   3.288
67510W        W39825  42.678   5.541  13.460
67511W        W39826  15.523   3.282  12.079
67512W        W39827  44.329   4.189   4.594
67513W        W39828  12.661  26.640  12.034
67514W        W39829  19.239  32.610   3.820
67515W        W39830  10.595   9.693   0.954
67516W        W39831  22.646  23.698  11.093
67517W        W39832  10.508  24.747   2.956
67518W        W39833  28.576   9.391   2.238
67519W        W39834   0.939   3.715   0.839
67520W        W39835  32.346  27.120  14.488
67521W        W39836  19.803   4.516   1.769
67522W        W39837  27.925  40.211  10.555
67523W        W39838   2.350  29.414  12.945
67524W        W39839  34.792  28.542  11.184
67525W        W39840  29.730  42.483   3.332
67526W        W39841   0.807  43.312   4.277
67527W        W39842  42.958  16.949  13.598
67528W        W39843   6.824   1.397   2.443
67529W        W39844  16.695  38.915  12.367
67530W        W39845  36.393   7.052  11.180
67531W        W39846   8.667   9.483   4.637
67532W        W39847  24.481   7.456   0.906
67533W        W39848  23.669   6.787   3.076
67534W        W39849  37.892  21.656   3.740
67535W        W39850   2.291   7.387   3.332
67536W        W39851  37.031  36.844  11.026
67537W        W39852  32.831  10.747   1.940
67538W        W39853  34.935  33.994  12.333
67539W        W39854  17.498  39.106  14.301
67540W        W39855  19.387  31.049   1.702
67541W        W39856   8.642  20.068  13.427
67542W        W39857  40.826   1.492  11.131
67543W        W39858  15.392  21.712   4.089
67544W        W39859  41.543  30.955  11.982
67545W        W39860   4.330  12.615   4.664
67546W        W39861  34.014   2.698  14.324
67547W        W39862  29.723  29.585  10.263
67548W        W39863  35.661  35.074  14.823
67549W        W39864  19.249  29.731   4.078
67550W        W39865   7.634  23.678   2.178
67551W        W39866  44.187  42.897  14.364
67552W        W39867   1.649   6.404  13.255
67553W        W39868  18.342   3.311  12.419
67554W        W39869  18.350   5.939  13.157
67555W        W39870  11.684  35.564  13.015
67556W        W39871  23.587  12.611   0.169
67557W        W39872  30.136  20.040   2.699
67558W        W39873  35.089  42.750  14.855
67559W        W39874  29.660  19.532  13.503
67560W        W39875  40.775  26.957   4.892
67561W        W39876  18.716   7.406  10.898
67562W        W39877   7.140  28.610  14.216
67563W        W39878  29.450  18.363  11.711
67564W        W39879  33.505  24.221  12.474
67565W        W39880  29.298   1.563   4.993
67566W        W39881   7.876  23.989  11.547
67567W        W39882   7.573   6.908  13.586
67568W        W39883  21.570  19.118   0.890
67569W        W39884   1.115  16.281  10.902
67570W        W39885   5.410  44.322   3.182
67571W        W39886  35.370  35.892   0.200
67572W        W39887   9.180  41.286   4.025
67573W        W39888   5.203  16.163   4.878
67574W        W39889   3.789  30.061   4.373
67575W        W39890   1.411  15.576  11.142
67576W        W39891  17.623  18.870  10.533
67577W        W39892  25.698  33.701  13.356
67578W        W39893  14.189  44.655  12.428
67579W        W39894  36.432  13.322  10.729
67580W        W39895  44.718  22.634   2.801
67581W        W39896  34.373  30.195  14.466
67582W        W39897  19.216  35.209  12.426
67583W        W39898  44.744  31.592  11.593
67584W        W39899   2.733  19.784   4.171
67585W        W39900  31.922   2.448   1.003
67586W        W39901  38.566  38.142   4.667
67587W        W39902   0.470  11.552   1.258
67588W        W39903  24.008  13.171   1.198
67589W        W39904  18.063   3.685  14.547
67590W        W39905  36.659  13.638  11.217
67591W        W39906  42.564   8.124  12.887
67592W        W39907  16.780  25.396   1.266
67593W        W39908  42.845  15.869  13.332
67594W        W39909   3.185  29.202   3.160
67595W        W39910   2.289   6.917   1.683
67596W        W39911  43.529  13.352   3.942
67597W        W39912   2.329  21.602   2.716
67598W        W39913  40.019  33.375  14.182
67599W        W39914  23.705  21.614   9.874
67600W        W39915  26.122  36.952  12.466
67601W        W39916   5.264   1.291  10.658
67602W        W39917  27.024   3.779  10.183
67603W        W39918  36.419  21.218  11.168
67604W        W39919   7.151  35.563  10.714
67605W        W39920  17.834  30.714   3.670
67606W        W39921  32.077  27.879   2.695
67607W        W39922  34.791  29.257  11.704
67608W        W39923  29.136  21.917   1.299
67609W        W39924  38.561  34.536   4.072
67610W        W39925  22.594   8.615   4.256
67611W        W39926  13.504  14.392  12.034
67612W        W39927  31.203   5.708   2.367
67613W        W39928   4.766  31.995   4.331
67614W        W39929  34.566  35.854   4.172
67615W        W39930  20.162  20.837   1.200
67616W        W39931   3.372  29.771  11.239
67617W        W39932   0.240  18.728   1.766
67618W        W39933  29.458  28.604  12.045
67619W        W39934  30.329  29.974  12.234
67620W        W39935  20.257  18.723   3.131
67621W        W39936  28.523  15.316   0.254
67622W        W39937  24.479  15.303   0.192
67623W        W39938  17.043   5.441   2.280
67624W        W39939  42.985   1.301   3.637
67625W        W39940  27.069  26.002  14.426
67626W        W39941  27.336  31.487  13.931
67627W        W39942   3.780  12.480   1.688
67628W        W39943  39.448  28.430   4.285
67629W        W39944   8.446  40.856   1.390
67630W        W39945  21.313  25.965  12.696
67631W        W39946  23.765  26.585  10.586
67632W        W39947   6.455   0.021   0.678
67633W        W39948  39.345  39.050   1.310
67634W        W39949  34.917  13.910  14.850
67635W        W39950  15.142  10.371   4.048
67636W        W39951  29.759  40.857  13.836
67637W        W39952   3.526   3.646  13.593
67638W        W39953  17.027   7.235  10.891
67639W        W39954   0.445  12.581   0.376
67640W        W39955   6.664  33.011  11.219
67641W        W39956  32.359  13.801   2.176
67642W        W39957  26.274   6.756  12.435
67643W        W39958  20.578   9.691   1.491
67644W        W39959  15.271  26.536  13.063
67645W        W39960   7.187  26.085  11.633
67646W        W39961   2.854  14.550   3.392
67647W        W39962  36.005  20.600   4.206
67648W        W39963   7.968  13.115   5.037
67649W        W39964  27.175  35.589  13.329
67650W        W39965  22.924  26.510   4.094
67651W        W39966  13.765  40.094   0.950
67652W        W39967  24.580  27.413  12.418
67653W        W39968  21.601   3.730  10.643
67654W        W39969  36.772  31.343  13.942
67655W        W39970   9.426  16.956   0.014
67656W        W39971   1.356  34.038   4.601
67657W        W39972  38.997  30.539   4.168
67658W        W39973  29.216  28.686  12.516
67659W        W39974   6.255  19.320  12.466
67660W        W39975  38.246  35.602   1.714
67661W        W39976  40.284  35.003   2.175
67662W        W39977  15.963  33.013  13.391
67663W        W39978  20.308  24.701  11.525
67664W        W39979  24.648  11.078  11.477
67665W        W39980   3.393  24.660   0.135
67666W        W39981  38.093  38.908   1.405
67667W        W39982  24.722   4.180   4.617
67668W        W39983  27.834  36.103  12.044
67669W        W39984  16.053  18.172  14.511
67670W        W39985  28.280  20.364  14.796
67671W        W39986  17.683   3.603  12.659
67672W        W39987  26.076  20.734  14.199
67673W        W39988  26.058  28.743  11.811
67674W        W39989  33.575   1.330   3.693
67675W        W39990  12.045  11.314  10.872
67676W        W39991  11.787  33.420   4.156
67677W        W39992   7.774  18.662   0.350
67678W        W39993  19.250  12.953   2.336
67679W        W39994   4.471  21.471   1.124
67680W        W39995  13.555  38.520  14.194
67681W        W39996  33.243   1.853  14.452
67682W        W39997  20.594  25.762   0.308
67683W        W39998  16.592  40.797  12.523
67684W        W39999  35.070  35.858   5.071
67685W        W40000  23.660  30.134  12.059
67686W        W40001  43.756   3.893   1.454
67687W        W40002  20.069  37.269   0.927
67688W        W40003  34.584  23.304  14.931
67689W        W40004  40.499  43.496  10.707
67690W        W40005  18.294   9.171   4.301
67691W        W40006  41.245  29.956  13.053
67692W        W40007  38.664   0.960  11.715
67693W        W40008  32.411  31.172  10.874
67694W        W40009  37.801  30.159  11.181
67695W        W40010  44.222   8.270  11.997
67696W        W40011  40.318  38.456   0.248
67697W        W40012  30.202  25.957   3.180
67698W        W40013  20.156  16.638   3.157
67699W        W40014  25.395  13.885   3.841
67700W        W40015   0.118   7.684  12.794
67701W        W40016  41.032   4.847  14.521
67702W        W40017   1.006  30.181  14.812
67703W        W40018   2.394   6.239   4.057
67704W        W40019  21.871  12.861   2.198
67705W        W40020  28.002  18.286   4.703
67706W        W40021  35.431  37.332   0.288
67707W        W40022   2.330  35.949  14.453
67708W        W40023  19.149  39.528   4.174
67709W        W40024  32.495   0.806  11.545
67710W        W40025   0.204  11.836  14.902
67711W        W40026  41.426  21.087   4.561
67712W        W40027  13.130   0.398   4.648
67713W        W40028  27.889   5.213   3.591
67714W        W40029   6.852  27.648   4.516
67715W        W40030   8.112  43.781   4.094
67716W        W40031  35.161   1.860  10.708
67717W        W40032  15.512   7.762   4.500
67718W        W40033  25.629  36.506   1.152
67719W        W40034  32.793   4.784   2.350
67720W        W40035  31.268  36.847  11.029
67721W        W40036   1.325  28.532   1.809
67722W        W40037  18.781  37.120  11.047
67723W        W40038  36.521  43.376   1.877
67724W        W40039   5.238  14.237   2.350
67725W        W40040  33.525  35.842   2.203
67726W        W40041   2.882   4.468   1.762
67727W        W40042  43.809  30.705  13.448
67728W        W40043   9.382  38.807   4.098
67729W        W40044  27.514  28.380   0.898
67730W        W40045  26.228  40.284   3.043
67731W        W40046   3.444  41.500   3.213
67732W        W40047  39.001  38.087  13.829
67733W        W40048  37.816  42.551   4.599
67734W        W40049  30.074  16.929  14.906
67735W        W40050   4.295  38.614  10.360
67736W        W40051   6.977   7.420  14.118
67737W        W40052   3.762  23.028   1.160
67738W        W40053  27.643   7.233   3.680
67739W        W40054  19.700  43.326  12.620
67740W        W40055   3.400   9.761   0.433
67741W        W40056   1.051  34.049   5.509
67742W        W40057  31.145   4.474   0.683
67743W        W40058  25.340  36.903   0.957
67744W        W40059   8.344  27.698   3.683
67745W        W40060  11.321  15.742  12.408
67746W        W40061  33.527   6.648  11.110
67747W        W40062   4.847  24.950   1.817
67748W        W40063  37.449  30.040   2.703
67749W        W40064  22.552  36.433   1.731
67750W        W40065  35.032  20.889  14.006
67751W        W40066  20.274   9.631   2.379
67752W        W40067  33.981  34.596   1.662
67753W        W40068  30.663  37.128   0.202
67754W        W40069  44.890  42.240  11.564
67755W        W40070  16.755  27.525   2.203
67756W        W40071   5.730   3.488   3.557
67757W        W40072  25.102  16.751  10.691
67758W        W40073  39.598  17.652   3.999
67759W        W40074  11.026  27.580  13.188
67760W        W40075  28.481  17.360  11.539
67761W        W40076  41.306  32.464  13.844
67762W        W40077  16.663  28.563   2.210
67763W        W40078  16.909  44.523   1.124
67764W        W40079  33.026   0.748  14.972
67765W        W40080  20.086  27.444   1.738
67766W        W40081  42.872  36.540   4.139
67767W        W40082  36.888  14.391  14.326
67768W        W40083  10.915   9.277   2.390
67769W        W40084  35.060  16.544  13.343
67770W        W40085  34.951  32.683   1.367
67771W        W40086   7.871  36.176   3.648
67772W        W40087   9.092  11.297   1.308
67773W        W40088   8.991  19.438   2.818
67774W        W40089  39.909  27.040   4.892
67775W        W40090  37.362  19.272  12.140
67776W        W40091  26.654  39.166   3.357
67777W        W40092   9.595  26.020  14.827
67778W        W40093  15.015  40.522  14.765
67779W        W40094  44.750  34.153   4.056
67780W        W40095  19.828  18.293  11.621
67781W        W40096  33.455  44.656   0.318
67782W        W40097   3.997  31.952  11.446
67783W        W40098  39.537  22.582  10.825
67784W        W40099  40.037  25.630  14.198
67785W        W40100   0.424  40.506   2.684
67786W        W40101   3.570  30.084  11.610
67787W        W40102  34.813  12.361   2.834
67788W        W40103  25.036  36.187   0.472
67789W        W40104  35.438   5.603   1.820
67790W        W40105   1.805   6.191   1.737
67791W        W40106  11.425  12.821   1.860
67792W        W40107  31.017  24.482   2.716
67793W        W40108  14.676  35.641   2.188
67794W        W40109  18.074  32.350  14.257
67795W        W40110  38.248  38.272  10.877
67796W        W40111  44.807   0.034  12.910
67797W        W40112  33.373  41.975   3.666
67798W        W40113   4.028  16.567   1.264
67799W        W40114  13.787  27.043  11.145
67800W        W40115  25.021  35.678   0.907
67801W        W40116  31.418   3.296  13.347
67802W        W40117   0.833  17.317   2.622
67803W        W40118   2.564  44.265  10.453
67804W        W40119  42.520  33.502   2.084
67805W        W40120  28.041  10.115   0.767
67806W        W40121  44.030   5.203  14.715
67807W        W40122  24.138  43.951   1.094
67808W        W40123  22.085  29.604  10.659
67809W        W40124  33.109   3.237   3.169
67810W        W40125  33.415  14.077   2.045
67811W        W40126  34.631  15.300  11.175
67812W        W40127   4.789  30.260  11.212
67813W        W40128   7.802  26.642  13.161
67814W        W40129  43.972  20.581  13.006
67815W        W40130  38.559  33.108   2.626
67816W        W40131   9.961   7.304  14.904
67817W        W40132   7.284  22.164  10.772
67818W        W40133  39.426  12.156   3.184
67819W        W40134  35.031  32.136   4.607
67820W        W40135  30.470   4.173   3.290
67821W        W40136  34.988  31.112   0.261
67822W        W40137   7.962  22.985  13.044
67823W        W40138   4.600  10.265  12.027
67824W        W40139  34.115  34.567   0.393
67825W        W40140  21.260  37.594   1.252
67826W        W40141  13.648  40.276   1.652
67827W        W40142  35.302   9.109  13.529
67828W        W40143  30.016  13.725   1.831
67829W        W40144   2.955  18.213   0.796
67830W        W40145  15.260  44.416  11.669
67831W        W40146  23.684  10.119   4.271
67832W        W40147  14.313  38.393  11.122
67833W        W40148  33.664   6.766   3.671
67834W        W40149   0.214  19.980  14.765
67835W        W40150  10.731  36.623   0.953
67836W        W40151   0.318  17.309  10.435
67837W        W40152  23.850  20.140  11.834
67838W        W40153  29.201  18.082  13.356
67839W        W40154  32.119   3.246   2.849
67840W        W40155  13.635  35.876  14.307
67841W        W40156  43.534  17.574   4.500
67842W        W40157   6.165   6.853  14.885
67843W        W40158  18.889  35.112  14.145
67844W        W40159   7.779  13.835   1.873
67845W        W40160  27.386  30.601  13.313
67846W        W40161  32.082  19.480  11.592
67847W        W40162  21.525  10.195   2.397
67848W        W40163  33.377  43.953  12.572
67849W        W40164  40.803  14.769  11.525
67850W        W40165  14.193  36.775   0.098
67851W        W40166  15.576  17.966  11.169
67852W        W40167   7.698  30.485  13.830
67853W        W40168   3.766  32.212   2.760
67854W        W40169   1.387  34.059  13.125
67855W        W40170  14.560  32.021  12.988
67856W        W40171  44.302  22.259   3.779
67857W        W40172  40.271  39.715  14.356
67858W        W40173  35.617  38.464   3.784
67859W        W40174  34.323   4.629   0.845
67860W        W40175  19.741  22.220   1.775
67861W        W40176  31.097  39.893  14.441
67862W        W40177  31.640   8.803   1.403
67863W        W40178  40.726  14.458   4.459
67864W        W40179   9.045  42.367   0.885
67865W        W40180   7.578  29.656   4.286
67866W        W40181  33.604   9.889  11.654
67867W        W40182  43.606   1.554   1.948
67868W        W40183  27.404  17.085   1.764
67869W        W40184  24.057  13.624   3.148
67870W        W40185  41.328   2.243  13.895
67871W        W40186   4.215  22.631   3.604
67872W        W40187  20.108  14.121  11.748
67873W        W40188  34.577   6.277   0.047
67874W        W40189  26.356  15.826   4.582
67875W        W40190  37.823  26.425  11.893
67876W        W40191   0.964  13.392   1.376
67877W        W40192   1.065  31.833  13.065
67878W        W40193   5.844  25.537  10.603
67879W        W40194  15.330   0.298  10.720
67880W        W40195   3.748  13.652  11.984
67881W        W40196  30.032  44.091  14.447
67882W        W40197  44.844   7.261  12.601
67883W        W40198  16.648  36.009   2.238
67884W        W40199  10.438   4.493   1.881
67885W        W40200  21.726  14.362  11.688
67886W        W40201  28.538  13.355  12.831
67887W        W40202  13.694  18.080   0.641
67888W        W40203  37.819  14.648   1.880
67889W        W40204  15.854  44.755   3.663
67890W        W40205  24.672   7.226   2.216
67891W        W40206  26.712  34.459  10.313
67892W        W40207  23.168  15.392   0.489
67893W        W40208  18.299  44.893  10.664
67894W        W40209  22.561  32.437   4.153
67895W        W40210  24.818  13.102  12.975
67896W        W40211  14.267  15.239  12.910
67897W        W40212  37.866  42.357  10.470
67898W        W40213  38.448  39.881  14.307
67899W        W40214  13.630   4.753   1.309
67900W        W40215   4.263  21.759  12.880
67901W        W40216   1.019  16.189   2.381
67902W        W40217   4.003  23.927  14.520
67903W        W40218  40.414   6.609   0.673
67904W        W40219  31.809  26.858   4.851
67905W        W40220   0.530  20.270   4.760
67906W        W40221  43.542  22.676   4.861
67907W        W40222   6.967  35.974   4.561
67908W        W40223  28.045  24.693   4.115
67909W        W40224  30.957  16.668   1.969
67910W        W40225  33.518  35.397   2.465
67911W        W40226  24.411  32.069   0.768
67912W        W40227   3.750  15.145   3.819
67913W        W40228  20.741  24.023  12.373
67914W        W40229  32.428   9.754  10.605
67915W        W40230   2.304  23.821   3.768
67916W        W40231  15.275   9.658  14.035
67917W        W40232   5.217  18.171   3.701
67918W        W40233  43.533  22.940  14.061
67919W        W40234  30.232  30.153   0.513
67920W        W40235  33.190  40.092  10.656
67921W        W40236  27.198  40.431  10.128
67922W        W40237  31.979   1.832  14.833
67923W        W40238  32.739  19.111   4.192
67924W        W40239  34.100  35.089  12.279
67925W        W40240  36.339  40.129  13.501
67926W        W40241   5.907  44.771  11.832
67927W        W40242   9.404   9.751   3.570
67928W        W40243   1.006   2.878  13.524
67929W        W40244   8.277   5.125   2.724
67930W        W40245  29.497  18.036   0.481
67931W        W40246  36.109  37.089  11.952
67932W        W40247  10.961  22.761   3.611
67933W        W40248  36.190  39.310  11.017
67934W        W40249   6.326   5.803   0.888
67935W        W40250  35.617   2.950   2.380
67936W        W40251   5.162  36.765   1.339
67937W        W40252  40.003  35.296  12.565
67938W        W40253  36.074  16.831  11.199
67939W        W40254  42.446  16.101   2.810
67940W        W40255   2.408  12.695  11.419
67941W        W40256   8.300  10.743   4.099
67942W        W40257   1.306  37.463   4.635
67943W        W40258   3.229  18.148   0.356
67944W        W40259  38.940  34.802  10.668
67945W        W40260  26.656  15.241  13.451
67946W        W40261  34.501  25.162  10.630
67947W        W40262  38.080  15.825   2.553
67948W        W40263  11.716  28.219   4.190
67949W        W40264  21.715  29.079   3.165
67950W        W40265  22.520  29.504  12.938
67951W        W40266  14.257  44.837   3.755
67952W        W40267   6.779   1.360   4.285
67953W        W40268  29.418  34.071  14.328
67954W        W40269  32.712  23.832  12.991
67955W        W40270  19.491  36.053   1.745
67956W        W40271  23.250  17.071  11.962
67957W        W40272   7.339  22.419  12.456
67958W        W40273  37.919  37.249  12.246
67959W        W40274  38.826   5.342   0.287
67960W        W40275   6.885   5.322  13.916
67961W        W40276  43.438   3.009  10.667
67962W        W40277  40.439  30.532   0.878
67963W        W40278  19.010  37.577  11.098
67964W        W40279   3.616  36.008   4.263
67965W        W40280  34.951  21.026  10.628
67966W        W40281  27.998  26.723   2.289
67967W        W40282   0.768  35.596  13.989
67968W        W40283   0.391  27.206  12.406
67969W        W40284  37.614  40.500   1.419
67970W        W40285   2.988  20.737  12.853
67971W        W40286   4.860   3.661  14.796
67972W        W40287   4.829  30.028  10.750
67973W        W40288  37.128   8.233   4.172
67974W        W40289  30.565  31.501   3.087
67975W        W40290  25.760  12.937   3.685
67976W        W40291  26.244   9.158  12.215
67977W        W40292  37.307   6.019  12.916
67978W        W40293  20.615  39.894   0.921
67979W        W40294  24.503   3.699  10.566
67980W        W40295  15.842  33.606  14.442
67981W        W40296  28.816  20.926  11.008
67982W        W40297   7.564   2.157   0.691
67983W        W40298  15.496  11.668   4.110
67984W        W40299  44.844  21.182  10.468
67985W        W40300   3.188  41.419  14.918
67986W        W40301   9.404  37.892  13.958
67987W        W40302  30.071  35.860   2.730
67988W        W40303   4.818  28.557   3.016
67989W        W40304  14.385  36.452   5.035
67990W        W40305  34.304  39.545  10.495
67991W        W40306   9.408   0.929  12.175
67992W        W40307  41.609  24.969   1.343
67993W        W40308   9.173   3.540   4.382
67994W        W40309  34.316  43.020   3.207
67995W        W40310  18.305   3.537  11.936
67996W        W40311   1.170  16.310   4.877
67997W        W40312  36.345  36.999   1.455
67998W        W40313  43.967  25.683  10.663
67999W        W40314  31.623  40.083   4.606
68000W        W40315   3.810  39.871   1.020
68001W        W40316  30.610   1.907   2.750
68002W        W40317  40.334  42.045   1.057
68003W        W40318  11.095   8.734  12.879
68004W        W40319  43.361   3.047  14.876
68005W        W40320  26.614  29.344   2.285
68006W        W40321  38.334  41.062  12.452
68007W        W40322  30.351  43.745  14.209
68008W        W40323  10.664  10.656  14.375
68009W        W40324  42.376  34.489   1.754
68010W        W40325  34.056  32.113  13.573
68011W        W40326  16.808  29.907  11.514
68012W        W40327   1.996  39.299  14.328
68013W        W40328   1.707  13.348   3.406
68014W        W40329  28.729   7.522  11.519
68015W        W40330  30.904  40.583   2.755
68016W        W40331  38.274  44.850  13.543
68017W        W40332  36.296  32.542   1.906
68018W        W40333  25.638  16.598   1.225
68019W        W40334  27.557  31.166   1.413
68020W        W40335   3.934   1.456   3.773
68021W        W40336  41.844  15.090  12.935
68022W        W40337  22.702  44.512  11.565
68023W        W40338  42.626   6.891   2.261
68024W        W40339  31.842  34.049  12.902
68025W        W40340  23.312  39.363   3.346
68026W        W40341  26.791  20.047   2.445
68027W        W40342  32.542   6.756   1.307
68028W        W40343  13.415   7.273  11.102
68029W        W40344  18.148  26.641  13.795
68030W        W40345  27.562  24.789  12.947
68031W        W40346  21.110  18.030   3.216
68032W        W40347  18.744  39.903  10.592
68033W        W40348  29.612  16.035  10.950
68034W        W40349  37.403  17.036  13.595
68035W        W40350  13.102  19.039   2.307
68036W        W40351   1.675   2.769   0.257
68037W        W40352   8.283  21.749   4.654
68038W        W40353  38.840  24.212   0.036
68039W        W40354  42.898  38.317   0.948
68040W        W40355  27.585  21.228   0.841
68041W        W40356   4.836  22.747   4.104
68042W        W40357  43.370  37.306   2.626
68043W        W40358   8.238   7.182  12.766
68044W        W40359   1.527  19.202  13.351
68045W        W40360  35.074   7.677  11.237
68046W        W40361  16.052  13.617  14.320
68047W        W40362  22.156   7.351  10.695
68048W        W40363  26.496  13.149   1.172
68049W        W40364  31.564   0.399  11.970
68050W        W40365  11.391   0.938  12.525
68051W        W40366  19.911   1.228  14.429
68052W        W40367  29.217  44.452   0.377
68053W        W40368   3.503  17.555  13.951
68054W        W40369   3.105  28.621  10.693
68055W        W40370  28.031  34.577   4.537
68056W        W40371  38.864  17.251   0.905
68057W        W40372   1.290  39.097   2.603
68058W        W40373  34.658  17.785   1.372
68059W        W40374  21.536  38.871  11.956
68060W        W40375   7.714  24.477  11.600
68061W        W40376  14.196  40.913   4.547
68062W        W40377   0.232  11.120  11.482
68063W        W40378  31.594  21.801   4.166
68064W        W40379  13.707  31.489  12.031
68065W        W40380  19.243  12.795  10.925
68066W        W40381   6.422   9.730   4.291
68067W        W40382  16.103  32.112   0.761
68068W        W40383  17.626  24.929   0.344
68069W        W40384  25.486  26.709  12.039
68070W        W40385  32.615  43.502  13.973
68071W        W40386  33.259  25.836   0.295
68072W        W40387  16.306  22.678   1.833
68073W        W40388   1.454  29.353   2.852
68074W        W40389  43.990  21.670  11.827
68075W        W40390  34.855  10.613   2.005
68076W        W40391  41.283  13.849  13.045
68077W        W40392   2.329  12.186   3.328
68078W        W40393  31.544  26.505  13.418
68079W        W40394  23.174  17.233   0.154
68080W        W40395  28.533  31.621   0.085
68081W        W40396   4.408   3.249  13.954
68082W        W40397  17.169  23.970  11.947
68083W        W40398  39.501  16.727   2.306
68084W        W40399  44.236  18.879  14.533
68085W        W40400  43.450  35.548  10.869
68086W        W40401  12.195   5.104  12.134
68087W        W40402  12.803  23.971   3.663
68088W        W40403   3.194  42.922   1.820
68089W        W40404  11.091  22.121   3.281
68090W        W40405  23.045  11.219   1.874
68091W        W40406   6.345   4.850   3.358
68092W        W40407   7.118  28.608   3.794
68093W        W40408  34.278  10.734   0.062
68094W        W40409  35.413  24.605   1.922
68095W        W40410  44.026  30.005  12.111
68096W        W40411  27.654  38.367   3.803
68097W        W40412   7.858   0.143   2.981
68098W        W40413  27.215   6.695   2.910
68099W        W40414   1.976  20.029  11.528
68100W        W40415  36.001  24.143  12.982
68101W        W40416   3.809  30.471   1.246
68102W        W40417  33.710  14.758   1.271
68103W        W40418  26.304  40.128  12.634
68104W        W40419  39.023   8.616   0.396
68105W        W40420  11.805  10.675  11.403
68106W        W40421   8.024   3.751  12.564
68107W        W40422  12.268  25.291   0.789
68108W        W40423  35.379   6.724   4.548
68109W        W40424   7.791   7.840   4.798
68110W        W40425  25.885  29.099   4.769
68111W        W40426  32.406   1.219  14.567
68112W        W40427  33.574  21.729  13.271
68113W        W40428  10.871   7.318   3.225
68114W        W40429  42.035  22.070  12.543
68115W        W40430  38.249  24.072  14.213
68116W        W40431   6.442   2.242  14.204
68117W        W40432  27.580  21.127  11.976
68118W        W40433  11.360  40.900   2.665
68119W        W40434   7.361  36.920   3.752
68120W        W40435  19.851  27.904   0.452
68121W        W40436  38.101  21.194   4.541
68122W        W40437  12.221   3.644  12.841
68123W        W40438  37.773  24.305   0.267
68124W        W40439  44.720  20.693   1.516
68125W        W40440  37.899   4.510   4.450
68126W        W40441  17.709   3.797  13.146
68127W        W40442  21.733  20.693  10.915
68128W        W40443  25.214   3.152  14.817
68129W        W40444  28.029  19.383   4.675
68130W        W40445  33.762  18.314   0.521
68131W        W40446  24.182  11.684  10.870
68132W        W40447  17.286   0.299   4.606
68133W        W40448  24.769  43.093  13.297
68134W        W40449   2.044   0.801  10.703
68135W        W40450  42.766  42.837   4.090
68136W        W40451  37.336  12.215   3.148
68137W        W40452  33.360  16.531  13.480
68138W        W40453  38.655  21.668  12.683
68139W        W40454  13.138   5.487   2.155
68140W        W40455  38.938  38.737   9.963
68141W        W40456   0.372   4.693  11.964
68142W        W40457  39.347  44.776   0.534
68143W        W40458  39.534  40.582  11.505
68144W        W40459   9.409  28.145  14.484
68145W        W40460   6.846   3.247  13.527
68146W        W40461   6.380   1.771   0.018
68147W        W40462  30.460  35.132   3.163
68148W        W40463  37.836  40.932   1.603
68149W        W40464  28.075   6.240   2.133
68150W        W40465  11.390  43.372   1.706
68151W        W40466  20.070  28.627  10.328
68152W        W40467   2.392  24.921   4.709
68153W        W40468  24.612  31.658  12.370
68154W        W40469   0.977  13.381  13.473
68155W        W40470   1.308  24.351   2.129
68156W        W40471   4.864  13.635   0.416
68157W        W40472  13.076  20.788  12.543
68158W        W40473  38.973  16.150   1.250
68159W        W40474   0.409   7.153  11.100
68160W        W40475  32.700   1.984   2.708
68161W        W40476   8.138   0.536   4.676
68162W        W40477   5.343   3.936  13.072
68163W        W40478  23.721  27.082  10.385
68164W        W40479  11.838   3.278   4.627
68165W        W40480  28.878  32.972   2.711
68166W        W40481  21.083   1.852   3.415
68167W        W40482  10.037   4.172  11.546
68168W        W40483  15.357  33.868   2.810
68169W        W40484  28.704  16.497   4.243
68170W        W40485   5.937   7.607   5.001
68171W        W40486  14.747  14.692  12.082
68172W        W40487  39.469   9.762   4.599
68173W        W40488  13.221  22.990   2.912
68174W        W40489  29.096  42.460  13.047
68175W        W40490   3.868   1.720  11.614
68176W        W40491   5.206  32.071   4.025
68177W        W40492   8.372  14.646   2.732
68178W        W40493  24.930  34.169  14.462
68179W        W40494   4.304  12.282  11.189
68180W        W40495  17.824  39.426   1.209
68181W        W40496  23.501   3.391   0.798
68182W        W40497  17.166  38.547   0.205
68183W        W40498  32.660  22.293   3.718
68184W        W40499  10.432  18.066  12.978
68185W        W40500   5.802  24.747   1.242
68186W        W40501   9.225  12.657  10.834
68187W        W40502   0.894  21.099   4.127
68188W        W40503  20.298  10.428   0.066
68189W        W40504  17.978  44.760   4.626
68190W        W40505  18.519  25.500   0.482
68191W        W40506  40.939  19.686   3.096
68192W        W40507  39.478   7.014   0.712
68193W        W40508   8.373  19.877  13.846
68194W        W40509  42.532   6.652   3.320
68195W        W40510  18.624   3.454  11.115
68196W        W40511  39.073  14.618   1.780
68197W        W40512  44.209  13.076  10.039
68198W        W40513   9.191  19.009  10.530
68199W        W40514  41.458  41.014  11.061
68200W        W40515  16.773  11.793  11.436
68201W        W40516  30.641  29.370  14.392
68202W        W40517   1.965  11.860  11.409
68203W        W40518   3.330  19.746  11.972
68204W        W40519  42.812  14.352  10.920
68205W        W40520  32.190   1.118  11.228
68206W        W40521  40.664  26.954  11.138
68207W        W40522  14.245  18.249   1.886
68208W        W40523  18.759   3.536  12.147
68209W        W40524  39.877   8.524  12.039
68210W        W40525  17.342  29.546  14.896
68211W        W40526   8.821  10.949  13.473
68212W        W40527  14.634  14.916   3.360
68213W        W40528  40.412  18.736  14.575
68214W        W40529   9.880  16.543   9.705
68215W        W40530  14.295   8.086  12.153
68216W        W40531   7.936  12.673   1.050
68217W        W40532  14.201  22.058   1.467
68218W        W40533  15.216   9.264   4.990
68219W        W40534  12.093  20.611  12.434
68220W        W40535  33.078  29.947  11.922
68221W        W40536   8.690   7.343  11.951
68222W        W40537  29.248  41.562  12.806
68223W        W40538  27.726  41.064   1.333
68224W        W40539   5.180  28.119  10.735
68225W        W40540  19.576  29.766  11.066
68226W        W40541  28.069   1.214   3.094
68227W        W40542  19.349  17.735  10.407
68228W        W40543  26.384  37.840   2.674
68229W        W40544  39.795  44.767   0.268
68230W        W40545  38.957  16.741   4.855
68231W        W40546  25.482  26.264  13.111
68232W        W40547  22.047  24.639   2.323
68233W        W40548   2.187  32.118   3.254
68234W        W40549  41.104  37.594  12.645
68235W        W40550  25.834   7.094   5.036
68236W        W40551  10.671  27.932  11.504
68237W        W40552   7.150  25.301  12.080
68238W        W40553  15.676  24.854  14.566
68239W        W40554  31.188  12.579  14.497
68240W        W40555  18.163   1.407   2.409
68241W        W40556  18.402  13.577  10.721
68242W        W40557  36.110  10.331   4.476
68243W        W40558  31.147  18.160  12.932
68244W        W40559  36.376   5.559   1.691
68245W        W40560  22.195  39.780  11.621
68246W        W40561  39.311  39.414   3.107
68247W        W40562  24.010  18.166  10.475
68248W        W40563   5.295  21.546   2.745
68249W        W40564  43.316  15.399  11.561
68250W        W40565  27.186  29.351   0.241
68251W        W40566  41.756   9.367   0.363
68252W        W40567  11.881  30.017  14.973
68253W        W40568  36.154   3.848   2.430
68254W        W40569  28.262  23.599   0.866
68255W        W40570   9.755  13.706   0.957
68256W        W40571   8.425  39.465   4.577
68257W        W40572  31.302  10.381  12.384
68258W        W40573   5.481  32.636  12.096
68259W        W40574  26.028  11.629  10.764
68260W        W40575  18.828  20.667   4.280
68261W        W40576   5.341  34.058  11.894
68262W        W40577   0.326   4.324   0.402
68263W        W40578  44.526  31.354  11.081
68264W        W40579  31.642  26.629  14.334
68265W        W40580  44.015  17.995  14.963
68266W        W40581  43.417  15.139  13.386
68267W        W40582  11.297  27.283   0.929
68268W        W40583  32.880   5.873   3.254
68269W        W40584  11.202   2.435   3.813
68270W        W40585  29.940  28.605  14.526
68271W        W40586   2.981  19.454  11.676
68272W        W40587  22.707  21.629   5.107
68273W        W40588  43.976  37.497  13.999
68274W        W40589  13.300   8.959  13.407
68275W        W40590  29.154  18.368  11.120
68276W        W40591  23.597  43.379  14.012
68277W        W40592  25.265  17.835  10.803
68278W        W40593  43.243  40.931  14.318
68279W        W40594   8.641  20.011  11.503
68280W        W40595  13.752   7.233   3.409
68281W        W40596   7.159   0.932   2.409
68282W        W40597  40.047  37.967   3.202
68283W        W40598   4.537  25.040  14.180
68284W        W40599  32.544  24.428  12.129
68285W        W40600  41.520   6.168   0.907
68286W        W40601  36.322  20.797   3.538
68287W        W40602  24.150  44.922   2.811
68288W        W40603  21.211  32.821  12.452
68289W        W40604  34.147  37.383   3.133
68290W        W40605  26.756  17.396  14.939
68291W        W40606  36.360  12.226   2.168
68292W        W40607  29.200   9.880   4.748
68293W        W40608  37.280  27.489  10.745
68294W        W40609  29.358  40.288   4.053
68295W        W40610  13.688  34.471   3.352
68296W        W40611  16.973  13.291  11.539
68297W        W40612  13.994  41.813  10.606
68298W        W40613   8.848   4.843  12.088
68299W        W40614  20.005  35.634   0.330
68300W        W40615  38.555  34.882   3.129
68301W        W40616  15.456  12.100  13.857
68302W        W40617   4.429   6.949   1.274
68303W        W40618   9.274  19.210  11.365
68304W        W40619   8.256  29.474   3.130
68305W        W40620   8.387  14.205  12.089
68306W        W40621  36.465  22.174   2.205
68307W        W40622   5.860   3.159  14.994
68308W        W40623  25.834  28.915   4.282
68309W        W40624  33.404  12.456   4.471
68310W        W40625  26.117   8.944  13.629
68311W        W40626  14.569  30.909   3.257
68312W        W40627  40.816   7.956   1.774
68313W        W40628   9.941  40.440   4.171
68314W        W40629   8.429  40.526  14.885
68315W        W40630  32.754  18.800   4.601
68316W        W40631  13.790  32.603   3.691
68317W        W40632   9.292  20.828   1.936
68318W        W40633   2.316  32.637   2.260
68319W        W40634  43.772  20.025   0.740
68320W        W40635  24.551  26.629  13.944
68321W        W40636  25.982  21.759   0.857
68322W        W40637  24.657  43.571   3.642
68323W        W40638  18.784  24.946   0.740
68324W        W40639  43.516  14.501   0.017
68325W        W40640  41.516   3.261   3.172
68326W        W40641   9.674   3.201  14.974
68327W        W40642  32.971  19.831   2.929
68328W        W40643  13.385   7.543   3.602
68329W        W40644  22.572  41.842  11.620
68330W        W40645  37.931  25.629  10.848
68331W        W40646  41.920   6.312   4.244
68332W        W40647  15.494  43.989   4.202
68333W        W40648   5.905   8.100   1.489
68334W        W40649  26.257  20.877  12.694
68335W        W40650  15.737  28.668  11.094
68336W        W40651  36.158  25.516  11.906
68337W        W40652  35.280  17.285  12.099
68338W        W40653   0.689  17.736   4.112
68339W        W40654   9.684   9.953  10.737
68340W        W40655  37.534  12.427   0.977
68341W        W40656   1.440   6.223  14.338
68342W        W40657  14.826  18.771   4.697
68343W        W40658  24.048  37.139   0.774
68344W        W40659  29.479  43.272   4.933
68345W        W40660   2.803  35.760   1.850
68346W        W40661   5.944  18.621  11.540
68347W        W40662  17.073  28.782  11.334
68348W        W40663  28.321   6.345  14.027
68349W        W40664  34.054  10.345   1.832
68350W        W40665   4.352  19.224   4.720
68351W        W40666  37.204  22.644  11.572
68352W        W40667  42.359  40.767  10.903
68353W        W40668  23.041  21.220  14.891
68354W        W40669  25.985  12.126  13.097
68355W        W40670  33.512   8.212   1.114
68356W        W40671  40.970  42.743  13.820
68357W        W40672   7.281  29.101   3.261
68358W        W40673   1.197  20.688  13.948
68359W        W40674  39.567  29.768  13.028
68360W        W40675  22.548  41.518  13.483
68361W        W40676  38.982  30.470  14.562
68362W        W40677   8.684  28.080  10.784
68363W        W40678  27.294  15.770   2.327
68364W        W40679  12.898  34.852   1.717
68365W        W40680  42.457   2.944   0.361
68366W        W40681   1.844  25.098  12.606
68367W        W40682  29.009  30.265  13.774
68368W        W40683   0.732  25.734  13.009
68369W        W40684  11.649  23.221  10.777
68370W        W40685  32.685  22.509   0.478
68371W        W40686   0.767  25.892  14.453
68372W        W40687   4.291   8.295  12.380
68373W        W40688  13.712  35.595  11.599
68374W        W40689   1.386  12.140  11.208
68375W        W40690  19.316   1.845  11.125
68376W        W40691  40.464  44.572  11.136
68377W        W40692   2.260  32.086  14.933
68378W        W40693   1.685  20.715  14.133
68379W        W40694  17.390  41.519   4.029
68380W        W40695  19.512  12.386   1.814
68381W        W40696   2.161  24.637   2.906
68382W        W40697   7.738  18.212   0.622
68383W        W40698  23.280   6.573   0.712
68384W        W40699  33.628  20.606  13.931
68385W        W40700  14.639  13.074  13.286
68386W        W40701  13.833  37.992  11.101
68387W        W40702  39.515  36.638   4.619
68388W        W40703  22.646  10.354  13.953
68389W        W40704   6.411  14.507  11.892
68390W        W40705  32.380   5.541   1.122
68391W        W40706   8.904   1.942   0.905
68392W        W40707  42.229  31.032   1.400
68393W        W40708  28.166  15.811  14.974
68394W        W40709  14.101  12.465  14.315
68395W        W40710  36.845  23.346  10.545
68396W        W40711  29.845   6.792  14.157
68397W        W40712   7.778  19.064  11.123
68398W        W40713  39.300  23.974  13.934
68399W        W40714   1.428  21.817  11.964
68400W        W40715  42.242  44.749   1.876
68401W        W40716  25.481   0.275   3.563
68402W        W40717  13.184  37.381  10.201
68403W        W40718  25.034  12.719   0.224
68404W        W40719  27.123  20.913  14.082
68405W        W40720  11.274  22.499  12.580
68406W        W40721   0.705  23.185  12.438
68407W        W40722  31.510  26.496  12.472
68408W        W40723  24.681  43.392   4.606
68409W        W40724  14.601  35.081   1.336
68410W        W40725  41.947  32.927   0.967
68411W        W40726  10.268  41.374  13.837
68412W        W40727   8.727  30.589  13.822
68413W        W40728  10.393   9.452   3.749
68414W        W40729  36.112   0.080  13.939
68415W        W40730  11.324  16.183   0.217
68416W        W40731  35.260  24.379  10.673
68417W        W40732   7.328   3.259  14.971
68418W        W40733  30.749   3.800  12.074
68419W        W40734  29.200  15.546  14.084
68420W        W40735  25.585  44.244  12.581
68421W        W40736  18.223  24.692  12.191
68422W        W40737   0.223  40.010  13.332
68423W        W40738  38.908  17.234   1.776
68424W        W40739   6.842  40.194  13.016
68425W        W40740  31.582  34.506   2.821
68426W        W40741   8.308   4.840   0.245
68427W        W40742   7.244  18.429   1.550
68428W        W40743  11.568  14.848  11.160
68429W        W40744  15.621  44.309   1.457
68430W        W40745  43.959  28.755  11.274
68431W        W40746  27.982  17.246   3.436
68432W        W40747  29.686  40.917   4.562
68433W        W40748  27.523  32.092   3.774
68434W        W40749  35.153  33.854   3.324
68435W        W40750  42.926  39.081   0.547
68436W        W40751  31.940  36.075   1.372
68437W        W40752   2.375  32.547   1.722
68438W        W40753  42.436  12.234   4.689
68439W        W40754   6.301  26.155  11.096
68440W        W40755  30.053   9.185   2.439
68441W        W40756  37.027   2.288   0.440
68442W        W40757   6.120  33.428   5.092
68443W        W40758   6.231  41.772   1.850
68444W        W40759   9.098  13.886   1.718
68445W        W40760  16.383   4.215  13.878
68446W        W40761  16.688   9.905   3.669
68447W        W40762  30.888   9.894  13.048
68448W        W40763  22.964  42.014  11.266
68449W        W40764   7.841  35.148   3.721
68450W        W40765   1.484  33.029   0.274
68451W        W40766  25.669  37.459   2.764
68452W        W40767  22.376  13.343   2.230
68453W        W40768  11.364  37.428  12.492
68454W        W40769  26.034  10.140  14.904
68455W        W40770   7.725  21.482   2.094
68456W        W40771   9.443  18.074   0.339
68457W        W40772  18.142  34.054  11.531
68458W        W40773  18.964  33.089   2.471
68459W        W40774  40.989  11.248   0.727
68460W        W40775  34.897  38.055   0.302
68461W        W40776  43.398  19.836   2.146
68462W        W40777  36.966  27.119   1.629
68463W        W40778  33.038   9.176  14.338
68464W        W40779  40.936  25.512   3.375
68465W        W40780  23.959   6.828   1.360
68466W        W40781  40.649  22.124   2.341
68467W        W40782  24.503  28.167   0.381
68468W        W40783  29.774  38.702  14.409
68469W        W40784  29.037  25.189   0.516
68470W        W40785  31.641  34.133   2.132
68471W        W40786  38.446  26.607   9.808
68472W        W40787  34.052   4.121   0.377
68473W        W40788  38.929  23.848  10.265
68474W        W40789  14.810   8.449   0.234
68475W        W40790  15.535  29.417   3.357
68476W        W40791  32.864   4.407  14.971
68477W        W40792  35.464  34.915  14.390
68478W        W40793  43.514  38.749   2.667
68479W        W40794  30.622  25.288   2.724
68480W        W40795  44.259  19.581  12.960
68481W        W40796  10.346  37.872   1.832
68482W        W40797   4.920  10.578   2.503
68483W        W40798  25.717  23.173  11.376
68484W        W40799  38.382  38.850  14.681
68485W        W40800   2.575  44.482   3.630
68486W        W40801   4.284  33.378  13.202
68487W        W40802  40.856  26.988   2.837
68488W        W40803  13.236  40.926   4.584
68489W        W40804  22.966   5.503   0.966
68490W        W40805  17.275  16.658  12.240
68491W        W40806  14.456  16.419  13.406
68492W        W40807  19.770   5.895   3.118
68493W        W40808  14.887  24.062   0.837
68494W        W40809  11.421   1.619   4.343
68495W        W40810   2.851  28.181   4.954
68496W        W40811  31.987  30.135  14.227
68497W        W40812  13.526  10.489  14.452
68498W        W40813  40.087  21.904  10.670
68499W        W40814  27.997  14.014  14.474
68500W        W40815  28.029  20.018   1.110
68501W        W40816  20.016  15.021   4.253
68502W        W40817  15.524  15.108  11.605
68503W        W40818  40.530  29.945  14.752
68504W        W40819  28.094  19.321   2.835
68505W        W40820  23.229  19.174  11.443
68506W        W40821  39.780   6.372  10.564
68507W        W40822  21.557  17.571   4.114
68508W        W40823  11.079   0.776  12.953
68509W        W40824  39.956   8.076   3.585
68510W        W40825  26.190  37.383  12.126
68511W        W40826  35.876   1.852  13.823
68512W        W40827  41.024  16.012  12.966
68513W        W40828  16.459  33.605  10.827
68514W        W40829  15.005   7.836  13.004
68515W        W40830  14.933  23.458   5.187
68516W        W40831  14.396  13.257  14.008
68517W        W40832  24.321  34.101   4.915
68518W        W40833  22.484  12.856  14.389
68519W        W40834  37.776   9.383   3.921
68520W        W40835  39.030  35.978   1.874
68521W        W40836  31.700   6.885   4.478
68522W        W40837  36.529   1.993   4.621
68523W        W40838  43.926   6.684  11.948
68524W        W40839  25.453   3.355   5.075
68525W        W40840  36.335   9.770  14.582
68526W        W40841  13.293   4.425   4.910
68527W        W40842   8.451  19.649   1.723
68528W        W40843  36.368  40.809  13.989
68529W        W40844  39.255  33.026  11.182
68530W        W40845  26.041   3.002  10.696
68531W        W40846  36.057  35.659   3.167
68532W        W40847  17.621   3.548   2.077
68533W        W40848   9.484  21.824   1.697
68534W        W40849  33.009  16.110  13.494
68535W        W40850  36.845  18.223  11.067
68536W        W40851  30.716  35.907  12.468
68537W        W40852  34.966  34.430  12.677
68538W        W40853  12.139   9.085  13.056
68539W        W40854  19.687  40.957  14.614
68540W        W40855  34.521   4.693  13.973
68541W        W40856  34.184  13.819   1.402
68542W        W40857  32.452   3.755  13.037
68543W        W40858   8.560  39.880  11.133
68544W        W40859   1.278   5.800  11.605
68545W        W40860  30.050  22.097  13.481
68546W        W40861  38.364  17.854   3.895
68547W        W40862  10.204   9.131   0.273
68548W        W40863  36.382  36.615  12.436
68549W        W40864  27.508  44.801  10.600
68550W        W40865  17.192  20.157  12.481
68551W        W40866  17.375  22.649  13.430
68552W        W40867  18.525  40.010  10.155
68553W        W40868  26.449  19.362   0.073
68554W        W40869  35.542  38.198   0.940
68555W        W40870  12.826  39.909  14.633
68556W        W40871  31.164  40.856  13.420
68557W        W40872   8.092  26.280  12.020
68558W        W40873  36.970  41.949  14.259
68559W        W40874  23.188  23.798   2.857
68560W        W40875   2.756  33.611   2.976
68561W        W40876  10.703  36.087   3.787
68562W        W40877  25.506  12.647  13.411
68563W        W40878  29.536  38.439  12.567
68564W        W40879   2.411  32.594   1.187
68565W        W40880  42.988  19.958   0.900
68566W        W40881  32.457  28.151   4.587
68567W        W40882   2.834   9.085  13.081
68568W        W40883  37.025  28.604   0.756
68569W        W40884  20.264   9.611  10.957
68570W        W40885   0.981   7.138  11.112
68571W        W40886  13.046  42.357  13.030
68572W        W40887  36.952  38.306  11.193
68573W        W40888  16.618  41.075   1.217
68574W        W40889   4.287   4.474   3.612
68575W        W40890   6.409   1.274   4.670
68576W        W40891  22.897  15.691  12.143
68577W        W40892  38.399  24.682   0.360
68578W        W40893  11.198  37.108   1.817
68579W        W40894   3.134  42.514   1.372
68580W        W40895  34.819  22.451   1.435
68581W        W40896  31.980  28.586  14.413
68582W        W40897  35.680  38.992   3.719
68583W        W40898  34.787  13.164   4.304
68584W        W40899  18.782  34.448  10.478
68585W        W40900   2.749  43.312  14.090
68586W        W40901  37.124  25.462  14.502
68587W        W40902  40.350  42.813   1.590
68588W        W40903  10.869  33.338   0.763
68589W        W40904  29.742  18.558  12.419
68590W        W40905  32.127  32.410  12.564
68591W        W40906   9.321  22.485  12.957
68592W        W40907  14.871  28.528  12.896
68593W        W40908   9.824   7.927  14.372
68594W        W40909  34.996   9.324   1.717
68595W        W40910  17.640  17.082   0.912
68596W        W40911   2.167  36.971  12.183
68597W        W40912  24.002  35.003  14.840
68598W        W40913  38.596   9.598  14.511
68599W        W40914   1.830   8.344   2.834
68600W        W40915  13.785  24.972  13.067
68601W        W40916  24.508  27.146  14.074
68602W        W40917  44.250  15.345  13.859
68603W        W40918   7.338  24.993  12.535
68604W        W40919  29.983  39.428   0.336
68605W        W40920  39.162  22.161   1.500
68606W        W40921  38.416  28.991   1.749
68607W        W40922  33.539  27.876  11.613
68608W        W40923  13.275  23.250   4.540
68609W        W40924  21.146   3.630   4.205
68610W        W40925  36.612  26.759   4.524
68611W        W40926  26.234  42.387   1.867
68612W        W40927   5.341  11.151  12.965
68613W        W40928  13.947   3.994   1.792
68614W        W40929   4.004  15.585   0.452
68615W        W40930  16.844  41.081   3.868
68616W        W40931  35.588  21.883   4.189
68617W        W40932   5.940  32.849  13.491
68618W        W40933  27.002   7.385   0.322
68619W        W40934   5.973  21.667   3.492
68620W        W40935   5.443  33.809   2.629
68621W        W40936  23.487  31.042   2.877
68622W        W40937  21.341  15.011  12.894
68623W        W40938  15.408  27.574  11.547
68624W        W40939  42.331  39.351   2.283
68625W        W40940  14.732  20.477   2.403
68626W        W40941   3.321  13.447  14.983
68627W        W40942  22.476   8.871  12.954
68628W        W40943   0.230  39.265   1.350
68629W        W40944  23.582  27.229   2.909
68630W        W40945  19.544  24.979   2.135
68631W        W40946  39.792  44.812  11.868
68632W        W40947  21.497  16.909   2.796
68633W        W40948  42.793   4.726   4.542
68634W        W40949  31.513  37.791   3.896
68635W        W40950  17.476  12.115   0.368
68636W        W40951  36.372  26.773  13.668
68637W        W40952  38.110  16.540  11.211
68638W        W40953  36.570   6.867  14.397
68639W        W40954  36.948  24.144   3.760
68640W        W40955  16.532   1.767  11.891
68641W        W40956  39.321   7.646   4.094
68642W        W40957  39.969  44.702  10.990
68643W        W40958  29.125   2.655   2.356
68644W        W40959  44.878  30.033   0.719
68645W        W40960  20.480  18.663  11.245
68646W        W40961  37.864  10.032   1.238
68647W        W40962  23.569  33.492   4.571
68648W        W40963  32.472  23.649  11.631
68649W        W40964  23.478  23.967   3.285
68650W        W40965  29.226  20.177  10.914
68651W        W40966   6.263  16.081   0.332
68652W        W40967  34.609  19.525  14.887
68653W        W40968  42.586  24.179   1.397
68654W        W40969  17.692  36.641  14.800
68655W        W40970  20.195  15.701  12.901
68656W        W40971   4.683   1.300  11.857
68657W        W40972  27.094  35.525  12.835
68658W        W40973  22.188  25.251  13.469
68659W        W40974  33.532  37.333   2.339
68660W        W40975  10.425  20.425   4.500
68661W        W40976  22.444  36.381   3.730
68662W        W40977   3.458  18.594  11.443
68663W        W40978  27.404   4.871   0.794
68664W        W40979  17.772  17.437   0.303
68665W        W40980  17.027  23.472  11.523
68666W        W40981  24.095  18.029   0.165
68667W        W40982   5.462   9.857   3.777
68668W        W40983  12.028  23.398  11.882
68669W        W40984  28.756  30.240   1.465
68670W        W40985  28.664   1.809   3.735
68671W        W40986  10.384  44.939  12.931
68672W        W40987  22.144  14.967  13.872
68673W        W40988  21.855  34.357  13.398
68674W        W40989  15.479   9.522  11.489
68675W        W40990  27.057  16.665   2.297
68676W        W40991   8.922   0.259  11.029
68677W        W40992  16.146   7.354  10.915
68678W        W40993  34.194  30.528  10.664
68679W        W40994  42.823   4.356   2.236
68680W        W40995  35.957  12.894   2.453
68681W        W40996  26.034  31.923  12.805
68682W        W40997   5.969  27.794   4.634
68683W        W40998  32.075  10.278   3.251
68684W        W40999  32.514  22.988  14.427
68685W        W41000  27.323  41.500  12.777
68686W        W41001   8.954  44.432   4.751
68687W        W41002   6.129  31.598   3.706
68688W        W41003  21.692  38.706   1.711
68689W        W41004  12.909  11.412   4.758
68690W        W41005   9.148  27.465   0.813
68691W        W41006  18.597  42.868   2.189
68692W        W41007  17.555  21.206  14.198
68693W        W41008  26.976   9.222   1.213
68694W        W41009  40.877  28.182   1.337
68695W        W41010  13.592   6.261  13.953
68696W        W41011  14.873  44.211  11.972
68697W        W41012  29.579  43.361   4.274
68698W        W41013   2.828  16.278   3.773
68699W        W41014   1.002  19.815   0.343
68700W        W41015  28.102  33.153  14.197
68701W        W41016  22.641  18.303   3.800
68702W        W41017  39.353  10.809  13.435
68703W        W41018  36.136  32.359   1.447
68704W        W41019  38.754   0.554   2.203
68705W        W41020  23.567   8.807   3.805
68706W        W41021   6.484  18.721   1.025
68707W        W41022  29.322  32.942  12.507
68708W        W41023  11.281   5.187  13.036
68709W        W41024   9.806  21.122  13.092
68710W        W41025  29.541  36.680   3.541
68711W        W41026   5.236  32.482   1.327
68712W        W41027  13.116   0.455  10.570
68713W        W41028   4.092  10.194  11.955
68714W        W41029   2.650  38.546   3.456
68715W        W41030  32.044   2.165   1.670
68716W        W41031  27.267   9.200   1.693
68717W        W41032  15.109  28.218   3.111
68718W        W41033  40.324   5.886   1.736
68719W        W41034  13.651  33.203  13.422
68720W        W41035  29.054   5.429   2.590
68721W        W41036  31.110  28.014   3.205
68722W        W41037  16.823   8.424   1.490
68723W        W41038   8.828  43.878  14.374
68724W        W41039  31.012  19.342   4.176
68725W        W41040  20.740  20.246  12.328
68726W        W41041  24.951  19.513  11.201
68727W        W41042  13.294  41.095  13.447
68728W        W41043  23.193  41.111   1.867
68729W        W41044   6.834   7.350   2.040
68730W        W41045  36.361  25.816  13.455
68731W        W41046  42.008   9.066  12.414
68732W        W41047  39.065   8.232   2.259
68733W        W41048  23.818   5.841  13.521
68734W        W41049  11.426  20.488  14.975
68735W        W41050  23.965  10.357  10.712
68736W        W41051  13.050   4.183   3.299
68737W        W41052  29.910  35.319   0.726
68738W        W41053  34.882   3.292   3.737
68739W        W41054  24.521  40.579  12.207
68740W        W41055  23.707  12.304  12.399
68741W        W41056  16.350  40.436  11.562
68742W        W41057  41.201  29.951   4.055
68743W        W41058  21.633  11.544  11.108
68744W        W41059  36.995  31.908  11.993
68745W        W41060  24.773  30.049  11.062
68746W        W41061  17.218  37.099  13.968
68747W        W41062   2.452  38.138   4.799
68748W        W41063   0.157  21.263  13.464
68749W        W41064  30.675  12.701   0.736
68750W        W41065  14.685   0.816  12.666
68751W        W41066  22.746  24.487  14.614
68752W        W41067   4.582  12.425  10.480
68753W        W41068  15.279  16.201  14.810
68754W        W41069  36.425  28.153  13.088
68755W        W41070   5.191   8.274  12.876
68756W        W41071  29.574   8.624   4.195
68757W        W41072  23.660  44.946   3.330
68758W        W41073  26.211  10.273  11.108
68759W        W41074  16.435  32.012  12.632
68760W        W41075  38.852  24.252   3.353
68761W        W41076   4.242   3.165   4.064
68762W        W41077   1.857  42.525  13.937
68763W        W41078   1.965  25.994  12.458
68764W        W41079  16.696  20.493  13.127
68765W        W41080  17.759  44.406  11.238
68766W        W41081   5.787   1.952   4.906
68767W        W41082   6.738  24.722  12.407
68768W        W41083  31.446   3.798   2.862
68769W        W41084  15.375  28.502   5.252
68770W        W41085  34.106  19.022   2.007
68771W        W41086  19.957  34.388   0.371
68772W        W41087  32.125  18.719   3.787
68773W        W41088  31.071  22.954  11.530
68774W        W41089   7.886   7.710  11.134
68775W        W41090  37.323  21.217  10.823
68776W        W41091  44.309  44.607  10.096
68777W        W41092  16.000  38.511   0.423
68778W        W41093  40.924   0.043   0.339
68779W        W41094  19.731  29.208  11.567
68780W        W41095  26.449  18.222   3.654
68781W        W41096  11.708  22.205   3.849
68782W        W41097  26.918  18.746   2.127
68783W        W41098  43.002  28.591   0.732
68784W        W41099   8.817   7.847  11.650
68785W        W41100   4.845  28.400  12.403
68786W        W41101  36.822  14.667  10.513
68787W        W41102  31.478   2.046  14.230
68788W        W41103  16.260  31.103   5.379
68789W        W41104  28.228  38.942   2.772
68790W        W41105  12.535  12.298   4.984
68791W        W41106  33.985   7.176  10.619
68792W        W41107  38.203  19.041   0.700
68793W        W41108  36.976  31.536  12.810
68794W        W41109  29.698  37.080   2.349
68795W        W41110   4.285   4.460   1.362
68796W        W41111   9.650   4.766  12.492
68797W        W41112  30.376  33.162  13.284
68798W        W41113  36.406   6.691  11.915
68799W        W41114  21.142  43.997   4.875
68800W        W41115   8.109  12.244  11.906
68801W        W41116  11.189  37.020  11.948
68802W        W41117  13.184  20.861   2.846
68803W        W41118  12.790  31.914  11.694
68804W        W41119  22.630   9.429   4.649
68805W        W41120  19.398  18.517   4.997
68806W        W41121   0.692  26.183   3.730
68807W        W41122  20.020  10.486  10.612
68808W        W41123  37.074  29.111  13.961
68809W        W41124  38.515  25.746  11.443
68810W        W41125   2.941  18.129   4.496
68811W        W41126  17.762  27.057  13.089
68812W        W41127  41.252  24.575  13.953
68813W        W41128  31.590  34.014   2.651
68814W        W41129  31.891  25.136   1.751
68815W        W41130   8.794  18.832  11.779
68816W        W41131  15.552  39.144   4.231
68817W        W41132  14.233  30.043   3.182
68818W        W41133  25.908  21.791  12.863
68819W        W41134  28.181  38.729  10.352
68820W        W41135  42.757  24.473   0.360
68821W        W41136  13.565  41.605  13.967
68822W        W41137  37.487  17.602  14.875
68823W        W41138  10.787  11.764  10.639
68824W        W41139  18.116  24.278  14.407
68825W        W41140  21.177   2.400   2.573
68826W        W41141  37.344  30.389  11.129
68827W        W41142  37.848  28.507  13.934
68828W        W41143  22.422  23.561  13.772
68829W        W41144  29.061  10.733  12.112
68830W        W41145   9.397  13.453   1.667
68831W        W41146   3.235  41.106   1.283
68832W        W41147   0.561  32.405   1.129
68833W        W41148  44.985  36.579   2.169
68834W        W41149  17.732  16.707  13.954
68835W        W41150  26.949  27.488  11.039
68836W        W41151  19.530  35.098  10.559
68837W        W41152  23.988  27.299   0.268
68838W        W41153  24.689   0.834   1.637
68839W        W41154  35.629  44.843   0.712
68840W        W41155  27.695   7.391   4.293
68841W        W41156  14.563  41.543  11.595
68842W        W41157  25.603   1.505   2.351
68843W        W41158   0.288  43.969   0.781
68844W        W41159  30.504  44.742  11.542
68845W        W41160   6.187  25.947   4.203
68846W        W41161   1.773  20.284   4.174
68847W        W41162  42.053  16.509  12.253
68848W        W41163  23.836  34.905   4.796
68849W        W41164  26.708  29.985   1.316
68850W        W41165  20.677  44.764   2.774
68851W        W41166  17.627  38.560   2.007
68852W        W41167   4.322  15.921  13.003
68853W        W41168  38.589  12.115  11.380
68854W        W41169   0.614   0.558  13.839
68855W        W41170  43.849  11.087   1.906
68856W        W41171   5.474   5.304  10.858
68857W        W41172   8.381  42.466   3.383
68858W        W41173  21.812  19.840   5.052
68859W        W41174  18.482  35.448   0.368
68860W        W41175  19.739  32.335   3.762
68861W        W41176   8.718  19.762   1.276
68862W        W41177  16.145  31.055   2.437
68863W        W41178  14.270  20.047   4.776
68864W        W41179  14.895  40.456   4.360
68865W        W41180   2.383  20.311   3.108
68866W        W41181  14.435  12.201   1.126
68867W        W41182  13.289  15.090  14.964
68868W        W41183   1.734  33.407   0.553
68869W        W41184   1.246  12.824   3.716
68870W        W41185  28.064   9.385   3.411
68871W        W41186   8.552   4.539  10.086
68872W        W41187   2.910  11.725   1.307
68873W        W41188  29.348  22.209   2.281
68874W        W41189  44.262  39.427  14.447
68875W        W41190  22.564  20.029  13.741
68876W        W41191  19.077  21.764   2.225
68877W        W41192  37.028   7.382  14.190
68878W        W41193  36.110  13.273  14.304
68879W        W41194  44.238   5.126   4.256
68880W        W41195  34.488   1.797   1.863
68881W        W41196  14.077   6.616  12.850
68882W        W41197  27.219  29.663  11.392
68883W        W41198  39.148  34.020  14.553
68884W        W41199  14.312   2.414   4.489
68885W        W41200   0.449  29.485   0.359
68886W        W41201  25.570  22.060  12.057
68887W        W41202  30.920  39.485   0.661
68888W        W41203  15.041  44.674  12.788
68889W        W41204   4.655  22.656  10.699
68890W        W41205   9.188  43.538   2.706
68891W        W41206  13.709  20.780   4.763
68892W        W41207  38.015  30.423   3.751
68893W        W41208   7.362  43.447  10.617
68894W        W41209  25.837  33.500   2.236
68895W        W41210  36.330  28.596   4.413
68896W        W41211  23.821  27.518   0.711
68897W        W41212  21.590  17.860   2.795
68898W        W41213   0.436  13.240   4.602
68899W        W41214   0.764  30.899  12.175
68900W        W41215  18.482  29.920  13.372
68901W        W41216   6.702  42.041   0.169
68902W        W41217   9.717  22.068   3.687
68903W        W41218  41.742  37.818   4.602
68904W        W41219   2.453  26.611  14.447
68905W        W41220  36.848  33.992  13.710
68906W        W41221  33.270  31.116  10.664
68907W        W41222  34.327   0.192   3.838
68908W        W41223  10.915   8.144   2.717
68909W        W41224  41.651   9.758  12.616
68910W        W41225  27.734  33.907   9.714
68911W        W41226   0.356  34.798  11.370
68912W        W41227  36.040  14.361  14.298
68913W        W41228  16.207  28.909   1.232
68914W        W41229   4.900   2.792   3.754
68915W        W41230  14.232  31.807  11.407
68916W        W41231  41.867   0.773  12.782
68917W        W41232  20.953  31.238  11.084
68918W        W41233   4.158  33.839   0.037
68919W        W41234   0.917  22.291   1.696
68920W        W41235  25.546  24.524   1.285
68921W        W41236   1.288   5.261  11.661
68922W        W41237  35.561  22.298   1.884
68923W        W41238  11.169  44.262   4.159
68924W        W41239  17.581  20.170   1.384
68925W        W41240  28.001  33.161  12.365
68926W        W41241   0.231   8.857  14.338
68927W        W41242  28.609  20.235   1.803
68928W        W41243   5.241   8.676   4.547
68929W        W41244  10.506  17.619   1.421
68930W        W41245  40.106   0.469   0.485
68931W        W41246  22.999  41.728   0.239
68932W        W41247  28.743  43.848   1.031
68933W        W41248  41.263  22.072   0.956
68934W        W41249  15.350  34.018  13.558
68935W        W41250  17.779  44.339   3.150
68936W        W41251   7.829   4.554   3.782
68937W        W41252  34.015  38.435  11.379
68938W        W41253  34.568   5.361   2.273
68939W        W41254  32.160  40.998   4.046
68940W        W41255  15.084  11.845  14.821
68941W        W41256  34.156   9.266   4.109
68942W        W41257  23.729  11.590  14.439
68943W        W41258  34.341  24.036  14.355
68944W        W41259  38.308  12.695   2.542
68945W        W41260  14.862  25.340   3.133
68946W        W41261  41.442  16.858   4.419
68947W        W41262  28.568  18.592   4.687
68948W        W41263   7.721  16.198   3.287
68949W        W41264  26.973  37.096  13.010
68950W        W41265  16.549  26.538   2.901
68951W        W41266  10.963  22.354  14.755
68952W        W41267  13.932   9.924  10.967
68953W        W41268  15.649   7.931   4.968
68954W        W41269  38.388   5.238   2.807
68955W        W41270   4.285  43.475   2.657
68956W        W41271  26.872  19.566  10.422
68957W        W41272   2.798  11.189   4.920
68958W        W41273  24.647  21.524   3.212
68959W        W41274  44.546  36.292   1.417
68960W        W41275  30.082  19.880  14.703
68961W        W41276  21.049  42.055   4.610
68962W        W41277   2.085  19.066  13.821
68963W        W41278  44.091  15.289   0.744
68964W        W41279  42.561  36.573  12.075
68965W        W41280  26.008  21.664  14.342
68966W        W41281  25.060  11.669  14.456
68967W        W41282   2.945  11.983  14.015
68968W        W41283  12.876  23.407   0.056
68969W        W41284  26.631  44.977  14.949
68970W        W41285  16.819   4.914   9.868
68971W        W41286  43.801  11.096  13.793
68972W        W41287  26.909  34.036  13.812
68973W        W41288  29.999  11.354  11.905
68974W        W41289  19.354   6.205  14.445
68975W        W41290   1.331   4.937   2.022
68976W        W41291  24.512  38.291  13.972
68977W        W41292   0.944  37.978   0.601
68978W        W41293  11.049  21.498  10.680
68979W        W41294  14.173   1.707   2.151
68980W        W41295   1.560   1.781  11.592
68981W        W41296  18.190   5.950   0.729
68982W        W41297  16.269  31.900   3.723
68983W        W41298  17.635  18.820   1.004
68984W        W41299   2.809  36.102  11.938
68985W        W41300   7.186  24.756  13.918
68986W        W41301  22.006   3.410  10.650
68987W        W41302  20.686  33.542   4.555
68988W        W41303   3.209  26.017  10.141
68989W        W41304   6.454   2.376  12.906
68990W        W41305  17.248  37.288  13.436
68991W        W41306  39.474   3.257  14.528
68992W        W41307  39.036  10.681   0.877
68993W        W41308   7.127   6.136   1.396
68994W        W41309  34.037  12.239   4.591
68995W        W41310  43.956   5.230   1.370
68996W        W41311  16.520  39.046   5.089
68997W        W41312   7.938  19.637   1.685
68998W        W41313  41.336  31.043   3.038
68999W        W41314  32.938   1.229   1.779
69000W        W41315  41.428   7.891   0.695
69001W        W41316  37.666  14.358   4.244
69002W        W41317  37.252   7.377  13.427
69003W        W41318  30.197  21.597  12.455
69004W        W41319  40.252  19.016  13.042
69005W        W41320  17.091   9.639   1.163
69006W        W41321  30.719  16.736   4.774
69007W        W41322   5.761   7.340  13.415
69008W        W41323  12.175  41.319  13.312
69009W        W41324   5.906   8.361  12.172
69010W        W41325   6.826  43.964   2.637
69011W        W41326  33.783  41.614   3.680
69012W        W41327  20.943  21.184  13.325
69013W        W41328  41.974  43.944  10.961
69014W        W41329   1.887   4.575  13.054
69015W        W41330  10.649  14.563   2.992
69016W        W41331   1.235  31.193   2.700
69017W        W41332  35.613  35.704  12.988
69018W        W41333  42.531  24.173  13.877
69019W        W41334  26.754   0.212  11.803
69020W        W41335   3.806  19.485   3.625
69021W        W41336  37.957  38.815   4.322
69022W        W41337  15.379  14.204   2.756
69023W        W41338   7.827  14.805  11.681
69024W        W41339   3.251  29.657   3.663
69025W        W41340   5.440  13.099   2.921
69026W        W41341  35.851  37.777   0.989
69027W        W41342  13.220  11.048  10.130
69028W        W41343  15.757   2.677   0.297
69029W        W41344  12.759  22.202  11.727
69030W        W41345   1.810  32.408  11.188
69031W        W41346  28.125   8.788  10.217
69032W        W41347  39.043  37.140  10.405
69033W        W41348  26.936  23.749   1.343
69034W        W41349  30.119  36.058  10.798
69035W        W41350  23.761  21.674   5.058
69036W        W41351   6.834   9.710   4.646
69037W        W41352   7.491  12.857  11.022
69038W        W41353  23.127  39.865   3.097
69039W        W41354   1.282  29.496   3.319
69040W        W41355  24.041  15.126   0.943
69041W        W41356  26.415  34.596  11.282
69042W        W41357  41.924  23.039   3.078
69043W        W41358  33.192  35.572   3.445
69044W        W41359  23.133  27.898  10.629
69045W        W41360  34.588  10.496  12.393
69046W        W41361  29.537  41.727   0.718
69047W        W41362  29.154  29.511   4.107
69048W        W41363  42.492   5.838   2.211
69049W        W41364  21.660  27.418   2.680
69050W        W41365  21.233  36.886  14.919
69051W        W41366  30.080  16.673  13.049
69052W        W41367  34.972   1.340   0.248
69053W        W41368  42.239   3.421   0.393
69054W        W41369   8.178  34.131   4.249
69055W        W41370   4.872  11.345  12.987
69056W        W41371  14.089  33.870  13.116
69057W        W41372  10.667  18.311  13.432
69058W        W41373  30.084  13.280  10.909
69059W        W41374  35.955   7.653   3.218
69060W        W41375  43.294  30.784   1.371
69061W        W41376  32.132   7.801  12.483
69062W        W41377   5.109  16.000   0.738
69063W        W41378  10.081  19.085  12.538
69064W        W41379  19.921  30.798  10.769
69065W        W41380   2.969  19.002   3.866
69066W        W41381  12.543  43.750   3.344
69067W        W41382  30.693  40.283  11.980
69068W        W41383  16.300   2.287  10.496
69069W        W41384  31.340  23.616  12.859
69070W        W41385   9.548  42.168  14.006
69071W        W41386  25.526  35.838   3.609
69072W        W41387  43.918  17.250   2.588
69073W        W41388  19.298  29.188   1.753
69074W        W41389  19.033  33.470  10.784
69075W        W41390  16.882  42.397   2.767
69076W        W41391  16.619  32.157   2.493
69077W        W41392  43.047  34.754  10.045
69078W        W41393  44.353   5.628   3.301
69079W        W41394   5.793   9.762   2.494
69080W        W41395  34.410  43.156   5.257
69081W        W41396  29.102   8.289   4.889
69082W        W41397  23.279   1.961   0.408
69083W        W41398  25.238  40.315   2.510
69084W        W41399  20.470  18.747   0.872
69085W        W41400  36.068  35.464  10.738
69086W        W41401  23.275  19.240   9.803
69087W        W41402  24.307  25.568  12.556
69088W        W41403   1.314   1.884  12.909
69089W        W41404  27.350  30.114   1.265
69090W        W41405   8.111  37.459   2.717
69091W        W41406  42.996   5.398  13.857
69092W        W41407   1.346  15.904   1.847
69093W        W41408  20.874  13.645  10.796
69094W        W41409  28.642  25.512  13.321
69095W        W41410  29.751  18.751  10.806
69096W        W41411  42.705  10.828  13.539
69097W        W41412  12.295  40.275   0.832
69098W        W41413  17.352  34.195   1.820
69099W        W41414   5.680   8.855   0.899
69100W        W41415   3.225  38.792  13.764
69101W        W41416  23.472  26.086  11.676
69102W        W41417  18.196  15.321  13.717
69103W        W41418  22.267  13.332  12.467
69104W        W41419  19.801  42.725  13.556
69105W        W41420   0.696   9.930  12.789
69106W        W41421  37.865  15.674  10.878
69107W        W41422  14.246  17.388  14.360
69108W        W41423   1.332   8.439   4.141
69109W        W41424  12.236  20.597  11.516
69110W        W41425   9.071  29.067  14.400
69111W        W41426  29.849  42.378   1.471
69112W        W41427  26.205  15.139  11.282
69113W        W41428  22.167  34.047  14.051
69114W        W41429  40.595  13.659  13.892
69115W        W41430  35.001  40.814  12.288
69116W        W41431  44.146  14.075   0.361
69117W        W41432   7.833  10.329  13.432
69118W        W41433   5.538  23.901  12.679
69119W        W41434  44.786  19.840   1.207
69120W        W41435  32.449   1.285   0.479
69121W        W41436  35.603  33.467   4.682
69122W        W41437  24.277  27.606  12.044
69123W        W41438  25.654  22.436  13.492
69124W        W41439  15.860  30.470   1.280
69125W        W41440  21.822   1.642   1.186
69126W        W41441   2.511  33.777   0.948
69127W        W41442  13.154   6.648   3.190
69128W        W41443  42.371   8.136  13.765
69129W        W41444  35.637  25.560   1.847
69130W        W41445  19.816  35.083   4.713
69131W        W41446   8.486  26.857  11.224
69132W        W41447  12.119  21.498  14.811
69133W        W41448  10.306   0.043   0.259
69134W        W41449  24.413  33.019   3.732
69135W        W41450   1.657  18.817  14.546
69136W        W41451  39.798   7.673  10.636
69137W        W41452  38.776  27.025   1.258
69138W        W41453  40.308   3.481  11.565
69139W        W41454  36.742  23.709  11.140
69140W        W41455  40.940   4.424   4.593
69141W        W41456  44.771   6.713  12.518
69142W        W41457  19.895  32.081   4.900
69143W        W41458  42.838  41.281  12.867
69144W        W41459   0.283  12.679   1.804
69145W        W41460  29.676  31.510  12.623
69146W        W41461  16.614  10.648   4.195
69147W        W41462  36.918  41.563   4.781
69148W        W41463  34.610  27.612   4.194
69149W        W41464  11.752  33.737  10.613
69150W        W41465   8.231   7.889  13.958
69151W        W41466  30.221  21.505  10.637
69152W        W41467  23.451   3.680  14.459
69153W        W41468   3.880  16.058  11.150
69154W        W41469  33.516  33.160   2.861
69155W        W41470  23.422  21.564  14.868
69156W        W41471  43.316  35.510   4.604
69157W        W41472  22.135  35.045   2.691
69158W        W41473  21.564  27.562  10.914
69159W        W41474  18.854   0.530   3.733
69160W        W41475  42.776  22.113  12.005
69161W        W41476  37.399  19.635   3.683
69162W        W41477  37.445  19.766   1.266
69163W        W41478  11.124  26.720  12.805
69164W        W41479  17.991  36.963   2.724
69165W        W41480   8.735  17.308  13.908
69166W        W41481   5.817   1.194  11.145
69167W        W41482  16.736  23.649  13.305
69168W        W41483  39.949  17.855   4.299
69169W        W41484  40.276  35.360   2.884
69170W        W41485  11.870  11.149  12.141
69171W        W41486  33.498  30.509  12.027
69172W        W41487  12.219  27.857  14.299
69173W        W41488   2.809   2.937   3.131
69174W        W41489  27.134  43.870  13.444
69175W        W41490   3.882  15.541   2.910
69176W        W41491   3.655  26.785  14.107
69177W        W41492  23.967  33.123  13.107
69178W        W41493  19.531  15.221   3.725
69179W        W41494  44.303  26.594  11.538
69180W        W41495   7.320  42.369  12.083
69181W        W41496   6.749  21.728   4.750
69182W        W41497   1.984  37.025  11.020
69183W        W41498  29.009  29.997   4.135
69184W        W41499  12.272  25.894  12.168
69185W        W41500   2.897  25.625   1.825
69186W        W41501  26.495  30.548  11.532
69187W        W41502  15.769  29.089  12.161
69188W        W41503  25.011  43.873   3.370
69189W        W41504  42.505   7.188  14.534
69190W        W41505   3.857  19.782   1.660
69191W        W41506  29.459  25.245   0.227
69192W        W41507  43.750  22.524  14.272
69193W        W41508  25.616   0.341   4.647
69194W        W41509  34.348  11.383  10.816
69195W        W41510  35.179  25.179  13.274
69196W        W41511  31.223   1.367   3.784
69197W        W41512   7.278   7.122   4.144
69198W        W41513   7.265  33.748   4.858
69199W        W41514   0.496  39.333   3.033
69200W        W41515  25.873  29.242  11.334
69201W        W41516  20.249  20.996  10.133
69202W        W41517  25.594  31.961   3.742
69203W        W41518  44.327   6.165  10.014
69204W        W41519  16.654  34.619  10.615
69205W        W41520   8.977  33.399   5.073
69206W        W41521  18.145  36.186  13.246
69207W        W41522  20.644  20.275  11.820
69208W        W41523  16.707  18.302   2.353
69209W        W41524  17.725   0.252  13.989
69210W        W41525   4.652  25.083   3.887
69211W        W41526   2.239  31.670  10.896
69212W        W41527  18.335   4.899  11.167
69213W        W41528   9.589  17.686  13.569
69214W        W41529  32.188  27.606  14.376
69215W        W41530  36.682  26.627   1.788
69216W        W41531  21.618  14.778   1.101
69217W        W41532  40.880  17.883  11.918
69218W        W41533  11.698  43.768  11.120
69219W        W41534  23.005  14.308  13.187
69220W        W41535  28.571   8.153  13.092
69221W        W41536  19.515  34.386  13.419
69222W        W41537   2.768  29.897   1.081
69223W        W41538  32.137  25.701   0.959
69224W        W41539  30.546  28.464  14.587
69225W        W41540  13.107  18.549  11.981
69226W        W41541  16.747  37.265  12.904
69227W        W41542  33.061  15.748   4.600
69228W        W41543  27.276  20.987   1.202
69229W        W41544  26.555  15.620  12.403
69230W        W41545   6.678   7.521   1.193
69231W        W41546  39.047  26.623   2.819
69232W        W41547  29.030  25.092  13.973
69233W        W41548  43.310  16.956  10.792
69234W        W41549  27.742   0.053  13.366
69235W        W41550   0.246   6.675  11.189
69236W        W41551  43.102  42.138   0.905
69237W        W41552  24.533  37.377  11.030
69238W        W41553  21.962  38.880  13.348
69239W        W41554  11.572   8.239  13.541
69240W        W41555  44.405   7.106   3.263
69241W        W41556   4.755  21.060   0.850
69242W        W41557   0.096   9.578   0.923
69243W        W41558  41.550  38.511  11.986
69244W        W41559   5.717  27.422   2.834
69245W        W41560  39.330  13.625  11.554
69246W        W41561  19.163  21.447  14.042
69247W        W41562  17.254   1.511   1.861
69248W        W41563  27.256  29.122   4.170
69249W        W41564  37.781  22.721   5.065
69250W        W41565  24.505  35.668   2.194
69251W        W41566  42.574   4.262   4.705
69252W        W41567  39.075   5.392  12.903
69253W        W41568  14.457   6.270   0.288
69254W        W41569  40.875  36.023  14.776
69255W        W41570  21.643  16.082  12.530
69256W        W41571  10.673  22.796  13.137
69257W        W41572  44.883  29.954   2.896
69258W        W41573   9.774  39.135   4.820
69259W        W41574   0.973   8.601   1.257
69260W        W41575  13.278  10.110   2.767
69261W        W41576  35.332  21.906  11.674
69262W        W41577  27.159   0.395  11.558
69263W        W41578  42.811  20.052   3.597
69264W        W41579  22.568   7.368  14.256
69265W        W41580   7.114  24.795   1.380
69266W        W41581  18.555  22.578   2.668
69267W        W41582   5.270   8.877  13.863
69268W        W41583  19.562  39.784  11.904
69269W        W41584   8.311  40.834   2.488
69270W        W41585   0.988  37.438  12.172
69271W        W41586  37.405  13.531  12.984
69272W        W41587  25.473  13.712   3.253
69273W        W41588  41.449  22.544   0.810
69274W        W41589  44.832  29.505   4.493
69275W        W41590  35.571  28.031  13.484
69276W        W41591   9.156  44.065   2.206
69277W        W41592   6.134  15.195  10.642
69278W        W41593   0.420  32.893   1.192
69279W        W41594   0.393  23.239   4.595
69280W        W41595  34.487  32.436   1.225
69281W        W41596  41.617  33.127   2.682
69282W        W41597   2.450  14.052  13.544
69283W        W41598   0.739  35.864  14.917
69284W        W41599  42.547  14.764   3.252
69285W        W41600  41.089  15.635  11.233
69286W        W41601  13.057  20.810   4.149
69287W        W41602  11.849  39.839   2.226
69288W        W41603   0.278  42.124   3.666
69289W        W41604  20.464  30.998   4.658
69290W        W41605  44.412   8.361  14.186
69291W        W41606  31.446  11.771  13.888
69292W        W41607  17.791  43.770  11.597
69293W        W41608  25.664  35.100  11.121
69294W        W41609  29.618  34.761  13.490
69295W        W41610  39.926  20.126  14.811
69296W        W41611  34.117   8.321   2.964
69297W        W41612   4.446  29.157   4.591
69298W        W41613  24.444  30.045  11.516
69299W        W41614  41.364  17.755   4.418
69300W        W41615   7.165  27.318   0.521
69301W        W41616   1.177   8.747   0.810
69302W        W41617   3.917  14.068   0.811
69303W        W41618  41.822  21.046   2.181
69304W        W41619  13.164  38.172  12.455
69305W        W41620  28.150   5.291  10.821
69306W        W41621  12.113  29.559   3.284
69307W        W41622  27.816  43.666  10.031
69308W        W41623  23.682  19.786  14.020
69309W        W41624  36.907  27.889   1.308
69310W        W41625  11.868  25.622   2.561
69311W        W41626   4.713  34.628  11.644
69312W        W41627  17.332  14.320   2.879
69313W        W41628   7.305  20.612   2.028
69314W        W41629  24.012   1.473  12.107
69315W        W41630   4.631  19.989   4.994
69316W        W41631   3.065  15.391   0.474
69317W        W41632  33.149  33.994   4.472
69318W        W41633  20.535   1.309   0.366
69319W        W41634  17.274   2.471   1.929
69320W        W41635  20.787   7.992  14.542
69321W        W41636   5.450  16.477   1.177
69322W        W41637   4.698  20.021  13.368
69323W        W41638  43.898   6.865   2.757
69324W        W41639  34.060  23.233  13.830
69325W        W41640  22.946  39.920  14.171
69326W        W41641  27.479  42.217  12.423
69327W        W41642  31.038  16.092   0.397
69328W        W41643  21.893   0.488  11.988
69329W        W41644  33.578  23.451  12.026
69330W        W41645  35.500   7.225  14.249
69331W        W41646  39.015  17.189  14.564
69332W        W41647  24.057  43.764   3.080
69333W        W41648   6.723  18.036   0.721
69334W        W41649  17.981  30.885   4.701
69335W        W41650  26.616  24.033   1.652
69336W        W41651  36.968   3.505   4.577
69337W        W41652  39.768  14.598  11.489
69338W        W41653  34.753  17.244   2.300
69339W        W41654  34.791  20.625   0.396
69340W        W41655  17.258  34.655  11.400
69341W        W41656  21.512  35.354  11.939
69342W        W41657  36.603  41.006   4.212
69343W        W41658  32.895  38.324   0.667
69344W        W41659  29.212  43.730  12.022
69345W        W41660  17.649   1.417  13.384
69346W        W41661  14.553  29.635   3.326
69347W        W41662  13.757  32.915   1.748
69348W        W41663  19.954  18.011   2.172
69349W        W41664  43.171   8.630   2.914
69350W        W41665  44.251  25.878   1.338
69351W        W41666  12.866  12.788  12.499
69352W        W41667  38.916  13.788  12.628
69353W        W41668  20.697   3.317  10.501
69354W        W41669  37.381   5.686   4.932
69355W        W41670   8.290  26.951  14.425
69356W        W41671  29.954   9.169  14.253
69357W        W41672  12.766  18.206   2.181
69358W        W41673  35.485  11.310  13.049
69359W        W41674   2.396  22.962  11.296
69360W        W41675  41.027  24.289  12.854
69361W        W41676  34.052  41.168   1.293
69362W        W41677  19.198  12.177   4.903
69363W        W41678  33.833   2.891  14.772
69364W        W41679  26.869   0.366   1.342
69365W        W41680  25.138  26.782   2.815
69366W        W41681  10.211  37.902   3.623
69367W        W41682  36.516  36.942   1.926
69368W        W41683  18.430  40.215   0.835
69369W        W41684  17.251  22.031   1.424
69370W        W41685   5.184  41.352  13.901
69371W        W41686  31.841  14.714   3.877
69372W        W41687  21.807  42.002   3.579
69373W        W41688   4.782  18.201  14.753
69374W        W41689  32.103  11.228  10.605
69375W        W41690   2.456  24.216   2.758
69376W        W41691  40.762  20.515   4.115
69377W        W41692  42.761  44.043  12.794
69378W        W41693  41.287  28.136   4.595
69379W        W41694  16.595  19.574   4.588
69380W        W41695   1.301  11.601   5.432
69381W        W41696  36.510  44.434  14.537
69382W        W41697   9.301  24.269  10.945
69383W        W41698  19.118  43.982  12.883
69384W        W41699  20.096  36.668   3.236
69385W        W41700  19.563  41.290  13.931
69386W        W41701  35.423   4.023   4.122
69387W        W41702  30.772  25.204  13.003
69388W        W41703  17.990   0.193  11.445
69389W        W41704  39.462  40.066   3.794
69390W        W41705  38.334  18.247  12.523
69391W        W41706  34.108   0.702  12.493
69392W        W41707  42.904  17.771   1.774
69393W        W41708  26.474   6.838   3.369
69394W        W41709  28.638   8.139   2.471
69395W        W41710  25.177  31.629  12.007
69396W        W41711   5.032  30.803   0.743
69397W        W41712   7.935   1.412   1.757
69398W        W41713  18.618   7.039  11.914
69399W        W41714  39.106   7.280   2.293
69400W        W41715   0.976  41.309  11.171
69401W        W41716  35.890  20.176   0.493
69402W        W41717  24.774  18.091  11.454
69403W        W41718  28.123   0.590  13.865
69404W        W41719   4.765  43.395  12.627
69405W        W41720  27.586  23.933   3.085
69406W        W41721  42.772  29.146  13.442
69407W        W41722  39.398  38.133   2.354
69408W        W41723  40.619  36.890   0.914
69409W        W41724  31.024  12.273   1.123
69410W        W41725  26.218  29.148  14.380
69411W        W41726  23.636   9.180  14.793
69412W        W41727  16.818   6.853  13.254
69413W        W41728  28.769  29.159   2.226
69414W        W41729  41.868  34.409  10.290
69415W        W41730   4.318  26.577   1.155
69416W        W41731  34.499  17.525  12.467
69417W        W41732  10.308  25.603   3.329
69418W        W41733   2.314  11.684   5.147
69419W        W41734  34.033   5.866  13.083
69420W        W41735   4.841  21.308  13.079
69421W        W41736  29.473  16.703   1.703
69422W        W41737  35.649  11.648  13.483
69423W        W41738  28.484  29.874   4.067
69424W        W41739   6.884  24.079   2.566
69425W        W41740  15.081  25.984  14.274
69426W        W41741  44.069  11.872   2.206
69427W        W41742  43.117  30.462   3.102
69428W        W41743  37.348  26.855  14.957
69429W        W41744  29.646  10.714   3.966
69430W        W41745  33.980  22.548  13.359
69431W        W41746  27.453  39.572  12.931
69432W        W41747   4.179  18.802  12.106
69433W        W41748  28.059   5.675   4.794
69434W        W41749   6.002  40.582  10.023
69435W        W41750  28.460  41.907  13.375
69436W        W41751   3.374  44.919  13.509
69437W        W41752  36.986  44.764   1.112
69438W        W41753  13.270  29.814  14.304
69439W        W41754  34.077  31.942  14.060
69440W        W41755  35.483  36.324   4.197
69441W        W41756  14.042  28.970   3.845
69442W        W41757  15.127  14.885  10.566
69443W        W41758  28.047  19.976   1.641
69444W        W41759  10.260  27.020  14.460
69445W        W41760  27.842  25.847   2.849
69446W        W41761   2.750  35.573  11.959
69447W        W41762  15.823  18.521  14.159
69448W        W41763  21.595  36.766   3.213
69449W        W41764  27.695  37.336  14.601
69450W        W41765   9.083  43.628   0.365
69451W        W41766  21.352  24.013  11.035
69452W        W41767  40.366  16.944   4.186
69453W        W41768  18.646   4.234  12.908
69454W        W41769   7.435   9.588   1.973
69455W        W41770   6.465  14.661   3.817
69456W        W41771  42.258  41.309   4.237
69457W        W41772   2.720  31.172  12.048
69458W        W41773  34.231   5.871   0.046
69459W        W41774  29.366  22.240   3.208
69460W        W41775   5.536  41.358   0.015
69461W        W41776  31.425  22.034   0.349
69462W        W41777  36.535   8.674  11.144
69463W        W41778  44.309  19.178   3.686
69464W        W41779   7.575  43.651   3.106
69465W        W41780  41.301  42.695  13.428
69466W        W41781   8.707  23.503   4.504
69467W        W41782  33.932   0.872  14.525
69468W        W41783  44.227  42.725  11.201
69469W        W41784  40.085   6.751   0.267
69470W        W41785  23.968  44.282  14.584
69471W        W41786  15.220   2.876  12.016
69472W        W41787   0.891   4.744  10.187
69473W        W41788  27.008  43.430   1.303
69474W        W41789  27.023   2.901   0.305
69475W        W41790  44.014   2.499  13.742
69476W        W41791  20.785  39.418   1.033
69477W        W41792  24.999  44.894  10.357
69478W        W41793  43.428  25.553  12.438
69479W        W41794  33.098  41.644  12.565
69480W        W41795  15.533  13.192   1.439
69481W        W41796  39.020   2.776  14.528
69482W        W41797  26.505  19.382   1.372
69483W        W41798  26.039  43.511   3.855
69484W        W41799   8.299   7.382  11.060
69485W        W41800  24.741  38.132  12.057
69486W        W41801   2.823  39.190   2.601
69487W        W41802  44.921   5.300   2.401
69488W        W41803  31.218  44.932  14.982
69489W        W41804  24.846  20.295  10.484
69490W        W41805  30.719  26.517   4.317
69491W        W41806  35.497  29.105  10.585
69492W        W41807   3.772  18.183   5.132
69493W        W41808  32.982   1.836  12.481
69494W        W41809  24.578  44.611   1.242
69495W        W41810  18.632  16.806   4.562
69496W        W41811  29.478   7.616   4.240
69497W        W41812  26.140  29.558   4.764
69498W        W41813   5.739  10.616  12.452
69499W        W41814  25.925  34.110   5.147
69500W        W41815  12.764   4.784  14.630
69501W        W41816  13.087   8.258   3.716
69502W        W41817   5.871  28.701  10.677
69503W        W41818   0.681  24.170  13.925
69504W        W41819  24.429  19.578  12.286
69505W        W41820  25.509  28.536  14.915
69506W        W41821  27.577  21.988  13.539
69507W        W41822   6.271  38.503  13.895
69508W        W41823  42.395  22.522   1.304
69509W        W41824  10.906  12.184  10.911
69510W        W41825  37.615  11.646  12.105
69511W        W41826   2.319  36.654  12.555
69512W        W41827   9.300   3.912  11.116
69513W        W41828  21.541  23.817  14.989
69514W        W41829  15.074  42.874  11.071
69515W        W41830  13.348   7.512   2.226
69516W        W41831  40.954  36.830  14.388
69517W        W41832  23.280   6.893  12.227
69518W        W41833  28.718  30.174   2.611
69519W        W41834  39.799  10.315  12.159
69520W        W41835   1.177  39.696  14.465
69521W        W41836  28.155  34.047  13.749
69522W        W41837   0.219  19.616  11.665
69523W        W41838  10.917  28.145   1.748
69524W        W41839   5.833   4.150  12.857
69525W        W41840  25.094  31.072   1.596
69526W        W41841  12.218  16.339   2.291
69527W        W41842   5.496  40.944   0.350
69528W        W41843  31.494  15.315   0.326
69529W        W41844  32.967  23.764  13.433
69530W        W41845  27.620  11.339   3.255
69531W        W41846  19.096  23.286  12.882
69532W        W41847  14.207  23.616  14.526
69533W        W41848   6.982  35.254  13.887
69534W        W41849   7.902  11.996   4.295
69535W        W41850  18.560  16.629  13.541
69536W        W41851  10.906  21.638   2.151
69537W        W41852  21.138  15.117  13.792
69538W        W41853  24.684  23.059  14.453
69539W        W41854   9.303  40.381   0.283
69540W        W41855  41.826  40.393   2.809
69541W        W41856   4.712  37.861   0.847
69542W        W41857  37.542   4.349  11.586
69543W        W41858  22.147  22.314   4.191
69544W        W41859  18.221   0.437  14.510
69545W        W41860  19.098  30.563   4.883
69546W        W41861   0.495   6.360  10.794
69547W        W41862  37.178  10.246   2.480
69548W        W41863  32.673  19.935   1.348
69549W        W41864  31.422  28.191   3.623
69550W        W41865  33.978   8.197   4.616
69551W        W41866  27.670  24.977   0.924
69552W        W41867   2.966  19.686   2.793
69553W        W41868  37.386  11.250  14.402
69554W        W41869   6.889  22.944  14.020
69555W        W41870  25.997  18.122   1.677
69556W        W41871  25.827  39.721   1.223
69557W        W41872  19.256  30.108  11.252
69558W        W41873   4.817  28.152   0.246
69559W        W41874   7.684   1.852   0.255
69560W        W41875   3.094  25.652   2.733
69561W        W41876  13.202  16.208  11.508
69562W        W41877  15.093  43.404  11.058
69563W        W41878  19.245  39.174   4.548
69564W        W41879  12.315  23.700  11.485
69565W        W41880  34.174  24.523  11.354
69566W        W41881  33.340  44.282   4.818
69567W        W41882  43.315  18.962  10.649
69568W        W41883  29.325  34.698  11.142
69569W        W41884  22.456   3.777  10.679
69570W        W41885  18.246  30.509  14.573
69571W        W41886  15.877  26.999  12.871
69572W        W41887  11.351   7.948   0.509
69573W        W41888  22.129  22.598   1.919
69574W        W41889  35.103  30.672  12.951
69575W        W41890   0.706  38.606   2.680
69576W        W41891  11.571  34.416   2.342
69577W        W41892  27.154  13.279   0.487
69578W        W41893  32.469  44.519  11.433
69579W        W41894   0.247  39.951  10.811
69580W        W41895  36.115  44.733   0.840
69581W        W41896  43.041   8.322   2.155
69582W        W41897  30.078  33.062  14.751
69583W        W41898   0.311  19.134   2.378
69584W        W41899  40.337  19.114   0.415
69585W        W41900  32.437  32.493   3.696
69586W        W41901  14.937  26.615   1.879
69587W        W41902   0.496  33.613  14.032
69588W        W41903  11.822  24.458   1.527
69589W        W41904  15.813  14.084   3.638
69590W        W41905   7.924  27.973   3.528
69591W        W41906  33.356   6.875  14.906
69592W        W41907  28.512  27.449   4.893
69593W        W41908  35.513   1.049   4.893
69594W        W41909  18.514   2.787   1.462
69595W        W41910   4.410  24.395  11.051
69596W        W41911  30.462   0.712   3.632
69597W        W41912  11.307  41.269  11.897
69598W        W41913  37.087   3.923   2.852
69599W        W41914  13.298   7.330   4.119
69600W        W41915  19.754  36.076   3.057
69601W        W41916   8.145  43.905  13.635
69602W        W41917   0.598   9.137   5.504
69603W        W41918  31.490   8.230  14.632
69604W        W41919  38.888  35.329   3.110
69605W        W41920   6.758  12.331  14.448
69606W        W41921   6.421  13.779   4.089
69607W        W41922  44.948  21.735  11.960
69608W        W41923  43.264  35.070  10.629
69609W        W41924  27.119  24.991  10.737
69610W        W41925   5.193  22.568  10.672
69611W        W41926   0.734  12.678   3.782
69612W        W41927   2.976  10.592   2.495
69613W        W41928  30.276   3.393  14.466
69614W        W41929   0.117  11.251  14.563
69615W        W41930   5.922  19.211  10.549
69616W        W41931  27.325  41.414   3.834
69617W        W41932  18.680   1.087  14.007
69618W        W41933  22.190  41.967   2.704
69619W        W41934  19.056  14.721  11.561
69620W        W41935   6.694  38.504   3.210
69621W        W41936  24.175  25.775   3.154
69622W        W41937   8.675  37.912  12.548
69623W        W41938  16.706  27.066  10.326
69624W        W41939  30.149  39.724   4.116
69625W        W41940  16.356   2.351   4.200
69626W        W41941  43.137  31.946  11.941
69627W        W41942   6.869   6.360   1.835
69628W        W41943   9.540  42.650  11.539
69629W        W41944  16.783   9.213   1.052
69630W        W41945  30.423  14.567   0.862
69631W        W41946  14.201  34.157  12.707
69632W        W41947  44.993  33.380  12.082
69633W        W41948  22.290  44.787  12.056
69634W        W41949  41.476   4.137  12.483
69635W        W41950  41.211  18.151  13.139
69636W        W41951  28.056   9.133   4.903
69637W        W41952  25.454  19.688  10.644
69638W        W41953  39.492   4.627  12.260
69639W        W41954  19.679  28.403   2.536
69640W        W41955  23.814  27.901   3.695
69641W        W41956  19.984  34.632  13.506
69642W        W41957  32.906  14.067  12.791
69643W        W41958  11.670  17.061  11.970
69644W        W41959  43.274  15.268   0.346
69645W        W41960  36.912   6.149   4.140
69646W        W41961  39.849  22.087  14.469
69647W        W41962  38.887   6.430  13.820
69648W        W41963  29.064  31.047  14.243
69649W        W41964  17.167   7.126   4.081
69650W        W41965   8.813  30.066   0.822
69651W        W41966   8.233  35.870  14.196
69652W        W41967  10.157  34.242  11.438
69653W        W41968  28.051  25.126   2.274
69654W        W41969  43.040  26.456  10.966
69655W        W41970  24.114  32.266   5.150
69656W        W41971   4.891  28.593   0.530
69657W        W41972  32.658  23.919  12.095
69658W        W41973   0.560   3.434  12.436
69659W        W41974  21.710  39.840   2.267
69660W        W41975  43.632   9.194  11.086
69661W        W41976  12.636  22.257  12.973
69662W        W41977  32.172  14.832   2.308
69663W        W41978  15.697  26.566   3.552
69664W        W41979  14.702  24.092  12.441
69665W        W41980  13.578  13.366   4.103
69666W        W41981   0.734  18.835  14.466
69667W        W41982   5.395   0.351  14.458
69668W        W41983  40.341  35.617  11.022
69669W        W41984   9.480  16.866   3.610
69670W        W41985  15.560  43.194  11.106
69671W        W41986  30.168   7.700   3.183
69672W        W41987  12.145   4.344   0.692
69673W        W41988  31.584  31.956  13.275
69674W        W41989  40.206  31.708  12.818
69675W        W41990  34.868  43.310  11.741
69676W        W41991  10.361  13.326   4.092
69677W        W41992  29.085  18.566   4.840
69678W        W41993   7.262  41.612   1.354
69679W        W41994   4.695  27.570  11.416
69680W        W41995  43.457  35.026   3.285
69681W        W41996   1.518  21.528   2.905
69682W        W41997   3.080  32.911  11.944
69683W        W41998  42.726  31.554  14.499
69684W        W41999  44.366  33.868  13.801
69685W        W42000  25.092  43.315   3.367
69686W        W42001  17.618  22.081   3.660
69687W        W42002  27.211  18.325  12.039
69688W        W42003  34.910  37.454   3.596
69689W        W42004  27.908   5.317  12.328
69690W        W42005   8.938   6.938  12.716
69691W        W42006   8.019   2.994   4.155
69692W        W42007   8.777  39.860   4.390
69693W        W42008   7.870  17.025   3.731
69694W        W42009  35.376  36.914  11.564
69695W        W42010  43.344  17.729   0.842
69696W        W42011  27.732  42.007  12.005
69697W        W42012  11.709   0.858  10.691
69698W        W42013  38.447  31.640   1.575
69699W        W42014  25.140  16.448   4.073
69700W        W42015  31.905  32.579   0.398
69701W        W42016   4.602   4.288   0.342
69702W        W42017  18.814  23.494   5.230
69703W        W42018  25.732  21.924   1.756
69704W        W42019  16.255  16.835   1.437
69705W        W42020  37.196  28.109   0.548
69706W        W42021  12.038  31.577  12.574
69707W        W42022  34.384  21.136  14.839
69708W        W42023   7.339  21.200   2.839
69709W        W42024   9.751  23.150   4.791
69710W        W42025  31.681  10.336   0.304
69711W        W42026  28.545   4.101   1.735
69712W        W42027  42.776   3.123   3.618
69713W        W42028  20.774  11.787  12.949
69714W        W42029  29.285  35.557  10.999
69715W        W42030  43.424  13.245  14.798
69716W        W42031  23.974   7.166   1.753
69717W        W42032  10.250   5.527   3.305
69718W        W42033  33.597  13.126   1.890
69719W        W42034   3.859  25.181   1.653
69720W        W42035  35.452  41.547   0.359
69721W        W42036  44.785  25.030  11.470
69722W        W42037  27.883  30.401  12.425
69723W        W42038  41.114  22.278  11.486
69724W        W42039   5.466  42.717   3.254
69725W        W42040  17.472   9.671   5.068
69726W        W42041  14.622  13.788  14.508
69727W        W42042  38.968  12.170  12.101
69728W        W42043  44.891   0.476  11.461
69729W        W42044  11.317  44.063  10.568
69730W        W42045   9.458  26.604  13.552
69731W        W42046   8.190   2.684   4.939
69732W        W42047  12.108  12.937   0.737
69733W        W42048  39.887   5.597   1.687
69734W        W42049   1.720  21.521  12.972
69735W        W42050  28.017  35.498   4.637
69736W        W42051  42.748  20.990  13.961
69737W        W42052   8.699  16.690   3.275
69738W        W42053  38.388   8.293   4.489
69739W        W42054   1.869  35.295  14.899
69740W        W42055  39.602  32.952  13.768
69741W        W42056  17.347   7.929   3.644
69742W        W42057  10.617  16.722  10.178
69743W        W42058   9.645   4.802  13.468
69744W        W42059  27.516   4.717  14.052
69745W        W42060  29.242  41.983  13.086
69746W        W42061   2.825   1.911  11.069
69747W        W42062  36.363  33.457  13.356
69748W        W42063  25.992   3.280  11.612
69749W        W42064  38.162  21.209   3.670
69750W        W42065  36.618  15.213   0.211
69751W        W42066  15.703   0.697  12.702
69752W        W42067  14.663  17.707  13.803
69753W        W42068  31.983  37.971  14.704
69754W        W42069   6.320  13.843   1.961
69755W        W42070  30.339   6.269   3.203
69756W        W42071  34.582  24.496  14.454
69757W        W42072  42.395  36.068  12.541
69758W        W42073  37.046  16.546   3.715
69759W        W42074  38.506  17.466   4.677
69760W        W42075  28.139  31.260  12.366
69761W        W42076  34.826  14.653   0.618
69762W        W42077   3.145  26.101   3.309
69763W        W42078  14.831  30.533   0.774
69764W        W42079  43.886  24.751   4.361
69765W        W42080  10.884  24.679   4.460
69766W        W42081  19.254  13.895   2.722
69767W        W42082  44.300  24.576  13.802
69768W        W42083  40.786  26.541   1.879
69769W        W42084  13.847  41.992  12.897
69770W        W42085  41.491  11.429  11.965
69771W        W42086  41.485  12.113  13.794
69772W        W42087  23.238  23.399   1.911
69773W        W42088  32.083   4.012   1.654
69774W        W42089  20.143  11.835  10.705
69775W        W42090  42.331  11.720   3.911
69776W        W42091  35.512  15.575   3.188
69777W        W42092  20.142  21.191  14.260
69778W        W42093  40.873   1.249   4.380
69779W        W42094  21.998  34.973   1.657
69780W        W42095  29.972   8.269   4.354
69781W        W42096   2.321  35.973   4.111
69782W        W42097  18.600  44.317   1.389
69783W        W42098   6.356   5.900  12.845
69784W        W42099   9.281   5.911   0.460
69785W        W42100  13.808  11.379  14.928
69786W        W42101  40.782  26.188  13.350
69787W        W42102   1.311  26.668  12.561
69788W        W42103   2.840   4.495   0.869
69789W        W42104  14.517  15.714  14.909
69790W        W42105  26.506  28.831   2.264
69791W        W42106  20.290  23.637   4.592
69792W        W42107  21.626  30.853   0.254
69793W        W42108   2.926  36.762  14.653
69794W        W42109  44.758  32.742   2.303
69795W        W42110  18.409  18.964   0.143
69796W        W42111  22.168  30.366   4.856
69797W        W42112   8.382  42.957   1.003
69798W        W42113  16.073   8.702  11.219
69799W        W42114  36.632  42.138  12.562
69800W        W42115  12.519  10.708  11.499
69801W        W42116   8.385  27.048   4.696
69802W        W42117  14.014  38.011   1.280
69803W        W42118  30.620  13.911  14.299
69804W        W42119  22.726  36.647  13.482
69805W        W42120  26.626  29.715  11.197
69806W        W42121  31.464  37.639   2.067
69807W        W42122  19.483   0.809  13.754
69808W        W42123  23.086  19.654   1.928
69809W        W42124  35.985   0.474   1.333
69810W        W42125  18.603  37.964  14.466
69811W        W42126  18.268  12.797   1.491
69812W        W42127  21.568   3.781  11.157
69813W        W42128  38.450  31.183  11.215
69814W        W42129  29.985   1.364  10.961
69815W        W42130  26.640  37.113   1.577
69816W        W42131  43.867  11.151   0.185
69817W        W42132  10.851  16.736   1.758
69818W        W42133  42.503   0.193   1.997
69819W        W42134  11.282  12.047  11.267
69820W        W42135  41.387  18.270  11.552
69821W        W42136  22.638  31.014   3.102
69822W        W42137  15.842  29.516  12.507
69823W        W42138  10.281  18.475   3.790
69824W        W42139  31.100  34.631   2.318
69825W        W42140  41.368  27.020   3.790
69826W        W42141  10.884  31.416   2.843
69827W        W42142  24.162  33.371  11.607
69828W        W42143  12.117  16.082  12.571
69829W        W42144  40.043   0.553  13.848
69830W        W42145  12.102   9.369   4.037
69831W        W42146   8.702  30.565   3.749
69832W        W42147  38.584  16.066  13.499
69833W        W42148  28.923  25.998   0.098
69834W        W42149  20.887   7.319   4.935
69835W        W42150  21.796  24.987  13.710
69836W        W42151  30.505   5.273   0.741
69837W        W42152  37.095  20.338   0.009
69838W        W42153  19.283  43.041   1.583
69839W        W42154   0.386   0.820  14.257
69840W        W42155  24.159  31.558  10.657
69841W        W42156   3.832  36.028   2.808
69842W        W42157  35.932   9.883  14.260
69843W        W42158   8.180   4.275  12.536
69844W        W42159  27.948   7.039   1.397
69845W        W42160   7.162  43.815   1.286
69846W        W42161  17.133   0.444   4.061
69847W        W42162  30.752  35.848   2.891
69848W        W42163  30.378  21.823  13.097
69849W        W42164  32.163  25.228   4.169
69850W        W42165   2.188  33.561   3.273
69851W        W42166  20.052  31.139   2.531
69852W        W42167  14.676  10.209  12.960
69853W        W42168  36.400  17.945   2.759
69854W        W42169   0.268  19.130  13.837
69855W        W42170   9.177  29.995  11.586
69856W        W42171  40.971  29.086   2.738
69857W        W42172  16.624  32.479   2.928
69858W        W42173  24.599  22.311  12.718
69859W        W42174  16.134  11.734  10.594
69860W        W42175   5.948  38.950  13.934
69861W        W42176  11.295  26.108   2.147
69862W        W42177   0.693  18.880  11.819
69863W        W42178  42.301  35.242   0.203
69864W        W42179   6.788   5.660   4.769
69865W        W42180  15.090  30.124   5.130
69866W        W42181  24.052  17.655   2.828
69867W        W42182  42.004  15.786   5.028
69868W        W42183  36.089  26.236   4.101
69869W        W42184  12.461  38.427  13.162
69870W        W42185  34.431  19.803  13.506
69871W        W42186  44.381  29.417  14.248
69872W        W42187   2.390   1.809   1.416
69873W        W42188  11.706  31.872  12.909
69874W        W42189   1.134   6.162  14.827
69875W        W42190  38.760  26.748   1.826
69876W        W42191   0.401   3.647  11.438
69877W        W42192   5.109  20.102   1.196
69878W        W42193  17.725  11.110  13.625
69879W        W42194  36.527  33.474   3.239
69880W        W42195   0.679  19.848   2.600
69881W        W42196  41.429   9.193  14.331
69882W        W42197  36.176  22.622   4.031
69883W        W42198   1.741   2.127  13.146
69884W        W42199  41.770  43.451   3.319
69885W        W42200  24.977  12.186   1.613
69886W        W42201  11.270  19.183  14.800
69887W        W42202  33.074  22.065  11.491
69888W        W42203  17.579  39.422  12.208
69889W        W42204  22.249   2.387   3.630
69890W        W42205  31.105  22.269   3.718
69891W        W42206  29.636  31.494   0.864
69892W        W42207  37.979  13.731  13.874
69893W        W42208  35.354  20.971  12.580
69894W        W42209  21.661  25.419  13.490
69895W        W42210   2.978   4.388  14.835
69896W        W42211   2.535  37.273   2.704
69897W        W42212  16.830  40.884   9.847
69898W        W42213  41.035  29.986   0.541
69899W        W42214  31.135  38.026  10.584
69900W        W42215  26.385   9.966   1.188
69901W        W42216  13.030  10.783  11.514
69902W        W42217  39.000  36.399  14.816
69903W        W42218   6.751  25.662  10.503
69904W        W42219  34.224  12.071   1.768
69905W        W42220  12.179  23.310  13.833
69906W        W42221   1.427  12.688  11.431
69907W        W42222   0.461  40.856  14.109
69908W        W42223  34.383  16.614  13.985
69909W        W42224  27.841  41.489   3.721
69910W        W42225   4.792  39.312  14.953
69911W        W42226  36.058  29.970  11.880
69912W        W42227  37.532  20.010   4.835
69913W        W42228  16.561  11.273   1.867
69914W        W42229  31.070   6.258  11.489
69915W        W42230  25.099  24.989  14.791
69916W        W42231  19.069  10.892   2.238
69917W        W42232  31.746  31.939  10.231
69918W        W42233  35.362  34.605   4.816
69919W        W42234  14.764  11.550   3.823
69920W        W42235   9.828  35.622  12.391
69921W        W42236  36.978  42.083   3.222
69922W        W42237  44.047  25.936   0.453
69923W        W42238  25.500  32.281   9.850
69924W        W42239  36.937  11.875  13.866
69925W        W42240  18.545   9.759   1.146
69926W        W42241   3.729  10.971   1.882
69927W        W42242  16.634  40.411  11.128
69928W        W42243  44.568   5.848   4.617
69929W        W42244   8.786   0.908   2.051
69930W        W42245   8.885  44.253   4.224
69931W        W42246  11.071   3.436  12.539
69932W        W42247  25.290  23.662   3.374
69933W        W42248  41.639  24.740   3.497
69934W        W42249  42.926  42.232  10.912
69935W        W42250  10.239  21.637  13.348
69936W        W42251  34.130  16.216   0.945
69937W        W42252   6.342  42.255   1.723
69938W        W42253   9.706   1.269   4.263
69939W        W42254  10.875   0.985  12.505
69940W        W42255  21.697  36.961   1.797
69941W        W42256  15.062  43.038   1.835
69942W        W42257  41.582  36.266  13.000
69943W        W42258  32.914  38.261   4.744
69944W        W42259  44.921  28.345   2.190
69945W        W42260  37.286  32.842  12.433
69946W        W42261  25.244  19.230   0.921
69947W        W42262   5.851  27.520  13.927
69948W        W42263   7.651  18.286  14.747
69949W        W42264  25.963  41.736   1.356
69950W        W42265  30.218  41.706   4.829
69951W        W42266  40.121   0.652   3.875
69952W        W42267   0.718  25.473  12.560
69953W        W42268  16.752  37.759   1.641
69954W        W42269  31.992  14.293   2.280
69955W        W42270  15.876  35.035   3.237
69956W        W42271  41.177  24.513  11.075
69957W        W42272  19.033  13.117   4.283
69958W        W42273  39.245  34.452  13.678
69959W        W42274  26.004   8.412   1.902
69960W        W42275  14.298  41.396   0.277
69961W        W42276  19.250  29.633  10.575
69962W        W42277   7.748  13.377  14.823
69963W        W42278  24.137   8.608  10.439
69964W        W42279  34.147  26.692  13.118
69965W        W42280   5.685   2.804   0.509
69966W        W42281   9.192  12.165   2.678
69967W        W42282  24.601  24.444   1.301
69968W        W42283  26.583  11.008  11.474
69969W        W42284  32.950  25.656   4.204
69970W        W42285   0.410  30.589  10.599
69971W        W42286   6.148  27.407  12.716
69972W        W42287  35.442   0.023  14.313
69973W        W42288   8.451  27.215  11.999
69974W        W42289  29.959   3.213  14.876
69975W        W42290  32.200  28.744  12.154
69976W        W42291   9.872   9.144   2.204
69977W        W42292  10.781  42.005   3.619
69978W        W42293   2.443  16.371  11.121
69979W        W42294  20.638  13.818  14.080
69980W        W42295  26.184  21.712   2.754
69981W        W42296   3.986  18.306   0.276
69982W        W42297   5.200  12.966   0.943
69983W        W42298  18.611   5.439  13.708
69984W        W42299  37.889  43.390   2.170
69985W        W42300  30.007  25.146   0.907
69986W        W42301  12.690  32.420   0.024
69987W        W42302  34.071  17.773  12.708
69988W        W42303  19.526  23.197   2.267
69989W        W42304  43.043   2.739   3.368
69990W        W42305   9.864   0.298   0.100
69991W        W42306  31.103   6.908  14.909
69992W        W42307  26.715  18.119   0.352
69993W        W42308  25.470  35.770  14.861
69994W        W42309  26.626   1.469   4.216
69995W        W42310  16.612  24.916   1.404
69996W        W42311   0.092  32.620   0.875
69997W        W42312   6.926   6.390  11.107
69998W        W42313   7.861  32.546  14.763
69999W        W42314  16.524  16.025   2.563
70000W        W42315  15.061  19.187  11.835
70001W        W42316  27.977   0.259   2.146
70002W        W42317  27.221   6.509   4.036
70003W        W42318   1.712  43.198   1.798
70004W        W42319   4.720   7.686  12.467
70005W        W42320   2.892  21.637  14.494
70006W        W42321  15.225   8.717  13.063
70007W        W42322  38.913  28.748  13.016
70008W        W42323  22.038   0.314  13.330
70009W        W42324   4.474  25.596  13.405
70010W        W42325   7.781  11.849   0.409
70011W        W42326  17.679  38.954  12.379
70012W        W42327  19.602   5.493  13.967
70013W        W42328  13.353  21.234   0.943
70014W        W42329  11.057  36.535  13.535
70015W        W42330  11.493  40.588  14.024
70016W        W42331  22.441  36.358  13.147
70017W        W42332   2.378   8.976  10.867
70018W        W42333  40.548  39.553  11.151
70019W        W42334  23.057  27.673  12.546
70020W        W42335  37.123  44.592   1.742
70021W        W42336  12.316   8.223   4.784
70022W        W42337  14.184  30.588   4.422
70023W        W42338  13.345  11.286  12.806
70024W        W42339  29.401  22.776  12.537
70025W        W42340   0.886  30.499   3.133
70026W        W42341  21.302  31.214   5.063
70027W        W42342  35.004  18.587  13.481
70028W        W42343  21.681   5.749  10.509
70029W        W42344  17.276  44.481   0.728
70030W        W42345  42.414  44.098  12.065
70031W        W42346  13.878  11.678  13.518
70032W        W42347  12.576  18.723   0.230
70033W        W42348  22.516  23.536   5.479
70034W        W42349  24.086  38.992  11.433
70035W        W42350  34.992  16.211  12.007
70036W        W42351  37.984  10.698   4.531
70037W        W42352  31.472  29.211  12.580
70038W        W42353   0.977  13.856  12.768
70039W        W42354  44.009   4.886   3.858
70040W        W42355   1.487   5.698   4.686
70041W        W42356  21.205  38.129  11.724
70042W        W42357  25.971   8.936  10.754
70043W        W42358  26.124  44.435  10.479
70044W        W42359  24.919  19.102  13.442
70045W        W42360  22.929  14.781   3.303
70046W        W42361  18.616   2.985   4.212
70047W        W42362  12.139  35.294   2.181
70048W        W42363   0.875  37.578  14.451
70049W        W42364   3.339  15.840  12.950
70050W        W42365   5.933  32.557  10.790
70051W        W42366  15.095  41.291  11.020
70052W        W42367  30.393  42.918   1.729
70053W        W42368   6.106  23.567   2.400
70054W        W42369  34.037  34.621  12.491
70055W        W42370  37.622   4.329  11.076
70056W        W42371  13.801  21.297   1.222
70057W        W42372  10.299  28.214  10.621
70058W        W42373  38.628  11.325  13.473
70059W        W42374  34.891  24.053  10.909
70060W        W42375  38.796  29.827   2.402
70061W        W42376  42.560  14.728  12.047
70062W        W42377  32.545   2.813  13.279
70063W        W42378  44.405  37.276  11.620
70064W        W42379  16.121  15.205  14.477
70065W        W42380  42.417  13.717  12.582
70066W        W42381  18.690  30.606   2.636
70067W        W42382  33.563  23.214  11.572
70068W        W42383  16.707  19.220  14.933
70069W        W42384   4.424  42.900  12.197
70070W        W42385  26.082  21.231   3.788
70071W        W42386  12.200  29.106  10.356
70072W        W42387   6.848   5.006   3.198
70073W        W42388  32.973  25.152  13.175
70074W        W42389  36.243  29.041   3.106
70075W        W42390  16.258  44.278   4.849
70076W        W42391   3.318  18.283   3.229
70077W        W42392  13.167  16.312   2.991
70078W        W42393   2.092  36.112  14.876
70079W        W42394  12.084   2.399   2.481
70080W        W42395  19.198   2.038  13.346
70081W        W42396  10.196  10.769   4.798
70082W        W42397  14.753  10.965   1.358
70083W        W42398   7.277  10.522   4.655
70084W        W42399   2.945  21.265   9.958
70085W        W42400  32.927  17.276  12.938
70086W        W42401  21.224  42.346   0.479
70087W        W42402  37.772  36.425  13.526
70088W        W42403  41.465   9.866   1.035
70089W        W42404  15.135  20.140  13.744
70090W        W42405  26.777  42.416   0.278
70091W        W42406  44.428  32.964   3.806
70092W        W42407  41.855  37.622   0.936
70093W        W42408  37.256  17.488  11.603
70094W        W42409  36.495  20.719  12.611
70095W        W42410  30.953  36.254  14.766
70096W        W42411  27.624   1.314  12.284
70097W        W42412  15.005  18.302   3.242
70098W        W42413  28.516  13.233  13.350
70099W        W42414  20.735  10.235   1.722
70100W        W42415  25.036  36.200  11.470
70101W        W42416  17.990  43.669  13.990
70102W        W42417   9.094  42.847  11.057
70103W        W42418   4.323   8.411  14.692
70104W        W42419   2.796   7.769  14.123
70105W        W42420  29.470  19.096  13.311
70106W        W42421  14.810  29.114  13.049
70107W        W42422  33.815  27.518   1.293
70108W        W42423  37.870  39.363  14.028
70109W        W42424  40.781  21.150  13.343
70110W        W42425  15.747  34.021  14.992
70111W        W42426   8.841  15.159  11.879
70112W        W42427   8.705  20.215   3.814
70113W        W42428  44.049  14.141  11.999
70114W        W42429   0.584   4.379   2.452
70115W        W42430  16.431  41.234  12.913
70116W        W42431  38.267   7.073  13.196
70117W        W42432   8.794  33.964  11.555
70118W        W42433  37.513   4.870   1.859
70119W        W42434  14.079  44.943   1.904
70120W        W42435  12.830  42.110  11.116
70121W        W42436  10.477  32.080   2.251
70122W        W42437  31.511  16.855  11.123
70123W        W42438   0.370  27.433   1.349
70124W        W42439   1.403  23.645  14.070
70125W        W42440  41.922  41.215   2.694
70126W        W42441  24.459  27.648  13.872
70127W        W42442  44.478  41.907  10.750
70128W        W42443   6.755   6.432  10.634
70129W        W42444   6.235   0.200  10.181
70130W        W42445  11.417   9.240   0.902
70131W        W42446  16.332  34.552   3.034
70132W        W42447  11.375  23.127  14.238
70133W        W42448  29.974  24.964   3.273
70134W        W42449   0.823  17.041   4.699
70135W        W42450  18.990   5.360   2.239
70136W        W42451  29.661   9.274   3.703
70137W        W42452  38.350   0.914   2.230
70138W        W42453  24.912   0.685  14.100
70139W        W42454   6.269  14.826   4.251
70140W        W42455  30.049  11.886   0.880
70141W        W42456  32.132   4.331  12.436
70142W        W42457   0.248  36.266   5.588
70143W        W42458  14.627  20.050   2.085
70144W        W42459  29.173  27.396   3.711
70145W        W42460   0.223  36.111   1.794
70146W        W42461  18.742  15.985   3.253
70147W        W42462   2.397  31.443  13.802
70148W        W42463  26.094  15.550  12.966
70149W        W42464  27.453  29.242   2.702
70150W        W42465  20.960  34.635   3.649
70151W        W42466  21.224  43.774   3.271
70152W        W42467  28.190  12.812  11.109
70153W        W42468  40.854  25.867  12.106
70154W        W42469   4.242  31.716   0.962
70155W        W42470  40.336  42.582  11.956
70156W        W42471  44.018  36.250  12.315
70157W        W42472  20.727  30.698  14.786
70158W        W42473  43.825   1.757   1.135
70159W        W42474  42.886   0.003  10.506
70160W        W42475  38.910   8.949  12.055
70161W        W42476  24.931  43.309   0.322
70162W        W42477   1.789   5.212   2.776
70163W        W42478  35.576  32.809   4.398
70164W        W42479  25.326  26.527   4.516
70165W        W42480   6.804   2.811   4.770
70166W        W42481   5.743  42.176   4.965
70167W        W42482  26.734  29.226  11.335
70168W        W42483   9.182   8.885   0.954
70169W        W42484  34.897  29.530   4.138
70170W        W42485  37.360  27.654  12.164
70171W        W42486  36.437   5.649  11.073
70172W        W42487   9.831   3.969   0.375
70173W        W42488   2.836  41.129  13.453
70174W        W42489  35.339   8.512   0.672
70175W        W42490  25.145  23.230  13.439
70176W        W42491  34.666  42.031   1.892
70177W        W42492   1.800  36.099   9.837
70178W        W42493   4.813  22.709  13.363
70179W        W42494   7.435   1.672   0.677
70180W        W42495  30.982  15.451  11.444
70181W        W42496  33.960  15.706  10.690
70182W        W42497  43.753  10.697  11.978
70183W        W42498  41.910  23.194   4.109
70184W        W42499  13.173  43.035  10.275
70185W        W42500  13.773  43.755  11.944
70186W        W42501  34.919   4.709   0.471
70187W        W42502   4.062  35.431   0.932
70188W        W42503   5.743  20.770  13.980
70189W        W42504  18.764  42.941   0.696
70190W        W42505   2.842  28.031   0.204
70191W        W42506  38.719  37.824   3.650
70192W        W42507   9.748  12.099  13.634
70193W        W42508   7.828  32.517   4.455
70194W        W42509   4.272  19.448   0.773
70195W        W42510  25.115  41.282   0.456
70196W        W42511  44.767  42.962   0.065
70197W        W42512   4.517  18.235   0.205
70198W        W42513  13.835  13.204  10.689
70199W        W42514  15.572  24.269   0.336
70200W        W42515  19.892  40.814  11.969
70201W        W42516  16.693  40.102   2.341
70202W        W42517   2.400   5.585  11.051
70203W        W42518   2.736  39.398   1.299
70204W        W42519   4.292  23.203   4.651
70205W        W42520  39.979  28.173  14.809
70206W        W42521  33.464  17.537   2.867
70207W        W42522   6.345  40.032   4.510
70208W        W42523  35.590  31.917   0.876
70209W        W42524  36.521  13.159   0.270
70210W        W42525   0.886  25.526   5.202
70211W        W42526  20.557  33.554  12.432
70212W        W42527  25.969  44.934  10.648
70213W        W42528  23.511  31.901   0.973
70214W        W42529  24.724  16.648   1.732
70215W        W42530   8.828  22.682  12.941
70216W        W42531  36.394  39.584  13.452
70217W        W42532  20.513  12.739  12.445
70218W        W42533  26.098   0.429   0.234
70219W        W42534   4.474  24.596  14.562
70220W        W42535  14.742  26.881   1.477
70221W        W42536  23.126   4.710  12.604
70222W        W42537  22.271  17.739   2.327
70223W        W42538  28.804  35.770  11.013
70224W        W42539  34.591  17.811  13.543
70225W        W42540  18.326  29.963  10.466
70226W        W42541  26.653  31.311  14.442
70227W        W42542  30.427  28.884  12.032
70228W        W42543  25.698  13.844   1.279
70229W        W42544  44.295  20.727   1.221
70230W        W42545  21.407  41.208  11.626
70231W        W42546  44.635  12.028   1.742
70232W        W42547  36.056  38.351  11.207
70233W        W42548  23.162   3.977   3.199
70234W        W42549  10.390   3.527  13.860
70235W        W42550  37.436  17.053   2.734
70236W        W42551  22.303  29.897   0.768
70237W        W42552  28.980  41.144   1.756
70238W        W42553  15.239  31.489  10.873
70239W        W42554  36.077  35.392  11.244
70240W        W42555  40.927  17.118   4.307
70241W        W42556   3.943  25.114   4.614
70242W        W42557  16.118  44.459  13.371
70243W        W42558  27.871   1.016   3.797
70244W        W42559  19.075   1.964   3.596
70245W        W42560  18.596  28.678   4.533
70246W        W42561  25.574   7.352   3.235
70247W        W42562  23.506  41.330  12.528
70248W        W42563  42.505  19.961   1.823
70249W        W42564  24.536  17.105  14.394
70250W        W42565  43.405   2.659   1.247
70251W        W42566  30.510   5.456   2.841
70252W        W42567  11.319  17.816   4.667
70253W        W42568  37.297  20.193   0.474
70254W        W42569   5.139  12.720   2.009
70255W        W42570  38.575  23.641  11.535
70256W        W42571  19.733   4.709  12.941
70257W        W42572  12.330   7.733   4.989
70258W        W42573  13.235   8.656   0.090
70259W        W42574  16.756   3.250  10.604
70260W        W42575   3.265  14.587   4.532
70261W        W42576  38.585  38.278  13.499
70262W        W42577  28.601  30.699  13.754
70263W        W42578   6.966  10.212   1.444
70264W        W42579  32.347  38.371  12.915
70265W        W42580  19.159  21.273  12.926
70266W        W42581  17.636  40.252   4.568
70267W        W42582  43.958  10.725   4.133
70268W        W42583  21.491   0.932  14.040
70269W        W42584  10.337  26.144   4.693
70270W        W42585  18.146  15.539   2.188
70271W        W42586  33.411   1.497  12.481
70272W        W42587  34.227  39.378   1.472
70273W        W42588  31.373   3.080  11.027
70274W        W42589  13.069  43.556  13.468
70275W        W42590  28.502  31.458  12.051
70276W        W42591  12.299  13.237  10.753
70277W        W42592  11.263  11.698  13.470
70278W        W42593  30.577  31.985   0.262
70279W        W42594   9.762   0.931  13.340
70280W        W42595  36.314  13.556  11.599
70281W        W42596  17.993  26.613  14.292
70282W        W42597  18.966  24.688   3.634
70283W        W42598   9.442  27.465  14.928
70284W        W42599  35.937  26.584   3.689
70285W        W42600  30.398  37.205   3.668
70286W        W42601  13.475  18.374   3.159
70287W        W42602  41.950   9.533   3.240
70288W        W42603  16.180  10.796   0.756
70289W        W42604  17.491  26.503   2.790
70290W        W42605  29.821  12.181  12.067
70291W        W42606  11.688  38.446   2.880
70292W        W42607  28.863   5.967  13.902
70293W        W42608   7.884  18.204  12.910
70294W        W42609  39.504   6.324  14.896
70295W        W42610  30.119  26.578  11.627
70296W        W42611  23.572  44.394   4.575
70297W        W42612  29.695  20.924   4.967
70298W        W42613  15.495  25.804   4.242
70299W        W42614   7.983  41.268  10.362
70300W        W42615  17.695  39.542  10.415
70301W        W42616  11.283  18.877   5.484
70302W        W42617  43.326  15.625  13.274
70303W        W42618  19.111  40.539  11.953
70304W        W42619   4.621  37.962   4.622
70305W        W42620  32.496  31.875  13.477
70306W        W42621   5.772  44.017   3.413
70307W        W42622  30.613  39.972   4.814
70308W        W42623  15.614  40.397   1.888
70309W        W42624  25.141  19.649   0.244
70310W        W42625  24.119  14.220  14.764
70311W        W42626  13.403  24.501   4.099
70312W        W42627  10.630   9.240   0.610
70313W        W42628  14.136   4.201  11.188
70314W        W42629  12.155  20.615  13.415
70315W        W42630   4.757  34.119   1.935
70316W        W42631  20.076  16.723   4.773
70317W        W42632  23.984  37.067   3.633
70318W        W42633  28.494  37.252   2.952
70319W        W42634  27.167   4.911  12.920
70320W        W42635   2.971  43.756  12.483
70321W        W42636  14.694   4.407  13.556
70322W        W42637  39.273  15.541   5.142
70323W        W42638  18.660  28.405  12.611
70324W        W42639  36.842  25.796  10.209
70325W        W42640  23.201   3.740  13.625
70326W        W42641  41.573   5.713  11.996
70327W        W42642  19.191  28.874   0.800
70328W        W42643  11.197   4.988  14.971
70329W        W42644  44.831  37.979  10.699
70330W        W42645  18.229   8.456   2.192
70331W        W42646  13.579   1.463   2.872
70332W        W42647  18.285  30.638   5.054
70333W        W42648  20.192  29.462  14.081
70334W        W42649  13.662  14.285  10.644
70335W        W42650  13.087  21.222  12.783
70336W        W42651  35.320  23.078   2.370
70337W        W42652  21.695  19.951   2.273
70338W        W42653  41.066  38.954   4.737
70339W        W42654   7.422   8.499   0.817
70340W        W42655   5.669  34.794  13.982
70341W        W42656   3.977  42.302  13.305
70342W        W42657   1.338  17.705  11.643
70343W        W42658  18.634  27.478   0.706
70344W        W42659  26.569  10.878   4.813
70345W        W42660  13.782   7.201   4.467
70346W        W42661   6.274   7.642   3.323
70347W        W42662  19.566  34.868   2.765
70348W        W42663  42.285  37.136  11.955
70349W        W42664   8.914  42.373  12.319
70350W        W42665  36.418  29.341  14.804
70351W        W42666  19.568  24.314   4.308
70352W        W42667   5.616  17.774  14.446
70353W        W42668  35.116   7.889   0.346
70354W        W42669  42.424  23.536   0.408
70355W        W42670  18.217   3.199  14.470
70356W        W42671  41.898  20.973   1.679
70357W        W42672  14.344  41.086   2.345
70358W        W42673  26.993  24.293   4.452
70359W        W42674  32.183  21.305  12.940
70360W        W42675  10.099  31.537   4.155
70361W        W42676   0.335  30.394   4.400
70362W        W42677  12.370  31.483   3.262
70363W        W42678  44.938  37.549   3.187
70364W        W42679   6.883  26.003   3.019
70365W        W42680   1.494   0.431  12.841
70366W        W42681  44.769  14.230   4.573
70367W        W42682   4.902   6.471  10.002
70368W        W42683  44.179  21.688  10.429
70369W        W42684  43.983   1.828  13.462
70370W        W42685  39.360  22.167   1.016
70371W        W42686  33.543  33.144  14.821
70372W        W42687  36.305  37.332  11.531
70373W        W42688  18.345   3.886  11.047
70374W        W42689   3.259   6.750   0.455
70375W        W42690   6.778  30.759  10.755
70376W        W42691  42.864  35.317   0.849
70377W        W42692   4.711  18.183   3.466
70378W        W42693  20.518  42.468   0.205
70379W        W42694  11.752  24.116   3.747
70380W        W42695  33.970   2.975   4.137
70381W        W42696  16.728  23.050  11.454
70382W        W42697  17.805  29.178  13.461
70383W        W42698  38.641  23.084   3.751
70384W        W42699  16.268  33.308   1.365
70385W        W42700  44.195  16.208  13.930
70386W        W42701   3.830  10.672  12.120
70387W        W42702   2.404  25.613  14.965
70388W        W42703  28.263   2.627   0.965
70389W        W42704  20.118  43.003  13.266
70390W        W42705  38.596  19.982   4.141
70391W        W42706  35.490  22.766   4.351
70392W        W42707   0.625  39.030  14.060
70393W        W42708  15.235   2.972   0.664
70394W        W42709  22.688   6.504   3.971
70395W        W42710  31.659  30.430  12.944
70396W        W42711   2.868  24.060  10.405
70397W        W42712  10.106  18.063   2.672
70398W        W42713  17.821  26.997  13.586
70399W        W42714  16.037  44.235   0.329
70400W        W42715  32.145  37.039  13.224
70401W        W42716  35.127  40.327   2.859
70402W        W42717  29.118   2.600   0.199
70403W        W42718  22.711  30.590   3.404
70404W        W42719  44.790  19.505  13.060
70405W        W42720  33.678  40.875   0.382
70406W        W42721  25.110  15.174   4.636
70407W        W42722  22.194   4.172   2.750
70408W        W42723   4.630  43.349   2.280
70409W        W42724  41.869  25.585   0.084
70410W        W42725  39.635   9.273   4.652
70411W        W42726  37.424  39.613  14.731
70412W        W42727  37.730  43.386  13.390
70413W        W42728  33.394  39.506  13.993
70414W        W42729  14.779  30.891  14.974
70415W        W42730  21.088   3.948  14.366
70416W        W42731   1.514  16.027   2.311
70417W        W42732  34.067  30.817   0.867
70418W        W42733  40.602  29.642  12.615
70419W        W42734  36.859  43.225   2.263
70420W        W42735  36.956  33.169   3.215
70421W        W42736  23.112  37.348   0.663
70422W        W42737  18.555   2.270   2.771
70423W        W42738  17.560  13.511   1.438
70424W        W42739  19.179  25.721  10.936
70425W        W42740   1.515  44.360  14.585
70426W        W42741   1.971  38.763  12.049
70427W        W42742  30.985  44.814   3.892
70428W        W42743  43.952  43.475   4.502
70429W        W42744   0.281   5.861  10.929
70430W        W42745  13.445  28.455  11.456
70431W        W42746  21.204  30.053   0.810
70432W        W42747   1.250  34.504  11.926
70433W        W42748  13.663  27.625   0.781
70434W        W42749  41.620  12.593  13.974
70435W        W42750  18.616  11.310   9.518
70436W        W42751   7.370  31.348  12.891
70437W        W42752  32.331   7.509  11.162
70438W        W42753  21.007  29.621   1.076
70439W        W42754  18.108   0.974  12.812
70440W        W42755  16.162  33.025   3.582
70441W        W42756   2.688  24.743   2.808
70442W        W42757  39.419   4.102  13.382
70443W        W42758   1.703  33.963   2.904
70444W        W42759  40.619   3.727   4.267
70445W        W42760   2.797  21.292  14.863
70446W        W42761  16.223  35.382   0.015
70447W        W42762  40.623  25.829   2.339
70448W        W42763  24.459   7.355  13.869
70449W        W42764  16.179  30.910  12.252
70450W        W42765  22.724  28.651  13.483
70451W        W42766   6.673  11.369  13.225
70452W        W42767   5.918  15.535  12.938
70453W        W42768   8.359   8.935   3.593
70454W        W42769  28.162  43.388   0.397
70455W        W42770  22.504   4.987  10.180
70456W        W42771  20.158  38.879   2.364
70457W        W42772   5.190  44.956   0.215
70458W        W42773  11.049   5.472  12.421
70459W        W42774  41.847  35.011   0.156
70460W        W42775   8.216  40.014  13.590
70461W        W42776  33.134  38.105  11.125
70462W        W42777   1.951  21.379  11.571
70463W        W42778  37.429  22.097  10.688
70464W        W42779   1.094   9.755   5.012
70465W        W42780   8.859  23.122   0.525
70466W        W42781  36.377   3.758   0.792
70467W        W42782  27.408  28.581   3.643
70468W        W42783  33.488  20.108  10.437
70469W        W42784   1.027  36.134   4.584
70470W        W42785  25.436  13.729  12.080
70471W        W42786   8.379  44.058  14.556
70472W        W42787  26.995  10.939   4.506
70473W        W42788  33.875  16.785  12.264
70474W        W42789  20.562  25.166  14.531
70475W        W42790  44.343   0.425  11.230
70476W        W42791  36.331   6.854  13.926
70477W        W42792  36.347  17.641   4.708
70478W        W42793  21.182   6.892  11.237
70479W        W42794  32.510  22.763   1.356
70480W        W42795  31.680   4.160  14.405
70481W        W42796  13.886  36.993   3.644
70482W        W42797  37.264  27.109   4.824
70483W        W42798  18.017  32.376  11.978
70484W        W42799  35.051  39.914  11.573
70485W        W42800  39.202  22.887  11.829
70486W        W42801  42.811  12.094  11.987
70487W        W42802  20.454  36.608   2.425
70488W        W42803  33.474  44.044   2.394
70489W        W42804  28.950  35.241   1.206
70490W        W42805   8.171  19.014   0.543
70491W        W42806  38.535  21.037  10.233
70492W        W42807   8.225  31.088   3.351
70493W        W42808   2.416  21.561  14.279
70494W        W42809   2.672  12.433  10.194
70495W        W42810  28.569  38.697   0.892
70496W        W42811  43.835   3.760  14.962
70497W        W42812  42.553  11.811   2.207
70498W        W42813  42.041  24.594  14.783
70499W        W42814  32.352  32.572  12.998
70500W        W42815  31.137  12.355   3.670
70501W        W42816   1.721  44.807   1.762
70502W        W42817  16.171  25.062   1.647
70503W        W42818  39.510  43.025  13.846
70504W        W42819  37.560  42.342  12.109
70505W        W42820  24.943  31.439  14.616
70506W        W42821  38.884  11.479  12.359
70507W        W42822  18.263  15.649  12.234
70508W        W42823  16.074  22.114  10.081
70509W        W42824  37.297  33.365  10.647
70510W        W42825  14.386  18.986   3.657
70511W        W42826  20.760  13.144   3.292
70512W        W42827  31.199  42.632  12.162
70513W        W42828   9.203  30.677  14.860
70514W        W42829  38.350  14.765  13.480
70515W        W42830   6.342  44.099   4.195
70516W        W42831  10.916  42.903   0.669
70517W        W42832   8.345  17.252  13.065
70518W        W42833  21.746  41.036   1.866
70519W        W42834  44.333  17.655  12.652
70520W        W42835  35.573  28.741  12.004
70521W        W42836  16.187  41.501   0.398
70522W        W42837  34.873  16.959   1.787
70523W        W42838  14.889  11.235  12.961
70524W        W42839  18.620  39.048  10.558
70525W        W42840  43.783   2.829  13.334
70526W        W42841  13.764  44.001  13.363
70527W        W42842  10.116  14.091   3.706
70528W        W42843  32.605  14.982   0.463
70529W        W42844  19.257  10.965  11.572
70530W        W42845  18.322  39.989   1.669
70531W        W42846  41.289   8.738  12.974
70532W        W42847  37.618   1.610  14.974
70533W        W42848  16.084  28.538   0.868
70534W        W42849  29.113  36.501   3.860
70535W        W42850   6.892  36.296   0.769
70536W        W42851  32.230  40.179   2.569
70537W        W42852   1.690   3.458  10.479
70538W        W42853   4.672  36.394  13.545
70539W        W42854  17.251   2.001   1.750
70540W        W42855  15.759  31.580   4.637
70541W        W42856  35.078  26.679  14.836
70542W        W42857   6.699  16.167   4.571
70543W        W42858  13.529   5.003  11.058
70544W        W42859  41.781   5.023  12.529
70545W        W42860  39.555  37.650  14.345
70546W        W42861  16.574  26.016  11.882
70547W        W42862   9.153   3.016  10.573
70548W        W42863  31.079  16.753   4.368
70549W        W42864  17.175   8.629  14.179
70550W        W42865   6.872  36.963   1.886
70551W        W42866   6.180  17.178   3.996
70552W        W42867  15.117  24.658  10.344
70553W        W42868  17.067  17.208   4.078
70554W        W42869  16.023  23.754   0.866
70555W        W42870  14.244  20.125   4.271
70556W        W42871  34.437   6.439   3.299
70557W        W42872  12.270  25.914  13.550
70558W        W42873  10.210  15.311  14.113
70559W        W42874   1.169  18.760   0.871
70560W        W42875  33.966  42.998   5.047
70561W        W42876  29.050  12.465   4.545
70562W        W42877  24.323  30.222  13.871
70563W        W42878  20.193  39.762   0.665
70564W        W42879  20.186   4.167   0.344
70565W        W42880  25.191   5.844   3.561
70566W        W42881   1.902  14.985   3.729
70567W        W42882   7.660   9.443  10.646
70568W        W42883   6.101  40.511   2.124
70569W        W42884  36.509  25.089   1.156
70570W        W42885  36.428   8.024  14.770
70571W        W42886  29.007   2.695   3.429
70572W        W42887   5.896   7.658   4.484
70573W        W42888  35.127  35.866   3.364
70574W        W42889  32.052   5.462  11.615
70575W        W42890  24.552  38.330  11.111
70576W        W42891  13.579  43.838   0.857
70577W        W42892   4.945   7.679   4.121
70578W        W42893  24.670  21.786   2.738
70579W        W42894   4.710   4.695  11.959
70580W        W42895  28.919  17.545  13.864
70581W        W42896   6.187   8.375  11.696
70582W        W42897   2.840  25.273  11.298
70583W        W42898   6.362  23.454  11.491
70584W        W42899  27.537   5.019   1.271
70585W        W42900  14.437   5.787  14.025
70586W        W42901  31.548  39.316   3.767
70587W        W42902  40.744   6.175  14.400
70588W        W42903  24.660  16.113  12.980
70589W        W42904   7.400  32.401  12.188
70590W        W42905  12.629   7.684   0.916
70591W        W42906  43.534  40.063  11.119
70592W        W42907  16.354   3.249  12.931
70593W        W42908  40.770  20.529   1.705
70594W        W42909  17.487  13.788   1.879
70595W        W42910  16.717  25.456   3.666
70596W        W42911  21.631  32.115  12.502
70597W        W42912  18.170  17.335   2.429
70598W        W42913  18.542   5.736   3.664
70599W        W42914  35.344   9.354  11.923
70600W        W42915   7.259  31.913  12.049
70601W        W42916  43.980  12.415   9.850
70602W        W42917  13.287   7.349  10.621
70603W        W42918   2.345  33.575  10.480
70604W        W42919  40.363  15.609   4.176
70605W        W42920   4.904   9.207  10.956
70606W        W42921  13.191  11.835   1.413
70607W        W42922  12.759  20.868  12.973
70608W        W42923  32.528  27.716   0.433
70609W        W42924  43.373  22.742   2.440
70610W        W42925  37.419   1.424  14.340
70611W        W42926  20.970  26.580  11.109
70612W        W42927  44.844  38.556   4.559
70613W        W42928  16.486  17.330  14.115
70614W        W42929  41.103  25.625   4.971
70615W        W42930   4.291   4.569   1.877
70616W        W42931   2.199   4.960  12.323
70617W        W42932  42.298   9.366   0.389
70618W        W42933  34.655  33.010   2.292
70619W        W42934   4.886  40.541   1.234
70620W        W42935   4.649  15.255   2.108
70621W        W42936  20.871  25.989   1.278
70622W        W42937  40.114  23.555   3.029
70623W        W42938  23.017  26.882  14.500
70624W        W42939  34.922  21.779  12.485
70625W        W42940   0.033   8.907   5.012
70626W        W42941  16.165  20.056  12.152
70627W        W42942  34.582  26.180   1.413
70628W        W42943  24.491  28.659   2.395
70629W        W42944  29.194   9.672  11.966
70630W        W42945  28.880  36.475  10.829
70631W        W42946  30.996  12.878  11.632
70632W        W42947  13.325  16.766  12.288
70633W        W42948  22.966  15.433  11.690
70634W        W42949  20.097  10.676   1.361
70635W        W42950  13.227  30.533   2.832
70636W        W42951  33.834  31.911   2.855
70637W        W42952   9.280  25.183   4.219
70638W        W42953  32.630  20.589  14.861
70639W        W42954  34.872  26.041   1.820
70640W        W42955  40.115  43.882  10.676
70641W        W42956  39.173  11.252  11.987
70642W        W42957   6.600  44.976   1.274
70643W        W42958   4.402  12.199   2.430
70644W        W42959  26.081   4.383   3.643
70645W        W42960  26.507  22.712   3.586
70646W        W42961  16.414   9.260  12.302
70647W        W42962  28.995  31.908   3.613
70648W        W42963  23.483  21.815   0.316
70649W        W42964  11.197  30.269  14.487
70650W        W42965   4.183   6.359  12.293
70651W        W42966   9.850  44.496   0.752
70652W        W42967   0.372   6.225   3.744
70653W        W42968  40.268  16.859   0.857
70654W        W42969   4.746  21.711  13.482
70655W        W42970   8.552  42.820   2.288
70656W        W42971  26.628  32.438   3.855
70657W        W42972   4.501   4.191   2.243
70658W        W42973  25.670  18.045   4.187
70659W        W42974  39.882  15.652  14.812
70660W        W42975  22.617   3.188   2.333
70661W        W42976  35.627  30.307   0.031
70662W        W42977  18.236   9.996   2.474
70663W        W42978  31.401  27.870   2.271
70664W        W42979  38.062   5.899   1.657
70665W        W42980   5.795  21.700   1.247
70666W        W42981   2.309   1.786   2.828
70667W        W42982  21.167   5.822   4.971
70668W        W42983  19.096  37.502  12.773
70669W        W42984  18.346  33.984  14.627
70670W        W42985  40.326  13.348   3.328
70671W        W42986  24.679  42.378  11.792
70672W        W42987  15.885   4.892   3.685
70673W        W42988  26.506  33.142   2.637
70674W        W42989  32.582   2.404  11.539
70675W        W42990   5.805   0.388  13.027
70676W        W42991  17.152   0.890   1.831
70677W        W42992  22.585   7.346   4.545
70678W        W42993  12.921  39.004  13.517
70679W        W42994  37.023  41.808  12.603
70680W        W42995  40.378  33.342   3.125
70681W        W42996   4.692  27.083   3.354
70682W        W42997  33.298  39.478   0.281
70683W        W42998   1.223   9.913   2.871
70684W        W42999  20.188  31.997  13.881
70685W        W43000   5.402  38.422  11.970
70686W        W43001  40.775   9.574  14.877
70687W        W43002  22.812  43.465  12.017
70688W        W43003  16.732   2.354  10.784
70689W        W43004  19.749  27.960  12.511
70690W        W43005  27.660  11.627  13.905
70691W        W43006  23.053  27.956  11.503
70692W        W43007  30.678  26.527  12.107
70693W        W43008  11.617  34.171  10.823
70694W        W43009   6.826   0.703   3.169
70695W        W43010  12.300  19.604  12.653
70696W        W43011  36.142   2.804   0.765
70697W        W43012  21.282   2.432  11.690
70698W        W43013  11.132  41.834   2.880
70699W        W43014  27.678  19.990   2.856
70700W        W43015  36.547  16.843   1.091
70701W        W43016   1.542   4.509   3.188
70702W        W43017  14.726   0.283   1.378
70703W        W43018  34.691  23.515  12.563
70704W        W43019  13.712   7.923   1.178
70705W        W43020  44.928  26.156   3.299
70706W        W43021   8.193  33.312   0.070
70707W        W43022   4.428  37.026  12.455
70708W        W43023  44.111  34.900   5.034
70709W        W43024   4.716  17.120  11.853
70710W        W43025  34.604   2.519   1.319
70711W        W43026  28.247   7.785   1.826
70712W        W43027  27.909  22.092  13.936
70713W        W43028   7.709  43.922  13.931
70714W        W43029  27.657  43.492  10.515
70715W        W43030  23.897  32.144   0.722
70716W        W43031  11.854  32.391  12.839
70717W        W43032   0.413  11.759   1.827
70718W        W43033  10.839  20.593   1.356
70719W        W43034  30.745  37.603  11.933
70720W        W43035   1.008  10.346  12.734
70721W        W43036   1.503   2.485  14.850
70722W        W43037  25.555  29.833  14.386
70723W        W43038  36.268   5.385  11.487
70724W        W43039   1.790  21.234   0.826
70725W        W43040  41.945   4.770  10.737
70726W        W43041  40.044  31.143  14.710
70727W        W43042  10.910  30.383  14.919
70728W        W43043   7.637  29.330  12.295
70729W        W43044  38.494  24.163  11.555
70730W        W43045   9.841  37.501  11.784
70731W        W43046  20.235  41.288   3.353
70732W        W43047  40.043  34.552   2.270
70733W        W43048  34.487  23.819   0.539
70734W        W43049  27.646  36.309  13.852
70735W        W43050  43.709  22.776   3.064
70736W        W43051  22.409   5.309  14.725
70737W        W43052  44.741  22.698   0.285
70738W        W43053  17.563  42.387  12.028
70739W        W43054   0.902  19.342  14.537
70740W        W43055  23.494  39.530   2.431
70741W        W43056  24.541  31.606   3.355
70742W        W43057  14.822  15.290  14.835
70743W        W43058  33.391  34.233  14.153
70744W        W43059  43.628  18.848   3.239
70745W        W43060   2.337  36.416  12.065
70746W        W43061  28.227  31.367  11.386
70747W        W43062  44.238   6.920   2.360
70748W        W43063   6.757  15.113  14.920
70749W        W43064  25.770  23.277   0.711
70750W        W43065  15.373  25.061   1.390
70751W        W43066  31.387  18.228   4.737
70752W        W43067  15.679  12.271  14.421
70753W        W43068  37.805  19.876  14.343
70754W        W43069   1.472  38.543   0.798
70755W        W43070  34.584  43.801  10.969
70756W        W43071  26.643  23.088  10.686
70757W        W43072  31.502  42.283  14.327
70758W        W43073   4.391  10.349   1.354
70759W        W43074  30.582  30.758   2.660
70760W        W43075  20.053  41.497   2.911
70761W        W43076  14.186  22.511   2.762
70762W        W43077   7.737   7.344   4.970
70763W        W43078  12.002  18.923   5.121
70764W        W43079  26.060  23.624  12.314
70765W        W43080  43.222  37.862   4.110
70766W        W43081  20.425  18.123   3.802
70767W        W43082  18.449  26.546  13.380
70768W        W43083  43.957  28.446  11.680
70769W        W43084  36.352  28.813   4.878
70770W        W43085  35.857  31.962  11.531
70771W        W43086  30.413  39.798  13.975
70772W        W43087  30.195  32.322   1.877
70773W        W43088   2.848  37.412  12.510
70774W        W43089  37.742  23.855  14.316
70775W        W43090  44.846   9.867   9.558
70776W        W43091  37.944   0.894  11.229
70777W        W43092  11.883   2.906  14.096
70778W        W43093  22.069  37.351  12.400
70779W        W43094  29.502  26.084   4.781
70780W        W43095   5.720  27.870   1.822
70781W        W43096  14.615   2.996   2.341
70782W        W43097   7.262   8.731   1.451
70783W        W43098  36.448   9.299  12.612
70784W        W43099   8.140   6.861  11.571
70785W        W43100  28.446  17.181   1.920
70786W        W43101  23.291  38.929   2.204
70787W        W43102  16.509  31.460  10.066
70788W        W43103  28.005  39.879   1.289
70789W        W43104  15.217  28.058  13.111
70790W        W43105  27.966  33.332   0.011
70791W        W43106  15.439   9.862  14.498
70792W        W43107  38.376  27.134  14.826
70793W        W43108  15.756   9.979   1.326
70794W        W43109   5.164   8.934   1.823
70795W        W43110  15.232  26.697  10.528
70796W        W43111  24.298  15.497   1.218
70797W        W43112  21.276  15.937   3.128
70798W        W43113  42.845  41.311   3.444
70799W        W43114  43.439  24.463   2.103
70800W        W43115   5.514  20.722   0.573
70801W        W43116  20.091  30.709  13.093
70802W        W43117  18.973  20.996   3.358
70803W        W43118  42.467  15.643  10.437
70804W        W43119   6.871  13.823   3.793
70805W        W43120   8.209  16.678  11.952
70806W        W43121   7.436   9.130   1.732
70807W        W43122   5.821  36.816   3.339
70808W        W43123  38.044  18.073  10.322
70809W        W43124   7.257   6.945  11.394
70810W        W43125  30.507  39.517  13.460
70811W        W43126  30.323   1.460   4.073
70812W        W43127  20.769  15.400  12.565
70813W        W43128  21.222  20.257  14.218
70814W        W43129  42.791  32.415   0.973
70815W        W43130  11.262  35.329  14.050
70816W        W43131  40.366  26.402   1.072
70817W        W43132  13.230  27.038   4.042
70818W        W43133  22.788  38.450  14.417
70819W        W43134  36.053  31.265   2.724
70820W        W43135  22.795  31.280  14.521
70821W        W43136  42.339  20.124  13.807
70822W        W43137  39.743  17.589  10.647
70823W        W43138   2.356  24.733   3.818
70824W        W43139  34.338  27.158   3.005
70825W        W43140  22.519  11.654  14.763
70826W        W43141  43.709  35.962   4.183
70827W        W43142  23.522  24.105   4.713
70828W        W43143  38.372   1.340  10.623
70829W        W43144  41.689  19.024   3.235
70830W        W43145  10.382   3.359   2.397
70831W        W43146  30.214  37.770  14.385
70832W        W43147  17.592  25.601   1.738
70833W        W43148  23.042   8.170   2.007
70834W        W43149  41.514  36.592  11.985
70835W        W43150  29.668  23.683  11.870
70836W        W43151  21.302  20.019   1.447
70837W        W43152  15.234   9.664   4.635
70838W        W43153  19.608  24.774  14.349
70839W        W43154   2.042  18.700  14.189
70840W        W43155  26.966  14.223   4.560
70841W        W43156   2.881  35.284   0.347
70842W        W43157   9.583  19.561  14.439
70843W        W43158  35.995   8.948   4.543
70844W        W43159  17.600  42.807  13.015
70845W        W43160  21.602  27.528  10.401
70846W        W43161   1.196  34.947   3.291
70847W        W43162   6.399  44.726  11.497
70848W        W43163  24.925  42.521  12.817
70849W        W43164  40.129  21.078  14.542
70850W        W43165  28.216   2.957  12.965
70851W        W43166   4.130  37.850  11.582
70852W        W43167   4.441  41.891  10.701
70853W        W43168  26.886   7.973  14.372
70854W        W43169  18.135  18.151  14.733
70855W        W43170  41.707   7.790  10.354
70856W        W43171   4.251  18.823   3.546
70857W        W43172  42.025  12.974   2.966
70858W        W43173   5.910  24.443  11.964
70859W        W43174  16.877  21.460   3.397
70860W        W43175   3.570   6.637  11.527
70861W        W43176  19.217  15.153  13.418
70862W        W43177  16.741  25.579  13.343
70863W        W43178   3.877  21.667   4.543
70864W        W43179  19.722  40.002   4.618
70865W        W43180  12.387  36.988   0.994
70866W        W43181  12.634  42.840   0.506
70867W        W43182  17.445  20.788   4.300
70868W        W43183  44.440  28.412   2.341
70869W        W43184  12.205   2.154   3.893
70870W        W43185  12.635   1.366  12.373
70871W        W43186  40.535  44.013   5.046
70872W        W43187   6.245   1.675   2.726
70873W        W43188   7.013  25.782  14.099
70874W        W43189  28.927  18.154   3.420
70875W        W43190  44.971   0.398   0.890
70876W        W43191  21.330   3.409  13.045
70877W        W43192  34.867   2.243   4.490
70878W        W43193  16.897  24.485   1.247
70879W        W43194  13.757  21.989   3.233
70880W        W43195  43.857  22.549   3.528
70881W        W43196   0.936  19.144  12.626
70882W        W43197  20.166  27.714   2.164
70883W        W43198  12.828  36.041   4.372
70884W        W43199  12.860  18.996  13.448
70885W        W43200  38.433  30.924  13.467
70886W        W43201  27.709  22.785   0.261
70887W        W43202  18.143  11.527  12.068
70888W        W43203  12.816  17.548  13.282
70889W        W43204  41.331  37.609  11.859
70890W        W43205  17.408   9.142  12.427
70891W        W43206  42.100   6.928   0.502
70892W        W43207  23.964  38.186   2.753
70893W        W43208  43.440   5.320   1.256
70894W        W43209  13.194  20.104  14.985
70895W        W43210   6.436   5.718   2.096
70896W        W43211  38.030  15.227   0.153
70897W        W43212  15.255   8.874   1.724
70898W        W43213  14.093   4.514   3.344
70899W        W43214  30.197  39.209   4.076
70900W        W43215  17.375  42.523   2.804
70901W        W43216  12.183  34.219   3.902
70902W        W43217  33.184  12.768  13.397
70903W        W43218  12.652  14.704  13.132
70904W        W43219  18.789  31.324  12.436
70905W        W43220  16.978   0.523  13.405
70906W        W43221  34.245  33.644   1.930
70907W        W43222   8.746  41.354  14.902
70908W        W43223  27.403  40.530  13.754
70909W        W43224   1.811  30.223  13.856
70910W        W43225  24.469  21.451  14.490
70911W        W43226  27.434  37.091   3.343
70912W        W43227  32.142  37.035  11.379
70913W        W43228   9.780  14.739  14.065
70914W        W43229  29.468  44.975   4.234
70915W        W43230  24.181   2.893  14.237
70916W        W43231  12.273  16.095   2.740
70917W        W43232  43.819  25.541  14.638
70918W        W43233  25.655   3.881  14.798
70919W        W43234  15.459  14.483   3.258
70920W        W43235  27.206  10.647  14.582
70921W        W43236  29.976   5.938   1.247
70922W        W43237  28.717   2.911  12.905
70923W        W43238  20.225  39.571   3.622
70924W        W43239  21.490  29.503   4.637
70925W        W43240   0.513  44.982   4.380
70926W        W43241  22.318  12.773  12.833
70927W        W43242  10.705   7.738   4.182
70928W        W43243  22.116  32.841  12.068
70929W        W43244  13.329   0.333  11.024
70930W        W43245  42.043  11.814   2.102
70931W        W43246   5.929  28.925  14.936
70932W        W43247  24.239  36.946  13.601
70933W        W43248  43.443   8.450  12.890
70934W        W43249  36.947  35.946  13.566
70935W        W43250   1.182   9.229   2.434
70936W        W43251  31.729   2.846  11.948
70937W        W43252  35.506   1.567  12.112
70938W        W43253  38.822   7.597   4.254
70939W        W43254   4.921  27.107   2.326
70940W        W43255  24.123  27.283   1.292
70941W        W43256   9.924  16.724  10.568
70942W        W43257   2.426  34.597   0.010
70943W        W43258  39.966   1.893  12.068
70944W        W43259  25.020  36.369   1.450
70945W        W43260  38.915  42.990   1.949
70946W        W43261  25.707  19.129   1.842
70947W        W43262  34.795  25.737  11.102
70948W        W43263  38.315  12.329   4.823
70949W        W43264  37.735  34.000   0.338
70950W        W43265   3.835  28.162   2.929
70951W        W43266  10.185  39.546  14.059
70952W        W43267  26.133  22.665  12.903
70953W        W43268  40.604   4.669  14.813
70954W        W43269  15.713   9.865   4.791
70955W        W43270  28.509  25.210  13.889
70956W        W43271  38.549  35.026  12.696
70957W        W43272  18.721  15.033   0.292
70958W        W43273  41.748   3.491   1.291
70959W        W43274  14.038  36.797  13.952
70960W        W43275  37.919  21.250   1.482
70961W        W43276  22.765   3.522   3.693
70962W        W43277   1.324  20.460  14.411
70963W        W43278  28.937   5.752   4.815
70964W        W43279  14.407  39.326   2.747
70965W        W43280  28.541  32.256  12.368
70966W        W43281   5.195  16.092   2.681
70967W        W43282  20.538   6.666   0.784
70968W        W43283   9.165  24.675   4.213
70969W        W43284  26.154  40.299  13.118
70970W        W43285   0.244  19.629   1.159
70971W        W43286   9.368   4.763   0.335
70972W        W43287  30.727  20.982  12.936
70973W        W43288  18.837  40.285  11.584
70974W        W43289  13.388  11.263   3.703
70975W        W43290   1.777   4.348  11.744
70976W        W43291  20.725  43.041   2.837
70977W        W43292  27.610   1.643  12.681
70978W        W43293  27.916  44.655  11.151
70979W        W43294   1.417  33.470   1.586
70980W        W43295  26.579  20.500   2.280
70981W        W43296  16.805  44.100  10.690
70982W        W43297   3.643  40.754   4.700
70983W        W43298   3.151   5.221  12.453
70984W        W43299  14.220  25.718   1.091
70985W        W43300  28.662   1.703  12.094
70986W        W43301  23.260  18.756  13.749
70987W        W43302  38.903  32.216   3.665
70988W        W43303  17.517  41.834   4.931
70989W        W43304  36.070   8.729   0.492
70990W        W43305  43.013  35.495  14.314
70991W        W43306  10.357   9.579  13.993
70992W        W43307  36.329   3.372  11.646
70993W        W43308   3.123   7.448   1.900
70994W        W43309  44.939  22.227  12.862
70995W        W43310   2.435  21.150   3.744
70996W        W43311  27.000  33.040   2.171
70997W        W43312   9.902  30.376   4.284
70998W        W43313  30.869  22.099   3.185
70999W        W43314  41.543   1.215   2.644
71000W        W43315   1.117   3.934   0.400
71001W        W43316   3.422  37.774   3.377
71002W        W43317  11.313   3.875  14.261
71003W        W43318  38.981  21.102  13.912
71004W        W43319  31.589  42.604  13.025
71005W        W43320   4.719   0.130  10.535
71006W        W43321   4.425  15.250  14.708
71007W        W43322  24.928  27.477  13.970
71008W        W43323  18.712  12.077   4.159
71009W        W43324  17.604  26.186  13.128
71010W        W43325   9.443   2.311  14.285
71011W        W43326  31.979  18.012   3.153
71012W        W43327   8.315   1.018   3.310
71013W        W43328  32.043  30.648   2.509
71014W        W43329   6.867  10.088  10.169
71015W        W43330  28.756  35.547  13.327
71016W        W43331  16.660  22.698  10.532
71017W        W43332  26.463  40.203  13.537
71018W        W43333  14.554  20.899   2.153
71019W        W43334  16.768  27.174   1.785
71020W        W43335  31.112  16.716  13.347
71021W        W43336  17.158  35.617   4.464
71022W        W43337  16.303   3.842   0.164
71023W        W43338  30.949  41.363   4.475
71024W        W43339  18.987  18.857   1.722
71025W        W43340  34.696  31.047   1.695
71026W        W43341  42.006   7.940   3.029
71027W        W43342  32.688  10.132  14.423
71028W        W43343  11.378  13.344   1.797
71029W        W43344   1.232  14.213   3.729
71030W        W43345  10.740  14.129  13.799
71031W        W43346   8.285   3.329  12.423
71032W        W43347  20.983  41.389   0.935
71033W        W43348   6.453  43.996  12.147
71034W        W43349  24.911  30.497  10.860
71035W        W43350  42.473  21.600  14.846
71036W        W43351   9.312   9.224  10.749
71037W        W43352   6.936  29.618   0.732
71038W        W43353  24.014   8.000   3.715
71039W        W43354   9.650  26.204   3.197
71040W        W43355  32.653  21.367  13.350
71041W        W43356   8.746  19.146  11.388
71042W        W43357  36.965  11.346  11.465
71043W        W43358  13.427  24.019   3.693
71044W        W43359  43.866  16.290   1.479
71045W        W43360  40.798  27.689  11.621
71046W        W43361  28.864  43.730  11.113
71047W        W43362   3.795  13.204  14.956
71048W        W43363   6.472  35.715  10.083
71049W        W43364  29.504  14.872   2.422
71050W        W43365  40.756  16.384   1.408
71051W        W43366  27.757   2.270  13.497
71052W        W43367  12.307   8.366   2.268
71053W        W43368  40.273  25.539   0.098
71054W        W43369  21.169  44.157  13.419
71055W        W43370  33.299  39.978   1.380
71056W        W43371  18.148   0.453  12.744
71057W        W43372  28.113  39.630  12.314
71058W        W43373  25.696  40.366  11.476
71059W        W43374  25.585  42.103  11.718
71060W        W43375  36.135   0.741  11.612
71061W        W43376  23.028  43.451  12.485
71062W        W43377   1.039   8.531   0.352
71063W        W43378  23.366  29.828  13.075
71064W        W43379  40.029  11.659  14.203
71065W        W43380  37.367  30.977  14.413
71066W        W43381  20.707  41.430   2.345
71067W        W43382  20.569  17.133   2.689
71068W        W43383  34.764  14.719   0.114
71069W        W43384  44.788   6.723  13.863
71070W        W43385   4.460  17.736   2.320
71071W        W43386  38.981  38.279   1.241
71072W        W43387  30.586  10.012   4.903
71073W        W43388   8.878   5.360  14.742
71074W        W43389  24.028  10.337  10.192
71075W        W43390  23.690   1.997  10.702
71076W        W43391  24.187  14.311   4.561
71077W        W43392  44.669  15.771   1.893
71078W        W43393  17.769  12.299   3.709
71079W        W43394  34.477  43.199   4.368
71080W        W43395  37.514   3.214  14.445
71081W        W43396   6.175   7.475  13.107
71082W        W43397  35.353   9.232   3.937
71083W        W43398  35.821   0.524   4.203
71084W        W43399  23.434  21.889   1.187
71085W        W43400  28.984  31.982   4.520
71086W        W43401  12.415  20.180   1.219
71087W        W43402  10.319  21.177  11.006
71088W        W43403  30.645  26.020   0.002
71089W        W43404  39.787  19.712  11.224
71090W        W43405  32.066  24.249  10.589
71091W        W43406   0.549   7.529  10.249
71092W        W43407  29.673   4.696  11.503
71093W        W43408  17.854   4.288  13.260
71094W        W43409  18.201   8.890  10.474
71095W        W43410  19.577  42.666   1.318
71096W        W43411  38.063   3.673  14.717
71097W        W43412  12.475  32.901   2.172
71098W        W43413  35.142  37.460  12.878
71099W        W43414   3.706  18.115  12.936
71100W        W43415   8.113  31.666  12.421
71101W        W43416  41.558  18.898   0.839
71102W        W43417  27.924   3.447   2.938
71103W        W43418  13.875  26.576   0.788
71104W        W43419  22.951  36.195   1.461
71105W        W43420  33.747   3.632   0.495
71106W        W43421   0.321   2.718  10.812
71107W        W43422  31.071   5.405   3.147
71108W        W43423  39.017   5.854  10.454
71109W        W43424  27.111  24.667   3.622
71110W        W43425  20.084  24.060  14.700
71111W        W43426  31.906  15.214  14.511
71112W        W43427  42.687  35.364   3.710
71113W        W43428  22.102  36.938   0.497
71114W        W43429  27.048  34.357  11.138
71115W        W43430  15.310  44.681   4.140
71116W        W43431  24.134   7.879  12.326
71117W        W43432  19.740  37.070   3.150
71118W        W43433  22.005  19.199   3.597
71119W        W43434  26.708  13.115   3.585
71120W        W43435  18.695   8.841   1.380
71121W        W43436  10.274  27.193   2.575
71122W        W43437   4.472  30.420   1.643
71123W        W43438   9.930  19.670  14.821
71124W        W43439  24.182   9.222  13.559
71125W        W43440  29.176   4.893  13.380
71126W        W43441  32.147  26.670  14.244
71127W        W43442   5.931  41.515  14.275
71128W        W43443   4.136   8.628  11.280
71129W        W43444   5.793  25.473   0.811
71130W        W43445  27.035   2.734  12.043
71131W        W43446  34.960  39.380   1.951
71132W        W43447  25.823   6.266   1.256
71133W        W43448  34.632  19.057  12.567
71134W        W43449  21.459  32.374   4.499
71135W        W43450  24.421   0.272  11.480
71136W        W43451  40.357  39.107   2.365
71137W        W43452  37.165   8.267   4.701
71138W        W43453  25.567  37.748   2.338
71139W        W43454  14.145  41.811   4.956
71140W        W43455  35.867   7.494   2.503
71141W        W43456  22.643  22.859   0.256
71142W        W43457   8.582  33.934  12.834
71143W        W43458  16.639  39.499  11.670
71144W        W43459  20.036   6.987  11.488
71145W        W43460  41.536  42.452   4.638
71146W        W43461  21.012  22.641   1.424
71147W        W43462  41.937  44.779  13.219
71148W        W43463   4.154  27.068  14.873
71149W        W43464  16.667   1.937  13.848
71150W        W43465  33.141  32.399   0.231
71151W        W43466  12.888  27.733   1.148
71152W        W43467  21.922  42.732   1.840
71153W        W43468  31.466  24.756  14.025
71154W        W43469  28.259  20.834   1.493
71155W        W43470  39.957  41.837  11.564
71156W        W43471  27.126   1.317  14.819
71157W        W43472  38.944  23.568   5.075
71158W        W43473  16.027  42.803   1.812
71159W        W43474  38.566  29.654   4.439
71160W        W43475  40.056  19.176  12.601
71161W        W43476  36.850   2.717  14.518
71162W        W43477  42.276  23.954   2.645
71163W        W43478  22.765  11.300  11.991
71164W        W43479   2.472   8.956   1.463
71165W        W43480  30.046  29.101  13.973
71166W        W43481  12.770  43.540   0.992
71167W        W43482  35.891  36.110   0.924
71168W        W43483  35.157  29.181   1.030
71169W        W43484   0.309  23.583  13.061
71170W        W43485  37.124  11.829  11.143
71171W        W43486   0.911  31.019   1.326
71172W        W43487  22.699  10.877  13.949
71173W        W43488  38.478  38.596   3.132
71174W        W43489  24.374   8.093   0.414
71175W        W43490   2.787  34.947  13.145
71176W        W43491  14.099  15.380   1.413
71177W        W43492  15.636  37.004  14.758
71178W        W43493  37.654  41.497  14.553
71179W        W43494  29.238  13.218   0.429
71180W        W43495  15.677  24.571   2.074
71181W        W43496  21.639  29.454   1.854
71182W        W43497  30.012  20.889   2.312
71183W        W43498  24.873  25.156  11.028
71184W        W43499  44.004   9.401   2.295
71185W        W43500  41.000  23.439   0.780
71186W        W43501  41.932  10.660  12.930
71187W        W43502  43.516  15.567   1.603
71188W        W43503   3.607  39.552   2.084
71189W        W43504   8.123  29.506   1.673
71190W        W43505  31.434  39.332  14.333
71191W        W43506  25.179   2.222  11.488
71192W        W43507  39.550  26.101   0.327
71193W        W43508  31.424  36.670   0.906
71194W        W43509   6.177  11.888   1.768
71195W        W43510  40.897   5.824   4.660
71196W        W43511  34.000  17.247   4.505
71197W        W43512  39.544  22.586  14.815
71198W        W43513   1.969  24.303   2.547
71199W        W43514  18.038   7.569   1.446
71200W        W43515  30.681  14.215   3.221
71201W        W43516  15.690  19.383  13.006
71202W        W43517  41.350  26.182  12.205
71203W        W43518   2.976  28.223  12.018
71204W        W43519   0.361  17.129  11.404
71205W        W43520   3.977  42.884   4.189
71206W        W43521  34.093  22.810   4.838
71207W        W43522  38.763  12.877  12.865
71208W        W43523   1.768   3.786  13.288
71209W        W43524  38.071   7.772   2.927
71210W        W43525  32.172  44.735   3.088
71211W        W43526   5.308  33.333   1.888
71212W        W43527  30.054  14.550  11.658
71213W        W43528  34.012  32.390   1.863
71214W        W43529   2.527  44.069  12.625
71215W        W43530  26.691  10.617   0.285
71216W        W43531  36.185  30.522  10.552
71217W        W43532  24.594   4.739  12.425
71218W        W43533  36.338   5.622  12.038
71219W        W43534   2.428   5.903   2.742
71220W        W43535  41.939  42.983   0.694
71221W        W43536  23.755  12.612   2.785
71222W        W43537  37.455  25.668  13.972
71223W        W43538  42.305  11.777   4.417
71224W        W43539   4.248  36.553   3.416
71225W        W43540   1.451  38.030   0.850
71226W        W43541   8.214  10.355   1.793
71227W        W43542  27.410  12.613  14.065
71228W        W43543   6.997  43.883   2.149
71229W        W43544  34.970  42.248  12.931
71230W        W43545  16.561  22.643   1.290
71231W        W43546  34.643  21.233   2.678
71232W        W43547   7.660  35.712   5.065
71233W        W43548  39.013  39.078   4.621
71234W        W43549   5.976  42.438  13.481
71235W        W43550   3.253  42.912   4.812
71236W        W43551  32.955  20.366   2.882
71237W        W43552  12.259  32.947  12.478
71238W        W43553  28.690  26.534  12.496
71239W        W43554  15.157  17.969   4.956
71240W        W43555   9.643  13.316   2.810
71241W        W43556  19.641   0.944   0.146
71242W        W43557  38.770   0.007   4.108
71243W        W43558  18.374  39.125  11.120
71244W        W43559  21.766  21.953   4.273
71245W        W43560  21.944  42.318   3.136
71246W        W43561  38.548  13.239   1.253
71247W        W43562  10.699   6.865   4.340
71248W        W43563  34.873  30.601   0.239
71249W        W43564   8.910   0.742  10.345
71250W        W43565   8.955  20.485  11.475
71251W        W43566  24.538   1.368   0.789
71252W        W43567  19.002  22.819   2.779
71253W        W43568  37.286  33.013   2.170
71254W        W43569  29.606  19.794  12.165
71255W        W43570  41.796  37.928   0.214
71256W        W43571  29.270   6.927   2.297
71257W        W43572   4.663  19.204   1.675
71258W        W43573  44.051  30.064  11.227
71259W        W43574   4.221  29.509  14.032
71260W        W43575  25.777   3.546  13.582
71261W        W43576   5.912  35.378  11.601
71262W        W43577  37.124  44.963  14.436
71263W        W43578  14.738   3.067  12.760
71264W        W43579   7.441  37.904  10.754
71265W        W43580   3.918  24.558   2.295
71266W        W43581  15.231  18.534  10.650
71267W        W43582   6.851  24.187  12.340
71268W        W43583  38.566   8.618  11.861
71269W        W43584  24.562  37.652   4.259
71270W        W43585   1.522  35.821  13.652
71271W        W43586   8.891  22.165   4.100
71272W        W43587   1.743  30.954  11.900
71273W        W43588  35.192   4.375   2.241
71274W        W43589  44.818  23.558   3.586
71275W        W43590  37.211  44.573  10.178
71276W        W43591  42.766   7.461   2.783
71277W        W43592  30.541   8.145   3.239
71278W        W43593   9.612  16.343  13.024
71279W        W43594   9.201  23.689  12.547
71280W        W43595  40.302  28.202  13.802
71281W        W43596  39.530   1.159  11.523
71282W        W43597  30.226  24.551  10.932
71283W        W43598  41.850  11.878   4.630
71284W        W43599  12.260   1.190  11.984
71285W        W43600  12.504  23.999  12.152
71286W        W43601  25.444  40.691   0.822
71287W        W43602  17.146  26.214   1.305
71288W        W43603  18.439   0.799   3.896
71289W        W43604  28.172  11.122   2.773
71290W        W43605  39.255  14.905   1.379
71291W        W43606  36.963  27.322   3.956
71292W        W43607   3.532  13.160   4.056
71293W        W43608  23.963  26.510  11.966
71294W        W43609  26.200   3.972   0.873
71295W        W43610  13.425  21.220  14.808
71296W        W43611  42.692  25.454  11.066
71297W        W43612  20.648  22.230   1.364
71298W        W43613  27.343  43.787   2.324
71299W        W43614  41.204  17.288   1.177
71300W        W43615  17.153  30.383   0.974
71301W        W43616  26.498  21.006   2.314
71302W        W43617  30.533  40.616   1.325
71303W        W43618  32.027  34.380   2.579
71304W        W43619   4.428  42.015   3.779
71305W        W43620  20.666  40.339   4.878
71306W        W43621  16.437  27.699  10.168
71307W        W43622  37.807  16.510   2.373
71308W        W43623  43.870  37.758  12.397
71309W        W43624  43.901  12.659   0.318
71310W        W43625  44.307  31.098   2.996
71311W        W43626  40.410  21.634   3.841
71312W        W43627   2.959  29.094   2.353
71313W        W43628  30.465  14.062   0.859
71314W        W43629   0.506   1.907   0.239
71315W        W43630  25.021  14.103   0.269
71316W        W43631  26.951  16.125   1.646
71317W        W43632  17.525  38.893   4.995
71318W        W43633   8.705  13.322   3.185
71319W        W43634  29.527  14.067  11.098
71320W        W43635  10.650  30.095  13.609
71321W        W43636  32.824  11.187   4.169
71322W        W43637  37.531  21.483   0.754
71323W        W43638  16.697  38.943  10.452
71324W        W43639  15.541  35.890  11.536
71325W        W43640  29.124   4.377  12.452
71326W        W43641   0.880  11.088  11.110
71327W        W43642  23.935  13.330   5.115
71328W        W43643  10.811  44.434  13.439
71329W        W43644  43.918  32.198   0.761
71330W        W43645   7.337  18.691  12.635
71331W        W43646  12.696  23.353  11.042
71332W        W43647  34.365  33.646   3.858
71333W        W43648   9.851  10.913  11.861
71334W        W43649  24.071  23.326  11.917
71335W        W43650  39.077  23.425   4.588
71336W        W43651  43.768  42.100  13.093
71337W        W43652  28.654  31.122  12.432
71338W        W43653  37.609  14.811  11.462
71339W        W43654  12.293   3.118  12.948
71340W        W43655   5.672  23.096  12.145
71341W        W43656  25.532   6.722   2.474
71342W        W43657   7.359   3.141  12.133
71343W        W43658  14.220  26.482   0.425
71344W        W43659   3.256  27.815   4.019
71345W        W43660   7.826   2.442   1.863
71346W        W43661  34.044  31.767  11.628
71347W        W43662  29.064  35.565   0.177
71348W        W43663   7.443  16.652  14.734
71349W        W43664  13.189  12.771  10.266
71350W        W43665  33.392   3.884  13.742
71351W        W43666  30.081  40.568   1.026
71352W        W43667  37.411  37.710  10.210
71353W        W43668  11.731  15.114  12.213
71354W        W43669  33.828  22.508   5.158
71355W        W43670  27.021  24.289   1.475
71356W        W43671   1.518  15.083  13.591
71357W        W43672  10.815  31.654  14.316
71358W        W43673   3.313  14.051   4.601
71359W        W43674  13.925   6.528  14.245
71360W        W43675  21.662   5.295  12.465
71361W        W43676  30.214  23.724   2.144
71362W        W43677  34.088  32.104   0.407
71363W        W43678  10.153   2.806   4.443
71364W        W43679  25.179   6.130  10.198
71365W        W43680  39.694  17.338  12.429
71366W        W43681  38.962   0.799   0.420
71367W        W43682  12.214  38.429  10.812
71368W        W43683  19.147   8.671  14.304
71369W        W43684  39.646  18.202  13.430
71370W        W43685  17.144  32.112  10.182
71371W        W43686  28.003  35.155  14.737
71372W        W43687  24.291  44.469   3.788
71373W        W43688  14.679  27.013  11.585
71374W        W43689   9.736  25.955  10.766
71375W        W43690  41.464  42.868  13.904
71376W        W43691  29.148  19.488  13.448
71377W        W43692   9.138  31.989   0.247
71378W        W43693   7.356  40.339  10.480
71379W        W43694  13.322  41.492   2.275
71380W        W43695  28.433  35.965   2.810
71381W        W43696   7.172  22.672  11.492
71382W        W43697  33.644  22.316   2.777
71383W        W43698  21.187  42.820  10.000
71384W        W43699  29.541  22.461   3.657
71385W        W43700  17.291  40.774   2.367
71386W        W43701   0.357  26.676  12.465
71387W        W43702   2.947  35.638   5.214
71388W        W43703  28.858  42.087   1.321
71389W        W43704  25.609  13.443   1.822
71390W        W43705   4.418  35.624  10.624
71391W        W43706  42.797  11.101   1.763
71392W        W43707  20.510  17.604  12.017
71393W        W43708  16.604   8.113   1.891
71394W        W43709  23.756  35.059   1.958
71395W        W43710   3.942  11.428  13.997
71396W        W43711  22.103  34.987   2.172
71397W        W43712  27.376  26.964   3.701
71398W        W43713   0.538  15.967  13.024
71399W        W43714  43.031  28.161  12.811
71400W        W43715  37.078  23.748   4.061
71401W        W43716  32.603  36.023   3.171
71402W        W43717  20.618  36.965   1.182
71403W        W43718  41.821  43.741  14.820
71404W        W43719  39.986  37.791  14.092
71405W        W43720  14.952  12.375  13.961
71406W        W43721   5.378  21.302  12.973
71407W        W43722  22.659  33.284  14.928
71408W        W43723  44.733  38.448   3.709
71409W        W43724  38.989  18.704  10.999
71410W        W43725   5.895  44.091  11.830
71411W        W43726  29.072  34.152   3.241
71412W        W43727  34.927  30.258  10.970
71413W        W43728  41.904  31.059   4.327
71414W        W43729  27.242  35.863   3.725
71415W        W43730  23.559  43.300   4.192
71416W        W43731  43.939  21.751   0.369
71417W        W43732  19.542   7.745  10.699
71418W        W43733  37.389   8.360   3.026
71419W        W43734  30.564  14.068   1.765
71420W        W43735  25.247  13.230  10.550
71421W        W43736  11.216  17.867  12.014
71422W        W43737  16.133  37.599   3.712
71423W        W43738  11.434  34.570  13.540
71424W        W43739  31.026  15.037  14.499
71425W        W43740  44.391  26.293  10.947
71426W        W43741  10.628  31.012   1.435
71427W        W43742  33.154   5.040   2.801
71428W        W43743   4.655  37.327   0.799
71429W        W43744  12.818  19.795  12.094
71430W        W43745  36.634   0.820  11.520
71431W        W43746  11.685  39.044   4.133
71432W        W43747  34.695  30.149  11.424
71433W        W43748  39.755  36.481   1.799
71434W        W43749  24.026  12.790  11.896
71435W        W43750  43.516  42.230  14.863
71436W        W43751  39.173  12.802   2.269
71437W        W43752   7.824  43.886  12.059
71438W        W43753  29.606  42.595   0.315
71439W        W43754   4.802   1.699   0.387
71440W        W43755  19.972  11.004  10.600
71441W        W43756  24.905  19.340  11.708
71442W        W43757  18.148  27.615   1.329
71443W        W43758  27.913   8.265   0.911
71444W        W43759  33.415   3.119   9.901
71445W        W43760  20.802   8.168   3.791
71446W        W43761  10.500  16.377   9.790
71447W        W43762  38.544   1.426   0.245
71448W        W43763   9.357  18.141   1.198
71449W        W43764  40.706  24.946   4.614
71450W        W43765  20.172   6.919   0.413
71451W        W43766   1.742   5.783   2.186
71452W        W43767  29.024   9.191   4.545
71453W        W43768  32.247  21.120  13.884
71454W        W43769  34.566  21.157  13.936
71455W        W43770   1.923  16.587  12.875
71456W        W43771  34.402  30.648   1.836
71457W        W43772  37.528   7.386  10.667
71458W        W43773  42.027   4.774   2.374
71459W        W43774  26.590  23.238  13.065
71460W        W43775  15.170  24.943  11.206
71461W        W43776  10.685   3.203   1.954
71462W        W43777  25.037   2.801  12.125
71463W        W43778  32.278  36.983   3.268
71464W        W43779  27.530  38.091  13.920
71465W        W43780  18.972  10.466  13.454
71466W        W43781  41.405  29.070   2.188
71467W        W43782   5.323  38.676  14.442
71468W        W43783  37.023   1.360  12.172
71469W        W43784  14.406  38.929  11.908
71470W        W43785  28.947  34.935  12.897
71471W        W43786  27.935  40.478   3.713
71472W        W43787   4.311  37.374   3.775
71473W        W43788  20.465   9.282   0.505
71474W        W43789  26.785  22.369  10.199
71475W        W43790  11.989  22.106  14.409
71476W        W43791  36.020   5.576  13.993
71477W        W43792   6.262  20.031  11.165
71478W        W43793  41.513  41.000  14.814
71479W        W43794  44.432  22.203   2.797
71480W        W43795   2.916  10.201   4.967
71481W        W43796  42.867  32.591   2.360
71482W        W43797  14.267   0.802  14.509
71483W        W43798  33.055  35.126  14.458
71484W        W43799   6.361   2.666  14.530
71485W        W43800  41.305  16.790   1.856
71486W        W43801  19.013  29.595  13.000
71487W        W43802  35.982   1.276   2.738
71488W        W43803   6.425  28.196  13.749
71489W        W43804   3.790  37.520   3.733
71490W        W43805  34.564  22.868   1.237
71491W        W43806  16.224  11.240  14.497
71492W        W43807  27.694  42.289   3.188
71493W        W43808  44.939  18.316   3.883
71494W        W43809  21.686   9.111   2.835
71495W        W43810  16.209  27.226   0.983
71496W        W43811  11.850  14.724  12.545
71497W        W43812  11.149  20.332   3.221
71498W        W43813   6.349  44.315  11.181
71499W        W43814  34.621  11.451  14.464
71500W        W43815  43.335  32.149  10.628
71501W        W43816   3.783   4.654  11.160
71502W        W43817  40.255  14.204   2.920
71503W        W43818   1.327   1.312  12.497
71504W        W43819   8.885  33.491  12.913
71505W        W43820   1.923  10.500   2.783
71506W        W43821  13.731  12.344   2.443
71507W        W43822  28.318   7.847  11.448
71508W        W43823   3.538  22.223  12.052
71509W        W43824  15.268  11.326   3.783
71510W        W43825   1.867  21.270   1.339
71511W        W43826  24.728   2.906  13.992
71512W        W43827   7.941  37.986  10.644
71513W        W43828  19.720   7.273   3.257
71514W        W43829  23.931  16.098  12.562
71515W        W43830  38.016  40.863   2.085
71516W        W43831  34.373   4.395  10.966
71517W        W43832  34.635  39.713  13.315
71518W        W43833  22.726   0.731  13.063
71519W        W43834  25.160  18.208  13.986
71520W        W43835   5.340  32.811  10.662
71521W        W43836  44.826  18.900  12.465
71522W        W43837  10.233  34.914  10.038
71523W        W43838  36.147  33.086  12.828
71524W        W43839  31.954  28.071  14.369
71525W        W43840  25.779   4.801   1.865
71526W        W43841  27.095  15.071   1.387
71527W        W43842  16.713  30.217   0.440
71528W        W43843  23.925  14.779  11.992
71529W        W43844  41.386  39.959   2.562
71530W        W43845  23.252   9.876   2.494
71531W        W43846  14.812  40.501   0.653
71532W        W43847  34.421   4.422  11.921
71533W        W43848  30.646   2.454  14.498
71534W        W43849  21.824  20.184   2.754
71535W        W43850   6.473  11.815  12.890
71536W        W43851  14.541  11.662  10.757
71537W        W43852  36.054   0.818  14.889
71538W        W43853  33.712  10.518   0.269
71539W        W43854  19.133   7.267   3.977
71540W        W43855   1.503  26.759  13.927
71541W        W43856  39.399  17.602  12.010
71542W        W43857  23.095  24.007   3.688
71543W        W43858  29.828  31.940   1.854
71544W        W43859  35.365   6.674  14.953
71545W        W43860  38.255  31.148   4.255
71546W        W43861  41.070  12.803   3.295
71547W        W43862  19.281  28.108  12.955
71548W        W43863  17.574  20.546  11.437
71549W        W43864  23.616  19.758  11.120
71550W        W43865  22.942  28.707  13.960
71551W        W43866  37.371   0.763   0.058
71552W        W43867  14.872   3.736   1.975
71553W        W43868  32.376  32.522   3.160
71554W        W43869  43.893  15.583   4.530
71555W        W43870   9.880  36.123  12.453
71556W        W43871  19.506  19.778   3.707
71557W        W43872  25.642  40.869   2.206
71558W        W43873  15.239  22.977   0.971
71559W        W43874  35.064  40.583   3.723
71560W        W43875  33.389   3.128  14.412
71561W        W43876  12.936   9.372  11.552
71562W        W43877  18.171  18.799   2.877
71563W        W43878  29.613  22.649   1.245
71564W        W43879  29.880  35.906  13.167
71565W        W43880  29.288  37.871  13.413
71566W        W43881  18.242   8.397  10.578
71567W        W43882  18.183   2.322   4.616
71568W        W43883  18.009   3.039   0.407
71569W        W43884  32.419  26.305   3.759
71570W        W43885   6.394  42.768   4.336
71571W        W43886  26.088  26.656  10.981
71572W        W43887  22.254  25.192   3.995
71573W        W43888  44.702  42.558  12.950
71574W        W43889  38.765  19.465  12.015
71575W        W43890  38.544  38.282  14.022
71576W        W43891  32.181  19.120  14.307
71577W        W43892   7.076  38.544   4.540
71578W        W43893  14.907   2.862   4.863
71579W        W43894   7.554  38.293  13.595
71580W        W43895  30.867  18.600   1.399
71581W        W43896   4.864  35.154   2.826
71582W        W43897  39.971   4.889   4.885
71583W        W43898  10.787  28.636   0.381
71584W        W43899  43.910  11.121   4.760
71585W        W43900  23.704  11.620  12.910
71586W        W43901  14.885  28.921   9.535
71587W        W43902  43.787  15.409   1.188
71588W        W43903  11.968   4.123   2.756
71589W        W43904  38.807  37.960   2.325
71590W        W43905  41.506  15.211  14.900
71591W        W43906  26.435   4.686  12.460
71592W        W43907  11.686  34.971   4.031
71593W        W43908  32.465  10.759  11.905
71594W        W43909  36.982  37.837  11.396
71595W        W43910  11.169  24.625   0.359
71596W        W43911  18.264  13.363  12.459
71597W        W43912  25.980  28.200   1.859
71598W        W43913  23.622  26.052   3.504
71599W        W43914  28.548  33.440  13.382
71600W        W43915  17.197  40.881   2.874
71601W        W43916  10.957  24.351  10.978
71602W        W43917   7.370  32.071  13.466
71603W        W43918  43.337   5.190  11.133
71604W        W43919   3.501  15.073   4.827
71605W        W43920  25.503  44.858   3.877
71606W        W43921  24.192  30.679   1.959
71607W        W43922  31.687  11.100   2.835
71608W        W43923  13.133  28.684  13.315
71609W        W43924  11.350  20.513  13.129
71610W        W43925   9.964  32.071  12.593
71611W        W43926   6.858  41.666  10.618
71612W        W43927  26.614   7.416   4.149
71613W        W43928   4.430  37.567  12.374
71614W        W43929  22.759  29.457  11.597
71615W        W43930  10.163  27.774   4.630
71616W        W43931   3.402  16.163   4.094
71617W        W43932  11.080  33.642   3.245
71618W        W43933   8.081  39.841  12.709
71619W        W43934  41.221   9.888   2.922
71620W        W43935   3.521  21.251  13.791
71621W        W43936  27.989  10.804  11.073
71622W        W43937  20.509   9.175   2.325
71623W        W43938  33.025  22.801  10.990
71624W        W43939  42.527  42.447   3.831
71625W        W43940  16.587   4.279   2.779
71626W        W43941  36.412  14.349  13.122
71627W        W43942  31.880  36.203   0.210
71628W        W43943  16.405  19.620  11.398
71629W        W43944  42.151  17.809  11.179
71630W        W43945  30.918  40.298   1.823
71631W        W43946  44.704  24.178  11.224
71632W        W43947  36.625   5.396   2.120
71633W        W43948  30.848  30.471   5.042
71634W        W43949   7.435  20.373   1.215
71635W        W43950   1.748  19.387  12.480
71636W        W43951   8.198   2.350  13.769
71637W        W43952   5.888   9.870   2.999
71638W        W43953  35.873  34.047  10.349
71639W        W43954  20.506   4.529  14.312
71640W        W43955  21.721  28.041  11.060
71641W        W43956  19.510  21.748  13.552
71642W        W43957  34.141  39.987   0.205
71643W        W43958  25.324  28.527  11.090
71644W        W43959  23.677   8.176  12.454
71645W        W43960   4.008  29.585  10.579
71646W        W43961  40.045  26.203   3.538
71647W        W43962  39.015  17.242  12.078
71648W        W43963  17.635   4.861   4.781
71649W        W43964  39.233  39.895   3.361
71650W        W43965  15.728   5.899   3.926
71651W        W43966   8.066  13.284  13.753
71652W        W43967  40.983   5.386   4.942
71653W        W43968  33.967   9.491   2.001
71654W        W43969  15.095   6.597   2.472
71655W        W43970  10.756   0.897  13.389
71656W        W43971  10.624  15.083   2.883
71657W        W43972  43.079  39.384   3.677
71658W        W43973   3.754   7.671  12.418
71659W        W43974  25.183  28.995  14.753
71660W        W43975  43.775   7.729   3.713
71661W        W43976  31.729   0.521   3.880
71662W        W43977  42.262  21.716   0.819
71663W        W43978  14.347   2.635   3.693
71664W        W43979  30.551  34.983   2.674
71665W        W43980  39.375  41.333  14.523
71666W        W43981  17.202  23.110  13.264
71667W        W43982  39.803  18.719  12.350
71668W        W43983  28.903  26.556   0.246
71669W        W43984  32.123  29.719  13.900
71670W        W43985   8.157  31.556   0.697
71671W        W43986   5.399  21.098  10.656
71672W        W43987  31.104   6.898   1.196
71673W        W43988  12.687  44.078   4.131
71674W        W43989  44.802  34.676   3.904
71675W        W43990  35.416  38.084  12.440
71676W        W43991  41.646  34.125   0.516
71677W        W43992  35.274  35.482   2.692
71678W        W43993  16.020  19.295   2.637
71679W        W43994  34.385  32.391  13.299
71680W        W43995  43.875  37.070  10.509
71681W        W43996  40.113   2.854   4.120
71682W        W43997  12.328  22.087  11.983
71683W        W43998  29.954  35.784   0.427
71684W        W43999  27.101  23.991  12.905
71685W        W44000  34.101   7.922   1.722
71686W        W44001  19.614   9.207   2.771
71687W        W44002   5.953   0.825   3.054
71688W        W44003  38.974  28.413  11.655
71689W        W44004   9.131  32.847  13.457
71690W        W44005  41.173  19.733  10.666
71691W        W44006  26.487  33.834  12.618
71692W        W44007  18.025  42.433   1.857
71693W        W44008   4.993  32.936   1.979
71694W        W44009   8.424  12.577  14.906
71695W        W44010  42.906  21.196  14.403
71696W        W44011   8.992  34.835   3.257
71697W        W44012  43.284  24.768   1.703
71698W        W44013  21.877  27.577  14.897
71699W        W44014   3.526  25.202   2.320
71700W        W44015  35.160  31.507  14.914
71701W        W44016   1.953   1.562   1.763
71702W        W44017  28.772   6.781   1.977
71703W        W44018  16.031   2.735   1.506
71704W        W44019  31.171   3.152   3.386
71705W        W44020  26.781  15.856  11.999
71706W        W44021  10.286  14.770  14.255
71707W        W44022  32.598  30.672  11.924
71708W        W44023  34.157   3.134   1.963
71709W        W44024  38.519  43.572   0.744
71710W        W44025   2.002  25.074   0.314
71711W        W44026  11.670   9.855  10.869
71712W        W44027  25.486  32.196  12.648
71713W        W44028  11.205   7.237  13.505
71714W        W44029  19.547  39.683   0.157
71715W        W44030  24.149   5.726   1.753
71716W        W44031  26.684  13.109  14.020
71717W        W44032   1.839  31.915   2.219
71718W        W44033  19.640  40.295  11.091
71719W        W44034  25.502  14.227   2.316
71720W        W44035  21.481   6.882  12.335
71721W        W44036  14.845   6.697   2.912
71722W        W44037  36.460  12.186   4.031
71723W        W44038  39.844  13.926   2.052
71724W        W44039  26.632   3.333  14.531
71725W        W44040  10.763  14.697   1.919
71726W        W44041  33.068   7.671   0.077
71727W        W44042  34.974   8.697  14.770
71728W        W44043  18.766  34.439  12.451
71729W        W44044  27.377  16.767  13.328
71730W        W44045  29.547  36.919   1.732
71731W        W44046  36.591  12.089   1.387
71732W        W44047  12.579  30.960   3.929
71733W        W44048  30.734  15.624   2.755
71734W        W44049  13.063  20.068  10.401
71735W        W44050  19.881  16.717   0.130
71736W        W44051  12.654  44.592   4.164
71737W        W44052   8.797  25.184  11.609
71738W        W44053  43.025  18.614  11.977
71739W        W44054   0.833  38.601  14.268
71740W        W44055  24.703  16.863   4.122
71741W        W44056  41.572  35.518   2.223
71742W        W44057  10.620   2.626   4.177
71743W        W44058   4.196  43.989  11.191
71744W        W44059   5.322   6.645   0.357
71745W        W44060  16.699  16.791  10.634
71746W        W44061  29.622  19.847   3.761
71747W        W44062  39.854  32.168   4.524
71748W        W44063   1.894  15.025   2.228
71749W        W44064  44.541   5.129  14.845
71750W        W44065  30.572  17.256   0.165
71751W        W44066  29.089  10.957  13.153
71752W        W44067   5.269   3.228  14.883
71753W        W44068  10.738  25.623   3.607
71754W        W44069  27.702  38.878   2.810
71755W        W44070  42.740  39.176  12.431
71756W        W44071  18.229  15.029   0.418
71757W        W44072  38.444  18.112  14.401
71758W        W44073  33.818  19.701  11.128
71759W        W44074  35.067  37.475  14.904
71760W        W44075  13.115   1.843  12.937
71761W        W44076  37.604  30.552   3.448
71762W        W44077   8.697  23.527  12.762
71763W        W44078  26.288  33.368  12.712
71764W        W44079  39.842   7.752   2.251
71765W        W44080  42.952  40.083  14.335
71766W        W44081   3.729  30.947   0.479
71767W        W44082  13.157   9.267   1.368
71768W        W44083  18.837  27.074   2.709
71769W        W44084  10.978  17.160   3.688
71770W        W44085  37.977  33.232   0.894
71771W        W44086   1.037  12.701  10.217
71772W        W44087  32.623  28.647   4.734
71773W        W44088  18.686  12.531  14.340
71774W        W44089   3.584   7.295   2.813
71775W        W44090  38.960  34.234   0.918
71776W        W44091  29.574   8.439  12.975
71777W        W44092  34.499  44.844  12.498
71778W        W44093  28.073  23.182  14.634
71779W        W44094  31.638  23.280  11.428
71780W        W44095   6.721  35.031  11.893
71781W        W44096  29.038   3.695   3.707
71782W        W44097   3.747   8.473   3.246
71783W        W44098   6.457  26.233  12.881
71784W        W44099  41.798  33.331  11.923
71785W        W44100  35.380   3.873   1.256
71786W        W44101  41.750  24.191   4.710
71787W        W44102  36.635   6.377   4.830
71788W        W44103  42.770  12.306   2.314
71789W        W44104  25.402  15.151  12.428
71790W        W44105  42.787   7.332  11.072
71791W        W44106  18.143  30.434  10.635
71792W        W44107  34.438  14.561   3.283
71793W        W44108   9.122  30.029   1.344
71794W        W44109  42.855  39.291   2.319
71795W        W44110  31.577  15.617   9.962
71796W        W44111  14.391  19.248   1.690
71797W        W44112  31.566  18.756   2.694
71798W        W44113  33.657  44.384   0.759
71799W        W44114  25.511  35.934  12.431
71800W        W44115  24.576  34.173  12.429
71801W        W44116   4.874  30.410  12.523
71802W        W44117  22.367  39.736  13.416
71803W        W44118   2.852  23.969   2.999
71804W        W44119  18.750  13.617  13.455
71805W        W44120  42.168  19.610  13.688
71806W        W44121   0.049   9.400   3.718
71807W        W44122  40.752   9.891  14.472
71808W        W44123  19.732  35.584  14.890
71809W        W44124  14.053  31.524   4.198
71810W        W44125  34.973  31.326  11.574
71811W        W44126  18.230   5.787  12.178
71812W        W44127  24.636   5.780  14.801
71813W        W44128  30.348  29.632  11.516
71814W        W44129  19.716  16.345   2.211
71815W        W44130   9.639   2.477  13.527
71816W        W44131  15.880  21.083  11.097
71817W        W44132  28.093  34.921  11.597
71818W        W44133   9.662   7.428   5.029
71819W        W44134  35.816  42.442  13.455
71820W        W44135  25.888  30.278  14.821
71821W        W44136  13.141   6.445   2.417
71822W        W44137  40.621  25.208  11.575
71823W        W44138   6.558   7.493  11.382
71824W        W44139  37.073  27.135  11.117
71825W        W44140  10.635   1.445  14.397
71826W        W44141   8.776  44.884   4.576
71827W        W44142  16.016   5.049   4.960
71828W        W44143   1.549  28.546  12.829
71829W        W44144  24.439  17.632  14.350
71830W        W44145   4.836  44.281  14.268
71831W        W44146  14.532  30.430  11.541
71832W        W44147  35.339  25.003  11.557
71833W        W44148  20.795  10.620  14.109
71834W        W44149  21.032  37.175  11.596
71835W        W44150   5.413   5.070  12.336
71836W        W44151   2.989  21.663  12.421
71837W        W44152  16.989  26.660   2.641
71838W        W44153   0.300  43.438  14.882
71839W        W44154  12.194  14.071  11.153
71840W        W44155  30.435  40.119   1.317
71841W        W44156  14.811  21.224  14.941
71842W        W44157  16.239  10.334  14.552
71843W        W44158  22.116  26.193  12.073
71844W        W44159   4.232   1.067   2.757
71845W        W44160  43.761  37.006  12.923
71846W        W44161  18.399   0.006  12.612
71847W        W44162  35.235  29.484  12.508
71848W        W44163  38.327  11.412  10.732
71849W        W44164  16.365  21.842   4.076
71850W        W44165  24.846  42.636   3.891
71851W        W44166   8.371  36.882   1.748
71852W        W44167  16.330  42.992   4.390
71853W        W44168  26.810  44.404  12.177
71854W        W44169  21.244  32.159   0.369
71855W        W44170  35.111  15.158  11.959
71856W        W44171  13.854  14.376   4.074
71857W        W44172   7.498  23.135   4.338
71858W        W44173  39.267  26.213  12.809
71859W        W44174   6.648  37.427  14.896
71860W        W44175   6.365  31.059   0.847
71861W        W44176   6.198  18.057   4.066
71862W        W44177  44.041  28.386   0.716
71863W        W44178   3.372   5.429  12.868
71864W        W44179  33.232   6.124   1.238
71865W        W44180  43.173  36.694   4.747
71866W        W44181  37.556  18.259   1.415
71867W        W44182  12.710  35.663   0.943
71868W        W44183  16.587  20.718   3.103
71869W        W44184  36.773  40.108  13.786
71870W        W44185  40.583  15.777  11.206
71871W        W44186  20.705  15.168   4.622
71872W        W44187  13.544  32.327   3.311
71873W        W44188  26.526   3.876   1.255
71874W        W44189   1.350  13.954  11.124
71875W        W44190   3.203  14.214  13.315
71876W        W44191   2.723  14.249   3.791
71877W        W44192  16.235   7.451  13.967
71878W        W44193  20.784  25.167   2.725
71879W        W44194  10.877  20.590   4.289
71880W        W44195  26.991  12.305  14.057
71881W        W44196  27.943   0.143  12.900
71882W        W44197  31.742  43.819   2.960
71883W        W44198   1.913  34.939   4.681
71884W        W44199  44.943  30.870  10.616
71885W        W44200   9.240  28.257   3.774
71886W        W44201  39.486  17.313   4.400
71887W        W44202  42.343   2.932   3.991
71888W        W44203  42.606  32.074   2.751
71889W        W44204  37.822  42.757  10.813
71890W        W44205   8.945  35.024   1.575
71891W        W44206  28.621  21.997  13.138
71892W        W44207  27.814  18.286  13.459
71893W        W44208  43.018  42.509  11.859
71894W        W44209  17.181  32.951   2.351
71895W        W44210  44.482   7.177  13.777
71896W        W44211  40.692  15.308   2.421
71897W        W44212  13.608  21.514   1.955
71898W        W44213  32.326   8.952  12.490
71899W        W44214  41.727  21.191   3.634
71900W        W44215  10.783  21.067   2.626
71901W        W44216   1.211   3.456  11.098
71902W        W44217   1.161   4.171   0.976
71903W        W44218  33.108   9.880  11.830
71904W        W44219  31.654  38.423   0.886
71905W        W44220   7.986  24.921   2.859
71906W        W44221  17.650   1.245  11.366
71907W        W44222   3.920  11.590  12.420
71908W        W44223  18.229  43.937  12.924
71909W        W44224  39.983  37.294  14.259
71910W        W44225   5.390   2.328  13.944
71911W        W44226  24.743  21.691  14.996
71912W        W44227  26.144  27.766   3.282
71913W        W44228  16.591  10.255  13.266
71914W        W44229  27.623   7.912   1.395
71915W        W44230  43.806  39.607   2.733
71916W        W44231  14.698  10.132   1.738
71917W        W44232   8.295  43.545  13.087
71918W        W44233  35.321  35.451  14.914
71919W        W44234  25.444  22.245   0.239
71920W        W44235   9.938  43.259   3.841
71921W        W44236  32.497  28.358   2.771
71922W        W44237   9.391  41.051  10.657
71923W        W44238   7.879   9.450   4.175
71924W        W44239   4.999  40.928  10.679
71925W        W44240  25.934  41.639  11.080
71926W        W44241  12.845  31.096   4.545
71927W        W44242  37.352  44.810   2.351
71928W        W44243  29.488  10.759   4.969
71929W        W44244   5.043  43.560  10.027
71930W        W44245   5.256  11.230  13.845
71931W        W44246  32.639  34.414  13.383
71932W        W44247   8.026   9.911   2.333
71933W        W44248  17.325  28.902   4.198
71934W        W44249  25.071  32.398   3.286
71935W        W44250  41.359  29.465  14.967
71936W        W44251  10.913  24.161   1.799
71937W        W44252  23.674  44.893  13.446
71938W        W44253  13.250  20.949   4.628
71939W        W44254  32.705  14.741   2.160
71940W        W44255   5.144  35.041  11.143
71941W        W44256  37.072  18.064   1.395
71942W        W44257  25.905  20.519   4.321
71943W        W44258  44.327  16.739   1.333
71944W        W44259  27.493   6.948   3.274
71945W        W44260   9.777  41.255  13.935
71946W        W44261  19.091  41.224  12.484
71947W        W44262  31.833  26.161  14.228
71948W        W44263  31.788   7.588  14.808
71949W        W44264   5.837  13.351  14.515
71950W        W44265  28.470  32.157   2.318
71951W        W44266  15.594  14.385  11.099
71952W        W44267  39.344  16.507   2.774
71953W        W44268  32.026   3.045  11.590
71954W        W44269  20.764  18.393  11.602
71955W        W44270  42.765  39.879  11.568
71956W        W44271  34.931  42.281  13.445
71957W        W44272  37.049  15.141  14.869
71958W        W44273  21.188   4.409  11.236
71959W        W44274   6.630  40.674  11.624
71960W        W44275   3.825  28.445   4.621
71961W        W44276   0.765   9.643   4.161
71962W        W44277  40.305  29.859  12.973
71963W        W44278  17.041  12.204  10.563
71964W        W44279  19.172  41.440  12.990
71965W        W44280  13.877   1.519  11.452
71966W        W44281  31.852   2.853  11.134
71967W        W44282  14.046   4.849   1.694
71968W        W44283  27.944  15.327   2.720
71969W        W44284  40.006  14.792  11.083
71970W        W44285  21.140  20.531  12.641
71971W        W44286  14.788   3.891   0.803
71972W        W44287   3.843  26.112  13.098
71973W        W44288  32.672  19.207  10.403
71974W        W44289  35.465  21.656  12.113
71975W        W44290   9.076   7.248   1.797
71976W        W44291  44.031  34.731   3.838
71977W        W44292   4.244  19.069  10.891
71978W        W44293   9.308  23.353  11.927
71979W        W44294  15.649  22.994  14.931
71980W        W44295  44.315  41.751  12.931
71981W        W44296  15.248  12.233   2.725
71982W        W44297   3.217  31.017   3.636
71983W        W44298  38.330   0.923  12.153
71984W        W44299  11.069  35.950   0.349
71985W        W44300  38.858  30.133   3.899
71986W        W44301   3.054  15.792   5.012
71987W        W44302  31.371   7.118   4.809
71988W        W44303  13.174   7.771   3.161
71989W        W44304   5.267  24.737  12.841
71990W        W44305  44.318  28.182  10.886
71991W        W44306  31.130  17.513  10.712
71992W        W44307  27.649  26.425   0.752
71993W        W44308  17.175   7.411  13.941
71994W        W44309  40.882   0.045   4.927
71995W        W44310   6.310  21.342   0.246
71996W        W44311  35.657  36.850  12.033
71997W        W44312  15.310  21.806   0.250
71998W        W44313   9.737  34.967   0.900
71999W        W44314  15.067   8.184  14.865
72000W        W44315  43.208  11.411  12.244
72001W        W44316  41.846  32.459   3.259
72002W        W44317  44.414  22.613  10.963
72003W        W44318  20.499  41.433   1.853
72004W        W44319   0.453   8.138  14.979
72005W        W44320  10.639  26.886   2.351
72006W        W44321  42.296  19.737   2.241
72007W        W44322  39.656   7.243   4.150
72008W        W44323  27.204  38.735   2.726
72009W        W44324  11.195  27.981   0.182
72010W        W44325  23.985   5.699  10.395
72011W        W44326   8.284  18.041  10.637
72012W        W44327  39.756  23.194   2.279
72013W        W44328  17.099  39.436   0.038
72014W        W44329  20.074  39.887  10.163
72015W        W44330  17.639   3.473   4.556
72016W        W44331  26.152   5.488   4.479
72017W        W44332  32.186  32.630  10.592
72018W        W44333  32.377  42.975  11.153
72019W        W44334  34.900  29.919   4.783
72020W        W44335   0.275  41.641  11.029
72021W        W44336   2.119   7.824   1.719
72022W        W44337  38.119  44.508  11.139
72023W        W44338  41.335  19.098  11.176
72024W        W44339  36.773   9.693  12.021
72025W        W44340  30.313  18.629  10.762
72026W        W44341  26.581   5.218  13.065
72027W        W44342  19.247   1.157   4.311
72028W        W44343  26.132  36.917   1.649
72029W        W44344  11.732  29.022  11.660
72030W        W44345  30.102  24.038  12.649
72031W        W44346  26.660  39.656  11.225
72032W        W44347  17.217  40.874  10.307
72033W        W44348  34.251  10.372   1.339
72034W        W44349  16.311  32.584  11.502
72035W        W44350  31.227  32.074   3.011
72036W        W44351  18.138  10.171  14.430
72037W        W44352  13.174  20.126  12.917
72038W        W44353  27.726  32.555   0.562
72039W        W44354  30.137  41.149   2.810
72040W        W44355  43.317  32.632  10.395
72041W        W44356  36.012  35.970  13.504
72042W        W44357  41.074  12.217   1.390
72043W        W44358  31.071  12.710  13.601
72044W        W44359  14.751  16.238   3.133
72045W        W44360  29.984  10.375  14.016
72046W        W44361  35.471  40.415   0.270
72047W        W44362  11.732  41.360  10.604
72048W        W44363  20.259  39.318   3.163
72049W        W44364  43.167  42.906   5.042
72050W        W44365  17.219   0.418  12.940
72051W        W44366  17.744   9.381   0.669
72052W        W44367  22.982  33.647   3.613
72053W        W44368  25.075   0.909  14.534
72054W        W44369   0.415  33.047   4.577
72055W        W44370   0.462  18.119   3.701
72056W        W44371  30.602  19.227  11.544
72057W        W44372  37.163   2.222  12.068
72058W        W44373  43.080  37.643   0.448
72059W        W44374   1.176  33.932   1.342
72060W        W44375   3.429   2.440  10.756
72061W        W44376  22.730  30.113   0.965
72062W        W44377  30.517   9.690  14.056
72063W        W44378  43.745  13.551   1.410
72064W        W44379  27.399  19.891   2.336
72065W        W44380   2.235  33.485   0.621
72066W        W44381  30.869   6.134   1.593
72067W        W44382   5.769  36.937  13.808
72068W        W44383   3.717  25.075   4.156
72069W        W44384  32.303   6.809  12.969
72070W        W44385  44.738  13.736  12.571
72071W        W44386   4.662  23.007  13.739
72072W        W44387   3.715   1.165  13.527
72073W        W44388  14.351  42.538  11.712
72074W        W44389  34.896  21.393   3.852
72075W        W44390  27.741   4.977   2.651
72076W        W44391  11.162  12.394   1.530
72077W        W44392  24.241  17.689  10.713
72078W        W44393  17.050  28.396   3.321
72079W        W44394   8.849  19.765   2.429
72080W        W44395  24.548  41.120  11.443
72081W        W44396  30.946   9.463   0.335
72082W        W44397  21.608  38.269   1.457
72083W        W44398  21.663   4.859   0.892
72084W        W44399  20.053  18.741  12.438
72085W        W44400   9.322   3.155  12.884
72086W        W44401   1.227  24.421  12.044
72087W        W44402  17.713   0.236  12.945
72088W        W44403   8.969  42.721  14.382
72089W        W44404  26.557  11.570   0.376
72090W        W44405  32.473  31.537   3.484
72091W        W44406  36.529   8.958  13.477
72092W        W44407  33.690  15.319  12.008
72093W        W44408  22.121  23.169  14.919
72094W        W44409   2.128  33.820  10.091
72095W        W44410   8.204  10.430   3.708
72096W        W44411  29.782   3.076  12.138
72097W        W44412  14.959  29.243   5.468
72098W        W44413   2.616  14.439  12.075
72099W        W44414   4.631  35.009  14.973
72100W        W44415   5.503  31.483  10.653
72101W        W44416  32.460  37.778   2.795
72102W        W44417  17.219  19.745  10.738
72103W        W44418  20.074  15.152  12.935
72104W        W44419   5.431  23.622  14.370
72105W        W44420  10.162  44.754  12.398
72106W        W44421  37.338   6.704  12.952
72107W        W44422   0.759  42.833  13.583
72108W        W44423  40.840  28.250  11.548
72109W        W44424  15.366  42.579   0.438
72110W        W44425  19.474  42.718   2.776
72111W        W44426   3.799  36.617  12.929
72112W        W44427  11.117  21.781   2.632
72113W        W44428  18.081   9.832  10.681
72114W        W44429  21.111  15.592  12.108
72115W        W44430  37.977   7.900  12.733
72116W        W44431  21.723  29.979   2.612
72117W        W44432  42.002   1.846   3.219
72118W        W44433  14.480  43.610  13.943
72119W        W44434   5.669  31.840   3.840
72120W        W44435  42.915  14.859   4.114
72121W        W44436  24.008  43.913   0.603
72122W        W44437  44.034  41.081  12.989
72123W        W44438   4.830  35.904  14.419
72124W        W44439  38.645  21.260  14.268
72125W        W44440  26.740  10.152  14.427
72126W        W44441  32.027  44.985   4.500
72127W        W44442  17.208   6.314   1.213
72128W        W44443  35.097  14.352  12.966
72129W        W44444  32.434  18.233  12.115
72130W        W44445  38.645   9.431   0.860
72131W        W44446  14.787  38.292   1.308
72132W        W44447  40.568  40.930  10.877
72133W        W44448  29.600  20.532  10.999
72134W        W44449  43.424  44.302  14.275
72135W        W44450   3.312  34.099  12.489
72136W        W44451  17.657  37.445   0.189
72137W        W44452  20.335  43.368  10.689
72138W        W44453  30.394   9.192  13.977
72139W        W44454  16.754  41.244  14.741
72140W        W44455  30.826   8.972  11.196
72141W        W44456  13.348  35.326  14.081
72142W        W44457  25.483  11.299   1.226
72143W        W44458  23.781   6.047   1.908
72144W        W44459  23.474  32.819  12.488
72145W        W44460  27.443  27.018  12.274
72146W        W44461  15.231  36.321   3.862
72147W        W44462  12.802   3.164  14.022
72148W        W44463  20.219   5.466  10.553
72149W        W44464  32.630  40.940   0.332
72150W        W44465  39.275   5.187  11.604
72151W        W44466  24.022  21.828  14.366
72152W        W44467   7.769  36.959  11.761
72153W        W44468  16.878  41.529   4.175
72154W        W44469   1.520  18.191  12.974
72155W        W44470   8.904  23.140   4.183
72156W        W44471  35.180   1.401  12.479
72157W        W44472  12.406  37.343   1.407
72158W        W44473  32.311   1.605  11.156
72159W        W44474  26.011   6.697  10.502
72160W        W44475   3.955  20.986   2.312
72161W        W44476  25.772  43.770  12.460
72162W        W44477   5.892   0.572  10.372
72163W        W44478  23.314  37.939   3.992
72164W        W44479  37.298  22.911   3.786
72165W        W44480  35.850  30.652  13.958
72166W        W44481   5.704  31.618   1.015
72167W        W44482  10.592  43.856   2.729
72168W        W44483  23.963   0.618  12.575
72169W        W44484  40.807  13.316   0.842
72170W        W44485   9.269  35.075   0.187
72171W        W44486   5.901  23.095  10.680
72172W        W44487  30.675  27.236  14.858
72173W        W44488  34.411  27.093  13.323
72174W        W44489   2.131  15.926  10.329
72175W        W44490   4.618  28.063   1.949
72176W        W44491   1.071  14.079   4.642
72177W        W44492  12.906  25.206   1.313
72178W        W44493  15.291  40.866  12.751
72179W        W44494  13.301  41.946  12.880
72180W        W44495   8.951  32.904   2.364
72181W        W44496  33.079  21.484   0.017
72182W        W44497  39.901  38.771   3.917
72183W        W44498  10.392  43.194   0.884
72184W        W44499  36.017  22.609   2.592
72185W        W44500  21.457  19.113  14.003
72186W        W44501  34.971  40.796   1.519
72187W        W44502   9.613  23.920  14.090
72188W        W44503   6.946  42.954   1.199
72189W        W44504  13.718  42.432   1.196
72190W        W44505  21.601   2.424   2.888
72191W        W44506  32.850   5.269   4.059
72192W        W44507   8.224  17.232  13.859
72193W        W44508  35.528   7.935  11.384
72194W        W44509  10.141   0.353   4.572
72195W        W44510  44.515  33.651   2.843
72196W        W44511  32.950  23.872   3.738
72197W        W44512  15.654  35.972  12.524
72198W        W44513  35.043   0.927   3.472
72199W        W44514  28.808  30.619   2.357
72200W        W44515  42.434  23.223  10.398
72201W        W44516  28.483  39.603  11.506
72202W        W44517  14.897  12.240  12.587
72203W        W44518  32.887   3.913  10.476
72204W        W44519  29.418  21.576  12.901
72205W        W44520   8.550  34.132  12.013
72206W        W44521  40.034  11.314  13.008
72207W        W44522  33.981  24.195  12.315
72208W        W44523  40.408   5.965   1.236
72209W        W44524  17.222  30.917  12.180
72210W        W44525   7.381  13.102   1.838
72211W        W44526  31.267   5.006  13.318
72212W        W44527  17.767   3.276  13.069
72213W        W44528  32.719  44.510   2.249
72214W        W44529  42.302  14.767  14.579
72215W        W44530  15.883  14.342  10.691
72216W        W44531  27.095  34.811  13.127
72217W        W44532  43.398  32.139  14.561
72218W        W44533  20.086  21.727   1.395
72219W        W44534  24.266  36.070  14.882
72220W        W44535  27.236  39.743   4.315
72221W        W44536  16.895  17.459  14.387
72222W        W44537  16.954  24.426  12.930
72223W        W44538  15.891   9.836  12.894
72224W        W44539   5.368  20.760  12.969
72225W        W44540   3.480  19.846   4.984
72226W        W44541  33.014  44.522   1.782
72227W        W44542  36.960  12.405  14.764
72228W        W44543  36.685   5.528  12.408
72229W        W44544   1.949  43.308  10.354
72230W        W44545  25.729  29.501   0.253
72231W        W44546   6.164  33.977   1.794
72232W        W44547  35.585   8.738   0.279
72233W        W44548  16.749  11.141   4.235
72234W        W44549  19.764  34.610  13.005
72235W        W44550  23.808  28.010  12.824
72236W        W44551   2.908   9.609  12.404
72237W        W44552  26.240  25.658  10.692
72238W        W44553  35.845  21.390   2.331
72239W        W44554  10.634  12.580  14.443
72240W        W44555  33.911  15.035   0.845
72241W        W44556  28.795  19.707   4.287
72242W        W44557   6.454   3.462  12.355
72243W        W44558  24.746  27.397   4.754
72244W        W44559   7.863  23.059   2.164
72245W        W44560  41.982  39.811  12.053
72246W        W44561  32.847   3.873  12.711
72247W        W44562   9.713  29.873  14.402
72248W        W44563  14.287  39.830   2.758
72249W        W44564   6.648  37.762  14.522
72250W        W44565  39.319   0.201  10.765
72251W        W44566  39.068  38.298  14.814
72252W        W44567  30.854  39.249  12.529
72253W        W44568  30.897   2.729   3.549
72254W        W44569   1.642  14.949   5.056
72255W        W44570  23.043  10.215   2.161
72256W        W44571  33.557   9.407  12.617
72257W        W44572  38.330  24.512  13.903
72258W        W44573  12.805  33.786   0.479
72259W        W44574  23.489  30.402  11.647
72260W        W44575  18.631  11.848  13.017
72261W        W44576   4.247  26.221  13.850
72262W        W44577   1.176   4.258  14.956
72263W        W44578  25.470  20.279  12.366
72264W        W44579  13.759  18.282   2.282
72265W        W44580   3.764   5.143  14.487
72266W        W44581  38.976  27.384   4.627
72267W        W44582  42.361  26.401   4.035
72268W        W44583   7.417   0.721   0.847
72269W        W44584   7.427  39.609  14.771
72270W        W44585  39.609  22.769  13.306
72271W        W44586   7.685  17.884   1.833
72272W        W44587   3.550  43.843   4.040
72273W        W44588  40.474  18.232  12.021
72274W        W44589  43.914   0.791   4.393
72275W        W44590  41.308   2.925  10.578
72276W        W44591   3.276  24.902  12.893
72277W        W44592  17.683  18.686   2.291
72278W        W44593   6.923   2.492   0.169
72279W        W44594  33.979  17.843  10.594
72280W        W44595  39.123  19.741   0.523
72281W        W44596  22.068  27.874   3.232
72282W        W44597  10.719  37.785   4.870
72283W        W44598   1.981  19.568   1.578
72284W        W44599  42.808  10.319   1.329
72285W        W44600  18.504   7.221   0.199
72286W        W44601  10.565  11.100   4.991
72287W        W44602   0.412  13.100   2.096
72288W        W44603  43.897  21.031  10.995
72289W        W44604  43.841  42.485   2.514
72290W        W44605  34.464  19.887   0.932
72291W        W44606  17.722  27.679  14.775
72292W        W44607  31.390  18.186  13.386
72293W        W44608  37.615   0.835  11.626
72294W        W44609  26.233  21.382  12.508
72295W        W44610   0.766   4.436  12.462
72296W        W44611  32.410  22.202  11.449
72297W        W44612  39.361   6.119  11.963
72298W        W44613  40.369  28.949   0.041
72299W        W44614   6.246   9.701  12.017
72300W        W44615   3.800  12.740  14.710
72301W        W44616  25.702  11.824  14.873
72302W        W44617  29.111  30.396  10.560
72303W        W44618  36.966  10.658  11.068
72304W        W44619  21.208  33.402   2.442
72305W        W44620  10.123  19.374   4.126
72306W        W44621   0.309  31.399   0.974
72307W        W44622   4.812  12.134  11.370
72308W        W44623  37.270  14.051   1.230
72309W        W44624  11.299  29.060  11.918
72310W        W44625   7.140  27.694   4.063
72311W        W44626  30.440  44.482  12.455
72312W        W44627  11.894  14.781  10.644
72313W        W44628  26.306  28.732   4.209
72314W        W44629   7.926  17.206   0.462
72315W        W44630  15.612  16.046   2.838
72316W        W44631  19.005   2.972  13.363
72317W        W44632  26.038  10.114   0.818
72318W        W44633  38.048  25.411  10.407
72319W        W44634   3.348  42.297   2.591
72320W        W44635   1.589  25.013   1.389
72321W        W44636  12.843  19.021   3.720
72322W        W44637   9.629  16.721  14.574
72323W        W44638  41.391   6.309  10.698
72324W        W44639  14.324  30.969   2.168
72325W        W44640   2.544  44.583  14.402
72326W        W44641  36.160  41.819   3.736
72327W        W44642  30.698  42.737  12.101
72328W        W44643  37.212  14.318   4.033
72329W        W44644  28.378  21.570  14.937
72330W        W44645   1.188  33.129  14.845
72331W        W44646  28.915  22.959  13.078
72332W        W44647   3.872   8.142   3.641
72333W        W44648  35.110  32.979  12.778
72334W        W44649  40.896  26.370  12.058
72335W        W44650  14.110   1.809   3.187
72336W        W44651  35.497  29.641   1.998
72337W        W44652  13.293  12.473   0.364
72338W        W44653   6.336  18.364  14.360
72339W        W44654   4.364  23.302  12.415
72340W        W44655  33.109  38.352  13.418
72341W        W44656  14.273  17.319  13.530
72342W        W44657   7.867  36.948  12.263
72343W        W44658  16.550  19.104   2.808
72344W        W44659   8.179  26.594  10.881
72345W        W44660   9.700  19.530  13.939
72346W        W44661  12.804  11.070  11.968
72347W        W44662   2.680  37.692   1.046
72348W        W44663  16.371  19.241   0.339
72349W        W44664   4.967  24.820   3.074
72350W        W44665  34.610   1.479   2.840
72351W        W44666  44.554   8.921  10.120
72352W        W44667  35.378  29.465   0.664
72353W        W44668  16.795  34.964  14.173
72354W        W44669  38.889   8.120   4.357
72355W        W44670   2.115  23.696   4.929
72356W        W44671  21.300  19.149   3.952
72357W        W44672  24.626  18.614  10.699
72358W        W44673   0.966  27.090  11.360
72359W        W44674   9.827  40.304   0.206
72360W        W44675  37.539   5.564   1.216
72361W        W44676  30.477  32.604  11.183
72362W        W44677  35.845   7.219   1.634
72363W        W44678  41.455  40.045   0.711
72364W        W44679  17.753  28.275  10.250
72365W        W44680  36.587  10.709  10.709
72366W        W44681  36.969  20.018  11.187
72367W        W44682  43.918  17.566   0.890
72368W        W44683  40.949  15.610   4.158
72369W        W44684  41.893  34.938  10.401
72370W        W44685  41.221  15.359   0.332
72371W        W44686  16.167  13.834   4.265
72372W        W44687   0.065  32.818   2.794
72373W        W44688   6.952  22.329  14.669
72374W        W44689  12.539  11.273   1.667
72375W        W44690  32.524  11.134   0.462
72376W        W44691  26.414   4.938  14.837
72377W        W44692  28.650   7.741  11.043
72378W        W44693   0.895  37.907  13.382
72379W        W44694  29.089   0.162   0.945
72380W        W44695   3.337   7.416  12.631
72381W        W44696  44.994  23.435  13.971
72382W        W44697  35.364  32.049   3.753
72383W        W44698  42.064   1.284  14.473
72384W        W44699  41.509   6.956  11.512
72385W        W44700  43.602  13.362  12.165
72386W        W44701  32.068  22.255  14.372
72387W        W44702  40.797  31.567   4.669
72388W        W44703  40.557  16.852   1.281
72389W        W44704  35.310  19.441   4.170
72390W        W44705  35.779  40.258  11.977
72391W        W44706  11.865  36.057   1.684
72392W        W44707  10.445  40.582   4.204
72393W        W44708   2.160  23.095   3.377
72394W        W44709  17.521   3.835  14.490
72395W        W44710  31.431  43.087  13.892
72396W        W44711  32.918  37.855   2.573
72397W        W44712  15.454   8.526  12.622
72398W        W44713  39.560  19.514   3.617
72399W        W44714  19.087  15.358  10.394
72400W        W44715  16.581  44.910  12.840
72401W        W44716  16.643   8.498  13.367
72402W        W44717  39.331  18.628  13.491
72403W        W44718   3.709   5.413  13.267
72404W        W44719  11.850  36.495  14.058
72405W        W44720  41.877   4.501  12.497
72406W        W44721  42.818  26.017  14.484
72407W        W44722  23.469  27.610  12.942
72408W        W44723  33.408  25.951  14.244
72409W        W44724   7.260  25.813  12.089
72410W        W44725  42.922   3.033  13.680
72411W        W44726  13.256  40.074   0.855
72412W        W44727   1.912  14.286  14.305
72413W        W44728  23.157   9.615   2.929
72414W        W44729  44.426  28.065  12.760
72415W        W44730  32.005  20.743  13.573
72416W        W44731   3.138  27.937   1.774
72417W        W44732   7.647  18.227   3.225
72418W        W44733   5.577  44.705  11.123
72419W        W44734  39.051   9.140   0.960
72420W        W44735  34.105  21.398  14.010
72421W        W44736  22.190  22.290   0.818
72422W        W44737  27.815   3.944  10.671
72423W        W44738   5.814  10.812   3.441
72424W        W44739  37.536  19.341   4.114
72425W        W44740  43.923  34.083  13.979
72426W        W44741  12.728   5.239  13.830
72427W        W44742   5.256  31.178   4.127
72428W        W44743  13.229  17.476   2.240
72429W        W44744  12.577  25.077   3.243
72430W        W44745  17.600  35.589   1.189
72431W        W44746  43.446  44.165   2.759
72432W        W44747  18.715  40.397   5.015
72433W        W44748  40.906  37.499  12.163
72434W        W44749  19.836  41.844   2.593
72435W        W44750  38.254  22.584   1.764
72436W        W44751  23.250   6.433  11.413
72437W        W44752   0.854  24.395   3.738
72438W        W44753  39.936  44.844   2.214
72439W        W44754  38.359   8.235  11.547
72440W        W44755   9.089   0.981   4.094
72441W        W44756   1.276  35.664   4.612
72442W        W44757   9.850  20.942   3.113
72443W        W44758  24.954   2.851   1.156
72444W        W44759  19.699  31.665   4.693
72445W        W44760  27.071  38.604  10.603
72446W        W44761  32.164  38.241  12.033
72447W        W44762  30.533  39.978  11.022
72448W        W44763   1.466  11.754  14.232
72449W        W44764  21.036   6.615   2.150
72450W        W44765  42.749  10.780   4.590
72451W        W44766  41.277   3.709  13.984
72452W        W44767   3.299  10.874   2.221
72453W        W44768  26.223  41.182  11.155
72454W        W44769  35.380   2.306  12.676
72455W        W44770  27.645  22.303   3.812
72456W        W44771   1.388  21.694  13.320
72457W        W44772  41.407  12.306  13.281
72458W        W44773  21.276  12.523   3.279
72459W        W44774   4.769   7.924   2.695
72460W        W44775  27.275   2.742   4.500
72461W        W44776  30.032  36.481  12.099
72462W        W44777  13.587  26.757  12.985
72463W        W44778  28.837  17.148  10.721
72464W        W44779   7.139  20.883  13.393
72465W        W44780   4.305  11.104  13.788
72466W        W44781   0.134  42.273   1.177
72467W        W44782  21.713  16.173   3.302
72468W        W44783   1.013   8.049  13.333
72469W        W44784  44.668  33.176   0.194
72470W        W44785  38.031  20.743   4.841
72471W        W44786  22.901  11.158   0.512
72472W        W44787   5.149  18.991  12.008
72473W        W44788  32.571   4.201  13.833
72474W        W44789  19.794  40.533   1.011
72475W        W44790  17.354  18.704   3.155
72476W        W44791  22.615   9.145   4.233
72477W        W44792  18.130  17.300  12.563
72478W        W44793  43.920  14.820   3.848
72479W        W44794  37.905  20.020   3.362
72480W        W44795  22.673  42.750  13.153
72481W        W44796   5.845  22.187  10.761
72482W        W44797  30.371  40.368  13.338
72483W        W44798   5.196  27.261  10.687
72484W        W44799  40.920  21.616   2.364
72485W        W44800  38.829  29.104   1.432
72486W        W44801  34.445   3.051  11.550
72487W        W44802  11.610  17.639  11.159
72488W        W44803  16.404  26.597  11.226
72489W        W44804  21.469   6.663   3.702
72490W        W44805   1.440   8.231  11.716
72491W        W44806  16.133  18.804   2.778
72492W        W44807   1.498  27.706  12.604
72493W        W44808  40.764  39.074  11.799
72494W        W44809  23.259   9.289  11.610
72495W        W44810  22.598  25.787   0.936
72496W        W44811  26.899  13.748   1.807
72497W        W44812   0.269  22.139  11.618
72498W        W44813   2.262  39.169  12.540
72499W        W44814  32.017  41.804   3.451
72500W        W44815  23.198   9.323  13.849
72501W        W44816   9.412  18.760  13.437
72502W        W44817  36.517  35.033   4.209
72503W        W44818  39.758  25.963   3.176
72504W        W44819   8.167   2.501  14.849
72505W        W44820   9.372   5.747  10.392
72506W        W44821   3.205  14.513  11.928
72507W        W44822  12.091  25.288   4.967
72508W        W44823   9.307  15.071  11.099
72509W        W44824  19.034   9.613   1.923
72510W        W44825   0.310  38.883   0.075
72511W        W44826  22.960  28.536  12.994
72512W        W44827   5.321  33.173   0.723
72513W        W44828  41.924  20.981   4.425
72514W        W44829   6.744  32.604   1.276
72515W        W44830   4.666  32.394   0.790
72516W        W44831  11.114  14.590  13.081
72517W        W44832  22.750  26.027   4.161
72518W        W44833  13.730  22.122   0.637
72519W        W44834  31.147  36.579   4.964
72520W        W44835   3.833  10.107   1.604
72521W        W44836  39.929  11.947   1.212
72522W        W44837   9.858  24.819  14.354
72523W        W44838   4.867  20.773  13.793
72524W        W44839  33.536   4.682  14.517
72525W        W44840   5.975  14.824   3.782
72526W        W44841  37.332  31.600  10.993
72527W        W44842  12.141   8.049  12.244
72528W        W44843  34.575  36.377  14.319
72529W        W44844  27.521  20.193   4.242
72530W        W44845  22.029  21.643   0.378
72531W        W44846  37.364  34.505  13.008
72532W        W44847  36.455   9.361   3.316
72533W        W44848  37.492  19.766   0.733
72534W        W44849  11.127  32.830   2.713
72535W        W44850   6.261  21.923   9.885
72536W        W44851  39.240  40.813   3.337
72537W        W44852  25.641  22.986  13.456
72538W        W44853  25.548   3.846   1.719
72539W        W44854   9.111  43.642  11.526
72540W        W44855   0.663  43.045  13.097
72541W        W44856   3.077  28.286   4.149
72542W        W44857  11.283  41.266  12.405
72543W        W44858   0.480   8.777   2.952
72544W        W44859  15.055  20.260  14.797
72545W        W44860  27.983  38.542  13.238
72546W        W44861  11.134  11.337   3.801
72547W        W44862  10.722   1.892  11.178
72548W        W44863  43.285   9.333  13.973
72549W        W44864  34.664  15.337  12.087
72550W        W44865  34.386   9.797  14.694
72551W        W44866  31.388  11.598  14.970
72552W        W44867  20.841   6.127  10.822
72553W        W44868  12.791   9.147  11.120
72554W        W44869  25.166   7.836   2.587
72555W        W44870  20.015  16.986  10.131
72556W        W44871  31.391  41.834   3.881
72557W        W44872  25.225  38.945  14.501
72558W        W44873  32.969  31.254   5.103
72559W        W44874   0.174  23.111  12.469
72560W        W44875  10.741  10.635   2.699
72561W        W44876  29.204  42.858  12.750
72562W        W44877  18.687  36.988  13.357
72563W        W44878  44.759  10.656   0.350
72564W        W44879  41.965  25.656  13.143
72565W        W44880  41.487  29.088   0.349
72566W        W44881  10.647  40.463  13.393
72567W        W44882   8.635  13.653   4.469
72568W        W44883  14.545  34.437  12.443
72569W        W44884  43.986  43.493  14.376
72570W        W44885  44.007  26.429   2.793
72571W        W44886   5.757  16.089  12.057
72572W        W44887  10.181  27.503  14.304
72573W        W44888  37.316  10.573  14.159
72574W        W44889  21.543  37.580   4.634
72575W        W44890   1.866  36.165   3.583
72576W        W44891   7.640  23.504  11.969
72577W        W44892   2.287  12.133   4.247
72578W        W44893   1.503  38.271  11.106
72579W        W44894   3.334  12.740  12.180
72580W        W44895  15.409  27.254  10.263
72581W        W44896  31.515  21.679  13.947
72582W        W44897  17.695  29.551  10.802
72583W        W44898  33.752  40.551   4.470
72584W        W44899  35.199   8.106  11.029
72585W        W44900  26.144  37.059   2.180
72586W        W44901  28.851  20.064  14.071
72587W        W44902  34.706   3.242  11.967
72588W        W44903  42.407  41.410  13.261
72589W        W44904  28.240  18.124   1.375
72590W        W44905  38.288  42.337  14.655
72591W        W44906  16.949   9.813   3.219
72592W        W44907  31.471  41.554  12.987
72593W        W44908  28.932   9.237   1.266
72594W        W44909   3.585  26.672   0.479
72595W        W44910  30.880  29.628  14.824
72596W        W44911  14.536  10.311   3.222
72597W        W44912  23.488  22.722   3.751
72598W        W44913   0.187  18.234  14.056
72599W        W44914   2.960  36.895  11.589
72600W        W44915   2.377  19.465  12.103
72601W        W44916  13.588  20.631   2.444
72602W        W44917  26.172  23.555  11.811
72603W        W44918  26.972   5.852   2.531
72604W        W44919   8.785   4.001  14.075
72605W        W44920  44.292  37.554  14.628
72606W        W44921   7.371  21.199   0.168
72607W        W44922  18.702  37.607  14.101
72608W        W44923  15.294  27.153  10.747
72609W        W44924  14.885  28.206   4.816
72610W        W44925  36.296  30.643   5.007
72611W        W44926  18.674  14.165   1.899
72612W        W44927  34.536  13.224  11.112
72613W        W44928   3.277  26.222   0.392
72614W        W44929  44.452  29.575   0.473
72615W        W44930  25.091   9.707  14.787
72616W        W44931   9.783   9.670  14.787
72617W        W44932  16.013  30.050  12.005
72618W        W44933  12.299  28.865  12.877
72619W        W44934  44.835  19.892  13.408
72620W        W44935  11.453  21.131   4.532
72621W        W44936  19.175  16.275  14.772
72622W        W44937  39.494  15.770   3.564
72623W        W44938  34.961  11.108  11.571
72624W        W44939  36.527   6.245   2.896
72625W        W44940  27.760  18.302   2.993
72626W        W44941  22.765  41.240   4.151
72627W        W44942   0.537  35.920  10.956
72628W        W44943  15.633  37.681   5.062
72629W        W44944  22.082  21.115   2.645
72630W        W44945  20.864  13.843  11.426
72631W        W44946  18.203  24.031   2.719
72632W        W44947   6.405  33.209   3.264
72633W        W44948   0.287  36.411   3.374
72634W        W44949   8.878  15.534   4.234
72635W        W44950  42.990  39.934   4.056
72636W        W44951   1.456  29.920  13.611
72637W        W44952  30.060   0.279   0.988
72638W        W44953  30.012  10.567   0.435
72639W        W44954  33.528   2.016  11.518
72640W        W44955   2.707  31.615  11.435
72641W        W44956  34.011   8.264   3.470
72642W        W44957  26.024  30.242  10.675
72643W        W44958  11.814  33.891  11.627
72644W        W44959  29.263   7.382  12.324
72645W        W44960  36.851  35.555   2.712
72646W        W44961  33.566   7.477  10.733
72647W        W44962  28.391  38.011  12.974
72648W        W44963  39.367  33.642  10.644
72649W        W44964  40.981  18.633   2.859
72650W        W44965   3.838  24.280  14.968
72651W        W44966   3.319   4.895  12.933
72652W        W44967   8.771  25.692  12.831
72653W        W44968  28.831  31.608  12.417
72654W        W44969  18.809  36.204   0.851
72655W        W44970   9.393  38.094   0.753
72656W        W44971  40.768  10.181  14.013
72657W        W44972  20.095  12.143   4.772
72658W        W44973  44.210  37.925   3.294
72659W        W44974   6.784  33.202   4.033
72660W        W44975   9.931  43.981  10.838
72661W        W44976  31.824  20.975  14.895
72662W        W44977  42.361  22.606  10.700
72663W        W44978  41.873  19.743   2.536
72664W        W44979   4.277  44.003   1.001
72665W        W44980   5.115   5.336   0.607
72666W        W44981  34.986  31.066  10.691
72667W        W44982  20.842  13.965   3.281
72668W        W44983  32.738  34.710  11.504
72669W        W44984  12.199   9.690   4.474
72670W        W44985  43.564  22.270  12.435
72671W        W44986  42.464  29.837  12.074
72672W        W44987  33.626  23.916   0.764
72673W        W44988  23.705  44.431  13.003
72674W        W44989  39.845  23.393  10.208
72675W        W44990   1.311  42.796   0.532
72676W        W44991  41.737  28.144  12.918
72677W        W44992  42.091  26.854   4.226
72678W        W44993  20.237  22.253   1.925
72679W        W44994   2.354  16.662  13.827
72680W        W44995   5.326  19.031   4.222
72681W        W44996   9.178  14.203  12.568
72682W        W44997  13.426  44.533   3.741
72683W        W44998   4.330  19.597   5.117
72684W        W44999  43.198  16.295  13.925
72685W        W45000  20.973  44.329  14.663
72686W        W45001  11.727  29.412   4.991
72687W        W45002  34.495   9.423   4.672
72688W        W45003  25.588  14.777   4.059
72689W        W45004  28.592  33.641  10.163
72690W        W45005   9.807  39.362  10.695
72691W        W45006  23.722  28.843  14.865
72692W        W45007  18.514  23.432   0.893
72693W        W45008   7.852  22.019   3.767
72694W        W45009   7.722   2.342  12.281
72695W        W45010  26.962   8.949   0.544
72696W        W45011  32.462  31.610  12.073
72697W        W45012   8.734  14.505   1.233
72698W        W45013  29.900  37.037   2.807
72699W        W45014  44.005  29.839   2.590
72700W        W45015  33.160   4.538  11.523
72701W        W45016   6.825  40.043   3.625
72702W        W45017  20.692  16.168   4.696
72703W        W45018  43.485  39.353   3.058
72704W        W45019  34.536   2.489  13.883
72705W        W45020  42.657  20.496   3.385
72706W        W45021  39.006  30.637   2.294
72707W        W45022   8.158  14.179  14.310
72708W        W45023  39.071  20.825  12.540
72709W        W45024  29.113  22.020   3.583
72710W        W45025  10.846  36.974  14.285
72711W        W45026   7.573  32.046   4.334
72712W        W45027  10.581  26.887  11.543
72713W        W45028   7.731  43.021   2.339
72714W        W45029  44.878  14.575   4.205
72715W        W45030  42.980  16.210  12.478
72716W        W45031   1.720  13.783  10.728
72717W        W45032   7.890  10.309   1.212
72718W        W45033   8.754  25.733   1.280
72719W        W45034   5.348  42.460  14.310
72720W        W45035  28.410  34.404  13.461
72721W        W45036  27.941  36.000   4.279
72722W        W45037  33.822  33.005   4.521
72723W        W45038  38.836  33.552   5.082
72724W        W45039  29.201  42.178   1.722
72725W        W45040  36.001   4.947   4.813
72726W        W45041  12.797  19.536  12.533
72727W        W45042  25.953  41.221   1.355
72728W        W45043  27.872  40.763  13.527
72729W        W45044  28.640  11.843  12.563
72730W        W45045  25.432  12.267   1.365
72731W        W45046  43.887  11.432  12.459
72732W        W45047  27.559  36.411  14.371
72733W        W45048  18.639   3.714  13.063
72734W        W45049  10.652  31.022  12.650
72735W        W45050  32.013  10.647   2.338
72736W        W45051   1.431   7.872   1.271
72737W        W45052   2.682  31.567   0.367
72738W        W45053  22.827  35.431   3.714
72739ION    NA+45054  15.618   3.292   4.667
72740ION    NA+45055   5.171  20.070   0.036
72741ION    NA+45056  14.145   9.059  11.803
72742ION    NA+45057  28.192  37.524  14.204
72743ION    NA+45058  15.458   5.848  14.899
72744ION    NA+45059  40.577  20.716  11.206
72745ION    NA+45060  28.001  30.404   0.297
72746ION    NA+45061  27.553   6.339   2.000
72747ION    NA+45062  42.010   1.295  10.798
72748ION    NA+45063  38.559  33.961  13.337
72749ION    NA+45064   1.421  11.612   4.577
72750ION    NA+45065  21.197  24.172  14.153
72751ION    NA+45066   0.406  36.108  12.368
72752ION    NA+45067  21.075  29.129   0.963
72753ION    NA+45068  11.812   3.428   2.306
72754ION    NA+45069  30.077  19.258   1.447
72755ION    NA+45070  27.738  10.892   1.772
72756ION    NA+45071   9.691  30.715   3.934
72757ION    NA+45072  28.421   5.193  13.426
72758ION    NA+45073   6.239  34.408  14.864
72759ION    NA+45074   3.713   3.418   3.201
72760ION    NA+45075  23.538  33.564  13.866
72761ION    NA+45076  26.687  15.320   3.265
72762ION    NA+45077  21.447  38.063  12.319
72763ION    NA+45078  29.393   0.073   4.912
72764ION    NA+45079  18.963   2.035  12.272
72765ION    NA+45080  33.467  25.044   3.653
72766ION    NA+45081  36.563  25.965   4.097
72767ION    NA+45082  11.486  37.788   2.745
72768ION    NA+45083  20.037   8.632   3.263
72769ION    NA+45084  29.848  44.809   3.193
72770ION    NA+45085   2.620  34.776  11.931
72771ION    NA+45086   0.202   2.735  11.312
72772ION    NA+45087   4.635  21.120  12.376
72773ION    NA+45088  19.959  31.281  10.558
72774ION    NA+45089  16.429  34.555   3.544
72775ION    NA+45090  34.800   8.976   2.056
72776ION    NA+45091  29.612  20.335  11.566
72777ION    NA+45092  42.791  24.963   3.106
72778ION    NA+45093  20.377  14.161   4.156
72779ION    NA+45094  27.177  40.265   4.368
72780ION    NA+45095   2.599  15.910   3.045
72781ION    NA+45096  33.408  41.742   0.912
72782ION    NA+45097  26.289   3.554   0.525
72783ION    NA+45098  43.570  10.012   0.115
72784ION    NA+45099  20.610  32.623  13.316
72785ION    NA+45100  42.485  12.904   0.794
72786ION    NA+45101  27.292  40.198   0.511
72787ION    NA+45102  38.540  38.764  14.193
72788ION    NA+45103  29.605  28.345  13.129
72789ION    NA+45104  17.720  34.446   1.400
72790ION    NA+45105   2.403  26.223  13.092
72791ION    NA+45106  22.222   6.839  13.352
72792ION    NA+45107   3.807  43.178   2.599
72793ION    NA+45108  24.758  31.038  14.318
72794ION    NA+45109   3.588  27.310  12.287
72795ION    NA+45110   4.314  37.402   1.285
72796ION    NA+45111   8.592  41.809   0.111
72797ION    NA+45112  22.726  18.288   1.706
72798ION    NA+45113  44.828  15.238  12.842
72799ION    NA+45114  23.442  30.736   0.145
72800ION    NA+45115  19.695  43.368   0.717
72801ION    NA+45116   0.944   6.787  10.711
72802ION    NA+45117   2.837   7.242  10.899
72803ION    NA+45118  18.951   3.287  14.104
72804ION    NA+45119  34.803  31.526  14.521
72805ION    NA+45120  16.059  31.661   2.697
72806ION    NA+45121  44.324  17.715  13.157
72807ION    NA+45122   9.128  13.563  10.409
72808ION    NA+45123  30.440  22.276   2.948
72809ION    NA+45124  39.575  27.081   1.864
72810ION    NA+45125   8.910   9.794  11.405
72811ION    NA+45126  28.042  19.446   9.808
72812ION    NA+45127   4.765  44.579  11.763
72813ION    NA+45128   2.478  39.836  13.750
72814ION    NA+45129  35.293   5.016  13.490
72815ION    NA+45130  25.768   4.501  12.911
72816ION    NA+45131  14.351  35.854   0.508
72817ION    NA+45132  16.719  16.031  11.875
72818ION    NA+45133  33.431   4.489   3.984
72819ION    NA+45134   6.843  30.375  13.511
72820ION    NA+45135   7.194  25.826   4.683
72821ION    NA+45136  34.485  20.707   3.255
72822ION    NA+45137   6.176  10.182   4.101
72823ION    NA+45138   1.380   4.714   0.178
72824ION    NA+45139   1.350   6.836   0.675
72825ION    NA+45140  35.893   7.572  14.250
72826ION    NA+45141  28.522  34.171  10.080
72827ION    NA+45142  34.098  12.244   3.676
72828ION    NA+45143  23.677   6.259  10.358
72829ION    NA+45144  41.565   6.022  11.105
72830ION    NA+45145  12.252  15.449  11.193
72831ION    NA+45146  39.804  13.729   2.526
72832ION    NA+45147   8.851   7.093  11.129
72833ION    NA+45148   9.031  16.538   4.992
72834ION    NA+45149  41.966  19.489   0.747
72835ION    NA+45150   5.321   0.052  12.506
72836ION    NA+45151  34.258  27.509  13.041
72837ION    NA+45152   8.565  30.596  13.303
72838ION    NA+45153   3.508   2.873  14.724
72839ION    NA+45154  27.429   9.319  10.759
72840ION    NA+45155  24.494  25.948  10.719
72841ION    NA+45156  37.468  10.726  12.044
72842ION    NA+45157   6.115  13.664   3.689
72843ION    NA+45158  16.524  42.669  12.854
72844ION    NA+45159  37.062  32.648   1.419
72845ION    NA+45160  21.081   9.149  10.818
72846ION    NA+45161  14.750  29.950   1.456
72847ION    NA+45162  14.715  44.521  12.377
72848ION    NA+45163  14.754  42.778  10.186
72849ION    NA+45164  26.954   0.874   4.898
72850ION    NA+45165  11.781  25.094   0.907
72851ION    NA+45166   6.114  18.604   3.267
72852ION    NA+45167  13.931   2.099   0.780
72853ION    NA+45168  13.908  39.035   3.065
72854ION    NA+45169  41.069  19.257  13.344
72855ION    NA+45170  36.387  35.868   5.158
72856ION    NA+45171  22.279  42.190  11.864
72857ION    NA+45172  20.519  31.085   3.653
72858ION    NA+45173  21.508   6.153  12.856
72859ION    NA+45174   7.413  11.607  13.384
72860ION    NA+45175  35.656  31.147  10.539
72861ION    NA+45176  37.072  15.185   4.180
72862ION    NA+45177  41.681  44.029  11.710
72863ION    NA+45178  29.093  18.361  12.924
72864ION    NA+45179  11.356  18.144  14.511
72865ION    NA+45180  21.608  41.296  12.496
72866ION    NA+45181  10.570  15.675   9.758
72867ION    NA+45182  19.668  33.486   0.926
72868ION    NA+45183   5.917  32.871  12.594
72869ION    NA+45184  19.627  15.385  10.382
72870ION    NA+45185  41.730  20.822  12.263
72871ION    NA+45186  38.614  14.315  13.401
72872ION    NA+45187  33.165  26.330  13.929
72873ION    NA+45188  42.348  39.570  12.349
72874ION    NA+45189  42.428   8.301   3.550
72875ION    NA+45190   4.717  16.101  14.805
72876ION    NA+45191  43.486  43.517  13.084
72877ION    NA+45192   9.449  16.453   0.036
72878ION    NA+45193  18.061  30.155   5.076
72879ION    NA+45194  19.748  39.592  12.347
72880ION    NA+45195  40.804  34.623   3.992
72881ION    NA+45196  16.531   2.163   0.096
72882ION    NA+45197  36.578  43.111   0.035
72883ION    NA+45198  37.612  24.974   4.684
72884ION    NA+45199  35.686  42.792   3.994
72885ION    NA+45200  32.367  32.337   0.774
72886ION    NA+45201   3.741   4.557  10.209
72887ION    NA+45202  23.198  44.998   0.768
72888ION    NA+45203   5.618  24.762   0.332
72889ION    NA+45204  30.856  13.843  10.689
72890ION    NA+45205  43.863  30.136   4.208
72891ION    NA+45206   7.642  10.769   4.402
72892ION    NA+45207  27.420  18.803   0.219
72893ION    NA+45208   1.999   5.389  14.084
72894ION    NA+45209  28.524  20.752  13.238
72895ION    NA+45210  38.155  43.399   3.615
72896ION    NA+45211  13.298  31.614  13.463
72897ION    NA+45212  15.418  13.097  10.669
72898ION    NA+45213  13.141  44.355   4.221
72899ION    NA+45214  26.696  34.016   2.253
72900ION    NA+45215  38.437  13.472  13.157
72901ION    NA+45216  13.770   6.804   2.600
72902ION    NA+45217  44.472  28.516  11.851
72903ION    NA+45218  29.540  42.834  12.035
72904ION    NA+45219  34.775   5.704  13.182
72905ION    NA+45220   5.578  17.032   3.359
72906ION    NA+45221  34.404   6.747   2.293
72907ION    NA+45222  33.352  36.554  14.872
72908ION    NA+45223  22.988  31.229  10.617
72909ION    NA+45224  28.540  17.481  14.244
72910ION    NA+45225  16.920   4.400  12.962
72911ION    NA+45226   0.220  38.311  10.615
72912ION    NA+45227   6.762  44.703   4.750
72913ION    NA+45228   1.844  35.999  14.048
72914ION    NA+45229  38.274  18.962  12.133
72915ION    NA+45230  34.667  17.000  12.562
72916ION    NA+45231  29.922  13.115   4.678
72917ION    NA+45232  10.328  29.099  10.794
72918ION    NA+45233  38.107  38.070   0.901
72919ION    NA+45234  24.820  19.990   2.678
72920ION    NA+45235  21.329   9.576   0.259
72921ION    NA+45236  10.359  11.873   1.941
72922ION    NA+45237  13.446   7.051   5.115
72923ION    NA+45238   3.148  20.756  11.322
72924ION    NA+45239  22.788  18.173  11.030
72925ION    NA+45240  11.946   5.547   2.805
72926ION    NA+45241  19.228  30.637  12.388
72927ION    NA+45242  13.638  25.209  11.252
72928ION    NA+45243  44.829  12.365   3.293
72929ION    NA+45244  41.310  38.050   4.245
72930ION    NA+45245   9.125  37.359  10.735
72931ION    NA+45246  22.664  37.621   2.396
72932ION    NA+45247   6.042   8.666   4.222
72933ION    NA+45248  39.252  28.236   4.712
72934ION    NA+45249   3.224  26.439  14.036
72935ION    NA+45250  25.052  41.601  13.497
72936ION    NA+45251  18.254  10.866  14.931
72937ION    NA+45252  22.153  17.106   1.172
72938ION    NA+45253  11.183  29.700   2.191
72939ION    NA+45254  21.095  10.263  13.546
72940ION    NA+45255   3.800  19.661   0.801
72941ION    NA+45256  43.313  21.114   0.023
72942ION    NA+45257  32.026  42.516  11.744
72943ION    NA+45258  17.075   7.170   1.858
72944ION    NA+45259  36.352  14.036  11.002
72945ION    NA+45260  24.048  22.667   0.504
72946ION    NA+45261  13.458   1.478   1.408
72947ION    NA+45262   8.066  12.126  11.186
72948ION    NA+45263  32.420  40.553   4.260
72949ION    NA+45264  32.753  16.498   3.566
72950ION    NA+45265   5.345  18.107  11.673
72951ION    NA+45266  36.286  19.171   2.612
72952ION    NA+45267  11.444  44.670  14.026
72953ION    NA+45268   1.468  43.480  10.692
72954ION    NA+45269  20.662  12.677   4.302
72955ION    NA+45270  14.830   0.323  10.910
72956ION    NA+45271  26.861  21.515   4.125
72957ION    NA+45272   9.459  18.580   3.252
72958ION    NA+45273  13.614   6.433  11.996
72959ION    NA+45274  16.785  34.119  13.147
72960ION    NA+45275  31.821  24.343  11.558
72961ION    NA+45276   9.396   6.257  12.746
72962ION    NA+45277  36.138   6.215  12.819
72963ION    NA+45278  24.520  19.562   4.135
72964ION    NA+45279  19.679  12.689  13.782
72965ION    NA+45280  33.563  28.971  11.418
72966ION    NA+45281  38.009  35.139   1.877
72967ION    NA+45282  25.545  13.623  12.601
72968ION    NA+45283   6.200  23.319   1.940
72969ION    NA+45284  39.489   6.817  13.773
72970ION    NA+45285   5.607   2.053  12.378
72971ION    NA+45286   1.237  11.748  11.937
72972ION    NA+45287  37.686  20.862  14.269
72973ION    NA+45288  31.382  33.784  13.106
72974ION    NA+45289  35.329   8.797  10.374
72975ION    NA+45290  11.499  24.444   3.162
72976ION    NA+45291  41.169  30.682   2.689
72977ION    NA+45292  18.860   4.486  11.139
72978ION    NA+45293   7.891  33.431  11.562
72979ION    NA+45294  28.098  38.398   1.637
72980ION    NA+45295   5.587  39.322  13.797
72981ION    NA+45296   1.780  42.516   2.620
72982ION    NA+45297  10.699  37.187   1.665
72983ION    NA+45298   3.467  33.126  12.230
72984ION    NA+45299  27.701  19.242  10.869
72985ION    NA+45300  30.915  28.965   3.402
72986ION    NA+45301  32.648  28.361  13.024
72987ION    NA+45302   1.385  16.570  12.739
72988ION    NA+45303  32.779  19.740  11.138
72989ION    NA+45304  11.187   2.412  13.529
72990ION    NA+45305   7.126  38.074  13.074
72991ION    NA+45306  14.531  16.165   0.662
72992ION    NA+45307  10.189  16.961  14.596
72993ION    NA+45308  30.162  37.802   2.560
72994ION    NA+45309  14.384  12.764  12.099
72995ION    NA+45310  10.788  44.889   0.308
72996ION    NA+45311  35.583  42.497   1.714
72997ION    NA+45312  41.265   6.602   0.772
72998ION    NA+45313  44.034  43.947   1.433
72999ION    NA+45314   8.915  24.545   2.599
73000ION    NA+45315  26.265  38.467   4.299
73001ION    NA+45316  34.075  32.152   2.310
73002ION    NA+45317  40.566  26.330   2.359
73003ION    NA+45318  34.370  17.417   1.163
73004ION    NA+45319  10.510  18.960   4.023
73005ION    NA+45320  20.079  32.157   1.661
73006ION    NA+45321  41.389  31.656  10.735
73007ION    NA+45322  42.336  28.294   3.227
73008ION    NA+45323  32.357  37.360   4.523
73009ION    NA+45324  31.341  10.075   4.130
73010ION    NA+45325  12.994  37.319   2.219
73011ION    NA+45326  13.000  32.138  14.614
73012ION    NA+45327  37.412  13.282  12.158
73013ION    NA+45328   3.149  28.152   3.146
73014ION    NA+45329   0.695   7.907  11.588
73015ION    NA+45330  37.610  18.764   1.463
73016ION    NA+45331  41.548  33.326   3.167
73017ION    NA+45332  12.668  13.754  13.720
73018ION    NA+45333   8.905  27.580  10.627
73019ION    NA+45334  16.235   7.762   0.348
73020ION    NA+45335  34.464  17.855  13.039
73021ION    NA+45336   3.362  24.321   4.582
73022ION    NA+45337   2.019  16.844   4.097
73023ION    NA+45338   8.910  38.663   4.796
73024ION    NA+45339  27.603  16.442  13.661
73025ION    NA+45340  43.608  44.908  11.202
73026ION    NA+45341  39.392  31.367   4.500
73027ION    NA+45342  19.559  38.105   2.309
73028ION    NA+45343  12.062  41.912   3.498
73029ION    NA+45344  18.024   5.449  14.317
73030ION    NA+45345  37.275  40.542   5.312
73031ION    NA+45346  44.656   2.631  11.994
73032ION    NA+45347  17.293  17.540   0.191
73033ION    NA+45348   4.449  29.345  12.992
73034ION    NA+45349  42.019  17.316  11.344
73035ION    NA+45350  15.847  43.309  11.508
73036ION    NA+45351  20.976  12.116   0.315
73037ION    NA+45352  30.261  10.334   1.320
73038ION    NA+45353  40.592  43.381  12.569
73039ION    NA+45354   9.554  43.615  10.849
73040ION    NA+45355  10.927   3.387  11.216
73041ION    NA+45356  29.111  13.700   4.672
73042ION    NA+45357   4.948  21.273   1.314
73043ION    NA+45358  25.083  22.504  14.892
73044ION    NA+45359  44.584  42.455   3.328
73045ION    NA+45360  34.545  34.070  14.018
73046ION    NA+45361  27.845  32.117   0.273
73047ION    NA+45362  13.264  25.138   0.892
73048ION    NA+45363  42.379  13.318   1.937
73049ION    NA+45364  25.761  10.074   1.269
73050ION    NA+45365  38.948  41.751   4.321
73051ION    NA+45366   3.872  18.031  11.286
73052ION    NA+45367   7.924  14.690   1.724
73053ION    NA+45368  29.085  38.146  12.521
73054ION    NA+45369  16.227  21.551   2.303
73055ION    NA+45370  43.513  38.505   0.308
73056ION    NA+45371  32.036  30.398   0.560
73057ION    NA+45372  41.072  16.243  12.509
73058ION    NA+45373  22.765  28.985  14.762
73059ION    NA+45374  33.874  16.478  11.331
73060ION    NA+45375  14.871  42.494  14.331
73061ION    NA+45376  41.870  42.520  12.450
73062ION    NA+45377  43.165  25.893   1.023
73063ION    NA+45378  43.967  32.016  12.478
73064ION    NA+45379  22.478  17.984  11.962
73065ION    NA+45380  29.066  22.052  12.890
73066ION    NA+45381  21.554  27.110   1.066
73067ION    NA+45382  37.878  14.734   2.906
73068ION    NA+45383  24.339  13.019   0.222
73069ION    NA+45384  31.540  43.789   2.458
73070ION    NA+45385   9.317  34.374  11.009
73071ION    NA+45386  23.626  33.876   0.711
73072ION    NA+45387   3.738  31.461  14.213
73073ION    NA+45388  31.549  23.482   2.350
73074ION    NA+45389  24.945  18.608  11.140
73075ION    NA+45390  13.947  41.542  11.802
73076ION    NA+45391  18.838  30.472  14.860
73077ION    NA+45392  33.909  19.024  11.567
73078ION    NA+45393   0.718  18.357   1.335
73079ION    NA+45394   6.894  15.169  13.576
73080ION    NA+45395  35.845   3.788   2.833
73081ION    NA+45396  15.616  12.176  13.333
73082ION    NA+45397  21.069  11.822  14.364
73083ION    NA+45398  17.780  11.275   3.153
73084ION    NA+45399  11.573  36.570   3.428
73085ION    NA+45400  28.952  34.214   2.439
73086ION    NA+45401   5.941   9.904  13.021
73087ION    NA+45402  18.629   4.868  13.527
73088ION    NA+45403  27.589   3.160  12.464
73089ION    NA+45404   7.053  32.497   3.163
73090ION    NA+45405   2.814  21.168  13.126
73091ION    NA+45406  10.724  11.263  10.802
73092ION    NA+45407  19.890   3.751  14.034
73093ION    NA+45408   0.532  33.273  11.278
73094ION    NA+45409  38.719   4.489  14.315
73095ION    NA+45410   6.675  41.240  12.820
73096ION    NA+45411  15.747  38.409   0.922
73097ION    NA+45412  31.028  38.571   1.903
73098ION    NA+45413  22.281  28.251   1.951
73099ION    NA+45414  43.790  30.462   1.184
73100ION    NA+45415  38.988  15.758   4.798
73101ION    NA+45416  17.219  39.977   2.685
73102ION    NA+45417   5.095  11.765   3.694
73103ION    NA+45418  19.373  12.337  12.682
73104ION    NA+45419   5.732   2.236   0.526
73105ION    NA+45420   5.920  25.126   9.876
73106ION    NA+45421  40.942  25.701  13.020
73107ION    NA+45422   6.467  37.812  10.531
73108ION    NA+45423  37.016  24.229   5.233
73109ION    NA+45424  35.555  37.544  13.797
73110ION    NA+45425  18.445  37.662   4.808
73111ION    NA+45426  26.493  42.917  12.270
73112ION    NA+45427   3.193  40.373   3.838
73113ION    NA+45428  14.977   8.574  12.445
73114ION    NA+45429  39.729  23.530   0.587
73115ION    NA+45430   0.331  39.091  11.232
73116ION    NA+45431  22.925  22.198  12.466
73117ION    NA+45432   8.729   5.879   3.424
73118ION    NA+45433   2.020  44.987  11.463
73119ION    NA+45434  33.436  29.133   0.752
73120ION    NA+45435   0.474  35.947   3.528
73121ION    NA+45436  36.706  15.811  13.429
73122ION    NA+45437  19.850  31.281   1.744
73123ION    NA+45438  15.680  18.403  11.441
73124ION    NA+45439  12.260  44.815   2.842
73125ION    NA+45440  42.744  29.985  13.007
73126ION    NA+45441  28.934  20.856   4.234
73127ION    NA+45442  35.065   4.327   3.657
73128ION    NA+45443  16.536  44.152   1.111
73129ION    NA+45444   1.355  25.693   0.279
73130ION    NA+45445  17.555   8.598   4.158
73131ION    NA+45446  25.857  37.093  11.292
73132ION    NA+45447   6.097   5.204  12.779
73133ION    NA+45448  14.188  43.832   2.725
73134ION    NA+45449   7.282   6.367  10.712
73135ION    NA+45450  33.991  41.420  11.374
73136ION    NA+45451  10.297  17.034  13.199
73137ION    NA+45452  33.585  29.986  12.111
73138ION    NA+45453  15.626  37.976  13.331
73139ION    NA+45454  29.670  11.360  14.132
73140ION    NA+45455   5.669  24.979   1.696
73141ION    NA+45456  22.166  16.945   3.280
73142ION    NA+45457  37.122  19.011  10.371
73143ION    NA+45458  43.053  29.942  10.792
73144ION    NA+45459   1.226  43.683  13.052
73145ION    NA+45460  15.562  24.657  11.442
73146ION    NA+45461  34.212  29.906  14.916
73147ION    NA+45462  36.831   3.435  11.716
73148ION    NA+45463  43.345   6.407  10.661
73149ION    NA+45464   2.954  13.500   1.620
73150ION    NA+45465  35.045  12.715   4.259
73151ION    NA+45466  20.333  37.991  13.306
73152ION    NA+45467  28.007  33.539   1.386
73153ION    NA+45468  13.761  17.247   2.353
73154ION    NA+45469  30.010  11.835  14.965
73155ION    NA+45470  20.732  38.312   1.742
73156ION    NA+45471  32.136  23.253   0.566
73157ION    NA+45472   5.285  12.589   2.874
73158ION    NA+45473  33.065  44.281   0.358
73159ION    NA+45474  10.277  44.058   4.081
73160ION    NA+45475  15.291  22.597   2.753
73161ION    NA+45476  39.048  14.760   4.784
73162ION    NA+45477   1.931  42.492  12.696
73163ION    NA+45478  22.166  10.157  10.775
73164ION    NA+45479  25.614  17.259   1.221
73165ION    NA+45480  16.770  21.231   0.278
73166ION    NA+45481  41.280  44.287  14.924
73167ION    NA+45482  38.754   5.162  11.583
73168ION    NA+45483  22.300   6.412   0.934
73169ION    NA+45484  14.801  30.622  14.005
73170ION    NA+45485  43.304  12.946   1.866
73171ION    NA+45486  36.358  42.120  11.037
73172ION    NA+45487  40.892  44.460  12.475
73173ION    NA+45488  31.179  17.715  12.042
73174ION    NA+45489   8.880  10.305  10.194
73175ION    NA+45490  41.967  43.514  10.701
73176ION    NA+45491  17.639  35.498  12.806
73177ION    NA+45492  10.080   8.664   2.392
73178ION    NA+45493  18.427  24.668   2.661
73179ION    NA+45494   4.173  14.655   3.684
73180ION    NA+45495  19.929  15.738   3.655
73181ION    NA+45496   3.728  15.586   0.895
73182ION    NA+45497  36.342  21.863   1.304
73183ION    NA+45498   3.992   6.165  10.961
73184ION    NA+45499  37.854  22.112   1.047
73185ION    NA+45500  22.555  43.280  13.651
73186ION    NA+45501  42.275  44.199  14.955
73187ION    NA+45502   1.041   5.795   4.404
73188ION    NA+45503  38.848  12.946   3.262
73189ION    NA+45504   2.507  22.667   4.814
73190ION    NA+45505  38.740   4.517   4.117
73191ION    NA+45506  33.445  43.501  14.187
73192ION    NA+45507  30.954  30.005  12.980
73193ION    NA+45508  27.473  35.770   4.191
73194ION    NA+45509  21.454  26.219   1.173
73195ION    NA+45510  21.169  25.723  10.655
73196ION    NA+45511  25.500   8.174  11.199
73197ION    NA+45512  34.455  23.313   1.466
73198ION    NA+45513  21.608  13.347   0.636
73199ION    NA+45514  19.269   0.675   0.418
73200ION    NA+45515  12.670   2.470   1.207
73201ION    NA+45516   5.727  29.469   4.474
73202ION    NA+45517   3.070  12.878  13.550
73203ION    NA+45518  40.893   4.351  14.389
73204ION    NA+45519  15.326  37.168   3.701
73205ION    NA+45520  29.619  31.072   3.407
73206ION    NA+45521  22.113   3.358   3.132
73207ION    NA+45522  30.575  13.824   3.599
73208ION    NA+45523  11.036   5.169   2.634
73209ION    NA+45524   0.269  17.057   2.902
73210ION    NA+45525  14.128  26.725   2.167
73211ION    NA+45526  15.364   2.184  12.267
73212ION    NA+45527  32.356  17.080   0.106
73213ION    NA+45528  30.511   6.190   1.226
73214ION    NA+45529  20.233   5.698   3.307
73215ION    NA+45530  14.743   2.104  13.049
73216ION    NA+45531  31.974  13.662  14.412
73217ION    NA+45532   5.395  39.107  12.520
73218ION    NA+45533  26.127   9.197  11.698
73219ION    NA+45534  11.642  43.020  12.235
73220ION    NA+45535   8.305  19.045  11.709
73221ION    NA+45536   8.433  14.182  12.960
73222ION    NA+45537  12.988  39.201   2.678
73223ION    NA+45538  28.491  40.701  12.791
73224ION    NA+45539  38.886  14.745   3.877
73225ION    NA+45540  18.323  25.674  14.451
73226ION    NA+45541  14.836  37.573   3.315
73227ION    NA+45542   5.776   3.345   2.195
73228ION    NA+45543  18.619  40.524  10.268
73229ION    NA+45544   7.451  17.683   4.406
73230ION    NA+45545  10.803  42.985   4.130
73231ION    NA+45546  37.480  44.253  11.727
73232ION    NA+45547  21.979   2.229   3.221
73233ION    NA+45548  34.769  28.683  13.364
73234ION    NA+45549  30.376  10.354   4.266
73235ION    NA+45550   4.379   2.909  12.145
73236ION    NA+45551  26.741  13.429  11.675
73237ION    NA+45552  17.649  31.787  11.599
73238ION    NA+45553  39.810  40.558   4.249
73239ION    NA+45554  24.943  10.128  11.593
73240ION    NA+45555  27.564  22.992   0.944
73241ION    NA+45556  36.373  19.050  13.590
73242ION    NA+45557  15.911  25.852   2.394
73243ION    NA+45558  43.423  28.473   1.701
73244ION    NA+45559  26.182  30.367  13.930
73245ION    NA+45560  41.296  22.418   5.039
73246ION    NA+45561  44.419  43.050  13.481
73247ION    NA+45562  14.577   3.944   3.130
73248ION    NA+45563  24.855  26.355   4.595
73249ION    NA+45564  40.336  21.294   1.236
73250ION    NA+45565  38.426  25.298   3.075
73251ION    NA+45566   6.532  38.745  12.975
73252ION    NA+45567  22.683  13.803   3.564
73253ION    NA+45568  12.223   0.752  14.351
73254ION    NA+45569  18.553  33.632   4.169
73255ION    NA+45570  12.429  12.871   1.206
73256ION    NA+45571  12.912  38.408  12.881
73257ION    NA+45572  11.746  31.022  11.999
73258ION    NA+45573  25.885  32.724  11.287
73259ION    NA+45574  25.920  35.778  14.080
73260ION    NA+45575   3.780   6.221   1.542
73261ION    NA+45576  11.722   1.174  13.377
73262ION    NA+45577   0.591  11.865   2.341
73263ION    NA+45578  20.743  35.027  12.637
73264ION    NA+45579  21.165  34.038  10.750
73265ION    NA+45580   4.483   9.855   3.350
73266ION    NA+45581  33.849  40.751  13.826
73267ION    NA+45582   8.095  30.611  12.421
73268ION    NA+45583  41.757  15.342   0.342
73269ION    NA+45584  44.805  19.110  14.060
73270ION    NA+45585  41.825   8.444  14.572
73271ION    NA+45586   6.942  29.065  12.078
73272ION    NA+45587  12.396  16.589  12.509
73273ION    NA+45588   0.708  37.440  13.151
73274ION    NA+45589  19.857   8.934  11.773
73275ION    NA+45590  24.409  36.600  14.825
73276ION    NA+45591  11.316  38.246   0.743
73277ION    NA+45592  18.822   6.200  10.490
73278ION    NA+45593  20.276   7.899  13.488
73279ION    NA+45594  30.251  35.890  12.781
73280ION    NA+45595  42.006  40.871   0.771
73281ION    NA+45596   9.230  18.032  10.674
73282ION    NA+45597   6.936   0.178   3.566
73283ION    NA+45598  35.685  36.526   1.302
73284ION    NA+45599  30.405  43.921   3.214
73285ION    NA+45600  33.337  24.508   3.968
73286ION    NA+45601   9.014  12.918   2.137
73287ION    NA+45602  35.290  39.386  10.840
73288ION    NA+45603  34.076  18.108   1.823
73289ION    NA+45604  27.689  14.027   3.168
73290ION    NA+45605  22.212   8.185  14.839
73291ION    NA+45606  11.490  30.838  10.992
73292ION    NA+45607  23.959   4.281  12.589
73293ION    NA+45608  43.726  31.105  13.067
73294ION    NA+45609  14.645   9.955  11.479
73295ION    NA+45610  20.827  19.191  10.993
73296ION    NA+45611  19.573   4.647  14.345
73297ION    NA+45612  42.758  15.688   3.264
73298ION    NA+45613   2.446  43.930   2.417
73299ION    NA+45614  29.905  33.866   3.280
73300ION    NA+45615  17.719  38.767   4.534
73301ION    NA+45616  16.953   2.422  11.253
73302ION    NA+45617  43.308  13.389  13.372
73303ION    NA+45618   1.326  19.853   4.778
73304ION    NA+45619   5.311  17.246  10.962
73305ION    NA+45620  34.976  22.611  12.077
73306ION    NA+45621  19.684  24.039  11.702
73307ION    NA+45622  10.530  23.619   4.498
73308ION    NA+45623   6.008  23.721  12.462
73309ION    NA+45624  18.684   1.972   3.234
73310ION    NA+45625  20.259  30.364  10.921
73311ION    NA+45626  34.459   0.459   2.826
73312ION    NA+45627  16.515  19.181  11.983
73313ION    NA+45628  37.347  28.561  13.014
73314ION    NA+45629  26.905  20.055   3.282
73315ION    NA+45630  41.405  44.033   1.134
73316ION    NA+45631  17.581  19.847  14.953
73317ION    NA+45632  13.155  27.260  10.619
73318ION    NA+45633   0.465  36.440  14.874
73319ION    NA+45634  17.492  40.395  14.840
73320ION    NA+45635   6.541   9.619   0.942
73321ION    NA+45636  18.533  20.726   3.371
73322ION    NA+45637  36.189  37.430   0.782
73323ION    NA+45638  30.916   7.714   0.692
73324ION    NA+45639  10.755   6.989  12.899
73325ION    NA+45640  31.370  17.859   1.231
73326ION    NA+45641  39.348  12.864   1.011
73327ION    NA+45642  13.344  31.264  12.372
73328ION    NA+45643  42.801  35.277  12.757
73329ION    NA+45644  29.592  40.345   2.710
73330ION    NA+45645  40.646  31.196  10.940
73331ION    NA+45646  26.345  26.507  13.395
73332ION    NA+45647  21.578  43.297  14.314
73333ION    NA+45648  13.370  19.601  14.680
73334ION    NA+45649  14.241  17.762  12.278
73335ION    NA+45650   6.878  10.994  11.821
73336ION    NA+45651  32.424  12.461   2.449
73337ION    NA+45652   0.908  33.197   4.593
73338ION    NA+45653   5.282  20.604   1.981
73339ION    NA+45654  35.319  19.275  11.570
73340ION    NA+45655  19.840   1.031  10.984
73341ION    NA+45656  41.934  40.815  12.117
73342ION    NA+45657  11.883  43.395   1.993
73343ION    NA+45658   7.776  22.814  12.212
73344ION    NA+45659   7.302  39.803  11.725
73345ION    NA+45660  40.025  37.623   0.035
73346ION    NA+45661  22.251  42.757  10.474
73347ION    NA+45662  44.415  32.032   2.051
73348ION    NA+45663   6.740  22.076   3.272
73349ION    NA+45664  35.318   5.994   3.265
73350ION    NA+45665  18.868   7.007   2.668
73351ION    NA+45666   5.557  12.573   4.516
73352ION    NA+45667  39.794  43.744  11.059
73353ION    NA+45668  29.827  40.108  11.979
73354ION    NA+45669  34.635  16.481   1.785
73355ION    NA+45670   8.925  43.140   0.429
73356ION    NA+45671  37.970  27.490   4.445
73357ION    NA+45672  28.631  19.190   4.047
73358ION    NA+45673  42.518  43.970   4.441
73359ION    NA+45674  14.581   3.415   9.768
73360ION    NA+45675  21.858  12.761   2.694
73361ION    NA+45676  28.037  15.669   4.805
73362ION    NA+45677  25.275   9.304   1.752
73363ION    NA+45678   1.026  39.079   4.023
73364ION    NA+45679   4.851  43.758   0.654
73365ION    NA+45680  19.149  28.503  10.038
73366ION    NA+45681  23.041   2.301  13.558
73367ION    NA+45682   5.349  34.158   0.313
73368ION    NA+45683  22.413  15.386  12.822
73369ION    NA+45684   3.215  26.371   4.516
73370ION    NA+45685  10.548  12.142   4.543
73371ION    NA+45686  18.011   6.505   4.150
73372ION    NA+45687  32.579  44.541  14.673
73373ION    NA+45688  34.466  34.092  12.114
73374ION    NA+45689  22.777  22.763   3.203
73375ION    NA+45690  17.211   3.697  10.617
73376ION    NA+45691   1.352  18.502   4.648
73377ION    NA+45692  38.038  36.134   0.883
73378ION    NA+45693  39.658  24.547  12.430
73379ION    NA+45694   6.594  12.086   1.546
73380ION    NA+45695  16.206  39.587  11.377
73381ION    NA+45696   7.277  37.838   2.829
73382ION    NA+45697   4.455  29.569   0.411
73383ION    NA+45698   0.451  29.568  11.946
73384ION    NA+45699  31.932  17.671  11.385
73385ION    NA+45700  37.736  40.191  13.688
73386ION    NA+45701   4.863  25.019   1.293
73387ION    NA+45702  19.173  25.428  13.864
73388ION    NA+45703  23.756  29.218  14.509
73389ION    NA+45704  11.848   5.542   4.909
73390ION    NA+45705   4.470  24.755   3.124
73391ION    NA+45706  26.671  16.836  11.912
73392ION    NA+45707  25.560   1.322   4.994
73393ION    NA+45708  28.259  33.760   2.818
73394ION    NA+45709   2.812  42.734  12.860
73395ION    NA+45710  24.686  29.358   1.818
73396ION    NA+45711  29.761  38.727   2.715
73397ION    NA+45712   2.247  22.571   3.945
73398ION    NA+45713  13.565  44.464  12.533
73399ION    NA+45714  10.639  18.935   3.036
73400ION    NA+45715   1.367  22.491   2.645
73401ION    NA+45716  19.649   6.623  11.498
73402ION    NA+45717  32.610  16.048  12.264
73403ION    NA+45718  25.327  18.514   3.474
73404ION    NA+45719  44.756   2.229   1.237
73405ION    NA+45720  28.132  44.270  11.584
73406ION    NA+45721  15.666  14.152   1.219
73407ION    NA+45722  36.371  37.190   4.443
73408ION    NA+45723  27.876  40.313  11.417
73409ION    NA+45724   0.622  19.678  13.957
73410ION    NA+45725  36.324  40.492  12.213
73411ION    NA+45726  31.447  41.457   4.535
73412ION    NA+45727  14.077   9.818   9.764
73413ION    NA+45728  19.330   1.403  11.759
73414ION    NA+45729   8.745   3.751  12.041
73415ION    NA+45730   0.981  34.034   3.661
73416ION    NA+45731   5.727  12.450   1.206
73417ION    NA+45732  29.920  20.603   0.925
73418ION    NA+45733  11.964  10.225  12.565
73419ION    NA+45734  22.985  19.220   3.767
73420ION    NA+45735  39.925  44.438  13.108
73421ION    NA+45736   5.475   9.466  14.296
73422ION    NA+45737  11.107  33.349   2.722
73423ION    NA+45738  18.199  18.664   3.799
73424ION    NA+45739   2.745   6.787  14.429
73425ION    NA+45740  24.514  37.917   0.605
73426ION    NA+45741  33.699  28.053   5.274
73427ION    NA+45742  15.444  15.319   4.930
73428ION    NA+45743  38.227  19.628   3.232
73429ION    NA+45744  12.387  41.301   0.127
73430ION    NA+45745  38.022  35.468  14.299
73431ION    NA+45746  25.525   9.752   2.991
73432ION    NA+45747  28.089  14.833   3.690
73433ION    NA+45748  33.032  40.024   2.614
73434ION    NA+45749  13.052   3.906  14.615
73435ION    NA+45750  11.189  19.182   5.071
73436ION    NA+45751   3.439   4.375   3.109
73437ION    NA+45752  37.115  27.524   0.637
73438ION    NA+45753  41.971  23.221  11.937
73439ION    NA+45754   7.773   7.842   1.899
73440ION    NA+45755  21.350  34.095  13.499
73441ION    NA+45756  11.717   8.752  14.063
73442ION    NA+45757  28.171  13.149  10.703
73443ION    NA+45758  10.073  26.185   2.702
73444ION    NA+45759   4.666  24.125  12.832
73445ION    NA+45760  42.968   8.187  10.582
73446ION    NA+45761   9.202  35.030  11.830
73447ION    NA+45762  37.990  31.616  12.799
73448ION    NA+45763  39.644   4.386  14.680
73449ION    NA+45764  24.702  33.423   3.887
73450ION    NA+45765   6.959  33.322   2.607
73451ION    NA+45766  15.386  21.531  13.283
73452ION    NA+45767  36.898  26.410  10.800
73453ION    NA+45768  14.086   0.302   1.514
73454ION    NA+45769  28.857  32.692  13.750
73455ION    NA+45770   4.683  10.161  11.221
73456ION    NA+45771  33.127  43.739  13.037
73457ION    NA+45772  10.754   8.292   3.191
73458ION    NA+45773   3.820  13.886   1.301
73459ION    NA+45774  22.737  41.294   0.425
73460ION    NA+45775  28.851  39.810   2.865
73461ION    NA+45776  10.142  23.897  13.556
73462ION    NA+45777  42.596   9.084   5.103
73463ION    NA+45778  25.634  42.042   3.863
73464ION    NA+45779   8.905   6.328   4.985
73465ION    NA+45780   5.350  26.740  13.800
73466ION    NA+45781  32.424  31.140  10.353
73467ION    NA+45782  39.173   7.211   0.002
73468ION    NA+45783   6.123  20.959   2.387
73469ION    NA+45784  43.248  18.382   0.324
73470ION    NA+45785  38.100   7.580   1.715
73471ION    NA+45786  26.421  23.073  13.681
73472ION    NA+45787  26.263  33.287  13.904
73473ION    NA+45788  42.434   6.720  11.877
73474ION    NA+45789  36.832  33.973  12.911
73475ION    NA+45790  39.444  24.043  10.253
73476ION    NA+45791  27.743  43.027  10.766
73477ION    NA+45792  11.285  24.105  14.503
73478ION    NA+45793  33.325  22.775   3.177
73479ION    NA+45794   1.974  20.106  13.843
73480ION    NA+45795  39.081  35.051  14.953
73481ION    NA+45796  20.135  30.441   2.207
73482ION    NA+45797   8.893  38.572   2.280
73483ION    NA+45798  37.266  42.345   1.281
73484ION    NA+45799  39.288  17.430   3.644
73485ION    NA+45800  13.675  30.039  14.536
73486ION    NA+45801  34.423  32.438  14.669
73487ION    NA+45802  27.008  33.170  10.036
73488ION    NA+45803  14.440  22.393   4.459
73489ION    NA+45804  21.975  39.460   4.669
73490ION    NA+45805  14.438  26.465  14.259
73491ION    NA+45806  30.465  42.596  11.031
73492ION    NA+45807  35.527  15.971  14.374
73493ION    NA+45808  15.805  24.335   4.275
73494ION    NA+45809  29.089  17.851  12.046
73495ION    NA+45810  18.903  16.119  12.492
73496ION    NA+45811  20.007   9.987  11.227
73497ION    NA+45812  21.287  11.107   0.427
73498ION    NA+45813  13.406   7.120   0.548
73499ION    NA+45814  39.214  43.907  12.943
73500ION    NA+45815  14.107  27.296  13.531
73501ION    NA+45816  36.054  23.343   1.925
73502ION    NA+45817   2.753   2.023   1.925
73503ION    NA+45818   3.495  30.496  10.752
73504ION    NA+45819   0.615  23.120  11.556
73505ION    NA+45820  34.195  42.114  13.623
73506ION    NA+45821  23.227  39.865  11.694
73507ION    NA+45822  39.761  33.398  12.815
73508ION    NA+45823  17.064  26.943  11.970
73509ION    NA+45824  13.813  16.521  11.467
73510ION    NA+45825  21.853  18.816  13.096
73511ION    NA+45826  44.231  24.045  11.980
73512ION    NA+45827  23.951  35.990   3.178
73513ION    NA+45828   1.612  27.305  14.997
73514ION    NA+45829  34.714  10.221   2.670
73515ION    NA+45830  28.685  29.187  14.566
73516ION    NA+45831  13.003  33.495   2.842
73517ION    NA+45832  22.441   1.899  11.135
73518ION    NA+45833   7.175  22.642   0.018
73519ION    NA+45834  26.169  35.983  12.552
73520ION    NA+45835  35.745  33.511   2.802
73521ION    NA+45836  22.207  24.818   1.865
73522ION    NA+45837  22.449  26.665   0.918
73523ION    NA+45838  24.135  35.292   3.960
73524ION    NA+45839  40.550  39.850   4.670
73525ION    NA+45840  21.771  14.138   3.204
73526ION    NA+45841  38.200  26.675   4.603
73527ION    NA+45842   6.030  38.881   1.744
73528ION    NA+45843   1.624  22.208   4.913
73529ION    NA+45844   0.342   2.785  14.980
73530ION    NA+45845  12.137  20.467   4.141
73531ION    NA+45846  33.938  37.836   3.223
73532ION    NA+45847  27.778  23.772   2.624
73533ION    NA+45848  31.827  17.014   0.952
73534ION    NA+45849   9.323   1.710  12.699
73535ION    NA+45850  17.840  23.670   1.684
73536ION    NA+45851  11.845  38.934  14.093
73537ION    NA+45852  19.008  28.782   2.552
73538ION    NA+45853  26.383   1.335   3.314
73539ION    NA+45854  24.472  25.146  11.395
73540ION    NA+45855  40.447  33.115   1.610
73541ION    NA+45856  24.430  23.803   1.666
73542ION    NA+45857  38.128  19.282   1.930
73543ION    NA+45858  41.520  18.972   1.349
73544ION    NA+45859  40.416  18.190   0.252
73545ION    NA+45860  13.604  21.455   3.943
73546ION    NA+45861   5.102  13.604  13.893
73547ION    NA+45862  32.526  39.902   3.312
73548ION    NA+45863  40.786  25.732  10.664
73549ION    NA+45864   1.837  36.928   4.749
73550ION    NA+45865  15.545  44.538   4.926
73551ION    NA+45866  13.388  13.204   4.542
73552ION    NA+45867  34.844   9.691  10.318
73553ION    NA+45868  23.505  13.720   1.719
73554ION    NA+45869   8.736  44.744  13.740
73555ION    NA+45870  34.223  36.263   0.843
73556ION    NA+45871   3.662  13.834  14.872
73557ION    NA+45872  36.641   6.885   1.351
73558ION    NA+45873  22.245  23.482   1.631
73559ION    NA+45874   2.881  29.595  12.014
73560ION    NA+45875   7.233  14.785   4.133
73561ION    NA+45876  32.565  14.089  11.926
73562ION    NA+45877  36.089  42.191   4.542
73563ION    NA+45878  17.734   9.157   1.456
73564ION    NA+45879  20.262  37.393   1.801
73565ION    NA+45880  42.560  35.708   2.878
73566ION    NA+45881  19.223   2.694   4.715
73567ION    NA+45882  13.117  44.277  11.105
73568ION    NA+45883  15.631   5.443   2.446
73569ION    NA+45884  21.685  38.007   0.063
73570ION    NA+45885  25.215  20.197   3.798
73571ION    NA+45886   1.266  23.282   3.071
73572ION    NA+45887  25.694  19.798  12.394
73573ION    NA+45888  11.449   5.331   3.886
73574ION    NA+45889  38.354   2.135   2.942
73575ION    NA+45890  43.824  13.757  10.919
73576ION    NA+45891  15.711  43.751   1.510
73577ION    NA+45892  24.439  28.048   1.734
73578ION    NA+45893  24.455  31.844  11.086
73579ION    NA+45894  15.377   0.872   2.320
73580ION    NA+45895   4.667  23.359  13.325
73581ION    NA+45896  37.596  30.496   2.413
73582ION    NA+45897  23.824  18.586  10.222
73583ION    NA+45898   6.049  25.334  11.017
73584ION    NA+45899  39.250   4.680   2.688
73585ION    NA+45900  37.902  16.182  14.730
73586ION    NA+45901  32.468   2.339   2.380
73587ION    NA+45902   1.838  43.042   0.408
73588ION    NA+45903  17.783  16.214  11.100
73589ION    NA+45904  33.088  24.961   1.416
73590ION    NA+45905  21.750   2.960  11.238
73591ION    NA+45906  17.869  33.768  13.302
73592ION    NA+45907  23.432  27.870   4.045
73593ION    NA+45908  29.971  42.894  12.836
73594ION    NA+45909  25.227   4.217  12.106
73595ION    NA+45910  16.459   3.747  11.287
73596ION    NA+45911  43.316   0.820  12.502
73597ION    NA+45912  27.717  21.289   3.660
73598ION    NA+45913   3.043  44.935  12.488
73599ION    NA+45914   3.415  22.649   3.157
73600ION    NA+45915   7.753  39.789  13.711
73601ION    NA+45916  22.577  33.287   3.763
73602ION    NA+45917  20.970  15.546  11.610
73603ION    NA+45918  28.003  25.051  11.363
73604ION    NA+45919  11.434  30.501   1.129
73605ION    NA+45920  10.863  26.962   3.773
73606ION    NA+45921   5.364  29.910   0.917
73607ION    NA+45922  33.295  29.969  10.028
73608ION    NA+45923   8.292   6.135   0.379
73609ION    NA+45924  36.759  30.844   3.926
73610ION    NA+45925  35.718  26.988  10.747
73611ION    NA+45926  18.990  21.239  14.505
73612ION    NA+45927  27.775  24.639   0.040
73613ION    NA+45928  10.773   1.237   1.832
73614ION    NA+45929  21.454   3.115  13.491
73615ION    NA+45930  20.694   9.848  14.536
73616ION    NA+45931   8.413  37.854   3.231
73617ION    NA+45932  10.667  38.019   2.220
73618ION    NA+45933  14.818  10.646  13.559
73619ION    NA+45934  15.547  41.319  11.280
73620ION    NA+45935  26.165   0.507   9.808
73621ION    NA+45936   6.908  11.369   2.249
73622ION    NA+45937  38.246  39.054   0.787
73623ION    NA+45938  29.594  11.735   2.212
73624ION    NA+45939  33.860  17.769  13.832
73625ION    NA+45940   3.193  18.533   1.938
73626ION    NA+45941  29.454  29.666  13.047
73627ION    NA+45942   4.985  10.297   0.508
73628ION    NA+45943  44.307  31.071   4.709
73629ION    NA+45944  11.382  20.005   0.842
73630ION    NA+45945  37.172   4.619   3.367
73631ION    NA+45946  16.811  28.998   2.479
73632ION    NA+45947  31.487  40.848  10.298
73633ION    NA+45948  41.090  28.456  10.292
73634ION    NA+45949  24.198   3.182  11.701
73635ION    NA+45950  21.453  33.560   3.875
73636ION    NA+45951   7.204  38.410   3.646
73637ION    NA+45952  25.966  39.966  13.465
73638ION    NA+45953  19.511  35.547   3.597
73639ION    NA+45954  25.414   6.679  11.352
73640ION    NA+45955  36.518  10.326  11.637
73641ION    NA+45956  37.820  25.439  13.614
73642ION    NA+45957  22.982  29.204  10.715
73643ION    NA+45958  39.971  42.360   2.200
73644ION    NA+45959  41.804   5.790  13.117
73645ION    NA+45960  14.358   1.629  13.653
73646ION    NA+45961  23.155  14.773  11.509
73647ION    NA+45962   9.665  15.743   3.176
73648ION    NA+45963  30.478  18.011   2.103
73649ION    NA+45964  26.252  26.599   2.791
73650ION    NA+45965  22.509  13.338   2.824
73651ION    NA+45966  34.115   4.833   2.727
73652ION    NA+45967  30.181   6.565  11.987
73653ION    NA+45968  10.309  14.461  13.460
73654ION    NA+45969  33.309  27.657  12.764
73655ION    NA+45970   2.767  32.393  12.899
73656ION    NA+45971  35.066  29.692  13.258
73657ION    NA+45972   0.660  14.724  11.816
73658ION    NA+45973  28.192   5.429   1.740
73659ION    NA+45974  28.979  38.101   1.270
73660ION    NA+45975  18.218  30.427  14.044
73661ION    NA+45976  23.574  35.663   4.556
73662ION    NA+45977  29.849   4.120   4.704
73663ION    NA+45978  40.540  24.261   3.690
73664ION    NA+45979   9.803  21.129   2.632
73665ION    NA+45980   5.401  22.523   0.301
73666ION    NA+45981  43.423  14.890   4.229
73667ION    NA+45982  38.354   9.489   1.726
73668ION    NA+45983   5.277   9.166   4.650
73669ION    NA+45984  36.811  43.445  12.627
73670ION    NA+45985  25.748  26.896   4.123
73671ION    NA+45986  35.763  30.901   2.933
73672ION    NA+45987   5.548  40.043   1.228
73673ION    NA+45988   4.982  26.137   3.207
73674ION    NA+45989  39.089   8.454   3.260
73675ION    NA+45990   0.931  10.275   0.798
73676ION    NA+45991  42.474  19.588   0.016
73677ION    NA+45992  38.809  23.720   3.006
73678ION    NA+45993   7.325  33.139   0.329
73679ION    NA+45994   6.926  10.742   3.545
73680ION    NA+45995  44.209  23.862   2.829
73681ION    NA+45996   2.359  22.392   2.723
73682ION    NA+45997  31.031  21.249  13.318
73683ION    NA+45998   8.833  11.625  11.586
73684ION    NA+45999  36.965  20.047  11.705
73685ION    NA+46000  37.307   1.249   0.932
73686ION    NA+46001  24.921   1.823  13.519
73687ION    NA+46002  31.378   1.775   1.254
73688ION    NA+46003   1.027   0.760  12.416
73689ION    NA+46004   8.615  40.302   0.860
73690ION    NA+46005  28.989   6.649  14.650
73691ION    NA+46006   8.413  16.184  14.087
73692ION    NA+46007  43.466  20.776  11.330
73693ION    NA+46008  22.194  33.132  14.734
73694ION    NA+46009   5.441  19.724   2.722
73695ION    NA+46010  13.471  20.654   3.360
73696ION    NA+46011  18.601   5.446  12.019
73697ION    NA+46012  29.582  11.105  13.169
73698ION    NA+46013  12.554  27.937  12.756
73699ION    NA+46014   1.727   4.401  11.227
73700ION    NA+46015  31.866  41.415   3.101
73701ION    NA+46016  32.464  41.511   1.709
73702ION    NA+46017  25.934  25.138   0.766
73703ION    NA+46018   2.346  19.602   0.728
73704ION    NA+46019  37.603  43.286  11.505
73705ION    NA+46020  43.605  40.780   0.265
73706ION    NA+46021  13.184  37.770   3.786
73707ION    NA+46022  24.947  21.366   2.702
73708ION    NA+46023  39.296   0.458  12.864
73709ION    NA+46024  15.918  27.973  14.926
73710ION    NA+46025  34.368   2.166   2.222
73711ION    NA+46026  34.815  42.906   3.491
73712ION    NA+46027   6.504  24.648  10.733
73713ION    NA+46028  13.617   9.432   3.977
73714ION    NA+46029  22.886  16.662   1.472
73715ION    NA+46030   8.104  42.748   2.575
73716ION    NA+46031  10.170  39.414   0.475
73717ION    NA+46032  40.765  36.371  12.640
73718ION    NA+46033   3.323  34.027  10.612
73719ION    NA+46034  20.592   8.876  14.238
73720ION    NA+46035  39.412  17.008  12.848
73721ION    NA+46036  17.247   1.029   4.070
73722ION    NA+46037  19.435  28.177   4.435
73723ION    NA+46038  23.618  16.007  11.131
73724ION    NA+46039  33.778  42.683  12.237
73725ION    NA+46040  23.001  27.528  11.815
73726ION    NA+46041  33.520  38.844   4.514
73727ION    NA+46042  42.531  22.733  11.166
73728ION    NA+46043  39.460  22.587  10.310
73729ION    NA+46044  23.047  35.549  14.083
73730ION    NA+46045  17.392  41.522   5.495
73731ION    NA+46046  40.516  30.475   1.886
73732ION    NA+46047  13.498  28.349  13.019
73733ION    NA+46048  15.088   8.646  11.454
73734ION    NA+46049  25.012   6.235   5.107
73735ION    NA+46050   7.430   2.640  11.962
73736ION    NA+46051   5.118  21.733  11.165
73737ION    NA+46052  26.277  26.517   1.771
73738ION    NA+46053  19.213  30.614   2.557
73739ION    NA+46054  35.851  17.119   4.296
73740ION    NA+46055  19.275  31.518  12.375
73741ION    NA+46056  41.700  25.364  10.834
73742ION    NA+46057   2.969  33.514   4.361
73743ION    NA+46058  35.567  26.397  13.023
73744ION    NA+46059  31.708  20.994   1.592
73745ION    NA+46060  38.021  10.786   4.023
73746ION    NA+46061  35.627  39.359  14.349
73747ION    NA+46062  26.064  44.505  11.921
73748ION    NA+46063  18.183   1.365   3.901
73749ION    NA+46064  20.595  24.327  13.978
73750ION    NA+46065  29.475   8.474   2.469
73751ION    NA+46066  16.735   5.758  13.448
73752ION    NA+46067  33.228  26.636  13.033
73753ION    NA+46068  27.705   8.898   0.026
73754ION    NA+46069   3.852  42.538  14.484
73755ION    NA+46070  11.351  22.201  10.989
73756ION    NA+46071  21.618  42.566  12.804
73757ION    NA+46072  23.322  32.198  10.693
73758ION    NA+46073  10.073  38.152   3.167
73759ION    NA+46074  34.155  40.377  11.020
73760ION    NA+46075  26.130  38.456   0.861
73761ION    NA+46076  20.490  18.760   4.023
73762ION    NA+46077  22.230   3.701  13.259
73763ION    NA+46078   8.138  24.799  14.923
73764ION    NA+46079  34.342  14.689  12.394
73765ION    NA+46080  21.271  37.414   1.744
73766ION    NA+46081  13.252   2.928  12.373
73767ION    NA+46082   6.639  32.370   2.241
73768ION    NA+46083  36.406  17.480  12.093
73769ION    NA+46084  33.455   7.661   2.375
73770ION    NA+46085  14.584  35.920  13.899
73771ION    NA+46086  31.047  31.896   0.079
73772ION    NA+46087  21.376   1.534   0.429
73773ION    NA+46088   1.980  16.216   2.321
73774ION    NA+46089  39.682  16.446  12.066
73775ION    NA+46090   4.166  24.714   4.075
73776ION    NA+46091  16.100  22.201  13.633
73777ION    NA+46092  37.871  32.402   4.731
73778ION    NA+46093  23.534   4.865  13.429
73779ION    NA+46094  37.491  19.332  11.243
73780ION    NA+46095   9.435  40.860   2.393
73781ION    NA+46096  19.241  24.833  11.285
73782ION    NA+46097  26.777  29.793   0.022
73783ION    NA+46098  30.007  32.374   0.050
73784ION    NA+46099  19.448  23.069  12.509
73785ION    NA+46100  34.380   5.675   1.711
73786ION    NA+46101  10.103  11.295   9.535
73787ION    NA+46102  16.287  22.835   4.415
73788ION    NA+46103  23.125   0.753   3.611
73789ION    NA+46104  19.928  42.219   3.859
73790ION    NA+46105  22.730  43.533   0.460
73791ION    NA+46106  27.555   1.106   3.144
73792ION    NA+46107  37.021   9.035  14.339
73793ION    NA+46108  34.960  21.572   1.993
73794ION    NA+46109  31.722  34.331  10.678
73795ION    NA+46110  20.228  21.310   0.553
73796ION    NA+46111   7.679  10.429   1.651
73797ION    NA+46112   9.804   7.375  13.062
73798ION    NA+46113  26.258  35.653  14.884
73799ION    NA+46114  14.084   7.792   5.166
73800ION    NA+46115   1.700  35.103   3.214
73801ION    NA+46116  30.895   7.950   2.796
73802ION    NA+46117  34.182   7.289   0.803
73803ION    NA+46118  36.758  15.512  12.479
73804ION    NA+46119  39.367  29.956   4.602
73805ION    NA+46120  32.674  13.427   2.381
73806ION    NA+46121  19.053  13.401   0.540
73807ION    NA+46122  35.769  21.234   0.957
73808ION    NA+46123  15.888  35.988   1.154
73809ION    NA+46124  44.981  39.484  12.082
73810ION    NA+46125  43.959  17.811  14.084
73811ION    NA+46126   1.800  33.813   4.664
73812ION    NA+46127   9.288  19.664   0.352
73813ION    NA+46128  26.749  30.755  11.116
73814ION    NA+46129  33.866  19.695   3.347
73815ION    NA+46130  42.089  36.889   4.687
73816ION    NA+46131  15.720  29.106  14.081
73817ION    NA+46132  18.389  29.610  11.585
73818ION    NA+46133   1.968  28.991   3.648
73819ION    NA+46134  28.009  14.397  13.092
73820ION    NA+46135  28.567  13.090   4.097
73821ION    NA+46136   8.843  26.010   3.630
73822ION    NA+46137   8.278  10.897   2.674
73823ION    NA+46138   3.508  38.721   2.928
73824ION    NA+46139   8.632  17.172  12.634
73825ION    NA+46140   9.779  37.335   2.669
73826ION    NA+46141   9.424  26.257   4.516
73827ION    NA+46142  38.752  18.419   0.953
73828ION    NA+46143  17.309  15.152  13.431
73829ION    NA+46144  42.893   4.247   0.426
73830ION    NA+46145  25.334  23.497   1.966
73831ION    NA+46146  25.397  13.341  14.949
73832ION    NA+46147  31.545  42.762  10.679
73833ION    NA+46148  40.527   7.856   1.283
73834ION    NA+46149  26.450  41.584  13.542
73835ION    NA+46150  11.195  28.059   1.307
73836ION    NA+46151  26.435  17.709  13.459
73837ION    NA+46152  36.220  27.140  13.344
73838ION    NA+46153  28.225  15.824  13.684
73839ION    NA+46154  37.090  32.753  14.843
73840ION    NA+46155   2.208  13.669   2.264
73841ION    NA+46156  37.991  13.946  10.248
73842ION    NA+46157  16.041  33.343   0.472
73843ION    NA+46158  35.016  27.121   3.779
73844ION    NA+46159  28.440  25.855   0.076
73845ION    NA+46160   6.705  30.666   1.923
73846ION    NA+46161  10.644  39.366   2.943
73847ION    NA+46162  29.001  38.332   3.244
73848ION    NA+46163  16.751  42.597  13.726
73849ION    NA+46164  33.578  14.400  13.905
73850ION    NA+46165  35.132  22.096  11.223
73851ION    NA+46166   4.347  20.382   1.703
73852ION    NA+46167  12.437  34.631  12.100
73853ION    NA+46168   3.900  12.287   3.859
73854ION    NA+46169  18.251   5.102   1.890
73855ION    NA+46170  14.330  34.618   1.828
73856ION    NA+46171  34.821  42.402   2.354
73857ION    NA+46172  21.986  11.434   2.767
73858ION    NA+46173  22.010  15.650   0.487
73859ION    NA+46174   3.829  39.354  13.722
73860ION    NA+46175  17.249  20.008  10.301
73861ION    NA+46176  39.458   3.037  10.747
73862ION    NA+46177  30.632  39.318  12.042
73863ION    NA+46178  32.487  11.060  14.589
73864ION    NA+46179  22.556  19.021  12.068
73865ION    NA+46180  23.953   6.728   0.054
73866ION    NA+46181  30.778   3.496  14.452
73867ION    NA+46182   2.692   0.534   0.393
73868ION    NA+46183  31.990  22.833   1.334
73869ION    NA+46184  36.064  25.911   0.680
73870ION    NA+46185   0.045  24.131   0.763
73871ION    NA+46186  27.000  15.238  14.932
73872ION    NA+46187  21.328  33.208  13.327
73873ION    NA+46188   6.441  37.119   4.625
73874ION    NA+46189  37.806   2.859  14.070
73875ION    NA+46190  32.260  30.007   4.744
73876ION    NA+46191  21.566  15.463  13.095
73877ION    NA+46192  31.584  31.201  14.218
73878ION    NA+46193  12.803  15.562   0.367
73879ION    NA+46194  35.947  26.894  12.087
73880ION    NA+46195   2.801   2.463  12.391
73881ION    NA+46196  35.463  24.959   3.102
73882ION    NA+46197  41.627  29.675   3.904
73883ION    NA+46198  23.890  22.329   2.324
73884ION    NA+46199  42.186  37.599  14.395
73885ION    NA+46200  11.691  13.229   0.961
73886ION    NA+46201  15.631  30.848  11.326
73887ION    NA+46202  15.705  32.433  12.519
73888ION    NA+46203   6.331  34.983  10.670
73889ION    NA+46204  16.706   4.523   1.957
73890ION    NA+46205  19.552  18.019   3.335
73891ION    NA+46206  30.714  16.205   4.053
73892ION    NA+46207   2.214  10.325  11.237
73893ION    NA+46208  38.426  39.838  11.935
73894ION    NA+46209   5.606  15.064  12.835
73895ION    NA+46210  12.590  40.535   4.907
73896ION    NA+46211  33.584  25.221  10.573
73897ION    NA+46212  17.840  28.025  12.092
73898ION    NA+46213  13.300   2.503   2.251
73899ION    NA+46214   8.836  35.009   0.788
73900ION    NA+46215   8.712   9.475  10.478
73901ION    NA+46216  41.573  24.326  14.800
73902ION    NA+46217  12.565   8.642  12.049
73903ION    NA+46218  34.869  20.674   1.278
73904ION    NA+46219  19.737  16.221   0.024
73905ION    NA+46220   4.268  28.063  14.191
73906ION    NA+46221  21.763  25.397   3.884
73907ION    NA+46222  25.889  15.592  10.728
73908ION    NA+46223  17.556  29.801   0.405
73909ION    NA+46224  39.022  33.889   0.045
73910ION    NA+46225  23.821   4.957   9.889
73911ION    NA+46226  42.538   5.322   3.891
73912ION    NA+46227  22.874  37.736   4.204
73913ION    NA+46228  15.353  18.394  13.983
73914ION    NA+46229  24.755  32.594   4.097
73915ION    NA+46230  12.558   7.489  11.261
73916ION    NA+46231  21.236  41.262  10.842
73917ION    NA+46232  14.927  12.930   0.876
73918ION    NA+46233   5.288  22.161   3.419
73919ION    NA+46234  29.485  37.409  14.005
73920ION    NA+46235   1.036  28.002   2.628
73921ION    NA+46236   1.774  19.760   4.122
73922ION    NA+46237  39.379  25.642   0.057
73923ION    NA+46238   7.822  39.663   3.693
73924ION    NA+46239  29.366  34.472   0.632
73925ION    NA+46240  32.087   7.515   2.400
73926ION    NA+46241   9.678  17.274   1.348
73927ION    NA+46242   8.309  20.262  12.257
73928ION    NA+46243  35.391  23.466   3.200
73929ION    NA+46244   2.027  15.273  14.481
73930ION    NA+46245  27.198  26.767   1.377
73931ION    NA+46246   0.368  25.942  11.889
73932ION    NA+46247  11.094  36.010   4.104
73933ION    NA+46248  12.066  14.996  13.918
73934ION    NA+46249  27.540  17.137   0.853
73935ION    NA+46250  15.067  19.142   2.984
73936ION    NA+46251  23.153  37.553   1.162
73937ION    NA+46252  37.871   4.646   3.940
73938ION    NA+46253  13.124   8.323  13.717
73939ION    NA+46254   1.588  28.328  13.636
73940ION    NA+46255  13.118  14.419   9.886
73941ION    NA+46256  34.520   8.686  14.536
73942ION    NA+46257  13.110  40.926  11.268
73943ION    NA+46258   2.051  20.503  11.740
73944ION    NA+46259  21.727  43.834   1.170
73945ION    NA+46260  38.377  27.849  10.695
73946ION    NA+46261   9.599  39.043  11.151
73947ION    NA+46262   5.990  22.176   2.143
73948ION    NA+46263  18.918  19.924   3.522
73949ION    NA+46264   1.514   0.139   3.383
73950ION    NA+46265  11.980   5.974   4.017
73951ION    NA+46266  21.784  35.840  11.865
73952ION    NA+46267  25.656  20.979  12.927
73953ION    NA+46268  20.258  25.606  14.610
73954ION    NA+46269  24.024  38.175  13.031
73955ION    NA+46270   6.305   0.729  10.795
73956ION    NA+46271   2.520  38.227   1.896
73957ION    NA+46272  34.481  41.863   4.763
73958ION    NA+46273   7.072  34.796   3.446
73959ION    NA+46274  32.373  34.970  11.755
73960ION    NA+46275   5.952  26.557  11.194
73961ION    NA+46276  32.624  34.749  10.813
73962ION    NA+46277  27.632  32.148  13.487
73963ION    NA+46278  38.619  16.594   3.246
73964ION    NA+46279  13.622  18.672   4.124
73965ION    NA+46280  15.697  31.600   1.024
73966ION    NA+46281  34.059   3.457  14.753
73967ION    NA+46282  22.148   4.330  10.685
73968ION    NA+46283  20.770  17.738   2.308
73969ION    NA+46284  11.302  33.878  11.557
73970ION    NA+46285  20.791  11.295  10.793
73971ION    NA+46286   9.034  21.221   2.163
73972ION    NA+46287  21.639  19.744  12.582
73973ION    NA+46288  26.175  21.943  14.971
73974ION    NA+46289  26.942  17.880  11.930
73975ION    NA+46290  16.100  30.658   0.491
73976ION    NA+46291  41.936   0.782  13.797
73977ION    NA+46292  41.354  25.448   4.552
73978ION    NA+46293  23.422   2.697  12.105
73979ION    NA+46294  10.657   5.911   0.886
73980ION    NA+46295   4.250  43.260   1.138
73981ION    NA+46296  17.772  41.314   0.576
73982ION    NA+46297  37.504  23.525  11.224
73983ION    NA+46298  22.890  33.427   1.733
73984ION    NA+46299  34.262   8.244   2.473
73985ION    NA+46300   9.318  25.522   0.595
73986ION    NA+46301  36.051  20.697  11.565
73987ION    NA+46302  23.388   9.497   1.520
73988ION    NA+46303  12.751  39.030   4.412
73989ION    NA+46304  19.011  40.410   4.170
73990ION    NA+46305  16.529  41.414   3.637
73991ION    NA+46306  36.182  42.769  13.351
73992ION    NA+46307   8.334  29.637   2.663
73993ION    NA+46308  28.395  38.629  13.962
73994ION    NA+46309   1.508   6.390   2.785
73995ION    NA+46310  35.068   9.619  12.536
73996ION    NA+46311  11.018  39.196  13.925
73997ION    NA+46312   8.145  34.624  12.545
73998ION    NA+46313  35.775  29.504   4.502
73999ION    NA+46314  23.766  31.385   2.609
74000ION    NA+46315  37.989   3.523  11.359
74001ION    NA+46316  18.221  31.067   4.283
74002ION    NA+46317   5.740  41.366  10.655
74003ION    NA+46318   0.481   2.244   4.215
74004ION    NA+46319  25.450  32.325  14.827
74005ION    NA+46320  19.118   3.014  14.811
74006ION    NA+46321  21.212   4.336   3.652
74007ION    NA+46322  21.751   9.087  13.452
74008ION    NA+46323  13.882  23.034   0.744
74009ION    NA+46324  17.842   3.235   1.739
74010ION    NA+46325  18.970  15.156   2.222
74011ION    NA+46326   3.465  27.018   0.939
74012ION    NA+46327   8.760  24.904   3.520
74013ION    NA+46328  44.872   6.894  14.946
74014ION    NA+46329  28.084  27.609   4.609
74015ION    NA+46330  32.481  29.578   0.203
74016ION    NA+46331   1.748  24.220   0.417
74017ION    NA+46332   1.419   0.689   0.450
74018ION    NA+46333   2.506  33.027   1.450
74019ION    NA+46334  11.076  25.538   0.354
74020ION    NA+46335  32.928  19.721   4.777
74021ION    NA+46336  26.743  21.662   2.731
74022ION    NA+46337  23.040  29.846   3.880
74023ION    NA+46338  14.820  26.426  10.751
74024ION    NA+46339   7.149  37.542  14.941
74025ION    NA+46340  16.340   2.490  12.423
74026ION    NA+46341  25.681   4.281   1.449
74027ION    NA+46342  14.928  36.599   3.104
74028ION    NA+46343   8.060  41.500   3.780
74029ION    NA+46344  42.794  36.632   0.166
74030ION    NA+46345  26.048  15.381   0.920
74031ION    NA+46346  15.346  12.662  12.502
74032ION    NA+46347  14.776  19.085   0.375
74033ION    NA+46348   5.258   1.394   3.196
74034ION    NA+46349  16.434  30.625   5.578
74035ION    NA+46350  20.826  38.249  14.014
74036ION    NA+46351  11.766  42.608   4.174
74037ION    NA+46352   4.767  30.739  14.219
74038ION    NA+46353   5.711  31.845  13.436
74039ION    NA+46354  24.603   9.734   4.523
74040ION    NA+46355  13.608   8.480  11.108
74041ION    NA+46356  28.171   4.417   0.904
74042ION    NA+46357   3.880  30.322   0.740
74043ION    NA+46358   3.411  31.204   0.780
74044ION    NA+46359  42.544   5.244   2.610
74045ION    NA+46360  44.880  37.395  11.849
74046ION    NA+46361  37.901  34.767  13.307
74047ION    NA+46362   8.910  39.797  10.746
74048ION    NA+46363  19.481  35.291  11.985
74049ION    NA+46364  44.070  19.099   1.079
74050ION    NA+46365  37.633  20.483   3.527
74051ION    NA+46366   0.723   8.819  14.135
74052ION    NA+46367   3.673  23.741  11.965
74053ION    NA+46368  15.351  26.596  14.646
74054ION    NA+46369  26.390   8.408   5.238
74055ION    NA+46370  38.017  35.836  11.909
74056ION    NA+46371  42.900  39.655   1.407
74057ION    NA+46372   4.923  23.286   2.765
74058ION    NA+46373  28.498  39.295  12.471
74059ION    NA+46374  20.880  32.398  12.377
74060ION    NA+46375  40.716   8.685  12.118
74061ION    NA+46376   7.874   2.956   1.722
74062ION    NA+46377  24.659  17.634   4.043
74063ION    NA+46378  33.120  39.430  13.542
74064ION    NA+46379  40.542  15.539   1.321
74065ION    NA+46380  21.699   2.883  14.893
74066ION    NA+46381  29.378  16.567  12.489
74067ION    NA+46382  32.655   8.470   4.939
74068ION    NA+46383  36.810   1.323  11.228
74069ION    NA+46384  24.776  27.806   2.788
74070ION    NA+46385  28.209  34.953  13.410
74071ION    NA+46386   9.249  15.690  14.423
74072ION    NA+46387  28.963  22.059  13.889
74073ION    NA+46388  29.954   4.209   2.373
74074ION    NA+46389  17.809   2.051  11.612
74075ION    NA+46390  13.551  26.172   4.705
74076ION    NA+46391  18.802  15.073   3.205
74077ION    NA+46392  37.081  11.660  14.348
74078ION    NA+46393  32.988  32.641  14.303
74079ION    NA+46394   3.186   1.223   1.977
74080ION    NA+46395  36.786  16.395  12.622
74081ION    NA+46396  38.755  14.918   1.008
74082ION    NA+46397  14.211  25.309   3.990
74083ION    NA+46398  19.221  30.128  10.748
74084ION    NA+46399   6.446   7.662  14.517
74085ION    NA+46400  41.872   8.985  13.559
74086ION    NA+46401  30.498  11.072  12.769
74087ION    NA+46402  28.337  11.237  12.861
74088ION    NA+46403   1.228   1.089   3.259
74089ION    NA+46404  35.794  31.849   4.495
74090ION    NA+46405  36.090   0.238  12.053
74091ION    NA+46406  15.657  31.742  14.492
74092ION    NA+46407  26.001  40.140   2.599
74093ION    NA+46408  42.830  35.046   0.392
74094ION    NA+46409  22.253  15.479  13.909
74095ION    NA+46410  27.934   3.875   2.652
74096ION    NA+46411  22.709  37.320  12.620
74097ION    NA+46412   9.941   2.742   1.667
74098ION    NA+46413   1.027  20.167   4.094
74099ION    NA+46414  18.210  28.647  14.351
74100ION    NA+46415   0.471  33.745   0.920
74101ION    NA+46416  29.654  25.096  14.767
74102ION    NA+46417  19.560  40.809   3.410
74103ION    NA+46418  27.294  24.171  14.433
74104ION    NA+46419  14.641  37.032   1.823
74105ION    NA+46420  34.785   2.950  14.944
74106ION    NA+46421  28.076  33.583  14.519
74107ION    NA+46422  40.089  13.531   1.588
74108ION    NA+46423  28.081  17.623   5.109
74109ION    NA+46424  19.597  10.779  14.013
74110ION    NA+46425  19.263  42.592   4.616
74111ION    NA+46426  15.471  44.182  12.083
74112ION    NA+46427  33.586  43.087   2.437
74113ION    NA+46428  22.260   0.442  10.745
74114ION    NA+46429  24.939  27.365   3.768
74115ION    NA+46430  24.852  10.684  13.713
74116ION    NA+46431  33.145   6.827   3.595
74117ION    NA+46432  19.224   2.170   0.436
74118ION    NA+46433   6.488  17.347   3.088
74119ION    NA+46434  27.134  39.212   0.184
74120ION    NA+46435  40.409  44.736   2.712
74121ION    NA+46436  18.536  43.808   1.244
74122ION    NA+46437  13.544  39.349  11.943
74123ION    NA+46438  38.112  44.822   1.843
74124ION    NA+46439   6.140  34.449  13.870
74125ION    NA+46440  35.612  27.232  14.132
74126ION    NA+46441  41.555  28.561  12.122
74127ION    NA+46442   9.803  14.942   3.758
74128ION    NA+46443  12.330  16.870  14.881
74129ION    NA+46444   6.784  23.957  11.876
74130ION    NA+46445  39.666  17.974   0.876
74131ION    NA+46446  23.766   0.316   4.072
74132ION    NA+46447  31.279  30.924   0.129
74133ION    NA+46448  42.402  18.221  12.403
74134ION    NA+46449  23.451   3.679   2.320
74135ION    NA+46450   0.556  41.682   0.183
74136ION    NA+46451  29.081  10.075  10.369
74137ION    NA+46452   9.290  40.803  12.834
74138ION    NA+46453  34.950   5.694   0.890
74139ION    NA+46454   9.171   6.268  14.243
74140ION    NA+46455  19.316  30.204   9.727
74141ION    NA+46456  32.831  40.692  10.854
74142ION    NA+46457  31.357   8.244   4.541
74143ION    NA+46458  26.235  40.787   4.148
74144ION    NA+46459  12.995   9.026   4.867
74145ION    NA+46460   2.032  42.413  11.268
74146ION    NA+46461  19.740  36.002  12.639
74147ION    NA+46462   6.488  26.916  11.777
74148ION    NA+46463  13.024  35.189  10.678
74149ION    NA+46464  43.681  26.937  14.746
74150ION    NA+46465  40.147  41.287  13.682
74151ION    NA+46466  26.755   1.059  13.527
74152ION    NA+46467  17.072  23.843   2.301
74153ION    NA+46468  36.776  27.307  10.736
74154ION    NA+46469  43.302  18.535   1.792
74155ION    NA+46470  17.284  29.255  13.477
74156ION    NA+46471   5.749  10.000   0.950
74157ION    NA+46472  29.549  31.438  14.946
74158ION    NA+46473  20.865  32.777  13.885
74159ION    NA+46474  23.580  20.744   3.738
74160ION    NA+46475  28.733  30.350   0.976
74161ION    NA+46476  12.508  42.054   4.554
74162ION    NA+46477   2.172  16.309  14.502
74163ION    NA+46478   9.404  13.892  14.769
74164ION    NA+46479  37.423  17.370   3.149
74165ION    NA+46480  43.663  39.907   2.333
74166ION    NA+46481  22.586  11.163  12.571
74167ION    NA+46482   2.448  34.908  10.955
74168ION    NA+46483  25.578  32.395  12.180
74169ION    NA+46484   8.362  23.228  13.934
74170ION    NA+46485  36.873   6.714   4.139
74171ION    NA+46486   6.894  43.409   1.906
74172ION    NA+46487  37.550  42.963   2.239
74173ION    NA+46488   8.677   0.176   2.862
74174ION    NA+46489  12.525   1.632   1.733
74175ION    NA+46490  42.305  40.899   2.130
74176ION    NA+46491  29.294  18.050   3.782
74177ION    NA+46492  34.747  41.679  11.788
74178ION    NA+46493  19.938  19.894  11.141
74179ION    NA+46494  42.812  22.293   1.122
74180ION    NA+46495  15.144  30.357  10.593
74181ION    NA+46496   7.407  25.474  14.189
74182ION    NA+46497   4.965  42.923   2.373
74183ION    NA+46498   1.786  11.524   1.614
74184ION    NA+46499   1.517   0.424  14.076
74185ION    NA+46500  27.619  11.139   4.732
74186ION    NA+46501   0.124  20.960   1.313
74187ION    NA+46502   5.898   6.381  13.997
74188ION    NA+46503  12.991  26.536   0.005
74189ION    NA+46504   7.923   7.723   4.322
74190ION    NA+46505  22.562  14.315   2.618
74191ION    NA+46506  26.815   0.747   2.554
74192ION    NA+46507   9.851  10.529   2.366
74193ION    NA+46508  38.615  31.005  12.136
74194ION    NA+46509  23.341   9.356   2.509
74195ION    NA+46510   4.408   5.784   0.056
74196ION    NA+46511   8.753   2.542  12.441
74197ION    NA+46512  21.182  29.940  12.904
74198ION    NA+46513  27.605  44.493  12.588
74199ION    NA+46514  37.368  37.812   0.278
74200ION    NA+46515  14.378  18.058   4.506
74201ION    NA+46516  29.340  37.293  11.846
74202ION    NA+46517  11.653  33.377  14.496
74203ION    NA+46518   1.706  24.212  12.478
74204ION    NA+46519  36.363  40.926   1.429
74205ION    NA+46520  38.350   8.099   3.647
74206ION    NA+46521  18.205   0.592  11.703
74207ION    NA+46522  40.257  23.091   2.283
74208ION    NA+46523  35.157  35.896  14.721
74209ION    NA+46524  11.147   6.162   2.585
74210ION    NA+46525  29.137  24.092   1.667
74211ION    NA+46526  36.840  31.438   0.245
74212ION    NA+46527   7.164  22.918   2.810
74213ION    NA+46528  16.879  16.266  13.823
74214ION    NA+46529  38.735   4.908  10.610
74215ION    NA+46530  26.266   1.357   0.849
74216ION    NA+46531  26.134  21.612   1.922
74217ION    NA+46532  33.314  26.286  14.631
74218ION    NA+46533  42.191  38.778  11.575
74219ION    NA+46534  18.673  26.247  10.632
74220ION    NA+46535  12.350   5.558  12.879
74221ION    NA+46536  33.576   5.212  14.530
74222ION    NA+46537  14.762   3.796  14.326
74223ION    NA+46538  28.582  31.219   0.426
74224ION    NA+46539   7.245  13.775  12.552
74225ION    NA+46540  26.848  41.484   5.145
74226ION    NA+46541  40.159  30.221  14.991
74227ION    NA+46542  31.167  34.142   2.399
74228ION    NA+46543  28.689  15.547  11.234
74229ION    NA+46544  32.488   4.409  11.021
74230ION    NA+46545  38.695  25.813   4.491
74231ION    NA+46546   2.330   4.612   3.821
74232ION    NA+46547   8.858  32.162   4.464
74233ION    NA+46548  42.485  39.054  14.656
74234ION    NA+46549  25.984  29.721  12.180
74235ION    NA+46550   1.379  32.710  11.200
74236ION    NA+46551  21.945  29.182   2.154
74237ION    NA+46552   6.428   1.818  14.505
74238ION    NA+46553  40.814  36.567   3.562
74239ION    NA+46554  29.471  35.544  11.591
74240ION    NA+46555   7.422  29.549   3.064
74241ION    NA+46556  25.591   5.975  14.826
74242ION    NA+46557   2.988  41.955   1.163
74243ION    NA+46558  41.997   4.537  11.204
74244ION    NA+46559  20.724  42.573   3.769
74245ION    NA+46560   3.327   1.180  12.614
74246ION    NA+46561  33.399  18.359   4.170
74247ION    NA+46562  19.528  17.715   2.382
74248ION    NA+46563  27.932  38.357  11.568
74249ION    NA+46564  31.560  17.822  14.250
74250ION    NA+46565  35.991  15.136  13.028
74251ION    NA+46566  41.433   0.341  14.857
74252ION    NA+46567  13.252  19.826   2.844
74253ION    NA+46568   0.578  11.266  12.894
74254ION    NA+46569  15.182  24.018   3.120
74255ION    NA+46570  42.228  12.629   2.645
74256ION    NA+46571  19.503  41.766   0.384
74257ION    NA+46572  34.526  34.052   2.094
74258ION    NA+46573  29.840  17.419   4.121
74259ION    NA+46574   9.481  21.161  12.544
74260ION    NA+46575   0.291  28.153  14.894
74261ION    NA+46576  12.097  33.288   2.870
74262ION    NA+46577  24.340   8.128  14.608
74263ION    NA+46578  33.948  37.821   1.659
74264ION    NA+46579   9.034  24.069   1.722
74265ION    NA+46580  43.283  17.617   4.022
74266ION    NA+46581  30.244  34.487   2.574
74267ION    NA+46582  10.158  15.031  11.557
74268ION    NA+46583  26.281  29.845   0.774
74269ION    NA+46584  43.295  44.312   1.306
74270ION    NA+46585  39.809   0.596  14.312
74271ION    NA+46586  35.407  36.163   2.234
74272ION    NA+46587  41.866  36.833   2.207
74273ION    NA+46588  33.307  39.516   3.804
74274ION    NA+46589  30.692  40.142  11.478
74275ION    NA+46590  20.555  14.299  13.118
74276ION    NA+46591  17.036  17.056  11.477
74277ION    NA+46592   3.524  23.239  13.663
74278ION    NA+46593  12.803  28.000   1.616
74279ION    NA+46594  31.644  43.742   0.820
74280ION    NA+46595  30.432  17.921  12.676
74281ION    NA+46596  13.557   5.733   1.820
74282ION    NA+46597  27.219  17.211  13.088
74283ION    NA+46598  22.319  36.048   4.201
74284ION    NA+46599  38.640  11.497  11.430
74285ION    NA+46600  42.458  20.358  14.641
74286ION    NA+46601   2.721  36.511   2.078
74287ION    NA+46602  35.938  14.155  14.751
74288ION    NA+46603   3.682   5.660  12.495
74289ION    NA+46604  17.703  22.236   4.676
74290ION    NA+46605  20.618  13.626   1.347
74291ION    NA+46606  20.810  36.735  13.911
74292ION    NA+46607   5.042   4.268  12.037
74293ION    NA+46608  16.440  31.136  11.838
74294ION    NA+46609  16.064  23.260  11.000
74295ION    NA+46610  38.113   5.834  10.678
74296ION    NA+46611   7.584  25.742  11.194
74297ION    NA+46612   5.055  13.318   4.339
74298ION    NA+46613  40.464  38.928   3.238
74299ION    NA+46614  38.365  42.172   3.108
74300ION    NA+46615  21.107  34.826   0.789
74301ION    NA+46616  24.897  29.822   0.562
74302ION    NA+46617  33.506  28.257   3.148
74303ION    NA+46618  25.583   6.293   3.306
74304ION    NA+46619  10.931  30.638  12.859
74305ION    NA+46620  15.338  28.142   4.400
74306ION    NA+46621   1.626  41.743  10.940
74307ION    NA+46622  42.599  36.291  13.977
74308ION    NA+46623   9.494  20.005   3.209
74309ION    NA+46624  27.599  44.087  13.516
74310ION    NA+46625  26.141   6.923   1.042
74311ION    NA+46626   9.999  30.496  13.191
74312ION    NA+46627   1.980  26.371   2.318
74313ION    NA+46628  40.484   2.610  12.998
74314ION    NA+46629   7.698  34.905  13.394
74315ION    NA+46630  10.491  21.042   0.017
74316ION    NA+46631   2.811  37.938  12.536
74317ION    NA+46632  25.251  38.470  12.368
74318ION    NA+46633  25.232  41.559   2.476
74319ION    NA+46634  12.196  26.395  12.092
74320ION    NA+46635  16.705  28.046  11.690
74321ION    NA+46636  44.234  31.387   1.434
74322ION    NA+46637   8.017   5.888   1.272
74323ION    NA+46638  24.242   8.137   3.276
74324ION    NA+46639   1.533  14.265  11.985
74325ION    NA+46640  43.313  43.696   2.078
74326ION    NA+46641  12.108  36.094  14.729
74327ION    NA+46642  18.594  33.566   5.192
74328ION    NA+46643  44.857  37.404  10.831
74329ION    NA+46644  29.547  24.175   3.310
74330ION    NA+46645  17.601  31.186  14.317
74331ION    NA+46646  14.214   7.148  14.839
74332ION    NA+46647   5.724  31.431  10.156
74333ION    NA+46648   1.435  13.106   0.234
74334ION    NA+46649  23.615  27.444  12.478
74335ION    NA+46650   9.140  27.806   2.233
74336ION    NA+46651  30.684  25.061  12.067
74337ION    NA+46652  23.457   0.743   0.324
74338ION    NA+46653  23.973  37.885   3.214
74339ION    NA+46654  16.031   3.131   1.167
74340ION    NA+46655  40.889  44.525  13.617
74341ION    NA+46656  42.309  41.836   1.556
74342ION    NA+46657  35.958   9.699  13.326
74343ION    NA+46658   3.189  12.190   1.373
74344ION    NA+46659  30.049  27.143   2.921
74345ION    NA+46660   0.556  43.507   0.761
74346ION    NA+46661   0.276   5.438  10.452
74347ION    NA+46662  12.515  43.611  12.104
74348ION    NA+46663  32.961   8.719   0.254
74349ION    NA+46664   5.054  17.104   1.708
74350ION    NA+46665  27.997  39.958  13.282
74351ION    NA+46666  21.151  30.700   9.813
74352ION    NA+46667  34.363  38.156   2.505
74353ION    NA+46668   9.383  14.148   4.216
74354ION    NA+46669  38.963  31.407   1.193
74355ION    NA+46670   6.624   7.219   0.396
74356ION    NA+46671  18.177  36.114  12.021
74357ION    NA+46672  18.873   5.942  14.509
74358ION    NA+46673   4.363  13.225   1.819
74359ION    NA+46674  10.638  44.195   2.353
74360ION    NA+46675  37.240  10.844   1.478
74361ION    NA+46676  28.882  32.450   1.712
74362ION    NA+46677  36.668  37.963   2.996
74363ION    NA+46678  22.775  37.318  11.707
74364ION    NA+46679  37.413  23.383   3.936
74365ION    NA+46680  12.916  27.850   2.511
74366ION    NA+46681  15.047  30.967   0.991
74367ION    NA+46682  21.047  18.705  14.453
74368ION    NA+46683  13.455  20.553   4.366
74369ION    NA+46684  11.550  19.278   3.263
74370ION    NA+46685   1.232   6.708  13.328
74371ION    NA+46686  15.528  44.723  12.923
74372ION    NA+46687  28.097   3.161   4.636
74373ION    NA+46688   5.661  27.054  11.496
74374ION    NA+46689   9.369  21.948  10.920
74375ION    NA+46690   9.272  30.335  12.646
74376ION    NA+46691   6.624  24.808   0.496
74377ION    NA+46692  22.726  18.488  13.628
74378ION    NA+46693  17.833  42.890  14.878
74379ION    NA+46694  31.966  37.077   0.191
74380ION    NA+46695  30.045  38.397   4.385
74381ION    NA+46696   6.996  25.438   0.010
74382ION    NA+46697   7.773  34.335  10.972
74383ION    NA+46698  10.255  23.531   2.777
74384ION    NA+46699   5.567  19.346  11.996
74385ION    NA+46700  42.350  31.465   0.917
74386ION    NA+46701  20.925   9.854  10.127
74387ION    NA+46702  17.839   8.881   9.813
74388ION    NA+46703  19.307  11.986  10.690
74389ION    NA+46704  37.856   5.485   2.662
74390ION    NA+46705  31.427  27.802  11.490
74391ION    NA+46706  12.895  21.959   1.269
74392ION    NA+46707  15.667  39.831  13.846
74393ION    NA+46708   0.664   2.623   2.133
74394ION    NA+46709  24.656  26.125   2.601
74395ION    NA+46710  10.737   5.126  14.749
74396ION    NA+46711  26.138  26.137   0.785
74397ION    NA+46712  25.424  21.995  13.093
74398ION    NA+46713   7.215  23.548   1.262
74399ION    NA+46714  44.238   8.677   5.646
74400ION    NA+46715  20.598   4.480   2.876
74401ION    NA+46716  28.707  39.441  13.760
74402ION    NA+46717  18.428  12.035  12.563
74403ION    NA+46718  19.068  16.846  10.965
74404ION    NA+46719  30.694  19.497   3.794
74405ION    NA+46720  23.605  32.071   4.313
74406ION    NA+46721  25.384  25.039   3.361
74407ION    NA+46722  22.665   5.830  12.852
74408ION    NA+46723   8.732  22.491  11.279
74409ION    NA+46724  27.284  23.809   1.754
74410ION    NA+46725  13.402  11.162   4.655
74411ION    NA+46726  18.616   6.982   3.513
74412ION    NA+46727  44.489  39.272   3.786
74413ION    NA+46728  11.142   7.294   3.685
74414ION    NA+46729  25.322  27.412   2.138
74415ION    NA+46730  40.000   0.273   4.488
74416ION    NA+46731  12.872  17.554   3.719
74417ION    NA+46732  39.831  38.006   1.779
74418ION    NA+46733  34.905  24.515  12.123
74419ION    NA+46734  18.479  13.308  14.727
74420ION    NA+46735  24.600   8.141   4.689
74421ION    NA+46736  29.553   8.669  11.609
74422ION    NA+46737   2.172  25.913  14.014
74423ION    NA+46738  15.703   7.045  11.712
74424ION    NA+46739  18.788  30.132   0.893
74425ION    NA+46740  37.039  44.963  11.007
74426ION    NA+46741  44.279  11.176  14.489
74427ION    NA+46742  42.405  15.589  13.407
74428ION    NA+46743  29.867  19.467  14.967
74429ION    NA+46744  15.245  20.064   3.373
74430ION    NA+46745  10.677   8.477  10.682
74431ION    NA+46746  35.901   7.624  11.219
74432ION    NA+46747  38.916  43.217  10.868
74433ION    NA+46748  10.269  36.937  11.345
74434ION    NA+46749  28.216   7.378  11.662
74435ION    NA+46750  42.256  29.123   0.777
74436ION    NA+46751  29.089  18.051   2.173
74437ION    NA+46752  29.709  32.030   3.132
74438ION    NA+46753  27.495  32.996   2.396
74439ION    NA+46754  33.239  17.306  14.668
74440ION    NA+46755   3.325  25.050  14.810
74441ION    NA+46756  30.584  34.524  12.420
74442ION    NA+46757  38.169  32.453   3.244
74443ION    NA+46758  23.108  20.091   1.444
74444ION    NA+46759   1.993   9.776  12.391
74445ION    NA+46760  44.071   8.376  10.678
74446ION    NA+46761  14.946  28.209  14.887
74447ION    NA+46762  27.252  40.996  12.582
74448ION    NA+46763  20.280  28.222  13.937
74449ION    NA+46764  39.537  26.468   2.995
74450ION    NA+46765  15.667  27.694   2.764
74451ION    NA+46766  35.155   5.193   1.627
74452ION    NA+46767  39.769   1.968   3.605
74453ION    NA+46768   2.757  15.982  12.313
74454ION    NA+46769  35.314  29.640   1.170
74455ION    NA+46770  30.599  22.352  11.229
74456ION    NA+46771  44.263  17.539  14.997
74457ION    NA+46772   3.943  32.531   4.244
74458ION    NA+46773  44.242  35.126  10.681
74459ION    NA+46774  13.829  12.069   1.757
74460ION    NA+46775  16.290  21.645  14.442
74461ION    NA+46776   8.610  43.378  12.237
74462ION    NA+46777  11.197   2.863   0.870
74463ION    NA+46778   8.697  13.269  12.443
74464ION    NA+46779   7.977   6.339   4.487
74465ION    NA+46780  44.069  20.659   0.319
74466ION    NA+46781   5.230   5.357   2.726
74467ION    NA+46782  12.112  20.687   0.815
74468ION    NA+46783  29.337   5.261  11.815
74469ION    NA+46784  40.282   0.239   0.034
74470ION    NA+46785   4.441  34.354  13.418
74471ION    NA+46786  32.214   5.174  13.168
74472ION    NA+46787  19.242   6.644   1.729
74473ION    NA+46788  33.406  37.104   1.001
74474ION    NA+46789   6.688  17.092   4.035
74475ION    NA+46790   5.289  30.363  14.984
74476ION    NA+46791   1.293  16.091  11.340
74477ION    NA+46792  41.448   7.630  14.709
74478ION    NA+46793  34.832  28.740  11.681
74479ION    NA+46794  15.113  11.102   0.062
74480ION    NA+46795  22.642  11.587   0.662
74481ION    NA+46796  44.462   0.336  14.699
74482ION    NA+46797   2.903  32.536  10.533
74483ION    NA+46798  18.819   0.980  14.719
74484ION    NA+46799   8.524   9.149  11.882
74485ION    NA+46800  23.035   3.088   3.581
74486ION    NA+46801  36.352  13.312  12.949
74487ION    NA+46802   1.197   7.299   2.431
74488ION    NA+46803  14.064  17.171  13.086
74489ION    NA+46804  38.892  31.443  13.900
74490ION    NA+46805   0.608  10.867   2.275
74491ION    NA+46806  29.656  25.079  12.020
74492ION    NA+46807  17.999  44.821  12.306
74493ION    NA+46808  44.440  40.310  11.922
74494ION    NA+46809   3.895  41.747   3.116
74495ION    NA+46810   4.294   8.303   0.198
74496ION    NA+46811  42.988  31.889   4.796
74497ION    NA+46812  24.621  24.702   2.715
74498ION    NA+46813   7.593  27.226   4.116
74499ION    NA+46814  36.937  44.281   4.613
74500ION    NA+46815  25.246  24.155  11.914
74501ION    NA+46816  37.714   4.482  14.935
74502ION    NA+46817  18.848  13.889  11.501
74503ION    NA+46818  43.481  10.701  13.912
74504ION    NA+46819   5.730  28.591   0.933
74505ION    NA+46820  28.614   7.339   4.087
74506ION    NA+46821  27.328   9.451  14.400
74507ION    NA+46822  25.699  18.050  12.046
74508ION    NA+46823  21.716   7.479   3.238
74509ION    NA+46824  44.751  30.186   1.208
74510ION    NA+46825  11.961   5.591  12.193
74511ION    NA+46826  40.550  38.120  12.084
74512ION    NA+46827   8.861  16.597   4.127
74513ION    NA+46828  20.519   5.766  13.595
74514ION    NA+46829   3.325  20.485  12.549
74515ION    NA+46830  42.997  42.604   2.815
74516ION    NA+46831   7.525  21.785  11.555
74517ION    NA+46832  40.827  43.206   3.581
74518ION    NA+46833   1.039  17.656   2.268
74519ION    NA+46834  19.805  28.139  12.993
74520ION    NA+46835   2.247  11.726  14.692
74521ION    NA+46836   2.427  14.204  14.417
74522ION    NA+46837   2.857   5.299   0.372
74523ION    NA+46838  11.064  21.414  13.607
74524ION    NA+46839  23.786  10.665   5.166
74525ION    NA+46840  20.348  43.427   1.473
74526ION    NA+46841  15.409  19.935   1.501
74527ION    NA+46842  40.895  44.185   3.771
74528ION    NA+46843   1.564   7.683  11.147
74529ION    NA+46844  24.214  28.241  12.557
74530ION    NA+46845   0.450  38.393   2.256
74531ION    NA+46846  42.795  18.836  11.575
74532ION    NA+46847  30.973   8.885  12.051
74533ION    NA+46848  41.922  42.341  11.150
74534ION    NA+46849  32.541   7.971   3.165
74535ION    NA+46850  12.339   2.327  14.279
74536ION    NA+46851  43.182  31.062   3.779
74537ION    NA+46852  21.056  39.140  11.896
74538ION    NA+46853  36.490   1.494   5.328
74539ION    NA+46854  18.053  14.961  14.630
74540ION    NA+46855  26.601  16.385   2.413
74541ION    NA+46856  13.971  26.591  10.936
74542ION    NA+46857  27.386  22.191   4.644
74543ION    NA+46858  21.551  36.179  10.388
74544ION    NA+46859   6.968   0.160   1.855
74545ION    NA+46860  31.916   7.958   1.500
74546ION    NA+46861  36.324  15.851   4.177
74547ION    NA+46862   5.169  30.884  11.225
74548ION    NA+46863  21.891   2.369  10.444
74549ION    NA+46864  32.531   3.965   4.949
74550ION    NA+46865  18.018   6.320  14.862
74551ION    NA+46866  25.142  18.683   1.939
74552ION    NA+46867  10.286   7.805   1.776
74553ION    NA+46868  26.639   5.705  12.572
74554ION    NA+46869   3.042  21.962   2.428
74555ION    NA+46870  39.998  44.772   3.623
74556ION    NA+46871  33.195   1.732   1.032
74557ION    NA+46872  43.102  19.626  12.376
74558ION    NA+46873  41.842   9.483  14.426
74559ION    NA+46874   4.944  35.495   1.453
74560ION    NA+46875  23.113   2.563   4.700
74561ION    NA+46876  10.474  15.684   3.761
74562ION    NA+46877  26.353  19.296  14.047
74563ION    NA+46878  41.811   1.691   2.729
74564ION    NA+46879  20.327  38.760  12.465
74565ION    NA+46880  14.551  35.692   3.289
74566ION    NA+46881   2.416  17.101  14.134
74567ION    NA+46882  27.072  11.700  11.288
74568ION    NA+46883  13.190  38.042  14.766
74569ION    NA+46884  39.903  41.362   2.208
74570ION    NA+46885  13.852   9.412   3.099
74571ION    NA+46886  14.721  12.184   2.819
74572ION    CL-46887  18.774   2.882  14.013
74573ION    CL-46888  39.481  31.710  11.201
74574ION    CL-46889  21.708  26.502   2.768
74575ION    CL-46890  10.652  13.169  13.422
74576ION    CL-46891  19.639   0.489   2.486
74577ION    CL-46892  21.486   1.426   0.861
74578ION    CL-46893  34.286  22.956   1.681
74579ION    CL-46894  17.679  38.582   1.487
74580ION    CL-46895  33.998  23.953  14.749
74581ION    CL-46896  26.336  39.706  13.418
74582ION    CL-46897   6.158  24.926  10.839
74583ION    CL-46898  42.192   5.046   3.788
74584ION    CL-46899  38.650  33.734   0.239
74585ION    CL-46900  28.151  41.543   4.133
74586ION    CL-46901  11.689  30.078  14.482
74587ION    CL-46902  43.708  20.897   0.168
74588ION    CL-46903  12.034   5.394  12.601
74589ION    CL-46904  26.062  39.876   4.685
74590ION    CL-46905  16.527  44.797  11.914
74591ION    CL-46906  23.453  19.820   1.324
74592ION    CL-46907  40.163  30.612  14.755
74593ION    CL-46908  26.939  37.401   4.559
74594ION    CL-46909   0.825  23.335   1.645
74595ION    CL-46910   2.433   9.314  14.432
74596ION    CL-46911   6.934  14.246  10.450
74597ION    CL-46912   7.696  15.161  12.622
74598ION    CL-46913  35.011  34.593   5.218
74599ION    CL-46914  36.093  43.590   2.166
74600ION    CL-46915  35.824  23.622   1.658
74601ION    CL-46916  22.262  17.997   4.110
74602ION    CL-46917   5.201  11.336   3.633
74603ION    CL-46918  34.207  37.740   1.304
74604ION    CL-46919  31.526  28.593   1.144
74605ION    CL-46920  37.955  19.032   1.589
74606ION    CL-46921  16.238  11.592   3.206
74607ION    CL-46922  44.668  24.278  14.472
74608ION    CL-46923  14.214  38.844   2.800
74609ION    CL-46924  41.996  23.034   1.022
74610ION    CL-46925  32.087  44.727  12.860
74611ION    CL-46926   1.779  31.850  11.924
74612ION    CL-46927  23.221  11.910   3.302
74613ION    CL-46928   1.902   6.160   2.781
74614ION    CL-46929  19.370  25.069  11.640
74615ION    CL-46930  31.659  13.345  14.423
74616ION    CL-46931  29.091  22.479  13.995
74617ION    CL-46932  19.879  36.093   1.360
74618ION    CL-46933  11.447  14.850   0.221
74619ION    CL-46934  16.391  12.650   0.483
74620ION    CL-46935  15.832  17.791  12.971
74621ION    CL-46936  35.130  19.107  11.178
74622ION    CL-46937  41.280  15.225   3.302
74623ION    CL-46938  24.247  23.342  14.427
74624ION    CL-46939  27.896  36.935   4.351
74625ION    CL-46940  25.676  32.536   0.151
74626ION    CL-46941  28.884  29.934   1.053
74627ION    CL-46942  43.228  42.308   4.651
74628ION    CL-46943   0.905  38.507   0.458
74629ION    CL-46944  34.809   8.974  13.357
74630ION    CL-46945  21.823  13.124   0.314
74631ION    CL-46946  34.090  39.451  14.456
74632ION    CL-46947  44.446  26.225  14.428
74633ION    CL-46948   5.051  32.564   0.458
74634ION    CL-46949  18.688   9.977   4.727
74635ION    CL-46950  20.550  36.124   2.712
74636ION    CL-46951  30.359  22.653  10.989
74637ION    CL-46952  43.428  33.649  10.500
74638ION    CL-46953  12.624   7.074  13.932
74639ION    CL-46954  21.630   0.012  13.616
74640ION    CL-46955  33.332  43.426  12.796
74641ION    CL-46956  31.277  28.187  11.308
74642ION    CL-46957   0.322  18.070  14.550
74643ION    CL-46958   2.003  42.023  11.037
74644ION    CL-46959  23.778  31.561   1.252
74645ION    CL-46960  34.286  24.911  14.446
74646ION    CL-46961  27.096  43.902   0.737
74647ION    CL-46962  28.406  42.045   2.781
74648ION    CL-46963  29.187  11.566   2.126
74649ION    CL-46964  39.472  16.199   1.420
74650ION    CL-46965  30.301  21.950   2.405
74651ION    CL-46966  39.298  20.597  13.842
74652ION    CL-46967  17.564  28.485   3.369
74653ION    CL-46968  10.990  21.920  11.015
74654ION    CL-46969  13.036  31.032  12.143
74655ION    CL-46970  32.658  24.188  14.462
74656ION    CL-46971  17.613   6.839  12.381
74657ION    CL-46972  23.710   6.542   2.023
74658ION    CL-46973   8.970  15.741  12.671
74659ION    CL-46974   8.783   7.802  12.153
74660ION    CL-46975  24.663  19.753   2.332
74661ION    CL-46976   4.752  12.852  11.646
74662ION    CL-46977   0.759   3.247  13.809
74663ION    CL-46978  15.082   7.888   4.873
74664ION    CL-46979  27.222  13.379   2.364
74665ION    CL-46980  18.579  33.846   0.461
74666ION    CL-46981  29.741  42.836  12.445
74667ION    CL-46982  19.758  20.743  12.560
74668ION    CL-46983  22.176   4.766   1.902
74669ION    CL-46984  30.961  42.274  13.568
74670ION    CL-46985  18.840   2.260   2.217
74671ION    CL-46986  11.827  19.058  13.510
74672ION    CL-46987  26.502  38.925  11.009
74673ION    CL-46988  31.146   7.478   0.376
74674ION    CL-46989  19.442   3.084   3.484
74675ION    CL-46990  19.831  10.790  13.619
74676ION    CL-46991  17.698  43.637  14.868
74677ION    CL-46992  40.203   1.015   2.572
74678ION    CL-46993  16.419  24.456  12.963
74679ION    CL-46994   5.861  41.610   2.755
74680ION    CL-46995  42.544  31.067   0.981
74681ION    CL-46996  41.924  20.488   1.455
74682ION    CL-46997  32.348  20.905   1.229
74683ION    CL-46998  43.406  33.080  12.069
74684ION    CL-46999  27.307   8.207  14.186
74685ION    CL-47000  16.039  43.030  11.216
74686ION    CL-47001  22.207  16.152  10.628
74687ION    CL-47002   3.962  20.546  13.349
74688ION    CL-47003  44.480   5.840  13.013
74689ION    CL-47004  21.555  40.289  11.931
74690ION    CL-47005  17.641  15.821  10.942
74691ION    CL-47006  32.102  43.866   3.917
74692ION    CL-47007  23.685   0.773  11.633
74693ION    CL-47008  41.522   7.365   1.853
74694ION    CL-47009  20.325  42.434   3.937
74695ION    CL-47010  10.662  15.753  13.564
74696ION    CL-47011  43.552  44.929   3.839
74697ION    CL-47012  44.269  22.563   2.439
74698ION    CL-47013  30.985  23.581  14.785
74699ION    CL-47014  13.792  42.586   4.622
74700ION    CL-47015  35.082  32.405  11.575
74701ION    CL-47016  44.328  13.247   2.219
74702ION    CL-47017  32.132  14.676   0.780
74703ION    CL-47018  23.370  28.255   3.809
74704ION    CL-47019  31.963  42.354   1.143
74705ION    CL-47020  32.762  40.100   2.973
74706ION    CL-47021  34.228  37.908   2.879
74707ION    CL-47022  42.299  18.108   4.129
74708ION    CL-47023   5.693   9.095  14.164
74709ION    CL-47024  12.116  28.909  14.564
74710ION    CL-47025   3.802  33.286  11.978
74711ION    CL-47026  22.711   7.773   3.281
74712ION    CL-47027  10.118   1.407  11.653
74713ION    CL-47028  15.609  41.169  12.497
74714ION    CL-47029  14.328  16.551   4.443
74715ION    CL-47030  44.265  19.397   2.422
74716ION    CL-47031   6.773  36.771  12.888
74717ION    CL-47032  29.772   0.199   2.992
74718ION    CL-47033   8.525  39.956   1.129
74719ION    CL-47034  30.616  28.723   3.651
74720ION    CL-47035  42.168  10.884  13.518
74721ION    CL-47036   3.953  14.697   4.070
74722ION    CL-47037  16.838   4.941   2.043
74723ION    CL-47038  35.955  17.718   2.915
74724ION    CL-47039  35.403  39.310  13.964
74725ION    CL-47040  16.831  12.470  10.959
74726ION    CL-47041  22.771  20.392   1.504
74727ION    CL-47042  35.703   5.751   3.289
74728ION    CL-47043  28.570  28.972  14.953
74729ION    CL-47044  16.680  31.315  11.506
74730ION    CL-47045  20.817  30.914  14.315
74731ION    CL-47046   9.752  41.748  11.751
74732ION    CL-47047  17.224  12.356  14.841
74733ION    CL-47048  19.787  34.189   1.888
74734ION    CL-47049  22.198  36.917  14.602
74735ION    CL-47050  25.971   5.872   1.607
74736ION    CL-47051  44.286  23.675   4.778
74737ION    CL-47052  36.349  11.353   2.064
74738ION    CL-47053  27.980  11.482  12.981
74739ION    CL-47054  18.338  41.793   1.389
74740ION    CL-47055  24.232  37.851   0.960
74741ION    CL-47056  22.324  44.454  11.178
74742ION    CL-47057  12.883  27.884   2.061
74743ION    CL-47058  34.267  38.546   2.290
74744ION    CL-47059  19.053   3.372  14.543
74745ION    CL-47060  36.755  15.939  12.651
74746ION    CL-47061  13.237  32.236   5.258
74747ION    CL-47062   0.055  25.521   0.291
74748ION    CL-47063  36.254  35.494  13.639
74749ION    CL-47064  15.105  27.436   3.686
74750ION    CL-47065  20.712   7.722  14.984
74751ION    CL-47066  44.344  31.719   1.728
74752ION    CL-47067  19.648  15.870   3.333
74753ION    CL-47068  37.455   1.654   1.070
74754ION    CL-47069  36.083  37.452   4.668
74755ION    CL-47070  33.389   6.734   3.235
74756ION    CL-47071  17.433  42.679  14.980
74757ION    CL-47072  43.645  24.105  13.480
74758ION    CL-47073   7.259  35.237  11.660
74759ION    CL-47074  40.784   4.791  11.183
74760ION    CL-47075  42.728  38.687  14.537
74761ION    CL-47076  11.268  43.772  11.434
74762ION    CL-47077  28.629  25.648  14.727
74763ION    CL-47078   4.507  43.554   0.903
74764ION    CL-47079  15.611  27.252   2.797
74765ION    CL-47080  35.509   7.424  11.333
74766ION    CL-47081  22.430  43.709  13.739
74767ION    CL-47082  17.988  37.555  11.074
74768ION    CL-47083   5.471  28.425  12.610
74769ION    CL-47084  40.743   2.270  13.124
74770ION    CL-47085  40.763  33.155   1.253
74771ION    CL-47086  32.229  24.520  11.613
74772ION    CL-47087  39.797  35.276  13.525
74773ION    CL-47088  36.061  44.320   2.969
74774ION    CL-47089  33.503  26.457  14.239
74775ION    CL-47090  13.347  15.493   4.004
74776ION    CL-47091  19.771  20.038   1.039
74777ION    CL-47092   3.339  20.153  14.407
74778ION    CL-47093  24.877  37.969   0.333
74779ION    CL-47094  35.897  42.294   1.961
74780ION    CL-47095   4.407  12.881  10.337
74781ION    CL-47096  10.718  37.898  12.050
74782ION    CL-47097   3.771  10.438   4.790
74783ION    CL-47098   9.268  36.934  14.996
74784ION    CL-47099  15.580   5.406   4.080
74785ION    CL-47100  40.092   0.431  14.646
74786ION    CL-47101   5.304  15.094  12.491
74787ION    CL-47102  23.155  16.644   1.839
74788ION    CL-47103  37.096  21.475  12.592
74789ION    CL-47104  39.358   4.695   1.301
74790ION    CL-47105  15.707   5.684   2.075
74791ION    CL-47106  15.716  31.825   2.455
74792ION    CL-47107  35.525  33.417  10.870
74793ION    CL-47108   7.821   2.830  10.782
74794ION    CL-47109  18.183  41.513  12.000
74795ION    CL-47110  23.210   3.713  11.915
74796ION    CL-47111  42.255   5.587   2.591
74797ION    CL-47112  29.245  40.060   2.785
74798ION    CL-47113  35.667  19.671   3.885
74799ION    CL-47114  37.806   8.440  11.093
74800ION    CL-47115  27.690  23.514   4.705
74801ION    CL-47116   7.417   0.428   0.415
74802ION    CL-47117  14.449  18.181   4.949
74803ION    CL-47118  10.942  33.727  11.787
74804ION    CL-47119  24.475  14.647   3.324
74805ION    CL-47120  43.244   0.074  11.423
74806ION    CL-47121  21.237   1.625   0.003
74807ION    CL-47122  11.901  35.498   1.336
74808ION    CL-47123  13.274  30.458   5.278
74809ION    CL-47124  33.477   9.178  14.002
74810ION    CL-47125  14.036   2.534   0.762
74811ION    CL-47126  35.865  41.578  13.820
74812ION    CL-47127  27.595  24.382  14.707
74813ION    CL-47128  37.897  39.587  10.669
74814ION    CL-47129  43.331  12.880   3.990
74815ION    CL-47130   3.670  24.426   0.926
74816ION    CL-47131   1.673  39.145  13.936
74817ION    CL-47132  34.708  43.051  10.411
74818ION    CL-47133   5.545  26.758  11.165
74819ION    CL-47134  43.310  41.271   2.734
74820ION    CL-47135  36.985  40.954  10.771
74821ION    CL-47136  30.532   6.377  12.190
74822ION    CL-47137  11.833  21.620  12.437
74823ION    CL-47138  39.031   3.181  13.233
74824ION    CL-47139   0.991  11.378  11.969
74825ION    CL-47140   7.515  38.467  12.012
74826ION    CL-47141  10.703   8.906  10.863
74827ION    CL-47142  18.560  14.906  13.109
74828ION    CL-47143  20.777  18.968   3.750
74829ION    CL-47144  34.353  41.604  11.579
74830ION    CL-47145  12.253  33.391   4.920
74831ION    CL-47146  32.105   5.445   0.182
74832ION    CL-47147  36.042  23.555  11.159
74833ION    CL-47148  44.772  16.304  11.219
74834ION    CL-47149   2.798  42.125   3.858
74835ION    CL-47150  38.072   1.636   0.284
74836ION    CL-47151  25.333  22.166   3.842
74837ION    CL-47152  26.209   9.341   3.811
74838ION    CL-47153  32.381  22.150   3.293
74839ION    CL-47154  36.375  42.532  10.844
74840ION    CL-47155   4.732  13.589   4.533
74841ION    CL-47156  14.018  24.922   3.862
74842ION    CL-47157  39.767  28.152   3.179
74843ION    CL-47158   1.180  40.005   2.751
74844ION    CL-47159  37.650  23.826  11.533
74845ION    CL-47160  26.431  30.724  14.036
74846ION    CL-47161   3.104  29.529  11.630
74847ION    CL-47162  41.510   8.448   1.333
74848ION    CL-47163  29.802  28.930   1.144
74849ION    CL-47164  37.977  17.452   1.487
74850ION    CL-47165  26.695  30.941  10.715
74851ION    CL-47166  33.497  26.214   0.054
74852ION    CL-47167   8.338   3.857   3.109
74853ION    CL-47168  33.963   4.974   9.889
74854ION    CL-47169   9.443  21.185   2.360
74855ION    CL-47170  36.292  38.210   2.940
74856ION    CL-47171  15.114  18.775   2.737
74857ION    CL-47172  20.721   4.508   1.162
74858ION    CL-47173  22.371   3.566  12.855
74859ION    CL-47174   0.242   6.546   2.358
74860ION    CL-47175  38.939  33.915   4.743
74861ION    CL-47176  27.450  27.500  10.358
74862ION    CL-47177   4.018  28.047  13.820
74863ION    CL-47178   8.299   2.823   3.731
74864ION    CL-47179  19.806   3.690   4.191
74865ION    CL-47180  13.104  21.336  14.408
74866ION    CL-47181  38.349  41.370   1.322
74867ION    CL-47182  17.870   1.611  11.664
74868ION    CL-47183  33.772  42.791  11.801
74869ION    CL-47184   1.669   1.933   2.797
74870ION    CL-47185  27.873   3.461   4.896
74871ION    CL-47186  11.993   8.609  11.751
74872ION    CL-47187  30.707  18.324   2.343
74873ION    CL-47188   8.718   9.182  13.775
74874ION    CL-47189   8.945  38.851   4.378
74875ION    CL-47190   6.627  19.026   1.400
74876ION    CL-47191  28.242  16.119   2.282
74877ION    CL-47192  16.007  36.611  14.555
74878ION    CL-47193   0.842   7.340   2.135
74879ION    CL-47194  28.581  30.945   5.146
74880ION    CL-47195  36.197  18.791   2.845
74881ION    CL-47196  23.391   4.726  14.618
74882ION    CL-47197  41.620  37.404  11.023
74883ION    CL-47198  23.040  24.197  11.618
74884ION    CL-47199  29.066   6.148  12.833
74885ION    CL-47200  34.668   4.824  12.213
74886ION    CL-47201  35.451  43.867   3.674
74887ION    CL-47202  12.142  38.588  14.083
74888ION    CL-47203  23.507  27.518   4.321
74889ION    CL-47204  11.398   7.684  13.247
74890ION    CL-47205  15.138  37.581   3.650
74891ION    CL-47206   2.337  44.359   2.352
74892ION    CL-47207  28.550  22.303   1.836
74893ION    CL-47208  31.783  21.204   1.998
74894ION    CL-47209  12.287   2.040   3.338
74895ION    CL-47210  41.361  32.530  14.356
74896ION    CL-47211  30.482  10.539   3.875
74897ION    CL-47212  32.329  42.546  13.919
74898ION    CL-47213  44.979  10.770   4.044
74899ION    CL-47214  21.019   7.248   1.370
74900ION    CL-47215  29.651   4.320   2.681
74901ION    CL-47216  24.225  32.327   2.343
74902ION    CL-47217  23.010  40.949   0.518
74903ION    CL-47218   6.007  15.038  13.052
74904ION    CL-47219  41.685  17.559  11.163
74905ION    CL-47220  14.626  32.026   3.714
74906ION    CL-47221  19.106  24.175   0.028
74907ION    CL-47222   7.350  10.182   1.827
74908ION    CL-47223  35.528  12.938  11.140
74909ION    CL-47224   8.364   9.732   4.314
74910ION    CL-47225  40.053  40.899  13.896
74911ION    CL-47226  27.919  28.133  12.885
74912ION    CL-47227  42.497  19.904  14.669
74913ION    CL-47228   2.579  32.852  10.609
74914ION    CL-47229  30.857  34.859  12.524
74915ION    CL-47230  12.090  13.195   1.200
74916ION    CL-47231   2.529  11.103   4.107
74917ION    CL-47232   0.543   5.197  10.148
74918ION    CL-47233   7.577  40.166  12.196
74919ION    CL-47234  25.768  42.578  14.486
74920ION    CL-47235  29.044   5.586  10.109
74921ION    CL-47236   7.593  40.137  14.880
74922ION    CL-47237   4.613   6.314   3.656
74923ION    CL-47238  11.876  24.687   3.254
74924ION    CL-47239  17.638   4.318  11.935
74925ION    CL-47240  39.905  17.829   1.225
74926ION    CL-47241  42.763  21.069   3.730
74927ION    CL-47242  14.395  43.806   1.239
74928ION    CL-47243  36.326  41.842  11.398
74929ION    CL-47244  30.955   5.335   5.024
74930ION    CL-47245  25.949  35.681  14.524
74931ION    CL-47246   8.980  29.075   4.091
74932ION    CL-47247  43.237  10.339  13.806
74933ION    CL-47248  10.020  40.400   5.056
74934ION    CL-47249  12.596  35.068  10.851
74935ION    CL-47250  16.794  42.613  14.179
74936ION    CL-47251  16.816  10.390  12.836
74937ION    CL-47252   7.732   1.468   2.243
74938ION    CL-47253  40.012  37.704  14.597
74939ION    CL-47254  10.101   1.988   0.375
74940ION    CL-47255  43.204  32.179   1.221
74941ION    CL-47256  12.019  34.756  12.007
74942ION    CL-47257  19.020  40.551  14.981
74943ION    CL-47258   3.601   7.447   4.230
74944ION    CL-47259  22.262   0.809   0.997
74945ION    CL-47260  42.457  36.990   3.422
74946ION    CL-47261  25.028  38.918   3.079
74947ION    CL-47262  22.556  38.933  14.536
74948ION    CL-47263  36.479  10.051   4.994
74949ION    CL-47264  15.354  38.960  10.895
74950ION    CL-47265   6.220  23.489  12.791
74951ION    CL-47266   9.599  36.578  12.422
74952ION    CL-47267  21.363  34.536  13.378
74953ION    CL-47268  30.449   7.873   2.796
74954ION    CL-47269  27.248   5.192   2.698
74955ION    CL-47270   7.410   5.596  12.943
74956ION    CL-47271   0.501  33.702  11.148
74957ION    CL-47272  10.427   8.410  10.253
74958ION    CL-47273  18.337  13.879   2.873
74959ION    CL-47274   3.997  14.092  14.731
74960ION    CL-47275  40.964  10.682  12.002
74961ION    CL-47276  29.559  41.202  14.170
74962ION    CL-47277   1.617   0.006  11.657
74963ION    CL-47278  12.224  32.083   1.979
74964ION    CL-47279  20.721  32.130   0.460
74965ION    CL-47280  15.026  12.584   0.581
74966ION    CL-47281  43.520  17.465  12.481
74967ION    CL-47282   5.543   6.892   4.108
74968ION    CL-47283  26.137  17.706  10.654
74969ION    CL-47284  44.427  43.743   1.325
74970ION    CL-47285  10.485  40.863  14.265
74971ION    CL-47286  26.707  14.875   3.311
74972ION    CL-47287   1.413  35.884  14.144
74973ION    CL-47288  33.582  26.598   1.973
74974ION    CL-47289  27.536   8.724   2.797
74975ION    CL-47290  15.146  27.796   4.618
74976ION    CL-47291  39.617  44.564   3.509
74977ION    CL-47292  28.603  33.981   2.619
74978ION    CL-47293  21.021  32.839  13.437
74979ION    CL-47294  21.225  41.585   1.346
74980ION    CL-47295   4.231  29.092   1.663
74981ION    CL-47296   9.637  18.212  10.719
74982ION    CL-47297   8.299  36.978  14.752
74983ION    CL-47298  19.308  25.891   5.166
74984ION    CL-47299   9.408  18.149  12.944
74985ION    CL-47300  15.555  40.183  12.329
74986ION    CL-47301  35.495   2.301   4.123
74987ION    CL-47302   6.744  42.908  13.436
74988ION    CL-47303  38.313   4.671   4.080
74989ION    CL-47304  18.080  34.161  13.268
74990ION    CL-47305  20.990  24.252  13.751
74991ION    CL-47306  19.277  30.217  12.220
74992ION    CL-47307   0.526  10.332   0.616
74993ION    CL-47308  34.597  22.232   0.524
74994ION    CL-47309  43.079  13.877   3.247
74995ION    CL-47310  21.089  34.710   4.548
74996ION    CL-47311  29.966  10.300   1.662
74997ION    CL-47312  24.877  15.558  14.899
74998ION    CL-47313  19.974  31.720   1.739
74999ION    CL-47314  16.411  10.315   4.547
75000ION    CL-47315  12.655  30.887   4.996
75001ION    CL-47316  12.820   8.705   1.824
75002ION    CL-47317  39.341  16.050   4.889
75003ION    CL-47318  35.591  31.485   4.334
75004ION    CL-47319  30.861  22.074  11.474
75005ION    CL-47320  19.352  35.922   3.411
75006ION    CL-47321  22.032  20.797  11.649
75007ION    CL-47322  42.468  25.947  12.979
75008ION    CL-47323  39.046   5.814   3.306
75009ION    CL-47324  43.119  33.195   1.301
75010ION    CL-47325  38.245   9.314  13.855
75011ION    CL-47326   8.600  38.472   0.499
75012ION    CL-47327  18.625  23.712  12.629
75013ION    CL-47328  22.104  33.495  14.488
75014ION    CL-47329  38.517   3.023   3.541
75015ION    CL-47330   3.824  40.862   0.011
75016ION    CL-47331  41.598  20.922  11.836
75017ION    CL-47332  24.371  27.826   3.016
75018ION    CL-47333  43.909  37.838  13.376
75019ION    CL-47334   6.023  13.972   3.377
75020ION    CL-47335  26.078  41.593  13.788
75021ION    CL-47336  19.421  39.886  12.427
75022ION    CL-47337  21.734  10.816  11.571
75023ION    CL-47338  22.846   0.533   3.325
75024ION    CL-47339   1.160   6.679   2.733
75025ION    CL-47340  44.395   9.371   9.782
75026ION    CL-47341  33.091  28.412   3.207
75027ION    CL-47342  18.170   8.759  14.504
75028ION    CL-47343   2.365  42.659  12.789
75029ION    CL-47344  44.776   9.679   0.512
75030ION    CL-47345   3.434   8.814  13.434
75031ION    CL-47346  32.198   0.754   3.800
75032ION    CL-47347  26.114  17.404   2.885
75033ION    CL-47348  17.870  15.029   0.034
75034ION    CL-47349  37.815  20.438  14.318
75035ION    CL-47350   0.911   8.049   2.836
75036ION    CL-47351  44.460  21.629  13.543
75037ION    CL-47352  33.119  38.874  10.558
75038ION    CL-47353   0.386  36.553  12.381
75039ION    CL-47354  39.969  17.615  13.703
75040ION    CL-47355  41.075  44.270   0.946
75041ION    CL-47356  19.257  35.001   1.234
75042ION    CL-47357  43.430  22.545  12.016
75043ION    CL-47358   8.143   5.967   0.782
75044ION    CL-47359  34.234  43.493  12.343
75045ION    CL-47360  13.151   7.188   1.844
75046ION    CL-47361   0.091  40.874  10.813
75047ION    CL-47362   9.768   9.421  12.679
75048ION    CL-47363  37.147  40.104   2.858
75049ION    CL-47364  24.996  33.927  13.968
75050ION    CL-47365  41.418  18.529   1.397
75051ION    CL-47366  11.294  22.273   0.344
75052ION    CL-47367  20.693  14.457   4.011
75053ION    CL-47368   1.559  42.239  12.617
75054ION    CL-47369  12.252  15.585   2.762
75055ION    CL-47370  36.297  40.238  11.837
75056ION    CL-47371  40.280  35.625   3.339
75057ION    CL-47372  44.234  39.949  14.258
75058ION    CL-47373  35.552  43.264  14.726
75059ION    CL-47374   9.141  22.270  11.174
75060ION    CL-47375  15.875  14.705  14.509
75061ION    CL-47376  15.791  38.282   9.780
75062ION    CL-47377  10.148   2.326  12.636
75063ION    CL-47378  22.139  36.271   4.545
75064ION    CL-47379  39.083  31.450   4.187
75065ION    CL-47380  38.965  12.778   2.838
75066ION    CL-47381  21.303   2.944  11.250
75067ION    CL-47382  19.490   3.039   4.881
75068ION    CL-47383  44.028  26.188  11.940
75069ION    CL-47384  42.839  42.969   0.967
75070ION    CL-47385   1.256  18.045   2.230
75071ION    CL-47386   4.220  31.107   3.642
75072ION    CL-47387   6.849  35.395   0.216
75073ION    CL-47388  20.000  40.624   9.742
75074ION    CL-47389  26.394  42.129   0.463
75075ION    CL-47390  27.525  18.398   0.057
75076ION    CL-47391  22.509  22.029  12.537
75077ION    CL-47392  13.825   4.779   2.193
75078ION    CL-47393  18.006  20.709   1.739
75079ION    CL-47394   0.315   3.233  12.913
75080ION    CL-47395   4.225   0.241  10.549
75081ION    CL-47396  22.035  25.892  11.656
75082ION    CL-47397  36.093  19.576   2.532
75083ION    CL-47398   1.638  43.772  10.384
75084ION    CL-47399  36.822  42.316   1.255
75085ION    CL-47400  28.087   2.918   5.049
75086ION    CL-47401  41.219  39.989   3.511
75087ION    CL-47402  22.798  11.547  12.440
75088ION    CL-47403   4.763  10.966   2.209
75089ION    CL-47404  17.800  34.209   1.028
75090ION    CL-47405   3.463   4.447  14.030
75091ION    CL-47406  29.010  35.010  14.851
75092ION    CL-47407   6.099  26.864  11.529
75093ION    CL-47408  28.954  34.317  10.041
75094ION    CL-47409  17.742  18.580  13.861
75095ION    CL-47410  23.193  39.831  11.252
75096ION    CL-47411  10.835  43.801  10.533
75097ION    CL-47412  37.338  29.570  13.877
75098ION    CL-47413  15.260  38.531  12.529
75099ION    CL-47414   5.326  12.961   4.467
75100ION    CL-47415  24.351  32.362  13.486
75101ION    CL-47416  38.740   8.262   3.481
75102ION    CL-47417  11.572  37.377  12.020
75103ION    CL-47418  10.909   8.094  10.821
75104ION    CL-47419  14.436   3.989   2.045
75105ION    CL-47420  33.920  29.044  11.162
75106ION    CL-47421  43.163  33.107   4.110
75107ION    CL-47422  43.264  14.693   1.978
75108ION    CL-47423   4.160   2.827  11.764
75109ION    CL-47424   5.371  10.159   0.711
75110ION    CL-47425   5.653   2.467   0.901
75111ION    CL-47426  28.255  42.845  14.161
75112ION    CL-47427  32.516  21.830   5.019
75113ION    CL-47428   7.161   5.014  10.163
75114ION    CL-47429  20.454  32.617  13.747
75115ION    CL-47430  32.917  32.517  11.238
75116ION    CL-47431  26.873  40.827   9.915
75117ION    CL-47432  24.740  21.492   2.324
75118ION    CL-47433  34.134  13.439   3.145
75119ION    CL-47434   9.075   0.612  11.380
75120ION    CL-47435  18.659  19.955   1.808
75121ION    CL-47436   4.640   6.917  11.372
75122ION    CL-47437  36.351   4.600   9.959
75123ION    CL-47438  40.583  27.490  13.053
75124ION    CL-47439   1.347  36.780  10.107
75125ION    CL-47440  11.762  36.359  14.615
75126ION    CL-47441   5.960   4.276   3.200
75127ION    CL-47442  19.023   0.726   0.039
75128ION    CL-47443  17.649  23.915  14.507
75129ION    CL-47444  23.278  41.560  11.218
75130ION    CL-47445  18.784  12.477   2.722
75131ION    CL-47446  33.338  42.067   1.225
75132ION    CL-47447  21.029   9.172   2.228
75133ION    CL-47448   8.173   0.789   4.212
75134ION    CL-47449  40.149  23.051   2.713
75135ION    CL-47450  29.503  15.908  14.294
75136ION    CL-47451  27.498  35.476   0.610
75137ION    CL-47452  12.879  17.663   3.288
75138ION    CL-47453  16.602  39.543  11.175
75139ION    CL-47454  26.417  43.154   4.070
75140ION    CL-47455  10.098  18.854   4.166
75141ION    CL-47456  24.504  18.565  11.184
75142ION    CL-47457  25.299  28.613   0.383
75143ION    CL-47458   6.789  15.115   3.223
75144ION    CL-47459  23.527  38.125   0.305
75145ION    CL-47460  38.732   0.831   1.282
75146ION    CL-47461  20.518  20.767  13.525
75147ION    CL-47462   7.148  25.497  14.567
75148ION    CL-47463  25.976  20.111  12.243
75149ION    CL-47464  24.669  20.713  12.456
75150ION    CL-47465  14.904  22.766   2.583
75151ION    CL-47466  29.627  41.583   0.162
75152ION    CL-47467  44.771  25.255  14.285
75153ION    CL-47468   0.455  44.416  13.165
75154ION    CL-47469  12.306  41.165  14.708
75155ION    CL-47470  17.854   9.497   1.720
75156ION    CL-47471   4.692   5.879  13.499
75157ION    CL-47472  26.012  37.170  11.702
75158ION    CL-47473  12.327  34.778  14.617
75159ION    CL-47474  36.624  10.768   4.451
75160ION    CL-47475   2.310  19.136  14.577
75161ION    CL-47476  37.855  16.100  11.179
75162ION    CL-47477  11.625  41.835   3.430
75163ION    CL-47478  34.707  25.821  14.382
75164ION    CL-47479   4.753  21.532   0.113
75165ION    CL-47480  35.726  22.734  14.796
75166ION    CL-47481  40.665   1.626   4.810
75167ION    CL-47482   0.774  36.952   2.221
75168ION    CL-47483  31.217   2.862  12.801
75169ION    CL-47484   7.893  27.625  12.832
75170ION    CL-47485  44.803  22.624   5.135
75171ION    CL-47486  27.256  11.409   4.664
75172ION    CL-47487  11.111  19.756  13.487
75173ION    CL-47488  24.763   1.450  13.332
75174ION    CL-47489  31.992  29.924   4.386
75175ION    CL-47490  44.243  18.705   1.195
75176ION    CL-47491  34.419  31.759  14.583
75177ION    CL-47492  42.800  16.884  11.420
75178ION    CL-47493  21.064  21.253  12.842
75179ION    CL-47494  37.025  38.736   4.144
75180ION    CL-47495  15.827  29.278   1.934
75181ION    CL-47496  32.864  28.558  13.361
75182ION    CL-47497  36.602  31.279  14.902
75183ION    CL-47498  24.220  24.892   2.823
75184ION    CL-47499  35.320   5.448   0.819
75185ION    CL-47500  14.652   6.272   1.174
75186ION    CL-47501   7.447   6.394   3.246
75187ION    CL-47502  24.250  17.711   3.878
75188ION    CL-47503   0.012  15.875   1.520
75189ION    CL-47504  18.553  13.717  11.212
75190ION    CL-47505   4.768   2.007   0.807
75191ION    CL-47506  38.089  40.944   3.588
75192ION    CL-47507  43.054  12.290  14.158
75193ION    CL-47508   5.390  23.924  10.608
75194ION    CL-47509  35.699   5.013  13.700
75195ION    CL-47510   8.286   1.991  10.434
75196ION    CL-47511  21.830  26.906   4.575
75197ION    CL-47512  18.600  28.016   0.802
75198ION    CL-47513  14.299  40.047   3.226
75199ION    CL-47514  39.074  11.982  10.354
75200ION    CL-47515  39.543  22.023   3.766
75201ION    CL-47516   0.509  30.078   2.081
75202ION    CL-47517   5.662  20.687   3.706
75203ION    CL-47518  38.492  40.811   2.683
75204ION    CL-47519  28.657   6.918   5.096
75205ION    CL-47520  15.617  34.672  13.412
75206ION    CL-47521  43.549   1.130  12.738
75207ION    CL-47522  24.029  27.706   9.999
75208ION    CL-47523  21.953   5.348   0.019
75209ION    CL-47524   2.648  22.052   2.641
75210ION    CL-47525  34.173  19.584  13.120
75211ION    CL-47526   8.184   5.478  10.944
75212ION    CL-47527  24.208  28.216   1.391
75213ION    CL-47528  42.791  36.771   0.589
75214ION    CL-47529  36.396  40.939  12.248
75215ION    CL-47530  13.448  33.539   2.941
75216ION    CL-47531  25.523   3.896   9.772
75217ION    CL-47532  39.314  33.528   2.800
75218ION    CL-47533  18.149  37.537   5.182
75219ION    CL-47534  21.792  18.866   3.912
75220ION    CL-47535  15.162  42.950  12.854
75221ION    CL-47536   3.955  27.082  12.155
75222ION    CL-47537  15.405  22.263   3.041
75223ION    CL-47538  26.778  37.597   1.759
75224ION    CL-47539   3.518  17.630  14.891
75225ION    CL-47540  30.657  28.532  10.589
75226ION    CL-47541  44.642  14.136   0.487
75227ION    CL-47542  34.657  29.991  14.941
75228ION    CL-47543  16.089  34.556   0.908
75229ION    CL-47544  19.745  10.270  11.003
75230ION    CL-47545  43.003  39.835   1.010
75231ION    CL-47546  18.026  25.543   4.060
75232ION    CL-47547  15.084  44.946   0.832
75233ION    CL-47548   3.364   6.268   5.111
75234ION    CL-47549  26.842  13.338   4.948
75235ION    CL-47550  28.839  39.549  12.332
75236ION    CL-47551  13.113  30.104   3.114
75237ION    CL-47552  11.536  34.186  11.319
75238ION    CL-47553  40.002  33.270   1.580
75239ION    CL-47554   1.484  41.317  11.018
75240ION    CL-47555  12.118  16.741  12.177
75241ION    CL-47556   4.967  40.364  11.990
75242ION    CL-47557  23.455  21.763   4.631
75243ION    CL-47558  36.570  22.253   1.345
75244ION    CL-47559  13.452  13.819  12.036
75245ION    CL-47560   3.219  27.574  12.228
75246ION    CL-47561  37.653  40.195  14.137
75247ION    CL-47562   7.552  34.705  10.849
75248ION    CL-47563  12.718  28.218   1.226
75249ION    CL-47564  30.413  40.385   1.789
75250ION    CL-47565  38.530  39.944   2.186
75251ION    CL-47566  34.904   7.132   4.023
75252ION    CL-47567  38.290  17.627  14.352
75253ION    CL-47568  41.519  23.928  14.600
75254ION    CL-47569   1.914  10.168  14.392
75255ION    CL-47570  14.235  23.964   0.403
75256ION    CL-47571  29.272  28.291  12.837
75257ION    CL-47572  19.134  32.895   1.935
75258ION    CL-47573  40.218   2.025   3.611
75259ION    CL-47574  30.089  42.408  14.039
75260ION    CL-47575   9.378   0.308  14.809
75261ION    CL-47576  40.508  28.435   3.901
75262ION    CL-47577   1.223  25.304   0.099
75263ION    CL-47578  23.324   0.341   0.494
75264ION    CL-47579   9.600  30.319  12.962
75265ION    CL-47580  34.318  10.045   2.784
75266ION    CL-47581   8.745   9.925  10.414
75267ION    CL-47582  44.877   2.585  11.594
75268ION    CL-47583  11.490  44.953  13.687
75269ION    CL-47584   4.428  41.590   2.200
75270ION    CL-47585  10.907  35.944  12.555
75271ION    CL-47586   8.980  25.545  10.866
75272ION    CL-47587  15.690  22.597  12.636
75273ION    CL-47588  26.481  13.430   1.598
75274ION    CL-47589  11.713   5.620   4.119
75275ION    CL-47590   5.638  28.691  14.479
75276ION    CL-47591  20.776  22.973  13.819
75277ION    CL-47592   6.881  38.454  13.030
75278ION    CL-47593  27.549  16.003  13.598
75279ION    CL-47594  12.542   7.574  10.815
75280ION    CL-47595  17.325  32.463   3.784
75281ION    CL-47596  44.050  33.020   4.564
75282ION    CL-47597   6.988   0.578   2.041
75283ION    CL-47598  35.446  19.732  11.633
75284ION    CL-47599  18.536  25.139  12.187
75285ION    CL-47600   7.443  31.021   4.352
75286ION    CL-47601  14.261  42.333   1.185
75287ION    CL-47602  16.576  42.542  13.290
75288ION    CL-47603  34.746  35.892  14.545
75289ION    CL-47604  19.271  16.372  12.522
75290ION    CL-47605   5.488  20.605  13.487
75291ION    CL-47606  21.068  23.437  11.584
75292ION    CL-47607   1.901  40.412   3.312
75293ION    CL-47608  22.787  37.338  12.159
75294ION    CL-47609  39.416  27.447   2.067
75295ION    CL-47610  18.940  19.479   3.422
75296ION    CL-47611   0.537  20.823   1.414
75297ION    CL-47612  25.136  22.184   1.195
75298ION    CL-47613   7.736  39.016   0.052
75299ION    CL-47614  23.370  37.291  14.776
75300ION    CL-47615  24.486  15.135  11.560
75301ION    CL-47616  25.693  44.372   1.643
75302ION    CL-47617  12.150   9.823  12.594
75303ION    CL-47618  20.675  13.273   1.616
75304ION    CL-47619   4.755  20.823   9.704
75305ION    CL-47620  20.634   6.476   4.333
75306ION    CL-47621  18.185  21.017   3.359
75307ION    CL-47622  15.197  26.438  10.997
75308ION    CL-47623  42.657  14.248   0.187
75309ION    CL-47624   4.992  26.559  13.600
75310ION    CL-47625  38.250  13.183   3.312
75311ION    CL-47626  28.228  33.104  10.872
75312ION    CL-47627  37.414   4.235  13.265
75313ION    CL-47628   7.680   7.808  13.663
75314ION    CL-47629  30.468   2.856  13.541
75315ION    CL-47630  23.698  13.194  11.920
75316ION    CL-47631  22.785  42.909  13.778
75317ION    CL-47632  28.480  39.584   3.002
75318ION    CL-47633  27.994  31.370   2.646
75319ION    CL-47634   1.694  30.568  12.493
75320ION    CL-47635  12.456  16.143   4.137
75321ION    CL-47636  42.807   3.382   4.601
75322ION    CL-47637   7.591  22.805   0.037
75323ION    CL-47638  38.592  23.471  12.840
75324ION    CL-47639  14.354  24.101  14.420
75325ION    CL-47640   3.256   0.178   4.996
75326ION    CL-47641   8.193  38.089  12.645
75327ION    CL-47642  36.079  21.493   1.197
75328ION    CL-47643  29.377  26.884   0.850
75329ION    CL-47644  26.633   3.723   0.755
75330ION    CL-47645  25.238  40.498   2.002
75331ION    CL-47646  43.647  11.520  12.017
75332ION    CL-47647  18.276  42.830  14.751
75333ION    CL-47648  29.397  28.592   2.841
75334ION    CL-47649  29.754   7.178  10.372
75335ION    CL-47650  26.337  13.294  11.525
75336ION    CL-47651  37.070  37.788   2.872
75337ION    CL-47652  30.097   9.776  14.798
75338ION    CL-47653  31.983   8.914  14.417
75339ION    CL-47654  27.498   9.109  14.678
75340ION    CL-47655  25.960  19.441  13.898
75341ION    CL-47656  10.316  24.068  10.883
75342ION    CL-47657  10.179  36.564   3.201
75343ION    CL-47658  42.252  39.323  14.942
75344ION    CL-47659  34.981   5.323  13.326
75345ION    CL-47660   5.222  43.868   0.414
75346ION    CL-47661  35.881   0.302   2.913
75347ION    CL-47662  27.732  40.275  13.451
75348ION    CL-47663  28.916  43.286   2.697
75349ION    CL-47664  32.765  41.130  10.919
75350ION    CL-47665  27.028  18.667   2.637
75351ION    CL-47666  19.539  44.307  12.888
75352ION    CL-47667   7.785  39.554  14.091
75353ION    CL-47668  13.069   4.095  14.211
75354ION    CL-47669  30.373  22.104   3.358
75355ION    CL-47670  41.089  31.359  10.910
75356ION    CL-47671  43.454   4.704  12.944
75357ION    CL-47672   4.292   3.301  13.068
75358ION    CL-47673  42.854  24.519  13.030
75359ION    CL-47674  36.064  11.290  14.860
75360ION    CL-47675  13.797  29.640  14.375
75361ION    CL-47676  34.437  32.168   2.572
75362ION    CL-47677   2.227  44.502   4.574
75363ION    CL-47678  21.748  40.529   3.353
75364ION    CL-47679  39.923   9.120  13.516
75365ION    CL-47680   5.621  43.063  11.646
75366ION    CL-47681   5.547   2.470  12.224
75367ION    CL-47682  13.286  36.322  14.948
75368ION    CL-47683  26.753  10.893  14.777
75369ION    CL-47684  40.206  31.119  10.846
75370ION    CL-47685  35.887  34.485   3.435
75371ION    CL-47686  38.875  21.999  11.896
75372ION    CL-47687  26.382  23.054  14.129
75373ION    CL-47688  23.825   5.039  13.722
75374ION    CL-47689  13.536  34.553  12.573
75375ION    CL-47690  13.601  28.606  12.668
75376ION    CL-47691  32.024  21.959  11.150
75377ION    CL-47692  30.226  17.634   2.116
75378ION    CL-47693  14.689  42.800  14.061
75379ION    CL-47694  41.825   2.825   3.239
75380ION    CL-47695  20.458  22.734   1.439
75381ION    CL-47696  34.996  27.936   0.283
75382ION    CL-47697  33.118  24.149  12.814
75383ION    CL-47698   5.167   4.461   1.717
75384ION    CL-47699   0.587  39.010   3.977
75385ION    CL-47700  32.218   1.803   4.547
75386ION    CL-47701  28.557  27.972  14.942
75387ION    CL-47702  42.952  21.367  14.904
75388ION    CL-47703  21.471  31.563  13.428
75389ION    CL-47704  29.897  18.846   1.368
75390ION    CL-47705   8.185  21.356   0.629
75391ION    CL-47706  40.514   8.442  14.397
75392ION    CL-47707  37.780   3.595  12.535
75393ION    CL-47708  17.181   6.759   0.929
75394ION    CL-47709  41.389  30.602  14.996
75395ION    CL-47710  23.975  40.093  14.414
75396ION    CL-47711  42.912  42.032  12.114
75397ION    CL-47712  37.521   4.682   0.285
75398ION    CL-47713   3.473  22.964  13.302
75399ION    CL-47714  32.029  42.184  11.430
75400ION    CL-47715  34.512  14.830  12.006
75401ION    CL-47716  39.427  30.171   2.634
75402ION    CL-47717  15.624  23.244  10.898
75403ION    CL-47718  12.628  20.062  11.144
75404ION    CL-47719  10.848  35.092   2.060
75405ION    CL-47720  28.779  19.534   0.278
75406ION    CL-47721   1.449  34.892  12.836
75407ION    CL-47722   7.496  13.537   2.681
75408ION    CL-47723  25.189  10.978  13.675
75409ION    CL-47724  10.828  26.698   4.134
75410ION    CL-47725   6.443  35.169   5.103
75411ION    CL-47726   2.415  22.573   4.365
75412ION    CL-47727   8.292  26.791  10.373
75413ION    CL-47728  43.928  38.808   1.454
75414ION    CL-47729  28.906  21.648  14.065
75415ION    CL-47730   3.489  38.311   3.108
75416ION    CL-47731  13.052  16.375  10.070
75417ION    CL-47732  27.114  40.429   4.800
75418ION    CL-47733  32.043  37.270  12.054
75419ION    CL-47734  29.604  17.786   3.988
75420ION    CL-47735   7.282  22.024  11.265
75421ION    CL-47736  13.384  22.845  11.936
75422ION    CL-47737  36.186   7.848  10.945
75423ION    CL-47738  28.965  19.278  10.906
75424ION    CL-47739  42.804   5.620   4.107
75425ION    CL-47740  32.989  30.129  14.393
75426ION    CL-47741   6.345   1.950   1.404
75427ION    CL-47742   3.254  42.992  10.734
75428ION    CL-47743  17.371  43.751   2.939
75429ION    CL-47744  28.941  17.372  14.409
75430ION    CL-47745  19.239  22.283   0.471
75431ION    CL-47746   6.223  41.751   4.057
75432ION    CL-47747  29.458  44.400  13.649
75433ION    CL-47748   3.140  36.548   1.930
75434ION    CL-47749   2.946  26.302  14.990
75435ION    CL-47750  20.036  21.275   0.955
75436ION    CL-47751  22.702  42.494   3.374
75437ION    CL-47752   7.873  37.117   3.715
75438ION    CL-47753   3.095  32.225  10.815
75439ION    CL-47754  43.036   0.535  12.286
75440ION    CL-47755   2.518  38.982   3.180
75441ION    CL-47756  34.113   5.280   2.695
75442ION    CL-47757   4.294  40.199   1.987
75443ION    CL-47758  42.710   0.965  11.433
75444ION    CL-47759  24.273  21.261   4.349
75445ION    CL-47760  38.319  41.763   2.935
75446ION    CL-47761  27.975  44.356   9.821
75447ION    CL-47762  43.708  29.948   4.586
75448ION    CL-47763  26.891  34.929   3.787
75449ION    CL-47764  11.498   2.556   2.748
75450ION    CL-47765   8.505  41.393   3.770
75451ION    CL-47766  28.478  43.252   1.799
75452ION    CL-47767   7.262   0.912  14.351
75453ION    CL-47768  28.406   7.654  11.957
75454ION    CL-47769  25.054  35.320   3.355
75455ION    CL-47770   3.771  12.791  11.879
75456ION    CL-47771  21.628  30.044  11.253
75457ION    CL-47772   2.272  36.108  13.937
75458ION    CL-47773   2.286  38.114   2.258
75459ION    CL-47774   4.384  11.372  12.484
75460ION    CL-47775   1.593  16.053  11.011
75461ION    CL-47776   6.165   9.843   1.121
75462ION    CL-47777  35.417   2.424  12.164
75463ION    CL-47778   6.370  37.859   1.607
75464ION    CL-47779  18.353  37.217   4.734
75465ION    CL-47780  22.149  13.104   2.640
75466ION    CL-47781  15.506  24.307  11.153
75467ION    CL-47782  13.302  40.913   1.042
75468ION    CL-47783  42.537   6.005  14.399
75469ION    CL-47784   6.331   7.253  13.545
75470ION    CL-47785  12.138  13.566  11.135
75471ION    CL-47786  22.719  13.572   3.171
75472ION    CL-47787  12.170  17.704   1.573
75473ION    CL-47788  44.785  42.764   3.073
75474ION    CL-47789   5.319   2.791  13.579
75475ION    CL-47790  37.056  18.333   4.008
75476ION    CL-47791  19.622   8.557  11.835
75477ION    CL-47792  10.868  18.978   3.426
75478ION    CL-47793  33.416  28.585   1.903
75479ION    CL-47794  21.220  12.775  11.160
75480ION    CL-47795  15.491  43.211   4.877
75481ION    CL-47796  18.306  36.350  10.475
75482ION    CL-47797  32.696  19.259   1.981
75483ION    CL-47798  18.801   3.399   4.507
75484ION    CL-47799  27.887  43.067   0.064
75485ION    CL-47800  35.063  18.951   1.868
75486ION    CL-47801  43.564  44.012   1.533
75487ION    CL-47802  28.249  35.273  10.106
75488ION    CL-47803  26.985   0.378   2.368
75489ION    CL-47804  17.753  36.408   0.284
75490ION    CL-47805  31.169   0.815  11.692
75491ION    CL-47806  29.965  27.492   4.747
75492ION    CL-47807   7.134  27.490  13.531
75493ION    CL-47808  12.567  41.063  12.469
75494ION    CL-47809   9.750  43.715  10.446
75495ION    CL-47810   7.839  27.757  11.331
75496ION    CL-47811  12.703  18.803  12.972
75497ION    CL-47812  28.523  17.183  12.905
75498ION    CL-47813   7.271  26.080  13.404
75499ION    CL-47814  13.540  26.628   4.745
75500ION    CL-47815  15.168  27.726  10.145
75501ION    CL-47816   9.804  29.001   0.539
75502ION    CL-47817  44.834  35.216   3.798
75503ION    CL-47818   0.928  44.720   4.217
75504ION    CL-47819   4.034  12.415   4.267
75505ION    CL-47820  36.913  13.133   2.610
75506ION    CL-47821  30.043  14.862  11.255
75507ION    CL-47822  12.288  13.727  13.482
75508ION    CL-47823  39.475   0.764  14.052
75509ION    CL-47824  25.431  34.700   0.084
75510ION    CL-47825  26.721   8.131   3.693
75511ION    CL-47826  18.574  11.210   5.053
75512ION    CL-47827  42.244  40.692   5.005
75513ION    CL-47828  30.833  32.340  12.986
75514ION    CL-47829  27.778  22.037   2.416
75515ION    CL-47830  24.540  29.590   0.698
75516ION    CL-47831  27.936  30.871  12.655
75517ION    CL-47832  34.944  16.801   2.766
75518ION    CL-47833  35.524   9.810   1.316
75519ION    CL-47834   3.033  28.498  13.006
75520ION    CL-47835  30.615   7.959   0.933
75521ION    CL-47836  17.168  38.790  11.577
75522ION    CL-47837  26.681  25.334  10.738
75523ION    CL-47838   0.966  40.453   4.104
75524ION    CL-47839   0.631   2.999   1.893
75525ION    CL-47840  23.913  29.340  14.907
75526ION    CL-47841  41.574  34.619  10.679
75527ION    CL-47842  10.000  30.633  13.639
75528ION    CL-47843  43.832   6.269   4.524
75529ION    CL-47844  20.793  26.894   2.859
75530ION    CL-47845   7.285  19.775   1.328
75531ION    CL-47846  20.204  22.093   3.326
75532ION    CL-47847  29.827  35.928  12.641
75533ION    CL-47848  41.706   8.005  14.597
75534ION    CL-47849   3.976   5.434  12.749
75535ION    CL-47850  27.052  42.405   3.416
75536ION    CL-47851  38.247  19.413  12.135
75537ION    CL-47852  44.244  25.655   0.862
75538ION    CL-47853  44.189  12.790  14.847
75539ION    CL-47854  36.807  26.853  10.760
75540ION    CL-47855  15.767   6.632  11.876
75541ION    CL-47856  41.607  44.347   2.600
75542ION    CL-47857   1.991   3.012   2.211
75543ION    CL-47858  33.959  14.586  14.049
75544ION    CL-47859   5.215  15.224   4.901
75545ION    CL-47860  19.475  26.116  12.486
75546ION    CL-47861  37.410  24.189   1.109
75547ION    CL-47862  27.216   9.804  14.131
75548ION    CL-47863  34.568  21.255   0.312
75549ION    CL-47864  41.372   1.693   2.646
75550ION    CL-47865  26.841   0.619  13.519
75551ION    CL-47866   6.472  37.439  13.903
75552ION    CL-47867   0.573   1.884   4.487
75553ION    CL-47868   2.566  37.548  14.789
75554ION    CL-47869  19.383  28.007   4.857
75555ION    CL-47870   6.571  21.171  13.475
75556ION    CL-47871  12.576   3.903   3.890
75557ION    CL-47872  18.733   6.607  12.449
75558ION    CL-47873  34.535  43.475  11.390
75559ION    CL-47874   7.825  11.876   3.120
75560ION    CL-47875   3.370   8.810   1.372
75561ION    CL-47876  22.600   0.778   2.387
75562ION    CL-47877  20.295  12.876   3.023
75563ION    CL-47878  28.210  21.065  13.182
75564ION    CL-47879  18.809  23.185   0.507
75565ION    CL-47880  11.017  40.994  12.785
75566ION    CL-47881  39.001  12.306  13.407
75567ION    CL-47882  21.600  33.544   4.299
75568ION    CL-47883  12.602  11.635   2.537
75569ION    CL-47884  42.733  26.687   2.338
75570ION    CL-47885  26.350  29.623  11.932
75571ION    CL-47886  28.035  44.128  11.172
75572ION    CL-47887  37.071   7.973  12.926
75573ION    CL-47888  37.242   1.404  11.315
75574ION    CL-47889  30.315  14.042  14.986
75575ION    CL-47890  33.794  31.638   4.255
75576ION    CL-47891  20.317   5.370  13.541
75577ION    CL-47892  32.489  22.045   0.530
75578ION    CL-47893  43.275  42.793   2.519
75579ION    CL-47894  33.326  24.735   1.720
75580ION    CL-47895  14.048  16.299   2.828
75581ION    CL-47896  44.567  40.472   0.471
75582ION    CL-47897  29.509   1.275  14.242
75583ION    CL-47898   1.381  19.944   4.308
75584ION    CL-47899  41.112  25.330  12.839
75585ION    CL-47900  36.858  13.767   1.388
75586ION    CL-47901  34.783  32.667  14.519
75587ION    CL-47902  17.568  40.072  14.541
75588ION    CL-47903  18.632  36.461  13.213
75589ION    CL-47904  17.668   7.303  14.571
75590ION    CL-47905  10.930  21.426  14.045
75591ION    CL-47906  25.479  43.915  10.943
75592ION    CL-47907  36.711  30.004  10.430
75593ION    CL-47908  21.991  15.501  12.939
75594ION    CL-47909  13.954  10.742   1.730
75595ION    CL-47910   2.993   1.637   1.982
75596ION    CL-47911  38.968  14.727   4.324
75597ION    CL-47912  37.500   4.566   3.674
75598ION    CL-47913   5.423  12.284  13.587
75599ION    CL-47914  33.761  40.313  13.841
75600ION    CL-47915   4.190  23.325   1.220
75601ION    CL-47916  35.883  26.196   1.902
75602ION    CL-47917  23.296  20.901   4.059
75603ION    CL-47918  43.456  26.211   1.160
75604ION    CL-47919  29.155  15.046   0.483
75605ION    CL-47920  30.179  18.277  12.579
75606ION    CL-47921  44.940  34.245   3.586
75607ION    CL-47922  16.543  20.248   2.737
75608ION    CL-47923  11.632  42.758  14.508
75609ION    CL-47924   1.196   1.312   5.020
75610ION    CL-47925  16.316  28.124   0.062
75611ION    CL-47926   8.721  43.279  12.658
75612ION    CL-47927  28.512  32.823  13.499
75613ION    CL-47928  31.712   7.616  13.320
75614ION    CL-47929  16.036  18.216   3.295
75615ION    CL-47930  44.276  40.893   2.415
75616ION    CL-47931   4.613   7.258   4.104
75617ION    CL-47932  15.869  24.594   4.646
75618ION    CL-47933  12.156  43.737  10.860
75619ION    CL-47934  26.976  29.074  10.613
75620ION    CL-47935  23.266  22.078  14.891
75621ION    CL-47936   9.531  27.991   2.349
75622ION    CL-47937  41.296   4.269   2.172
75623ION    CL-47938  41.751  42.874   1.315
75624ION    CL-47939   3.601  41.415  11.512
75625ION    CL-47940  40.829   4.936   2.857
75626ION    CL-47941   1.028  30.917   4.333
75627ION    CL-47942  16.942  25.571  14.649
75628ION    CL-47943  17.870   5.674  13.966
75629ION    CL-47944  15.163  20.311   1.524
75630ION    CL-47945  14.283  22.080  13.045
75631ION    CL-47946   2.642  39.419   4.185
75632ION    CL-47947  36.360   8.902   1.008
75633ION    CL-47948  37.986   7.962   1.510
75634ION    CL-47949  40.348  15.725  10.758
75635ION    CL-47950  17.727  17.105   4.681
75636ION    CL-47951   2.898  33.565   3.923
75637ION    CL-47952  20.231   9.621  12.759
75638ION    CL-47953  30.398  10.949   2.967
75639ION    CL-47954  33.528  16.399  11.061
75640ION    CL-47955   3.178   5.237  13.318
75641ION    CL-47956  20.562  25.933  14.626
75642ION    CL-47957  24.249   8.572   3.175
75643ION    CL-47958  43.097  35.896   4.906
75644ION    CL-47959  35.625  27.109   0.485
75645ION    CL-47960  12.834  18.115   5.254
75646ION    CL-47961  27.728  38.573   1.821
75647ION    CL-47962  41.002  26.274   2.277
75648ION    CL-47963  17.314  10.804   5.202
75649ION    CL-47964   3.765  12.116  10.384
75650ION    CL-47965  23.778  20.861   0.444
75651ION    CL-47966  44.250   6.741  13.899
75652ION    CL-47967  41.044   7.427  14.662
75653ION    CL-47968  27.155  40.109   3.941
75654ION    CL-47969  38.400  30.098   3.667
75655ION    CL-47970  21.196  10.504   5.023
75656ION    CL-47971  28.651  15.625  14.842
75657ION    CL-47972  15.528  14.536   1.029
75658ION    CL-47973   4.511  27.579   4.543
75659ION    CL-47974   8.158  21.373   1.629
75660ION    CL-47975  30.587  41.291   2.275
75661ION    CL-47976   1.181  16.460  12.347
75662ION    CL-47977  14.626  44.028  13.526
75663ION    CL-47978  32.883  27.595   4.423
75664ION    CL-47979  37.545  22.675  13.365
75665ION    CL-47980  39.506   6.896   1.209
75666ION    CL-47981  26.097   3.132   1.812
75667ION    CL-47982  42.677   8.246   3.922
75668ION    CL-47983  23.313   9.843   1.246
75669ION    CL-47984  24.329   7.806   4.889
75670ION    CL-47985   0.707  21.222   3.107
75671ION    CL-47986  44.045   7.339   0.572
75672ION    CL-47987  32.816  44.515   0.060
75673ION    CL-47988   8.682  29.357   2.707
75674ION    CL-47989  18.954  23.995   5.178
75675ION    CL-47990   6.881  44.756   1.660
75676ION    CL-47991   7.593   6.573   4.520
75677ION    CL-47992  22.377  29.263   2.076
75678ION    CL-47993  44.979  33.412  13.109
75679ION    CL-47994  17.141   4.709   4.930
75680ION    CL-47995  17.731  22.000   3.160
75681ION    CL-47996  19.227  31.085  12.509
75682ION    CL-47997  37.116  30.713   4.158
75683ION    CL-47998  29.436  17.797  11.768
75684ION    CL-47999  23.917  21.498  12.516
75685ION    CL-48000  25.159  43.175   3.885
75686ION    CL-48001  27.100  12.605   1.742
75687ION    CL-48002  43.838  44.566  11.011
75688ION    CL-48003   5.273  31.525   1.422
75689ION    CL-48004  40.718  16.226   2.779
75690ION    CL-48005  30.419  17.673   3.313
75691ION    CL-48006   5.141  35.870   1.594
75692ION    CL-48007   0.619  15.609   3.457
75693ION    CL-48008  18.654   6.927   3.063
75694ION    CL-48009  33.065   8.395  10.461
75695ION    CL-48010   7.321  29.937   0.906
75696ION    CL-48011   8.218  33.613   0.961
75697ION    CL-48012  18.132  36.902   3.678
75698ION    CL-48013  16.703  16.568  13.543
75699ION    CL-48014  30.382   3.441   3.810
75700ION    CL-48015  29.018   0.303   1.435
75701ION    CL-48016  24.925  19.858   5.387
75702ION    CL-48017  32.548  18.527   2.703
75703ION    CL-48018   7.411  35.936  12.980
75704ION    CL-48019  23.360  22.327  12.455
75705ION    CL-48020  43.059   8.196   1.245
75706ION    CL-48021  10.028  14.062   9.964
75707ION    CL-48022   6.378  36.307  14.454
75708ION    CL-48023  31.404   5.136  11.860
75709ION    CL-48024  24.976  22.007  13.083
75710ION    CL-48025  23.428  14.131   1.557
75711ION    CL-48026  15.164  13.284   1.063
75712ION    CL-48027  28.916  31.933  10.683
75713ION    CL-48028   5.518  37.617  11.070
75714ION    CL-48029  33.357  15.571  11.670
75715ION    CL-48030  11.923  19.277  12.539
75716ION    CL-48031  40.366   4.227  12.018
75717ION    CL-48032  14.052  22.932   1.145
75718ION    CL-48033  18.653   0.368   1.311
75719ION    CL-48034  22.205  34.083  11.603
75720ION    CL-48035  33.388  18.757  14.827
75721ION    CL-48036  14.755  38.629  11.667
75722ION    CL-48037  31.352  20.887   1.316
75723ION    CL-48038  11.430  40.458   0.764
75724ION    CL-48039  23.062  25.497   0.236
75725ION    CL-48040  42.310  16.187   1.296
75726ION    CL-48041   1.406  20.110   0.706
75727ION    CL-48042  24.134  27.147  11.172
75728ION    CL-48043  34.113  33.172   3.171
75729ION    CL-48044  32.405  17.857   3.432
75730ION    CL-48045  11.474  39.190  13.963
75731ION    CL-48046   2.815  11.176   9.936
75732ION    CL-48047  26.682  19.056  11.617
75733ION    CL-48048   5.854   2.903   2.179
75734ION    CL-48049  12.739   7.383  11.664
75735ION    CL-48050  37.290  11.199   1.762
75736ION    CL-48051   1.748  36.413  11.288
75737ION    CL-48052  31.053  28.988   2.965
75738ION    CL-48053  12.273   5.897  12.076
75739ION    CL-48054  12.027  21.799   2.816
75740ION    CL-48055  38.433  21.233   2.179
75741ION    CL-48056  25.792  16.143  14.913
75742ION    CL-48057  31.772   5.153  13.252
75743ION    CL-48058  41.453  28.400   1.721
75744ION    CL-48059  33.703  24.660   3.736
75745ION    CL-48060  14.173   9.871  13.834
75746ION    CL-48061  36.840  12.269  11.139
75747ION    CL-48062  10.372  39.384   2.588
75748ION    CL-48063  43.223  12.034  10.459
75749ION    CL-48064  22.422   4.862  14.282
75750ION    CL-48065  30.695  42.113   2.834
75751ION    CL-48066  16.269   1.955   0.390
75752ION    CL-48067  25.542  40.131  13.461
75753ION    CL-48068   2.332  12.618   1.827
75754ION    CL-48069  17.079  25.764   1.608
75755ION    CL-48070  22.192   0.027  14.443
75756ION    CL-48071  19.628  12.060   3.159
75757ION    CL-48072  38.296  36.346   5.142
75758ION    CL-48073  37.006   3.396   0.249
75759ION    CL-48074  33.643  26.323   4.832
75760ION    CL-48075  14.705  43.566   3.735
75761ION    CL-48076  30.684  36.415   1.240
75762ION    CL-48077  43.849  21.707   2.138
75763ION    CL-48078   0.916  40.976  12.774
75764ION    CL-48079  38.674  12.306   5.187
75765ION    CL-48080   7.689  29.291   2.812
75766ION    CL-48081  34.761   5.438   1.620
75767ION    CL-48082   5.856  24.132  12.348
75768ION    CL-48083  17.217   3.191   3.216
75769ION    CL-48084   7.167  35.229   3.379
75770ION    CL-48085  25.585  29.931  12.220
75771ION    CL-48086  19.268   7.376  12.955
75772ION    CL-48087  37.568  20.584  12.352
75773ION    CL-48088  42.659  19.597  12.339
75774ION    CL-48089  14.237  41.135   1.458
75775ION    CL-48090  19.191  39.052  11.925
75776ION    CL-48091  22.379  16.563  14.821
75777ION    CL-48092  23.229   9.966  11.877
75778ION    CL-48093  29.974   1.851   4.244
75779ION    CL-48094  41.153  24.392   5.057
75780ION    CL-48095  15.634  42.348   3.333
75781ION    CL-48096  37.332  34.377   3.313
75782ION    CL-48097  25.745  44.378   2.641
75783ION    CL-48098   7.340  26.108  11.119
75784ION    CL-48099  39.335   1.832   3.611
75785ION    CL-48100   6.353  28.947   2.353
75786ION    CL-48101  29.202  37.759   1.083
75787ION    CL-48102   5.911  14.565  11.187
75788ION    CL-48103  39.122  13.073   3.620
75789ION    CL-48104  23.812  35.487   4.211
75790ION    CL-48105  33.536  44.517   4.099
75791ION    CL-48106  28.388  37.075   3.464
75792ION    CL-48107  35.411  40.102   3.359
75793ION    CL-48108   0.824  44.257  11.147
75794ION    CL-48109  35.975  17.567  12.002
75795ION    CL-48110  15.995  34.549   3.428
75796ION    CL-48111  42.688  12.919  11.359
75797ION    CL-48112  43.484  42.261  14.083
75798ION    CL-48113  44.991   7.016   0.361
75799ION    CL-48114  35.428  23.194   2.850
75800ION    CL-48115  22.251  42.473   2.163
75801ION    CL-48116  36.899  43.571   3.189
75802ION    CL-48117   8.019  32.076   5.209
75803ION    CL-48118   0.861   8.538  13.801
75804ION    CL-48119  18.817  20.379   3.489
75805ION    CL-48120  34.333  12.614  11.493
75806ION    CL-48121  27.153  18.082  11.592
75807ION    CL-48122  39.754  28.080  12.918
75808ION    CL-48123  23.313  27.487  12.139
75809ION    CL-48124  33.223  29.137   3.883
75810ION    CL-48125  18.366  43.867  11.092
75811ION    CL-48126  17.553  36.061   3.688
75812ION    CL-48127   8.251  38.275  14.507
75813ION    CL-48128  36.537  43.962   1.026
75814ION    CL-48129   8.405  18.631   4.108
75815ION    CL-48130  40.438  40.434  10.266
75816ION    CL-48131  41.293  13.849   4.767
75817ION    CL-48132  36.546  43.091  11.654
75818ION    CL-48133  42.756  28.331   3.379
75819ION    CL-48134  42.503  25.213  12.300
75820ION    CL-48135  29.364  14.217  14.731
75821ION    CL-48136  31.621  37.006  14.917
75822ION    CL-48137  24.251  21.735   3.469
75823ION    CL-48138  24.111  39.315  12.061
75824ION    CL-48139   3.246  38.259  14.971
75825ION    CL-48140  30.358  19.554   1.649
75826ION    CL-48141  38.420  28.703   4.763
75827ION    CL-48142  22.685  27.111  14.189
75828ION    CL-48143   4.598  41.244   4.950
75829ION    CL-48144   1.383  22.897   2.854
75830ION    CL-48145  21.847  37.487   5.050
75831ION    CL-48146  35.607  15.288  13.199
75832ION    CL-48147  30.213  44.321   0.490
75833ION    CL-48148  38.615  32.473   3.266
75834ION    CL-48149  29.378  28.290   1.833
75835ION    CL-48150  31.428   0.293  13.356
75836ION    CL-48151  44.825  16.793   1.138
75837ION    CL-48152  34.510  30.791   4.257
75838ION    CL-48153  17.602   5.426  11.665
75839ION    CL-48154  18.632  26.699  11.601
75840ION    CL-48155  25.251   6.325  11.131
75841ION    CL-48156  41.479   0.726   0.079
75842ION    CL-48157  10.125  14.654   5.325
75843ION    CL-48158  15.976  31.783  14.801
75844ION    CL-48159  21.826  29.921   4.748
75845ION    CL-48160   4.827  44.475   2.856
75846ION    CL-48161  25.493  39.460   3.778
75847ION    CL-48162  11.161  21.475  13.164
75848ION    CL-48163   2.667  34.079   1.366
75849ION    CL-48164  23.856  21.923   2.141
75850ION    CL-48165  34.567  26.615   1.800
75851ION    CL-48166  37.771  23.127   4.007
75852ION    CL-48167   2.438   5.353  14.015
75853ION    CL-48168  33.565  21.335   1.078
75854ION    CL-48169  28.239  41.846  12.080
75855ION    CL-48170  38.714  44.945   2.672
75856ION    CL-48171   2.344   1.734   9.864
75857ION    CL-48172  24.341  43.128   1.753
75858ION    CL-48173  39.554  33.140  12.509
75859ION    CL-48174  33.493  41.399   0.623
75860ION    CL-48175  44.689  11.038  14.352
75861ION    CL-48176  25.961  10.890  12.033
75862ION    CL-48177  38.667  18.843   0.833
75863ION    CL-48178  13.023  23.721  13.464
75864ION    CL-48179  30.541   0.243   0.284
75865ION    CL-48180   3.375  23.596  13.906
75866ION    CL-48181   2.378  19.770   3.229
75867ION    CL-48182  43.271  12.447  12.030
75868ION    CL-48183  18.323  12.038   4.552
75869ION    CL-48184  15.116  22.468  14.488
75870ION    CL-48185  31.406  44.736  11.666
75871ION    CL-48186  33.650  33.966   4.643
75872ION    CL-48187  44.176   1.690  12.099
75873ION    CL-48188   7.498  16.544   1.206
75874ION    CL-48189  12.814   8.063  13.532
75875ION    CL-48190  33.780  29.773  14.890
75876ION    CL-48191  18.562  10.683   1.319
75877ION    CL-48192  18.726   5.899  10.124
75878ION    CL-48193  39.810   4.794  11.411
75879ION    CL-48194  24.279  33.893  11.599
75880ION    CL-48195  18.837  21.648  14.406
75881ION    CL-48196  41.970  14.012  13.776
75882ION    CL-48197  17.412  44.031  11.343
75883ION    CL-48198  33.823   6.861  11.984
75884ION    CL-48199  38.217  34.652   5.039
75885ION    CL-48200  29.093  26.709   3.173
75886ION    CL-48201  34.684  28.459  11.998
75887ION    CL-48202  19.351  10.773  14.396
75888ION    CL-48203  23.983  20.774   3.526
75889ION    CL-48204  35.289  20.172   2.350
75890ION    CL-48205  14.714  27.199  12.059
75891ION    CL-48206  28.426   8.740  13.748
75892ION    CL-48207   5.249  16.053  12.147
75893ION    CL-48208  15.398  31.255   1.040
75894ION    CL-48209  16.222  31.377   3.420
75895ION    CL-48210  28.377  16.190  13.896
75896ION    CL-48211   4.659  23.766  13.110
75897ION    CL-48212  13.714  28.658   5.008
75898ION    CL-48213  11.284  13.152   0.780
75899ION    CL-48214  10.134  24.774  13.279
75900ION    CL-48215  23.428  21.411   2.895
75901ION    CL-48216  27.444  18.220   1.039
75902ION    CL-48217  29.159   2.632  12.901
75903ION    CL-48218  36.462  37.366   1.127
75904ION    CL-48219  19.423  18.446   3.303
75905ION    CL-48220  38.433  18.539  12.120
75906ION    CL-48221  13.828   8.854   1.669
75907ION    CL-48222   2.899  16.390  12.194
75908ION    CL-48223  35.802  24.781   2.872
75909ION    CL-48224  37.180  30.492   2.248
75910ION    CL-48225   0.327   9.381   4.181
75911ION    CL-48226  24.425   3.182   2.302
75912ION    CL-48227  40.200  29.850   0.257
75913ION    CL-48228  37.414  24.698  10.925
75914ION    CL-48229  41.565  34.642   1.439
75915ION    CL-48230  20.100  13.945   4.464
75916ION    CL-48231  29.378  27.340  12.336
75917ION    CL-48232   3.464  37.123  12.410
75918ION    CL-48233   3.848  10.465   1.967
75919ION    CL-48234  12.175  17.110  10.714
75920ION    CL-48235  19.028   6.546  10.708
75921ION    CL-48236  35.479   0.240  14.829
75922ION    CL-48237  10.392  36.300  14.077
75923ION    CL-48238  28.049  11.199   1.675
75924ION    CL-48239  10.228  21.401  14.957
75925ION    CL-48240  13.379  34.880  10.738
75926ION    CL-48241  19.026  18.129   4.905
75927ION    CL-48242  29.901  43.888  11.599
75928ION    CL-48243  31.074   8.307  12.979
75929ION    CL-48244  32.189  23.516   9.957
75930ION    CL-48245  40.384  44.974   0.393
75931ION    CL-48246   6.907  27.832  12.572
75932ION    CL-48247  11.712   9.474   1.494
75933ION    CL-48248  36.951  33.616  12.653
75934ION    CL-48249  13.538  30.543   4.758
75935ION    CL-48250   1.891  31.603   0.783
75936ION    CL-48251  39.345  21.142  12.169
75937ION    CL-48252  42.314  37.149   4.399
75938ION    CL-48253  13.088  22.179  12.625
75939ION    CL-48254  35.359  44.991   2.107
75940ION    CL-48255  24.201  43.609  11.116
75941ION    CL-48256  32.166  42.593  12.176
75942ION    CL-48257   5.389  17.494  14.856
75943ION    CL-48258  33.445  25.534  10.859
75944ION    CL-48259  36.848  34.411  13.034
75945ION    CL-48260  35.852  42.511   4.313
75946ION    CL-48261  41.547   0.210  11.567
75947ION    CL-48262  39.798  23.441   0.155
75948ION    CL-48263   6.224  19.320  13.340
75949ION    CL-48264   8.375  34.155   2.262
75950ION    CL-48265   2.663   6.197   4.961
75951ION    CL-48266  43.349  28.065   4.379
75952ION    CL-48267  10.477  14.615   0.272
75953ION    CL-48268  33.499   0.973  14.803
75954ION    CL-48269   6.859   9.406   0.689
75955ION    CL-48270  31.669   3.681   4.247
75956ION    CL-48271  37.479   4.023   2.306
75957ION    CL-48272  28.036   3.040   0.718
75958ION    CL-48273  16.800   1.075  11.407
75959ION    CL-48274  25.131  27.660   2.495
75960ION    CL-48275  44.495  20.449   3.209
75961ION    CL-48276  41.908   9.677   2.172
75962ION    CL-48277  26.540  21.738   0.130
75963ION    CL-48278  36.843  43.281   0.355
75964ION    CL-48279   3.745  27.072   1.285
75965ION    CL-48280   2.457  15.487   3.047
75966ION    CL-48281  19.031  11.513   9.825
75967ION    CL-48282   0.038  33.728   2.152
75968ION    CL-48283  12.652  16.674  12.875
75969ION    CL-48284  23.661  43.346  12.964
75970ION    CL-48285   7.490  32.593   3.194
75971ION    CL-48286  32.506   3.128  14.247
75972ION    CL-48287   4.137  31.712  10.129
75973ION    CL-48288  18.551  16.471   3.265
75974ION    CL-48289   5.967  19.162  12.066
75975ION    CL-48290  24.190  35.223  11.455
75976ION    CL-48291  34.902   6.179   3.253
75977ION    CL-48292  29.924   4.794  10.638
75978ION    CL-48293  29.761   5.247  11.672
75979ION    CL-48294  12.671  12.526   1.035
75980ION    CL-48295  29.167  21.635   0.408
75981ION    CL-48296   7.498  39.079   1.382
75982ION    CL-48297  10.273   4.273  10.622
75983ION    CL-48298  42.493  30.905  13.322
75984ION    CL-48299  27.422  27.260  13.137
75985ION    CL-48300  44.310  36.006   3.480
75986ION    CL-48301  18.226  44.610   3.211
75987ION    CL-48302   5.803  17.672   0.975
75988ION    CL-48303   3.761  40.905   2.493
75989ION    CL-48304  22.838  31.204  13.362
75990ION    CL-48305   1.565  28.561  14.019
75991ION    CL-48306  10.197  36.565   0.022
75992ION    CL-48307  29.995  24.170   0.708
75993ION    CL-48308   5.378  24.097  14.156
75994ION    CL-48309  43.634  14.110   0.359
75995ION    CL-48310   7.177  33.525   2.271
75996ION    CL-48311  18.811  28.753   2.953
75997ION    CL-48312  19.282  16.578  11.249
75998ION    CL-48313  32.529  43.100   3.034
75999ION    CL-48314   9.656  29.550   2.824
76000ION    CL-48315  27.876  23.338   2.621
76001ION    CL-48316  36.329  42.357  13.253
76002ION    CL-48317  14.175  22.218   4.783
76003ION    CL-48318  22.664  12.017  11.225
76004ION    CL-48319  38.305  11.369  13.868
76005ION    CL-48320  14.550   1.751  13.262
76006ION    CL-48321  41.116   7.841  11.145
76007ION    CL-48322  33.130  26.441  13.433
76008ION    CL-48323  24.141  29.404  13.393
76009ION    CL-48324  23.770  33.177   2.689
76010ION    CL-48325  38.379  25.335   2.630
76011ION    CL-48326  13.116  35.570  10.378
76012ION    CL-48327  10.857  33.620   2.470
76013ION    CL-48328  21.044   9.001   3.582
76014ION    CL-48329  14.034  21.287   1.694
76015ION    CL-48330   5.246  44.869   1.345
76016ION    CL-48331  12.458  26.227   0.999
76017ION    CL-48332  22.338  10.923  12.868
76018ION    CL-48333  38.647   2.272   4.188
76019ION    CL-48334  38.577  13.896  13.235
76020ION    CL-48335  24.827  43.979   1.951
76021ION    CL-48336  28.975  40.935   0.813
76022ION    CL-48337  15.080   7.560  12.548
76023ION    CL-48338   8.508  25.956  12.021
76024ION    CL-48339  23.004  17.870  14.466
76025ION    CL-48340  16.668  35.405   5.052
76026ION    CL-48341  23.316  17.261  12.880
76027ION    CL-48342  30.544  10.516   1.012
76028ION    CL-48343  39.535  44.244  12.972
76029ION    CL-48344  27.809  44.788   2.380
76030ION    CL-48345  34.450   3.230  14.780
76031ION    CL-48346  14.865  20.280   3.278
76032ION    CL-48347  31.470  33.963  10.635
76033ION    CL-48348   9.074  16.519   4.520
76034ION    CL-48349   2.656   6.793   3.877
76035ION    CL-48350  32.658  16.914   3.702
76036ION    CL-48351  15.009  33.592   3.084
76037ION    CL-48352  40.546  32.818   1.954
76038ION    CL-48353  20.819  24.298  14.381
76039ION    CL-48354  38.912  35.410   3.644
76040ION    CL-48355  39.213   3.295   0.565
76041ION    CL-48356  39.051  30.995  10.650
76042ION    CL-48357  32.166  23.058   0.978
76043ION    CL-48358  17.651  18.324   1.874
76044ION    CL-48359  23.931  37.654   2.837
76045ION    CL-48360  21.187  41.009  11.205
76046ION    CL-48361  32.951  26.197  14.331
76047ION    CL-48362  13.762   9.470   3.544
76048ION    CL-48363  40.410  23.708  14.405
76049ION    CL-48364  12.475  13.720  12.386
76050ION    CL-48365  20.068  39.795   2.397
76051ION    CL-48366  27.520  35.879  10.424
76052ION    CL-48367  23.741  34.323  12.422
76053ION    CL-48368  35.679  21.069   0.542
76054ION    CL-48369  18.033  32.144  10.690
76055ION    CL-48370   7.879  18.585   2.636
76056ION    CL-48371  21.920  22.202  13.327
76057ION    CL-48372  22.502  13.014  11.589
76058ION    CL-48373  17.105  31.347   1.756
76059ION    CL-48374  35.072   2.680   0.171
76060ION    CL-48375  16.252  29.220  11.464
76061ION    CL-48376  43.734  15.598  12.905
76062ION    CL-48377  36.875  33.138  14.915
76063ION    CL-48378  41.300  40.456   5.233
76064ION    CL-48379  41.301  35.438   2.659
76065ION    CL-48380  35.452   7.514   1.790
76066ION    CL-48381  41.856  20.843  12.700
76067ION    CL-48382  36.169  30.768   2.794
76068ION    CL-48383  38.096  15.828  13.498
76069ION    CL-48384  41.449  35.953   1.012
76070ION    CL-48385   1.962  42.138   2.442
76071ION    CL-48386  40.447  36.615   2.320
76072ION    CL-48387  33.086  24.866   3.836
76073ION    CL-48388  31.295  11.390   3.020
76074ION    CL-48389  29.669  23.877   3.620
76075ION    CL-48390  39.862  40.758   4.648
76076ION    CL-48391  27.462   0.938  14.852
76077ION    CL-48392  20.811  12.522   0.228
76078ION    CL-48393   5.114  31.454   4.661
76079ION    CL-48394  42.888   9.852   2.272
76080ION    CL-48395  27.125  31.546  14.404
76081ION    CL-48396   9.123   1.478  10.845
76082ION    CL-48397  24.730  44.319   2.887
76083ION    CL-48398   6.030  35.413   1.597
76084ION    CL-48399   8.290  22.604  11.215
76085ION    CL-48400   9.472  32.080   1.231
76086ION    CL-48401  32.007   1.970  12.201
76087ION    CL-48402  15.166  44.444  12.317
76088ION    CL-48403   6.363  33.908  11.463
76089ION    CL-48404  28.788  29.318  14.142
76090ION    CL-48405  24.854  41.523   2.711
76091ION    CL-48406  31.144  16.134   3.957
76092ION    CL-48407  18.831   9.597  10.502
76093ION    CL-48408   4.705  24.385   3.215
76094ION    CL-48409  37.974  35.487   2.153
76095ION    CL-48410  10.237  12.288  12.037
76096ION    CL-48411  26.797   5.801   3.351
76097ION    CL-48412  23.087   3.420   2.313
76098ION    CL-48413  24.623  11.388  10.622
76099ION    CL-48414  37.174  23.402  10.938
76100ION    CL-48415  44.038  35.521   2.592
76101ION    CL-48416  30.260  13.982   3.871
76102ION    CL-48417   1.615   7.489   2.363
76103ION    CL-48418  43.896  25.607   3.349
76104ION    CL-48419  24.068   8.279  14.277
76105ION    CL-48420   1.432  12.551   2.331
76106ION    CL-48421  39.774  32.018  12.939
76107ION    CL-48422   5.647  35.135   4.499
76108ION    CL-48423   2.892  26.475   4.227
76109ION    CL-48424  15.734  38.265   2.317
76110ION    CL-48425  21.473  26.676   1.175
76111ION    CL-48426  14.883   6.156   4.137
76112ION    CL-48427  36.012  26.885   3.270
76113ION    CL-48428  21.954  27.853  10.637
76114ION    CL-48429   3.459  29.629   3.183
76115ION    CL-48430   7.726  16.375   9.955
76116ION    CL-48431   1.531  16.867  13.057
76117ION    CL-48432  29.676  19.873  14.993
76118ION    CL-48433  23.466   0.606   3.893
76119ION    CL-48434   0.456  20.832  12.943
76120ION    CL-48435  42.275  19.411   0.400
76121ION    CL-48436  29.219  38.424  14.876
76122ION    CL-48437  36.501   7.004  14.896
76123ION    CL-48438   9.679   0.343   0.762
76124ION    CL-48439  43.121  29.778   3.174
76125ION    CL-48440   0.056   1.007   2.776
76126ION    CL-48441   6.796   8.264  10.427
76127ION    CL-48442  27.326  44.143   3.673
76128ION    CL-48443  24.877  33.004   3.928
76129ION    CL-48444  26.579  38.546  12.071
76130ION    CL-48445  20.145   3.526   1.815
76131ION    CL-48446  20.284   2.456   4.468
76132ION    CL-48447  10.207  24.078  14.914
76133ION    CL-48448  11.704  22.336  10.734
76134ION    CL-48449   4.547  28.591  12.955
76135ION    CL-48450   9.943  26.263  10.406
76136ION    CL-48451  20.070   1.240  10.665
76137ION    CL-48452  25.621  30.651  11.502
76138ION    CL-48453  15.735  29.120   0.938
76139ION    CL-48454   0.490  36.458   1.361
76140ION    CL-48455  27.951  15.237   9.836
76141ION    CL-48456  37.381  10.664   1.086
76142ION    CL-48457  36.594  20.158  14.973
76143ION    CL-48458  30.297  29.285  11.141
76144ION    CL-48459  25.600  29.904  10.799
76145ION    CL-48460  29.551   6.632   2.919
76146ION    CL-48461  42.068  38.405  11.795
76147ION    CL-48462  30.545   6.896  13.076
76148ION    CL-48463   2.421  10.564  11.552
76149ION    CL-48464  15.593  26.142   3.867
76150ION    CL-48465  18.078   3.234   5.180
76151ION    CL-48466  23.240  19.688  14.303
76152ION    CL-48467   0.930  41.862   0.018
76153ION    CL-48468  26.667   0.558   4.709
76154ION    CL-48469  19.219   1.734  12.045
76155ION    CL-48470   2.708  44.413   1.227
76156ION    CL-48471  33.671  10.809  11.431
76157ION    CL-48472   1.731  42.482   4.960
76158ION    CL-48473  27.462  24.520  12.496
76159ION    CL-48474   1.031  42.365   2.725
76160ION    CL-48475  28.512  22.582   2.822
76161ION    CL-48476   8.680   0.970  14.400
76162ION    CL-48477  28.422   2.129   0.861
76163ION    CL-48478  44.043  18.256  11.896
76164ION    CL-48479  10.490  30.558  12.913
76165ION    CL-48480  37.621  43.242   2.581
76166ION    CL-48481  29.108   0.839   0.595
76167ION    CL-48482  27.712  12.862  12.152
76168ION    CL-48483   7.745  13.624   4.998
76169ION    CL-48484   7.751  41.679   4.065
76170ION    CL-48485   6.463  38.854   1.633
76171ION    CL-48486  39.594  29.397  12.656
76172ION    CL-48487   5.469  23.758   5.167
76173ION    CL-48488  15.364  15.315  12.068
76174ION    CL-48489  14.563  16.214   1.107
76175ION    CL-48490   9.426  23.853   1.740
76176ION    CL-48491  35.038  35.046   4.654
76177ION    CL-48492  34.400  26.198   0.907
76178ION    CL-48493   0.691   8.946  14.570
76179ION    CL-48494  17.489  29.438  13.124
76180ION    CL-48495   3.003  12.489   1.098
76181ION    CL-48496  40.452  34.635  14.875
76182ION    CL-48497   9.136  32.452   2.209
76183ION    CL-48498  43.548   9.825  14.707
76184ION    CL-48499  14.662  25.855   1.374
76185ION    CL-48500  10.349  12.595  14.910
76186ION    CL-48501   5.516  32.579   2.837
76187ION    CL-48502  22.636  37.263  13.064
76188ION    CL-48503  15.024  42.047  12.367
76189ION    CL-48504   9.246  25.155   0.839
76190ION    CL-48505   9.760  32.074  11.214
76191ION    CL-48506  19.467  38.844  14.780
76192ION    CL-48507   5.262  24.920   1.500
76193ION    CL-48508  44.321  29.948  11.672
76194ION    CL-48509   3.578  15.303   0.580
76195ION    CL-48510   4.008   4.460   4.039
76196ION    CL-48511  40.073   6.732  11.853
76197ION    CL-48512   7.360   9.910  12.813
76198ION    CL-48513  10.191  36.750   4.934
76199ION    CL-48514  28.495  35.750   3.759
76200ION    CL-48515  30.012   0.299   1.548
76201ION    CL-48516  10.301   4.233   0.366
76202ION    CL-48517  28.094  15.929   3.254
76203ION    CL-48518  31.186   8.259   2.636
76204ION    CL-48519  38.163  27.135   4.662
76205ION    CL-48520  35.571  22.179  11.222
76206ION    CL-48521  15.077  36.882   3.428
76207ION    CL-48522  22.531  40.347  12.912
76208ION    CL-48523  20.136  16.346  14.863
76209ION    CL-48524  34.599  40.346   2.829
76210ION    CL-48525  19.577  42.283   1.691
76211ION    CL-48526  33.607  22.223   0.377
76212ION    CL-48527  15.697  24.857  11.827
76213ION    CL-48528   2.746   4.692   3.983
76214ION    CL-48529   1.476  38.887  10.404
76215ION    CL-48530  39.765   7.236  11.046
76216ION    CL-48531  24.558  22.712  12.374
76217ION    CL-48532  24.621   8.034  14.958
76218ION    CL-48533   8.578   7.690  14.990
76219ION    CL-48534   9.397   8.237  14.599
76220ION    CL-48535  30.994  28.180   2.264
76221ION    CL-48536   5.747  35.381  12.536
76222ION    CL-48537  42.882  25.570   1.178
76223ION    CL-48538  43.248  27.040  14.691
76224ION    CL-48539   2.104  28.411  12.268
76225ION    CL-48540  42.990  29.163   3.952
76226ION    CL-48541  17.689  44.523  12.180
76227ION    CL-48542  32.544  16.758  10.283
76228ION    CL-48543   6.351  22.535  13.420
76229ION    CL-48544  12.280  25.782   4.969
76230ION    CL-48545  34.234   4.260  13.802
76231ION    CL-48546  13.297  39.483  13.011
76232ION    CL-48547  11.229  24.297   2.825
76233ION    CL-48548   6.428   5.414  12.995
76234ION    CL-48549  22.538  16.872   1.239
76235ION    CL-48550  10.473  12.244   4.996
76236ION    CL-48551   4.303  36.693  10.758
76237ION    CL-48552  13.266  44.794  12.498
76238ION    CL-48553  11.993  15.418  14.048
76239ION    CL-48554  20.314   1.007  13.043
76240ION    CL-48555  13.408  28.887  14.905
76241ION    CL-48556  36.077   3.349   1.454
76242ION    CL-48557  32.616  42.521   3.889
76243ION    CL-48558   7.873  40.028   3.947
76244ION    CL-48559  44.529   9.311  13.966
76245ION    CL-48560  11.089  42.304  13.796
76246ION    CL-48561  32.469   1.315  11.602
76247ION    CL-48562  22.538  37.630   4.493
76248ION    CL-48563  28.242  21.327   1.368
76249ION    CL-48564  36.991  37.110   2.018
76250ION    CL-48565  29.562   3.112   4.502
76251ION    CL-48566  22.374  36.880   3.607
76252ION    CL-48567  24.621  28.061  10.732
76253ION    CL-48568  24.387  34.654   2.078
76254ION    CL-48569  37.815  40.088  13.250
76255ION    CL-48570  42.728  31.926  12.717
76256ION    CL-48571  22.440   6.604   1.315
76257ION    CL-48572  11.243  29.604   4.942
76258ION    CL-48573  17.578  17.723  14.897
76259ION    CL-48574  18.118  32.792   2.387
76260ION    CL-48575  38.924  43.558  12.975
76261ION    CL-48576   3.080  43.068   3.687
76262ION    CL-48577  38.010  25.689  13.289
76263ION    CL-48578   7.072   4.656  12.898
76264ION    CL-48579   3.276  38.326  13.974
76265ION    CL-48580  29.685  23.105  13.489
76266ION    CL-48581  14.359  26.453  10.749
76267ION    CL-48582   8.142  36.746   5.129
76268ION    CL-48583  16.881  22.555  14.336
76269ION    CL-48584  40.923   4.776  12.642
76270ION    CL-48585  20.018  36.854   3.775
76271ION    CL-48586  30.669  42.056   1.636
76272ION    CL-48587  15.118  17.963   0.534
76273ION    CL-48588  21.384  33.627  13.538
76274ION    CL-48589  41.812  23.646   1.792
76275ION    CL-48590  39.642  12.055   2.697
76276ION    CL-48591  38.375   5.883   4.621
76277ION    CL-48592  27.629   1.526   3.009
76278ION    CL-48593   7.900  24.521   2.541
76279ION    CL-48594  41.823  29.690   3.498
76280ION    CL-48595  41.786  32.952   3.154
76281ION    CL-48596  32.219  19.063   1.123
76282ION    CL-48597  20.140  20.195   3.222
76283ION    CL-48598  13.891  18.259  11.107
76284ION    CL-48599   6.752  35.340  13.439
76285ION    CL-48600  27.147  13.600  11.769
76286ION    CL-48601  43.903  19.103  11.188
76287ION    CL-48602  27.525  14.873  12.025
76288ION    CL-48603   9.045  26.599  12.568
76289ION    CL-48604  14.983   3.859   2.959
76290ION    CL-48605  10.901  41.247  10.220
76291ION    CL-48606  21.782  24.953   3.839
76292ION    CL-48607  40.829  18.327   4.252
76293ION    CL-48608  11.122  16.825  12.172
76294ION    CL-48609  38.420  24.022  13.709
76295ION    CL-48610  33.603   3.371  10.870
76296ION    CL-48611  38.807  28.204   1.548
76297ION    CL-48612   1.899   4.526   3.937
76298ION    CL-48613  36.853  35.385  12.809
76299ION    CL-48614   0.077  32.557   1.419
76300ION    CL-48615   3.853   0.269   2.856
76301ION    CL-48616  35.967  19.240   1.554
76302ION    CL-48617  39.495  43.024   3.193
76303ION    CL-48618  43.000   5.358  12.024
76304ION    CL-48619   5.453  16.934   1.597
76305ION    CL-48620  17.315   2.022   2.773
76306ION    CL-48621  14.296  12.631  11.683
76307ION    CL-48622  21.215  23.772   0.387
76308ION    CL-48623   3.797  40.383   1.139
76309ION    CL-48624  24.095  25.515   0.866
76310ION    CL-48625   3.859  20.805   0.071
76311ION    CL-48626  30.063  15.145   3.130
76312ION    CL-48627  22.538  11.621   9.993
76313ION    CL-48628  24.999   4.090   3.260
76314ION    CL-48629  12.535  33.417   2.859
76315ION    CL-48630  17.886  35.818  12.988
76316ION    CL-48631  11.728  37.685   2.383
76317ION    CL-48632  22.676  21.742  10.894
76318ION    CL-48633  29.964  28.048   0.703
76319ION    CL-48634  17.677   6.848  10.834
76320ION    CL-48635   0.730  29.301  13.855
76321ION    CL-48636  21.448  16.926  14.857
76322ION    CL-48637  39.909  42.054   4.191
76323ION    CL-48638  31.225  21.223   2.828
76324ION    CL-48639  39.742  39.481  12.384
76325ION    CL-48640  18.503  36.343  12.223
76326ION    CL-48641   9.470  21.653  10.558
76327ION    CL-48642  37.123   0.839   0.875
76328ION    CL-48643  12.814  22.350   1.468
76329ION    CL-48644  29.567   2.896  10.745
76330ION    CL-48645  26.995  42.659  14.865
76331ION    CL-48646  10.075  40.954   4.346
76332ION    CL-48647  25.028   7.322   1.721
76333ION    CL-48648  34.516  28.568   4.116
76334ION    CL-48649  43.924  23.743   3.152
76335ION    CL-48650  24.521  40.547   4.891
76336ION    CL-48651  18.280  11.732   1.682
76337ION    CL-48652  30.568  40.490   4.064
76338ION    CL-48653  41.339  42.260   5.074
76339ION    CL-48654   9.068  13.368   2.193
76340ION    CL-48655  12.897  31.759  14.401
76341ION    CL-48656  30.178  32.880   1.135
76342ION    CL-48657  10.642  18.373  11.571
76343ION    CL-48658  29.869  24.014  13.115
76344ION    CL-48659  15.553  17.191   3.186
76345ION    CL-48660  11.702  26.537   2.780
76346ION    CL-48661  43.098  27.561  11.991
76347ION    CL-48662  33.056  17.297   2.691
76348ION    CL-48663   6.755  25.217   0.345
76349ION    CL-48664   2.408  39.055  12.021
76350ION    CL-48665   8.078   5.581   1.606
76351ION    CL-48666  25.003  24.560   2.512
76352ION    CL-48667  43.378  33.718   5.138
76353ION    CL-48668  43.023  11.466   4.973
76354ION    CL-48669  13.011  37.036   2.569
76355ION    CL-48670  41.690  19.324   1.088
76356ION    CL-48671  32.473   0.464   2.661
76357ION    CL-48672  36.994  41.801   2.228
76358ION    CL-48673  38.821  16.360  13.935
76359ION    CL-48674  28.159   4.969   3.948
76360ION    CL-48675  24.190  44.859   1.720
76361ION    CL-48676   2.307  16.719  14.355
76362ION    CL-48677  22.679  22.332   3.265
76363ION    CL-48678   6.716  25.531   3.208
76364ION    CL-48679  13.250  35.882   2.194
76365ION    CL-48680  42.463  21.442   2.852
76366ION    CL-48681  27.202  44.885   0.916
76367ION    CL-48682  21.237  18.017   0.202
76368ION    CL-48683  14.207  39.835   0.930
76369ION    CL-48684  18.388  12.106  14.347
76370ION    CL-48685  35.115  31.390   1.802
76371ION    CL-48686   5.975  14.271   1.849
76372ION    CL-48687   5.099  40.040   1.174
76373ION    CL-48688   3.190  26.864  13.900
76374ION    CL-48689   8.185  32.673   0.620
76375ION    CL-48690  26.479  29.833   0.364
76376ION    CL-48691  37.965  17.225  12.070
76377ION    CL-48692  28.489  39.058  13.855
76378ION    CL-48693   3.859  20.026   3.477
76379ION    CL-48694  21.205   4.562   0.268
76380ION    CL-48695  36.466  30.560   9.844
76381ION    CL-48696   8.748   9.513  11.726
76382ION    CL-48697  19.171  12.275   0.841
76383ION    CL-48698  26.402  32.973  13.614
76384ION    CL-48699  22.317  32.212  12.926
76385ION    CL-48700   5.916  29.935   2.844
76386ION    CL-48701  26.609  35.578   0.164
76387ION    CL-48702  43.747  20.908   2.730
76388ION    CL-48703  40.087  41.724  13.574
76389ION    CL-48704  33.575   9.115   3.460
76390ION    CL-48705  38.365   2.714   1.731
76391ION    CL-48706  40.557   9.691  12.110
76392ION    CL-48707  44.097  21.764  14.857
76393ION    CL-48708  36.122  25.960   0.240
76394ION    CL-48709  43.916  11.343  14.705
76395ION    CL-48710  20.511  38.118  13.711
76396ION    CL-48711  15.865  32.022  12.599
76397ION    CL-48712  12.145  12.671  13.092
76398ION    CL-48713   6.628  28.599  14.316
76399ION    CL-48714  20.552  13.851  13.117
76400ION    CL-48715  13.203  23.169   2.410
76401ION    CL-48716  14.220  13.042   0.839
76402ION    CL-48717  35.310  18.974  11.927
76403ION    CL-48718   7.814  40.032  10.760
76404ION    CL-48719   9.097  12.500   2.296
  45.00000  45.00000  15.00000
